/*--------------------------------*- C++ -*----------------------------------*\
  =========                 |
  \\      /  F ield         | OpenFOAM: The Open Source CFD Toolbox
   \\    /   O peration     | Website:  https://openfoam.org
    \\  /    A nd           | Version:  13
     \\/     M anipulation  |
\*---------------------------------------------------------------------------*/
FoamFile
{
    format      ascii;
    class       volVectorField;
    location    "2000";
    object      U;
}
// * * * * * * * * * * * * * * * * * * * * * * * * * * * * * * * * * * * * * //

dimensions      [0 1 -1 0 0 0 0];

internalField   nonuniform List<vector> 
12225
(
(9.76109 0.0484425 0)
(9.30954 0.0977534 0)
(8.85154 0.105079 0)
(8.44958 0.0886392 0)
(8.16533 0.0627284 0)
(7.89434 0.0657304 0)
(7.54497 0.0724195 0)
(7.24662 0.0632593 0)
(6.98188 0.0493732 0)
(6.74254 0.0518453 0)
(6.53908 0.0661187 0)
(6.3496 0.0644054 0)
(6.18598 0.0487566 0)
(6.0443 0.0406611 0)
(5.9223 0.0406393 0)
(5.82709 0.0321842 0)
(5.76018 0.02505 0)
(5.72961 0.0202142 0)
(10.0961 0.0614718 0)
(10.2423 0.0868974 0)
(10.3675 0.0817 0)
(10.4259 0.0763453 0)
(10.3831 0.0784891 0)
(10.3054 0.0817724 0)
(10.2896 0.0846011 0)
(10.2449 0.0808906 0)
(10.1929 0.0744584 0)
(10.1366 0.0706125 0)
(10.0569 0.0667024 0)
(9.97084 0.0661062 0)
(9.88624 0.0656605 0)
(9.80586 0.0641918 0)
(9.72091 0.0558008 0)
(9.63764 0.0433964 0)
(9.56623 0.0347932 0)
(9.49669 0.0213983 0)
(10.0184 0.0396546 0)
(10.0942 0.0664249 0)
(10.1387 0.0735895 0)
(10.1798 0.0699187 0)
(10.2087 0.0731434 0)
(10.2393 0.0839634 0)
(10.2724 0.0913473 0)
(10.3022 0.0914363 0)
(10.3303 0.0889892 0)
(10.3539 0.0898532 0)
(10.3745 0.0905054 0)
(10.3939 0.0884687 0)
(10.4099 0.0848862 0)
(10.4219 0.0819637 0)
(10.4308 0.0774305 0)
(10.4363 0.0685784 0)
(10.438 0.0579492 0)
(10.4364 0.0433766 0)
(10.0095 0.0309515 0)
(10.0434 0.0576346 0)
(10.0708 0.0578196 0)
(10.085 0.0614901 0)
(10.0967 0.0702107 0)
(10.1118 0.0756652 0)
(10.1304 0.0774449 0)
(10.1486 0.0760928 0)
(10.163 0.0726644 0)
(10.1765 0.0721902 0)
(10.1925 0.0724411 0)
(10.2098 0.0701814 0)
(10.2266 0.0665347 0)
(10.2432 0.0637344 0)
(10.2594 0.0599613 0)
(10.2736 0.0522375 0)
(10.2839 0.0427366 0)
(10.292 0.0314445 0)
(10.0036 0.0257656 0)
(10.0281 0.0485942 0)
(10.051 0.0573375 0)
(10.0629 0.0620498 0)
(10.0736 0.0685189 0)
(10.0852 0.0737613 0)
(10.0985 0.0765366 0)
(10.1117 0.0757819 0)
(10.1218 0.0736409 0)
(10.1307 0.0730003 0)
(10.1408 0.0729019 0)
(10.1515 0.0712241 0)
(10.1617 0.0681663 0)
(10.1718 0.0649267 0)
(10.1819 0.0606206 0)
(10.191 0.0538459 0)
(10.1978 0.045822 0)
(10.2025 0.0364341 0)
(10.0025 0.0200002 0)
(10.023 0.0426446 0)
(10.0415 0.0536044 0)
(10.0533 0.058154 0)
(10.0635 0.0630299 0)
(10.0751 0.067321 0)
(10.0873 0.0694729 0)
(10.0991 0.0691445 0)
(10.1088 0.0674737 0)
(10.1177 0.0665095 0)
(10.1271 0.0657377 0)
(10.1366 0.063455 0)
(10.1456 0.0602095 0)
(10.1542 0.0566335 0)
(10.1626 0.0518791 0)
(10.17 0.0453981 0)
(10.1756 0.0382432 0)
(10.1791 0.0303876 0)
(10.0024 0.016373 0)
(10.018 0.0371685 0)
(10.0342 0.0486824 0)
(10.0466 0.054368 0)
(10.0566 0.0589376 0)
(10.0675 0.0629221 0)
(10.0788 0.0650538 0)
(10.0897 0.0650888 0)
(10.099 0.0638745 0)
(10.1074 0.0630057 0)
(10.1161 0.0620987 0)
(10.1249 0.0600867 0)
(10.1332 0.0572225 0)
(10.1411 0.0537473 0)
(10.1486 0.0494201 0)
(10.155 0.044022 0)
(10.1599 0.0380714 0)
(10.1634 0.0316891 0)
(10.002 0.0134827 0)
(10.0132 0.0324728 0)
(10.0279 0.044165 0)
(10.041 0.0504254 0)
(10.0514 0.0551109 0)
(10.0618 0.0586431 0)
(10.0724 0.0606602 0)
(10.0825 0.0608909 0)
(10.0916 0.060119 0)
(10.0998 0.0592477 0)
(10.108 0.0581302 0)
(10.1161 0.056193 0)
(10.1239 0.0534596 0)
(10.1311 0.0500847 0)
(10.1377 0.0459848 0)
(10.1434 0.0410946 0)
(10.1477 0.0358357 0)
(10.151 0.0303437 0)
(10.0015 0.0112225 0)
(10.0096 0.0281522 0)
(10.0228 0.0394662 0)
(10.0355 0.0461598 0)
(10.0461 0.0510709 0)
(10.0563 0.0545022 0)
(10.0665 0.0564713 0)
(10.0763 0.0568679 0)
(10.0851 0.0563565 0)
(10.0933 0.0554835 0)
(10.1012 0.0541929 0)
(10.1088 0.052197 0)
(10.116 0.0495814 0)
(10.1227 0.0463714 0)
(10.1288 0.042547 0)
(10.1339 0.0381909 0)
(10.138 0.0335777 0)
(10.1411 0.0288539 0)
(10.0011 0.0094227 0)
(10.0074 0.0242226 0)
(10.0187 0.0349793 0)
(10.0302 0.041728 0)
(10.0406 0.0465737 0)
(10.0507 0.0499579 0)
(10.0605 0.0518656 0)
(10.07 0.0523962 0)
(10.0787 0.0520403 0)
(10.0867 0.0512109 0)
(10.0944 0.0499053 0)
(10.1018 0.0479864 0)
(10.1087 0.0454846 0)
(10.115 0.0424767 0)
(10.1206 0.0389851 0)
(10.1255 0.0351113 0)
(10.1295 0.031061 0)
(10.1327 0.0269765 0)
(10.0008 0.00796823 0)
(10.0059 0.0206726 0)
(10.0154 0.0305978 0)
(10.0257 0.0372358 0)
(10.0355 0.0419543 0)
(10.0452 0.0452344 0)
(10.0547 0.0471336 0)
(10.0639 0.0477719 0)
(10.0724 0.0475607 0)
(10.0804 0.0468076 0)
(10.0879 0.0455454 0)
(10.0951 0.0437312 0)
(10.1017 0.0413947 0)
(10.1078 0.0386148 0)
(10.1132 0.035438 0)
(10.118 0.0319849 0)
(10.1219 0.0284175 0)
(10.1253 0.0248605 0)
(10.0006 0.00678105 0)
(10.0049 0.0178574 0)
(10.013 0.0269113 0)
(10.0223 0.0332181 0)
(10.0315 0.0376722 0)
(10.0407 0.0407447 0)
(10.0498 0.0425515 0)
(10.0585 0.0432389 0)
(10.0668 0.043122 0)
(10.0746 0.0424437 0)
(10.0819 0.041261 0)
(10.0889 0.0395678 0)
(10.0953 0.0374244 0)
(10.1012 0.034879 0)
(10.1066 0.0320223 0)
(10.1112 0.0289427 0)
(10.1152 0.0257878 0)
(10.1187 0.0226449 0)
(10.0005 0.00575358 0)
(10.0041 0.0152122 0)
(10.0109 0.0233495 0)
(10.0192 0.0292529 0)
(10.0277 0.0334518 0)
(10.0364 0.0363587 0)
(10.045 0.0381101 0)
(10.0534 0.0388322 0)
(10.0614 0.0387812 0)
(10.069 0.0381565 0)
(10.0762 0.0370282 0)
(10.0829 0.0354339 0)
(10.0892 0.0334391 0)
(10.095 0.0311003 0)
(10.1001 0.0285054 0)
(10.1047 0.0257461 0)
(10.1087 0.0229212 0)
(10.1123 0.0201495 0)
(10.0004 0.0047467 0)
(10.0034 0.012629 0)
(10.0091 0.0196562 0)
(10.0163 0.0249406 0)
(10.0241 0.028714 0)
(10.0321 0.0313276 0)
(10.0402 0.0329156 0)
(10.0481 0.0336051 0)
(10.0557 0.0335784 0)
(10.063 0.033004 0)
(10.0699 0.0319463 0)
(10.0764 0.0304942 0)
(10.0824 0.0286764 0)
(10.0879 0.0265998 0)
(10.093 0.0242978 0)
(10.0974 0.0218895 0)
(10.1014 0.019419 0)
(10.105 0.0170182 0)
(10.0004 0.0037409 0)
(10.0028 0.0100431 0)
(10.0075 0.0157932 0)
(10.0138 0.0202519 0)
(10.0208 0.0234584 0)
(10.0282 0.0256682 0)
(10.0356 0.0270161 0)
(10.043 0.0275995 0)
(10.0501 0.0275627 0)
(10.057 0.0270169 0)
(10.0635 0.0260635 0)
(10.0696 0.0247476 0)
(10.0753 0.0231615 0)
(10.0806 0.0213359 0)
(10.0854 0.0193687 0)
(10.0897 0.0172889 0)
(10.0936 0.0152006 0)
(10.0972 0.0131409 0)
(10.0003 0.00273013 0)
(10.0023 0.00742556 0)
(10.0063 0.0117518 0)
(10.0118 0.0151889 0)
(10.018 0.0176802 0)
(10.0247 0.0193763 0)
(10.0315 0.0203979 0)
(10.0383 0.0208065 0)
(10.0449 0.020711 0)
(10.0513 0.0201888 0)
(10.0574 0.0193297 0)
(10.0631 0.0181826 0)
(10.0685 0.0168192 0)
(10.0735 0.0152754 0)
(10.078 0.0136208 0)
(10.0822 0.0118933 0)
(10.0859 0.0101461 0)
(10.0894 0.00845109 0)
(10.0002 0.00170869 0)
(10.002 0.00472072 0)
(10.0054 0.00749021 0)
(10.0102 0.00973452 0)
(10.0158 0.0113481 0)
(10.0218 0.0124226 0)
(10.028 0.0130158 0)
(10.0343 0.0131859 0)
(10.0404 0.0129746 0)
(10.0464 0.0124636 0)
(10.0521 0.0116847 0)
(10.0574 0.0107152 0)
(10.0625 0.00956445 0)
(10.0672 0.00830986 0)
(10.0715 0.00695267 0)
(10.0755 0.0055711 0)
(10.0791 0.00414778 0)
(10.0825 0.00279285 0)
(10.0002 0.000643756 0)
(10.0018 0.0018118 0)
(10.0049 0.00288554 0)
(10.0092 0.00376361 0)
(10.0144 0.00434908 0)
(10.0199 0.00466815 0)
(10.0257 0.0047421 0)
(10.0315 0.00458499 0)
(10.0372 0.00421654 0)
(10.0428 0.00366966 0)
(10.0481 0.00296842 0)
(10.0532 0.00214538 0)
(10.0579 0.00122004 0)
(10.0624 0.000224429 0)
(10.0665 -0.000823481 0)
(10.0704 -0.0018939 0)
(10.0739 -0.00297933 0)
(10.0773 -0.00402671 0)
(10.0002 -0.000545673 0)
(10.0018 -0.00153595 0)
(10.0048 -0.00236383 0)
(10.0091 -0.00301768 0)
(10.014 -0.00360201 0)
(10.0194 -0.00413804 0)
(10.025 -0.00466959 0)
(10.0305 -0.00520358 0)
(10.0361 -0.00577662 0)
(10.0414 -0.00637443 0)
(10.0465 -0.00702372 0)
(10.0514 -0.00770025 0)
(10.0559 -0.00842109 0)
(10.0602 -0.00915721 0)
(10.0642 -0.00992044 0)
(10.068 -0.0106827 0)
(10.0714 -0.0114557 0)
(10.0747 -0.012194 0)
(10.0002 -0.00172624 0)
(10.002 -0.00491788 0)
(10.0054 -0.00757335 0)
(10.0101 -0.00965312 0)
(10.0154 -0.0112796 0)
(10.021 -0.0125791 0)
(10.0267 -0.0136104 0)
(10.0324 -0.0144651 0)
(10.038 -0.0151661 0)
(10.0434 -0.0157954 0)
(10.0485 -0.0163526 0)
(10.0533 -0.0168978 0)
(10.0579 -0.017406 0)
(10.0621 -0.0179276 0)
(10.0661 -0.0184244 0)
(10.0698 -0.0189414 0)
(10.0732 -0.0194334 0)
(10.0765 -0.0199304 0)
(10.0003 -0.00283847 0)
(10.0025 -0.0080989 0)
(10.0066 -0.0123171 0)
(10.0119 -0.0154956 0)
(10.0178 -0.0178815 0)
(10.0239 -0.0197018 0)
(10.0299 -0.0210606 0)
(10.0359 -0.0220736 0)
(10.0417 -0.0228114 0)
(10.0473 -0.0233877 0)
(10.0525 -0.0238297 0)
(10.0574 -0.0242162 0)
(10.062 -0.0245382 0)
(10.0662 -0.0248586 0)
(10.0702 -0.0251486 0)
(10.0739 -0.0254552 0)
(10.0774 -0.0257434 0)
(10.0806 -0.0260339 0)
(10.0003 -0.00406653 0)
(10.0032 -0.0115346 0)
(10.0083 -0.0171987 0)
(10.0147 -0.0212528 0)
(10.0213 -0.02422 0)
(10.028 -0.0264119 0)
(10.0346 -0.0279813 0)
(10.041 -0.0290393 0)
(10.0471 -0.0297516 0)
(10.0529 -0.0302056 0)
(10.0583 -0.0305142 0)
(10.0633 -0.0306968 0)
(10.068 -0.0308427 0)
(10.0723 -0.0309344 0)
(10.0763 -0.0310493 0)
(10.0801 -0.0311382 0)
(10.0835 -0.0312684 0)
(10.0868 -0.0313702 0)
(10.0005 -0.00550893 0)
(10.0043 -0.0154058 0)
(10.0109 -0.0223444 0)
(10.0185 -0.027028 0)
(10.026 -0.0304088 0)
(10.0334 -0.0328598 0)
(10.0406 -0.0345008 0)
(10.0475 -0.0355182 0)
(10.0541 -0.0361063 0)
(10.0601 -0.0364142 0)
(10.0658 -0.0365323 0)
(10.071 -0.0365284 0)
(10.0758 -0.0364562 0)
(10.0802 -0.0363592 0)
(10.0843 -0.0362583 0)
(10.0881 -0.0361728 0)
(10.0916 -0.0361066 0)
(10.0949 -0.0360597 0)
(10.0007 -0.00730493 0)
(10.0061 -0.0198718 0)
(10.0146 -0.0277998 0)
(10.0236 -0.032821 0)
(10.0321 -0.036489 0)
(10.0402 -0.0391026 0)
(10.0481 -0.040728 0)
(10.0556 -0.0416112 0)
(10.0626 -0.0420141 0)
(10.0691 -0.0421141 0)
(10.075 -0.0420047 0)
(10.0804 -0.0417835 0)
(10.0854 -0.041491 0)
(10.09 -0.0412001 0)
(10.0942 -0.0409046 0)
(10.0981 -0.0406611 0)
(10.1017 -0.0404279 0)
(10.1051 -0.0402638 0)
(10.0011 -0.00965641 0)
(10.0088 -0.0250459 0)
(10.0197 -0.0336028 0)
(10.0302 -0.0386392 0)
(10.0395 -0.0424418 0)
(10.0486 -0.0451145 0)
(10.0574 -0.0466561 0)
(10.0657 -0.0473811 0)
(10.0733 -0.0475872 0)
(10.0802 -0.0474527 0)
(10.0866 -0.0470935 0)
(10.0924 -0.0466078 0)
(10.0977 -0.0460639 0)
(10.1025 -0.0455166 0)
(10.1069 -0.0450069 0)
(10.1109 -0.0445517 0)
(10.1146 -0.0441527 0)
(10.1181 -0.0438176 0)
(10.0019 -0.0128266 0)
(10.0128 -0.0307505 0)
(10.0265 -0.03951 0)
(10.0385 -0.044521 0)
(10.0491 -0.0483949 0)
(10.0596 -0.0509526 0)
(10.0699 -0.0522683 0)
(10.0794 -0.0527744 0)
(10.0881 -0.0527785 0)
(10.096 -0.0524442 0)
(10.1031 -0.0518775 0)
(10.1096 -0.0512055 0)
(10.1154 -0.0504677 0)
(10.1207 -0.0497395 0)
(10.1254 -0.0490627 0)
(10.1297 -0.0484585 0)
(10.1336 -0.0479483 0)
(10.1372 -0.0475041 0)
(10.0031 -0.0170835 0)
(10.0185 -0.0362496 0)
(10.0361 -0.0443397 0)
(10.0511 -0.0499974 0)
(10.0651 -0.0544622 0)
(10.0792 -0.057022 0)
(10.0927 -0.0579902 0)
(10.1051 -0.0580546 0)
(10.1161 -0.0576004 0)
(10.1258 -0.0567946 0)
(10.1344 -0.0557878 0)
(10.142 -0.0546969 0)
(10.1485 -0.0535966 0)
(10.1542 -0.052562 0)
(10.1591 -0.0516345 0)
(10.1633 -0.0508273 0)
(10.167 -0.0501505 0)
(10.1702 -0.049622 0)
(10.0071 -0.0266976 0)
(10.0339 -0.0452445 0)
(10.0642 -0.0495286 0)
(10.0917 -0.0545355 0)
(10.118 -0.0599339 0)
(10.1426 -0.0633251 0)
(10.1639 -0.0648318 0)
(10.1812 -0.0651849 0)
(10.1949 -0.0648107 0)
(10.2055 -0.0638902 0)
(10.2133 -0.0626178 0)
(10.2185 -0.0611014 0)
(10.2217 -0.0595154 0)
(10.2229 -0.0579665 0)
(10.2225 -0.0565739 0)
(10.2209 -0.0553998 0)
(10.2183 -0.0544484 0)
(10.215 -0.0538282 0)
(10.0505 -0.0367465 0)
(10.1705 -0.0671699 0)
(10.2571 -0.072601 0)
(10.3069 -0.0741906 0)
(10.3316 -0.0746106 0)
(10.3371 -0.0735227 0)
(10.3274 -0.0712253 0)
(10.3069 -0.0684105 0)
(10.2787 -0.0654142 0)
(10.2455 -0.0623605 0)
(10.2088 -0.0592894 0)
(10.1699 -0.0562659 0)
(10.1294 -0.053351 0)
(10.0883 -0.0506661 0)
(10.0468 -0.0482159 0)
(10.0064 -0.046126 0)
(9.96705 -0.0445396 0)
(9.92956 -0.0437394 0)
(9.86866 -0.0392415 0)
(9.60572 -0.0733338 0)
(9.32756 -0.0836875 0)
(9.05254 -0.0850251 0)
(8.79756 -0.0814679 0)
(8.5704 -0.0751503 0)
(8.36905 -0.0679474 0)
(8.19054 -0.0606151 0)
(8.03306 -0.0535379 0)
(7.89465 -0.046904 0)
(7.77342 -0.0407903 0)
(7.66746 -0.0351773 0)
(7.57518 -0.0301092 0)
(7.49456 -0.025586 0)
(7.42419 -0.0217366 0)
(7.36149 -0.0186875 0)
(7.30465 -0.0163293 0)
(7.25371 -0.0149054 0)
(-0.00255925 0.00735023 -1.01123e-18)
(-0.0120519 0.0123585 1.1429e-18)
(-0.0250923 0.0137963 0)
(-0.0390822 0.012267 0)
(-0.0495515 0.00706701 0)
(-0.0493297 -0.00180372 -8.09838e-19)
(-0.0348245 -0.0140936 0)
(-0.00905372 -0.0272946 0)
(0.0250889 -0.0375484 0)
(0.0647491 -0.0427654 0)
(0.106809 -0.0435429 4.37423e-19)
(0.147977 -0.040975 0)
(0.185499 -0.0361179 0)
(0.217719 -0.0297477 0)
(0.243732 -0.022464 0)
(0.263101 -0.0146054 2.4946e-19)
(0.275468 -0.00640937 0)
(0.281057 0.0022119 0)
(0.278714 0.0110855 0)
(0.268727 0.0197215 0)
(0.251702 0.027345 0)
(0.228297 0.033208 0)
(0.199479 0.0365721 0)
(0.166611 0.0368827 3.50335e-19)
(0.131585 0.0337299 -4.10832e-19)
(0.0966016 0.0271964 4.99344e-19)
(0.0641645 0.0180226 6.29453e-19)
(0.036555 0.00800237 0)
(0.0153799 -0.000318406 0)
(0.000829705 -0.00510704 -1.36544e-18)
(-0.00810246 -0.00707373 -1.41871e-18)
(-0.0125111 -0.00821842 0)
(-0.0115259 -0.00989806 0)
(-0.00467945 -0.0130927 -1.42879e-18)
(0.00896108 -0.0182799 0)
(0.0305809 -0.0246762 0)
(0.0583274 -0.0295058 6.56319e-19)
(0.088384 -0.0304553 0)
(0.115703 -0.0268427 4.4812e-19)
(0.136191 -0.019952 8.23376e-19)
(0.14776 -0.0120148 0)
(0.151052 -0.00514159 0)
(0.148111 -0.000883281 0)
(0.142829 -0.000104576 0)
(0.138747 -0.00358684 0)
(0.135572 -0.0111446 8.53508e-19)
(0.128242 -0.0204068 8.67257e-19)
(0.110157 -0.0233625 9.14788e-19)
(0.0760868 -0.0112619 0)
(0.0169512 0.00944612 -1.09343e-18)
(-0.0753045 0.0265779 0)
(-0.175214 0.0467921 4.46986e-19)
(-0.285311 0.0707894 3.16072e-19)
(-0.404994 0.0920534 0)
(-0.531773 0.105779 0)
(-0.661995 0.11122 0)
(-0.79129 0.112439 1.6252e-19)
(-0.916888 0.109942 0)
(-1.03783 0.102704 0)
(-1.15149 0.0944706 0)
(-1.25719 0.0874626 0)
(-1.35485 0.0796222 0)
(-1.44475 0.0718344 0)
(-1.52692 0.0656585 0)
(-1.60261 0.0601381 0)
(-1.67246 0.0553584 -9.63756e-20)
(-1.73716 0.0508139 0)
(-1.79716 0.0467311 0)
(-1.85313 0.0432905 8.88208e-20)
(-1.9056 0.0403129 8.68176e-20)
(-1.955 0.0376809 0)
(-2.0017 0.0354051 -8.3304e-20)
(-2.04602 0.0333623 8.17432e-20)
(-2.08819 0.0315567 0)
(-2.12841 0.0299036 -7.89214e-20)
(-2.16685 0.0284065 0)
(-2.20362 0.0270039 0)
(-2.23883 0.0257035 7.52548e-20)
(-2.27258 0.0244559 0)
(-2.30491 0.0232768 -7.30943e-20)
(-2.33586 0.0221266 0)
(-2.36548 0.0210209 7.11083e-20)
(-2.39378 0.0199262 7.0172e-20)
(-2.42079 0.0188602 6.92628e-20)
(-2.4465 0.0177958 1.36768e-19)
(-2.47092 0.0167448 -1.3505e-19)
(-2.49405 0.0156861 0)
(-2.51591 0.014631 0)
(-2.53652 0.0135657 0)
(-2.55589 0.0124888 -1.28477e-19)
(-2.57394 0.0113908 -1.26856e-19)
(-2.59056 0.0102761 1.25235e-19)
(-2.6057 0.00913772 0)
(-2.61935 0.00798237 -1.21999e-19)
(-2.63152 0.00680676 -1.20383e-19)
(-2.64217 0.0056131 -1.18765e-19)
(-2.65127 0.00440555 0)
(-2.65878 0.00319523 0)
(-2.66462 0.00201706 0)
(-2.66876 0.000933644 -1.12228e-19)
(-2.67118 2.76493e-05 0)
(-2.6723 -0.000740966 0)
(-2.67217 -0.00145154 1.06916e-19)
(-2.67083 -0.00212842 0)
(-2.66831 -0.00278459 0)
(-2.6646 -0.00342254 1.01094e-19)
(-2.65973 -0.00405404 0)
(-2.6537 -0.00467148 0)
(-2.64651 -0.00528513 -9.46961e-20)
(-2.63816 -0.00588212 -9.24362e-20)
(-2.62866 -0.00647612 0)
(-2.61802 -0.00705135 8.77279e-20)
(-2.60625 -0.00762455 0)
(-2.59335 -0.00817768 -8.27747e-20)
(-2.57933 -0.00872919 0)
(-2.56421 -0.00925871 -7.75808e-20)
(-2.54799 -0.00978481 -7.48952e-20)
(-2.5307 -0.0102884 0)
(-2.51235 -0.0107878 0)
(-2.49294 -0.0112646 0)
(-2.47246 -0.0117303 0)
(-2.4509 -0.0121706 0)
(-2.42831 -0.0126015 0)
(-2.40472 -0.013009 0)
(-2.38015 -0.0134119 -5.12089e-20)
(-2.35464 -0.01379 4.79589e-20)
(-2.32819 -0.0141594 0)
(-2.30081 -0.014503 0)
(-2.27251 -0.0148406 0)
(-2.24331 -0.0151636 0)
(-2.21321 -0.0154663 6.14416e-20)
(-2.18225 -0.0157232 0)
(-2.15043 -0.015948 -4.67406e-20)
(-2.11779 -0.0161363 3.92009e-20)
(-2.08434 -0.0162644 0)
(-2.05012 -0.0162757 0)
(-2.01521 -0.0161157 0)
(-1.97966 -0.0157702 -7.79007e-21)
(-1.94343 -0.0155944 4.00581e-22)
(-1.9064 -0.0157138 0)
(-1.86862 -0.0158131 1.73093e-20)
(-1.83016 -0.0159032 2.60558e-20)
(-1.79105 -0.0160069 -3.502e-20)
(-1.75127 -0.0161233 0)
(-1.71081 -0.0162513 0)
(-1.66968 -0.0163935 -6.34301e-20)
(-1.62786 -0.0165502 0)
(-1.58535 -0.0167253 0)
(-1.54214 -0.0169176 0)
(-1.49823 -0.0171299 0)
(-1.4536 -0.0173612 1.17601e-19)
(-1.40825 -0.0176112 1.29812e-19)
(-1.36216 -0.0178818 0)
(-1.31537 -0.0181686 1.55993e-19)
(-1.26783 -0.0184758 0)
(-1.2196 -0.0187988 0)
(-1.17063 -0.0191436 2.00605e-19)
(-1.12098 -0.0195045 0)
(-1.07061 -0.019888 2.34796e-19)
(-1.01956 -0.0202874 0)
(-0.967802 -0.0207046 0)
(-0.915351 -0.0211459 2.94653e-19)
(-0.862205 -0.0215993 0)
(-0.808359 -0.0220736 3.41718e-19)
(-0.753822 -0.0225618 0)
(-0.6986 -0.0230653 0)
(-0.642706 -0.0235801 0)
(-0.586159 -0.0241088 -4.59443e-19)
(-0.52898 -0.0246483 0)
(-0.471192 -0.0252003 5.34313e-19)
(-0.412823 -0.0257625 0)
(-0.353908 -0.0263329 0)
(-0.294513 -0.0268999 0)
(-0.234732 -0.0274603 0)
(-0.174721 -0.0279775 0)
(-0.114769 -0.0283124 0)
(-0.0553188 -0.0282549 0)
(0.000924772 -0.0270674 -1.98985e-18)
(0.0633036 -0.024146 0)
(0.0826937 -0.0118692 0)
(-0.000200694 0.0199086 3.08259e-18)
(-0.00555361 0.0345841 -3.69102e-18)
(-0.012115 0.0364087 0)
(-0.0131791 0.0278701 2.60765e-18)
(-0.000884369 0.00757616 0)
(0.026943 -0.0275132 8.02251e-19)
(0.064575 -0.0679013 -1.00822e-18)
(0.10809 -0.10159 -7.18627e-19)
(0.153395 -0.12273 0)
(0.19706 -0.130707 -4.68285e-19)
(0.236841 -0.127994 -2.04715e-19)
(0.27175 -0.117845 0)
(0.301406 -0.103134 0)
(0.325806 -0.0859081 0)
(0.345144 -0.0675504 0)
(0.359715 -0.0488274 -1.58819e-19)
(0.369901 -0.030151 0)
(0.375852 -0.0116943 3.23677e-19)
(0.378594 0.00655561 0)
(0.377963 0.02449 0)
(0.373604 0.0416836 -3.35685e-19)
(0.365005 0.0576639 0)
(0.351639 0.0716272 3.58704e-19)
(0.333036 0.0826191 -1.88259e-19)
(0.30902 0.0894853 2.00898e-19)
(0.279835 0.0911925 -2.18533e-19)
(0.246412 0.0870324 -2.43355e-19)
(0.210386 0.0771586 0)
(0.174075 0.0626338 0)
(0.140305 0.0452587 3.9331e-19)
(0.112159 0.0266268 -4.76736e-19)
(0.0928722 0.00765983 0)
(0.0838491 -0.0117441 0)
(0.0868196 -0.0307162 5.77642e-19)
(0.0997984 -0.0498895 0)
(0.11938 -0.0670018 0)
(0.139586 -0.0753652 -3.25367e-19)
(0.154938 -0.0708447 0)
(0.162792 -0.0561203 2.6579e-19)
(0.162624 -0.036344 -5.41117e-19)
(0.155013 -0.0173805 0)
(0.141099 -0.00368634 0)
(0.121407 0.00443432 -1.38194e-18)
(0.091508 0.00972401 -1.55943e-18)
(0.0429169 0.0184828 -1.91755e-18)
(-0.0367454 0.0425831 8.16385e-19)
(-0.145748 0.0813289 -4.98272e-19)
(-0.270657 0.12356 -9.99508e-19)
(-0.402717 0.165638 4.83259e-19)
(-0.540141 0.202707 1.87586e-19)
(-0.681299 0.231313 0)
(-0.82079 0.251637 -1.30259e-19)
(-0.957074 0.26407 1.14882e-19)
(-1.08705 0.269001 0)
(-1.20872 0.266384 0)
(-1.32054 0.257485 0)
(-1.4206 0.244423 -8.28942e-20)
(-1.5095 0.228829 0)
(-1.58805 0.211588 1.52743e-19)
(-1.65737 0.193977 0)
(-1.71891 0.176789 1.4233e-19)
(-1.77415 0.160664 0)
(-1.82417 0.145941 -1.34408e-19)
(-1.8702 0.132778 0)
(-1.91267 0.121171 1.28337e-19)
(-1.95225 0.111082 -6.29355e-20)
(-1.98938 0.102294 0)
(-2.02453 0.094692 -1.21074e-19)
(-2.05795 0.0880675 -5.94834e-20)
(-2.08984 0.0822942 -5.85021e-20)
(-2.12035 0.0771957 0)
(-2.1496 0.0726807 -5.65996e-20)
(-2.17768 0.0686136 -5.58204e-20)
(-2.20465 0.064938 0)
(-2.23055 0.0615505 5.42034e-20)
(-2.25542 0.0584243 -1.06756e-19)
(-2.27927 0.0554812 0)
(-2.30214 0.052711 -5.19766e-20)
(-2.32403 0.0500544 0)
(-2.34495 0.0475165 1.51679e-19)
(-2.36491 0.0450503 0)
(-2.38389 0.0426669 -1.4777e-19)
(-2.40191 0.0403301 -4.86689e-20)
(-2.41894 0.038056 4.79354e-20)
(-2.43498 0.035815 9.46704e-20)
(-2.45002 0.0336183 -9.34906e-20)
(-2.46404 0.0314408 0)
(-2.47703 0.0292907 0)
(-2.48901 0.0271506 0)
(-2.5 0.0250125 2.66872e-19)
(-2.50995 0.0228725 8.78107e-20)
(-2.51877 0.0207279 -8.66125e-20)
(-2.52647 0.0185821 0)
(-2.53307 0.0164423 -8.41744e-20)
(-2.53859 0.0143093 8.29775e-20)
(-2.54307 0.0121814 8.17497e-20)
(-2.54655 0.0100615 0)
(-2.54908 0.00795222 0)
(-2.55076 0.0058809 0)
(-2.55168 0.00388998 7.66935e-20)
(-2.55191 0.00204969 0)
(-2.55109 0.000337844 -1.48053e-19)
(-2.54914 -0.00129549 -2.17744e-19)
(-2.54603 -0.00287776 1.42316e-19)
(-2.54177 -0.00442375 0)
(-2.53636 -0.0059381 6.82532e-20)
(-2.52982 -0.00742906 0)
(-2.52216 -0.00888926 1.29873e-19)
(-2.51336 -0.0103256 -6.34299e-20)
(-2.50345 -0.0117253 -6.17432e-20)
(-2.49243 -0.0130991 0)
(-2.4803 -0.0144319 -1.74086e-19)
(-2.46708 -0.015739 1.12571e-19)
(-2.45276 -0.0170046 5.42641e-20)
(-2.43736 -0.0182463 0)
(-2.42088 -0.0194462 5.0488e-20)
(-2.40333 -0.0206216 1.46089e-19)
(-2.38474 -0.0217571 0)
(-2.36511 -0.0228655 8.96671e-20)
(-2.34444 -0.0239278 8.56503e-20)
(-2.32272 -0.0249525 8.15754e-20)
(-2.29994 -0.0259269 0)
(-2.27613 -0.0268724 0)
(-2.25132 -0.0277796 0)
(-2.22555 -0.0286711 -3.2624e-20)
(-2.19882 -0.0295255 -2.99076e-20)
(-2.17116 -0.0303589 0)
(-2.14257 -0.0311503 -5.15162e-20)
(-2.11308 -0.0319155 -4.70225e-20)
(-2.08268 -0.0326373 0)
(-2.05142 -0.0333299 -3.73169e-20)
(-2.0193 -0.0339813 -6.65927e-20)
(-1.98633 -0.0346033 2.80492e-20)
(-1.95255 -0.0351895 2.45796e-20)
(-1.91798 -0.0357381 0)
(-1.88261 -0.0362586 0)
(-1.84647 -0.0367586 0)
(-1.80949 -0.0372368 4.45684e-21)
(-1.77169 -0.037677 -8.58363e-22)
(-1.73313 -0.0380602 9.07039e-21)
(-1.69388 -0.0384018 -9.95431e-21)
(-1.65391 -0.0387298 1.36362e-20)
(-1.61325 -0.0390681 1.97052e-20)
(-1.57189 -0.039399 0)
(-1.5298 -0.0397353 0)
(-1.487 -0.0400648 -3.34444e-20)
(-1.44347 -0.0403999 0)
(-1.39922 -0.0407307 0)
(-1.35422 -0.0410683 9.89717e-20)
(-1.30848 -0.0414018 0)
(-1.26198 -0.0417429 5.95606e-20)
(-1.21472 -0.042075 -6.63635e-20)
(-1.16668 -0.0424105 0)
(-1.11788 -0.0427331 7.64492e-20)
(-1.06831 -0.0430523 0)
(-1.01799 -0.0433568 0)
(-0.966909 -0.0436569 -9.60985e-20)
(-0.915096 -0.0439451 2.03662e-19)
(-0.862534 -0.0442294 -1.09224e-19)
(-0.809257 -0.0445093 0)
(-0.755245 -0.0447806 0)
(-0.700519 -0.0450547 1.28884e-19)
(-0.645079 -0.0453218 0)
(-0.588927 -0.0455872 1.44237e-19)
(-0.532073 -0.0458448 0)
(-0.474526 -0.0460952 0)
(-0.416301 -0.0463302 0)
(-0.357416 -0.0465538 1.80233e-19)
(-0.297893 -0.046759 0)
(-0.237754 -0.0469503 -1.99207e-19)
(-0.177028 -0.0471178 0)
(-0.115745 -0.0472592 0)
(-0.0539696 -0.0473513 4.58361e-19)
(0.00827035 -0.0473614 -4.73411e-19)
(0.0708817 -0.0472119 0)
(0.133503 -0.0467728 0)
(0.195962 -0.0458337 0)
(0.256044 -0.0438926 1.47326e-18)
(0.318897 -0.0398756 0)
(0.358947 -0.0274385 -1.02426e-18)
(0.000406437 0.0230347 3.20538e-22)
(0.000753359 0.0398618 5.07554e-18)
(0.00567733 0.0344048 0)
(0.023715 0.00447212 -3.60537e-18)
(0.0611421 -0.0525031 0)
(0.111021 -0.117572 0)
(0.16296 -0.170255 -3.29711e-22)
(0.209985 -0.201319 4.11922e-19)
(0.249179 -0.211146 3.53392e-19)
(0.280391 -0.204665 3.15455e-19)
(0.304699 -0.187559 0)
(0.3235 -0.164516 0)
(0.337984 -0.138758 -2.62387e-19)
(0.349004 -0.112215 -5.10211e-19)
(0.35713 -0.0859508 5.02668e-19)
(0.362746 -0.060469 0)
(0.366132 -0.0359797 5.05149e-19)
(0.367469 -0.012562 -2.56703e-19)
(0.367026 0.00979019 0)
(0.365107 0.0312343 5.23861e-19)
(0.361977 0.0518831 2.66421e-19)
(0.357775 0.0716702 -5.49744e-19)
(0.352429 0.0902196 -2.85438e-19)
(0.345517 0.106815 0)
(0.336363 0.120358 6.30662e-19)
(0.324102 0.129475 6.68705e-19)
(0.307985 0.132714 0)
(0.287725 0.12892 7.75162e-19)
(0.26393 0.117607 0)
(0.238254 0.0991567 9.55254e-19)
(0.21331 0.0747243 5.43308e-19)
(0.192083 0.0457404 0)
(0.177114 0.01384 0)
(0.16876 -0.0200344 0)
(0.165729 -0.0533992 0)
(0.161308 -0.0757369 0)
(0.149938 -0.0776613 0)
(0.130615 -0.0610776 8.26789e-19)
(0.104529 -0.0343512 -1.26967e-18)
(0.0715513 -0.00297746 0)
(0.0299493 0.0291216 0)
(-0.0271743 0.05833 0)
(-0.108136 0.0916202 4.48725e-22)
(-0.20957 0.135672 6.34779e-19)
(-0.328506 0.186486 9.55365e-19)
(-0.459914 0.23947 -7.48557e-19)
(-0.596572 0.291242 -3.04254e-19)
(-0.732901 0.336689 2.5551e-19)
(-0.863898 0.373575 7.36289e-22)
(-0.985893 0.40116 1.96655e-19)
(-1.09648 0.417759 0)
(-1.19508 0.4237 1.62761e-19)
(-1.28115 0.42005 1.23813e-21)
(-1.35494 0.408084 0)
(-1.41784 0.389284 0)
(-1.47194 0.365551 -1.27692e-19)
(-1.51932 0.339015 0)
(-1.56171 0.311544 0)
(-1.60051 0.28442 1.14338e-19)
(-1.637 0.258706 2.19757e-19)
(-1.67185 0.235084 -1.06111e-19)
(-1.70557 0.213796 0)
(-1.7384 0.194917 1.00631e-19)
(-1.77048 0.178453 0)
(-1.80182 0.164155 9.63878e-20)
(-1.8324 0.151746 9.40134e-20)
(-1.86224 0.140931 -1.84312e-19)
(-1.89134 0.131487 -9.03374e-20)
(-1.91969 0.123189 0)
(-1.94728 0.115845 1.73845e-19)
(-1.9741 0.109274 0)
(-2.00013 0.103345 2.51616e-19)
(-2.02539 0.0979261 1.64822e-19)
(-2.04985 0.0929301 1.62056e-19)
(-2.07352 0.0882672 -1.59393e-19)
(-2.09639 0.0838812 2.35334e-19)
(-2.11845 0.0797098 0)
(-2.1397 0.0757193 0)
(-2.16013 0.0718676 -1.49607e-19)
(-2.17973 0.0681359 -2.21119e-19)
(-2.19849 0.0644942 0)
(-2.2164 0.0609332 7.16003e-20)
(-2.23344 0.0574329 0)
(-2.2496 0.0539906 -2.08387e-19)
(-2.26486 0.0505919 -1.8302e-22)
(-2.27921 0.0472351 1.72622e-22)
(-2.29261 0.0439082 1.32956e-19)
(-2.30507 0.040608 0)
(-2.31659 0.0373275 -1.29138e-19)
(-2.32717 0.0340591 -1.06402e-22)
(-2.33678 0.0307995 0)
(-2.34535 0.0275475 0)
(-2.35289 0.0243125 0)
(-2.3594 0.0211073 1.19594e-19)
(-2.36489 0.0179421 0)
(-2.36937 0.0148281 0)
(-2.37285 0.0117755 0)
(-2.37535 0.00880032 0)
(-2.37686 0.00591466 0)
(-2.37736 0.00311981 1.07788e-19)
(-2.37679 0.000390319 0)
(-2.37513 -0.00228718 1.03373e-19)
(-2.37235 -0.00489922 1.0116e-19)
(-2.36845 -0.00744921 -9.89011e-20)
(-2.36345 -0.00994155 0)
(-2.35733 -0.0123853 -9.42371e-20)
(-2.35013 -0.0147799 0)
(-2.34184 -0.0171282 -8.93791e-20)
(-2.33247 -0.0194249 8.68811e-20)
(-2.32202 -0.021671 2.53524e-19)
(-2.31051 -0.023862 0)
(-2.29794 -0.0259995 2.3796e-19)
(-2.28432 -0.0280813 7.70405e-20)
(-2.26964 -0.0301098 0)
(-2.25393 -0.032084 1.42751e-19)
(-2.23718 -0.0340054 1.37274e-19)
(-2.2194 -0.0358745 -1.97303e-19)
(-2.2006 -0.0376933 0)
(-2.1808 -0.0394574 -5.99377e-20)
(-2.15999 -0.0411594 -5.70906e-20)
(-2.13815 -0.0427949 -1.63351e-19)
(-2.11529 -0.0443631 0)
(-2.09143 -0.0458731 0)
(-2.06659 -0.0473321 0)
(-2.04081 -0.0487451 -4.32687e-20)
(-2.01409 -0.0501073 0)
(-1.98645 -0.0514182 0)
(-1.9579 -0.0526711 3.35214e-20)
(-1.92846 -0.053868 3.05e-20)
(-1.89813 -0.0550037 0)
(-1.86695 -0.0560807 0)
(-1.83493 -0.0570941 4.27705e-20)
(-1.80208 -0.0580489 0)
(-1.76841 -0.0589412 -3.05877e-20)
(-1.73395 -0.059768 -2.53522e-20)
(-1.69872 -0.0605215 0)
(-1.6627 -0.0612035 0)
(-1.6259 -0.0618152 7.19659e-21)
(-1.58831 -0.0623906 -8.43667e-22)
(-1.54997 -0.0629355 -8.41363e-22)
(-1.5109 -0.0634488 0)
(-1.47113 -0.0639473 -3.43904e-20)
(-1.43063 -0.0644517 0)
(-1.38942 -0.0649499 0)
(-1.34748 -0.0654489 0)
(-1.30479 -0.0659406 4.14395e-20)
(-1.26136 -0.0664341 0)
(-1.21719 -0.0669227 -1.05083e-19)
(-1.17225 -0.0674152 -5.94165e-20)
(-1.12654 -0.067903 0)
(-1.08006 -0.0683944 -7.15747e-20)
(-1.03279 -0.0688765 0)
(-0.984736 -0.0693531 0)
(-0.935887 -0.0698124 -2.6898e-19)
(-0.886257 -0.0702549 1.91436e-19)
(-0.835846 -0.0706753 0)
(-0.784673 -0.0710758 2.17584e-19)
(-0.732738 -0.0714566 -1.16557e-19)
(-0.680062 -0.0718177 0)
(-0.626647 -0.0721655 0)
(-0.572506 -0.0724914 0)
(-0.517649 -0.0728068 -4.32158e-19)
(-0.462086 -0.0731038 0)
(-0.405824 -0.0733849 -1.59811e-19)
(-0.348876 -0.0736434 0)
(-0.291254 -0.0738775 0)
(-0.232975 -0.0740774 0)
(-0.17406 -0.0742446 0)
(-0.11453 -0.0743707 0)
(-0.0544091 -0.0744584 0)
(0.00628356 -0.0744992 -4.28262e-19)
(0.067525 -0.0744837 0)
(0.129254 -0.0743808 -2.2474e-19)
(0.19138 -0.0741312 6.83988e-19)
(0.253778 -0.0736197 0)
(0.316187 -0.0726826 0)
(0.378559 -0.0710452 -4.79412e-19)
(0.439282 -0.0681987 -4.9053e-19)
(0.502349 -0.0630956 4.98778e-19)
(0.552186 -0.0503811 5.16186e-19)
(-0.000967622 0.0236233 -6.16013e-18)
(0.00157026 0.0290978 -7.97121e-18)
(0.0209031 -0.0068044 -3.60769e-18)
(0.0661913 -0.0860867 -9.70943e-19)
(0.125713 -0.173681 0)
(0.183173 -0.239225 8.8322e-19)
(0.228861 -0.272603 -3.57482e-19)
(0.261055 -0.277981 0)
(0.282182 -0.264476 -2.76039e-19)
(0.29573 -0.240437 0)
(0.304572 -0.211484 4.80189e-19)
(0.310578 -0.180806 0)
(0.314775 -0.150032 2.21742e-19)
(0.317661 -0.119917 4.35322e-19)
(0.319425 -0.0907988 -4.32276e-19)
(0.320124 -0.0628235 0)
(0.319779 -0.036057 -4.40128e-19)
(0.318401 -0.0105338 0)
(0.316052 0.0137339 0)
(0.312817 0.0367832 -4.58741e-19)
(0.308839 0.0586458 0)
(0.304326 0.0793267 -6.85923e-22)
(0.299491 0.0987205 0)
(0.294422 0.116506 0)
(0.289026 0.132066 5.45142e-22)
(0.282934 0.144406 -5.88907e-19)
(0.275543 0.152129 -6.32377e-19)
(0.266086 0.153581 -6.81781e-19)
(0.254007 0.147211 0)
(0.239183 0.131902 -1.63142e-18)
(0.222395 0.107448 0)
(0.204883 0.0748744 -1.03689e-18)
(0.188068 0.0363446 0)
(0.171484 -0.0041912 0)
(0.148145 -0.0352425 1.06184e-18)
(0.114261 -0.0432316 0)
(0.0703648 -0.0283325 -8.4513e-19)
(0.0179562 0.00290845 -6.88344e-22)
(-0.0450833 0.0446324 1.54717e-18)
(-0.123252 0.0944499 -1.2582e-18)
(-0.215911 0.151036 0)
(-0.322766 0.210482 0)
(-0.441249 0.270931 -3.41916e-19)
(-0.565882 0.331537 0)
(-0.69156 0.389674 -2.41816e-19)
(-0.813358 0.44032 2.10882e-19)
(-0.926213 0.480107 1.87194e-19)
(-1.02678 0.508764 0)
(-1.11422 0.525846 -1.53683e-19)
(-1.18795 0.531867 -1.41658e-19)
(-1.2487 0.527685 2.65706e-19)
(-1.29833 0.514721 -1.23554e-19)
(-1.33873 0.494767 -1.16548e-19)
(-1.3722 0.469622 0)
(-1.40097 0.440977 0)