/*--------------------------------*- C++ -*----------------------------------*\
  =========                 |
  \\      /  F ield         | OpenFOAM: The Open Source CFD Toolbox
   \\    /   O peration     | Website:  https://openfoam.org
    \\  /    A nd           | Version:  13
     \\/     M anipulation  |
\*---------------------------------------------------------------------------*/
FoamFile
{
    format      ascii;
    class       volScalarField;
    location    "8";
    object      epsilon;
}
// * * * * * * * * * * * * * * * * * * * * * * * * * * * * * * * * * * * * * //

dimensions      [0 2 -3 0 0 0 0];

internalField   nonuniform List<scalar> 
400
(
1.95409e-05
6.41982e-05
0.000273626
0.000584498
0.000799196
0.000961424
0.00109311
0.00121912
0.0013295
0.00144258
0.00154839
0.00166029
0.00177288
0.00184801
0.00188242
0.00188545
0.00174664
0.00137824
0.00084749
0.000610728
8.81835e-05
0.000253435
0.000682784
0.000970723
0.00103896
0.00106662
0.00107599
0.00111996
0.00116827
0.00125597
0.00136349
0.00150422
0.00167044
0.0018676
0.00208501
0.00230007
0.00240126
0.00240865
0.00190021
0.00125196
0.000294716
0.000784113
0.00101413
0.00104652
0.00102926
0.00101914
0.0010122
0.00104923
0.00110974
0.00118745
0.00127595
0.00137505
0.00149276
0.00163901
0.00182081
0.00204257
0.0022376
0.00231578
0.00213627
0.00161493
0.000671157
0.00106596
0.00108937
0.001015
0.000960403
0.000925199
0.000918637
0.000940544
0.000968569
0.000998851
0.0010383
0.00109923
0.00119496
0.00133601
0.00154439
0.00182771
0.00214209
0.00228688
0.00224817
0.00185016
0.00097368
0.00121288
0.0010642
0.00093182
0.000843528
0.000798868
0.000773074
0.000754851
0.000737363
0.00072997
0.000732286
0.000771842
0.000854394
0.00100197
0.00124429
0.00160966
0.00209341
0.0023853
0.00242459
0.00202675
0.00113649
0.0012075
0.000995658
0.00082387
0.000732103
0.000671707
0.000618065
0.000564104
0.000513457
0.000482197
0.000470529
0.000483768
0.000553549
0.000691578
0.000942313
0.00136125
0.00199012
0.00253864
0.00267737
0.00216916
0.00116385
0.00116362
0.000898765
0.000729281
0.000634635
0.000559129
0.000484397
0.000410351
0.000346352
0.000305874
0.000289114
0.000288375
0.000338556
0.000452174
0.000679985
0.001108
0.00183671
0.00268417
0.00296754
0.00227983
0.00114592
0.00107151
0.000810351
0.000651664
0.000556408
0.00047152
0.000386067
0.000305956
0.000241877
0.000202149
0.00018474
0.000181863
0.00021292
0.000294847
0.000480455
0.000875887
0.0016365
0.00276416
0.00332201
0.00237015
0.00110086
0.000966127
0.000734299
0.000591229
0.00049832
0.000410151
0.000322216
0.000243877
0.000184778
0.000149652
0.000134555
0.000132221
0.000152615
0.000208947
0.000349388
0.000697374
0.00147641
0.00278764
0.00367197
0.00243319
0.00101218
0.000877524
0.000673177
0.000546075
0.000457833
0.000371416
0.00028603
0.000212085
0.000158834
0.000127575
0.000114066
0.000112975
0.000127617
0.000168637
0.000273604
0.00056234
0.00131232
0.00278829
0.00404433
0.00248056
0.000920997
0.00080024
0.00062516
0.000513073
0.000431225
0.000349565
0.000269458
0.000203235
0.000155159
0.000125285
0.00011036
0.000109098
0.000120466
0.000153564
0.000238615
0.000480658
0.00117709
0.00275119
0.00437596
0.00250338
0.000841344
0.000752706
0.000591601
0.000491092
0.000415131
0.000340883
0.000269995
0.000207258
0.000161116
0.000132002
0.000117134
0.000115849
0.000123857
0.000151097
0.000227184
0.000441979
0.00107757
0.00272411
0.00466674
0.00251307
0.000755673
0.000710354
0.000573908
0.000479101
0.000409979
0.000342697
0.000276266
0.000219036
0.000176346
0.00014848
0.000133068
0.000131963
0.000139116
0.000163344
0.00022962
0.00042911
0.00102986
0.00271132
0.0048159
0.00251459
0.000676214
0.000691277
0.000580189
0.00048374
0.000415048
0.000351084
0.000291058
0.00024023
0.00020092
0.000174326
0.000157886
0.000156879
0.000163959
0.00018832
0.000253973
0.000442281
0.00101429
0.00270971
0.00487252
0.00250688
0.000586139
0.00066444
0.000593545
0.000500512
0.000431816
0.00037043
0.000314938
0.000268231
0.00023187
0.000207299
0.000190581
0.000190636
0.00019856
0.000225488
0.000296333
0.000493059
0.00104977
0.0027578
0.00483189
0.00246182
0.00049435
0.000653054
0.000623989
0.000547233
0.000474212
0.000411665
0.000356567
0.000310343
0.000274006
0.000249623
0.000233073
0.000234279
0.000245279
0.000279712
0.000366315
0.000595977
0.00117577
0.00287965
0.00456125
0.00237869
0.0003917
0.000601881
0.000635046
0.000609233
0.000553293
0.000491554
0.000432931
0.000382291
0.000342651
0.000315206
0.000301622
0.000306296
0.000326529
0.000382667
0.000512821
0.000836032
0.00149728
0.00315672
0.00411051
0.00224129
0.000263937
0.00053777
0.000703983
0.000754461
0.000737654
0.000686393
0.000619406
0.000560068
0.000515818
0.000488687
0.000492704
0.00051782
0.000579368
0.00071518
0.000990332
0.00162572
0.00243707
0.00372043
0.00383235
0.00205601
0.000288468
0.000548789
0.000930666
0.00110777
0.00117067
0.00116653
0.00114645
0.0011451
0.0011647
0.00122251
0.00134347
0.00156005
0.00185975
0.00234676
0.00296787
0.00391608
0.00457987
0.00440517
0.00380125
0.00179236
0.000208916
0.000326483
0.000596865
0.000858329
0.00106064
0.00118653
0.00125939
0.00130594
0.00132754
0.00134511
0.00135369
0.00137107
0.00138632
0.00141992
0.00144482
0.00150653
0.00157619
0.00165729
0.00164109
0.00146894
)
;

boundaryField
{
    movingWall
    {
        type            epsilonWallFunction;
        value           nonuniform List<scalar> 
20
(
0.000208916
0.000326483
0.000596865
0.000858329
0.00106064
0.00118653
0.00125939
0.00130594
0.00132754
0.00134511
0.00135369
0.00137107
0.00138632
0.00141992
0.00144482
0.00150653
0.00157619
0.00165729
0.00164109
0.00146894
)
;
    }
    fixedWalls
    {
        type            epsilonWallFunction;
        value           nonuniform List<scalar> 
60
(
1.95409e-05
8.81835e-05
0.000294716
0.000671157
0.00097368
0.00113649
0.00116385
0.00114592
0.00110086
0.00101218
0.000920997
0.000841344
0.000755673
0.000676214
0.000586139
0.00049435
0.0003917
0.000263937
0.000288468
0.000208916
0.000610728
0.00125196
0.00161493
0.00185016
0.00202675
0.00216916
0.00227983
0.00237015
0.00243319
0.00248056
0.00250338
0.00251307
0.00251459
0.00250688
0.00246182
0.00237869
0.00224129
0.00205601
0.00179236
0.00146894
1.95409e-05
6.41982e-05
0.000273626
0.000584498
0.000799196
0.000961424
0.00109311
0.00121912
0.0013295
0.00144258
0.00154839
0.00166029
0.00177288
0.00184801
0.00188242
0.00188545
0.00174664
0.00137824
0.00084749
0.000610728
)
;
    }
    frontAndBack
    {
        type            empty;
    }
}


// ************************************************************************* //
