/*--------------------------------*- C++ -*----------------------------------*\
  =========                 |
  \\      /  F ield         | OpenFOAM: The Open Source CFD Toolbox
   \\    /   O peration     | Website:  https://openfoam.org
    \\  /    A nd           | Version:  13
     \\/     M anipulation  |
\*---------------------------------------------------------------------------*/
FoamFile
{
    format      ascii;
    class       volScalarField;
    location    "8";
    object      k;
}
// * * * * * * * * * * * * * * * * * * * * * * * * * * * * * * * * * * * * * //

dimensions      [0 2 -2 0 0 0 0];

internalField   nonuniform List<scalar> 
400
(
6.11092e-06
2.00854e-05
8.55867e-05
0.000182771
0.000249869
0.000300571
0.000341729
0.000381109
0.000415606
0.000450944
0.000484013
0.000518986
0.000554174
0.000577646
0.000588395
0.000589338
0.000545935
0.000430778
0.000264901
0.0001909
2.75772e-05
9.83164e-05
0.000219323
0.00037955
0.000449111
0.000527284
0.000572833
0.000639073
0.00069228
0.000755474
0.000815038
0.000877456
0.00093327
0.000993594
0.00104714
0.00107419
0.00108048
0.00097142
0.000643141
0.000391297
9.21588e-05
0.000317419
0.000489559
0.000573091
0.000631418
0.000682181
0.000722866
0.000774279
0.000820079
0.000869084
0.000914074
0.000957447
0.000999463
0.00104678
0.00109355
0.0011281
0.00114076
0.00109356
0.000793695
0.000504715
0.000209851
0.000531017
0.000621846
0.00066041
0.000691663
0.000717946
0.00074823
0.000782681
0.000815093
0.000845914
0.000871316
0.000901148
0.00094195
0.000995823
0.00106503
0.00113482
0.00116672
0.0011684
0.000936082
0.000578217
0.000304426
0.000646367
0.000674714
0.000676897
0.00069106
0.000710498
0.000730081
0.000739916
0.000741362
0.000737608
0.00073851
0.00075992
0.000803054
0.000874165
0.000980106
0.00111583
0.00121156
0.00123527
0.00106087
0.000633391
0.000355306
0.000678622
0.000679018
0.000672774
0.000679076
0.000681791
0.000670985
0.000641481
0.000611637
0.000592632
0.000585772
0.000595685
0.000638985
0.000719357
0.000850542
0.00103797
0.00123381
0.00131358
0.0011979
0.000677884
0.000363852
0.000671619
0.000672002
0.000658391
0.000649255
0.000626907
0.000590122
0.000541183
0.000497682
0.000469695
0.000458565
0.000460648
0.000498911
0.000577457
0.000716506
0.000937276
0.00123486
0.00138953
0.00132674
0.000712462
0.000358246
0.000653188
0.000654317
0.000631964
0.00061217
0.000575005
0.000522615
0.000464297
0.000415726
0.000384972
0.000372201
0.000371479
0.000401581
0.00046968
0.000598888
0.0008261
0.00117607
0.00145504
0.00146548
0.000740678
0.000344158
0.000616338
0.000624864
0.000604354
0.000579327
0.000534334
0.000474928
0.000414117
0.000365704
0.000335505
0.000322692
0.00032166
0.000344321
0.000399844
0.000513063
0.00072879
0.00109952
0.00150245
0.00158596
0.000760372
0.000316437
0.00058534
0.00059726
0.000580248
0.000553971
0.00050666
0.000446146
0.000386651
0.000340649
0.000311768
0.000299083
0.000298986
0.000317021
0.000362132
0.000457344
0.000657248
0.00102924
0.00152461
0.00170887
0.000775166
0.000287933
0.000544129
0.000566721
0.000557277
0.000533534
0.000489106
0.000431826
0.000376985
0.000334253
0.000306187
0.000292136
0.000292497
0.000307535
0.000345843
0.000429522
0.000609132
0.000973398
0.00153315
0.00181065
0.000782292
0.000263034
0.000509619
0.000543862
0.000539858
0.000520742
0.000480098
0.000429638
0.000379129
0.000338295
0.000310915
0.000296649
0.000296716
0.000307795
0.000341784
0.000419498
0.000585505
0.000929603
0.00153583
0.00189395
0.000785314
0.000236253
0.000464447
0.000516487
0.000520066
0.000508679
0.000477492
0.000432566
0.000386945
0.000349807
0.000324118
0.000310266
0.000310877
0.000321039
0.000351423
0.000421221
0.000577951
0.000905854
0.00153669
0.00193358
0.000785786
0.000211411
0.000435543
0.000501524
0.000508996
0.00050159
0.000479125
0.000440406
0.000401903
0.000369266
0.000345852
0.000332708
0.000333838
0.000344188
0.000374173
0.000441803
0.000589652
0.000897672
0.00153489
0.00194514
0.00078337
0.00018325
0.000388799
0.000476278
0.000499459
0.000498237
0.000484579
0.000454552
0.000421748
0.000393751
0.000373284
0.000362055
0.000364
0.000375293
0.000406252
0.00047416
0.000622014
0.000906018
0.00153092
0.00190354
0.000769277
0.00015455
0.000360693
0.000463606
0.000501674
0.000505447
0.000497801
0.000477868
0.000450409
0.000425842
0.000407027
0.000397033
0.000399759
0.000412483
0.000446133
0.000518051
0.000677788
0.000941809
0.00153012
0.00180938
0.000743289
0.000122456
0.000299512
0.000430074
0.000506282
0.00052722
0.000524845
0.000513049
0.000489086
0.000466275
0.000447779
0.00044063
0.000445391
0.000462574
0.000504958
0.000589741
0.000780984
0.00103368
0.00154783
0.00164498
0.000700338
8.25067e-05
0.000261471
0.000440884
0.000541858
0.00059844
0.000599977
0.000592075
0.000572488
0.000551564
0.000536139
0.000538103
0.00055159
0.000585035
0.000659181
0.000780792
0.00104578
0.0013166
0.00160171
0.00146798
0.000642429
9.01656e-05
0.000282186
0.000495173
0.000619331
0.000694441
0.000723371
0.000742923
0.000757827
0.000777653
0.000811191
0.000867014
0.00095163
0.00106741
0.00123897
0.00144202
0.00173616
0.00183409
0.00171313
0.00136123
0.000560028
6.52985e-05
0.000102044
0.000186555
0.000268278
0.000331503
0.000370842
0.000393602
0.000408139
0.000414884
0.000420359
0.000423032
0.000428444
0.000433199
0.000443676
0.000451446
0.000470709
0.000492467
0.0005178
0.00051274
0.000458958
)
;

boundaryField
{
    movingWall
    {
        type            kqRWallFunction;
        value           nonuniform List<scalar> 
20
(
6.52985e-05
0.000102044
0.000186555
0.000268278
0.000331503
0.000370842
0.000393602
0.000408139
0.000414884
0.000420359
0.000423032
0.000428444
0.000433199
0.000443676
0.000451446
0.000470709
0.000492467
0.0005178
0.00051274
0.000458958
)
;
    }
    fixedWalls
    {
        type            kqRWallFunction;
        value           nonuniform List<scalar> 
60
(
6.11092e-06
2.75772e-05
9.21588e-05
0.000209851
0.000304426
0.000355306
0.000363852
0.000358246
0.000344158
0.000316437
0.000287933
0.000263034
0.000236253
0.000211411
0.00018325
0.00015455
0.000122456
8.25067e-05
9.01656e-05
6.52985e-05
0.0001909
0.000391297
0.000504715
0.000578217
0.000633391
0.000677884
0.000712462
0.000740678
0.000760372
0.000775166
0.000782292
0.000785314
0.000785786
0.00078337
0.000769277
0.000743289
0.000700338
0.000642429
0.000560028
0.000458958
6.11092e-06
2.00854e-05
8.55867e-05
0.000182771
0.000249869
0.000300571
0.000341729
0.000381109
0.000415606
0.000450944
0.000484013
0.000518986
0.000554174
0.000577646
0.000588395
0.000589338
0.000545935
0.000430778
0.000264901
0.0001909
)
;
    }
    frontAndBack
    {
        type            empty;
    }
}


// ************************************************************************* //
