/*--------------------------------*- C++ -*----------------------------------*\
  =========                 |
  \\      /  F ield         | OpenFOAM: The Open Source CFD Toolbox
   \\    /   O peration     | Website:  https://openfoam.org
    \\  /    A nd           | Version:  13
     \\/     M anipulation  |
\*---------------------------------------------------------------------------*/
FoamFile
{
    format      ascii;
    class       volScalarField;
    location    "8";
    object      nut;
}
// * * * * * * * * * * * * * * * * * * * * * * * * * * * * * * * * * * * * * //

dimensions      [0 2 -1 0 0 0 0];

internalField   nonuniform List<scalar> 
400
(
1.71993e-07
5.65564e-07
2.40934e-06
5.14371e-06
7.03092e-06
8.45709e-06
9.61479e-06
1.07224e-05
1.16927e-05
1.26867e-05
1.36168e-05
1.46006e-05
1.55903e-05
1.62503e-05
1.65525e-05
1.65789e-05
1.53575e-05
1.21178e-05
7.45201e-06
5.3704e-06
7.76167e-07
3.43263e-06
6.34058e-06
1.33563e-05
1.74724e-05
2.34597e-05
2.74468e-05
3.28202e-05
3.692e-05
4.08981e-05
4.38477e-05
4.6066e-05
4.69273e-05
4.75748e-05
4.73312e-05
4.51507e-05
4.37559e-05
3.52601e-05
1.95909e-05
1.1007e-05
2.59365e-06
1.15646e-05
2.12697e-05
2.82452e-05
3.4862e-05
4.10969e-05
4.64611e-05
5.14239e-05
5.45424e-05
5.72468e-05
5.89349e-05
6.00003e-05
6.02265e-05
6.01685e-05
5.91089e-05
5.60743e-05
5.23416e-05
4.64762e-05
2.65395e-05
1.41965e-05
5.90529e-06
2.38077e-05
3.19472e-05
3.86727e-05
4.4831e-05
5.01407e-05
5.4849e-05
5.86183e-05
6.17343e-05
6.44754e-05
6.5807e-05
6.64884e-05
6.68257e-05
6.68031e-05
6.61009e-05
6.34146e-05
5.71924e-05
5.37261e-05
3.50785e-05
1.62635e-05
8.56621e-06
3.10016e-05
3.84998e-05
4.42543e-05
5.09536e-05
5.68713e-05
6.20532e-05
6.52749e-05
6.70844e-05
6.70794e-05
6.70309e-05
6.73365e-05
6.79319e-05
6.86397e-05
6.94809e-05
6.96149e-05
6.31067e-05
5.75734e-05
4.17758e-05
1.7815e-05
9.99732e-06
3.4325e-05
4.16768e-05
4.9445e-05
5.66901e-05
6.22823e-05
6.55592e-05
6.56525e-05
6.55731e-05
6.55523e-05
6.56318e-05
6.60143e-05
6.63846e-05
6.73427e-05
6.90937e-05
7.12317e-05
6.88433e-05
6.1172e-05
4.82368e-05
1.90661e-05
1.02375e-05
3.48882e-05
4.52207e-05
5.34952e-05
5.9779e-05
6.32612e-05
6.47031e-05
6.42357e-05
6.4362e-05
6.49131e-05
6.546e-05
6.62253e-05
6.61697e-05
6.63706e-05
6.79491e-05
7.13573e-05
7.47202e-05
6.47389e-05
5.33849e-05
2.00384e-05
1.00798e-05
3.58363e-05
4.75495e-05
5.51573e-05
6.06169e-05
6.31081e-05
6.36713e-05
6.34127e-05
6.43076e-05
6.59825e-05
6.74894e-05
6.82915e-05
6.81665e-05
6.73363e-05
6.71862e-05
7.01228e-05
7.6066e-05
6.8933e-05
5.81839e-05
2.08318e-05
9.68333e-06
3.53873e-05
4.78565e-05
5.55993e-05
6.06152e-05
6.26505e-05
6.30017e-05
6.32874e-05
6.51406e-05
6.76952e-05
6.96498e-05
7.04265e-05
6.99154e-05
6.88634e-05
6.78074e-05
6.8546e-05
7.36955e-05
7.288e-05
6.16493e-05
2.13854e-05
8.90345e-06
3.51399e-05
4.76914e-05
5.54904e-05
6.03268e-05
6.22035e-05
6.26304e-05
6.34411e-05
6.57526e-05
6.85713e-05
7.05782e-05
7.12134e-05
7.08777e-05
6.99878e-05
6.88029e-05
6.91355e-05
7.26508e-05
7.50278e-05
6.49854e-05
2.18013e-05
8.10155e-06
3.32986e-05
4.6237e-05
5.44759e-05
5.94105e-05
6.15914e-05
6.22831e-05
6.29349e-05
6.48059e-05
6.7347e-05
6.95985e-05
7.0578e-05
7.06585e-05
7.00991e-05
6.95852e-05
6.9475e-05
7.24457e-05
7.68932e-05
6.7428e-05
2.20015e-05
7.40104e-06
3.10534e-05
4.49977e-05
5.34119e-05
5.87899e-05
6.08551e-05
6.15309e-05
6.24174e-05
6.39284e-05
6.5909e-05
6.76154e-05
6.83963e-05
6.88405e-05
6.95811e-05
6.97147e-05
6.98075e-05
7.21757e-05
7.79299e-05
6.91779e-05
2.20864e-05
6.64756e-06
2.733e-05
4.1833e-05
5.08081e-05
5.68025e-05
5.98777e-05
6.09565e-05
6.15213e-05
6.24501e-05
6.36767e-05
6.51084e-05
6.59124e-05
6.66779e-05
6.80456e-05
6.95427e-05
7.00578e-05
7.17105e-05
7.83851e-05
6.987e-05
2.20996e-05
5.94859e-06
2.46974e-05
3.90173e-05
4.82014e-05
5.45558e-05
5.88476e-05
5.99749e-05
6.05143e-05
6.10799e-05
6.17533e-05
6.30993e-05
6.39367e-05
6.50277e-05
6.69103e-05
6.91692e-05
7.07514e-05
7.15019e-05
7.82477e-05
6.9886e-05
2.20314e-05
5.1562e-06
2.04756e-05
3.43962e-05
4.48568e-05
5.17387e-05
5.70514e-05
5.90452e-05
5.96816e-05
6.01787e-05
6.04955e-05
6.19031e-05
6.25522e-05
6.38397e-05
6.58732e-05
6.82832e-05
7.06226e-05
7.03758e-05
7.64863e-05
6.74916e-05
2.16347e-05
4.34857e-06
1.79295e-05
3.10001e-05
4.13917e-05
4.84866e-05
5.41764e-05
5.7639e-05
5.88322e-05
5.95634e-05
5.97316e-05
6.08702e-05
6.13912e-05
6.24301e-05
6.40414e-05
6.59376e-05
6.93746e-05
6.78961e-05
7.31739e-05
6.45981e-05
2.09035e-05
3.44545e-06
1.34141e-05
2.62135e-05
3.78655e-05
4.52139e-05
5.04352e-05
5.47196e-05
5.63142e-05
5.7105e-05
5.72502e-05
5.79333e-05
5.82885e-05
5.89771e-05
5.99698e-05
6.1038e-05
6.56605e-05
6.42261e-05
6.83051e-05
5.9247e-05
1.96951e-05
2.32124e-06
1.14418e-05
2.48502e-05
3.50248e-05
4.36949e-05
4.71997e-05
5.09354e-05
5.26665e-05
5.30808e-05
5.2938e-05
5.28916e-05
5.28806e-05
5.31682e-05
5.4681e-05
5.54029e-05
6.05446e-05
6.40147e-05
6.20609e-05
5.06081e-05
1.80662e-05
2.53645e-06
1.3059e-05
2.37117e-05
3.1163e-05
3.70748e-05
4.0371e-05
4.33286e-05
4.51378e-05
4.67304e-05
4.84437e-05
5.03578e-05
5.22446e-05
5.51377e-05
5.88707e-05
6.3058e-05
6.92743e-05
6.61043e-05
5.99597e-05
4.38713e-05
1.57485e-05
1.83687e-06
2.8705e-06
5.24784e-06
7.54675e-06
9.32506e-06
1.04314e-05
1.10713e-05
1.14799e-05
1.16694e-05
1.1823e-05
1.18979e-05
1.20496e-05
1.2183e-05
1.24771e-05
1.26952e-05
1.32364e-05
1.3848e-05
1.45603e-05
1.4418e-05
1.29058e-05
)
;

boundaryField
{
    movingWall
    {
        type            nutkWallFunction;
        Cmu             0.09;
        kappa           0.41;
        E               9.8;
        value           uniform 0;
    }
    fixedWalls
    {
        type            nutkWallFunction;
        Cmu             0.09;
        kappa           0.41;
        E               9.8;
        value           uniform 0;
    }
    frontAndBack
    {
        type            empty;
    }
}


// ************************************************************************* //
