/*--------------------------------*- C++ -*----------------------------------*\
  =========                 |
  \\      /  F ield         | OpenFOAM: The Open Source CFD Toolbox
   \\    /   O peration     | Website:  https://openfoam.org
    \\  /    A nd           | Version:  13
     \\/     M anipulation  |
\*---------------------------------------------------------------------------*/
FoamFile
{
    format      ascii;
    class       volScalarField;
    location    "8";
    object      p;
}
// * * * * * * * * * * * * * * * * * * * * * * * * * * * * * * * * * * * * * //

dimensions      [0 2 -2 0 0 0 0];

internalField   nonuniform List<scalar> 
400
(
5.17229e-08
-7.7146e-05
-0.000150836
-0.000346989
-0.00115073
-0.00255428
-0.00421031
-0.00579806
-0.0070802
-0.00793213
-0.00824976
-0.00794679
-0.00700743
-0.00541311
-0.00316367
-0.000388889
0.00261436
0.00526535
0.00690558
0.00724568
7.55413e-05
-1.83924e-05
-0.000217988
-0.00080079
-0.00187847
-0.00337503
-0.00500452
-0.00652477
-0.00776322
-0.00860022
-0.00893901
-0.00873422
-0.00794168
-0.00650959
-0.00445288
-0.00184464
0.00107567
0.00383767
0.00580069
0.00657667
0.000252481
-7.54556e-05
-0.000679268
-0.0016987
-0.00311568
-0.00473787
-0.00635634
-0.00781686
-0.00900214
-0.00978256
-0.0100976
-0.00991808
-0.0092226
-0.00799781
-0.00623591
-0.00397351
-0.00134667
0.00135035
0.00361043
0.00474047
3.75454e-05
-0.000522628
-0.00155693
-0.00300365
-0.00468989
-0.00640954
-0.00800579
-0.00936634
-0.0103993
-0.0110595
-0.0113239
-0.011174
-0.0105892
-0.00956196
-0.00808889
-0.00619112
-0.00393974
-0.00150074
0.000761025
0.00196164
-0.00075496
-0.00151045
-0.00284512
-0.00453448
-0.0063308
-0.00804284
-0.00954809
-0.0107728
-0.0116748
-0.0122395
-0.0124595
-0.0123283
-0.0118394
-0.0109913
-0.00978357
-0.00822927
-0.00636647
-0.0042818
-0.0022232
-0.0010887
-0.00209324
-0.00293072
-0.00436536
-0.00609612
-0.00786402
-0.00948787
-0.0108693
-0.0119631
-0.0127545
-0.0132411
-0.0134244
-0.0133079
-0.0128957
-0.0121933
-0.011206
-0.00994411
-0.00843119
-0.00671849
-0.00504278
-0.00397001
-0.00365261
-0.00449264
-0.00587679
-0.00752866
-0.00918947
-0.0106872
-0.0119397
-0.0129173
-0.0136168
-0.0140427
-0.0142012
-0.0141001
-0.0137483
-0.0131573
-0.0123392
-0.0113061
-0.0100797
-0.00869693
-0.00739192
-0.00643677
-0.0051078
-0.00590101
-0.00717578
-0.00870953
-0.0102408
-0.0116112
-0.0127493
-0.0136327
-0.0142626
-0.0146457
-0.0147901
-0.014704
-0.0143981
-0.0138872
-0.0131903
-0.0123252
-0.0113175
-0.0101988
-0.00920182
-0.00835576
-0.00623946
-0.0069812
-0.00813791
-0.00956016
-0.0109761
-0.0122432
-0.0132957
-0.0141133
-0.0146969
-0.0150537
-0.015191
-0.0151167
-0.0148411
-0.0143811
-0.0137615
-0.0130085
-0.0121604
-0.0112258
-0.01045
-0.0097033
-0.00696684
-0.0076269
-0.00869457
-0.0100398
-0.0113735
-0.0125751
-0.0135784
-0.0143608
-0.0149213
-0.0152656
-0.0154003
-0.0153322
-0.0150713
-0.0146353
-0.0140541
-0.01336
-0.0126231
-0.0117821
-0.0111885
-0.0104671
-0.00724869
-0.0078297
-0.00884126
-0.0101358
-0.0114274
-0.0126044
-0.0135959
-0.0143737
-0.0149331
-0.0152777
-0.015413
-0.015345
-0.0150834
-0.0146465
-0.0140685
-0.0133808
-0.0127201
-0.0118647
-0.0114568
-0.0106501
-0.00707682
-0.00761362
-0.00858723
-0.00985663
-0.0111443
-0.0123322
-0.0133455
-0.0141477
-0.0147278
-0.0150859
-0.0152257
-0.015152
-0.0148751
-0.0144138
-0.0138062
-0.0131024
-0.0124182
-0.0115171
-0.0113016
-0.0102411
-0.00652857
-0.00704644
-0.0079921
-0.00923273
-0.0105395
-0.0117653
-0.0128286
-0.0136819
-0.0143041
-0.0146896
-0.0148392
-0.014756
-0.0144508
-0.0139438
-0.0132791
-0.012513
-0.0117525
-0.0108084
-0.0106875
-0.00926701
-0.00573023
-0.00621473
-0.00711527
-0.00830938
-0.00963015
-0.0109099
-0.0120476
-0.0129776
-0.0136647
-0.014094
-0.0142618
-0.0141685
-0.0138252
-0.0132542
-0.0125063
-0.0116379
-0.0107697
-0.00975613
-0.00960338
-0.00779876
-0.00484999
-0.00525616
-0.00604716
-0.00715333
-0.00846086
-0.00979675
-0.011026
-0.0120551
-0.0128291
-0.0133202
-0.0135182
-0.01342
-0.0130347
-0.0123864
-0.0115331
-0.0105278
-0.00951452
-0.00836006
-0.00806653
-0.00587212
-0.0040703
-0.00429168
-0.00485887
-0.00581154
-0.00707678
-0.00846561
-0.00979908
-0.0109476
-0.0118312
-0.0124052
-0.0126512
-0.012562
-0.0121462
-0.0114198
-0.0104467
-0.00926884
-0.00804737
-0.00663936
-0.00605974
-0.00327706
-0.00355657
-0.00344555
-0.00366394
-0.00439724
-0.0055922
-0.00702421
-0.00846594
-0.00974704
-0.0107598
-0.0114386
-0.0117553
-0.0116963
-0.0112736
-0.0104803
-0.00937916
-0.0079821
-0.00644045
-0.00458489
-0.00334704
0.000818247
-0.00330974
-0.00270401
-0.00250765
-0.00300421
-0.0041198
-0.00558239
-0.00712418
-0.00854363
-0.00970225
-0.0105092
-0.0109213
-0.0109149
-0.0105029
-0.00967577
-0.00845861
-0.00679529
-0.00478341
-0.002102
0.000674763
0.00821536
-0.00325919
-0.00208046
-0.00159243
-0.00191306
-0.00295665
-0.00444133
-0.00607085
-0.0076154
-0.00890779
-0.0098439
-0.0103652
-0.0104472
-0.0100731
-0.00922137
-0.0078661
-0.00590775
-0.00325008
0.00101993
0.00714656
0.0201415
-0.00380466
-0.000737147
-0.000136674
-0.000633738
-0.0017277
-0.00326677
-0.00500726
-0.0066818
-0.0081011
-0.00914405
-0.00974985
-0.00988169
-0.00951858
-0.00863319
-0.00718364
-0.00499526
-0.00121307
0.00563693
0.0175086
0.035315
)
;

boundaryField
{
    movingWall
    {
        type            zeroGradient;
    }
    fixedWalls
    {
        type            zeroGradient;
    }
    frontAndBack
    {
        type            empty;
    }
}


// ************************************************************************* //
