/*--------------------------------*- C++ -*----------------------------------*\
  =========                 |
  \\      /  F ield         | OpenFOAM: The Open Source CFD Toolbox
   \\    /   O peration     | Website:  https://openfoam.org
    \\  /    A nd           | Version:  13
     \\/     M anipulation  |
\*---------------------------------------------------------------------------*/
FoamFile
{
    format      ascii;
    class       volVectorField;
    location    "8";
    object      U;
}
// * * * * * * * * * * * * * * * * * * * * * * * * * * * * * * * * * * * * * //

dimensions      [0 1 -1 0 0 0 0];

internalField   nonuniform List<vector> 
400
(
(0.00244459 -0.00295314 0)
(0.00241076 -0.000583685 0)
(-0.00637474 0.00355426 0)
(-0.0269349 0.0107455 0)
(-0.0602858 0.0143935 0)
(-0.0864459 0.012326 0)
(-0.110066 0.0106426 0)
(-0.127869 0.0082099 0)
(-0.142052 0.00627205 0)
(-0.151702 0.00399742 0)
(-0.157451 0.00221242 0)
(-0.159681 0.000285437 0)
(-0.158323 -0.00282044 0)
(-0.151599 -0.00496892 0)
(-0.140507 -0.00826811 0)
(-0.123022 -0.0111759 0)
(-0.0997548 -0.0145578 0)
(-0.0702202 -0.0164982 0)
(-0.0375604 -0.0149667 0)
(-0.00917327 -0.00414372 0)
(-0.00190063 -0.00256497 0)
(-0.0122063 0.0111724 0)
(-0.038174 0.0300455 0)
(-0.0668477 0.0402227 0)
(-0.0914224 0.0391409 0)
(-0.11134 0.0350837 0)
(-0.128282 0.0295414 0)
(-0.140698 0.0238004 0)
(-0.151406 0.0171566 0)
(-0.158353 0.011367 0)
(-0.162582 0.00561956 0)
(-0.163233 8.56826e-06 0)
(-0.160609 -0.00618533 0)
(-0.154428 -0.0130176 0)
(-0.144249 -0.0213361 0)
(-0.129184 -0.0307954 0)
(-0.108977 -0.0416101 0)
(-0.0832687 -0.0513065 0)
(-0.0519064 -0.0539619 0)
(-0.0191819 -0.0354676 0)
(-0.0080417 0.01301 0)
(-0.0314699 0.0391786 0)
(-0.0576577 0.0558555 0)
(-0.0799435 0.0606461 0)
(-0.0977845 0.0569074 0)
(-0.112239 0.0497458 0)
(-0.123793 0.040835 0)
(-0.132544 0.0314751 0)
(-0.138562 0.0231336 0)
(-0.141531 0.0147452 0)
(-0.142616 0.0065216 0)
(-0.141517 -0.00186381 0)
(-0.138778 -0.0106116 0)
(-0.133151 -0.0202271 0)
(-0.124936 -0.0313916 0)
(-0.113222 -0.0445471 0)
(-0.097538 -0.0600141 0)
(-0.0772891 -0.0768752 0)
(-0.0509534 -0.0891308 0)
(-0.0221495 -0.0777534 0)
(-0.0121601 0.0365459 0)
(-0.0372418 0.0629017 0)
(-0.0599432 0.0760172 0)
(-0.0769916 0.0772385 0)
(-0.0899914 0.0708926 0)
(-0.0999835 0.061175 0)
(-0.107224 0.0497822 0)
(-0.112273 0.0381839 0)
(-0.11528 0.0270824 0)
(-0.116853 0.0164168 0)
(-0.116961 0.00629079 0)
(-0.115592 -0.00383763 0)
(-0.112684 -0.0144196 0)
(-0.107965 -0.0261303 0)
(-0.101413 -0.039637 0)
(-0.0926097 -0.0556173 0)
(-0.0808375 -0.0744402 0)
(-0.0651247 -0.0955299 0)
(-0.0435427 -0.114425 0)
(-0.0200681 -0.112335 0)
(-0.012335 0.0588879 0)
(-0.0351347 0.0838983 0)
(-0.0533862 0.092886 0)
(-0.0666223 0.0905379 0)
(-0.0762457 0.0812047 0)
(-0.0830798 0.0687837 0)
(-0.0876653 0.0551014 0)
(-0.0907224 0.0416344 0)
(-0.092456 0.0289391 0)
(-0.0930773 0.0169737 0)
(-0.0925676 0.00553484 0)
(-0.0909497 -0.00586139 0)
(-0.0881867 -0.0176964 0)
(-0.0842215 -0.0306993 0)
(-0.0790427 -0.0456901 0)
(-0.0725186 -0.0636056 0)
(-0.064099 -0.0852326 0)
(-0.0523477 -0.110582 0)
(-0.0352228 -0.135778 0)
(-0.0176964 -0.141301 0)
(-0.0104373 0.0794507 0)
(-0.0291389 0.102001 0)
(-0.0433847 0.106935 0)
(-0.053631 0.100935 0)
(-0.0606899 0.0886172 0)
(-0.0654631 0.0737954 0)
(-0.0685635 0.058363 0)
(-0.070586 0.0436141 0)
(-0.0716311 0.029857 0)
(-0.0718069 0.016908 0)
(-0.0711342 0.00446392 0)
(-0.0696041 -0.00791205 0)
(-0.0671919 -0.0207143 0)
(-0.0638979 -0.0346209 0)
(-0.0597741 -0.0504856 0)
(-0.0548492 -0.0693856 0)
(-0.0489395 -0.0924622 0)
(-0.0406252 -0.120526 0)
(-0.0294391 -0.151643 0)
(-0.0121148 -0.164896 0)
(-0.00852587 0.0965412 0)
(-0.0218969 0.116387 0)
(-0.0326821 0.117945 0)
(-0.0402284 0.10877 0)
(-0.0452891 0.0939959 0)
(-0.0486925 0.077326 0)
(-0.0509192 0.0606264 0)
(-0.0523805 0.0449367 0)
(-0.053137 0.0303687 0)
(-0.0532683 0.0166685 0)
(-0.0527644 0.00346287 0)
(-0.0515789 -0.00970436 0)
(-0.0496664 -0.0233187 0)
(-0.0470446 -0.0379651 0)
(-0.0438153 -0.0544517 0)
(-0.0401039 -0.0739443 0)
(-0.0360151 -0.0978177 0)
(-0.0301025 -0.127882 0)
(-0.0236377 -0.162999 0)
(-0.00976386 -0.184223 0)
(-0.00561778 0.109008 0)
(-0.0145252 0.127107 0)
(-0.0222317 0.126051 0)
(-0.0273441 0.114477 0)
(-0.0308107 0.0979203 0)
(-0.0332069 0.0799352 0)
(-0.0348511 0.0623275 0)
(-0.0359999 0.0459469 0)
(-0.0366803 0.0307996 0)
(-0.0369317 0.0165603 0)
(-0.0367161 0.00278164 0)
(-0.0359687 -0.0110115 0)
(-0.0346376 -0.0252805 0)
(-0.0327438 -0.040516 0)
(-0.0304142 -0.0573985 0)
(-0.027821 -0.0771048 0)
(-0.0253384 -0.101271 0)
(-0.0214602 -0.132568 0)
(-0.0190117 -0.170539 0)
(-0.00627793 -0.199578 0)
(-0.00342004 0.116783 0)
(-0.0076904 0.133745 0)
(-0.0123602 0.13109 0)
(-0.0152535 0.118206 0)
(-0.017352 0.100571 0)
(-0.0189057 0.0817951 0)
(-0.0200715 0.0636248 0)
(-0.0209829 0.0467987 0)
(-0.0216271 0.0312749 0)
(-0.0220046 0.01667 0)
(-0.0220709 0.00248456 0)
(-0.0217707 -0.0117715 0)
(-0.0210633 -0.0265328 0)
(-0.0199684 -0.0422086 0)
(-0.018632 -0.0593279 0)
(-0.0171888 -0.0790094 0)
(-0.0164374 -0.103147 0)
(-0.0140669 -0.135238 0)
(-0.0152889 -0.175222 0)
(-0.00447196 -0.211916 0)
(-4.54589e-05 0.119824 0)
(-0.00124797 0.137448 0)
(-0.00313498 0.133791 0)
(-0.00390361 0.12021 0)
(-0.00472025 0.102124 0)
(-0.00544194 0.0830042 0)
(-0.00611493 0.0645737 0)
(-0.00675921 0.0475192 0)
(-0.00732425 0.0317899 0)
(-0.00778111 0.0169764 0)
(-0.0080947 0.00255486 0)
(-0.00823595 -0.0119731 0)
(-0.00819061 -0.0270221 0)
(-0.00797494 -0.0429362 0)
(-0.00775042 -0.0601036 0)
(-0.00750178 -0.0795235 0)
(-0.00876062 -0.103271 0)
(-0.00757968 -0.135695 0)
(-0.012311 -0.177141 0)
(-0.00200752 -0.221486 0)
(0.00216507 0.118251 0)
(0.00459478 0.137186 0)
(0.0058221 0.133535 0)
(0.00698116 0.120291 0)
(0.0074325 0.102369 0)
(0.00760185 0.0834162 0)
(0.00749832 0.0650793 0)
(0.00719392 0.04804 0)
(0.00677557 0.0322861 0)
(0.00628937 0.017434 0)
(0.00575672 0.00296796 0)
(0.00517725 -0.0116099 0)
(0.0045275 -0.0267017 0)
(0.00378956 -0.0426139 0)
(0.00276688 -0.0596089 0)
(0.00171224 -0.0785179 0)
(-0.00171444 -0.1018 0)
(-0.00155979 -0.133979 0)
(-0.0100609 -0.177061 0)
(-0.000268655 -0.228773 0)
(0.0041672 0.113538 0)
(0.010358 0.13421 0)
(0.014021 0.131478 0)
(0.0173351 0.119304 0)
(0.0192978 0.101757 0)
(0.0205174 0.0832128 0)
(0.0211452 0.0651765 0)
(0.0213087 0.0483358 0)
(0.0211286 0.0327302 0)
(0.0206691 0.0180212 0)
(0.01994 0.00372344 0)
(0.0189195 -0.0106549 0)
(0.017538 -0.0255106 0)
(0.0157871 -0.0411387 0)
(0.0134468 -0.0577093 0)
(0.0107518 -0.0758804 0)
(0.00515975 -0.0983563 0)
(0.00441571 -0.129968 0)
(-0.00830621 -0.174834 0)
(0.00238519 -0.233736 0)
(0.00638506 0.104138 0)
(0.0156825 0.127385 0)
(0.0222683 0.12601 0)
(0.0273818 0.115784 0)
(0.0311039 0.0994485 0)
(0.0335474 0.08182 0)
(0.0350937 0.0644897 0)
(0.0358975 0.0481748 0)
(0.0360877 0.0329899 0)
(0.0357393 0.0186754 0)
(0.034852 0.00480824 0)
(0.0333964 -0.00907914 0)
(0.0312444 -0.0233663 0)
(0.02842 -0.0383708 0)
(0.0245573 -0.0542183 0)
(0.0201575 -0.0715549 0)
(0.0123767 -0.0927702 0)
(0.0103142 -0.12384 0)
(-0.00682184 -0.170851 0)
(0.00535971 -0.236691 0)
(0.00821533 0.0912968 0)
(0.0204048 0.118865 0)
(0.0296468 0.119771 0)
(0.0368211 0.11112 0)
(0.0425768 0.0962619 0)
(0.046624 0.0796846 0)
(0.0494065 0.0632192 0)
(0.0511179 0.0476259 0)
(0.0518822 0.0330813 0)
(0.0517835 0.0194004 0)
(0.0508101 0.0062346 0)
(0.0489426 -0.00685532 0)
(0.0459736 -0.0202149 0)
(0.0420251 -0.0342036 0)
(0.036461 -0.0489776 0)
(0.030301 -0.0651823 0)
(0.0201036 -0.0849587 0)
(0.0165236 -0.115773 0)
(-0.00497201 -0.165219 0)
(0.00966483 -0.237821 0)
(0.00990273 0.0747846 0)
(0.0245133 0.105461 0)
(0.0361091 0.109281 0)
(0.0456212 0.102754 0)
(0.0535767 0.0901368 0)
(0.0596196 0.0753457 0)
(0.0640011 0.0603349 0)
(0.0669276 0.0459759 0)
(0.0685128 0.0325331 0)
(0.0688538 0.0199064 0)
(0.0679089 0.00784226 0)
(0.0656994 -0.00406052 0)
(0.0618875 -0.016051 0)
(0.0568172 -0.0285757 0)
(0.049406 -0.0418382 0)
(0.0414745 -0.0566379 0)
(0.0285128 -0.0748702 0)
(0.0234046 -0.1057 0)
(-0.00271084 -0.158261 0)
(0.0148077 -0.237744 0)
(0.0098717 0.0561488 0)
(0.0264082 0.0923182 0)
(0.0401164 0.0989416 0)
(0.0522258 0.0939992 0)
(0.0629504 0.0832131 0)
(0.0716245 0.0701618 0)
(0.0781726 0.0567165 0)
(0.0827726 0.0437853 0)
(0.0855303 0.0316937 0)
(0.0865965 0.0204 0)
(0.085854 0.00975298 0)
(0.0834923 -0.000628424 0)
(0.078914 -0.0108598 0)
(0.0728655 -0.0215118 0)
(0.0635778 -0.0327994 0)
(0.0540378 -0.0459012 0)
(0.0381142 -0.0623604 0)
(0.0316827 -0.0935614 0)
(0.000361177 -0.149194 0)
(0.0216012 -0.235532 0)
(0.00821792 0.0372593 0)
(0.0254225 0.0723708 0)
(0.0414888 0.0813836 0)
(0.0565539 0.0789644 0)
(0.0703638 0.0709041 0)
(0.0821002 0.0605748 0)
(0.0912703 0.0495926 0)
(0.0979403 0.0389021 0)
(0.102163 0.0289352 0)
(0.104241 0.0196849 0)
(0.103886 0.0110981 0)
(0.1017 0.00280777 0)
(0.0966086 -0.00523164 0)
(0.0901206 -0.0135469 0)
(0.0793911 -0.0222551 0)
(0.0689655 -0.0332395 0)
(0.0503491 -0.0473681 0)
(0.0431754 -0.0791803 0)
(0.00557531 -0.138054 0)
(0.0307469 -0.227876 0)
(-0.00309468 0.0237978 0)
(0.0165957 0.0590629 0)
(0.0356179 0.0669251 0)
(0.0547769 0.0652995 0)
(0.0726111 0.0590248 0)
(0.0880005 0.050991 0)
(0.100315 0.0426327 0)
(0.109684 0.034344 0)
(0.115993 0.0265962 0)
(0.119816 0.0194919 0)
(0.12061 0.013063 0)
(0.119548 0.00703677 0)
(0.115075 0.00143856 0)
(0.109776 -0.00441641 0)
(0.0992488 -0.0104182 0)
(0.0898532 -0.0188634 0)
(0.0698734 -0.0305951 0)
(0.0629174 -0.0623348 0)
(0.0186315 -0.121695 0)
(0.0462303 -0.205093 0)
(-0.0153251 0.0296805 0)
(-0.00244871 0.0280326 0)
(0.0241637 0.0332574 0)
(0.0494953 0.0347563 0)
(0.0722899 0.0328173 0)
(0.0921175 0.0289026 0)
(0.108603 0.0244124 0)
(0.121781 0.0200623 0)
(0.131484 0.0160664 0)
(0.138462 0.012372 0)
(0.14224 0.00913059 0)
(0.144061 0.0059151 0)
(0.142602 0.00323426 0)
(0.139992 -0.000340606 0)
(0.13264 -0.00336254 0)
(0.126547 -0.00953888 0)
(0.109806 -0.0186675 0)
(0.104314 -0.046244 0)
(0.0583395 -0.0933897 0)
(0.0777606 -0.156127 0)
(0.0395705 0.038077 0)
(0.0457023 0.0273581 0)
(0.0698136 0.0243892 0)
(0.0995817 0.024473 0)
(0.125894 0.0236543 0)
(0.150085 0.0217886 0)
(0.171654 0.0193468 0)
(0.190576 0.0172008 0)
(0.20626 0.0149037 0)
(0.219478 0.0131905 0)
(0.229659 0.0112376 0)
(0.237951 0.00996429 0)
(0.243468 0.00816686 0)
(0.247416 0.00712795 0)
(0.248597 0.0050454 0)
(0.246446 0.00256792 0)
(0.237788 0.0020657 0)
(0.222596 -0.00986555 0)
(0.172573 -0.0131196 0)
(0.145656 -0.0646149 0)
)
;

boundaryField
{
    movingWall
    {
        type            fixedValue;
        value           uniform (1 0 0);
    }
    fixedWalls
    {
        type            noSlip;
    }
    frontAndBack
    {
        type            empty;
    }
}


// ************************************************************************* //
