/*--------------------------------*- C++ -*----------------------------------*\
  =========                 |
  \\      /  F ield         | OpenFOAM: The Open Source CFD Toolbox
   \\    /   O peration     | Website:  https://openfoam.org
    \\  /    A nd           | Version:  13
     \\/     M anipulation  |
\*---------------------------------------------------------------------------*/
FoamFile
{
    format      ascii;
    class       volScalarField;
    location    "7.7";
    object      k;
}
// * * * * * * * * * * * * * * * * * * * * * * * * * * * * * * * * * * * * * //

dimensions      [0 2 -2 0 0 0 0];

internalField   nonuniform List<scalar> 
6400
(
5.52633e-07
2.83897e-06
6.8982e-06
1.11146e-05
1.4297e-05
1.60914e-05
1.67564e-05
1.68437e-05
1.6972e-05
1.76345e-05
1.92039e-05
2.22154e-05
2.69374e-05
3.34522e-05
4.14113e-05
5.03698e-05
5.98694e-05
6.97292e-05
7.94882e-05
8.89218e-05
9.84127e-05
0.000108785
0.000121131
0.000136096
0.00015305
0.000170175
0.000187179
0.00020406
0.000221334
0.000239466
0.000258215
0.000276936
0.000295333
0.000313454
0.000331771
0.000350387
0.000369698
0.000389819
0.000411003
0.000433313
0.000456912
0.000481982
0.000508665
0.000537291
0.000568074
0.000602067
0.000641221
0.000689726
0.000738836
0.000788791
0.000837788
0.000885392
0.000930121
0.000970723
0.00100571
0.00103329
0.00104754
0.00105321
0.00105165
0.00103183
0.000996583
0.000945924
0.000880442
0.000802647
0.000714218
0.000619569
0.000523307
0.000429191
0.000340695
0.00026182
0.000197683
0.000143843
0.000100339
6.70609e-05
4.31001e-05
2.67726e-05
1.61215e-05
9.25896e-06
4.37826e-06
9.32763e-07
2.67281e-06
2.24731e-05
5.45188e-05
8.52286e-05
0.00010795
0.000121536
0.000128087
0.000130874
0.000133463
0.000138986
0.000150934
0.000173118
0.000206667
0.000250865
0.000303583
0.000362134
0.000424143
0.000487234
0.000549651
0.000610796
0.000672787
0.000740041
0.00081805
0.000909273
0.00100975
0.00111052
0.00120854
0.00130191
0.00139154
0.00147846
0.00156089
0.00163779
0.00170776
0.00177164
0.00183186
0.00188922
0.00194578
0.00200233
0.00206025
0.00212008
0.00218252
0.00224826
0.00231739
0.00239016
0.00246589
0.00254453
0.00262436
0.00270253
0.00278582
0.00287152
0.00295966
0.00304694
0.00313174
0.00321038
0.00327953
0.00333508
0.00336514
0.00337497
0.00336466
0.00332067
0.00323906
0.0031194
0.00296006
0.00276427
0.00253671
0.00228574
0.00202271
0.00175596
0.00149315
0.00123892
0.000996784
0.000776534
0.000584788
0.000424285
0.000295848
0.000197575
0.000126245
7.61086e-05
3.69224e-05
4.93341e-06
5.84903e-06
4.87866e-05
0.000113392
0.000167554
0.000204444
0.000226291
0.000238483
0.000247006
0.000257884
0.000277047
0.000310273
0.000362218
0.000434464
0.000525112
0.000630109
0.000745277
0.00086739
0.00099382
0.00112208
0.00125007
0.00137619
0.00149969
0.00161842
0.0017271
0.00182083
0.00189577
0.0019493
0.00198667
0.00201549
0.00204274
0.00207267
0.00210439
0.00213874
0.00217294
0.00221081
0.00225134
0.00229637
0.00234574
0.00240052
0.00246068
0.00252606
0.00259727
0.00267376
0.00275567
0.00284294
0.00293544
0.00303236
0.00313508
0.0032433
0.0033555
0.00347064
0.00358651
0.00370091
0.00381053
0.00391161
0.00399939
0.0040687
0.00410735
0.00411935
0.00410212
0.00404036
0.00393347
0.00377701
0.00357296
0.00332367
0.00303652
0.00272798
0.00240698
0.00208386
0.00176907
0.00147155
0.00119804
0.000953576
0.000740577
0.000559997
0.000411086
0.000290574
0.000190904
9.70731e-05
1.31997e-05
1.0164e-05
8.2039e-05
0.000178264
0.000250566
0.000297946
0.000327441
0.000347541
0.000366747
0.000393412
0.000435681
0.000500755
0.000592991
0.000712046
0.000853135
0.00100943
0.00117444
0.00134248
0.00150802
0.00166507
0.00180785
0.00193072
0.00203173
0.00210823
0.00215312
0.00217222
0.00217666
0.00217164
0.00216846
0.00216767
0.00217254
0.00218307
0.00219686
0.00221579
0.00223951
0.00226858
0.00230265
0.00234238
0.00238762
0.00243838
0.00249494
0.00255729
0.00262571
0.00270005
0.0027803
0.00286607
0.00295767
0.00305604
0.00316091
0.00327186
0.00338804
0.00350846
0.00363149
0.00375506
0.0038763
0.00399167
0.00409672
0.00418623
0.00425308
0.00428533
0.00429184
0.00425647
0.00417636
0.00405271
0.00388019
0.00365468
0.00337702
0.00306416
0.00272661
0.00237997
0.00203849
0.00171428
0.00141614
0.00114926
0.00091569
0.000715499
0.000547085
0.000406088
0.000282867
0.000154102
2.19858e-05
1.6315e-05
0.000126518
0.000255185
0.000344883
0.000402936
0.000441521
0.000472548
0.000507358
0.00055681
0.000630793
0.000736391
0.000875377
0.00104312
0.00123036
0.0014264
0.00162113
0.00180527
0.00197004
0.00210631
0.0022099
0.00226989
0.00229305
0.00229486
0.00226463
0.00223407
0.00220659
0.0021842
0.00216899
0.00216176
0.0021594
0.00216064
0.00216733
0.00217858
0.00219409
0.00221374
0.0022375
0.00226523
0.00229665
0.00233174
0.00237072
0.00241363
0.0024609
0.00251333
0.00257164
0.00263674
0.00270881
0.0027875
0.00287331
0.00296645
0.003067
0.00317478
0.00328927
0.00340949
0.00353392
0.00366041
0.00378566
0.00390503
0.00401299
0.00410286
0.00415918
0.00417995
0.0041611
0.00408444
0.00395226
0.00377256
0.00353628
0.00324225
0.00290885
0.0025534
0.00219445
0.00184923
0.00153117
0.00124806
0.00100246
0.00079353
0.000618175
0.000470574
0.000338548
0.000192813
2.80623e-05
2.50988e-05
0.00018555
0.000348658
0.000456582
0.000526755
0.000576736
0.00062224
0.00067772
0.000756192
0.000867772
0.00101695
0.00120045
0.00140779
0.00162449
0.00183551
0.00202698
0.00218684
0.00230785
0.00237273
0.00239413
0.00238125
0.00233615
0.00229132
0.00224728
0.00220646
0.00217082
0.00214164
0.00211853
0.00209999
0.00208505
0.00207273
0.00206515
0.00206112
0.00205961
0.00205959
0.00206327
0.00206906
0.00207769
0.00208913
0.00210389
0.00212219
0.00214468
0.00217128
0.00220249
0.00223887
0.00228091
0.00232939
0.00238529
0.00244958
0.0025234
0.0026077
0.00270333
0.00281082
0.00293008
0.00306004
0.00319906
0.00334461
0.00349194
0.00363531
0.00376532
0.00387305
0.00393083
0.00394746
0.0039052
0.00379689
0.0036261
0.00337631
0.00306476
0.00270927
0.00233321
0.00196121
0.00161456
0.00130732
0.00104493
0.000826171
0.000645805
0.00049559
0.000360929
0.000209994
3.03006e-05
3.7291e-05
0.000261061
0.000461011
0.000588498
0.000672495
0.000736322
0.000799733
0.000880003
0.000991023
0.00114079
0.00132866
0.00154468
0.00177219
0.00199197
0.00218594
0.00233907
0.00243185
0.00246658
0.00246415
0.00241482
0.00236123
0.00229817
0.00223718
0.00217605
0.00212187
0.00207495
0.00203405
0.00199725
0.00196393
0.0019346
0.00190932
0.00188683
0.00186655
0.00184832
0.00183219
0.0018186
0.00180716
0.00179833
0.00179227
0.0017894
0.00178855
0.00179065
0.00179647
0.00180575
0.00181929
0.00183723
0.00186053
0.00188985
0.00192643
0.0019717
0.00202754
0.00209595
0.00217924
0.00227965
0.0023985
0.00253569
0.00269301
0.00286681
0.0030517
0.00324077
0.00342598
0.00359163
0.00371304
0.00376565
0.00376838
0.0036818
0.00352012
0.00325551
0.00291483
0.00252466
0.00211782
0.00172694
0.00137756
0.0010829
0.000843558
0.000652352
0.000496662
0.000359569
0.000208905
2.94316e-05
5.36089e-05
0.000354077
0.000592879
0.000741271
0.00084068
0.000920383
0.00100399
0.00111065
0.00125316
0.00143498
0.00164867
0.00187739
0.00209918
0.00229185
0.00243728
0.00250911
0.00252776
0.00249662
0.00244103
0.00236515
0.00228139
0.0021936
0.00211551
0.00204514
0.00198511
0.00192995
0.00187968
0.00183295
0.00178988
0.0017503
0.0017139
0.0016803
0.00164953
0.00162168
0.00159688
0.00157517
0.00155629
0.00154035
0.00152729
0.00151713
0.00150977
0.00150612
0.00150485
0.00150601
0.00151165
0.00152049
0.00153372
0.0015515
0.00157447
0.00160312
0.00163845
0.00168154
0.00173411
0.00179863
0.00187937
0.00198253
0.00211168
0.00227219
0.00246391
0.00267768
0.00291073
0.00314844
0.00337513
0.00356635
0.00366774
0.00369611
0.00363979
0.00348006
0.00318673
0.0028022
0.00236428
0.00191767
0.00150445
0.00115354
0.000874526
0.000659751
0.000492322
0.00035106
0.000202185
2.73646e-05
7.45536e-05
0.000464382
0.000743605
0.000913968
0.00102987
0.00112634
0.00123024
0.00136115
0.00152871
0.00173027
0.00195128
0.00216922
0.00235933
0.00249456
0.00255455
0.00256281
0.0025185
0.00244996
0.00235311
0.00224216
0.00213882
0.0020475
0.00196601
0.00189248
0.00182611
0.00176406
0.00170671
0.00165344
0.00160458
0.00156001
0.00151975
0.00148378
0.00145216
0.00142476
0.00140139
0.00138186
0.00136594
0.00135343
0.00134402
0.00133767
0.00133459
0.00133358
0.00133456
0.00133897
0.00134602
0.00135576
0.00136846
0.0013842
0.00140329
0.00142598
0.00145279
0.00148427
0.00152117
0.00156452
0.00161582
0.00167737
0.00175285
0.00184894
0.00197811
0.00215812
0.00238541
0.00264932
0.00293407
0.00321951
0.00347534
0.00362861
0.00368039
0.0036507
0.00348597
0.00315129
0.00271057
0.00221565
0.00172569
0.00129235
0.000944633
0.000684581
0.000493071
0.000338222
0.000188636
2.50272e-05
0.000100317
0.000590255
0.000911181
0.00110428
0.00123683
0.00134917
0.00147052
0.00161942
0.0018009
0.00200567
0.00221315
0.00239756
0.00252604
0.00257932
0.00258269
0.00253587
0.00244979
0.00232902
0.00220155
0.00208583
0.00198174
0.00188924
0.00180539
0.0017287
0.00165822
0.00159303
0.00153374
0.00148022
0.00143282
0.00139143
0.001356
0.00132625
0.00130183
0.00128229
0.00126712
0.00125579
0.00124778
0.00124302
0.0012409
0.00124037
0.00124215
0.0012459
0.00125151
0.00125912
0.00126851
0.00127981
0.00129316
0.0013087
0.00132665
0.00134727
0.0013707
0.00139727
0.0014273
0.00146122
0.00149951
0.00154287
0.00159283
0.00165214
0.00172584
0.00182297
0.00195912
0.0021656
0.00244473
0.0027664
0.00310814
0.00342766
0.0036334
0.00370691
0.00369299
0.00351161
0.00312335
0.00261652
0.00206058
0.00153072
0.00108565
0.000748646
0.000509729
0.000333652
0.000176396
2.31082e-05
0.000131364
0.000727917
0.0010925
0.0013086
0.00145662
0.0015818
0.00171479
0.00187195
0.00205312
0.00224307
0.00241734
0.0025406
0.00259062
0.0025919
0.00254466
0.00244418
0.00230637
0.00216759
0.00203794
0.00192301
0.0018199
0.00172716
0.00164258
0.00156554
0.00149581
0.00143348
0.00137902
0.00133232
0.00129331
0.00126148
0.00123623
0.0012168
0.00120239
0.00119219
0.00118548
0.00118213
0.00118086
0.0011808
0.00118325
0.00118684
0.00119207
0.00119861
0.00120659
0.00121602
0.00122696
0.00123954
0.00125391
0.00127019
0.00128852
0.00130902
0.00133181
0.001357
0.00138474
0.0014152
0.00144871
0.00148549
0.00152555
0.0015696
0.00161923
0.00167796
0.00175369
0.00186084
0.00202428
0.00228864
0.00264039
0.00302834
0.00341191
0.00366671
0.00375828
0.0037467
0.00353145
0.00307653
0.00249637
0.00188204
0.00132373
0.0008801
0.000561512
0.000343848
0.000173172
2.24538e-05
0.000169101
0.000872945
0.00128385
0.00152216
0.00168301
0.00181596
0.00195238
0.0021059
0.00227155
0.00242985
0.00254698
0.00259544
0.00259651
0.00254986
0.00244102
0.00229231
0.00214135
0.00200018
0.00187342
0.00176117
0.00166023
0.00156944
0.00148775
0.00141531
0.00135225
0.00129873
0.00125459
0.00121918
0.00119171
0.00117106
0.00115615
0.00114587
0.00113926
0.00113592
0.00113457
0.00113437
0.00113591
0.00113856
0.00114249
0.00114735
0.0011534
0.00116059
0.0011691
0.00117904
0.00119059
0.0012039
0.00121916
0.00123654
0.00125617
0.00127817
0.00130262
0.00132952
0.0013588
0.00139031
0.00142384
0.00145923
0.0014965
0.00153602
0.00157781
0.0016222
0.0016719
0.00173325
0.0018201
0.00195661
0.00218461
0.00254958
0.00297745
0.00342271
0.00371671
0.00381927
0.00379275
0.00352044
0.00298473
0.00232843
0.0016679
0.00109955
0.000672333
0.000381507
0.000180617
2.3273e-05
0.000211001
0.00102546
0.00148111
0.0017395
0.00190916
0.00204327
0.00217348
0.00231084
0.00244675
0.00255406
0.00260056
0.00260219
0.00255626
0.00244504
0.00228961
0.0021269
0.00197381
0.00183607
0.00171414
0.00160608
0.00150968
0.00142454
0.00135042
0.00128754
0.00123571
0.00119436
0.00116248
0.00113871
0.00112164
0.00110986
0.00110209
0.00109733
0.00109497
0.001094
0.0010938
0.00109458
0.00109639
0.00109894
0.00110238
0.00110673
0.00111222
0.00111894
0.00112711
0.00113689
0.00114849
0.00116211
0.00117795
0.0011962
0.00121705
0.00124066
0.00126714
0.00129655
0.00132882
0.00136375
0.00140099
0.00143997
0.00148004
0.00152057
0.00156132
0.00160285
0.00164495
0.00168902
0.001741
0.00181309
0.00192939
0.00213326
0.0024918
0.00295818
0.0034574
0.0037742
0.0038754
0.00381208
0.00345302
0.00282164
0.002098
0.00141146
0.000857372
0.000466294
0.000206927
2.67053e-05
0.000255864
0.00118178
0.00167934
0.00195474
0.00212832
0.00225619
0.00237024
0.00247972
0.00257113
0.0026128
0.00261436
0.00256792
0.00245852
0.00229965
0.00212705
0.00196136
0.00181212
0.00168045
0.00156481
0.00146327
0.00137477
0.00129927
0.00123654
0.00118617
0.0011471
0.00111786
0.00109671
0.00108189
0.00107179
0.00106506
0.00106063
0.00105774
0.00105587
0.00105463
0.00105403
0.00105387
0.00105441
0.00105572
0.00105796
0.00106125
0.00106579
0.00107177
0.00107937
0.00108878
0.0011002
0.00111383
0.00112988
0.00114855
0.00117009
0.00119469
0.00122257
0.00125388
0.0012887
0.00132697
0.00136844
0.00141257
0.00145852
0.00150511
0.00155102
0.00159519
0.00163754
0.00167893
0.00171943
0.00176439
0.00182651
0.00193049
0.0021223
0.00247085
0.00297197
0.00351663
0.00382974
0.00391165
0.0037864
0.00329739
0.00257181
0.0017962
0.00111516
0.000606759
0.000263848
3.49298e-05
0.000302222
0.00133778
0.00187341
0.00216221
0.00233437
0.00244863
0.00253739
0.00260774
0.00264001
0.00263872
0.00258911
0.00248359
0.00232402
0.00214357
0.00196534
0.0018032
0.00166085
0.00153694
0.00142957
0.00133742
0.00125995
0.00119682
0.0011471
0.00110937
0.0010817
0.001062
0.00104824
0.00103867
0.00103187
0.0010268
0.00102278
0.00101936
0.00101635
0.0010137
0.0010115
0.00100991
0.00100918
0.00100901
0.00101001
0.00101236
0.00101611
0.00102146
0.00102857
0.00103762
0.00104877
0.00106222
0.00107817
0.00109683
0.00111845
0.00114329
0.00117162
0.00120373
0.00123984
0.00128012
0.00132458
0.00137295
0.00142462
0.00147847
0.00153282
0.00158555
0.00163451
0.00167854
0.00171801
0.00175527
0.00179695
0.00185226
0.00195033
0.00213633
0.00248812
0.00302349
0.00359578
0.00387254
0.00391565
0.00368766
0.00304103
0.00222152
0.00142882
0.000795087
0.000349315
4.80332e-05
0.000348691
0.00148948
0.00205866
0.00235692
0.00252218
0.0026163
0.00266994
0.00269099
0.00268086
0.00262477
0.00252284
0.00236432
0.00217806
0.00198782
0.00181144
0.00165646
0.00152285
0.00140841
0.00131151
0.00123114
0.0011665
0.00111639
0.00107891
0.00105176
0.0010325
0.00101889
0.00100904
0.00100151
0.000995293
0.000989758
0.000984576
0.000979629
0.000974945
0.000970646
0.000966902
0.000963891
0.000961951
0.000961118
0.000961033
0.000962732
0.000965975
0.000970902
0.00097768
0.000986432
0.000997316
0.00101049
0.00102615
0.00104449
0.00106577
0.00109025
0.00111826
0.00115014
0.00118626
0.00122697
0.00127255
0.00132312
0.00137851
0.00143807
0.00150048
0.0015636
0.00162446
0.00167963
0.00172704
0.00176595
0.0017953
0.00183306
0.00188729
0.00198335
0.00217206
0.00254256
0.00312054
0.00367797
0.00390834
0.00387628
0.00345783
0.00265655
0.00177839
0.00101977
0.000455919
6.48555e-05
0.000394351
0.00163251
0.00223133
0.00253569
0.00268721
0.00275108
0.0027665
0.0027444
0.00267974
0.00257968
0.00242246
0.00223215
0.00203083
0.00183916
0.00166911
0.00152338
0.0014
0.0012967
0.00121197
0.00114452
0.00109273
0.00105437
0.00102674
0.00100711
0.000992989
0.000982362
0.000973745
0.000966154
0.000959014
0.00095206
0.000945241
0.00093864
0.000932413
0.00092675
0.000921843
0.000917875
0.000915064
0.000913698
0.00091329
0.000914434
0.000917422
0.000922089
0.000928638
0.000937155
0.000947781
0.000960653
0.000975939
0.000993828
0.00101455
0.00103837
0.00106561
0.00109664
0.00113189
0.00117183
0.00121694
0.00126765
0.00132423
0.00138663
0.00145422
0.00152556
0.00159803
0.00166777
0.00172992
0.00178186
0.00182082
0.00184092
0.00187385
0.00192897
0.00202729
0.00222774
0.00263189
0.00325437
0.00375448
0.00391484
0.00374222
0.00307319
0.00215011
0.00127179
0.000577413
8.43418e-05
0.000438243
0.00176563
0.00238812
0.00269112
0.00282272
0.00285793
0.00283703
0.00276667
0.00265682
0.00250101
0.00230757
0.00209637
0.00188889
0.00170131
0.00154024
0.00140515
0.00129325
0.00120226
0.00113035
0.00107548
0.00103505
0.00100601
0.000985298
0.000970177
0.000958467
0.000948611
0.000939608
0.000930914
0.000922306
0.000913778
0.000905449
0.000897498
0.000890124
0.000883522
0.000877869
0.000873321
0.000870014
0.000868361
0.0008678
0.000868599
0.000871423
0.000875907
0.000882261
0.000890562
0.00090093
0.000913488
0.000928386
0.000945794
0.000965917
0.000989
0.00101534
0.0010453
0.00107931
0.00111787
0.00116158
0.00121104
0.00126686
0.00132948
0.00139901
0.00147488
0.00155551
0.00163782
0.00171695
0.00178639
0.00184296
0.00187636
0.00189132
0.00191877
0.00197613
0.00208191
0.0023061
0.00276868
0.00343364
0.00380075
0.00385125
0.00344475
0.00253413
0.00154718
0.000709897
0.000105571
0.000478708
0.00188542
0.0025239
0.00282064
0.00293019
0.0029414
0.00287805
0.00276019
0.00260457
0.00240658
0.00218648
0.00196334
0.00175614
0.00157609
0.00142558
0.0013021
0.00120247
0.00112413
0.00106454
0.00102073
0.000989314
0.000966861
0.000950337
0.000937347
0.0009262
0.000915843
0.00090572
0.000895627
0.000885581
0.000875723
0.000866245
0.000857351
0.000849231
0.000842053
0.000835962
0.000831079
0.00082751
0.000825655
0.000824991
0.000825529
0.000828178
0.000832473
0.00083861
0.000846668
0.000856755
0.000868987
0.000883498
0.000900445
0.00092001
0.00094241
0.000967912
0.00099684
0.00102959
0.00106666
0.00110864
0.00115621
0.00121016
0.00127127
0.00134017
0.00141715
0.0015017
0.00159208
0.00168466
0.0017735
0.00185024
0.00190787
0.00193329
0.00194397
0.00196705
0.00202869
0.00214872
0.00241725
0.00296544
0.00359582
0.00384382
0.00368252
0.0029093
0.00184222
0.000850858
0.000127862
0.000514286
0.00198888
0.00263659
0.00292417
0.00301459
0.00299887
0.00289381
0.00273557
0.00253282
0.00230348
0.0020652
0.0018371
0.00163456
0.00146416
0.00132513
0.0012138
0.00112659
0.00106033
0.00101163
0.000976727
0.000951809
0.000933473
0.000919028
0.000906579
0.000894957
0.000883556
0.000872156
0.000860783
0.000849582
0.000838754
0.0008285
0.000819007
0.000810431
0.000802907
0.000796544
0.000791437
0.000787668
0.000785604
0.000784826
0.000785086
0.000787489
0.000791538
0.000797398
0.000805158
0.000814921
0.0008268
0.000840924
0.000857434
0.000876497
0.000898306
0.000923096
0.00095115
0.00098282
0.00101855
0.00105888
0.0011045
0.00115623
0.001215
0.0012818
0.00135748
0.00144249
0.00153636
0.00163706
0.00174018
0.00183834
0.00192105
0.00197482
0.00199138
0.00199723
0.00201854
0.00208676
0.00223272
0.0025764
0.00321295
0.00368253
0.00376758
0.00325556
0.00215155
0.000995579
0.000151162
0.000544176
0.00207484
0.00272579
0.00300251
0.00307715
0.00303154
0.00288754
0.00268774
0.0024504
0.00219719
0.00194782
0.00171997
0.00152495
0.0013654
0.0012383
0.00113913
0.0010638
0.00100836
0.000968611
0.000940333
0.000919675
0.00090355
0.000889769
0.000876968
0.000864433
0.000851898
0.00083937
0.000826994
0.000814968
0.000803491
0.000792744
0.000782874
0.000774006
0.000766239
0.000759658
0.000754336
0.000750342
0.000747992
0.000747043
0.000747001
0.000749044
0.00075277
0.00075828
0.000765678
0.000775066
0.000786557
0.000800275
0.00081636
0.000834963
0.000856262
0.000880462
0.000907812
0.000938617
0.000973258
0.00101222
0.00105613
0.00110575
0.00116206
0.00122617
0.0012993
0.00138254
0.00147652
0.00158071
0.00169259
0.00180661
0.00191319
0.00199789
0.00203983
0.00204901
0.00205042
0.00207256
0.00215267
0.00234539
0.00281273
0.00347022
0.00374144
0.00350833
0.00246446
0.00114207
0.000175211
0.000567948
0.0021433
0.00279257
0.0030575
0.00311745
0.00304224
0.00286666
0.00262819
0.00236226
0.00209179
0.00183697
0.00161304
0.00142732
0.00127919
0.001164
0.00107653
0.00101198
0.00096566
0.000932835
0.00090914
0.000890987
0.000875769
0.000861833
0.000848287
0.000834769
0.000821244
0.000807839
0.000794749
0.000782168
0.00077027
0.000759198
0.000749067
0.000739967
0.000731974
0.000725158
0.000719581
0.000715308
0.000712544
0.000711292
0.000711036
0.000712578
0.000715906
0.000721
0.000727975
0.000736935
0.000747997
0.000761286
0.000776938
0.000795099
0.000815935
0.000839634
0.000866415
0.000896543
0.000930347
0.000968244
0.00101077
0.00105864
0.00111273
0.00117418
0.00124433
0.00132466
0.00141653
0.00152069
0.00163647
0.00176066
0.00188631
0.00200166
0.00207813
0.00210386
0.00210596
0.00210044
0.00212991
0.00223319
0.00251107
0.00311865
0.00357564
0.00361747
0.00277993
0.00130323
0.000201688
0.000585529
0.00219494
0.00283831
0.00309098
0.00313743
0.00303586
0.00282808
0.00256044
0.00227215
0.00199009
0.00173415
0.00151664
0.00134119
0.00120458
0.00110089
0.0010242
0.000969006
0.00093001
0.00090224
0.000881486
0.000864594
0.000849491
0.000835012
0.000820637
0.000806252
0.000791952
0.000777916
0.000764338
0.000751386
0.000739198
0.000727882
0.000717521
0.000708187
0.00069994
0.000692842
0.000686952
0.000682335
0.000679074
0.000677457
0.000676962
0.000677934
0.000680801
0.000685426
0.000691929
0.000700418
0.000711012
0.00072384
0.000739038
0.000756752
0.000777141
0.000800383
0.000826678
0.000856261
0.000889418
0.000926507
0.00096799
0.00101447
0.00106675
0.00112588
0.00119319
0.0012703
0.00135898
0.00146084
0.00157665
0.00170521
0.00184183
0.00197674
0.00209381
0.00215633
0.00216837
0.00215598
0.00214422
0.0021922
0.00234552
0.00278603
0.00341658
0.00363483
0.00308905
0.00150386
0.000235755
0.00059721
0.00223078
0.00286406
0.00310327
0.00313686
0.00301622
0.00277991
0.0024881
0.00218293
0.00189393
0.00164008
0.00143057
0.00126578
0.0011404
0.00104747
0.000980366
0.000932971
0.000899614
0.000875351
0.000856327
0.000839897
0.000824492
0.000809349
0.000794221
0.000779144
0.000764275
0.0007498
0.000735885
0.000722665
0.000710244
0.000698702
0.000688102
0.000678503
0.000669959
0.000662526
0.000656267
0.000651244
0.000647526
0.000645443
0.000644673
0.00064506
0.000647416
0.000651539
0.000657536
0.00066552
0.000675614
0.000687948
0.000702663
0.000719907
0.000739839
0.000762631
0.000788473
0.000817583
0.000850216
0.000886681
0.000927376
0.000972817
0.0010237
0.00108095
0.0011458
0.00121987
0.00130511
0.00140365
0.0015174
0.00164705
0.00179067
0.00194173
0.00208726
0.00219078
0.00222849
0.00222921
0.00219739
0.0021869
0.00226662
0.00252681
0.00314264
0.00352215
0.00333199
0.00175843
0.000281741
0.000603005
0.00225115
0.00287095
0.00309993
0.00312551
0.00298189
0.00272461
0.00241393
0.00209669
0.00180445
0.00155493
0.00135431
0.00120014
0.00108541
0.00100227
0.000943426
0.000902319
0.000873145
0.000851195
0.00083307
0.000816635
0.000800755
0.000784974
0.000769226
0.000753626
0.000738349
0.00072356
0.000709394
0.000695952
0.000683311
0.000671533
0.000660669
0.000650771
0.000641894
0.000634095
0.000627439
0.000621992
0.000617829
0.000615214
0.000614105
0.000614004
0.000615795
0.000619398
0.000624872
0.00063233
0.000641897
0.000653708
0.000667908
0.000684648
0.000704092
0.000726412
0.000751798
0.000780455
0.00081262
0.000848573
0.000888656
0.000933314
0.000983139
0.00103894
0.00110181
0.00117324
0.00125517
0.00134998
0.00146018
0.00158779
0.00173298
0.001892
0.00205483
0.00220303
0.00228386
0.00229922
0.00227086
0.00223229
0.00224221
0.00238729
0.00286209
0.00338395
0.00344658
0.00206276
0.000339425
0.000602626
0.00225883
0.00286602
0.00308538
0.00309943
0.00293866
0.00266484
0.00234008
0.00201485
0.00172222
0.00147852
0.00128715
0.00114325
0.00103839
0.000963918
0.000912017
0.000875844
0.000849676
0.000829168
0.000811411
0.000794731
0.000778343
0.00076201
0.000745775
0.000729788
0.000714212
0.000699183
0.000684805
0.000671153
0.000658285
0.000646252
0.000635101
0.000624885
0.000615658
0.000607483
0.000600428
0.000594567
0.000589979
0.000586794
0.000585246
0.000584837
0.000586028
0.000589107
0.000594053
0.000600975
0.000609998
0.000621261
0.000634913
0.000651112
0.000670026
0.000691835
0.000716729
0.000744915
0.000776621
0.000812106
0.000851679
0.000895727
0.000944757
0.000999457
0.00106079
0.00113008
0.00120917
0.00130044
0.00140678
0.00153118
0.00167565
0.00183936
0.00201588
0.00219043
0.002319
0.00236474
0.00235914
0.00228682
0.00225219
0.00231724
0.00262131
0.00324237
0.00347419
0.00240517
0.000406371
0.000599398
0.00225679
0.00284992
0.0030556
0.00306094
0.00288842
0.00260265
0.00226815
0.00193834
0.00164746
0.00141047
0.00122832
0.0010941
0.000998189
0.000931242
0.000885045
0.00085266
0.000828589
0.000808919
0.000791212
0.000774186
0.000757326
0.00074054
0.00072393
0.00070765
0.00069184
0.000676608
0.000662031
0.000648166
0.000635061
0.000622761
0.000611313
0.000600773
0.000591199
0.000582657
0.000575218
0.000568955
0.00056395
0.000560283
0.000558278
0.000557588
0.000558215
0.00056078
0.000565206
0.000571591
0.000580061
0.000590758
0.000603833
0.000619453
0.000637791
0.000659037
0.000683389
0.000711058
0.000742275
0.00077729
0.000816392
0.000859927
0.000908335
0.000962207
0.00102237
0.00108998
0.00116669
0.00125478
0.00135721
0.00147747
0.00161884
0.00178276
0.00196601
0.00215689
0.00233187
0.00242345
0.00243859
0.00238475
0.00230241
0.00229416
0.00246168
0.00301805
0.00339136
0.00274553
0.000475407
0.00059228
0.00224805
0.00282008
0.00301554
0.00301383
0.00283323
0.00253972
0.00219931
0.00186771
0.0015801
0.00135026
0.00117701
0.00105173
0.000963782
0.000903252
0.000861664
0.000832132
0.000809483
0.000790249
0.000772417
0.000755024
0.00073775
0.000720599
0.000703696
0.000687184
0.000671176
0.000655756
0.000640983
0.000626901
0.000613553
0.000600985
0.000589246
0.000578394
0.000568493
0.00055961
0.000551817
0.000545188
0.000539801
0.000535732
0.000533276
0.000532313
0.000532452
0.00053452
0.000538441
0.000544298
0.000552215
0.000562333
0.000574809
0.000589814
0.000607532
0.000628161
0.00065191
0.000679003
0.000709676
0.000744183
0.000782805
0.000825863
0.000873752
0.000926981
0.000986256
0.00105258
0.00112742
0.00121284
0.00131175
0.00142785
0.00156532
0.00172755
0.00191472
0.00211985
0.0023244
0.0024672
0.00251065
0.00248544
0.0023631
0.00230407
0.00238252
0.00280992
0.00325741
0.0030133
0.000530736
0.000581222
0.00222967
0.00278143
0.00296806
0.00296
0.00277479
0.00247733
0.00213434
0.00180323
0.00151993
0.0012973
0.00113244
0.00101526
0.00093429
0.000879149
0.000841232
0.000813818
0.000792104
0.000773048
0.000755004
0.000737259
0.000719633
0.000702184
0.000685044
0.000668334
0.000652148
0.000636547
0.000621578
0.000607281
0.000593696
0.000580871
0.000568861
0.000557726
0.000547531
0.000538348
0.000530247
0.000523304
0.000517592
0.000513189
0.000510298
0.000509009
0.000508824
0.000510405
0.000513841
0.000519186
0.000526555
0.00053609
0.000547951
0.000562314
0.000579371
0.000599331
0.000622417
0.000648866
0.000678928
0.000712868
0.000750968
0.000793541
0.000840951
0.00089365
0.000952246
0.0010176
0.00109097
0.00117423
0.00127006
0.00138214
0.00151507
0.00167351
0.0018601
0.00207154
0.00229355
0.00248753
0.00257479
0.00257917
0.00247189
0.00235054
0.00234562
0.0026365
0.00313266
0.00314011
0.000556058
0.000566833
0.00220458
0.00273594
0.00291454
0.00290142
0.00271454
0.00241647
0.00207378
0.00174495
0.00146661
0.00125101
0.00109387
0.000983921
0.00090897
0.000858298
0.000823272
0.000797408
0.000776284
0.000757248
0.000738955
0.000720888
0.000702962
0.000685265
0.000667922
0.000651037
0.000634682
0.000618906
0.000603748
0.000589245
0.000575439
0.000562382
0.000550132
0.000538751
0.000528309
0.000518875
0.00051052
0.000503316
0.000497336
0.000492656
0.000489372
0.000487754
0.000487337
0.00048847
0.000491449
0.000496302
0.000503136
0.000512091
0.000523328
0.000537029
0.000553392
0.000572639
0.000595005
0.000620745
0.000650125
0.000683426
0.000720943
0.000762992
0.000809921
0.000862145
0.000920196
0.000984813
0.00105708
0.00113864
0.00123192
0.00134046
0.00146901
0.00162314
0.00180768
0.00202311
0.00225983
0.00249167
0.00263207
0.00266261
0.00258656
0.00240387
0.00233673
0.00248516
0.0030259
0.00317574
0.00056039
0.000549926
0.00217488
0.00268533
0.00285647
0.00283969
0.00265367
0.00235786
0.00201791
0.00169278
0.00141976
0.00121081
0.00106063
0.000957031
0.000887207
0.000840199
0.000807428
0.000782684
0.000761911
0.000742797
0.000724248
0.000705891
0.000687706
0.000669795
0.000652272
0.000635225
0.00061871
0.000602768
0.000587432
0.000572742
0.000558742
0.000545486
0.000533035
0.000521455
0.000510815
0.000501182
0.000492627
0.000485216
0.000479018
0.000474099
0.000470528
0.000468595
0.000467972
0.000468712
0.000471267
0.000475652
0.000481969
0.000490353
0.000500966
0.000513993
0.000529641
0.000548139
0.000569738
0.000594709
0.000623338
0.000655928
0.000692791
0.000734256
0.000780672
0.000832433
0.000890016
0.000954062
0.0010255
0.00110575
0.00119696
0.00130242
0.00142679
0.00157607
0.00175658
0.00197196
0.00221761
0.00247384
0.0026718
0.00273734
0.00270062
0.00250631
0.00236625
0.00241187
0.00285993
0.00314766
0.00054918
0.000531173
0.00214235
0.0026312
0.00279526
0.00277615
0.00259311
0.00230202
0.00196685
0.00164655
0.00137898
0.00117615
0.00103214
0.000934015
0.000868496
0.00082446
0.000793431
0.000769483
0.000748897
0.000729652
0.000710852
0.000692234
0.00067382
0.000655719
0.000638032
0.000620833
0.000604169
0.000588074
0.000572581
0.000557729
0.000543567
0.000530152
0.000517545
0.000505814
0.000495026
0.000485248
0.000476546
0.00046898
0.000462613
0.000457504
0.000453715
0.000451499
0.000450687
0.00045109
0.000453256
0.000457202
0.000463022
0.00047085
0.000480847
0.0004932
0.00050812
0.000525846
0.000546642
0.000570795
0.000598613
0.000630422
0.000666559
0.000707372
0.000753224
0.000804502
0.000861651
0.000925237
0.000996058
0.00107532
0.00116493
0.00126785
0.00138851
0.00153309
0.00170892
0.00192215
0.00217222
0.00244368
0.0026907
0.00280343
0.00280224
0.00262519
0.0024097
0.00238201
0.00271439
0.00307666
0.000530297
0.000511193
0.00210771
0.00257477
0.00273214
0.00271188
0.00253361
0.00224928
0.0019206
0.00160597
0.00134384
0.00114654
0.00100788
0.000914385
0.000852427
0.000810772
0.000781075
0.000757681
0.000737171
0.000717766
0.000698727
0.000679873
0.000661254
0.00064298
0.000625142
0.000607804
0.000591004
0.000574774
0.000559148
0.000544166
0.000529878
0.000516345
0.000503628
0.000491794
0.000480909
0.000471036
0.000462235
0.000454563
0.000448075
0.000442825
0.000438865
0.000436398
0.00043541