/*--------------------------------*- C++ -*----------------------------------*\
  =========                 |
  \\      /  F ield         | OpenFOAM: The Open Source CFD Toolbox
   \\    /   O peration     | Website:  https://openfoam.org
    \\  /    A nd           | Version:  13
     \\/     M anipulation  |
\*---------------------------------------------------------------------------*/
FoamFile
{
    format      ascii;
    class       volScalarField;
    location    "7.7";
    object      nut;
}
// * * * * * * * * * * * * * * * * * * * * * * * * * * * * * * * * * * * * * //

dimensions      [0 2 -1 0 0 0 0];

internalField   nonuniform List<scalar> 
6400
(
9.71473e-10
4.99062e-09
1.21264e-08
1.95383e-08
2.51328e-08
2.82872e-08
2.94561e-08
2.96097e-08
2.98352e-08
3.09999e-08
3.37587e-08
3.90525e-08
4.73529e-08
5.88047e-08
7.27951e-08
8.85423e-08
1.05241e-07
1.22572e-07
1.39727e-07
1.56309e-07
1.72993e-07
1.91225e-07
2.12929e-07
2.39234e-07
2.69037e-07
2.99138e-07
3.29028e-07
3.58702e-07
3.89067e-07
4.20941e-07
4.53897e-07
4.86805e-07
5.19145e-07
5.50998e-07
5.83195e-07
6.1592e-07
6.49864e-07
6.85234e-07
7.22472e-07
7.61689e-07
8.03173e-07
8.47242e-07
8.94146e-07
9.44464e-07
9.98576e-07
1.05833e-06
1.12716e-06
1.21242e-06
1.29875e-06
1.38656e-06
1.47269e-06
1.55637e-06
1.63499e-06
1.70636e-06
1.76787e-06
1.81635e-06
1.8414e-06
1.85136e-06
1.84861e-06
1.81377e-06
1.75181e-06
1.66276e-06
1.54765e-06
1.4109e-06
1.25546e-06
1.08908e-06
9.19869e-07
7.54431e-07
5.98872e-07
4.60227e-07
3.47487e-07
2.52848e-07
1.76377e-07
1.1788e-07
7.57616e-08
4.70612e-08
2.83386e-08
1.62756e-08
7.69622e-09
1.63964e-09
4.69854e-09
3.31947e-07
1.19444e-06
2.01453e-06
2.62173e-06
2.98094e-06
3.14902e-06
3.21296e-06
3.25717e-06
3.34342e-06
3.54766e-06
3.93322e-06
4.46904e-06
5.08698e-06
5.72408e-06
6.31869e-06
6.82687e-06
7.20184e-06
7.43127e-06
7.5312e-06
7.58205e-06
7.65083e-06
7.8041e-06
8.06836e-06
8.38283e-06
8.59412e-06
8.79636e-06
9.02783e-06
9.33463e-06
9.7548e-06
1.02944e-05
1.08877e-05
1.15303e-05
1.21919e-05
1.2892e-05
1.36152e-05
1.43711e-05
1.51539e-05
1.59704e-05
1.6816e-05
1.76848e-05
1.85824e-05
1.95054e-05
2.04804e-05
2.14719e-05
2.24484e-05
2.33826e-05
2.42209e-05
2.50851e-05
2.59618e-05
2.68481e-05
2.77266e-05
2.8583e-05
2.93963e-05
3.01443e-05
3.08766e-05
3.13382e-05
3.16334e-05
3.18353e-05
3.18155e-05
3.14632e-05
3.0807e-05
2.98221e-05
2.84962e-05
2.68323e-05
2.48809e-05
2.27403e-05
2.04327e-05
1.79899e-05
1.53468e-05
1.24524e-05
9.65813e-06
7.19221e-06
5.15769e-06
3.57806e-06
2.43429e-06
1.62833e-06
1.05319e-06
4.76749e-07
8.67208e-09
1.0282e-08
8.59354e-07
3.47365e-06
6.03885e-06
8.00677e-06
9.29098e-06
1.00217e-05
1.04024e-05
1.06386e-05
1.09088e-05
1.13452e-05
1.20196e-05
1.29037e-05
1.38979e-05
1.48764e-05
1.57321e-05
1.64175e-05
1.69095e-05
1.72088e-05
1.73315e-05
1.72993e-05
1.72063e-05
1.71312e-05
1.71127e-05
1.71863e-05
1.74402e-05
1.77573e-05
1.80794e-05
1.84266e-05
1.87938e-05
1.92776e-05
1.99546e-05
2.09372e-05
2.19339e-05
2.30671e-05
2.42548e-05
2.5523e-05
2.68118e-05
2.81542e-05
2.9588e-05
3.09804e-05
3.24157e-05
3.38226e-05
3.51578e-05
3.64339e-05
3.7684e-05
3.88969e-05
4.0118e-05
4.13474e-05
4.25772e-05
4.37991e-05
4.50014e-05
4.61682e-05
4.72797e-05
4.83091e-05
4.92225e-05
5.00166e-05
5.05594e-05
5.08061e-05
5.09787e-05
5.08168e-05
5.03368e-05
4.94979e-05
4.8181e-05
4.63085e-05
4.38917e-05
4.11264e-05
3.80006e-05
3.45271e-05
3.07439e-05
2.67024e-05
2.25417e-05
1.84601e-05
1.46596e-05
1.13141e-05
8.48257e-06
6.23291e-06
4.29607e-06
1.7911e-06
2.32028e-08
1.78674e-08
1.40825e-06
5.44482e-06
9.31008e-06
1.2306e-05
1.43716e-05
1.56625e-05
1.64034e-05
1.685e-05
1.72306e-05
1.77386e-05
1.84938e-05
1.94731e-05
2.0538e-05
2.15301e-05
2.23383e-05
2.2905e-05
2.32288e-05
2.33403e-05
2.32979e-05
2.31673e-05
2.3057e-05
2.30332e-05
2.31318e-05
2.31838e-05
2.31941e-05
2.31625e-05
2.35481e-05
2.42764e-05
2.5246e-05
2.65231e-05
2.77331e-05
2.89307e-05
3.02097e-05
3.15222e-05
3.28119e-05
3.41067e-05
3.54655e-05
3.6754e-05
3.80316e-05
3.92596e-05
4.04701e-05
4.16334e-05
4.27575e-05
4.38365e-05
4.48868e-05
4.59384e-05
4.69913e-05
4.80422e-05
4.9086e-05
5.01154e-05
5.11207e-05
5.20889e-05
5.30034e-05
5.38444e-05
5.45883e-05
5.5209e-05
5.5689e-05
5.59425e-05
5.60115e-05
5.5865e-05
5.5373e-05
5.45925e-05
5.38105e-05
5.25296e-05
5.06141e-05
4.82483e-05
4.53897e-05
4.21147e-05
3.8472e-05
3.45056e-05
3.02803e-05
2.5903e-05
2.15373e-05
1.73867e-05
1.36174e-05
1.03385e-05
7.25273e-06
3.00884e-06
3.86474e-08
2.86803e-08
2.11443e-06
7.56066e-06
1.25318e-05
1.62496e-05
1.87616e-05
2.0307e-05
2.11718e-05
2.16692e-05
2.21193e-05
2.27735e-05
2.37154e-05
2.48423e-05
2.59596e-05
2.68938e-05
2.75486e-05
2.79062e-05
2.80078e-05
2.79092e-05
2.77309e-05
2.74731e-05
2.72951e-05
2.71349e-05
2.65066e-05
2.6438e-05
2.695e-05
2.78895e-05
2.90176e-05
3.01732e-05
3.14695e-05
3.27329e-05
3.39592e-05
3.51644e-05
3.63394e-05
3.74262e-05
3.84405e-05
3.94577e-05
4.04058e-05
4.12243e-05
4.19939e-05
4.26808e-05
4.33179e-05
4.39201e-05
4.45153e-05
4.51271e-05
4.57553e-05
4.63804e-05
4.70144e-05
4.76582e-05
4.83159e-05
4.89888e-05
4.96774e-05
5.038e-05
5.10918e-05
5.18059e-05
5.251e-05
5.31866e-05
5.38054e-05
5.43332e-05
5.47145e-05
5.48664e-05
5.47878e-05
5.42803e-05
5.3181e-05
5.23793e-05
5.12426e-05
4.94403e-05
4.71376e-05
4.43994e-05
4.12783e-05
3.78118e-05
3.40243e-05
2.99496e-05
2.56746e-05
2.1403e-05
1.73062e-05
1.3456e-05
9.46804e-06
3.8591e-06
4.9329e-08
4.41213e-08
3.06415e-06
1.00582e-05
1.60517e-05
2.02781e-05
2.29741e-05
2.45274e-05
2.53482e-05
2.58588e-05
2.64339e-05
2.72827e-05
2.83854e-05
2.95597e-05
3.05909e-05
3.13275e-05
3.17107e-05
3.17598e-05
3.16027e-05
3.11791e-05
3.0857e-05
3.03279e-05
2.94438e-05
2.92925e-05
2.99844e-05
3.09405e-05
3.19497e-05
3.31031e-05
3.42552e-05
3.53591e-05
3.6422e-05
3.73347e-05
3.81992e-05
3.89917e-05
3.96781e-05
4.02223e-05
4.0706e-05
4.10909e-05
4.14702e-05
4.17518e-05
4.19979e-05
4.2214e-05
4.24193e-05
4.26084e-05
4.27865e-05
4.29618e-05
4.3132e-05
4.33042e-05
4.34862e-05
4.36873e-05
4.3918e-05
4.41898e-05
4.45145e-05
4.49047e-05
4.53694e-05
4.59094e-05
4.65195e-05
4.72119e-05
4.79568e-05
4.87245e-05
4.94593e-05
5.01445e-05
5.06054e-05
5.07724e-05
5.06374e-05
4.97979e-05
4.93335e-05
4.81396e-05
4.63915e-05
4.41493e-05
4.15017e-05
3.85249e-05
3.52511e-05
3.16634e-05
2.77307e-05
2.35979e-05
1.93951e-05
1.52674e-05
1.07761e-05
4.26784e-06
5.32636e-08
6.55538e-08
4.30077e-06
1.29679e-05
1.98686e-05
2.44069e-05
2.70927e-05
2.85104e-05
2.92277e-05
2.97607e-05
3.04676e-05
3.14524e-05
3.25909e-05
3.36583e-05
3.44575e-05
3.4887e-05
3.49453e-05
3.44704e-05
3.40151e-05
3.35519e-05
3.23633e-05
3.2023e-05
3.24934e-05
3.33399e-05
3.40976e-05
3.49843e-05
3.58693e-05
3.67609e-05
3.75311e-05
3.81977e-05
3.87835e-05
3.92944e-05
3.97162e-05
4.00384e-05
4.02686e-05
4.04216e-05
4.05266e-05
4.05811e-05
4.06089e-05
4.05764e-05
4.05504e-05
4.05281e-05
4.0443e-05
4.03747e-05
4.02737e-05
4.01791e-05
4.00627e-05
3.99454e-05
3.98187e-05
3.96947e-05
3.95783e-05
3.9485e-05
3.94316e-05
3.9446e-05
3.95689e-05
3.98347e-05
4.01999e-05
4.07643e-05
4.15166e-05
4.24266e-05
4.34178e-05
4.45026e-05
4.55356e-05
4.6469e-05
4.69333e-05
4.70285e-05
4.65138e-05
4.62996e-05
4.51064e-05
4.32645e-05
4.09062e-05
3.81822e-05
3.52059e-05
3.20157e-05
2.85279e-05
2.46149e-05
2.05759e-05
1.61877e-05
1.10771e-05
4.25799e-06
5.1736e-08
9.42388e-08
5.8431e-06
1.62174e-05
2.38754e-05
2.85443e-05
3.10886e-05
3.23068e-05
3.2915e-05
3.34688e-05
3.425e-05
3.52468e-05
3.62622e-05
3.70641e-05
3.74897e-05
3.74945e-05
3.69609e-05
3.64857e-05
3.54377e-05
3.46902e-05
3.46367e-05
3.51658e-05
3.55508e-05
3.61691e-05
3.67747e-05
3.75032e-05
3.81139e-05
3.86551e-05
3.9063e-05
3.93836e-05
3.96167e-05
3.9774e-05
3.986e-05
3.98875e-05
3.98733e-05
3.98318e-05
3.97741e-05
3.97007e-05
3.96176e-05
3.95232e-05
3.94311e-05
3.9285e-05
3.91853e-05
3.91183e-05
3.89085e-05
3.87805e-05
3.85974e-05
3.84209e-05
3.8222e-05
3.80115e-05
3.77814e-05
3.75343e-05
3.72654e-05
3.6973e-05
3.66521e-05
3.63275e-05
3.61657e-05
3.61551e-05
3.64607e-05
3.71718e-05
3.80401e-05
3.92381e-05
4.05758e-05
4.19693e-05
4.32649e-05
4.40708e-05
4.42651e-05
4.40918e-05
4.40319e-05
4.2671e-05
4.05699e-05
3.793e-05
3.49545e-05
3.18259e-05
2.86061e-05
2.50774e-05
2.10496e-05
1.66919e-05
1.12495e-05
4.14772e-06
4.81026e-08
1.31057e-07
7.67339e-06
1.97161e-05
2.79146e-05
3.25971e-05
3.49271e-05
3.59254e-05
3.64221e-05
3.6957e-05
3.77116e-05
3.85804e-05
3.93348e-05
3.97708e-05
3.96153e-05
3.91174e-05
3.86149e-05
3.72947e-05
3.67856e-05
3.68255e-05
3.68796e-05
3.71399e-05
3.75586e-05
3.80581e-05
3.85084e-05
3.89395e-05
3.92331e-05
3.94495e-05
3.95659e-05
3.96287e-05
3.964e-05
3.96223e-05
3.95856e-05
3.95444e-05
3.95062e-05
3.94739e-05
3.94476e-05
3.9425e-05
3.94039e-05
3.93779e-05
3.93274e-05
3.92915e-05
3.92671e-05
3.9172e-05
3.90799e-05
3.89812e-05
3.88496e-05
3.87044e-05
3.85316e-05
3.83348e-05
3.81059e-05
3.78453e-05
3.75463e-05
3.72024e-05
3.68083e-05
3.63514e-05
3.58316e-05
3.52458e-05
3.46146e-05
3.40645e-05
3.42016e-05
3.49238e-05
3.6087e-05
3.75909e-05
3.92519e-05
4.09009e-05
4.19467e-05
4.22216e-05
4.22955e-05
4.23477e-05
4.07208e-05
3.82763e-05
3.52297e-05
3.18745e-05
2.84781e-05
2.50574e-05
2.12517e-05
1.67293e-05
1.09998e-05
3.85817e-06
4.39938e-08
1.76346e-07
9.7115e-06
2.32899e-05
3.19066e-05
3.65083e-05
3.85829e-05
3.93507e-05
3.97115e-05
4.01543e-05
4.07648e-05
4.13782e-05
4.17693e-05
4.15041e-05
4.09422e-05
4.0356e-05
3.92621e-05
3.86902e-05
3.84457e-05
3.82016e-05
3.83464e-05
3.85845e-05
3.88936e-05
3.91819e-05
3.93941e-05
3.95432e-05
3.95963e-05
3.96107e-05
3.95869e-05
3.95635e-05
3.95446e-05
3.95472e-05
3.95724e-05
3.96224e-05
3.96921e-05
3.97749e-05
3.98626e-05
3.99434e-05
4.00242e-05
4.00724e-05
4.00961e-05
4.01349e-05
4.01136e-05
4.0074e-05
4.00096e-05
3.99202e-05
3.98033e-05
3.96649e-05
3.95031e-05
3.93222e-05
3.91209e-05
3.88909e-05
3.86263e-05
3.83153e-05
3.79401e-05
3.74952e-05
3.69538e-05
3.62987e-05
3.552e-05
3.46373e-05
3.37173e-05
3.28117e-05
3.27498e-05
3.37431e-05
3.52256e-05
3.71365e-05
3.90456e-05
4.03594e-05
4.07348e-05
4.08964e-05
4.09494e-05
3.90384e-05
3.6173e-05
3.26377e-05
2.88297e-05
2.50656e-05
2.12131e-05
1.66883e-05
1.07321e-05
3.5865e-06
4.06203e-08
2.30923e-07
1.17884e-05
2.68009e-05
3.57639e-05
4.02326e-05
4.20293e-05
4.25483e-05
4.27243e-05
4.29833e-05
4.33357e-05
4.35893e-05
4.32313e-05
4.25742e-05
4.19101e-05
4.09746e-05
4.02889e-05
3.96838e-05
3.93759e-05
3.92477e-05
3.93586e-05
3.94788e-05
3.96093e-05
3.96826e-05
3.96991e-05
3.96805e-05
3.96377e-05
3.96149e-05
3.96178e-05
3.96677e-05
3.97592e-05
3.98936e-05
4.00588e-05
4.02454e-05
4.04402e-05
4.06317e-05
4.08453e-05
4.09813e-05
4.10623e-05
4.12343e-05
4.12853e-05
4.13442e-05
4.13469e-05
4.13286e-05
4.12731e-05
4.11874e-05
4.10692e-05
4.09217e-05
4.07443e-05
4.05384e-05
4.03039e-05
4.0041e-05
3.97504e-05
3.94319e-05
3.90846e-05
3.87056e-05
3.82739e-05
3.77344e-05
3.70393e-05
3.61682e-05
3.51125e-05
3.39187e-05
3.27224e-05
3.1661e-05
3.19092e-05
3.34174e-05
3.53588e-05
3.75218e-05
3.90908e-05
3.95633e-05
3.97348e-05
3.96474e-05
3.73823e-05
3.40257e-05
2.99683e-05
2.56597e-05
2.14024e-05
1.66745e-05
1.07141e-05
3.51864e-06
3.94697e-08
2.97259e-07
1.37066e-05
3.01573e-05
3.94283e-05
4.37346e-05
4.52354e-05
4.54745e-05
4.54e-05
4.53802e-05
4.53747e-05
4.49054e-05
4.41333e-05
4.34122e-05
4.25493e-05
4.17569e-05
4.08256e-05
4.03252e-05
4.00475e-05
3.9931e-05
3.99303e-05
3.99052e-05
3.98767e-05
3.98145e-05
3.97524e-05
3.97151e-05
3.97232e-05
3.97983e-05
3.99359e-05
4.01353e-05
4.03796e-05
4.06566e-05
4.09485e-05
4.12425e-05
4.15576e-05
4.18382e-05
4.20209e-05
4.22149e-05
4.24224e-05
4.25734e-05
4.26713e-05
4.27462e-05
4.27749e-05
4.27722e-05
4.273e-05
4.26528e-05
4.25392e-05
4.2391e-05
4.22085e-05
4.19923e-05
4.17427e-05
4.14598e-05
4.11426e-05
4.07897e-05
4.03985e-05
3.99664e-05
3.94913e-05
3.89716e-05
3.84027e-05
3.77203e-05
3.68258e-05
3.56702e-05
3.43073e-05
3.28451e-05
3.15112e-05
3.06884e-05
3.19388e-05
3.384e-05
3.62348e-05
3.79797e-05
3.85112e-05
3.85986e-05
3.82485e-05
3.55217e-05
3.16439e-05
2.70559e-05
2.21823e-05
1.70858e-05
1.09565e-05
3.66406e-06
4.09094e-08
3.70912e-07
1.56054e-05
3.33478e-05
4.28668e-05
4.69853e-05
4.81696e-05
4.80866e-05
4.76893e-05
4.73015e-05
4.66514e-05
4.57282e-05
4.49645e-05
4.40663e-05
4.31416e-05
4.19824e-05
4.11941e-05
4.07401e-05
4.04504e-05
4.02783e-05
4.01576e-05
4.00288e-05
3.99258e-05
3.98478e-05
3.98347e-05
3.98996e-05
4.00506e-05
4.02839e-05
4.05821e-05
4.09293e-05
4.13041e-05
4.1691e-05
4.20764e-05
4.24671e-05
4.28234e-05
4.31204e-05
4.33828e-05
4.36223e-05
4.38542e-05
4.40433e-05
4.41771e-05
4.42775e-05
4.43348e-05
4.43535e-05
4.43303e-05
4.42668e-05
4.41624e-05
4.40181e-05
4.38341e-05
4.36116e-05
4.33513e-05
4.30536e-05
4.27182e-05
4.23439e-05
4.19274e-05
4.1464e-05
4.09473e-05
4.03711e-05
3.97318e-05
3.90319e-05
3.82735e-05
3.73546e-05
3.61507e-05
3.4664e-05
3.29962e-05
3.13418e-05
3.00632e-05
3.06714e-05
3.25838e-05
3.51047e-05
3.69314e-05
3.74461e-05
3.73663e-05
3.65414e-05
3.32803e-05
2.88967e-05
2.37051e-05
1.81263e-05
1.17568e-05
4.12468e-06
4.69419e-08
4.49774e-07
1.74481e-05
3.63297e-05
4.60466e-05
4.99594e-05
5.08055e-05
5.03535e-05
4.95616e-05
4.86147e-05
4.7471e-05
4.66554e-05
4.55621e-05
4.4505e-05
4.31668e-05
4.2103e-05
4.14e-05
4.09453e-05
4.06165e-05
4.03798e-05
4.01894e-05
4.00409e-05
3.99692e-05
3.99831e-05
4.01061e-05
4.03315e-05
4.06488e-05
4.1037e-05
4.14727e-05
4.1936e-05
4.24079e-05
4.28754e-05
4.33278e-05
4.37572e-05
4.41515e-05
4.45195e-05
4.48422e-05
4.5135e-05
4.53694e-05
4.55986e-05
4.5795e-05
4.59257e-05
4.60179e-05
4.60646e-05
4.60647e-05
4.60181e-05
4.59238e-05
4.57821e-05
4.55936e-05
4.53593e-05
4.50811e-05
4.47609e-05
4.44004e-05
4.40008e-05
4.35613e-05
4.30784e-05
4.2545e-05
4.19503e-05
4.12805e-05
4.05238e-05
3.96776e-05
3.87579e-05
3.77497e-05
3.64821e-05
3.48671e-05
3.30515e-05
3.12011e-05
2.96934e-05
2.96432e-05
3.15172e-05
3.41035e-05
3.58902e-05
3.6259e-05
3.60425e-05
3.43399e-05
3.06197e-05
2.5582e-05
1.9726e-05
1.30221e-05
4.98883e-06
6.13982e-08
5.31265e-07
1.91927e-05
3.90633e-05
4.89433e-05
5.26395e-05
5.31317e-05
5.22743e-05
5.09792e-05
4.95455e-05
4.86018e-05
4.71437e-05
4.59461e-05
4.44226e-05
4.3105e-05
4.21238e-05
4.14572e-05
4.0981e-05
4.0621e-05
4.03596e-05
4.01797e-05
4.01008e-05
4.01451e-05
4.03127e-05
4.06025e-05
4.09907e-05
4.14547e-05
4.19679e-05
4.2508e-05
4.30571e-05
4.3601e-05
4.41302e-05
4.46371e-05
4.51167e-05
4.55651e-05
4.59826e-05
4.63713e-05
4.67371e-05
4.70214e-05
4.72562e-05
4.75128e-05
4.7707e-05
4.78326e-05
4.79162e-05
4.79433e-05
4.7917e-05
4.7834e-05
4.76944e-05
4.7498e-05
4.72459e-05
4.69402e-05
4.65841e-05
4.61817e-05
4.57373e-05
4.52545e-05
4.47352e-05
4.41772e-05
4.35726e-05
4.29059e-05
4.21541e-05
4.12905e-05
4.02953e-05
3.91747e-05
3.79355e-05
3.65304e-05
3.48825e-05
3.29384e-05
3.09811e-05
2.92212e-05
2.87758e-05
3.05572e-05
3.32458e-05
3.47693e-05
3.48638e-05
3.44914e-05
3.17902e-05
2.72746e-05
2.14993e-05
1.4577e-05
5.98907e-06
8.44307e-08
6.1295e-07
2.08027e-05
4.15239e-05
5.15473e-05
5.50174e-05
5.51584e-05
5.37974e-05
5.21296e-05
5.08455e-05
4.90012e-05
4.75507e-05
4.58261e-05
4.42483e-05
4.29785e-05
4.20545e-05
4.13988e-05
4.09121e-05
4.05597e-05
4.03374e-05
4.0245e-05
4.02999e-05
4.05028e-05
4.08381e-05
4.12846e-05
4.18108e-05
4.23909e-05
4.30004e-05
4.36211e-05
4.42397e-05
4.48465e-05
4.54352e-05
4.60013e-05
4.65417e-05
4.70538e-05
4.75358e-05
4.79844e-05
4.84117e-05
4.8801e-05
4.90554e-05
4.93297e-05
4.96226e-05
4.97811e-05
4.99075e-05
4.99662e-05
4.99644e-05
4.98967e-05
4.97623e-05
4.956e-05
4.929e-05
4.8954e-05
4.8555e-05
4.80981e-05
4.75897e-05
4.70377e-05
4.64499e-05
4.58323e-05
4.51864e-05
4.45059e-05
4.37732e-05
4.2957e-05
4.20138e-05
4.08986e-05
3.96189e-05
3.81689e-05
3.63839e-05
3.46179e-05
3.26853e-05
3.06206e-05
2.86447e-05
2.80105e-05
2.97316e-05
3.23472e-05
3.36972e-05
3.32175e-05
3.22169e-05
2.84487e-05
2.30569e-05
1.6167e-05
7.01825e-06
1.14001e-07
6.93213e-07
2.22278e-05
4.37083e-05
5.3897e-05
5.70637e-05
5.66742e-05
5.50641e-05
5.33381e-05
5.12203e-05
4.94068e-05
4.74582e-05
4.56013e-05
4.40206e-05
4.28026e-05
4.19172e-05
4.12749e-05
4.0813e-05
4.05208e-05
4.0398e-05
4.0445e-05
4.06615e-05
4.10277e-05
4.15149e-05
4.20925e-05
4.27292e-05
4.34013e-05
4.40894e-05
4.47804e-05
4.54649e-05
4.61368e-05
4.67918e-05
4.74263e-05
4.80374e-05
4.86216e-05
4.91754e-05
4.96947e-05
5.0181e-05
5.06457e-05
5.09784e-05
5.12701e-05
5.1629e-05
5.18437e-05
5.20093e-05
5.21045e-05
5.21312e-05
5.20846e-05
5.19623e-05
5.17619e-05
5.1482e-05
5.11227e-05
5.06858e-05
5.01753e-05
4.95978e-05
4.89627e-05
4.82815e-05
4.75672e-05
4.68314e-05
4.6081e-05
4.53135e-05
4.45111e-05
4.36357e-05
4.26269e-05
4.14093e-05
4.00117e-05
3.83743e-05
3.61556e-05
3.41955e-05
3.22776e-05
3.00891e-05
2.7927e-05
2.73662e-05
2.90141e-05
3.12228e-05
3.21408e-05
3.1374e-05
2.89891e-05
2.42047e-05
1.75829e-05
7.94494e-06
1.48254e-07
7.70369e-07
2.35017e-05
4.56188e-05
5.58219e-05
5.86096e-05
5.80701e-05
5.64736e-05
5.41577e-05
5.16198e-05
4.9403e-05
4.72432e-05
4.53191e-05
4.37634e-05
4.25943e-05
4.17452e-05
4.11409e-05
4.07484e-05
4.05641e-05
4.05811e-05
4.0788e-05
4.11648e-05
4.16777e-05
4.22923e-05
4.29767e-05
4.37039e-05
4.44547e-05
4.5215e-05
4.59757e-05
4.67304e-05
4.74745e-05
4.82039e-05
4.89145e-05
4.96022e-05
5.0262e-05
5.08892e-05
5.14785e-05
5.20252e-05
5.25601e-05
5.29699e-05
5.32883e-05
5.36871e-05
5.39671e-05
5.41677e-05
5.43008e-05
5.43589e-05
5.43389e-05
5.42369e-05
5.40493e-05
5.3773e-05
5.34058e-05
5.29472e-05
5.23985e-05
5.17644e-05
5.10527e-05
5.02757e-05
4.94492e-05
4.85919e-05
4.77223e-05
4.68545e-05
4.59915e-05
4.51174e-05
4.41884e-05
4.31267e-05
4.18218e-05
4.03235e-05
3.82904e-05
3.58298e-05
3.36455e-05
3.17e-05
2.93169e-05
2.69427e-05
2.68166e-05
2.85589e-05
3.00253e-05
3.01408e-05
2.90284e-05
2.49166e-05
1.86857e-05
8.69478e-06
1.85571e-07
8.41499e-07
2.45877e-05
4.71536e-05
5.7308e-05
5.98518e-05
5.94961e-05
5.73103e-05
5.44598e-05
5.18457e-05
4.92607e-05
4.69568e-05
4.50104e-05
4.34943e-05
4.23749e-05
4.1576e-05
4.10442e-05
4.0761e-05
4.07158e-05
4.08883e-05
4.12521e-05
4.17724e-05
4.241e-05
4.31305e-05
4.3905e-05
4.47122e-05
4.55376e-05
4.63712e-05
4.72063e-05
4.80375e-05
4.88602e-05
4.9669e-05
5.04585e-05
5.12227e-05
5.19555e-05
5.26511e-05
5.33037e-05
5.39084e-05
5.45011e-05
5.4976e-05
5.53161e-05
5.57455e-05
5.6083e-05
5.63148e-05
5.6483e-05
5.65729e-05
5.6583e-05
5.65084e-05
5.63446e-05
5.60868e-05
5.57305e-05
5.52724e-05
5.47105e-05
5.40455e-05
5.32817e-05
5.24284e-05
5.15004e-05
5.0518e-05
4.95065e-05
4.84923e-05
4.74977e-05
4.65328e-05
4.55846e-05
4.46054e-05
4.35024e-05
4.21314e-05
4.0422e-05
3.7967e-05
3.53272e-05
3.29779e-05
3.09246e-05
2.82042e-05
2.5754e-05
2.61425e-05
2.80391e-05
2.90921e-05
2.79737e-05
2.51434e-05
1.94298e-05
9.2639e-06
2.24754e-07
9.04039e-07
2.5458e-05
4.831e-05
5.84261e-05
6.10835e-05
6.05238e-05
5.80144e-05
5.48546e-05
5.18131e-05
4.90275e-05
4.66344e-05
4.4696e-05
4.32289e-05
4.21677e-05
4.14423e-05
4.10156e-05
4.08681e-05
4.09742e-05
4.12993e-05
4.18047e-05
4.24487e-05
4.31921e-05
4.40038e-05
4.48598e-05
4.5744e-05
4.66454e-05
4.75565e-05
4.84711e-05
4.93834e-05
5.02869e-05
5.11748e-05
5.20397e-05
5.28742e-05
5.36714e-05
5.44249e-05
5.51292e-05
5.57798e-05
5.64143e-05
5.69445e-05
5.72955e-05
5.77422e-05
5.81261e-05
5.8383e-05
5.85805e-05
5.86998e-05
5.87406e-05
5.86977e-05
5.85659e-05
5.83395e-05
5.8012e-05
5.75772e-05
5.70297e-05
5.63656e-05
5.55844e-05
5.46898e-05
5.3692e-05
5.26084e-05
5.14648e-05
5.02934e-05
4.91299e-05
4.80054e-05
4.69368e-05
4.59125e-05
4.48781e-05
4.3723e-05
4.22704e-05
4.02347e-05
3.74407e-05
3.46454e-05
3.22e-05
2.99225e-05
2.6906e-05
2.48369e-05
2.54855e-05
2.67121e-05
2.69093e-05
2.50647e-05
1.98238e-05
9.61971e-06
2.65713e-07
9.56581e-07
2.61185e-05
4.91379e-05
5.9304e-05
6.20011e-05
6.12578e-05
5.83172e-05
5.49769e-05
5.16777e-05
4.87403e-05
4.62999e-05
4.43905e-05
4.29817e-05
4.19934e-05
4.13663e-05
4.10679e-05
4.10669e-05
4.13218e-05
4.17866e-05
4.24159e-05
4.31666e-05
4.40027e-05
4.48976e-05
4.58324e-05
4.67947e-05
4.77756e-05
4.8768e-05
4.97647e-05
5.0758e-05
5.17395e-05
5.27004e-05
5.36317e-05
5.45253e-05
5.53737e-05
5.61709e-05
5.69119e-05
5.7593e-05
5.82497e-05
5.88255e-05
5.91804e-05
5.96237e-05
6.00432e-05
6.03173e-05
6.05361e-05
6.06799e-05
6.07488e-05
6.07383e-05
6.06431e-05
6.04567e-05
6.01715e-05
5.97792e-05
5.92711e-05
5.86391e-05
5.78771e-05
5.69823e-05
5.59579e-05
5.48148e-05
5.35738e-05
5.22665e-05
5.09343e-05
4.96229e-05
4.8374e-05
4.72104e-05
4.61193e-05
4.50326e-05
4.38055e-05
4.21718e-05
3.96254e-05
3.66767e-05
3.3815e-05
3.12586e-05
2.8571e-05
2.52229e-05
2.41368e-05
2.51214e-05
2.58315e-05
2.4382e-05
1.98677e-05
9.77822e-06
3.07987e-07
9.98368e-07
2.65719e-05
4.96919e-05
5.99012e-05
6.26881e-05
6.17967e-05
5.87054e-05
5.49954e-05
5.14739e-05
4.84263e-05
4.59699e-05
4.41047e-05
4.2765e-05
4.18667e-05
4.13575e-05
4.11988e-05
4.13431e-05
4.17361e-05
4.23251e-05
4.30627e-05
4.39078e-05
4.48289e-05
4.58041e-05
4.68182e-05
4.78609e-05
4.89237e-05
4.99982e-05
5.10754e-05
5.21451e-05
5.31968e-05
5.42201e-05
5.52052e-05
5.61436e-05
5.70283e-05
5.78538e-05
5.86164e-05
5.93136e-05
5.99672e-05
6.05674e-05
6.09418e-05
6.1354e-05
6.17987e-05
6.20812e-05
6.23122e-05
6.24735e-05
6.25655e-05
6.25847e-05
6.25262e-05
6.23836e-05
6.21488e-05
6.18121e-05
6.13624e-05
6.07881e-05
6.00779e-05
5.92226e-05
5.82173e-05
5.7064e-05
5.57747e-05
5.43745e-05
5.29025e-05
5.14106e-05
4.99568e-05
4.85937e-05
4.73508e-05
4.62147e-05
4.51093e-05
4.3877e-05
4.17638e-05
3.87423e-05
3.57807e-05
3.27816e-05
3.00632e-05
2.6738e-05
2.35317e-05
2.32546e-05
2.36215e-05
2.33744e-05
1.97544e-05
9.92208e-06
3.54529e-07
1.02927e-06
2.68351e-05
5.00035e-05
6.02421e-05
6.32003e-05
6.20507e-05
5.88365e-05
5.49206e-05
5.12271e-05
4.81044e-05
4.56555e-05
4.38467e-05
4.25878e-05
4.17948e-05
4.14151e-05
4.13971e-05
4.16782e-05
4.21958e-05
4.2895e-05
4.37291e-05
4.46608e-05
4.56632e-05
4.67181e-05
4.78127e-05
4.89371e-05
5.00814e-05
5.12354e-05
5.23872e-05
5.35246e-05
5.46353e-05
5.5708e-05
5.67326e-05
5.77009e-05
5.86068e-05
5.94461e-05
6.02162e-05
6.09163e-05
6.15493e-05
6.21559e-05
6.25542e-05
6.29164e-05
6.33753e-05
6.36579e-05
6.38919e-05
6.40625e-05
6.41706e-05
6.42138e-05
6.41884e-05
6.40886e-05
6.39064e-05
6.36316e-05
6.32519e-05
6.27529e-05
6.21195e-05
6.13366e-05
6.03915e-05
5.92766e-05
5.79931e-05
5.6555e-05
5.4993e-05
5.33559e-05
5.17082e-05
5.01211e-05
4.86553e-05
4.73379e-05
4.61353e-05
4.49298e-05
4.3495e-05
4.08981e-05
3.77119e-05
3.46532e-05
3.14091e-05
2.84213e-05
2.44697e-05
2.24964e-05
2.25438e-05
2.26429e-05
1.96368e-05
1.02811e-05
4.14412e-07
1.0498e-06
2.69326e-05
5.00606e-05
6.02964e-05
6.33733e-05
6.23314e-05
5.8876e-05
5.47818e-05
5.09571e-05
4.7788e-05
4.53643e-05
4.36223e-05
4.24551e-05
4.17781e-05
4.15316e-05
4.16485e-05
4.20547e-05
4.26841e-05
4.34819e-05
4.44043e-05
4.54179e-05
4.65e-05
4.76347e-05
4.881e-05
5.00148e-05
5.12373e-05
5.24644e-05
5.3682e-05
5.4876e-05
5.6033e-05
5.71414e-05
5.81915e-05
5.9176e-05
6.00896e-05
6.09295e-05
6.16941e-05
6.23834e-05
6.29983e-05
6.35903e-05
6.40123e-05
6.43135e-05
6.47712e-05
6.50486e-05
6.52766e-05
6.54479e-05
6.55638e-05
6.56235e-05
6.56245e-05
6.55622e-05
6.54295e-05
6.52165e-05
6.49106e-05
6.44961e-05
6.39551e-05
6.32679e-05
6.24153e-05
6.13806e-05
6.01535e-05
5.87349e-05
5.71424e-05
5.54146e-05
5.36136e-05
5.18207e-05
5.01238e-05
4.85947e-05
4.72607e-05
4.60762e-05
4.48983e-05
4.28255e-05
3.96592e-05
3.65571e-05
3.32191e-05
2.9685e-05
2.60497e-05
2.22082e-05
2.12572e-05
2.10752e-05
1.93294e-05
1.09206e-05
4.95247e-07
1.05999e-06
2.68607e-05
4.98584e-05
6.02265e-05
6.35105e-05
6.23723e-05
5.88235e-05
5.45988e-05
5.0679e-05
4.74866e-05
4.51012e-05
4.34346e-05
4.23676e-05
4.1812e-05
4.16961e-05
4.19385e-05
4.24582e-05
4.31882e-05
4.4076e-05
4.50809e-05
4.61737e-05
4.73343e-05
4.8548e-05
4.98021e-05
5.10836e-05
5.23779e-05
5.36695e-05
5.49422e-05
5.61808e-05
5.73716e-05
5.85032e-05
5.95668e-05
6.0556e-05
6.1467e-05
6.2298e-05
6.30487e-05
6.37201e-05
6.43141e-05
6.48721e-05
6.53136e-05
6.55785e-05
6.59924e-05
6.62678e-05
6.64819e-05
6.66455e-05
6.67605e-05
6.68278e-05
6.68464e-05
6.68132e-05
6.67227e-05
6.65661e-05
6.63312e-05
6.60022e-05
6.55598e-05
6.49816e-05
6.4243e-05
6.33197e-05
6.21909e-05
6.08439e-05
5.92804e-05
5.75235e-05
5.56234e-05
5.36586e-05
5.17286e-05
4.99342e-05
4.83464e-05
4.697e-05
4.57141e-05
4.43704e-05
4.16292e-05
3.82645e-05
3.5012e-05
3.1435e-05
2.76046e-05
2.31318e-05
2.08438e-05
1.96485e-05
1.88429e-05
1.16046e-05
5.96645e-07
1.05932e-06
2.66882e-05
4.96026e-05
6.00055e-05
6.35114e-05
6.23101e-05
5.87009e-05
5.43877e-05
5.04039e-05
4.72067e-05
4.48693e-05
4.32846e-05
4.23231e-05
4.18893e-05
4.18975e-05
4.22549e-05
4.28772e-05
4.36988e-05
4.46698e-05
4.57532e-05
4.69227e-05
4.81601e-05
4.94505e-05
5.07795e-05
5.21315e-05
5.34895e-05
5.48356e-05
5.61526e-05
5.74245e-05
5.86381e-05
5.97826e-05
6.08503e-05
6.18363e-05
6.27379e-05
6.35545e-05
6.42871e-05
6.49379e-05
6.55108e-05
6.60199e-05
6.64614e-05
6.67272e-05
6.70686e-05
6.73389e-05
6.7533e-05
6.76813e-05
6.7787e-05
6.78524e-05
6.78785e-05
6.78642e-05
6.78055e-05
6.76955e-05
6.75234e-05
6.72743e-05
6.69287e-05
6.64628e-05
6.58489e-05
6.50568e-05
6.40568e-05
6.28237e-05
6.13432e-05
5.962e-05
5.76867e-05
5.56106e-05
5.34932e-05
5.14576e-05
4.96193e-05
4.80456e-05
4.67153e-05
4.54976e-05
4.33992e-05
4.00134e-05
3.68982e-05
3.30022e-05
2.8942e-05
2.46233e-05
2.07196e-05
1.91391e-05
1.84337e-05
1.22303e-05
7.14325e-07
1.05365e-06
2.64193e-05
4.91745e-05
5.95906e-05
6.32971e-05
6.21441e-05
5.85229e-05
5.4161e-05
5.01402e-05
4.69524e-05
4.46699e-05
4.31714e-05
4.23174e-05
4.20019e-05
4.21256e-05
4.25877e-05
4.33032e-05
4.42089e-05
4.52577e-05
4.64159e-05
4.76596e-05
4.89708e-05
5.03338e-05
5.17318e-05
5.31468e-05
5.45593e-05
5.59501e-05
5.73012e-05
5.85969e-05
5.98245e-05
6.09745e-05
6.20403e-05
6.30184e-05
6.39071e-05
6.47068e-05
6.54192e-05
6.60473e-05
6.6595e-05
6.70665e-05
6.74983e-05
6.7768e-05
6.80315e-05
6.82906e-05
6.84603e-05
6.85866e-05
6.86749e-05
6.87293e-05
6.87525e-05
6.87454e-05
6.87064e-05
6.86306e-05
6.85094e-05
6.83294e-05
6.80722e-05
6.77141e-05
6.72258e-05
6.65735e-05
6.57206e-05
6.46316e-05
6.32771e-05
6.16427e-05
5.97393e-05
5.76142e-05
5.53575e-05
5.30976e-05
5.09785e-05
4.91164e-05
4.75464e-05
4.61772e-05
4.4772e-05
4.18352e-05
3.83709e-05
3.49014e-05
3.06064e-05
2.60574e-05
2.09284e-05
1.86452e-05
1.74249e-05
1.28731e-05
8.3568e-07
1.04114e-06
2.60945e-05
4.84902e-05
5.90535e-05
6.29523e-05
6.18905e-05
5.8302e-05
5.39279e-05
4.98938e-05
4.67266e-05
4.45034e-05
4.30928e-05
4.23452e-05
4.2142e-05
4.23719e-05
4.2929e-05
4.37296e-05
4.47127e-05
4.58346e-05
4.70639e-05
4.83782e-05
4.97591e-05
5.1189e-05
5.2649e-05
5.41186e-05
5.55767e-05
5.70031e-05
5.83798e-05
5.96918e-05
6.09274e-05
6.20783e-05
6.31394e-05
6.41079e-05
6.49833e-05
6.57666e-05
6.646e-05
6.70666e-05
6.75899e-05
6.80334e-05
6.84475e-05
6.87201e-05
6.8912e-05
6.9153e-05
6.92948e-05
6.93937e-05
6.94575e-05
6.94921e-05
6.95022e-05
6.94907e-05
6.94585e-05
6.94032e-05
6.93185e-05
6.91935e-05
6.90117e-05
6.87506e-05
6.8381e-05
6.78674e-05
6.71689e-05
6.62418e-05
6.50441e-05
6.35437e-05
6.17288e-05
5.96224e-05
5.72945e-05
5.48676e-05
5.25041e-05
5.03689e-05
4.85712e-05
4.71047e-05
4.58128e-05
4.33745e-05
3.98297e-05
3.68075e-05
3.20071e-05
2.73439e-05
2.22164e-05
1.85194e-05
1.63014e-05
1.3362e-05
9.32942e-07
1.0217e-06
2.56744e-05
4.77351e-05
5.84268e-05
6.24886e-05
6.1562e-05
5.80481e-05
5.36959e-05
4.96691e-05
4.65309e-05
4.4369e-05
4.30459e-05
4.24008e-05
4.23024e-05
4.26291e-05
4.32726e-05
4.41507e-05
4.52055e-05
4.63957e-05
4.76919e-05
4.90722e-05
5.05173e-05
5.20075e-05
5.35218e-05
5.50377e-05
5.65331e-05
5.79875e-05
5.93834e-05
6.07067e-05
6.19468e-05
6.30969e-05
6.41529e-05
6.51131e-05
6.59775e-05
6.67478e-05
6.74264e-05
6.80163e-05
6.85213e-05
6.89457e-05
6.93272e-05
6.95882e-05
6.97421e-05
6.9954e-05
7.00651e-05
7.01321e-05
7.01655e-05
7.01726e-05
7.016e-05
7.0133e-05
7.00949e-05
7.00458e-05
6.99825e-05
6.98967e-05
6.97746e-05
6.95958e-05
6.93325e-05
6.89491e-05
6.84025e-05
6.76438e-05
6.66212e-05
6.52871e-05
6.36081e-05
6.15801e-05
5.92454e-05
5.67066e-05
5.41258e-05
5.16963e-05
4.95839e-05
4.78518e-05
4.6407e-05
4.46645e-05
4.12027e-05
3.82554e-05
3.39508e-05
2.88426e-05
2.35649e-05
1.89589e-05
1.56637e-05
1.35555e-05
9.77454e-07
9.96406e-07
2.51501e-05
4.68675e-05
5.77048e-05
6.19285e-05
6.11709e-05
5.77695e-05
5.34702e-05
4.9469e-05
4.63662e-05
4.42657e-05
4.30272e-05
4.24791e-05
4.2477e-05
4.28914e-05
4.36131e-05
4.4562e-05
4.56826e-05
4.6936e-05
4.82942e-05
4.97351e-05
5.1238e-05
5.27815e-05
5.43423e-05
5.58969e-05
5.74225e-05
5.8899e-05
6.03095e-05
6.16411e-05
6.28848e-05
6.40346e-05
6.50876e-05
6.60428e-05
6.69007e-05
6.76631e-05
6.83325e-05
6.89117e-05
6.94046e-05
6.98158e-05
7.01566e-05
7.04016e-05
7.05368e-05
7.07158e-05
7.07945e-05
7.08266e-05
7.08247e-05
7.07977e-05
7.07541e-05
7.07015e-05
7.06455e-05
7.05893e-05
7.05323e-05
7.04696e-05
7.03903e-05
7.02769e-05
7.01038e-05
6.98369e-05
6.94329e-05
6.88399e-05
6.79994e-05
6.68517e-05
6.53442e-05
6.34467e-05
6.11706e-05
5.85902e-05
5.58541e-05
5.31723e-05
5.07638e-05
4.87706e-05
4.71721e-05
4.57438e-05
4.27472e-05
3.95352e-05
3.59065e-05
3.00822e-05
2.46341e-05
1.89339e-05
1.57907e-05
1.35434e-05
9.8507e-07
9.66687e-07
2.45915e-05
4.5913e-05
5.68941e-05
6.12884e-05
6.07281e-05
5.74729e-05
5.32548e-05
4.92953e-05
4.62324e-05
4.41917e-05
4.30333e-05
4.25751e-05
4.26605e-05
4.31539e-05
4.39461e-05
4.49591e-05
4.61397e-05
4.74509e-05
4.88654e-05
5.03607e-05
5.19146e-05
5.35039e-05
5.5104e-05
5.66905e-05
5.82406e-05
5.97348e-05
6.11573e-05
6.24965e-05
6.37444e-05
6.48963e-05
6.59499e-05
6.69048e-05
6.77618e-05
6.85223e-05
6.91884e-05
6.97625e-05
7.02473e-05
7.06461e-05
7.09628e-05
7.11882e-05
7.13073e-05
7.14538e-05
7.14999e-05
7.14952e-05
7.14543e-05
7.1388e-05
7.13065e-05
7.12194e-05
7.11351e-05
7.10595e-05
7.0995e-05
7.094e-05
7.08869e-05
7.08214e-05
7.0721e-05
7.0554e-05
7.02783e-05
6.98413e-05
6.91808e-05
6.82279e-05
6.69149e-05
6.51875e-05
6.30252e-05
6.04669e-05
5.76341e-05