/*--------------------------------*- C++ -*----------------------------------*\
  =========                 |
  \\      /  F ield         | OpenFOAM: The Open Source CFD Toolbox
   \\    /   O peration     | Website:  https://openfoam.org
    \\  /    A nd           | Version:  13
     \\/     M anipulation  |
\*---------------------------------------------------------------------------*/
FoamFile
{
    format      ascii;
    class       volVectorField;
    location    "7.7";
    object      U;
}
// * * * * * * * * * * * * * * * * * * * * * * * * * * * * * * * * * * * * * //

dimensions      [0 1 -1 0 0 0 0];

internalField   nonuniform List<vector> 
6400
(
(-0.000125287 8.2352e-05 0)
(0.000447513 -0.000173934 0)
(0.00209673 -0.000435364 0)
(0.00427317 -0.000551136 0)
(0.00643732 -0.000486057 0)
(0.00824144 -0.000324842 0)
(0.00944137 -0.000131205 0)
(0.0100422 1.3817e-05 0)
(0.0101708 6.72648e-05 0)
(0.0100672 4.50555e-05 0)
(0.00985661 -3.33068e-05 0)
(0.0097049 -0.000139759 0)
(0.00967608 -0.0002497 0)
(0.00976844 -0.000338985 0)
(0.00993372 -0.000410836 0)
(0.0100942 -0.000463422 0)
(0.0101764 -0.000496576 0)
(0.0101286 -0.000498586 0)
(0.00990802 -0.000479408 0)
(0.00942066 -0.000438837 0)
(0.00862935 -0.000390403 0)
(0.00747472 -0.000340939 0)
(0.00591491 -0.000294419 0)
(0.00392189 -0.000276488 0)
(0.00146304 -0.000324931 0)
(-0.00143741 -0.000442025 0)
(-0.00481196 -0.000486053 0)
(-0.00888542 -0.000302062 0)
(-0.0137733 0.00022441 0)
(-0.0194986 0.00109846 0)
(-0.0268154 0.0021401 0)
(-0.0349441 0.00302336 0)
(-0.0437465 0.00373553 0)
(-0.0529143 0.00426348 0)
(-0.0621922 0.004613 0)
(-0.0713444 0.00479824 0)
(-0.0801857 0.00484368 0)
(-0.0885599 0.00477259 0)
(-0.0963508 0.00460728 0)
(-0.103459 0.00436561 0)
(-0.10981 0.00405954 0)
(-0.11534 0.0036978 0)
(-0.120005 0.00328289 0)
(-0.123782 0.00281891 0)
(-0.126639 0.0023189 0)
(-0.128383 0.00184215 0)
(-0.129122 0.00140677 0)
(-0.129038 0.000696385 0)
(-0.127549 0.000140613 0)
(-0.125144 -0.000544976 0)
(-0.121449 -0.00118412 0)
(-0.116675 -0.00185181 0)
(-0.110685 -0.00249007 0)
(-0.103591 -0.00311526 0)
(-0.0954185 -0.00372303 0)
(-0.0862674 -0.00430794 0)
(-0.0761498 -0.00481891 0)
(-0.0652581 -0.00525231 0)
(-0.0537483 -0.00557734 0)
(-0.0418314 -0.00576011 0)
(-0.0297497 -0.00576589 0)
(-0.0177866 -0.00558054 0)
(-0.00618648 -0.00520234 0)
(0.00460912 -0.0046909 0)
(0.014274 -0.00393199 0)
(0.022597 -0.00299899 0)
(0.0292591 -0.00193519 0)
(0.0339792 -0.000783386 0)
(0.0367801 0.000376889 0)
(0.0370496 0.00159544 0)
(0.0356344 0.00225713 0)
(0.0321044 0.00284243 0)
(0.0268263 0.00304331 0)
(0.0207003 0.00274752 0)
(0.0144986 0.00205497 0)
(0.0090309 0.00121802 0)
(0.00474246 0.000531912 0)
(0.00178712 0.000122412 0)
(0.000151024 -0.000168689 0)
(-0.000236837 -0.000346258 0)
(1.67858e-05 -0.000385842 0)
(0.00182031 -0.00210818 0)
(0.00524785 -0.00354197 0)
(0.00906918 -0.00402486 0)
(0.0125883 -0.00363993 0)
(0.0153894 -0.00276843 0)
(0.0172959 -0.0017058 0)
(0.0183361 -0.00074008 0)
(0.018634 -5.47239e-05 0)
(0.0183508 0.000319688 0)
(0.0176845 0.000425422 0)
(0.0168027 0.000345437 0)
(0.0157907 0.000200229 0)
(0.0146415 0.000100894 0)
(0.0132841 0.000110124 0)
(0.0116176 0.00024089 0)
(0.00955716 0.000472637 0)
(0.00703373 0.000792717 0)
(0.00393445 0.00121683 0)
(0.000153263 0.0017556 0)
(-0.00441946 0.00241335 0)
(-0.0100182 0.00320849 0)
(-0.0167259 0.00410475 0)
(-0.0246121 0.00509315 0)
(-0.0337232 0.00619133 0)
(-0.0441624 0.00740495 0)
(-0.0558208 0.00876104 0)
(-0.0683507 0.0102564 0)
(-0.0813736 0.0118315 0)
(-0.094362 0.0133149 0)
(-0.106792 0.0144098 0)
(-0.118865 0.0150877 0)
(-0.130291 0.0153562 0)
(-0.140989 0.0152408 0)
(-0.150861 0.014812 0)
(-0.159841 0.01412 0)
(-0.167889 0.0132215 0)
(-0.174971 0.0121608 0)
(-0.181075 0.010976 0)
(-0.186184 0.00969531 0)
(-0.190287 0.00833628 0)
(-0.193381 0.0069155 0)
(-0.195458 0.00543934 0)
(-0.196513 0.00391928 0)
(-0.196536 0.00236453 0)
(-0.195492 0.000784179 0)
(-0.193391 -0.000843132 0)
(-0.190241 -0.00255661 0)
(-0.185963 -0.00430441 0)
(-0.18063 -0.00609078 0)
(-0.174166 -0.00789451 0)
(-0.166611 -0.00970056 0)
(-0.157933 -0.0114862 0)
(-0.148161 -0.0132207 0)
(-0.137301 -0.0148702 0)
(-0.125433 -0.0163834 0)
(-0.112669 -0.0177254 0)
(-0.0991088 -0.0188361 0)
(-0.0849295 -0.0196443 0)
(-0.0703488 -0.0200996 0)
(-0.0555771 -0.0201362 0)
(-0.0408732 -0.019712 0)
(-0.0265225 -0.018803 0)
(-0.0128389 -0.0174247 0)
(-0.000105463 -0.0155256 0)
(0.0114131 -0.0131585 0)
(0.0214368 -0.0103642 0)
(0.0297217 -0.00725178 0)
(0.0361024 -0.00389972 0)
(0.0403941 -0.000493249 0)
(0.0425856 0.00272165 0)
(0.042545 0.00567704 0)
(0.0403682 0.00810182 0)
(0.0362628 0.00969561 0)
(0.0303126 0.00990489 0)
(0.0229702 0.00896442 0)
(0.0152464 0.00712568 0)
(0.00825389 0.00481558 0)
(0.00307651 0.0023338 0)
(0.000228243 0.00028277 0)
(0.000206334 -0.00164302 0)
(0.00321541 -0.00540983 0)
(0.00749897 -0.0076463 0)
(0.0114972 -0.00791224 0)
(0.0147746 -0.00680649 0)
(0.0171248 -0.00499431 0)
(0.0185767 -0.00304738 0)
(0.0191903 -0.00129166 0)
(0.0190425 9.21245e-05 0)
(0.0182369 0.00102291 0)
(0.0169179 0.00153345 0)
(0.0151609 0.00176792 0)
(0.0129818 0.00192022 0)
(0.0103427 0.00216296 0)
(0.00715303 0.00260371 0)
(0.00331466 0.00326681 0)
(-0.00130134 0.00414647 0)
(-0.00685282 0.00525385 0)
(-0.0134673 0.00661294 0)
(-0.0212653 0.00825753 0)
(-0.0303306 0.0101918 0)
(-0.0406368 0.0123535 0)
(-0.0521618 0.0146607 0)
(-0.0647586 0.0169929 0)
(-0.0781732 0.0192248 0)
(-0.0921015 0.0212644 0)
(-0.106173 0.0230138 0)
(-0.120072 0.0244126 0)
(-0.133458 0.0254009 0)
(-0.146077 0.0259571 0)
(-0.157764 0.0260746 0)
(-0.16847 0.0257513 0)
(-0.17813 0.025035 0)
(-0.18681 0.0239608 0)
(-0.194506 0.0225751 0)
(-0.201258 0.0209486 0)
(-0.207088 0.0191278 0)
(-0.212022 0.0171579 0)
(-0.216071 0.0150693 0)
(-0.219249 0.0128971 0)
(-0.221565 0.0106514 0)
(-0.22302 0.00834472 0)
(-0.223611 0.00598488 0)
(-0.22333 0.00357126 0)
(-0.222168 0.00110542 0)
(-0.220107 -0.00141832 0)
(-0.217111 -0.00401608 0)
(-0.21317 -0.00668195 0)
(-0.208258 -0.00938547 0)
(-0.20236 -0.012139 0)
(-0.195446 -0.014918 0)
(-0.18751 -0.017706 0)
(-0.178538 -0.0204708 0)
(-0.16854 -0.0231713 0)
(-0.157532 -0.0257496 0)
(-0.145561 -0.0281344 0)
(-0.132707 -0.0302561 0)
(-0.119062 -0.0320212 0)
(-0.104748 -0.0333331 0)
(-0.0899556 -0.0341003 0)
(-0.0749014 -0.0342349 0)
(-0.0598157 -0.0336589 0)
(-0.0449841 -0.0323365 0)
(-0.0307126 -0.0302749 0)
(-0.0172722 -0.027468 0)
(-0.0048933 -0.023953 0)
(0.0061632 -0.0197987 0)
(0.0156804 -0.0151241 0)
(0.0235284 -0.010082 0)
(0.0295843 -0.00485844 0)
(0.0338193 0.000320974 0)
(0.0362044 0.00522731 0)
(0.0366052 0.00951115 0)
(0.0349437 0.012881 0)
(0.0315215 0.0151575 0)
(0.0264214 0.0157095 0)
(0.0198214 0.0146327 0)
(0.0126191 0.0120034 0)
(0.00590093 0.00794715 0)
(0.000787771 0.0029561 0)
(0.000429366 -0.00361192 0)
(0.00428862 -0.00955678 0)
(0.00866759 -0.0118858 0)
(0.0121713 -0.011356 0)
(0.0146859 -0.00925393 0)
(0.016211 -0.0065151 0)
(0.0168493 -0.00371086 0)
(0.0166938 -0.00118204 0)
(0.0158245 0.00087576 0)
(0.0142977 0.00239577 0)
(0.0121116 0.00346209 0)
(0.00924267 0.00426407 0)
(0.00563939 0.00503418 0)
(0.00123062 0.00597384 0)
(-0.00405773 0.00720207 0)
(-0.0103292 0.00877124 0)
(-0.017705 0.0106979 0)
(-0.026304 0.0129864 0)
(-0.0362048 0.0156258 0)
(-0.0474178 0.0185803 0)
(-0.0598522 0.0217529 0)
(-0.073305 0.024996 0)
(-0.0874829 0.0281313 0)
(-0.102018 0.0309904 0)
(-0.116612 0.0334796 0)
(-0.130917 0.0354122 0)
(-0.144643 0.0366948 0)
(-0.157511 0.0373474 0)
(-0.16936 0.0374337 0)
(-0.180156 0.0370014 0)
(-0.189875 0.0361094 0)
(-0.198579 0.0347971 0)
(-0.206308 0.0331033 0)
(-0.213136 0.0310987 0)
(-0.219101 0.0288298 0)
(-0.224267 0.0263519 0)
(-0.228663 0.0237058 0)
(-0.232321 0.0209337 0)
(-0.235258 0.0180587 0)
(-0.237485 0.0151011 0)
(-0.239006 0.0120722 0)
(-0.239815 0.00897754 0)
(-0.239905 0.00581716 0)
(-0.239258 0.00258857 0)
(-0.237858 -0.000710831 0)
(-0.235678 -0.00408801 0)
(-0.232686 -0.00754502 0)
(-0.228857 -0.0110971 0)
(-0.224157 -0.0147281 0)
(-0.218554 -0.0184309 0)
(-0.212018 -0.0221829 0)
(-0.204524 -0.0259619 0)
(-0.196049 -0.0297299 0)
(-0.186579 -0.033433 0)
(-0.176108 -0.036993 0)
(-0.164654 -0.0403126 0)
(-0.152264 -0.0432933 0)
(-0.139014 -0.0458224 0)
(-0.125 -0.0477575 0)
(-0.110361 -0.0489565 0)
(-0.0952941 -0.049305 0)
(-0.0800128 -0.0486862 0)
(-0.0647764 -0.0470286 0)
(-0.0499033 -0.0443011 0)
(-0.0357433 -0.0405761 0)
(-0.0225499 -0.0359138 0)
(-0.0105611 -0.0304015 0)
(4.73205e-06 -0.0241923 0)
(0.00899233 -0.0175051 0)
(0.0162903 -0.0105808 0)
(0.0218485 -0.00366897 0)
(0.0256801 0.00300237 0)
(0.0278335 0.00912451 0)
(0.0283128 0.0142874 0)
(0.0269865 0.0181487 0)
(0.023895 0.0204055 0)
(0.0192104 0.020618 0)
(0.0133349 0.0186372 0)
(0.00694585 0.0142648 0)
(0.00107819 0.00674791 0)
(0.000711632 -0.0061414 0)
(0.00496586 -0.013935 0)
(0.00881297 -0.0156507 0)
(0.0114396 -0.0139984 0)
(0.0129899 -0.010804 0)
(0.0135416 -0.00712201 0)
(0.0132429 -0.00349752 0)
(0.0121797 -0.000234157 0)
(0.0103877 0.00251683 0)
(0.00785321 0.00474431 0)
(0.00451189 0.00656642 0)
(0.000275333 0.008197 0)
(-0.00494943 0.00987971 0)
(-0.0112512 0.0118183 0)
(-0.0187131 0.0141423 0)
(-0.0274141 0.0169094 0)
(-0.0374132 0.0201258 0)
(-0.0487288 0.0237558 0)
(-0.0612933 0.0276976 0)
(-0.0749274 0.0318045 0)
(-0.0893373 0.0358484 0)
(-0.104166 0.0396316 0)
(-0.119052 0.0430152 0)
(-0.133688 0.0457188 0)
(-0.147688 0.0476193 0)
(-0.160741 0.0487328 0)
(-0.172759 0.0490818 0)
(-0.183688 0.0487258 0)
(-0.193579 0.04777 0)
(-0.202474 0.0463088 0)
(-0.210436 0.0444232 0)
(-0.217553 0.0421818 0)
(-0.22387 0.0396347 0)
(-0.229449 0.0368337 0)
(-0.234339 0.0338211 0)
(-0.238583 0.0306379 0)
(-0.242205 0.0273177 0)
(-0.245229 0.0238907 0)
(-0.24767 0.0203709 0)
(-0.24953 0.0167716 0)
(-0.250808 0.013097 0)
(-0.251495 0.00934813 0)
(-0.25158 0.00551643 0)
(-0.251043 0.00159548 0)
(-0.24987 -0.00242046 0)
(-0.248025 -0.00654227 0)
(-0.245474 -0.010776 0)
(-0.242182 -0.0151307 0)
(-0.238124 -0.0196083 0)
(-0.233244 -0.0241966 0)
(-0.2275 -0.0288704 0)
(-0.220852 -0.0336071 0)
(-0.21326 -0.0383623 0)
(-0.204686 -0.0430737 0)
(-0.195104 -0.0476494 0)
(-0.184498 -0.0519666 0)
(-0.172876 -0.0558995 0)
(-0.160289 -0.0593126 0)
(-0.146798 -0.0620213 0)
(-0.132505 -0.0638417 0)
(-0.117576 -0.0646245 0)
(-0.102198 -0.0641947 0)
(-0.0866264 -0.0624407 0)
(-0.0711061 -0.0592957 0)
(-0.0560094 -0.0547937 0)
(-0.0417518 -0.0490662 0)
(-0.0285913 -0.042249 0)
(-0.016759 -0.0345506 0)
(-0.00646121 -0.0262305 0)
(0.00215752 -0.0175937 0)
(0.00902835 -0.00895473 0)
(0.0141633 -0.00060591 0)
(0.0176314 0.00714773 0)
(0.0195047 0.0139803 0)
(0.0197985 0.0195277 0)
(0.0185205 0.0233414 0)
(0.0156804 0.0249724 0)
(0.0114882 0.0241018 0)
(0.00630473 0.02011 0)
(0.000948151 0.0105624 0)
(0.0010235 -0.00906494 0)
(0.00515059 -0.0179462 0)
(0.00803316 -0.0184413 0)
(0.00953521 -0.0155974 0)
(0.0100172 -0.0113116 0)
(0.00953833 -0.00673373 0)
(0.00824236 -0.00231792 0)
(0.00617246 0.00169633 0)
(0.00331021 0.00521669 0)
(-0.000414101 0.00828159 0)
(-0.00510718 0.0110431 0)
(-0.0108841 0.0137253 0)
(-0.0178473 0.0165618 0)
(-0.0260781 0.01974 0)
(-0.0356311 0.0233699 0)
(-0.0465204 0.0274745 0)
(-0.0586978 0.0319967 0)
(-0.0720335 0.0368369 0)
(-0.0862978 0.0417625 0)
(-0.101124 0.0465176 0)
(-0.116161 0.0509319 0)
(-0.131057 0.0546524 0)
(-0.145351 0.057491 0)
(-0.15869 0.0593864 0)
(-0.170934 0.0603018 0)
(-0.182093 0.0603265 0)
(-0.192216 0.0595877 0)
(-0.201374 0.0582156 0)
(-0.209654 0.0563227 0)
(-0.217114 0.053997 0)
(-0.223826 0.0513142 0)
(-0.229845 0.0483292 0)
(-0.235218 0.045094 0)
(-0.239993 0.0416518 0)
(-0.24421 0.0380362 0)
(-0.247892 0.0342772 0)
(-0.251059 0.030401 0)
(-0.253725 0.0264332 0)
(-0.255901 0.0223816 0)
(-0.257592 0.0182517 0)
(-0.258795 0.0140431 0)
(-0.259504 0.00975261 0)
(-0.259718 0.00536224 0)
(-0.259423 0.000857736 0)
(-0.258625 -0.00378296 0)
(-0.257284 -0.00857114 0)
(-0.255372 -0.0135108 0)
(-0.252835 -0.0185998 0)
(-0.24964 -0.0238473 0)
(-0.24574 -0.0292527 0)
(-0.241065 -0.0347836 0)
(-0.235549 -0.0404137 0)
(-0.229117 -0.0460862 0)
(-0.221705 -0.0517358 0)
(-0.21331 -0.0573069 0)
(-0.203888 -0.0626732 0)
(-0.193343 -0.0676399 0)
(-0.18171 -0.0720567 0)
(-0.169025 -0.0757044 0)
(-0.155308 -0.0783432 0)
(-0.14073 -0.0797928 0)
(-0.125414 -0.0798151 0)
(-0.109613 -0.0782802 0)
(-0.0935778 -0.0750221 0)
(-0.0776087 -0.0700312 0)
(-0.062125 -0.0634106 0)
(-0.0475912 -0.0554257 0)
(-0.0342701 -0.0463086 0)
(-0.0224262 -0.036373 0)
(-0.0122675 -0.0259981 0)
(-0.00391696 -0.0155836 0)
(0.00260379 -0.0055092 0)
(0.00736492 0.00388227 0)
(0.0104949 0.0122681 0)
(0.0121087 0.0193242 0)
(0.012266 0.024623 0)
(0.0109756 0.0276841 0)
(0.0083349 0.0280349 0)
(0.00468891 0.024748 0)
(0.000572974 0.013714 0)
(0.00127396 -0.0121265 0)
(0.0047827 -0.0210781 0)
(0.00635679 -0.0201325 0)
(0.00674173 -0.0160023 0)
(0.00607089 -0.0107278 0)
(0.00452825 -0.00530532 0)
(0.00217932 -9.6865e-05 0)
(-0.000986016 0.00472526 0)
(-0.00503476 0.00912229 0)
(-0.0100718 0.0131701 0)
(-0.0162176 0.0170364 0)
(-0.023584 0.0209367 0)
(-0.0322561 0.025078 0)
(-0.0422784 0.0296094 0)
(-0.0536419 0.0345897 0)
(-0.0662548 0.0399733 0)
(-0.0799687 0.0456218 0)
(-0.0944796 0.0512864 0)
(-0.109397 0.0567462 0)
(-0.124385 0.0616303 0)
(-0.138972 0.065664 0)
(-0.152677 0.0686438 0)
(-0.1653 0.0704874 0)
(-0.176815 0.0712484 0)
(-0.187283 0.0710666 0)
(-0.196775 0.0700819 0)
(-0.205381 0.0684249 0)
(-0.213186 0.0662183 0)
(-0.220262 0.0635598 0)
(-0.22666 0.0605305 0)
(-0.232434 0.0571962 0)
(-0.237621 0.0536041 0)
(-0.242264 0.0497989 0)
(-0.246395 0.0458168 0)
(-0.250042 0.0416895 0)
(-0.253223 0.0374438 0)
(-0.255952 0.0331064 0)
(-0.258237 0.0286945 0)
(-0.260093 0.02421 0)
(-0.261519 0.0196573 0)
(-0.262559 0.0149707 0)
(-0.263179 0.010223 0)
(-0.263379 0.00537459 0)
(-0.263141 0.000417068 0)
(-0.262455 -0.00467501 0)
(-0.261357 -0.00991999 0)
(-0.259825 -0.0153435 0)
(-0.257872 -0.0209776 0)
(-0.255452 -0.0268431 0)
(-0.252562 -0.0329824 0)
(-0.249135 -0.0393094 0)
(-0.245082 -0.0458188 0)
(-0.240316 -0.0524725 0)
(-0.234727 -0.0592037 0)
(-0.228141 -0.0658805 0)
(-0.220411 -0.0723309 0)
(-0.211421 -0.0783553 0)
(-0.201167 -0.0838191 0)
(-0.189793 -0.0885933 0)
(-0.177106 -0.0922756 0)
(-0.1633 -0.0946642 0)
(-0.148407 -0.0954336 0)
(-0.132695 -0.0944155 0)
(-0.116349 -0.0913834 0)
(-0.0997228 -0.0862838 0)
(-0.0831209 -0.0791033 0)
(-0.0671007 -0.0701108 0)
(-0.0521617 -0.0596874 0)
(-0.0385849 -0.0481747 0)
(-0.0266634 -0.0360234 0)
(-0.0166081 -0.023734 0)
(-0.00851535 -0.0117999 0)
(-0.00235867 -0.000659199 0)
(0.00201334 0.00932849 0)
(0.00480003 0.0178531 0)
(0.00615027 0.0245497 0)
(0.00615199 0.0289669 0)
(0.00487157 0.0304936 0)
(0.00269714 0.0279109 0)
(0.000106236 0.0157153 0)
(0.00137148 -0.0149814 0)
(0.00375913 -0.0230604 0)
(0.00409777 -0.0205815 0)
(0.00324319 -0.015193 0)
(0.00142709 -0.00903432 0)
(-0.00120743 -0.00279829 0)
(-0.00466039 0.0032329 0)
(-0.00898914 0.00894098 0)
(-0.0142931 0.0143236 0)
(-0.0206871 0.0194756 0)
(-0.0282817 0.0245616 0)
(-0.0371638 0.0297711 0)
(-0.0473765 0.0352653 0)
(-0.0589035 0.0411278 0)
(-0.0716492 0.0473506 0)
(-0.0854324 0.053785 0)
(-0.0999118 0.0601725 0)
(-0.114726 0.0662375 0)
(-0.12943 0.0715995 0)
(-0.143528 0.0759495 0)
(-0.156635 0.0790643 0)
(-0.168648 0.0809317 0)
(-0.179583 0.081657 0)
(-0.189501 0.0813911 0)
(-0.198493 0.0802695 0)
(-0.206647 0.0784366 0)
(-0.214049 0.0760134 0)
(-0.220762 0.0731079 0)
(-0.22684 0.069803 0)
(-0.232319 0.0661709 0)
(-0.237239 0.0622694 0)
(-0.241629 0.058146 0)
(-0.245517 0.0538434 0)
(-0.248924 0.0494009 0)
(-0.251864 0.044857 0)
(-0.254352 0.0402306 0)
(-0.256502 0.0354639 0)
(-0.2583 0.0306224 0)
(-0.259755 0.0257045 0)
(-0.260869 0.0207101 0)
(-0.261625 0.0156876 0)
(-0.262042 0.0105547 0)
(-0.262119 0.00532491 0)
(-0.261864 -2.63511e-05 0)
(-0.261279 -0.00551371 0)
(-0.260389 -0.0111456 0)
(-0.259171 -0.0169519 0)
(-0.257622 -0.0229474 0)
(-0.255723 -0.0291431 0)
(-0.253446 -0.0355359 0)
(-0.250775 -0.0422439 0)
(-0.247687 -0.0492438 0)
(-0.244143 -0.0565219 0)
(-0.240082 -0.0640439 0)
(-0.235426 -0.0717738 0)
(-0.23007 -0.0795577 0)
(-0.223746 -0.0871002 0)
(-0.216121 -0.0941294 0)
(-0.206816 -0.100182 0)
(-0.195867 -0.105059 0)
(-0.183533 -0.108684 0)
(-0.1697 -0.110551 0)
(-0.154644 -0.110466 0)
(-0.138472 -0.108082 0)
(-0.121562 -0.103302 0)
(-0.104205 -0.0960401 0)
(-0.0868397 -0.086378 0)
(-0.0701836 -0.0748025 0)
(-0.0547623 -0.0618236 0)
(-0.0408976 -0.0479038 0)
(-0.0289108 -0.0336456 0)
(-0.0190092 -0.0196747 0)
(-0.0112501 -0.00657186 0)
(-0.00552941 0.00519229 0)
(-0.0016136 0.0152597 0)
(0.00077698 0.0233369 0)
(0.00184822 0.0290181 0)
(0.00175706 0.031637 0)
(0.000834319 0.0295763 0)
(-0.000270216 0.0164841 0)
(0.00127656 -0.0173305 0)
(0.0023162 -0.0237519 0)
(0.00134635 -0.0196738 0)
(-0.000731397 -0.0132284 0)
(-0.00367765 -0.00622908 0)
(-0.00742219 0.000821212 0)
(-0.0120099 0.00771966 0)
(-0.0175319 0.0143875 0)
(-0.0240972 0.0208402 0)
(-0.0318103 0.0271715 0)
(-0.0407544 0.0335244 0)
(-0.0509726 0.0400446 0)
(-0.0624458 0.0468267 0)
(-0.0751002 0.0538889 0)
(-0.0887429 0.0611056 0)
(-0.103003 0.0682135 0)
(-0.117533 0.0748765 0)
(-0.131857 0.0807309 0)
(-0.145433 0.0854196 0)
(-0.158035 0.0887721 0)
(-0.169548 0.0907818 0)
(-0.180003 0.0915902 0)
(-0.189464 0.0913257 0)
(-0.198028 0.0901561 0)
(-0.20578 0.0882185 0)
(-0.212799 0.0856487 0)
(-0.219144 0.0825506 0)
(-0.224859 0.0790177 0)
(-0.229982 0.0751241 0)
(-0.234545 0.0709365 0)
(-0.238578 0.0665104 0)
(-0.24211 0.0618945 0)
(-0.245163 0.0571328 0)
(-0.247801 0.0522332 0)
(-0.250071 0.0472232 0)
(-0.251994 0.0421356 0)
(-0.253534 0.0370355 0)
(-0.254706 0.0318778 0)
(-0.25553 0.0266647 0)
(-0.256029 0.0213921 0)
(-0.256255 0.0160571 0)
(-0.256231 0.0106411 0)
(-0.255987 0.00514032 0)
(-0.255548 -0.000469951 0)
(-0.254927 -0.00621203 0)
(-0.254087 -0.0121066 0)
(-0.25306 -0.0181892 0)
(-0.251837 -0.0244893 0)
(-0.250418 -0.0310341 0)
(-0.24879 -0.0378417 0)
(-0.246936 -0.0449241 0)
(-0.244826 -0.0522825 0)
(-0.242412 -0.0599099 0)
(-0.23963 -0.0677701 0)
(-0.236391 -0.0757923 0)
(-0.232582 -0.0840001 0)
(-0.228206 -0.0924396 0)
(-0.223082 -0.100841 0)
(-0.216972 -0.108844 0)
(-0.20942 -0.115891 0)
(-0.199671 -0.121204 0)
(-0.187771 -0.124472 0)
(-0.17423 -0.125792 0)
(-0.158967 -0.124562 0)
(-0.142388 -0.120626 0)
(-0.124815 -0.113839 0)
(-0.106594 -0.104112 0)
(-0.0883679 -0.0917442 0)
(-0.0709891 -0.0774197 0)
(-0.0550547 -0.0618255 0)
(-0.0409312 -0.0455608 0)
(-0.0289634 -0.0293918 0)
(-0.0193358 -0.0140681 0)
(-0.0120443 -0.000242002 0)
(-0.00688518 0.0115988 0)
(-0.00350112 0.02114 0)
(-0.00153237 0.0280475 0)
(-0.000653918 0.0315895 0)
(-0.000480589 0.0299534 0)
(-0.000384567 0.0163336 0)
(0.0010276 -0.0186409 0)
(0.000594013 -0.0230437 0)
(-0.00170798 -0.0174721 0)
(-0.00495636 -0.0101057 0)
(-0.00902402 -0.0023051 0)
(-0.0138836 0.00556978 0)
(-0.0196072 0.0133747 0)
(-0.0263019 0.0210533 0)
(-0.0340696 0.0286191 0)
(-0.0429891 0.0361455 0)
(-0.0531022 0.0437363 0)
(-0.0643927 0.051476 0)
(-0.0768027 0.0593998 0)
(-0.0901616 0.067412 0)
(-0.104103 0.0752412 0)
(-0.118235 0.0825434 0)
(-0.132114 0.0889451 0)
(-0.145253 0.0940677 0)
(-0.157415 0.097761 0)
(-0.168517 0.100046 0)
(-0.178559 0.101015 0)
(-0.187629 0.100845 0)
(-0.195809 0.0996946 0)
(-0.203187 0.0977216 0)
(-0.209827 0.0950541 0)
(-0.215784 0.0918094 0)
(-0.221099 0.0880796 0)
(-0.225807 0.0839499 0)
(-0.229942 0.0794912 0)
(-0.233536 0.0747685 0)
(-0.236626 0.0698365 0)
(-0.239248 0.0647435 0)
(-0.241445 0.059528 0)
(-0.24323 0.0542396 0)
(-0.244621 0.048893 0)
(-0.245667 0.0434926 0)
(-0.246381 0.0380555 0)
(-0.24683 0.0325794 0)
(-0.247053 0.0270786 0)
(-0.247093 0.0215533 0)
(-0.246938 0.0159981 0)
(-0.24662 0.0103918 0)
(-0.246154 0.00471969 0)
(-0.245557 -0.00104332 0)
(-0.244833 -0.00691859 0)
(-0.243989 -0.0129439 0)
(-0.243046 -0.0191451 0)
(-0.242011 -0.0255562 0)
(-0.240894 -0.0322093 0)
(-0.239695 -0.039138 0)
(-0.238414 -0.0463754 0)
(-0.237042 -0.0539448 0)
(-0.235557 -0.061862 0)
(-0.233917 -0.0701207 0)
(-0.232051 -0.078681 0)
(-0.229865 -0.0874587 0)
(-0.227244 -0.0963351 0)
(-0.224017 -0.105149 0)
(-0.219981 -0.11389 0)
(-0.215084 -0.122454 0)
(-0.208937 -0.130233 0)
(-0.200952 -0.136357 0)
(-0.190012 -0.139587 0)
(-0.176702 -0.140071 0)
(-0.161311 -0.137571 0)
(-0.144277 -0.131906 0)
(-0.125898 -0.12281 0)
(-0.106726 -0.110387 0)
(-0.0875455 -0.0951038 0)
(-0.0693975 -0.0779112 0)
(-0.0529769 -0.0596967 0)
(-0.0386942 -0.0412296 0)
(-0.0268968 -0.0234463 0)
(-0.0177215 -0.00721327 0)
(-0.0110707 0.00676403 0)
(-0.00659278 0.0180204 0)
(-0.00377635 0.0262339 0)
(-0.00216597 0.0305639 0)
(-0.00116355 0.0293695 0)
(-0.000356564 0.0157288 0)
(0.00070684 -0.0189707 0)
(-0.00130559 -0.0209333 0)
(-0.0048682 -0.0140508 0)
(-0.00924965 -0.00583612 0)
(-0.0144224 0.00273215 0)
(-0.0203723 0.011433 0)
(-0.0271924 0.0201639 0)
(-0.0349886 0.0288691 0)
(-0.0438422 0.0375406 0)
(-0.0537955 0.0462146 0)
(-0.0648377 0.0549409 0)
(-0.0769236 0.0637531 0)
(-0.08991 0.0725843 0)
(-0.103461 0.0811696 0)
(-0.117169 0.0891539 0)
(-0.130602 0.0961643 0)
(-0.143352 0.101846 0)
(-0.155147 0.10601 0)
(-0.165893 0.108663 0)
(-0.175593 0.109904 0)
(-0.184315 0.109906 0)
(-0.19215 0.108851 0)
(-0.199166 0.106895 0)
(-0.205428 0.104179 0)
(-0.21098 0.100819 0)
(-0.21586 0.0969198 0)
(-0.220104 0.0925704 0)
(-0.223747 0.0878551 0)
(-0.22683 0.082847 0)
(-0.229395 0.0776134 0)
(-0.231485 0.0722113 0)
(-0.233146 0.0666891 0)
(-0.234422 0.0610849 0)
(-0.235354 0.0554305 0)
(-0.235987 0.0497471 0)
(-0.236367 0.0440521 0)
(-0.236527 0.0383622 0)
(-0.236504 0.0326795 0)
(-0.236319 0.0270017 0)
(-0.235995 0.0213197 0)
(-0.235544 0.0156229 0)
(-0.234985 0.00989221 0)
(-0.234331 0.00410843 0)
(-0.233598 -0.00175166 0)
(-0.232793 -0.00771094 0)
(-0.23193 -0.013804 0)
(-0.231026 -0.0200594 0)
(-0.230096 -0.0265104 0)
(-0.229153 -0.0331897 0)
(-0.228211 -0.0401331 0)
(-0.227281 -0.047376 0)
(-0.226371 -0.0549512 0)
(-0.225482 -0.0628869 0)
(-0.224602 -0.071203 0)
(-0.223696 -0.0799065 0)
(-0.222707 -0.0889845 0)
(-0.221543 -0.0983778 0)
(-0.220062 -0.107948 0)
(-0.218074 -0.117474 0)
(-0.215335 -0.12668 0)
(-0.211521 -0.135348 0)
(-0.206509 -0.143504 0)
(-0.199731 -0.150004 0)
(-0.190162 -0.153606 0)
(-0.17713 -0.153184 0)
(-0.161675 -0.149402 0)
(-0.14403 -0.141718 0)
(-0.124741 -0.130085 0)
(-0.10452 -0.114729 0)
(-0.084343 -0.0963469 0)
(-0.065454 -0.0762088 0)
(-0.0486574 -0.0554458 0)
(-0.0344014 -0.0350242 0)
(-0.0230007 -0.016057 0)
(-0.0145072 0.000484185 0)
(-0.00867568 0.0138786 0)
(-0.00492413 0.0236629 0)
(-0.00272667 0.0288572 0)
(-0.00122594 0.0282057 0)
(-0.00018174 0.0149167 0)
(0.000126179 -0.0181229 0)
(-0.0032966 -0.0174869 0)
(-0.00801198 -0.00942681 0)
(-0.0134733 -0.000457634 0)
(-0.0197032 0.00884259 0)
(-0.0266855 0.0183583 0)
(-0.0345203 0.0280077 0)
(-0.043302 0.0377151 0)
(-0.0530815 0.0474341 0)
(-0.0638563 0.0571512 0)
(-0.0755899 0.0668713 0)
(-0.0881669 0.0765445 0)
(-0.101293 0.0859215 0)
(-0.114571 0.0946476 0)
(-0.12759 0.102349 0)
(-0.13999 0.108693 0)
(-0.151486 0.113456 0)
(-0.161935 0.116588 0)
(-0.171348 0.118206 0)
(-0.179773 0.118472 0)
(-0.187293 0.117582 0)
(-0.193976 0.115703 0)
(-0.199873 0.112979 0)
(-0.205027 0.109538 0)
(-0.209474 0.10549 0)
(-0.213255 0.100938 0)
(-0.216412 0.0959763 0)
(-0.218997 0.0906917 0)
(-0.221063 0.0851623 0)
(-0.222666 0.0794573 0)
(-0.223863 0.0736344 0)
(-0.22471 0.0677408 0)
(-0.225257 0.0618131 0)
(-0.225551 0.0558802 0)
(-0.225637 0.0499619 0)
(-0.22555 0.0440726 0)
(-0.225315 0.0382193 0)
(-0.224957 0.0323973 0)
(-0.224492 0.0265994 0)
(-0.223934 0.0208137 0)
(-0.223295 0.0150256 0)
(-0.222588 0.00921674 0)
(-0.221823 0.00336686 0)
(-0.221012 -0.00254665 0)
(-0.220164 -0.00854802 0)
(-0.219293 -0.0146673 0)
(-0.218414 -0.0209337 0)
(-0.217543 -0.027379 0)
(-0.216696 -0.0340364 0)
(-0.215894 -0.040941 0)
(-0.215155 -0.0481289 0)
(-0.214497 -0.0556354 0)
(-0.213937 -0.0634934 0)
(-0.213482 -0.0717315 0)
(-0.21313 -0.0803718 0)
(-0.212861 -0.0894261 0)
(-0.212631 -0.0988855 0)
(-0.212353 -0.108707 0)
(-0.211887 -0.118791 0)
(-0.211025 -0.128931 0)
(-0.20948 -0.138767 0)
(-0.206888 -0.147835 0)
(-0.202802 -0.15595 0)
(-0.196937 -0.162661 0)
(-0.188336 -0.166288 0)
(-0.175688 -0.165175 0)
(-0.160028 -0.159884 0)
(-0.141636 -0.149956 0)
(-0.121316 -0.135507 0)
(-0.099971 -0.116965 0)
(-0.0788258 -0.0953236 0)
(-0.0593273 -0.0722225 0)
(-0.042385 -0.0490906 0)
(-0.0284488 -0.0271154 0)
(-0.0177538 -0.0075938 0)
(-0.0102121 0.00844889 0)
(-0.00530898 0.0202619 0)
(-0.0024883 0.0267417 0)
(-0.000791377 0.0268957 0)
(7.56841e-05 0.0143516 0)
(-0.000455104 -0.0160277 0)
(-0.00524018 -0.0127504 0)
(-0.0110201 -0.00368361 0)
(-0.0174938 0.00596118 0)
(-0.0247071 0.0159531 0)
(-0.0326331 0.0262571 0)
(-0.0413694 0.0367882 0)
(-0.05099 0.0474345 0)
(-0.0615094 0.0580996 0)
(-0.0728988 0.0687258 0)
(-0.0850651 0.0792529 0)
(-0.0977601 0.089446 0)
(-0.11062 0.0989688 0)
(-0.123264 0.107444 0)
(-0.135354 0.114546 0)
(-0.146605 0.120026 0)
(-0.15683 0.123771 0)
(-0.166009 0.125871 0)
(-0.174195 0.126503 0)
(-0.181447 0.125856 0)
(-0.187834 0.124116 0)
(-0.193403 0.121435 0)
(-0.198193 0.117952 0)
(-0.202245 0.113788 0)
(-0.205604 0.109059 0)
(-0.208325 0.103875 0)
(-0.210469 0.0983353 0)
(-0.212103 0.0925332 0)
(-0.213295 0.0865489 0)
(-0.214112 0.0804507 0)
(-0.214614 0.0742934 0)
(-0.214858 0.0681197 0)
(-0.214892 0.0619609 0)
(-0.214757 0.0558391 0)
(-0.214486 0.0497674 0)
(-0.214105 0.0437518 0)
(-0.213632 0.0377914 0)
(-0.213081 0.0318787 0)
(-0.212463 0.0260029 0)
(-0.211788 0.0201503 0)
(-0.211061 0.0143049 0)
(-0.210291 0.00844788 0)
(-0.209485 0.00255918 0)
(-0.20865 -0.0033833 0)
(-0.207795 -0.00940326 0)
(-0.206932 -0.0155274 0)
(-0.206073 -0.021783 0)
(-0.205236 -0.0281998 0)
(-0.204438 -0.034809 0)
(-0.203702 -0.0416442 0)
(-0.203051 -0.0487403 0)
(-0.20251 -0.0561334 0)
(-0.202103 -0.0638598 0)
(-0.201851 -0.0719542 0)
(-0.20177 -0.0804482 0)
(-0.201864 -0.0893657 0)
(-0.202123 -0.0987175 0)
(-0.20251 -0.108494 0)
(-0.202947 -0.118658 0)
(-0.203304 -0.129121 0)
(-0.203366 -0.13971 0)
(-0.202822 -0.150097 0)
(-0.201259 -0.159705 0)
(-0.198129 -0.167883 0)
(-0.192903 -0.174454 0)
(-0.184844 -0.177877 0)
(-0.172463 -0.175967 0)
(-0.156387 -0.168941 0)
(-0.137094 -0.156466 0)
(-0.115622 -0.138866 0)
(-0.0931426 -0.116861 0)
(-0.0711599 -0.0918194 0)
(-0.0513275 -0.0658507 0)
(-0.0346197 -0.0406825 0)
(-0.021424 -0.0177958 0)
(-0.0118377 0.0014121 0)
(-0.0054969 0.015862 0)
(-0.0019086 0.0242687 0)
(-7.94614e-05 0.0257086 0)
(0.000368617 0.0142791 0)
(-0.00104069 -0.0127696 0)
(-0.00706246 -0.00684046 0)
(-0.0138 0.00309897 0)
(-0.0211948 0.0133393 0)
(-0.0292975 0.0239713 0)
(-0.0380546 0.0350146 0)
(-0.047556 0.0463624 0)
(-0.057851 0.0578524 0)
(-0.0689264 0.0693397 0)
(-0.0807071 0.0807105 0)
(-0.0929856 0.0917264 0)
(-0.10545 0.102083 0)
(-0.117761 0.111405 0)
(-0.129582 0.119353 0)
(-0.140637 0.125656 0)
(-0.150707 0.130146 0)
(-0.159724 0.132855 0)
(-0.167727 0.133955 0)
(-0.174773 0.133647 0)
(-0.18092 0.132119 0)
(-0.186216 0.129544 0)
(-0.1907 0.12607 0)
(-0.194419 0.121833 0)
(-0.197424 0.116965 0)
(-0.19978 0.111591 0)
(-0.201562 0.105828 0)
(-0.202846 0.0997832 0)
(-0.203711 0.0935487 0)
(-0.20423 0.0872025 0)
(-0.204471 0.080807 0)
(-0.204491 0.0744098 0)
(-0.204339 0.0680452 0)
(-0.204054 0.0617361 0)
(-0.203667 0.0554961 0)
(-0.203201 0.0493304 0)
(-0.202671 0.0432383 0)
(-0.202088 0.0372135 0)
(-0.20146 0.0312459 0)
(-0.200793 0.0253225 0)
(-0.200088 0.0194273 0)
(-0.199349 0.0135443 0)
(-0.19858 0.00765508 0)
(-0.197783 0.00173987 0)
(-0.196964 -0.00422207 0)
(-0.196128 -0.0102527 0)
(-0.195286 -0.0163756 0)
(-0.194449 -0.0226156 0)
(-0.193633 -0.0289992 0)
(-0.192856 -0.0355544 0)
(-0.192141 -0.0423117 0)
(-0.191513 -0.0493036 0)
(-0.191001 -0.0565648 0)
(-0.190634 -0.0641316 0)
(-0.190443 -0.0720421 0)
(-0.190454 -0.0803339 0)
(-0.190689 -0.089042 0)
(-0.191159 -0.098194 0)
(-0.191854 -0.107804 0)
(-0.19274 -0.117864 0)
(-0.193743 -0.12833 0)
(-0.194733 -0.139111 0)
(-0.195498 -0.150041 0)
(-0.195712 -0.16082 0)
(-0.194918 -0.170902 0)
(-0.19253 -0.179435 0)
(-0.187782 -0.185604 0)
(-0.179904 -0.188477 0)
(-0.16751 -0.185531 0)
(-0.150776 -0.176439 0)
(-0.13041 -0.161 0)
(-0.107713 -0.139855 0)
(-0.0841639 -0.114066 0)
(-0.06164 -0.0855565 0)
(-0.0419328 -0.0569904 0)
(-0.0260185 -0.0303849 0)
(-0.0141278 -0.00749623 0)
(-0.00608103 0.0102295 0)
(-0.00149521 0.0213024 0)
(0.000586869 0.024661 0)
(0.000575659 0.0146471 0)
(-0.00159655 -0.00841778 0)
(-0.00869715 0.000123083 0)
(-0.0162821 0.0108158 0)
(-0.0244958 0.0215734 0)
(-0.0333696 0.0327828 0)
(-0.0428259 0.0444986 0)
(-0.0529429 0.0565745 0)
(-0.0637442 0.0687975 0)
(-0.0751793 0.0809575 0)
(-0.08707 0.0927822 0)
(-0.0991722 0.103982 0)
(-0.111185 0.1142 0)
(-0.122779 0.123068 0)
(-0.133684 0.13029 0)
(-0.143659 0.135646 0)
(-0.152591 0.139101 0)
(-0.160483 0.140791 0)
(-0.167393 0.140924 0)
(-0.17337 0.139701 0)
(-0.178463 0.137307 0)
(-0.182717 0.133907 0)
(-0.186178 0.129653 0)
(-0.188909 0.124694 0)
(-0.190983 0.119172 0)
(-0.192485 0.113223 0)
(-0.193503 0.106968 0)
(-0.194122 0.100513 0)
(-0.194423 0.0939455 0)
(-0.194477 0.0873356 0)
(-0.194342 0.0807356 0)
(-0.194068 0.0741828 0)
(-0.193692 0.0677016 0)
(-0.193244 0.0613057 0)
(-0.192744 0.0550004 0)
(-0.192204 0.0487844 0)
(-0.191634 0.0426516 0)
(-0.191037 0.0365916 0)
(-0.190414 0.0305919 0)
(-0.189767 0.0246387 0)
(-0.189093 0.0187146 0)
(-0.188392 0.0128028 0)
(-0.187665 0.00688685 0)
(-0.18691 0.000947755 0)
(-0.186132 -0.00503354 0)
(-0.185334 -0.0110766 0)
(-0.184525 -0.0172022 0)
(-0.183714 -0.0234318 0)
(-0.182915 -0.0297884 0)
(-0.182145 -0.0362964 0)
(-0.181427 -0.0429823 0)
(-0.180786 -0.0498749 0)
(-0.180251 -0.0570058 0)
(-0.179855 -0.0644097 0)
(-0.179633 -0.0721242 0)
(-0.179619 -0.0801895 0)
(-0.179848 -0.0886472 0)
(-0.180345 -0.0975372 0)
(-0.181124 -0.106893 0)
(-0.182179 -0.116736 0)
(-0.183474 -0.127061 0)
(-0.18493 -0.137823 0)