/*--------------------------------*- C++ -*----------------------------------*\
  =========                 |
  \\      /  F ield         | OpenFOAM: The Open Source CFD Toolbox
   \\    /   O peration     | Website:  https://openfoam.org
    \\  /    A nd           | Version:  13
     \\/     M anipulation  |
\*---------------------------------------------------------------------------*/
FoamFile
{
    format      ascii;
    class       volScalarField;
    location    "600";
    object      k;
}
// * * * * * * * * * * * * * * * * * * * * * * * * * * * * * * * * * * * * * //

dimensions      [0 2 -2 0 0 0 0];

internalField   nonuniform List<scalar> 
12225
(
0.693377
1.37178
1.73447
1.94108
2.06106
1.821
1.88353
1.5934
1.61367
1.787
1.56258
1.47452
1.65871
1.36158
2.12373
2.24572
2.08075
2.36248
0.390642
0.419587
0.512045
0.528115
0.612633
0.635922
0.683032
0.660365
0.681739
0.66399
0.6984
0.698596
0.701987
0.682773
0.69265
0.715409
0.7272
0.753839
0.377486
0.377111
0.373082
0.325529
0.27863
0.216223
0.220164
0.213593
0.212284
0.210136
0.207042
0.184977
0.173816
0.175447
0.178628
0.187939
0.193253
0.20752
0.375311
0.37107
0.356548
0.304094
0.244096
0.181175
0.14164
0.116844
0.103768
0.0937038
0.088383
0.085069
0.0903536
0.0953918
0.102455
0.105804
0.107791
0.107785
0.374338
0.368328
0.338018
0.285803
0.22269
0.179159
0.138803
0.119193
0.101095
0.093353
0.0844316
0.0925668
0.091788
0.108894
0.124815
0.129435
0.137447
0.137682
0.373979
0.369404
0.346913
0.302506
0.264419
0.223374
0.197364
0.180195
0.166714
0.160365
0.153444
0.151488
0.145222
0.157604
0.170279
0.190456
0.195982
0.203892
0.373771
0.370415
0.360605
0.333306
0.309838
0.28393
0.266145
0.25588
0.242178
0.244182
0.235243
0.237369
0.230455
0.234071
0.233179
0.246182
0.248921
0.257142
0.37365
0.3712
0.365465
0.356449
0.345998
0.338099
0.325175
0.317439
0.310618
0.306575
0.302388
0.30125
0.295023
0.293477
0.292116
0.298542
0.296476
0.299146
0.373796
0.371411
0.367918
0.363363
0.358452
0.354301
0.349027
0.345116
0.341523
0.339308
0.336977
0.335646
0.333635
0.332043
0.330363
0.328938
0.327609
0.325512
0.373859
0.371518
0.368986
0.366063
0.362999
0.360166
0.35724
0.354647
0.352412
0.350471
0.34882
0.347233
0.345798
0.344116
0.342618
0.3407
0.339114
0.33698
0.373843
0.371557
0.36935
0.367062
0.364768
0.36252
0.360372
0.358317
0.35652
0.354815
0.35332
0.351801
0.350419
0.348877
0.347457
0.345824
0.344377
0.342661
0.373835
0.371559
0.369418
0.367313
0.365284
0.363292
0.361412
0.359591
0.357934
0.356345
0.354892
0.353452
0.352106
0.350704
0.349385
0.347973
0.346686
0.345264
0.373833
0.371557
0.369418
0.367366
0.365419
0.363538
0.36176
0.360048
0.358451
0.356918
0.355488
0.354095
0.352782
0.351472
0.350234
0.348974
0.347802
0.346587
0.37383
0.371555
0.369408
0.367366
0.365434
0.363589
0.361842
0.360171
0.358592
0.357083
0.355657
0.354287
0.352988
0.351728
0.350531
0.349362
0.348254
0.347165
0.373828
0.371554
0.369401
0.367359
0.365423
0.363584
0.361838
0.360176
0.358598
0.357094
0.355665
0.354301
0.353002
0.35176
0.350576
0.349441
0.348358
0.347319
0.373827
0.371552
0.369396
0.367351
0.365412
0.36357
0.361822
0.360158
0.358578
0.357071
0.355639
0.354273
0.352973
0.351731
0.350549
0.349419
0.348342
0.347312
0.373826
0.37155
0.369392
0.367346
0.365404
0.36356
0.361808
0.360143
0.358558
0.35705
0.355614
0.354246
0.352942
0.3517
0.350514
0.349385
0.348305
0.347276
0.373825
0.37155
0.369391
0.367343
0.365399
0.363554
0.3618
0.360133
0.358546
0.357036
0.355598
0.354229
0.352922
0.351678
0.35049
0.349359
0.348277
0.347246
0.373825
0.37155
0.36939
0.367343
0.365398
0.363552
0.361797
0.360129
0.358542
0.357031
0.355592
0.354222
0.352915
0.351669
0.350481
0.349348
0.348266
0.347233
0.373825
0.371551
0.369392
0.367346
0.365402
0.363558
0.361803
0.360137
0.358549
0.35704
0.355601
0.354231
0.352924
0.35168
0.350491
0.349359
0.348277
0.347245
0.373825
0.371552
0.369396
0.367351
0.36541
0.363566
0.361815
0.360149
0.358565
0.357056
0.35562
0.354251
0.352947
0.351703
0.350518
0.349385
0.348306
0.347274
0.373826
0.371556
0.369401
0.36736
0.365421
0.363582
0.361832
0.360171
0.358589
0.357085
0.355652
0.354287
0.352985
0.351746
0.350561
0.349433
0.348353
0.347324
0.373827
0.371563
0.369409
0.367374
0.365435
0.363603
0.361857
0.360204
0.358626
0.35713
0.355701
0.354345
0.353043
0.35181
0.35062
0.349494
0.348402
0.347362
0.373833
0.371576
0.369416
0.367379
0.365433
0.363616
0.361873
0.360244
0.358671
0.357195
0.355764
0.354415
0.353095
0.351852
0.350623
0.349473
0.348317
0.347215
0.373873
0.371603
0.369367
0.367283
0.36531
0.363552
0.361829
0.360276
0.358699
0.357265
0.35578
0.354422
0.352991
0.3517
0.350307
0.349067
0.347698
0.346408
0.374065
0.371607
0.368982
0.366769
0.364851
0.363363
0.361742
0.360402
0.358779
0.357407
0.3557
0.354265
0.352472
0.351032
0.349177
0.347733
0.345842
0.344154
0.374683
0.371479
0.367774
0.365584
0.364372
0.363605
0.362442
0.361524
0.359794
0.358466
0.356157
0.354453
0.35182
0.350011
0.347258
0.345371
0.342653
0.340172
0.377167
0.372109
0.367901
0.367506
0.370207
0.369727
0.370639
0.370195
0.36999
0.368917
0.366654
0.36492
0.362101
0.360441
0.358245
0.356696
0.355199
0.352942
0.403101
0.405215
0.417335
0.442871
0.470322
0.491268
0.508443
0.520876
0.532441
0.541923
0.552954
0.563417
0.57605
0.587975
0.602472
0.615023
0.628345
0.638999
0.898094
1.21805
1.43011
1.54389
1.59435
1.59338
1.57471
1.55013
1.51319
1.47555
1.43921
1.40539
1.3745
1.34682
1.32188
1.30001
1.28041
1.26305
1.41945e-08
3.51896e-07
1.81237e-06
7.21714e-06
2.43786e-05
7.49969e-05
0.000200367
0.000408076
0.000673826
0.00095959
0.00122136
0.00142801
0.00157065
0.00163302
0.00161915
0.00155521
0.00144172
0.00124869
0.00105938
0.000903514
0.000756386
0.00061465
0.00047541
0.000346939
0.000229969
0.000137534
7.46283e-05
3.82713e-05
1.96539e-05
1.05932e-05
6.21043e-06
4.37736e-06
4.3706e-06
7.43572e-06
1.11884e-05
8.36636e-05
0.000188523
0.000493417
0.000895531
0.00117899
0.00115907
0.0010337
0.000814912
0.000687873
0.000691027
0.000797684
0.000974932
0.00159613
0.00281357
0.00697338
0.0214368
0.0540663
0.0933875
0.115391
0.124542
0.123073
0.130063
0.137336
0.130122
0.136227
0.148333
0.163118
0.179601
0.146101
0.172621
0.175778
0.185492
0.193889
0.201632
0.209835
0.217441
0.225227
0.232693
0.240207
0.247516
0.254819
0.261978
0.269097
0.276108
0.283057
0.289917
0.296702
0.303404
0.310023
0.31656
0.323005
0.329365
0.335621
0.341784
0.347828
0.353762
0.359577
0.365265
0.370818
0.376221
0.381466
0.386537
0.391433
0.396151
0.400727
0.405221
0.409569
0.4138
0.417907
0.421898
0.425764
0.429511
0.433121
0.436612
0.439957
0.44318
0.446253
0.449201
0.451995
0.45466
0.457169
0.459543
0.46176
0.463837
0.465753
0.46752
0.469124
0.470571
0.471854
0.472969
0.473913
0.474671
0.475237
0.475571
0.475652
0.475476
0.475794
0.475384
0.475195
0.474854
0.474359
0.473831
0.472914
0.471982
0.470778
0.469508
0.467966
0.466273
0.46446
0.462513
0.460448
0.458264
0.455972
0.453574
0.451078
0.448488
0.445814
0.443069
0.440226
0.43736
0.434368
0.431403
0.428299
0.425264
0.422085
0.419004
0.415848
0.412721
0.409591
0.406468
0.403355
0.400252
0.39716
0.394083
0.391021
0.387979
0.384951
0.381932
0.378898
0.375808
0.372561
0.369051
0.364932
0.359504
0.343523
7.03114e-08
1.97435e-06
1.33668e-05
5.81957e-05
0.000213067
0.000651458
0.00151711
0.00279975
0.00431891
0.0059022
0.00737581
0.00860397
0.00953803
0.0101378
0.010466
0.0104456
0.010316
0.0100183
0.00950252
0.00877307
0.00782466
0.00672793
0.00548695
0.00425588
0.00298793
0.00200189
0.00128054
0.000795437
0.000482966
0.000291363
0.000181719
0.000124736
0.000105665
0.00013285
7.3769e-05
0.000958494
0.00194983
0.00490627
0.00838542
0.0109589
0.0119205
0.0116683
0.0109638
0.0110249
0.0125278
0.0163195
0.021972
0.0323748
0.0502063
0.0757383
0.100547
0.125419
0.144705
0.158913
0.17042
0.182885
0.198969
0.214233
0.23109
0.248898
0.267304
0.286857
0.30488
0.322338
0.342888
0.361049
0.379618
0.397973
0.415889
0.433784
0.451413
0.468958
0.486356
0.503672
0.520894
0.538049
0.555133
0.572157
0.589118
0.606019
0.622855
0.639624
0.656319
0.672936
0.689467
0.705904
0.722236
0.73845
0.754532
0.770457
0.78622
0.801805
0.817198
0.832377
0.847318
0.861995
0.876375
0.890424
0.904102
0.917373
0.930212
0.942818
0.955198
0.967338
0.979243
0.990904
1.00231
1.01345
1.02432
1.03491
1.04521
1.05523
1.06494
1.07435
1.08345
1.09224
1.10071
1.10884
1.11665
1.12411
1.13122
1.13798
1.14437
1.15038
1.15602
1.16127
1.16613
1.17058
1.17463
1.17825
1.18147
1.18432
1.18668
1.18863
1.18981
1.19133
1.19173
1.19274
1.1927
1.19299
1.19327
1.19269
1.1917
1.19035
1.18863
1.18655
1.18413
1.18136
1.17827
1.17486
1.17114
1.16712
1.16283
1.15827
1.15342
1.14835
1.14301
1.13749
1.13173
1.1258
1.11972
1.11349
1.10714
1.10067
1.09409
1.08741
1.08062
1.07373
1.06674
1.05966
1.05248
1.04521
1.03784
1.03032
1.0226
1.01452
1.0059
0.996368
0.983812
0.956573
1.93992e-07
5.83931e-06
4.44681e-05
0.000210571
0.00061795
0.0017585
0.00364277
0.00588507
0.0081759
0.0102853
0.0120721
0.0134721
0.0144736
0.0150984
0.0154045
0.0153922
0.0152646
0.0149625
0.0144865
0.0138786
0.0131404
0.0122629
0.0112345
0.0100413
0.00873786
0.00721894
0.00561668
0.00412704
0.00282785
0.00186695
0.00125304
0.000902581
0.000689791
0.000706536
0.000892528
0.00374232
0.00872437
0.0175957
0.0249403
0.0297931
0.0322951
0.0332562
0.0360354
0.0442222
0.0593996
0.0760584
0.0938671
0.114182
0.135167
0.154809
0.175734
0.196043
0.216552
0.238054
0.261884
0.288005
0.3153
0.343042
0.371131
0.399016
0.42682
0.454314
0.481008
0.507348
0.533227
0.558382
0.583103
0.607414
0.631337
0.654994
0.678389
0.701593
0.724625
0.747523
0.770302
0.792979
0.815562
0.838057
0.860466
0.882787
0.905017
0.927151
0.949182
0.971101
0.992898
1.01456
1.03609
1.05745
1.07864
1.09963
1.12041
1.14096
1.16128
1.18134
1.20113
1.22062
1.23981
1.25868
1.27724
1.29548
1.31341
1.33105
1.34835
1.36533
1.38196
1.39824
1.41415
1.42968
1.44481
1.45955
1.47388
1.4878
1.50129
1.51435
1.52698
1.53917
1.5509
1.56218
1.57299
1.58333
1.59319
1.60256
1.61143
1.61979
1.62763
1.63495
1.64174
1.64798
1.65368
1.65883
1.66343
1.66749
1.67097
1.6739
1.67625
1.67821
1.6793
1.68008
1.68024
1.67997
1.67937
1.67812
1.67633
1.67403
1.67121
1.66789
1.66408
1.65979
1.65504
1.64985
1.64422
1.63818
1.63174
1.62493
1.61772
1.6102
1.6023
1.59412
1.5856
1.57684
1.56783
1.5586
1.54918
1.53958
1.52981
1.51988
1.5098
1.49956
1.48917
1.47865
1.468
1.45722
1.44632
1.43528
1.42404
1.41252
1.40054
1.38784
1.37231
1.34647
6.85709e-07
2.06025e-05
0.000161084
0.000694871
0.0019642
0.00473388
0.00812294
0.0114885
0.0144573
0.0168427
0.0185975
0.019756
0.0203978
0.0206001
0.0205173
0.0202505
0.0197601
0.0191512
0.0184552
0.0176899
0.0168594
0.0159594
0.0149819
0.0139021
0.0127113
0.0113855
0.00992192
0.00838248
0.00686284
0.00541819
0.00415277
0.00319269
0.00264153
0.00316074
0.00639272
0.0162723
0.0309858
0.0434006
0.0528546
0.0600882
0.0675912
0.0776827
0.090838
0.105849
0.120746
0.136336
0.153551
0.173475
0.194537
0.217597
0.242726
0.269383
0.297889
0.328013
0.359623
0.392126
0.424992
0.457891
0.490614
0.522973
0.5549
0.586296
0.617067
0.647318
0.677012
0.706195
0.734953
0.763353
0.791444
0.819292
0.846934
0.874414
0.901762
0.929003
0.956153
0.983224
1.01022
1.03714
1.06399
1.09076
1.11744
1.14403
1.17051
1.19687
1.2231
1.24919
1.27512
1.30087
1.32643
1.35178
1.37691
1.40178
1.4264
1.45073
1.47477
1.4985
1.52191
1.54498
1.56771
1.59008
1.61209
1.63371
1.65492
1.67572
1.69608
1.71599
1.73544
1.75441
1.77288
1.79085
1.80831
1.82525
1.84165
1.85751
1.87283
1.8876
1.9018
1.91542
1.92847
1.94093
1.95279
1.96404
1.97467
1.98468
1.99405
2.00277
2.01084
2.01824
2.02497
2.03103
2.03642
2.04113
2.04515
2.0485
2.05116
2.05318
2.0543
2.05476
2.05454
2.05382
2.05248
2.05046
2.04778
2.04448
2.04054
2.036
2.03086
2.02513
2.01885
2.01202
2.00467
1.99681
1.98846
1.97965
1.97039
1.96071
1.9506
1.94012
1.92926
1.91807
1.90657
1.89481
1.88278
1.87053
1.85807
1.84541
1.83255
1.8195
1.80627
1.79288
1.77933
1.76565
1.75185
1.73793
1.72387
1.70965
1.69513
1.68014
1.66293
1.63847
2.31669e-06
6.94986e-05
0.000523886
0.00199471
0.00557766
0.0106366
0.0154618
0.0193999
0.0222595
0.0241091
0.0251242
0.0255075
0.0254362
0.0251196
0.0245148
0.0237762
0.0229562
0.0220931
0.0212101
0.0203185
0.0194157
0.0184945
0.0175425
0.0165378
0.0154598
0.0142845
0.0129962
0.0116173
0.0102263
0.00888474
0.00749983
0.00655793
0.00774435
0.0139752
0.0295331
0.0491243
0.0664559
0.0802675
0.0911389
0.101023
0.111442
0.122776
0.135035
0.148221
0.163505
0.181861
0.203013
0.226906
0.253264
0.281805
0.312152
0.34394
0.376978
0.410943
0.445581
0.480582
0.515712
0.550807
0.585752
0.620451
0.654835
0.688851
0.722452
0.755661
0.788485
0.820961
0.853135
0.885053
0.916758
0.948296
0.9797
1.011
1.04223
1.0734
1.10453
1.13561
1.16665
1.19765
1.2286
1.25948
1.29029
1.32101
1.35163
1.38214
1.41251
1.44274
1.4728
1.50268
1.53236
1.56182
1.59103
1.61999
1.64866
1.67704
1.70509
1.73281
1.76017
1.78716
1.81374
1.83992
1.86566
1.89093
1.91574
1.94004
1.96383
1.98708
2.00978
2.0319
2.05344
2.07437
2.09469
2.11438
2.13344
2.15185
2.16961
2.1867
2.20312
2.21885
2.23389
2.24823
2.26185
2.27475
2.28692
2.29835
2.30902
2.31892
2.32806
2.33641
2.34396
2.35073
2.3567
2.36187
2.36624
2.36981
2.37258
2.37452
2.37544
2.37561
2.37499
2.3737
2.37166
2.36885
2.36529
2.36099
2.35596
2.35022
2.34379
2.33669
2.32893
2.32054
2.31154
2.30196
2.29181
2.28112
2.26991
2.25821
2.24603
2.2334
2.22035
2.2069
2.19309
2.17896
2.16453
2.14983
2.13487
2.11968
2.10427
2.08863
2.07279
2.05676
2.04057
2.02424
2.0078
1.99128
1.9747
1.95805
1.94127
1.92426
1.90555
1.88137
7.31272e-06
0.000214769
0.00154201
0.00550399
0.0128199
0.0194712
0.0243373
0.0274272
0.0291223
0.0298401
0.0298666
0.0295579
0.0288753
0.0279822
0.0269809
0.0259329
0.0248813
0.0238537
0.0228643
0.0219157
0.0209996
0.0201034
0.0192077
0.0182852
0.0173148
0.016269
0.0151112
0.0138061
0.0123622
0.0114492
0.0118059
0.0151714
0.025729
0.0457828
0.0688594
0.0893068
0.105277
0.116936
0.125968
0.13442
0.143594
0.154157
0.167596
0.184223
0.204035
0.227219
0.253325
0.281835
0.31221
0.344023
0.376982
0.410847
0.445459
0.480663
0.516331
0.552336
0.588569
0.624934
0.661349
0.697738
0.734032
0.77018
0.806145
0.84192
0.877501
0.912904
0.948152
0.983273
1.0183
1.05326
1.08818
1.12308
1.15799
1.19291
1.22785
1.2628
1.29775
1.33271
1.36764
1.40254
1.43739
1.47216
1.50684
1.5414
1.57584
1.61013
1.64425
1.67818
1.71191
1.7454
1.77864
1.8116
1.84426
1.87661
1.9086
1.94023
1.97146
2.00227
2.03263
2.06251
2.09189
2.12075
2.14906
2.1768
2.20393
2.23045
2.25633
2.28154
2.30606
2.32988
2.35299
2.37537
2.397
2.41788
2.43799
2.45733
2.47588
2.49364
2.51059
2.52672
2.54203
2.55649
2.57011
2.58287
2.59476
2.60576
2.61587
2.62509
2.63339
2.64078
2.64725
2.65281
2.65745
2.66116
2.66396
2.66572
2.66642
2.66624
2.66522
2.66334
2.66059
2.65697
2.6525
2.64719
2.64105
2.63412
2.62639
2.61791
2.60868
2.59874
2.58811
2.57682
2.56488
2.55234
2.53922
2.52554
2.51132
2.49659
2.48138
2.46573
2.44967
2.43324
2.41647
2.39939
2.38202
2.36439
2.3465
2.32837
2.31001
2.29145
2.27273
2.25387
2.23492
2.21593
2.19693
2.17796
2.15901
2.13999
2.11968
2.09493
2.31768e-05
0.000641673
0.00421685
0.0132339
0.0223531
0.0283766
0.0318042
0.0335121
0.0341049
0.0339807
0.0334063
0.032414
0.0312153
0.0299121
0.0285825
0.0272832
0.0260507
0.0249044
0.0238488
0.022877
0.0219732
0.0211155
0.0202701
0.0193869
0.0184053
0.0173123
0.0161493
0.0152388
0.0153346
0.0178878
0.0258
0.0416914
0.064157
0.0873458
0.107988
0.123844
0.134758
0.142594
0.149618
0.157548
0.168413
0.182714
0.200516
0.221866
0.246421
0.273729
0.303086
0.333945
0.365932
0.398829
0.432498
0.466845
0.501808
0.537339
0.573393
0.609918
0.646857
0.684139
0.721691
0.759447
0.797347
0.835335
0.87337
0.911427
0.949491
0.98756
1.02564
1.06375
1.1019
1.14011
1.17841
1.2168
1.25529
1.29389
1.33259
1.37137
1.41023
1.44913
1.48806
1.52699
1.56589
1.60474
1.6435
1.68216
1.72068
1.75906
1.79726
1.83526
1.87305
1.91059
1.94786
1.98484
2.0215
2.05782
2.09376
2.12929
2.16439
2.19903
2.23316
2.26676
2.29981
2.33226
2.36409
2.39527
2.42577
2.45557
2.48463
2.51294
2.54046
2.56718
2.59307
2.61813
2.64233
2.66567
2.68813
2.7097
2.73037
2.75013
2.76896
2.78686
2.80381
2.81981
2.83484
2.84889
2.86195
2.87402
2.88507
2.8951
2.9041
2.91207
2.919
2.92489
2.92974
2.93354
2.9363
2.93787
2.93834
2.93779
2.93628
2.93378
2.93029
2.92583
2.92042
2.91406
2.90678
2.89861
2.88956
2.87966
2.86894
2.85742
2.84513
2.83211
2.81837
2.80396
2.7889
2.77322
2.75695
2.74011
2.72275
2.7049
2.68659
2.66788
2.64879
2.62935
2.60959
2.58954
2.56922
2.54863
2.5278
2.50677
2.48556
2.46423
2.44282
2.42141
2.40005
2.37879
2.35764
2.33657
2.31447
2.28856
6.94667e-05
0.00177445
0.0100633
0.0229179
0.0310887
0.0355094
0.0376572
0.0383932
0.0382306
0.0374743
0.036221
0.0347052
0.0330591
0.0313884
0.029772
0.0282634
0.026892
0.0256665
0.0245804
0.0236178
0.0227597
0.0219973
0.0213132
0.0207087
0.0202995
0.0203285
0.0212072
0.023726
0.0293953
0.0409185
0.0594181
0.0807672
0.102037
0.120797
0.135372
0.145442
0.152572
0.159223
0.167727
0.179303
0.194486
0.213325
0.235537
0.260712
0.288237
0.317517
0.348024
0.379451
0.411643
0.444532
0.478088
0.512304
0.547179
0.58272
0.618923
0.655763
0.693197
0.731179
0.769653
0.808559
0.847839
0.88744
0.927316
0.967434
1.00777
1.04831
1.08905
1.12999
1.17114
1.21251
1.2541
1.29593
1.33798
1.38025
1.42273
1.46539
1.5082
1.55112
1.59413
1.63717
1.68021
1.72321
1.76614
1.80896
1.85166
1.89419
1.93654
1.97867
2.02057
2.06221
2.10356
2.1446
2.1853
2.22562
2.26554
2.30501
2.34401
2.3825
2.42044
2.4578
2.49454
2.53062
2.566
2.60066
2.63456
2.66767
2.69994
2.73137
2.76191
2.79154
2.82023
2.84798
2.87476
2.90056
2.92537
2.94916
2.97194
2.99368
3.01438
3.03402
3.0526
3.0701
3.08651
3.10182
3.11602
3.1291
3.14105
3.15185
3.1615
3.17
3.17734
3.18351
3.18852
3.19236
3.19502
3.19637
3.19656
3.19559
3.19353
3.19035
3.18608
3.18074
3.17433
3.16687
3.1584
3.14894
3.13852
3.12716
3.11489
3.10175
3.08776
3.07296
3.05738
3.04106
3.02403
3.00632
2.98797
2.969
2.94946
2.92939
2.90883
2.88783
2.86641
2.84462
2.82249
2.80004
2.7773
2.75427
2.731
2.70752
2.68386
2.66009
2.63627
2.61247
2.58876
2.56521
2.54185
2.51865
2.49461
2.46708
0.000181958
0.00425334
0.0189961
0.0317278
0.038438
0.0416871
0.0429457
0.042931
0.0421336
0.0406868
0.0388763
0.0368715
0.0348127
0.0328125
0.0309536
0.0292884
0.0278434
0.0266211
0.0256069
0.0247771
0.0240844
0.0235507
0.0231933
0.0231645
0.0239927
0.0264616
0.0318461
0.0416859
0.056289
0.0741534
0.0930356
0.111425
0.127635
0.140544
0.150175
0.157768
0.165357
0.174841
0.187358
0.203373
0.222807
0.245313
0.270394
0.297513
0.32612
0.355782
0.386226
0.417341
0.4491
0.481521
0.514633
0.548476
0.583087
0.618493
0.654703
0.691709
0.729494
0.768023
0.807255
0.847139
0.887623
0.928658
0.9702
1.01221
1.05466
1.09753
1.14081
1.18449
1.22857
1.27305
1.31792
1.36319
1.40884
1.45484
1.50117
1.5478
1.59467
1.64173
1.68892
1.7362
1.78351
1.83079
1.878
1.92511
1.97207
2.01886
2.06544
2.11179
2.15787
2.20366
2.24914
2.29428
2.33904
2.3834
2.42731
2.47075
2.51367
2.55603
2.59779
2.63891
2.67936
2.71907
2.75803
2.79617
2.83347
2.86988
2.90538
2.93991
2.97347
3.006
3.03749
3.06791
3.09725
3.12548
3.1526
3.17859
3.20344
3.22713
3.24965
3.27099
3.29115
3.3101
3.32783
3.34435
3.35962
3.37366
3.38643
3.39794
3.40818
3.41713
3.42481
3.43119
3.43628
3.44009
3.44257
3.44365
3.44346
3.44202
3.43933
3.43542
3.4303
3.42399
3.41652
3.4079
3.39818
3.38736
3.3755
3.36261
3.34874
3.33392
3.31818
3.30156
3.28409
3.26582
3.24678
3.227
3.20653
3.1854
3.16366
3.14135
3.11853
3.09523
3.0715
3.04736
3.02287
2.99803
2.97289
2.94746
2.92177
2.89586
2.8698
2.84363
2.81742
2.79126
2.76521
2.73937
2.71377
2.68841
2.66233
2.63307
0.000408955
0.00871832
0.0282127
0.0396832
0.0451558
0.047544
0.0481155
0.0475071
0.0460606
0.0440635
0.0417459
0.0393
0.0368872
0.034634
0.0326306
0.0309329
0.0295752
0.0285672
0.0278784
0.0275816
0.0276569
0.0283098
0.0297629
0.0324648
0.0372919
0.0452511
0.05627
0.0699138
0.0853623
0.101467
0.116885
0.130611
0.142135
0.151657
0.160092
0.168929
0.179603
0.193091
0.209717
0.229372
0.251691
0.27622
0.302483
0.330042
0.358536
0.387736
0.417543
0.447951
0.479003
0.510758
0.543282
0.576641
0.610884
0.646049
0.682162
0.719234
0.75726
0.796222
0.836089
0.876825
0.918388
0.960733
1.00382
1.04762
1.09209
1.13722
1.18299
1.22938
1.27638
1.32399
1.37219
1.42096
1.47029
1.52013
1.57044
1.62116
1.67223
1.72358
1.77512
1.82679
1.87851
1.93021
1.98184
2.03335
2.0847
2.13584
2.18674
2.23737
2.2877
2.3377
2.38734
2.4366
2.48544
2.53383
2.58174
2.62912
2.67593
2.72214
2.76768
2.81254
2.85664
2.89996
2.94243
2.98402
3.02466
3.06433
3.10298
3.14058
3.17708
3.21245
3.24666
3.27969
3.31151
3.34211
3.37146
3.39957
3.4264
3.45195
3.47621
3.49917
3.52081
3.54112
3.56009
3.57771
3.59396
3.60885
3.62235
3.63447
3.64518
3.6545
3.6624
3.66889
3.67397
3.67763
3.67984
3.68058
3.67992
3.67788
3.67447
3.66973
3.66367
3.65631
3.64769
3.63783
3.62677
3.61453
3.60115
3.58667
3.57112
3.55455
3.537
3.5185
3.4991
3.47882
3.45772
3.43584
3.41321
3.38989
3.36592
3.34136
3.31627
3.29068
3.26463
3.23817
3.21132
3.18412
3.1566
3.12879
3.10071
3.07243
3.04399
3.01546
2.98691
2.95842
2.93007
2.90194
2.87409
2.84654
2.81839
2.78751
0.000788878
0.0152795
0.0364675
0.0469288
0.0516851
0.0534937
0.0535408
0.0523945
0.0504386
0.047973
0.0452516
0.0424931
0.0398817
0.03756
0.0356313
0.0341575
0.0332003
0.0328033
0.0328307
0.0335562
0.035208
0.0381439
0.0427672
0.0494353
0.0581789
0.0686582
0.0806908
0.0937365
0.107049
0.119863
0.131621
0.142153
0.151693
0.160973
0.171033
0.182881
0.197174
0.21415
0.233682
0.255456
0.279087
0.304194
0.330435
0.357532
0.385294
0.41363
0.442536
0.472062
0.502283
0.533288
0.565159
0.597968
0.631778
0.666644
0.702602
0.739678
0.777881
0.817209
0.857647
0.89917
0.94175
0.985353
1.02995
1.0755
1.12198
1.16938
1.21766
1.26681
1.31681
1.36764
1.41927
1.47169
1.52484
1.57868
1.63314
1.68813
1.74358
1.79938
1.85544
1.91167
1.96795
2.02421
2.08039
2.13642
2.19225
2.24784
2.30315
2.35813
2.41274
2.46696
2.52077
2.57412
2.62701
2.67939
2.73123
2.78248
2.83309
2.88304
2.93226
2.98073
3.02838
3.07517
3.12104
3.16592
3.20978
3.25257
3.29423
3.33474
3.37404
3.41211
3.44889
3.48437
3.51853
3.55133
3.58277
3.61283
3.64149
3.66875
3.69459
3.719
3.74197
3.76349
3.78353
3.8021
3.81919
3.83477
3.84885
3.86142
3.87246
3.88198
3.88997
3.89643
3.90135
3.90473
3.90655
3.90681
3.90555
3.90277
3.89853
3.89284
3.88573
3.87722
3.86735
3.85615
3.84365
3.82989
3.81491
3.79875
3.78146
3.76308
3.74365
3.72322
3.70182
3.67951
3.65632
3.63229
3.60748
3.58194
3.55574
3.52893
3.50156
3.4737
3.44536
3.4166
3.38744
3.35791
3.32806
3.2979
3.2675
3.23689
3.20614
3.17532
3.14448
3.11371
3.0831
3.05272
3.02264
2.99291
2.96269
2.93006
0.00128962
0.0223398
0.044077
0.054036
0.0583737
0.0597704
0.0594359
0.0578844
0.055546
0.0527688
0.0498473
0.0470291
0.0445207
0.0424937
0.0410901
0.0404471
0.0403716
0.041072
0.042678
0.0453246
0.0491882
0.0544276
0.0611291
0.0692478
0.0785983
0.0888773
0.0997281
0.11074
0.121547
0.131927
0.141851
0.151572
0.161641
0.172754
0.18553
0.200374
0.21741
0.236529
0.257479
0.279965
0.303697
0.328423
0.35394
0.380102
0.406833
0.434124
0.46202
0.4906
0.519961
0.550198
0.581401
0.613655
0.647036
0.681607
0.717417
0.754507
0.792899
0.832606
0.87363
0.915962
0.959591
1.0045
1.05065
1.09803
1.14662
1.19638
1.24731
1.29936
1.35252
1.40675
1.46203
1.5183
1.57551
1.63358
1.69241
1.75189
1.81192
1.87237
1.93313
1.99406
2.05505
2.116
2.17682
2.23745
2.29784
2.35794
2.41767
2.477
2.53589
2.59429
2.65219
2.70956
2.76638
2.82262
2.87823
2.93318
2.98743
3.04092
3.09362
3.14548
3.19646
3.24648
3.29549
3.34344
3.39025
3.4359
3.48032
3.52347
3.56532
3.6058
3.6449
3.68257
3.7188
3.75355
3.78681
3.81856
3.84879
3.8775
3.90468
3.9303
3.95436
3.97684
3.99773
4.01702
4.0347
4.05076
4.06519
4.07798
4.08915
4.09867
4.10654
4.11277
4.11734
4.12027
4.12153
4.12115
4.11911
4.11543
4.11019
4.10341
4.09512
4.08533
4.0741
4.06144
4.0474
4.03202
4.01535
3.99743
3.97831
3.95805
3.93668
3.91427
3.89085
3.86646
3.84116
3.81497
3.78796
3.76021
3.73178
3.70274
3.67314
3.64303
3.61246
3.58145
3.55003
3.51825
3.48612
3.4537
3.42104
3.38819
3.35523
3.32219
3.28916
3.2562
3.22339
3.19083
3.15858
3.12671
3.09445
3.0601
0.00190127
0.028888
0.0514159
0.0613126
0.0654063
0.0665302
0.0658998
0.0640436
0.0614625
0.0585827
0.0557474
0.0532218
0.0511986
0.0499289
0.0494498
0.0496409
0.0507708
0.052836
0.0558803
0.05994
0.0650656
0.0712544
0.0784262
0.086436
0.0951003
0.104207
0.113566
0.123044
0.132583
0.142246
0.152264
0.163013
0.174908
0.188292
0.203373
0.220194
0.238657
0.258581
0.279751
0.301965
0.325045
0.348854
0.373295
0.398316
0.423911
0.450121
0.477019
0.504696
0.533254
0.562797
0.593422
0.625221
0.658278
0.692669
0.728457
0.765691
0.804405
0.844628
0.886378
0.929666
0.974494
1.02086
1.06874
1.11814
1.16904
1.22142
1.27525
1.33051
1.38715
1.44514
1.50441
1.56489
1.62649
1.68911
1.7526
1.81682
1.88162
1.94688
2.01244
2.07816
2.1439
2.20956
2.27504
2.34027
2.4052
2.46975
2.53386
2.59746
2.66049
2.72294
2.78476
2.84595
2.90649
2.96634
3.02547
3.08385
3.14142
3.19814
3.25397
3.30888
3.3628
3.41569
3.46746
3.51807
3.56745
3.61554
3.66231
3.7077
3.75168
3.79418
3.83518
3.87464
3.91254
3.94884
3.98354
4.01659
4.04801
4.07779
4.10593
4.1324
4.1572
4.1803
4.2017
4.22138
4.23934
4.25555
4.27003
4.28276
4.29375
4.30299
4.31049
4.31623
4.32022
4.32246
4.32294
4.3217
4.31863
4.31387
4.30746
4.29942
4.28978
4.27857
4.26582
4.25158
4.23589
4.21879
4.20034
4.18057
4.15956
4.13735
4.114
4.08956
4.06409
4.03763
4.0102
3.98185
3.95267
3.92273
3.89212
3.86089
3.82912
3.79683
3.76409
3.73091
3.69734
3.66338
3.62908
3.5945
3.5597
3.52474
3.48967
3.45456
3.41945
3.38442
3.34954
3.3149
3.28057
3.24666
3.21244
3.17647
0.00269806
0.0345513
0.058501
0.0686272
0.0726572
0.073622
0.0727568
0.0706725
0.0679534
0.0651416
0.0626652
0.0607622
0.0596007
0.0591792
0.059452
0.0606875
0.062815
0.0658046
0.0696433
0.0743232
0.0798047
0.0860233
0.0928928
0.100327
0.108243
0.116575
0.125292
0.134421
0.144062
0.154393
0.165625
0.177978
0.191618
0.206622
0.222981
0.240612
0.259387
0.279164
0.299808
0.321208
0.343279
0.36597
0.38926
0.413161
0.43771
0.462976
0.48905
0.516031
0.544024
0.573125
0.603435
0.635052
0.668067
0.702563
0.738612
0.776276
0.815607
0.856652
0.899446
0.944021
0.990394
1.03858
1.08859
1.14042
1.19406
1.2495
1.30673
1.3657
1.42636
1.48863
1.55241
1.61758
1.68402
1.75155
1.81998
1.88914
1.95883
2.02891
2.09921
2.1696
2.23997
2.31018
2.38016
2.44982
2.5191
2.58792
2.65618
2.7238
2.79069
2.85685
2.92226
2.98691
3.05078
3.11384
3.17607
3.23741
3.29783
3.35729
3.41575
3.47317
3.52951
3.58469
3.63867
3.69136
3.74272
3.79269
3.84121
3.88826
3.93377
3.97771
4.02004
4.06072
4.09972
4.13702
4.1726
4.20644
4.23854
4.2689
4.2975
4.32432
4.34936
4.3726
4.39403
4.41365
4.43144
4.4474
4.46151
4.4738
4.48424
4.49284
4.4996
4.50453
4.50763
4.5089
4.50835
4.50591
4.50157
4.4955
4.4877
4.47821
4.46704
4.45424
4.43984
4.42389
4.40642
4.3875
4.36717
4.34549
4.32252
4.29831
4.27294
4.24646
4.21893
4.1904
4.16088
4.13041
4.0991
4.06705
4.03433
4.00101
3.96714
3.93278
3.89797
3.86276
3.82716
3.79115
3.75482
3.71823
3.68144
3.64453
3.60753
3.5705
3.53349
3.49656
3.45975
3.42318
3.38693
3.35112
3.31509
3.27768
0.00353898
0.0405288
0.065603
0.0759777
0.0799667
0.0807994
0.079625
0.0772103
0.0744459
0.0719623
0.0700948
0.0690504
0.0686821
0.068887
0.0699968
0.071948
0.074683
0.0781543
0.0823282
0.0871735
0.092655
0.098739
0.105401
0.112625
0.120405
0.128762
0.137752
0.147459
0.157994
0.169468
0.181966
0.195548
0.210226
0.225962
0.242686
0.260312
0.278749
0.297919
0.317763
0.338246
0.359354
0.381096
0.403497
0.42661
0.450508
0.475258
0.50095
0.527689
0.555581
0.584734
0.615252
0.647235
0.68078
0.715976
0.752906
0.79164
0.832245
0.874775
0.919284
0.965818
1.01442
1.06512
1.11793
1.17287
1.22995
1.28915
1.35047
1.41385
1.47921
1.54642
1.61532
1.6857
1.75736
1.83005
1.90356
1.97766
2.05212
2.12673
2.20133
2.27592
2.35045
2.42478
2.49879
2.57244
2.64561
2.7182
2.7901
2.86118
2.93138
3.00071
3.06915
3.13668
3.20328
3.26892
3.33359
3.39724
3.45984
3.52136
3.58174
3.64097
3.699
3.75577
3.81121
3.86527
3.91786
3.96896
4.0185
4.06645
4.11277
4.1574
4.20031
4.24147
4.28085
4.31843
4.35419
4.38815
4.42026
4.45052
4.47892
4.50544
4.53007
4.55281
4.57365
4.59258
4.60962
4.62476
4.63799
4.6493
4.6587
4.66619
4.67178
4.67547
4.67729
4.67722
4.67528
4.67122
4.66535
4.65768
4.64823
4.63704
4.62412
4.60953
4.5933
4.57547
4.55609
4.53522
4.51291
4.48923
4.46422
4.43797
4.41052
4.38196
4.35235
4.32175
4.29019
4.25769
4.22437
4.19033
4.15563
4.12034
4.08451
4.04821
4.01148
3.97438
3.93692
3.89906
3.86088
3.82249
3.78394
3.74528
3.70656
3.66783
3.62913
3.5905
3.55198
3.5137
3.47573
3.43823
3.40057
3.36199
0.00444102
0.0464738
0.0726589
0.0832845
0.0872351
0.0878959
0.0863369
0.0837398
0.0811842
0.0792216
0.0781248
0.0777276
0.077836
0.0787184
0.0803972
0.0828187
0.0859311
0.0896934
0.0940835
0.0990907
0.104712
0.110952
0.117825
0.125359
0.133595
0.142585
0.152382
0.163043
0.17461
0.187095
0.200501
0.214812
0.229978
0.245938
0.262631
0.280005
0.298025
0.316671
0.335946
0.355869
0.37647
0.3978
0.41994
0.443001
0.467037
0.492055
0.518179
0.54558
0.574343
0.604578
0.636388
0.669869
0.705113
0.742211
0.781244
0.822284
0.865391
0.910621
0.95802
1.00764
1.05954
1.11379
1.17037
1.2293
1.2906
1.35428
1.42032
1.48868
1.55926
1.6319
1.70637
1.78232
1.85935
1.93712
2.0155
2.09428
2.17317
2.25189
2.33037
2.40877
2.48694
2.56468
2.64197
2.71883
2.79511
2.87061
2.94522
3.01884
3.09146
3.16304
3.23354
3.30295
3.37127
3.43848
3.50456
3.56949
3.63323
3.69575
3.75703
3.81703
3.87573
3.93306
3.98896
4.04336
4.09618
4.14739
4.19694
4.2448
4.29092
4.33526
4.37777
4.41844
4.45722
4.49411
4.5291
4.56218
4.59334
4.62257
4.64986
4.67521
4.6986
4.72003
4.73951
4.75703
4.77259
4.78619
4.79783
4.80751
4.81523
4.821
4.82483
4.82675
4.82675
4.82499
4.82097
4.81501
4.80722
4.79761
4.7862
4.77302
4.75811
4.74151
4.72325
4.70338
4.68196
4.65903
4.63466
4.60891
4.58184
4.55351
4.524
4.49338
4.46171
4.42907
4.39553
4.36115
4.32598
4.2901
4.25357
4.21645
4.17882
4.14073
4.10225
4.06342
4.02428