/*--------------------------------*- C++ -*----------------------------------*\
  =========                 |
  \\      /  F ield         | OpenFOAM: The Open Source CFD Toolbox
   \\    /   O peration     | Website:  https://openfoam.org
    \\  /    A nd           | Version:  13
     \\/     M anipulation  |
\*---------------------------------------------------------------------------*/
FoamFile
{
    format      ascii;
    class       volScalarField;
    location    "600";
    object      nut;
}
// * * * * * * * * * * * * * * * * * * * * * * * * * * * * * * * * * * * * * //

dimensions      [0 2 -1 0 0 0 0];

internalField   nonuniform List<scalar> 
12225
(
6.89835e-06
1.38552e-05
1.78686e-05
2.04534e-05
2.22131e-05
2.00493e-05
2.11294e-05
1.81733e-05
1.86964e-05
2.10241e-05
1.86506e-05
1.7822e-05
2.02491e-05
1.67692e-05
2.63654e-05
2.80756e-05
2.61592e-05
2.98884e-05
0.000270163
5.59178e-05
4.38243e-05
3.44288e-05
3.00908e-05
3.03432e-05
3.45391e-05
3.53005e-05
3.67182e-05
3.44191e-05
3.68413e-05
3.27247e-05
3.44377e-05
3.51469e-05
3.54729e-05
3.88368e-05
3.94285e-05
4.10588e-05
0.000700075
0.000273437
0.000138314
8.10456e-05
5.33269e-05
3.53097e-05
3.34496e-05
3.09444e-05
2.96671e-05
2.85309e-05
2.75045e-05
2.3629e-05
2.1923e-05
2.19197e-05
2.17125e-05
2.19964e-05
2.22418e-05
2.37432e-05
0.00081648
0.000450399
0.000234719
0.000135544
0.00010148
4.93617e-05
3.69153e-05
2.93975e-05
2.55105e-05
2.22963e-05
2.05409e-05
1.63341e-05
1.77022e-05
1.76229e-05
1.85673e-05
1.9701e-05
2.08649e-05
2.12093e-05
0.000838952
0.000227546
0.000168479
0.00012635
8.40588e-05
6.03638e-05
2.60549e-05
2.32559e-05
1.64498e-05
1.40601e-05
1.28774e-05
1.48828e-05
1.66623e-05
2.27774e-05
2.95218e-05
3.46318e-05
4.15713e-05
4.63178e-05
0.000853021
0.000325245
0.000165283
0.000111201
9.14736e-05
6.14378e-05
3.83502e-05
3.56151e-05
3.03359e-05
2.9177e-05
2.96519e-05
3.12507e-05
3.29152e-05
4.08184e-05
5.21225e-05
6.94433e-05
8.47793e-05
0.000101894
0.000861782
0.000518522
0.000301865
0.000212498
0.000183016
0.000126069
8.67504e-05
8.28384e-05
7.51748e-05
7.77889e-05
7.98427e-05
8.46509e-05
8.84251e-05
0.00010172
0.000118151
0.000145977
0.000171257
0.000197818
0.000858892
0.000759953
0.00057988
0.000486486
0.000397512
0.000292786
0.000234161
0.000210516
0.000197747
0.000194571
0.000194006
0.000197284
0.000206234
0.000228042
0.000255477
0.000290377
0.000309453
0.00032675
0.000854906
0.000837512
0.0007794
0.000726065
0.000682117
0.000580765
0.000499939
0.000450186
0.000416143
0.000405332
0.000400459
0.000389292
0.000387339
0.000398133
0.000419651
0.000446956
0.000471366
0.000479868
0.000853714
0.000849678
0.000839876
0.000829481
0.000808485
0.000774013
0.000716741
0.000677958
0.000641766
0.000613591
0.000603555
0.000592928
0.000592354
0.000600082
0.000609246
0.000615299
0.000621941
0.000621311
0.000851734
0.000851428
0.000852632
0.000852946
0.000844812
0.000838364
0.000817902
0.000797568
0.00077931
0.000765217
0.000753565
0.000741495
0.000734444
0.000729156
0.000726084
0.000728737
0.000725848
0.000727004
0.000851652
0.000850581
0.000851813
0.000851145
0.000850903
0.000848829
0.000843673
0.000835614
0.000828539
0.000822349
0.000814521
0.00080925
0.000804438
0.000803423
0.000797984
0.000797595
0.00079349
0.000792237
0.000851548
0.000850689
0.000850552
0.000849768
0.000849123
0.000848124
0.0008467
0.00084421
0.000842354
0.000840083
0.000838361
0.000836888
0.000835401
0.000834332
0.000833165
0.000832199
0.000830855
0.000829256
0.000851549
0.000850671
0.000850012
0.000849227
0.000848524
0.000847706
0.000846975
0.000845995
0.000845254
0.000844346
0.000843685
0.000842991
0.000842433
0.00084183
0.000841334
0.000840729
0.000840145
0.000839356
0.000851546
0.000850671
0.000849883
0.000849096
0.000848375
0.000847642
0.000846982
0.00084629
0.000845682
0.000845052
0.000844501
0.000843943
0.00084345
0.000842947
0.000842495
0.000842026
0.000841578
0.000841105
0.00085154
0.000850674
0.000849858
0.000849075
0.000848338
0.000847627
0.000846959
0.000846312
0.000845704
0.000845114
0.00084456
0.000844022
0.000843517
0.000843028
0.000842566
0.000842118
0.000841691
0.000841275
0.000851538
0.000850673
0.000849852
0.00084907
0.000848328
0.000847619
0.000846946
0.000846302
0.000845689
0.000845102
0.000844543
0.000844008
0.000843497
0.000843008
0.000842541
0.000842094
0.000841666
0.000841256
0.000851539
0.000850678
0.000849858
0.000849077
0.000848335
0.000847627
0.000846953
0.000846309
0.000845695
0.000845108
0.000844547
0.000844012
0.000843499
0.000843009
0.00084254
0.000842091
0.000841661
0.000841251
0.000851537
0.000850674
0.000849851
0.000849069
0.000848324
0.000847615
0.000846938
0.000846293
0.000845677
0.000845089
0.000844526
0.000843989
0.000843474
0.000842983
0.000842512
0.000842062
0.000841631
0.000841219
0.000851535
0.000850675
0.000849849
0.000849072
0.000848323
0.000847617
0.000846938
0.000846296
0.000845678
0.000845091
0.000844527
0.000843992
0.000843476
0.000842986
0.000842514
0.000842065
0.000841633
0.000841222
0.00085153
0.000850684
0.000849845
0.000849085
0.000848322
0.000847633
0.000846945
0.000846309
0.00084569
0.000845104
0.000844542
0.000844006
0.000843487
0.000843002
0.00084252
0.000842077
0.000841634
0.000841225
0.000851526
0.000850698
0.00084984
0.00084911
0.000848313
0.000847662
0.000846936
0.000846317
0.000845681
0.000845078
0.000844511
0.000843953
0.000843391
0.000842907
0.000842323
0.000841895
0.000841325
0.000840907
0.000851568
0.000850692
0.000849841
0.000849073
0.000848212
0.000847531
0.000846669
0.000845968
0.000845143
0.00084439
0.000843604
0.000842815
0.000841914
0.000841107
0.000840049
0.000839207
0.000838146
0.000837112
0.000851932
0.000850637
0.000849576
0.000848022
0.00084639
0.000845036
0.000843085
0.00084154
0.000839236
0.000837423
0.000834917
0.000832803
0.000829744
0.000826802
0.000823787
0.000820789
0.000817311
0.000814262
0.000854811
0.000851347
0.000844401
0.0008359
0.000829991
0.00082036
0.000816023
0.000810811
0.000802533
0.000796355
0.000787293
0.000780626
0.000770623
0.000763365
0.000752909
0.000745702
0.000735401
0.000728107
0.000874158
0.00083664
0.000787348
0.000758327
0.000736615
0.000727127
0.000707039
0.000691803
0.000670969
0.000655906
0.000635382
0.000620704
0.000601059
0.00058791
0.000569907
0.000558789
0.000542828
0.000532656
0.000971247
0.000725086
0.000583936
0.000526687
0.000497925
0.000477651
0.000450562
0.000428761
0.000403118
0.000384357
0.000362759
0.000347639
0.000330076
0.00031841
0.000304187
0.000295216
0.000283588
0.000275768
0.00118161
0.000391258
0.000255924
0.000213311
0.000195932
0.000182423
0.00016771
0.000156306
0.000146117
0.00013867
0.000131101
0.000125975
0.000120264
0.000116666
0.000112335
0.000109614
0.000106165
0.000103678
0.00027594
9.52918e-05
6.37637e-05
5.73499e-05
5.48689e-05
5.39128e-05
5.36249e-05
5.35269e-05
5.39032e-05
5.44087e-05
5.54173e-05
5.6535e-05
5.79664e-05
5.94481e-05
6.10838e-05
6.10646e-05
6.12566e-05
6.13143e-05
1.17362e-05
1.60674e-05
1.90799e-05
2.0863e-05
2.18273e-05
2.20899e-05
2.20951e-05
2.2e-05
2.17069e-05
2.13789e-05
2.10454e-05
2.0726e-05
2.04294e-05
2.01623e-05
1.99201e-05
1.97107e-05
1.95248e-05
1.93618e-05
1.23827e-12
1.39961e-10
7.20218e-10
2.86552e-09
9.67088e-09
2.97245e-08
7.93431e-08
1.61448e-07
2.66344e-07
3.78952e-07
4.81882e-07
5.62891e-07
6.18533e-07
6.42487e-07
6.3642e-07
6.10701e-07
5.65587e-07
4.89382e-07
4.14779e-07
3.534e-07
2.95555e-07
2.3993e-07
1.85388e-07
1.35151e-07
8.9492e-08
5.34654e-08
2.89805e-08
1.48462e-08
7.61595e-09
4.10048e-09
2.40134e-09
1.6907e-09
1.68622e-09
2.86557e-09
4.30691e-09
3.21693e-08
7.24054e-08
1.89287e-07
3.43147e-07
4.51232e-07
4.43083e-07
3.94685e-07
3.10774e-07
2.62008e-07
2.62887e-07
3.03088e-07
3.69974e-07
6.04949e-07
1.06502e-06
2.63627e-06
8.09369e-06
2.03868e-05
3.51676e-05
4.33964e-05
4.67756e-05
4.20504e-05
3.99253e-05
3.85603e-05
3.37602e-05
3.29558e-05
3.37694e-05
3.52998e-05
3.71656e-05
2.9077e-05
3.32029e-05
3.27525e-05
3.35687e-05
3.41759e-05
3.46885e-05
3.52957e-05
3.58163e-05
3.63787e-05
3.68999e-05
3.74386e-05
3.79544e-05
3.8478e-05
3.89889e-05
3.95025e-05
4.00094e-05
4.05166e-05
4.10207e-05
4.15243e-05
4.20268e-05
4.25287e-05
4.30307e-05
4.35323e-05
4.40348e-05
4.45364e-05
4.50388e-05
4.55398e-05
4.60412e-05
4.65425e-05
4.70432e-05
4.75429e-05
4.80403e-05
4.85353e-05
4.90263e-05
4.95142e-05
4.99992e-05
5.04872e-05
5.09849e-05
5.14826e-05
5.19842e-05
5.24901e-05
5.30013e-05
5.35176e-05
5.40402e-05
5.45674e-05
5.51018e-05
5.56407e-05
5.61877e-05
5.67396e-05
5.73004e-05
5.7867e-05
5.84432e-05
5.90265e-05
5.96204e-05
6.02229e-05
6.08372e-05
6.1462e-05
6.21001e-05
6.27512e-05
6.34175e-05
6.40995e-05
6.4798e-05
6.55146e-05
6.62489e-05
6.70021e-05
6.77704e-05
6.85528e-05
6.93513e-05
7.02787e-05
7.11584e-05
7.21342e-05
7.31547e-05
7.42236e-05
7.53645e-05
7.65236e-05
7.77589e-05
7.7599e-05
7.73885e-05
7.71517e-05
7.6903e-05
7.66441e-05
7.63733e-05
7.60919e-05
7.58e-05
7.54982e-05
7.51868e-05
7.48664e-05
7.45371e-05
7.41995e-05
7.38569e-05
7.35001e-05
7.31486e-05
7.2774e-05
7.24147e-05
7.20265e-05
7.1661e-05
7.12621e-05
7.08904e-05
7.04975e-05
7.0113e-05
6.97256e-05
6.93377e-05
6.89505e-05
6.8563e-05
6.81759e-05
6.77891e-05
6.74031e-05
6.70177e-05
6.6633e-05
6.6248e-05
6.58615e-05
6.54688e-05
6.50619e-05
6.46307e-05
6.41447e-05
6.35429e-05
6.20043e-05
6.13364e-12
9.9108e-10
1.34996e-08
7.22921e-08
3.09477e-07
1.0704e-06
2.47893e-06
4.58483e-06
7.18924e-06
1.01398e-05
1.31852e-05
1.60325e-05
1.84855e-05
2.03216e-05
2.14817e-05
2.18139e-05
2.15458e-05
2.07327e-05
1.90364e-05
1.59666e-05
1.24591e-05
9.27491e-06
6.58171e-06
4.51661e-06
2.86367e-06
1.78431e-06
1.08954e-06
6.78682e-07
4.2261e-07
2.72437e-07
1.91441e-07
1.54507e-07
1.59966e-07
2.32198e-07
1.44757e-07
2.07459e-06
4.38679e-06
1.09939e-05
1.81761e-05
2.2505e-05
2.28742e-05
2.11878e-05
1.80404e-05
1.55475e-05
1.4969e-05
1.56916e-05
1.63189e-05
1.97435e-05
2.72807e-05
3.84173e-05
4.93434e-05
6.10095e-05
7.08128e-05
7.93137e-05
8.65499e-05
9.48073e-05
0.000106222
0.000117661
0.000128381
0.000141214
0.000157975
0.000171747
0.000185845
0.000194356
0.000207762
0.000219201
0.000230713
0.000241919
0.000252621
0.000262897
0.000272952
0.000282647
0.000292169
0.000301417
0.000310518
0.000319414
0.000328179
0.000336785
0.000345269
0.000353622
0.000361858
0.000369978
0.000377985
0.000385883
0.000393674
0.000401359
0.000408937
0.000416407
0.000423764
0.000431004
0.000438119
0.000445112
0.000451976
0.000458707
0.000465289
0.000471701
0.000477904
0.000483844
0.000489428
0.000494535
0.000498992
0.000503344
0.000507598
0.00051171
0.000515725
0.000519619
0.000523402
0.000527069
0.00053062
0.000534055
0.000537373
0.000540575
0.000543661
0.000546631
0.000549486
0.000552224
0.000554846
0.000557351
0.00055974
0.000562012
0.000564167
0.0005662
0.000568111
0.000569896
0.000571556
0.000573087
0.000574493
0.000575769
0.000576914
0.000577917
0.000578753
0.000579389
0.00057988
0.000580182
0.000580188
0.000580417
0.000580094
0.000580279
0.000580043
0.000580284
0.00058045
0.000580273
0.000579968
0.000579543
0.00057899
0.000578313
0.000577513
0.000576593
0.000575556
0.000574403
0.000573136
0.000571754
0.000570248
0.000568761
0.000566934
0.000565324
0.000563258
0.000561535
0.000559309
0.0005573
0.00055503
0.000552779
0.000550467
0.000548091
0.000545667
0.000543194
0.000540663
0.000538083
0.000535442
0.00053275
0.000529997
0.000527186
0.0005243
0.000521328
0.00051822
0.000514882
0.000511186
0.000506835
0.000500984
0.000484924
1.6923e-11
2.91421e-09
5.54488e-08
3.43302e-07
9.58842e-07
2.68018e-06
5.75697e-06
1.00656e-05
1.54976e-05
2.17351e-05
2.84267e-05
3.50762e-05
4.11294e-05
4.62421e-05
5.02049e-05
5.27684e-05
5.43478e-05
5.48074e-05
5.36606e-05
5.0876e-05
4.69393e-05
4.11614e-05
3.42965e-05
2.72656e-05
2.07484e-05
1.50645e-05
1.03585e-05
6.97313e-06
4.48073e-06
2.94183e-06
2.01568e-06
1.53619e-06
1.30825e-06
1.53594e-06
2.22988e-06
1.01917e-05
2.35059e-05
4.55704e-05
6.04369e-05
6.55914e-05
6.08051e-05
4.79844e-05
4.00167e-05
4.03753e-05
4.65684e-05
5.36169e-05
6.32074e-05
7.53286e-05
8.77177e-05
0.000100579
0.000117806
0.000136229
0.00015702
0.000179802
0.000205296
0.000233543
0.000263496
0.000293858
0.000324382
0.000354977
0.000384711
0.000412783
0.000439581
0.000464774
0.000489888
0.000513272
0.000536116
0.000558048
0.000579065
0.000599455
0.000619315
0.000638646
0.000657586
0.000676119
0.000694337
0.000712232
0.000729857
0.000747211
0.000764319
0.000781186
0.000797821
0.000814229
0.000830412
0.000846374
0.000862113
0.00087763
0.000892919
0.000907975
0.000922791
0.000937356
0.000951657
0.000965686
0.000979424
0.000992854
0.00100594
0.00101866
0.00103096
0.0010428
0.00105414
0.00106495
0.00107535
0.00108555
0.00109549
0.00110516
0.00111458
0.00112375
0.00113266
0.00114131
0.0011497
0.00115783
0.00116571
0.00117333
0.00118069
0.00118779
0.00119464
0.00120124
0.00120758
0.00121368
0.00121952
0.0012251
0.00123043
0.0012355
0.00124031
0.00124485
0.00124912
0.00125311
0.00125682
0.00126025
0.00126338
0.0012662
0.0012687
0.00127087
0.00127275
0.0012743
0.00127555
0.00127663
0.00127716
0.00127775
0.00127804
0.00127815
0.00127803
0.0012776
0.0012769
0.0012759
0.00127462
0.00127305
0.00127121
0.0012691
0.00126672
0.00126408
0.00126119
0.00125805
0.00125468
0.00125116
0.00124723
0.00124334
0.00123894
0.0012347
0.00122989
0.00122519
0.00122015
0.00121505
0.00120983
0.00120447
0.00119902
0.00119346
0.00118778
0.001182
0.00117609
0.00117008
0.00116395
0.0011577
0.0011513
0.00114471
0.00113783
0.00113049
0.00112238
0.00111279
0.0010996
0.00107042
5.98181e-11
1.01456e-08
1.65039e-07
7.50289e-07
2.26185e-06
6.27256e-06
1.26229e-05
2.12233e-05
3.15007e-05
4.24162e-05
5.3057e-05
6.28999e-05
7.14321e-05
7.81951e-05
8.32644e-05
8.67732e-05
8.8388e-05
8.84939e-05
8.72307e-05
8.44888e-05
8.03464e-05
7.48118e-05
6.82273e-05
5.98585e-05
5.04661e-05
4.09438e-05
3.18466e-05
2.42151e-05
1.80448e-05
1.33772e-05
9.92445e-06
7.70241e-06
6.56203e-06
8.39529e-06
1.64147e-05
3.6222e-05
5.88023e-05
7.49276e-05
8.14166e-05
7.68223e-05
7.31309e-05
7.309e-05
7.68305e-05
8.45336e-05
9.56458e-05
0.000108916
0.000120862
0.000140778
0.000163015
0.000189653
0.000221645
0.000256357
0.000294927
0.000335744
0.000378841
0.000423004
0.000467339
0.000511073
0.000554017
0.000595821
0.00063581
0.00067426
0.000711134
0.000746479
0.000780941
0.000813752
0.000845574
0.000876387
0.00090632
0.000935523
0.000964084
0.000992061
0.00101954
0.00104655
0.00107314
0.00109933
0.00112516
0.00115063
0.00117576
0.00120055
0.00122501
0.00124914
0.00127294
0.00129641
0.00131954
0.00134234
0.00136479
0.00138689
0.00140863
0.00142998
0.00145094
0.00147149
0.0014916
0.00151126
0.00153044
0.00154912
0.00156727
0.00158488
0.00160195
0.00161852
0.00163466
0.00165044
0.00166582
0.00168081
0.0016954
0.0017096
0.0017234
0.0017368
0.0017498
0.0017624
0.0017746
0.0017864
0.0017978
0.00180882
0.00181944
0.00182968
0.00183953
0.00184899
0.00185806
0.00186675
0.00187504
0.00188294
0.00189043
0.00189751
0.00190418
0.00191043
0.00191626
0.00192164
0.00192659
0.00193108
0.00193511
0.0019387
0.00194185
0.00194456
0.00194682
0.0019487
0.00194995
0.00195087
0.00195137
0.0019516
0.00195139
0.00195074
0.00194966
0.00194815
0.00194622
0.00194387
0.00194111
0.00193795
0.00193441
0.00193049
0.00192621
0.00192156
0.00191659
0.0019113
0.00190562
0.00189973
0.0018934
0.00188695
0.00188002
0.001873
0.00186563
0.00185812
0.00185041
0.00184253
0.00183449
0.00182628
0.00181792
0.00180939
0.0018007
0.00179185
0.00178283
0.00177365
0.00176426
0.00175461
0.00174458
0.00173394
0.0017223
0.0017087
0.0016902
0.00165558
2.02097e-10
3.05889e-08
3.73446e-07
1.73553e-06
6.05945e-06
1.47909e-05
2.77331e-05
4.3427e-05
6.00228e-05
7.59555e-05
8.99322e-05
0.000101234
0.000109638
0.000115707
0.00011916
0.000120709
0.00012065
0.000119225
0.000116623
0.000112925
0.000107898
0.000102089
9.54176e-05
8.71949e-05
7.76668e-05
6.71113e-05
5.60011e-05
4.55944e-05
3.6654e-05
2.94804e-05
2.37619e-05
1.97921e-05
2.12338e-05
3.08372e-05
5.38746e-05
7.62278e-05
8.87926e-05
9.42715e-05
9.6469e-05
9.88372e-05
0.0001039
0.000112796
0.000126355
0.000137516
0.000150607
0.000172415
0.000200923
0.000233048
0.000271261
0.000314155
0.000361302
0.000410831
0.000462915
0.000516058
0.000569968
0.000623688
0.000676706
0.000728578
0.000779199
0.000828074
0.00087546
0.000921361
0.00096581
0.00100868
0.00105028
0.00109057
0.00112979
0.00116802
0.00120539
0.001242
0.00127792
0.00131321
0.00134794
0.00138215
0.00141586
0.00144911
0.0014819
0.00151425
0.00154616
0.00157764
0.00160869
0.00163931
0.00166949
0.00169924
0.00172855
0.00175741
0.00178582
0.00181376
0.00184124
0.00186822
0.0018947
0.00192066
0.00194608
0.00197094
0.00199523
0.00201894
0.00204206
0.0020646
0.00208657
0.00210799
0.0021289
0.0021493
0.0021692
0.00218858
0.00220745
0.00222579
0.00224362
0.00226093
0.00227771
0.00229397
0.0023097
0.00232492
0.00233962
0.0023538
0.00236748
0.00238065
0.00239332
0.00240547
0.00241712
0.00242827
0.0024389
0.00244901
0.0024586
0.00246766
0.00247619
0.00248418
0.00249162
0.0024985
0.00250482
0.00251058
0.00251577
0.00252041
0.00252451
0.00252812
0.00253119
0.00253365
0.00253533
0.00253656
0.00253728
0.00253756
0.0025373
0.00253651
0.00253518
0.00253333
0.00253095
0.00252807
0.00252469
0.00252082
0.00251648
0.00251167
0.00250642
0.00250074
0.00249465
0.00248815
0.00248123
0.00247397
0.00246628
0.00245829
0.00244989
0.00244123
0.00243225
0.00242302
0.00241356
0.00240388
0.00239399
0.0023839
0.00237361
0.00236311
0.0023524
0.00234149
0.00233038
0.00231905
0.00230747
0.0022956
0.00228331
0.00227038
0.00225641
0.00224042
0.00221921
0.00218425
6.37928e-10
7.58141e-08
9.15733e-07
4.64561e-06
1.5476e-05
3.31835e-05
5.48195e-05
7.72117e-05
9.72435e-05
0.000113132
0.000125016
0.000134036
0.000140005
0.000143598
0.000145304
0.000145421
0.000144164
0.000141696
0.000138193
0.000133705
0.0001281
0.000121879
0.000114775
0.000106429
9.70114e-05
8.40108e-05
6.92658e-05
5.54005e-05
4.29542e-05
3.47549e-05
3.19973e-05
3.57594e-05
5.08797e-05
7.42062e-05
9.42635e-05
0.000107525
0.000115264
0.000120357
0.000126622
0.00013728
0.000153793
0.000162514
0.00017627
0.00019957
0.000228488
0.000263906
0.000306006
0.000352768
0.000404703
0.000459621
0.000517113
0.000575965
0.000635883
0.000695977
0.000755911
0.000815151
0.000873428
0.000930197
0.000985618
0.00103999
0.00109271
0.00114402
0.00119388
0.00124238
0.00128965
0.00133577
0.00138085
0.00142499
0.00146828
0.0015108
0.00155261
0.00159377
0.00163431
0.00167428
0.00171369
0.00175256
0.0017909
0.00182871
0.001866
0.00190275
0.00193898
0.00197468
0.00200985
0.00204449
0.00207858
0.00211214
0.00214515
0.00217761
0.0022095
0.00224083
0.00227156
0.0023017
0.00233123
0.00236013
0.0023884
0.00241603
0.00244303
0.00246939
0.00249513
0.00252026
0.00254478
0.00256871
0.00259202
0.00261473
0.00263682
0.0026583
0.00267916
0.0026994
0.00271902
0.00273802
0.00275639
0.00277415
0.0027913
0.00280783
0.00282376
0.00283908
0.00285381
0.00286792
0.00288142
0.00289433
0.00290662
0.0029183
0.00292936
0.00293981
0.00294963
0.00295881
0.00296736
0.00297527
0.00298253
0.00298914
0.0029951
0.00300043
0.00300527
0.00300952
0.00301304
0.00301583
0.00301783
0.00301927
0.00302019
0.00302053
0.00302027
0.00301941
0.00301795
0.00301591
0.00301329
0.00301011
0.00300638
0.00300211
0.00299731
0.00299201
0.00298622
0.00297994
0.00297321
0.00296602
0.00295839
0.00295033
0.00294185
0.00293298
0.00292371
0.00291411
0.00290417
0.00289394
0.00288343
0.00287267
0.00286166
0.00285042
0.00283894
0.00282722
0.00281526
0.00280308
0.00279067
0.00277803
0.00276513
0.00275194
0.00273835
0.00272416
0.00270903
0.00269207
0.00267059
0.0026374
2.02184e-09
1.91439e-07
2.41772e-06
1.27958e-05
3.42406e-05
6.20163e-05
8.99382e-05
0.000113583
0.000131827
0.000145099
0.000154414
0.000159979
0.000162804
0.000163721
0.000163253
0.000161702
0.000159229
0.000155915
0.000151704
0.00014655
0.000140455
0.000133553
0.00012541
0.000112785
9.61189e-05
8.09462e-05
6.69215e-05
5.48005e-05
4.7415e-05
4.85836e-05
6.16465e-05
8.06675e-05
0.000104981
0.000121401
0.000133445
0.000142009
0.000149803
0.000160892
0.000177894
0.0001852
0.000198433
0.000221073
0.000249126
0.000284769
0.000326723
0.000375144
0.000428828
0.000486084
0.000546412
0.000608434
0.000671761
0.000735664
0.000799775
0.000863607
0.000926919
0.000989072
0.00105019
0.00111064
0.00116957
0.00122728
0.00128362
0.00133868
0.00139246
0.00144504
0.00149649
0.00154689
0.00159632
0.00164486
0.00169257
0.00173952
0.00178575
0.00183131
0.00187622
0.00192051
0.0019642
0.00200728
0.00204976
0.00209164
0.00213291
0.00217357
0.00221362
0.00225305
0.00229186
0.00233005
0.00236763
0.00240458
0.00244091
0.00247663
0.00251171
0.00254617
0.00257998
0.00261315
0.00264566
0.00267751
0.00270868
0.00273917
0.00276898
0.00279809
0.00282652
0.00285427
0.00288135
0.00290777
0.00293351
0.00295857
0.00298295
0.00300665
0.00302965
0.00305196
0.00307357
0.00309449
0.00311472
0.00313425
0.00315309
0.00317124
0.00318871
0.0032055
0.00322162
0.00323708
0.00325185
0.00326594
0.00327935
0.00329207
0.00330411
0.00331546
0.00332611
0.00333607
0.00334532
0.00335388
0.00336172
0.00336886
0.00337529
0.00338109
0.00338635
0.00339094
0.00339475
0.00339771
0.00339994
0.00340154
0.00340254
0.00340291
0.00340264
0.00340174
0.00340022
0.00339812
0.00339544
0.00339217
0.00338832
0.00338391
0.00337896
0.00337348
0.00336749
0.003361
0.00335402
0.00334657
0.00333866
0.0033303
0.00332149
0.00331227
0.00330264
0.00329265
0.0032823
0.00327164
0.00326068
0.00324943
0.00323792
0.00322615
0.00321411
0.00320181
0.00318926
0.00317645
0.00316341
0.00315014
0.00313661
0.00312281
0.00310866
0.00309401
0.00307858
0.00306163
0.00304109
0.00301112
6.05996e-09
5.04166e-07
6.43543e-06
2.79192e-05
6.02159e-05
9.35023e-05
0.000121036
0.00014189
0.000156908
0.000166818
0.000172443
0.000175098
0.000175726
0.000174893
0.000173003
0.000170288
0.000166791
0.000162377
0.000157058
0.000150891
0.0001441
0.000136467
0.000123847
0.000107653
9.36771e-05
8.27067e-05
7.62812e-05
7.62886e-05
7.89413e-05
8.90915e-05
0.000111239
0.000135747
0.000157261
0.000167702
0.000177239
0.000188664
0.000198559
0.000205491
0.000218134
0.000238264
0.000264361
0.00029818
0.00033823
0.000385166
0.000437755
0.000495243
0.000556141
0.00061927
0.000684051
0.000749729
0.000815947
0.000882269
0.000948405
0.00101376
0.00107833
0.00114259
0.00120567
0.00126774
0.00132861
0.00138834
0.00144689
0.00150429
0.00156056
0.00161576
0.00166995
0.00172317
0.00177549
0.00182697
0.00187765
0.00192759
0.00197683
0.00202538
0.00207329
0.00212055
0.00216717
0.00221314
0.00225846
0.00230313
0.00234712
0.00239044
0.00243307
0.00247501
0.00251627
0.00255684
0.00259673
0.00263593
0.00267447
0.00271233
0.00274953
0.00278606
0.00282193
0.00285713
0.00289165
0.00292549
0.00295864
0.0029911
0.00302284
0.00305386
0.00308417
0.0031138
0.00314273
0.00317096
0.00319848
0.00322529
0.00325137
0.00327672
0.00330134
0.00332522
0.00334834
0.00337073
0.00339236
0.00341324
0.00343337
0.00345275
0.00347139
0.00348929
0.00350645
0.00352287
0.00353854
0.00355348
0.00356767
0.00358113
0.00359385
0.00360582
0.00361706
0.00362756
0.00363731
0.00364632
0.00365459
0.00366212
0.0036689
0.0036751
0.00368066
0.00368552
0.00368958
0.00369274
0.00369523
0.00369703
0.0036982
0.00369871
0.00369857
0.00369778
0.00369633
0.00369428
0.00369163
0.00368837
0.00368454
0.00368013
0.00367516
0.00366966
0.00366364
0.00365711
0.00365008
0.00364257
0.00363459
0.00362614
0.00361725
0.00360792
0.00359819
0.00358807
0.0035776
0.00356679
0.00355566
0.00354424
0.00353254
0.00352056
0.00350829
0.00349575
0.00348294
0.00346987
0.00345656
0.00344302
0.00342924
0.00341521
0.00340088
0.00338616
0.00337084
0.00335446
0.00333532
0.00330915
1.58732e-08
1.25275e-06
1.46882e-05
4.7927e-05
8.79077e-05
0.000123035
0.00014949
0.00016707
0.000177931
0.000184027
0.000186476
0.000186229
0.000184112
0.000180845
0.000176896
0.00017243
0.000167416
0.000161825
0.000155586
0.00014839
0.000140244
0.000130262
0.000114599
0.0001022
9.51033e-05
9.1736e-05
9.11467e-05
9.97629e-05
0.000117407
0.000138903
0.000160274
0.000179604
0.00019519
0.000205869
0.000213958
0.000222636
0.000234486
0.000252375
0.000275854
0.000306567
0.000343687
0.000387484
0.000437039
0.000492079
0.000551399
0.000613913
0.000678466
0.000744305
0.000810996
0.000878097
0.000945312
0.00101224
0.00107847
0.00114448
0.00120982
0.00127434
0.00133789
0.00140045
0.00146196
0.00152244
0.00158186
0.00164025
0.00169764
0.00175407
0.00180957
0.0018642
0.001918
0.00197102
0.00202327
0.00207483
0.00212571
0.00217594
0.00222555
0.00227453
0.00232288
0.00237055
0.00241756
0.00246388
0.00250949
0.00255439
0.00259856
0.00264198
0.00268467
0.00272663
0.00276787
0.00280842
0.00284831
0.00288748
0.00292596
0.00296373
0.00300082
0.00303722
0.00307294
0.00310797
0.00314232
0.00317598
0.00320894
0.00324123
0.00327282
0.00330373
0.00333393
0.00336343
0.0033922
0.00342025
0.00344755
0.00347409
0.00349988
0.00352489
0.00354912
0.00357257
0.00359523
0.0036171
0.00363817
0.00365845
0.00367794
0.00369664
0.00371455
0.00373167
0.003748
0.00376355
0.00377831
0.00379229
0.0038055
0.00381792
0.00382958
0.00384046
0.00385057
0.00385992
0.0038685
0.00387632
0.0038834
0.00388991
0.00389574
0.00390078
0.00390505
0.00390846
0.00391119
0.00391325
0.00391463
0.00391536
0.00391544
0.00391487
0.00391366
0.00391184
0.00390941
0.00390639
0.0039028
0.00389864
0.00389393
0.00388869
0.00388294
0.00387668
0.00386993
0.0038627
0.00385501
0.00384685
0.00383825
0.00382922
0.00381978
0.00380996
0.00379978
0.00378926
0.00377843
0.0037673
0.00375587
0.00374415
0.00373215
0.00371986
0.00370729
0.00369447
0.00368141
0.00366811
0.00365459
0.00364085
0.00362687
0.00361258
0.00359785
0.00358228
0.00356447
0.00354175
3.56753e-08
2.90796e-06
2.69731e-05
7.0461e-05
0.000113504
0.000147654
0.000171317
0.000186344
0.000194097
0.000196288
0.000194811
0.000191064
0.000186015
0.000180259
0.000174171
0.000167644
0.000160911
0.000153771
0.00014627
0.000138646
0.000130887
0.000123013
0.000115601
0.000110066
0.000109426
0.000116254
0.000128543
0.000144757
0.000163168
0.000181578
0.000198305
0.000211856
0.000222761
0.000234193
0.000246885
0.000263447
0.000284558
0.000312033
0.000345625
0.000385551
0.000431172
0.000482193
0.000537885
0.000597572
0.000660193
0.000724792
0.0007906
0.000857116
0.000924007
0.000990987
0.00105749
0.00112368
0.00118969
0.00125498
0.0013195
0.00138318
0.00144595
0.00150779
0.00156866
0.00162858
0.00168754
0.00174556
0.00180267
0.00185891
0.00191433
0.00196897
0.00202288
0.00207608
0.00212855
0.00218039
0.00223164
0.00228231
0.00233243
0.002382
0.00243108
0.00247974
0.00252781
0.00257517
0.00262177
0.00266759
0.00271262
0.00275684
0.00280025
0.00284285
0.00288466
0.00292569
0.00296594
0.00300547
0.00304432
0.00308251
0.00312005
0.00315694
0.0031932
0.00322883
0.00326382
0.00329819
0.00333192
0.00336501
0.00339745
0.00342922
0.00346031
0.00349072
0.00352042
0.00354939
0.00357763
0.00360512
0.00363184
0.00365778
0.00368292
0.00370726
0.00373079
0.0037535
0.00377539
0.00379645
0.00381669
0.00383609
0.00385467
0.00387242
0.00388934
0.00390544
0.00392071
0.00393518
0.00394883
0.00396167
0.00397372
0.00398497
0.00399543
0.00400511
0.00401402
0.00402215
0.00402957
0.00403637
0.00404245
0.00404777
0.00405229
0.00405604
0.00405909
0.00406145
0.00406315
0.00406419
0.00406459
0.00406436
0.0040635
0.00406204
0.00405998
0.00405735
0.00405415
0.00405041
0.00404613
0.00404133
0.00403603
0.00403024
0.00402397
0.00401724
0.00401004
0.0040024
0.00399431
0.0039858
0.0039769
0.00396762
0.00395799
0.00394802
0.00393775
0.00392717
0.0039163
0.00390514
0.00389369
0.00388196
0.00386995
0.00385769
0.00384518
0.00383245
0.00381952
0.00380639
0.00379305
0.00377949
0.00376562
0.00375112
0.00373489
0.00371594
6.88181e-08
6.04828e-06
4.15946e-05
9.29426e-05
0.000138266
0.000170635
0.000191525
0.000202283
0.000205578
0.000203882
0.000199026
0.000192315
0.000184649
0.000176308
0.000167875
0.000159397
0.00015094
0.000143386
0.000136655
0.000131079
0.00012684
0.000125094
0.000126899
0.000132836
0.000142548
0.000154978
0.000169554
0.000185234
0.000200975
0.000215254
0.000227538
0.00024054
0.000255105
0.000271566
0.000291269
0.000315972
0.000346096
0.000382014
0.000423344
0.000469805
0.000520871
0.000576098
0.00063484
0.000696369
0.000759843
0.000824533
0.000889897
0.000955569
0.00102115
0.00108628
0.00115145
0.00121608
0.00128009
0.00134334
0.00140576
0.00146729
0.00152792
0.00158765
0.00164648
0.00170444
0.00176153
0.00181775
0.0018731
0.00192769
0.00198159
0.00203484
0.00208753
0.00213976
0.00219182
0.00224341
0.00229448
0.00234502
0.00239504
0.00244456
0.00249355
0.00254193
0.00258971
0.00263684
0.00268327
0.00272899
0.00277396
0.00281815
0.00286153
0.00290412
0.00294593
0.00298698
0.00302734
0.00306702
0.00310605
0.00314443
0.0031822
0.00321936
0.00325593
0.00329192
0.00332732
0.00336214
0.00339637
0.00343002
0.00346306
0.00349548
0.00352727
0.00355842
0.00358891
0.0036187
0.00364779
0.00367615
0.00370375
0.00373058
0.00375662
0.00378186
0.00380627
0.00382986
0.0038526
0.0038745
0.00389554
0.00391572
0.00393504
0.0039535
0.00397109
0.00398783
0.00400372
0.00401876
0.00403295
0.00404631
0.00405885
0.00407057
0.00408148
0.00409159
0.00410093
0.00410948
0.00411734
0.00412452
0.00413096
0.00413665
0.00414158
0.00414577
0.00414924
0.00415202
0.00415415
0.00415563
0.00415648
0.00415672
0.00415634
0.00415537
0.00415383
0.00415172
0.00414907
0.00414588
0.00414218
0.00413797
0.00413328
0.00412811
0.00412249
0.00411641
0.00410989
0.00410292
0.00409552
0.00408771
0.00407951
0.00407095
0.00406206
0.00405284
0.00404332
0.00403351
0.00402341
0.00401302
0.00400235
0.00399139
0.00398017
0.00396869
0.00395698
0.00394506
0.00393294
0.00392064
0.00390817
0.00389553
0.00388269
0.0038694
0.00385471
0.0038391
1.12501e-07
1.03883e-05
5.50047e-05
0.000111223
0.000158234
0.000190143
0.000207794
0.000214822
0.000214661
0.000209943
0.00020258
0.000193752
0.000184389
0.00017541
0.000166867
0.000159528
0.000152992
0.000148416
0.000145736
0.000145082
0.000146819
0.000151238
0.000158373
0.000167954
0.000179466
0.000192303
0.000205895
0.000219217
0.000231676
0.000244924
0.000260459
0.000277648
0.000296707
0.000319539
0.000346771