/*--------------------------------*- C++ -*----------------------------------*\
  =========                 |
  \\      /  F ield         | OpenFOAM: The Open Source CFD Toolbox
   \\    /   O peration     | Website:  https://openfoam.org
    \\  /    A nd           | Version:  13
     \\/     M anipulation  |
\*---------------------------------------------------------------------------*/
FoamFile
{
    format      ascii;
    class       volScalarField;
    location    "600";
    object      omega;
}
// * * * * * * * * * * * * * * * * * * * * * * * * * * * * * * * * * * * * * //

dimensions      [0 0 -1 0 0 0 0];

internalField   nonuniform List<scalar> 
12225
(
31477.7
37187.2
42217.8
50595.5
52680.5
53500.5
45735.2
39958.9
43151
48187
50189.6
49404.7
42736.4
39720.5
31477.7
31477.7
31477.7
31477.7
988.908
7503.63
11684
15339.3
20359.5
20957.7
19775.6
18707
18566.8
19291.3
18957
21347.7
20384.3
19426.3
19526.2
18420.9
18006.5
17664.5
539.208
1379.15
2697.36
4016.62
5224.95
6123.63
6581.97
6902.47
7155.53
7365.2
7527.56
7828.38
7928.49
8004.09
8226.94
8544.05
8688.74
8740.18
459.67
823.869
1519.04
2243.5
2405.36
3670.35
3836.88
3974.63
4067.66
4202.67
4302.78
5208.06
5104.09
5412.95
5518.04
5370.5
5166.14
5081.94
446.197
1618.7
2006.29
2261.99
2649.22
2967.99
5327.33
5125.26
6145.65
6639.56
6556.57
6219.7
5508.73
4780.8
4227.89
3737.46
3306.29
2972.55
438.417
1135.77
2098.9
2720.36
2890.66
3635.77
5146.36
5059.51
5495.61
5496.27
5174.84
4847.49
4412.02
3861.11
3266.9
2742.61
2311.67
2001.03
433.719
714.367
1194.59
1568.52
1692.96
2252.17
3067.93
3088.9
3221.53
3139.03
2946.33
2804.09
2606.22
2301.13
1973.57
1686.44
1453.49
1299.89
435.037
488.451
630.242
732.701
870.409
1154.76
1388.68
1507.91
1570.79
1575.65
1558.65
1526.98
1430.53
1286.94
1143.41
1028.12
958.065
915.519
437.237
443.47
472.053
500.455
525.5
610.059
698.139
766.609
820.687
837.112
841.477
862.196
861.351
834
787.233
735.952
695.02
678.336
437.921
437.246
439.334
441.316
448.987
465.323
498.423
523.111
549.128
571.179
577.943
585.624
583.77
573.448
562.364
553.715
545.251
542.37
438.92
436.393
433.188
430.346
431.775
432.414
440.606
449.262
457.481
463.68
468.864
474.449
477.122
478.466
478.536
474.552
474.449
471.334
438.953
436.83
433.684
431.552
429.29
427.992
428.379
430.332
432.007
433.325
435.706
436.765
437.704
436.512
437.835
436.278
436.912
435.809
439.003
436.772
434.328
432.314
430.349
428.638
427.259
426.491
425.535
424.86
424.027
423.109
422.291
421.262
420.365
419.34
418.608
417.95
439
436.779
434.592
432.589
430.67
428.909
427.216
425.737
424.243
422.911
421.552
420.274
419.01
417.814
416.637
415.547
414.517
413.609
438.999
436.778
434.649
432.647
430.733
428.936
427.209
425.594
424.034
422.571
421.154
419.816
418.522
417.298
416.116
415
413.934
412.931
439.001
436.774
434.656
432.648
430.739
428.927
427.201
425.562
423.999
422.513
421.094
419.743
418.453
417.224
416.049
414.929
413.86
412.84
439.001
436.772
434.655
432.645
430.734
428.919
427.192
425.549
423.984
422.494
421.073
419.719
418.428
417.197
416.021
414.9
413.828
412.807
439
436.769
434.65
432.638
430.725
428.908
427.178
425.533
423.966
422.474
421.052
419.696
418.403
417.17
415.993
414.87
413.797
412.774
439
436.771
434.653
432.642
430.73
428.912
427.183
425.538
423.97
422.478
421.055
419.699
418.406
417.172
415.995
414.871
413.798
412.774
439.001
436.772
434.656
432.644
430.734
428.917
427.189
425.545
423.978
422.487
421.065
419.71
418.417
417.184
416.007
414.884
413.811
412.787
439.004
436.769
434.662
432.643
430.744
428.919
427.2
425.553
423.991
422.5
421.081
419.726
418.438
417.203
416.035
414.909
413.845
412.82
439.007
436.766
434.671
432.641
430.761
428.923
427.225
425.575
424.024
422.547
421.133
419.795
418.531
417.301
416.183
415.055
414.053
413.034
438.986
436.777
434.68
432.676
430.83
429.014
427.389
425.789
424.338
422.945
421.645
420.43
419.334
418.27
417.38
416.457
415.681
414.953
438.806
436.821
434.824
433.219
431.754
430.296
429.225
428.077
427.378
426.541
426.107
425.568
425.547
425.558
425.624
425.778
426.174
426.416
437.375
436.488
437.431
439.386
440.137
443.161
443.405
444.341
446.959
448.625
451.904
454.023
458.06
460.723
465.271
468.105
472.801
475.765
427.915
444.166
468.64
483.656
495.308
499.725
511.63
520.959
534.718
544.906
559.822
570.748
586.419
597.084
612.692
622.298
637.111
646.11
385.775
512.324
629.819
694.12
731.781
761.236
804.421
843.183
892.528
932.639
981.801
1019.6
1065.87
1099.24
1141.59
1169.89
1208.28
1233.54
319.196
951.057
1437.54
1722.87
1889.46
2026.76
2209.99
2368.4
2532.15
2660.39
2796.73
2896.76
3010.88
3089.51
3189.08
3254.11
3345.71
3404.22
1460.82
4252.37
6545.03
7722.25
8571.74
9112.27
9481.47
9731.1
9877.73
9960.23
9978
9965.81
9937.66
9890.56
9856.42
9823.75
9813.01
9803.19
18117.5
22993.5
25175.6
26293.9
26749.3
26725
26639
26387.4
26075.7
25747.9
25426.7
25124.6
24846
24593.9
24364.5
24161.7
23978.2
23814.4
11463.2
2514.24
2516.41
2518.61
2520.83
2523.07
2525.32
2527.6
2529.9
2532.22
2534.57
2536.93
2539.31
2541.72
2544.15
2546.6
2549.08
2551.57
2554.09
2556.64
2559.2
2561.79
2564.41
2567.05
2569.71
2572.4
2575.12
2577.86
2580.62
2583.41
2586.23
2589.08
2591.95
2594.85
2597.77
2600.73
2603.71
2606.72
2609.76
2612.82
2615.92
2619.05
2622.2
2625.39
2628.61
2631.86
2635.14
2638.45
2641.79
2645.17
2648.58
2652.02
2655.5
2659.01
2662.55
2666.13
2669.74
2673.39
3203.32
3348.73
3179.2
3237.8
2692.19
3206.21
3354.85
3449.25
3522.8
3611.45
3684.28
3761.07
3831.7
3902.52
3969.64
4036.3
4100.35
4163.59
4224.95
4285.29
4344.19
4401.99
4458.6
4514.1
4568.56
4621.92
4674.32
4725.64
4776.04
4825.37
4873.78
4921.08
4967.37
5012.62
5056.83
5099.96
5141.94
5182.76
5222.3
5260.61
5297.64
5333.62
5368.89
5403.21
5436.66
5469.34
5501.23
5532.32
5562.67
5592.14
5620.89
5648.72
5675.82
5701.99
5727.41
5751.9
5775.61
5798.39
5820.36
5841.4
5861.59
5880.85
5899.22
5916.62
5933.06
5948.53
5962.97
5976.42
5988.73
5999.91
6009.65
6017.76
6024.09
6032.32
6039.74
6046.66
6052.68
6056.93
6062.09
6063.92
6066.21
6066.81
6066.9
6065.53
6063.13
6059.95
6055.96
6051.2
6045.7
6039.5
6032.62
6025.1
6016.97
6008.32
5999.02
5989.46
5979.06
5968.73
5957.4
5946.4
5934.39
5922.99
5910.59
5898.76
5886.51
5874.33
5862.14
5849.91
5837.73
5825.51
5813.37
5801.23
5789.2
5777.17
5765.18
5752.95
5740.25
5726.26
5710.14
5689.19
5657.65
5540.31
11463.2
1992.12
990.161
805.008
688.476
608.61
612.003
610.654
600.747
582.084
559.401
536.658
515.974
498.868
487.205
478.851
478.793
483.213
499.176
549.465
628.025
725.39
833.665
942.273
1043.39
1121.94
1175.3
1172.03
1142.82
1069.47
949.213
807.318
660.547
572.141
509.605
462.017
444.478
446.273
461.343
486.953
521.133
550.707
607.738
709.116
836.918
1040.01
1346.41
1639.77
1840.36
1971.46
2037.7
2055.74
2043.49
2003.61
1969.03
1929.02
1873.15
1820.77
1800.04
1762.56
1692.06
1670.23
1640.51
1658.49
1650.39
1647.11
1645.41
1645.07
1646.3
1650.01
1653.82
1659.16
1664.64
1671.02
1677.5
1684.49
1691.56
1698.88
1706.26
1713.75
1721.27
1728.82
1736.36
1743.88
1751.37
1758.78
1766.13
1773.39
1780.55
1787.59
1794.54
1801.35
1808.06
1814.61
1821.06
1827.42
1833.79
1840.31
1847.26
1855.02
1864.18
1873.11
1881.8
1890.4
1898.77
1906.98
1914.99
1922.8
1930.42
1937.83
1945.04
1952.04
1958.83
1965.4
1971.76
1977.89
1983.8
1989.49
1994.94
2000.15
2005.12
2009.85
2014.34
2018.59
2022.59
2026.35
2029.84
2033.08
2036.06
2038.8
2041.41
2044.08
2046.42
2048.72
2050.73
2052.55
2054.38
2055.45
2056.23
2055.88
2055.76
2055.4
2054.76
2053.94
2052.94
2051.75
2050.39
2048.87
2047.19
2045.35
2043.39
2041.3
2039.16
2036.47
2034.49
2031.32
2029.29
2025.69
2023.43
2020.1
2017.41
2014.36
2011.28
2008.19
2005.06
2001.89
1998.7
1995.48
1992.27
1989.04
1985.82
1982.62
1979.47
1976.34
1973.29
1970.4
1967.78
1965.86
1963.76
1972.62
11463.2
2003.74
801.966
613.37
644.475
656.112
632.757
584.673
527.558
473.211
424.676
384.082
351.905
326.507
306.834
291.693
280.869
273.002
269.966
272.792
279.945
297.921
327.569
368.279
421.133
479.203
542.231
591.849
631.113
634.62
621.644
587.545
527.263
460.001
400.259
367.194
371.157
386.122
412.667
454.223
531.125
644.375
802.8
993.744
1162.68
1305.86
1435.11
1515.78
1540.94
1539.18
1491.72
1439.07
1379.13
1323.98
1275.64
1233.2
1196.61
1167.37
1144.12
1124.06
1109.46
1100.61
1094.24
1091.6
1088.47
1087.89
1087.64
1088.46
1090.27
1092.65
1095.39
1098.56
1101.95
1105.61
1109.41
1113.37
1117.43
1121.58
1125.79
1130.06
1134.36
1138.69
1143.02
1147.37
1151.7
1156.03
1160.34
1164.62
1168.88
1173.12
1177.32
1181.51
1185.68
1189.84
1194.03
1198.26
1202.57
1207.02
1211.64
1216.47
1221.38
1226.15
1230.83
1235.42
1239.89
1244.27
1248.52
1252.66
1256.68
1260.59
1264.36
1268.02
1271.54
1274.93
1278.19
1281.32
1284.3
1287.15
1289.85
1292.41
1294.82
1297.09
1299.21
1301.19
1303.03
1304.72
1306.26
1307.67
1308.94
1310.08
1311.13
1312.09
1312.88
1313.58
1314.13
1314.56
1314.87
1314.87
1314.71
1314.38
1314.03
1313.49
1312.81
1312.03
1311.14
1310.14
1309.05
1307.85
1306.56
1305.18
1303.71
1302.15
1300.52
1298.74
1297.05
1295.06
1293.28
1291.1
1289.22
1287.02
1284.95
1282.75
1280.5
1278.22
1275.88
1273.51
1271.11
1268.67
1266.2
1263.71
1261.22
1258.72
1256.25
1253.83
1251.54
1249.48
1247.83
1247.17
1248.01
1257.9
11463.2
2030.69
976.036
926.139
868.405
754.696
643.509
541.317
458.953
397.081
350.519
314.086
285.554
263.444
246.412
233.373
223.56
216.413
211.567
209.376
209.834
213.327
219.587
232.249
251.877
278.077
311.553
346.168
380.322
405.032
418.438
414.505
402.548
376.49
389.452
449.236
526.948
579.234
631.348
702.64
808.865
943.772
1057.6
1134.69
1201.49
1251.75
1270.47
1232.26
1193.36
1147.34
1095.11
1050.81
1010.04
976.971
949.271
927.003
909.387
895.94
885.558
877.735
872.745
869.54
867.723
867.161
866.918
867.826
869.176
871.022
873.251
875.758
878.485
881.412
884.481
887.685
890.988
894.382
897.845
901.369
904.941
908.551
912.192
915.855
919.533
923.22
926.912
930.604
934.293
937.976
941.651
945.316
948.974
952.629
956.286
959.948
963.626
967.327
971.06
974.829
978.628
982.433
986.189
989.861
993.456
996.971
1000.4
1003.74
1006.99
1010.14
1013.19
1016.15
1019
1021.75
1024.39
1026.92
1029.34
1031.65
1033.85
1035.93
1037.89
1039.74
1041.46
1043.07
1044.56
1045.94
1047.19
1048.33
1049.36
1050.27
1051.07
1051.76
1052.35
1052.84
1053.2
1053.45
1053.6
1053.62
1053.51
1053.25
1052.87
1052.37
1051.8
1051.12
1050.33
1049.45
1048.47
1047.4
1046.23
1044.99
1043.65
1042.23
1040.73
1039.16
1037.5
1035.76
1033.99
1032.1
1030.21
1028.18
1026.19
1024.07
1021.94
1019.74
1017.5
1015.2
1012.86
1010.47
1008.05
1005.59
1003.09
1000.57
998.038
995.491
992.964
990.491
988.132
985.991
984.221
983.287
983.868
989.666
11463.2
2272.02
1402.84
1149.34
920.49
719.133
557.524
446.725
370.85
317.411
279.368
251.966
232.002
217.097
205.73
196.971
190.271
185.305
181.869
179.929
179.944
181.161
183.849
189.664
199.053
212.849
232.07
254.796
278.997
301.378
315.624
331.342
357.163
434.754
536.309
608.384
668.444
735.202
809.022
880.718
945.482
1001.33
1049.11
1077.85
1085.64
1054.78
1010.4
973.645
933.656
897.026
863.963
837.181
814.358
796.312
781.765
770.549
762.092
756.002
751.737
749.27
747.99
747.645
748.027
749.159
750.739
752.785
755.129
757.735
760.547
763.525
766.639
769.872
773.202
776.619
780.108
783.661
787.268
790.92
794.61
798.331
802.074
805.835
809.608
813.387
817.168
820.947
824.72
828.487
832.244
835.991
839.726
843.453
847.171
850.881
854.583
858.276
861.958
865.619
869.248
872.831
876.347
879.788
883.153
886.438
889.638
892.75
895.773
898.702
901.536
904.272
906.91
909.445
911.877
914.201
916.42
918.529
920.529
922.417
924.194
925.857
927.408
928.846
930.173
931.387
932.488
933.478
934.355
935.123
935.78
936.33
936.77
937.098
937.307
937.381
937.34
937.193
936.935
936.547
936.041
935.428
934.719
933.904
932.987
931.972
930.859
929.651
928.349
926.956
925.473
923.903
922.247
920.51
918.69
916.793
914.832
912.79
910.697
908.519
906.304
904.011
901.674
899.274
896.82
894.316
891.763
889.165
886.527
883.85
881.138
878.397
875.636
872.875
870.131
867.434
864.839
862.431
860.335
858.881
858.664
861.334
11463.2
2832.84
1683.91
1184.77
828.372
586.773
443.953
355.221
299.478
263.764
238.902
220.523
206.245
194.865
185.686
178.33
172.59
168.345
165.451
163.911
163.932
164.945
167.351
171.806
178.482
188.047
201.898
219.985
242.338
271.926
317.807
378.959
476.727
579.18
652.857
714.268
772.171
821.967
861.852
896.935
931.111
948.575
950.791
923.097
892.981
860.986
827.842
798.924
771.455
748.494
729.011
713.319
700.535
690.63
683.058
677.587
673.861
671.83
671
670.91
671.753
673.224
675.233
677.665
680.416
683.43
686.643
690.02
693.53
697.152
700.87
704.672
708.549
712.491
716.491
720.542
724.637
728.768
732.929
737.111
741.309
745.516
749.725
753.933
758.133
762.323
766.498
770.655
774.793
778.908
783.001
787.069
791.112
795.128
799.113
803.064
806.975
810.835
814.636
818.372
822.032
825.611
829.106
832.514
835.83
839.052
842.176
845.201
848.122
850.939
853.649
856.25
858.74
861.119
863.385
865.536
867.573
869.495
871.302
872.992
874.565
876.022
877.362
878.584
879.69
880.678
881.549
882.302
882.939
883.459
883.861
884.144
884.264
884.248
884.141
883.911
883.556
883.073
882.468
881.746
880.913
879.966
878.908
877.743
876.469
875.09
873.607
872.023
870.34
868.56
866.686
864.72
862.666
860.527
858.311
856.016
853.652
851.211
848.708
846.135
843.502
840.808
838.055
835.248
832.391
829.487
826.541
823.554
820.531
817.477
814.401
811.32
808.251
805.224
802.283
799.499
796.966
794.925
793.711
794.315
11463.2
3351.85
1744.14
1034.23
652.825
457.567
353.623
295.046
258.71
234.19
216.343
202.614
191.736
182.701
175.081
168.725
163.605
159.731
157.206
156.103
156.443
158.106
161.631
167.307
175.86
188.298
204.926
229.098
266.577
324.802
413.807
516.83
598.331
661.632
715.49
758.364
791.401
818.731
841.052
850.688
848.712
826.486
804.88
779.107
754.22
729.664
706.778
687.012
669.7
655.501
643.828
634.591
627.437
622.203
618.6
616.657
615.942
615.985
617.057
618.807
621.169
623.998
627.213
630.728
634.478
638.416
642.502
646.711
651.022
655.421
659.897
664.444
669.054
673.72
678.438
683.199
687.997
692.823
697.669
702.528
707.392
712.252
717.104
721.94
726.755
731.545
736.306
741.033
745.724
750.376
754.988
759.556
764.08
768.556
772.98
777.349
781.658
785.902
790.075
794.166
798.169
802.078
805.891
809.604
813.212
816.714
820.105
823.384
826.548
829.595
832.521
835.328
838.013
840.575
843.013
845.327
847.514
849.571
851.503
853.31
854.99
856.545
857.974
859.276
860.451
861.498
862.418
863.209
863.872
864.407
864.814
865.072
865.16
865.111
864.953
864.661
864.232
863.666
862.967
862.138
861.182
860.1
858.891
857.55
856.086
854.501
852.8
850.985
849.059
847.023
844.882
842.639
840.296
837.859
835.335
832.724
830.033
827.261
824.415
821.495
818.508
815.456
812.342
809.171
805.946
802.673
799.356
795.997
792.6
789.171
785.72
782.26
778.81
775.395
772.052
768.837
765.822
763.178
761.066
760.035
11463.2
3519.57
1563.73
820.866
516.288
379.77
311.123
270.584
243.649
224.642
210.046
198.205
188.129
179.472
172.09
165.974
161.232
158.067
156.505
156.522
157.944
161.192
166.869
175.482
189.094
210.345
242.381
293.701
372.369
459.286
534.149
594.984
646.534
689.364
723.133
750.644
768.397
774.845
768.915
752.541
735.682
715.424
696.38
676.883
658.443
641.133
625.783
612.739
601.773
592.923
585.93
580.666
576.947
574.811
573.963
573.925
574.95
576.76
579.291
582.394
585.975
589.941
594.219
598.747
603.473
608.36
613.377
618.504
623.724
629.026
634.401
639.842
645.341
650.893
656.492
662.13
667.799
673.486
679.184
684.883
690.572
696.243
701.888
707.5
713.074
718.603
724.084
729.511
734.88
740.188
745.434
750.614
755.727
760.768
765.735
770.624
775.433
780.161
784.794
789.325
793.749
798.061
802.258
806.336
810.293
814.126
817.833
821.41
824.857
828.17
831.35
834.393
837.301
840.072
842.707
845.204
847.564
849.785
851.87
853.818
855.628
857.299
858.832
860.226
861.479
862.592
863.563
864.391
865.077
865.619
866.017
866.239
866.29
866.19
865.96
865.58
865.049
864.367
863.536
862.558
861.437
860.175
858.778
857.237
855.559
853.749
851.808
849.741
847.551
845.24
842.812
840.271
837.62
834.866
832.014
829.068
826.033
822.911
819.706
816.424
813.068
809.644
806.154
802.603
798.997
795.341
791.638
787.893
784.108
780.293
776.454
772.605
768.764
764.952
761.201
757.556
754.07
750.838
747.936
745.534
11463.2
3395.19
1293.29
662.003
437.254
338.823
287.282
256.964
236.797
221.092
208.479
197.99
189.084
181.439
174.982
169.857
166.312
164.505
164.584
166.973
171.732
180.134
193.526
213.03
242.8
288.453
349.394
417.85
479.433
533.851
580.48
620.395
653.902
682.689
701.89
708.637
705.189
692.784
679.194
663.388
648.284
633.092
618.697
604.605
591.442
579.532
569.264
560.712
553.764
548.368
544.406
541.846
540.659
540.412
541.156
542.796
545.258
548.413
552.172
556.437
561.126
566.167
571.498
577.064
582.823
588.74
594.79
600.954
607.218
613.568
619.992
626.482
633.028
639.622
646.256
652.927
659.619
666.319
673.014
679.694
686.346
692.96
699.528
706.04
712.487
718.859
725.146
731.358
737.491
743.543
749.508
755.386
761.173
766.866
772.459
777.95
783.332
788.598
793.745
798.768
803.662
808.424
813.049
817.536
821.881
826.081
830.137
834.044
837.803
841.41
844.866
848.168
851.319
854.317
857.164
859.859
862.402
864.794
867.035
869.125
871.063
872.848
874.481
875.96
877.284
878.452
879.462
880.315
881.007
881.54
881.908
882.075
882.062
881.897
881.569
881.075
880.412
879.581
878.582
877.42
876.095
874.612
872.972
871.177
869.229
867.133
864.892
862.51
859.99
857.337
854.555
851.647
848.618
845.475
842.223
838.868
835.415
831.867
828.23
824.51
820.713
816.842
812.903
808.9
804.838
800.724
796.563
792.357
788.113
783.837
779.538
775.23
770.926
766.649
762.423
758.286
754.274
750.474
746.907
743.438
11463.2
2998.09
1045.96
563.195
397.834
321.996
280.857
254.944
237.307
224.485
214.289
205.69
198.303
192.135
187.349
184.515
183.798
185.778
190.595
198.936
211.303
230.137
257.463
294.959
340.794
389.242
437.753
482.974
523.157
558.806
589.42
616.509
638.063
647.57
648.449
641.226
631.164
618.817
606.777
594.92
583.737
572.841
562.357
552.305
543.078
534.962
528.135
522.626
518.397
515.403
513.745
513.173
513.48
514.79
516.985
519.985
523.71
528.074
532.995
538.399
544.216
550.386
556.854
563.567
570.484
577.572
584.805
592.163
599.647
607.224
614.878
622.597
630.368
638.172
645.984
653.762
661.534
669.308
677.072
684.809
692.507
700.153
707.737
715.25
722.682
730.029
737.286
744.434
751.466
758.375
765.161
771.821
778.353
784.753
791.017
797.142
803.121
808.953
814.637
820.168
825.545
830.763
835.82
840.711
845.436
849.994
854.383
858.602
862.651
866.529
870.234
873.768
877.13
880.324
883.348
886.206
888.897
891.421
893.781
895.974
898.002
899.862
901.555
903.079
904.433
905.615
906.624
907.457
908.113
908.593
908.88
908.959
908.847
908.559
908.088
907.432
906.588
905.557
904.341
902.941
901.361
899.604
897.672
895.568
893.296
890.859
888.261
885.507
882.602
879.551
876.357
873.026
869.563
865.974
862.266
858.446
854.519
850.491
846.369
842.159
837.867
833.5
829.061
824.554
819.988
815.367
810.696
805.981
801.227
796.443
791.638
786.823
782.013
777.225
772.482
767.813
763.246
758.851
754.613
750.148
11463.2
2526.25
876.738
504.922
373.808
313.497
279.55
259.016
245.35
235.299
227.365
220.955
215.986
213.036
212.249
214.292
219.957
228.776
240.245
255.999
277.579
304.923
337.017
372.152
408.135
443.019
475.9
506.043
532.65
556.846
578.455
590.974
594.633
592.76
587.2
578.787
569.709
560.58
551.989
543.749
535.808
528.025
520.502
513.423
507.07
501.654
497.289
494.012
491.879
490.931
490.822
491.716
493.54
496.257
499.802
504.112
509.112
514.73
520.897
527.547
534.62
542.072
549.863
557.92
566.204
574.676
583.302
592.032
600.782
609.624
618.561
627.58
636.667
645.795
654.944
664.114
673.271
682.4
691.486
700.503
709.437
718.278
727.02
735.652
744.165
752.546
760.783
768.865
776.789
784.55
792.145
799.575
806.838
813.93
820.849
827.591
834.153
840.532
846.728
852.739
858.562
864.195
869.634
874.878
879.925
884.777
889.432
893.893
898.159
902.23
906.107
909.792
913.286
916.591
919.711
922.647
925.402
927.976
930.371
932.587
934.624
936.48
938.154
939.646
940.953
942.073
943.004
943.744
944.29
944.64
944.778
944.698
944.417
943.935
943.251
942.362
941.268
939.969
938.466
936.762
934.859
932.761
930.47
927.991
925.326
922.482
919.462
916.271
912.916
909.401
905.733
901.917
897.958
893.863
889.639
885.295
880.836
876.271
871.609
866.855
862.018
857.102
852.112
847.053
841.932
836.755
831.526
826.254
820.944
815.606
810.25
804.885
799.525
794.185
788.884
783.647
778.492
773.48
768.589
763.215
11463.2
2150.49
801.332
485.834
368.908
314.345
286.033
269.453
258.761
251.349
246.063
242.729
241.451
242.253
246.244
253.543
263.881
276.736
292.844
312.408
335.025
359.88
385.982
412.302
437.957
462.173
484.365
505.161
524.64
538.645
544.618
545.914
544.782
540.636
535.022
528.74
522.519
516.511
510.745
505.094
499.513
494.026
488.784
483.993
479.874
476.589
474.224
472.99
472.657
473.247
474.786
477.251
480.602
484.803
489.815
495.629
502.117
509.217
516.869
525.008
533.558
542.417
551.508
560.895
570.564
580.485
590.625
600.958
611.494
622.162
632.92
643.738
654.605
665.466
676.279
687.019
697.653
708.156
718.513
728.736
738.828
748.79
758.618
768.309
777.852
787.23
796.425
805.425
814.218
822.8
831.17
839.329
847.275
855.007
862.523
869.818
876.89
883.738
890.362
896.761
902.935
908.879
914.593
920.074
925.323
930.341
935.133
939.701
944.048
948.175
952.084
955.779
959.262
962.537
965.61
968.483
971.161
973.647
975.943
978.048
979.962
981.685
983.216
984.552
985.692
986.632
987.371
987.905
988.229
988.345
988.232
987.895
987.337
986.562
985.568
984.352
982.915
981.256
979.377
977.28
974.968
972.444
969.712
966.775
963.639
960.308
956.788
953.084
949.204
945.154
940.939
936.568
932.045
927.379
922.576
917.644
912.593
907.433
902.173
896.822
891.385
885.869
880.279
874.618
868.893
863.11
857.276
851.4
845.489
839.554
833.604
827.648
821.698
815.766
809.87
804.029
798.259
792.61
787.072
780.847
11463.2
1895.36
743.36
468.495
367.347
320.945
297.002
283.488
275.364
270.48
268.119
267.551
269.135
273.418
280.423
289.973
301.807
315.886
331.977
349.612
368.511
388.047
407.476
426.169
443.978
461.21
477.706
491.068
498.734
502.295
503.598
503.317
501.266
498.1
494.46
490.668
486.903
483.17
479.445
475.711
472.017
468.474
465.251
462.53
460.486
459.385
459.097
459.757
461.484
464.116
467.63
472.009
477.221
483.216
489.901
497.092
504.954
513.478
522.617
532.314
542.514
553.188
564.315
575.815
587.649
599.785
612.182
624.796
637.612
650.542
663.49
676.386
689.154
701.764
714.187
726.392
738.354
750.064
761.525
772.765
783.819
794.707
805.439
816.019
826.437
836.667
846.682
856.457
865.975
875.231
884.226
892.962
901.439
909.657
917.612
925.301
932.721
939.87
946.751
953.362
959.705
965.775
971.572
977.095
982.345
987.326
992.045
996.508
1000.72
1004.69
1008.42
1011.91
1015.16
1018.19
1021.01
1023.61
1026
1028.2
1030.19
1031.99
1033.59
1034.99
1036.2
1037.2
1038
1038.59
1038.98
1039.15
1039.1
1038.84
1038.33
1037.59
1036.62
1035.42
1033.99
1032.32
1030.42
1028.28
1025.92
1023.32
1020.49
1017.43
1014.16
1010.67
1006.96
1003.05
998.941
994.637
990.147
985.477
980.637
975.633
970.473
965.164
959.713
954.126
948.419
942.605
936.692
930.688
924.598
918.429
912.186
905.873
899.497
893.061
886.575
880.051
873.498
866.925
860.342
853.757
847.178
840.619
834.091
827.616
821.202
814.895
808.717
801.697
11463.2
1877.68
738.631
470.495
374.766
331.952
310.669
299.264
293.011
290.052
289.201
290.369
294.031
299.896
307.774
317.399
328.522
340.922
354.31
368.381
382.719
396.892
410.81
424.657
437.99
449.206
456.996
462.312
465.889
467.656
468.288
468.291
467.408
466.066
464.486
462.774
460.98
459.13
457.263
455.462
453.871
452.745
452.205
452.15
452.841
454.367
456.672
459.703
463.242
467.625
472.928
479.152
486.274
494.253
503.055
512.712
523.123
534.258
546.059
558.461
571.408
584.862
598.776
613.081
627.726
642.701
657.931
673.291
688.661
703.953
719.099
734.014
748.612
762.829
776.622
789.963
802.835
815.243
827.215
838.851
850.273
861.533
872.648
883.645
894.509
905.194
915.648
925.831
935.705
945.274
954.544
963.518
972.195
980.573
988.649
996.419
1003.88
1011.02
1017.86
1024.38
1030.59
1036.49
1042.07
1047.33
1052.27
1056.91
1061.25
1065.3
1069.07
1072.58
1075.82
1078.79
1081.52
1084.01
1086.27
1088.31
1090.15
1091.78
1093.2
1094.43
1095.44
1096.26
1096.89
1097.32
1097.54
1097.55
1097.37
1096.97
1096.33
1095.48
1094.4
1093.08
1091.52
1089.73
1087.7
1085.42
1082.9
1080.15
1077.15
1073.91
1070.44
1066.73
1062.79
1058.62
1054.24
1049.64
1044.84
1039.84
1034.64
1029.26
1023.7
1017.98
1012.1
1006.08
999.904
993.595
987.172
980.645
974.021
967.308
960.51
953.635
946.688
939.674
932.6
925.464
918.283
911.072
903.839
896.592
889.34
882.09
874.85
867.629
860.439
853.302
846.231
839.258
832.45
824.681
11463.2
1838.41
729.36
474.641
384.663
344.758
325.039
314.557
309.087
306.746
306.288
308.135
312.25
318.114
325.37
333.703
342.913
352.798
363.135
373.679
384.287
395.11
405.403
414.128
421.27
427.086
432.008
435.831
438.828
441.13
442.98
444.535
445.87
447.046
448.034
448.886
449.655
450.399
451.186
452.08
453.111
454.175
455.668
457.895
461.141
465.442
470.704
476.922
484.194
492.439
501.658
511.848
522.983
534.995
547.829
561.461
575.819
590.93
606.675
622.922
639.594
656.631
673.976
691.564
709.322
727.139
744.941
762.68
780.254
797.552
814.451
830.815
846.506
861.432
875.589
888.981
901.614
913.476
924.602
935.262
945.847
956.399
966.876
977.378
987.874
998.247
1008.41
1018.3
1027.89
1037.17
1046.13
1054.78
1063.12
1071.14
1078.85
1086.23
1093.28
1099.99
1106.36
1112.39
1118.08
1123.43
1128.42
1133.05
1137.33
1141.25
1144.83
1148.09
1151.06
1153.72
1156.09
1158.18
1159.99
1161.54
1162.85
1163.96
1164.87
1165.55
1166.03
1166.31
1166.39
1166.26
1165.98
1165.5
1164.81
1163.93
1162.87
1161.59
1160.11
1158.41
1156.48
1154.33
1151.94
1149.32
1146.46
1143.37
1140.03
1136.45
1132.63
1128.56
1124.27
1119.73
1114.97
1109.97
1104.76
1099.33
1093.69
1087.85
1081.82
1075.6
1069.21
1062.66
1055.94
1049.09
1042.11
1035.01
1027.82
1020.52
1013.13
1005.66
998.096
990.461
982.759
974.994
967.175
959.299
951.387
943.456
935.511
927.559
919.607
911.662
903.732
895.827
887.957
880.148
872.412
864.771
857.344
848.873
11463.7
1818.32
729.938
482.969
395.083
356.254
337.426
327.123
321.495
319.04
318.492
320.088
323.685
328.68
334.673
341.395
348.713
356.517
364.707
372.992
380.942
388.427
395.451
402.222
408.506
414.399
419.977
425.231
430.208
434.896
439.284
443.31
446.798
449.895
452.913
455.944
459.069
462.375
465.961
469.94
474.448
479.732
485.943
493.306
502.084
512.131
523.255
535.449
548.719
562.971
578.149
594.239
611.289
629.04
647.314
665.986
684.938
704.011
723.173
742.425
761.745
781.101
800.472
819.829
839.136
858.339
877.381
896.194
914.69
932.758
950.267
967.059
982.91
997.696
1011.52
1024.46
1036.53
1047.75
1058.18
1067.94
1077.21
1086.12
1094.87
1103.93
1113.22
1122.42
1131.39
1140.07
1148.45
1156.53
1164.29
1171.74
1178.89
1185.75
1192.31
1198.55
1204.46
1210.04
1215.28
1220.18
1224.73
1228.93
1232.75
1236.18
1239.23
1241.89
1244.17
1246.09
1247.73
1249.04
1250.04
1250.72
1251.12
1251.21
1251.06
1250.78
1250.28
1249.56
1248.64
1247.54
1246.26
1244.81
1243.2
1241.42
1239.47
1237.35
1235.06
1232.59
1229.93
1227.07
1224.01
1220.75
1217.26
1213.56
1209.63
1205.48
1201.1
1196.49
1191.65
1186.59
1181.29
1175.77
1170.03
1164.06
1157.88
1151.5
1144.91
1138.13
1131.16
1124.01
1116.7
1109.22
1101.6
1093.84
1085.96
1077.99
1069.92
1061.76
1053.5
1045.16
1036.74
1028.25
1019.7
1011.1
1002.45
993.778
985.1
976.413
967.72
959.026
950.338
941.666
933.018
924.405
915.837
907.345
898.939
890.628
882.583
873.455
11462.8
1801.5
731.993
488.851
402.5
364.314
345.865
335.415
329.634
327.06
326.412
327.751
330.963
335.482
341.069
347.385
354.276
361.545
369.052
376.76
384.724
392.641
400.372
408.047
415.631
423.191
430.772
438.403
446.109
453.803
461.475
469.163
476.998
485.057
493.358
501.984
511.029
520.604
530.836
541.87
553.861
566.983
581.284
596.768
613.274
630.764
649.351
669.004
689.577
710.904
732.829
755.275
777.809
800.255
822.467
844.317
865.697
886.526
906.772
926.461
945.626
964.334
982.65
1000.64
1018.34
1035.78
1052.95
1069.84
1086.4
1102.55
1118.21
1133.27
1147.65
1161.14
1173.82
1185.76
1196.93
1207.32
1216.98
1225.89
1233.92
1241.33
1248.57
1255.98
1263.2
1270.08
1276.61
1282.78
1288.63
1294.19
1299.48
1304.51
1309.31
1313.87
1318.18
1322.24
1326.02
1329.51
1332.71
1335.6
1338.19
1340.45
1342.35
1343.88
1345.03
1345.82
1346.22
1346.26
1346.1
1345.64
1344.85
1343.77
1342.43
1340.83
1339.02
1337.05
1334.89
1332.57
1330.08
1327.45
1324.67
1321.76
1318.7
1315.52
1312.2
1308.74
1305.14
1301.39
1297.49
1293.41
1289.17
1284.74
1280.12
1275.3
1270.29
1265.07
1259.65
1254.03
1248.2
1242.16
1235.92
1229.46
1222.8
1215.94
1208.88
1201.63
1194.19
1186.58
1178.79
1170.83
1162.72
1154.46
1146.05
1137.51
1128.85
1120.07
1111.19
1102.21
1093.13
1083.98
1074.74
1065.44
1056.08
1046.67
1037.22
1027.76
1018.31
1008.85
999.387
989.931
980.49
971.075
961.698
952.378
943.14
933.995
924.949
916.001
907.362
897.656
11461.8
1790.82
735.06
491.38
407.368
370.053
352.457
342.403
337.589
335.803
335.707
338.123
342.25
347.716
354.172
361.763
370.467
379.334
388.627
398.651
409.581
421.188
432.978
445.303
458.224
471.768
485.924
500.67
515.937
531.737
548.127
565.11
582.708
600.86
619.486
638.594
658.233
678.494
699.532
721.572
744.653
768.768
793.85
819.753
846.293
873.447
901.459
930.277
959.208
987.847
1015.82
1042.59
1067.89
1091.68
1113.88
1134.43
1153.32
1170.6
1186.4
1200.86
1214.19
1226.59
1238.26
1249.4
1260.16
1270.68
1281.02
1291.23
1301.31
1311.22
1320.91
1330.31
1339.54
1348.67
1357.55
1365.95
1373.74
1380.66
1386.74
1392.28
1397.44
1402.66
1407.79
1412.25
1415.89
1418.98
1421.66
1424.04
1426.2
1428.19
1430.03
1431.74
1433.32
1434.77
1436.08
1437.24
1438.24
1439.06
1439.67
1440.06
1440.21
1440.12
1439.71
1438.99
1437.96
1436.63
1434.99
1433.07
1430.93
1428.53
1425.89
1423.01
1419.93
1416.66
1413.24
1409.68
1406
1402.19
1398.27
1394.24
1390.1
1385.87