/*--------------------------------*- C++ -*----------------------------------*\
  =========                 |
  \\      /  F ield         | OpenFOAM: The Open Source CFD Toolbox
   \\    /   O peration     | Website:  https://openfoam.org
    \\  /    A nd           | Version:  13
     \\/     M anipulation  |
\*---------------------------------------------------------------------------*/
FoamFile
{
    format      ascii;
    class       volScalarField;
    location    "600";
    object      p;
}
// * * * * * * * * * * * * * * * * * * * * * * * * * * * * * * * * * * * * * //

dimensions      [0 2 -2 0 0 0 0];

internalField   nonuniform List<scalar> 
12225
(
-4.18912
-5.07204
-5.46124
-5.59445
-5.7351
-5.90193
-6.05897
-6.16957
-6.24524
-6.3307
-6.41495
-6.49008
-6.56004
-6.62939
-6.70136
-6.77441
-6.85324
-6.94979
-4.46067
-5.10466
-5.4346
-5.56714
-5.70426
-5.86655
-6.01771
-6.13114
-6.21632
-6.29984
-6.38669
-6.46545
-6.5389
-6.60893
-6.67905
-6.7527
-6.82325
-6.87232
-4.67353
-5.10161
-5.41858
-5.57713
-5.71729
-5.87332
-6.01729
-6.13124
-6.22246
-6.30545
-6.38805
-6.46426
-6.53551
-6.60306
-6.6693
-6.73542
-6.79456
-6.83611
-4.81121
-5.11764
-5.4204
-5.58929
-5.7227
-5.86682
-6.00377
-6.11681
-6.20954
-6.29284
-6.37386
-6.44951
-6.51974
-6.5861
-6.65018
-6.71183
-6.76699
-6.80885
-4.92974
-5.16142
-5.43323
-5.60063
-5.72824
-5.86379
-5.99573
-6.10801
-6.20183
-6.28569
-6.36574
-6.44064
-6.50983
-6.5747
-6.63634
-6.69436
-6.74625
-6.7874
-5.03738
-5.214
-5.44772
-5.61043
-5.7354
-5.86388
-5.98989
-6.09949
-6.1925
-6.27569
-6.35416
-6.42755
-6.49545
-6.55885
-6.61846
-6.67387
-6.72336
-6.76412
-5.13238
-5.27167
-5.46936
-5.62514
-5.74727
-5.8685
-5.98761
-6.09341
-6.18475
-6.2668
-6.34364
-6.41555
-6.48227
-6.5444
-6.60235
-6.6557
-6.70334
-6.74365
-5.2186
-5.33004
-5.49854
-5.64459
-5.76242
-5.8766
-5.98872
-6.09014
-6.17916
-6.2595
-6.33447
-6.40463
-6.46977
-6.53021
-6.58623
-6.63749
-6.68333
-6.72282
-5.3001
-5.38528
-5.5302
-5.66549
-5.77846
-5.88626
-5.99171
-6.08857
-6.17492
-6.25329
-6.32627
-6.39448
-6.45777
-6.51632
-6.57035
-6.61965
-6.6639
-6.70259
-5.37624
-5.4405
-5.56279
-5.68644
-5.79397
-5.89574
-5.99496
-6.08734
-6.17087
-6.24712
-6.31801
-6.3841
-6.4454
-6.50204
-6.55416
-6.60168
-6.6445
-6.68228
-5.44462
-5.49445
-5.59634
-5.70753
-5.80857
-5.90433
-5.99769
-6.08565
-6.16622
-6.2402
-6.30893
-6.37294
-6.4323
-6.4871
-6.53746
-6.58337
-6.62489
-6.66186
-5.50113
-5.54145
-5.6275
-5.72727
-5.82166
-5.91182
-5.99994
-6.08378
-6.16147
-6.23323
-6.29996
-6.3621
-6.4197
-6.47289
-6.52173
-6.56633
-6.6068
-6.64298
-5.55186
-5.58514
-5.658
-5.74699
-5.83459
-5.91926
-6.00227
-6.08201
-6.1567
-6.22615
-6.29087
-6.35111
-6.40702
-6.45862
-6.50609
-6.54945
-6.58891
-6.62435
-5.60337
-5.63067
-5.69138
-5.76926
-5.84923
-5.92779
-6.00525
-6.08037
-6.15155
-6.21824
-6.28055
-6.33866
-6.39262
-6.44252
-6.48845
-6.53053
-6.5689
-6.60357
-5.65375
-5.67603
-5.72616
-5.7933
-5.86513
-5.9372
-6.00882
-6.07896
-6.14616
-6.20965
-6.26922
-6.32493
-6.37676
-6.42482
-6.46914
-6.50987
-6.54713
-6.581
-5.70022
-5.71847
-5.75993
-5.81739
-5.8812
-5.94667
-6.01247
-6.07748
-6.14045
-6.20041
-6.25705
-6.31014
-6.35979
-6.40589
-6.44861
-6.48794
-6.52415
-6.5572
-5.73882
-5.75402
-5.78892
-5.8385
-5.89518
-5.95459
-6.01497
-6.07517
-6.13398
-6.19046
-6.24409
-6.29466
-6.34207
-6.38631
-6.42739
-6.46545
-6.50057
-6.53291
-5.76362
-5.77687
-5.80756
-5.85185
-5.90339
-5.95817
-6.01433
-6.07068
-6.12605
-6.17955
-6.23057
-6.27889
-6.32432
-6.36689
-6.40655
-6.44344
-6.47764
-6.50932
-5.76513
-5.77785
-5.80739
-5.85013
-5.8999
-5.9528
-6.00705
-6.06152
-6.11508
-6.16685
-6.21626
-6.26309
-6.30719
-6.34857
-6.38723
-6.4233
-6.45684
-6.48809
-5.73491
-5.74935
-5.78244
-5.82917
-5.88211
-5.93727
-5.99319
-6.04895
-6.10333
-6.15554
-6.20506
-6.25181
-6.29568
-6.33678
-6.37511
-6.41087
-6.44413
-6.47518
-5.69012
-5.70766
-5.74734
-5.80134
-5.85999
-5.91934
-5.97873
-6.03733
-6.09388
-6.14753
-6.19805
-6.24539
-6.28965
-6.33086
-6.36922
-6.40487
-6.43805
-6.46896
-5.63189
-5.65473
-5.70502
-5.76956
-5.83566
-5.90046
-5.96457
-6.02709
-6.08651
-6.14214
-6.19403
-6.24234
-6.28718
-6.32871
-6.36716
-6.40281
-6.43588
-6.46673
-5.56235
-5.59373
-5.6595
-5.73715
-5.81129
-5.88217
-5.95189
-6.01895
-6.08149
-6.13925
-6.19264
-6.242
-6.28748
-6.32934
-6.36787
-6.40345
-6.43638
-6.46703
-5.48229
-5.5274
-5.61472
-5.70665
-5.78808
-5.86538
-5.94152
-6.01338
-6.079
-6.1388
-6.19363
-6.2439
-6.28985
-6.33183
-6.37032
-6.40578
-6.43859
-6.46919
-5.39149
-5.45837
-5.57441
-5.67983
-5.76642
-5.85007
-5.93302
-6.00973
-6.07834
-6.14022
-6.19652
-6.2476
-6.29376
-6.33552
-6.37354
-6.40843
-6.44071
-6.47083
-5.28921
-5.38876
-5.54003
-5.657
-5.74695
-5.8364
-5.92538
-6.00612
-6.07738
-6.14142
-6.19947
-6.25177
-6.29853
-6.34043
-6.37825
-6.4128
-6.44469
-6.47475
-5.17503
-5.3237
-5.50879
-5.63282
-5.72774
-5.82484
-5.91943
-6.00309
-6.07611
-6.14152
-6.20058
-6.25345
-6.30037
-6.34207
-6.37949
-6.41352
-6.44485
-6.47468
-5.04384
-5.28092
-5.48804
-5.60512
-5.70522
-5.81388
-5.9167
-6.00523
-6.08184
-6.15007
-6.21106
-6.26492
-6.3121
-6.35345
-6.39021
-6.42346
-6.45405
-6.48407
-4.85424
-5.2555
-5.4933
-5.59214
-5.6882
-5.80194
-5.9084
-5.99876
-6.07722
-6.14757
-6.21046
-6.26564
-6.31345
-6.35466
-6.39032
-6.42161
-6.45002
-6.47656
-4.59092
-5.18743
-5.49177
-5.60192
-5.70565
-5.82696
-5.93753
-6.02913
-6.10778
-6.17815
-6.24092
-6.29572
-6.34272
-6.38256
-6.41544
-6.4425
-6.46623
-6.48579
-7.43053
-7.43063
-7.43067
-7.43064
-7.43037
-7.42933
-7.42711
-7.42406
-7.42106
-7.41901
-7.41887
-7.42093
-7.4248
-7.42977
-7.43513
-7.44022
-7.44452
-7.44761
-7.44939
-7.45008
-7.45
-7.44936
-7.44837
-7.44731
-7.44642
-7.44585
-7.44559
-7.44551
-7.44538
-7.44508
-7.4446
-7.44398
-7.44323
-7.44226
-7.44103
-7.43967
-7.43855
-7.43834
-7.43959
-7.44222
-7.44545
-7.44842
-7.45073
-7.45261
-7.45446
-7.4567
-7.45973
-7.46323
-7.46631
-7.46868
-7.47223
-7.48055
-7.49758
-7.52337
-7.55664
-7.59714
-7.64589
-7.70273
-7.76611
-7.83416
-7.90471
-7.97611
-8.04663
-8.11471
-8.17968
-8.24092
-8.29779
-8.35011
-8.39782
-8.44092
-8.47944
-8.51343
-8.54294
-8.568
-8.58863
-8.6048
-8.61654
-8.62378
-8.62654
-8.62471
-8.6183
-8.6072
-8.5914
-8.57072
-8.54518
-8.51464
-8.47918
-8.43873
-8.39333
-8.34289
-8.28721
-8.22627
-8.16003
-8.08853
-8.01176
-7.92975
-7.8425
-7.75002
-7.65227
-7.54927
-7.44103
-7.32761
-7.20914
-7.08563
-6.95716
-6.82387
-6.68592
-6.54339
-6.39639
-6.245
-6.0893
-5.92935
-5.76523
-5.59698
-5.42467
-5.24836
-5.06805
-4.88375
-4.69544
-4.50316
-4.30698
-4.10696
-3.9031
-3.69545
-3.48397
-3.26874
-3.04977
-2.82718
-2.60099
-2.37134
-2.13828
-1.902
-1.66256
-1.42016
-1.17491
-0.927065
-0.676846
-0.424585
-0.170419
0.0856652
0.343581
0.602943
0.86346
1.12489
1.387
1.64955
1.9123
2.17504
2.43753
2.69957
2.96093
3.22144
3.48087
3.73906
3.99582
4.25096
4.50432
4.75572
5.00503
5.25209
5.49677
5.73897
5.97855
6.21542
6.44944
6.6805
6.90846
7.13319
7.35451
7.57231
7.78639
7.99663
8.20281
8.40479
8.60238
8.7954
8.98389
9.1677
9.34986
9.52076
-7.43161
-7.43176
-7.43208
-7.43242
-7.43243
-7.43173
-7.43001
-7.42772
-7.42595
-7.42566
-7.42718
-7.4304
-7.4349
-7.44006
-7.4453
-7.45013
-7.4542
-7.45728
-7.45921
-7.4598
-7.45908
-7.4573
-7.45487
-7.45221
-7.44976
-7.44782
-7.44649
-7.44563
-7.445
-7.44441
-7.44386
-7.44338
-7.4429
-7.4423
-7.44147
-7.44055
-7.44007
-7.44075
-7.44291
-7.4461
-7.44928
-7.45146
-7.45245
-7.45277
-7.45251
-7.45169
-7.45159
-7.45463
-7.46116
-7.4675
-7.47382
-7.48385
-7.49886
-7.5201
-7.55066
-7.59293
-7.64616
-7.70791
-7.77564
-7.84679
-7.91941
-7.99138
-8.06114
-8.12819
-8.19148
-8.25021
-8.30454
-8.35451
-8.40012
-8.44142
-8.47845
-8.51124
-8.53982
-8.56418
-8.5843
-8.60014
-8.61168
-8.61886
-8.62163
-8.61993
-8.6137
-8.60287
-8.58738
-8.56712
-8.54203
-8.51202
-8.47708
-8.4372
-8.39238
-8.34251
-8.28745
-8.22714
-8.16158
-8.09075
-8.01465
-7.93328
-7.84664
-7.75473
-7.65751
-7.55496
-7.4471
-7.33402
-7.21582
-7.09267
-6.96471
-6.83203
-6.69469
-6.55279
-6.40642
-6.25564
-6.10056
-5.94124
-5.77775
-5.61015
-5.4385
-5.26284
-5.08322
-4.8996
-4.712
-4.52045
-4.32501
-4.12573
-3.92262
-3.71569
-3.50495
-3.29044
-3.07221
-2.85032
-2.62485
-2.39589
-2.16354
-1.9279
-1.68909
-1.44725
-1.20254
-0.955115
-0.705143
-0.452807
-0.198337
0.0578566
0.31553
0.574595
0.834836
1.09602
1.35792
1.62029
1.8829
2.14552
2.40793
2.6699
2.93124
3.19173
3.45118
3.70941
3.96622
4.22145
4.47491
4.72645
4.97589
5.22311
5.46797
5.71034
5.95011
6.18718
6.42141
6.6527
6.8809
7.10588
7.32749
7.54559
7.76001
7.97061
8.17722
8.37973
8.57801
8.77188
8.96141
9.14589
9.33057
9.50107
-7.4328
-7.4328
-7.43283
-7.4329
-7.43297
-7.43297
-7.43308
-7.4338
-7.4356
-7.43864
-7.44278
-7.44769
-7.45298
-7.45824
-7.46312
-7.46732
-7.47065
-7.47296
-7.47421
-7.47433
-7.4733
-7.47122
-7.46828
-7.46465
-7.46057
-7.4563
-7.45211
-7.44825
-7.44494
-7.44229
-7.4403
-7.43881
-7.43755
-7.43633
-7.43536
-7.43515
-7.43635
-7.43939
-7.44379
-7.4481
-7.45064
-7.45046
-7.44853
-7.44687
-7.44684
-7.44772
-7.44915
-7.45384
-7.46333
-7.47678
-7.49458
-7.51772
-7.54643
-7.5812
-7.62272
-7.67112
-7.72542
-7.78405
-7.84554
-7.90847
-7.97172
-8.03416
-8.09491
-8.15351
-8.20944
-8.26222
-8.31166
-8.35764
-8.40004
-8.43881
-8.47385
-8.50512
-8.53254
-8.55604
-8.57555
-8.59098
-8.60227
-8.60933
-8.6121
-8.61048
-8.60442
-8.59385
-8.57868
-8.55882
-8.53421
-8.50475
-8.47041
-8.43116
-8.387
-8.33781
-8.28346
-8.2239
-8.1591
-8.08903
-8.01369
-7.93306
-7.84713
-7.75589
-7.65937
-7.55759
-7.4506
-7.33845
-7.22119
-7.09893
-6.97181
-6.83994
-6.70341
-6.56231
-6.41673
-6.26676
-6.11249
-5.954
-5.79135
-5.6246
-5.45384
-5.27908
-5.10037
-4.91769
-4.73106
-4.5405
-4.34608
-4.14782
-3.94573
-3.73981
-3.53011
-3.31661
-3.0994
-2.87851
-2.65403
-2.42603
-2.19462
-1.95989
-1.72197
-1.48097
-1.23709
-0.990478
-0.741334
-0.489798
-0.236079
0.019475
0.276597
0.535135
0.794888
1.05562
1.31711
1.57912
1.8414
2.10373
2.36589
2.62764
2.88879
3.14912
3.40844
3.66656
3.92329
4.17846
4.43189
4.68342
4.93287
5.18011
5.42499
5.6674
5.9072
6.14431
6.37858
6.60991
6.83815
7.06319
7.28485
7.50301
7.7175
7.9282
8.13491
8.33751
8.5359
8.73003
8.92028
9.10537
9.29293
9.45924
-7.43385
-7.43361
-7.43328
-7.43325
-7.43419
-7.43653
-7.44019
-7.44483
-7.45013
-7.45581
-7.46158
-7.46721
-7.4725
-7.47727
-7.48135
-7.48461
-7.48694
-7.48827
-7.48857
-7.48782
-7.48602
-7.48321
-7.4795
-7.47495
-7.46967
-7.46377
-7.45741
-7.45084
-7.44434
-7.43826
-7.43289
-7.4284
-7.4249
-7.42265
-7.42218
-7.42415
-7.4285
-7.43407
-7.43906
-7.44217
-7.4431
-7.44257
-7.44211
-7.44308
-7.4462
-7.45193
-7.46096
-7.47418
-7.4923
-7.51545
-7.54329
-7.57542
-7.61161
-7.65168
-7.69546
-7.74271
-7.79298
-7.84565
-7.90005
-7.95546
-8.01115
-8.06641
-8.12062
-8.17329
-8.22399
-8.27237
-8.31815
-8.36113
-8.40111
-8.43793
-8.47147
-8.50158
-8.52813
-8.55101
-8.57009
-8.58526
-8.59642
-8.60345
-8.60626
-8.60477
-8.5989
-8.58857
-8.5737
-8.55421
-8.53002
-8.50105
-8.46725
-8.42858
-8.38501
-8.33644
-8.28276
-8.22389
-8.1598
-8.09047
-8.01586
-7.93595
-7.85073
-7.7602
-7.66436
-7.56325
-7.45693
-7.34547
-7.22894
-7.10742
-6.98104
-6.84989
-6.71406
-6.57367
-6.42881
-6.27957
-6.12604
-5.9683
-5.80644
-5.64051
-5.47058
-5.29669
-5.11886
-4.9371
-4.75142
-4.56186
-4.36845
-4.17121
-3.97014
-3.76525
-3.55657
-3.3441
-3.12791
-2.90803
-2.68454
-2.4575
-2.22704
-1.99321
-1.75617
-1.51601
-1.27293
-1.02708
-0.77867
-0.527864
-0.274864
-0.0199461
0.236628
0.494668
0.75396
1.01428
1.27539
1.53705
1.79903
2.06109
2.32301
2.58456
2.84553
3.10571
3.3649
3.62292
3.87957
4.13468
4.38807
4.63956
4.889
5.13624
5.38113
5.62354
5.86336
6.10047
6.33475
6.56608
6.79433
7.01935
7.24101
7.45917
7.67366
7.88438
8.09115
8.29386
8.49244
8.68679
8.87746
9.06257
9.25096
9.41104
-7.43593
-7.43541
-7.43503
-7.43616
-7.43983
-7.44557
-7.45238
-7.45954
-7.46661
-7.47328
-7.47943
-7.48496
-7.48984
-7.49398
-7.49732
-7.49977
-7.50126
-7.50175
-7.5012
-7.4996
-7.49693
-7.49324
-7.48857
-7.48296
-7.47649
-7.46921
-7.46121
-7.45262
-7.44369
-7.43479
-7.42642
-7.41919
-7.41385
-7.41131
-7.41227
-7.41613
-7.42111
-7.42592
-7.42991
-7.43287
-7.43525
-7.43786
-7.44188
-7.44831
-7.45814
-7.47213
-7.49052
-7.51287
-7.53872
-7.56784
-7.5999
-7.63468
-7.67212
-7.71217
-7.75473
-7.79964
-7.84655
-7.89507
-7.94473
-7.99505
-8.04552
-8.09567
-8.14507
-8.19331
-8.24004
-8.28494
-8.32775
-8.36822
-8.40613
-8.44129
-8.47349
-8.50256
-8.52832
-8.55061
-8.56927
-8.58414
-8.59511
-8.60204
-8.60482
-8.60336
-8.59757
-8.58735
-8.57265
-8.55338
-8.52946
-8.50081
-8.46737
-8.42911
-8.38596
-8.33787
-8.28466
-8.22631
-8.16276
-8.09398
-8.01992
-7.94057
-7.8559
-7.76592
-7.67063
-7.57006
-7.46426
-7.35329
-7.23726
-7.11625
-6.99039
-6.85974
-6.72444
-6.58457
-6.44024
-6.29155
-6.1386
-5.98148
-5.82026
-5.65501
-5.48579
-5.31265
-5.1356
-4.95465
-4.76982
-4.58116
-4.38865
-4.19234
-3.99217
-3.78823
-3.58045
-3.36892
-3.15362
-2.93465
-2.71202
-2.48585
-2.25618
-2.02317
-1.78686
-1.54743
-1.30501
-1.05981
-0.811981
-0.561745
-0.309289
-0.0548804
0.201247
0.458883
0.717809
0.977796
1.23861
1.50001
1.76175
2.02361
2.28535
2.54675
2.80759
3.06766
3.32676
3.5847
3.84129
4.09636
4.34972
4.6012
4.85063
5.09786
5.34276
5.58519
5.82503
6.06216
6.29646
6.52781
6.75608
6.98114
7.20285
7.42106
7.63563
7.84643
8.05331
8.25616
8.45489
8.64932
8.83999
9.02447
9.21245
9.36573
-7.43984
-7.439
-7.43934
-7.44321
-7.45002
-7.45798
-7.46613
-7.47397
-7.48124
-7.48784
-7.49377
-7.499
-7.5035
-7.50718
-7.50998
-7.51185
-7.51272
-7.51257
-7.51136
-7.50909
-7.50575
-7.50137
-7.49596
-7.48955
-7.48211
-7.47372
-7.46448
-7.45457
-7.44419
-7.43379
-7.42411
-7.41602
-7.41067
-7.40878
-7.40975
-7.41215
-7.4151
-7.41856
-7.42281
-7.42807
-7.43431
-7.44194
-7.45224
-7.46618
-7.48387
-7.50506
-7.52938
-7.55651
-7.58611
-7.61794
-7.65183
-7.68764
-7.72533
-7.76481
-7.80599
-7.84872
-7.89279
-7.93792
-7.9838
-8.03013
-8.07656
-8.12277
-8.16843
-8.21324
-8.25688
-8.29908
-8.33955
-8.37805
-8.41434
-8.44816
-8.47931
-8.50755
-8.53267
-8.55447
-8.57276
-8.58737
-8.59814
-8.60493
-8.60762
-8.60611
-8.60029
-8.5901
-8.57544
-8.55626
-8.53247
-8.504
-8.47078
-8.43276
-8.38991
-8.34209
-8.28922
-8.23122
-8.16803
-8.09962
-8.02592
-7.94693
-7.86261
-7.77296
-7.678
-7.57773
-7.47222
-7.36154
-7.24578
-7.12505
-6.99946
-6.8691
-6.73409
-6.59453
-6.45054
-6.30222
-6.14967
-5.99299
-5.83226
-5.66755
-5.49892
-5.32639
-5.15001
-4.96977
-4.7857
-4.59781
-4.40612
-4.21061
-4.01129
-3.80815
-3.60121
-3.39049
-3.17599
-2.95779
-2.73592
-2.51047
-2.2815
-2.04914
-1.81346
-1.57461
-1.33275
-1.08806
-0.840707
-0.590901
-0.338857
-0.0848263
0.170967
0.428303
0.686962
0.946709
1.20731
1.46851
1.73009
1.9918
2.25341
2.5147
2.77544
3.03543
3.29446
3.55234
3.80889
4.06392
4.31724
4.56869
4.8181
5.06532
5.31021
5.55263
5.79246
6.02959
6.26391
6.49529
6.72359
6.94869
7.17045
7.38871
7.60334
7.81421
8.02116
8.22408
8.42285
8.61719
8.80763
8.9912
9.17853
9.32513
-7.44488
-7.44437
-7.44659
-7.45312
-7.46143
-7.4698
-7.4778
-7.4853
-7.49224
-7.49859
-7.50429
-7.50928
-7.5135
-7.51685
-7.51929
-7.52076
-7.52121
-7.52062
-7.51897
-7.51624
-7.51246
-7.50762
-7.50172
-7.49467
-7.4865
-7.47738
-7.46748
-7.45702
-7.44633
-7.43598
-7.42681
-7.41983
-7.41552
-7.41321
-7.41215
-7.41236
-7.41421
-7.41819
-7.42412
-7.43195
-7.44236
-7.45593
-7.47269
-7.49248
-7.51508
-7.54024
-7.56764
-7.59708
-7.62838
-7.66141
-7.69602
-7.73207
-7.76947
-7.80814
-7.84799
-7.88889
-7.9307
-7.97325
-8.01636
-8.05979
-8.10334
-8.14674
-8.18974
-8.2321
-8.27354
-8.31381
-8.35263
-8.38974
-8.42489
-8.4578
-8.48822
-8.5159
-8.54058
-8.56203
-8.58005
-8.59444
-8.60502
-8.61165
-8.6142
-8.61256
-8.60664
-8.59635
-8.58164
-8.56242
-8.53864
-8.51021
-8.47707
-8.43917
-8.39644
-8.3488
-8.29611
-8.2383
-8.17533
-8.10711
-8.03361
-7.95479
-7.87062
-7.78111
-7.68625
-7.58607
-7.48062
-7.37001
-7.2543
-7.13363
-7.00808
-6.8778
-6.74286
-6.60341
-6.45957
-6.31144
-6.15913
-6.00274
-5.84237
-5.67807
-5.5099
-5.33788
-5.16207
-4.98244
-4.79905
-4.61186
-4.42091
-4.22612
-4.02756
-3.82516
-3.61897
-3.40895
-3.19519
-2.97765
-2.75646
-2.53161
-2.30325
-2.07141
-1.83626
-1.59788
-1.35647
-1.11218
-0.865206
-0.615733
-0.364004
-0.11025
0.145299
0.402425
0.660899
0.920485
1.18094
1.44202
1.70349
1.9651
2.22663
2.48784
2.74851
3.00844
3.26741
3.52524
3.78175
4.03674
4.29002
4.54142
4.79078
5.03796
5.2828
5.52519
5.765
6.00213
6.23644
6.46783
6.69615
6.92127
7.14304
7.36133
7.576
7.7869
7.99389
8.19682
8.39555
8.58972
8.77979
8.9624
9.14915
9.28949
-7.44906
-7.44963
-7.45424
-7.46198
-7.47013
-7.47796
-7.48543
-7.49255
-7.49922
-7.50537
-7.5109
-7.51573
-7.51976
-7.52292
-7.52516
-7.52641
-7.52663
-7.5258
-7.5239
-7.52094
-7.51693
-7.51182
-7.50553
-7.49808
-7.4897
-7.48057
-7.47081
-7.4607
-7.45076
-7.44178
-7.43439
-7.42866
-7.42398
-7.42008
-7.41773
-7.41762
-7.41985
-7.42483
-7.43298
-7.44442
-7.45904
-7.47661
-7.49694
-7.51978
-7.54488
-7.572
-7.60093
-7.63151
-7.66359
-7.69704
-7.73172
-7.76753
-7.8044
-7.84223
-7.88094
-7.92045
-7.96064
-8.00141
-8.04262
-8.08412
-8.12574
-8.16729
-8.20856
-8.24933
-8.28938
-8.32844
-8.36626
-8.40256
-8.43707
-8.46949
-8.49954
-8.52693
-8.5514
-8.57268
-8.59054
-8.60476
-8.61517
-8.62161
-8.62396
-8.62212
-8.61599
-8.60551
-8.59062
-8.57126
-8.54735
-8.51884
-8.48566
-8.44775
-8.40505
-8.35743
-8.3048
-8.24706
-8.18415
-8.11599
-8.04253
-7.96373
-7.87955
-7.78999
-7.69504
-7.59475
-7.48918
-7.37841
-7.26256
-7.14173
-7.01604
-6.88561
-6.75057
-6.61105
-6.46718
-6.31908
-6.16687
-6.01065
-5.8505
-5.6865
-5.5187
-5.34711
-5.17179
-4.99272
-4.80993
-4.62339
-4.4331
-4.23901
-4.04113
-3.83942
-3.63391
-3.42457
-3.21143
-2.99452
-2.7739
-2.54961
-2.32175
-2.09038
-1.85565
-1.61767
-1.37662
-1.13266
-0.885964
-0.636751
-0.385254
-0.131697
0.123686
0.380675
0.639033
0.898523
1.15889
1.41991
1.68131
1.94287
2.20434
2.4655
2.72613
2.98601
3.24494
3.50274
3.7592
4.01414
4.26737
4.51871
4.76801
5.01513
5.25991
5.50226
5.74202
5.97912
6.21341
6.44479
6.6731
6.89822
7.11999
7.3383
7.55297
7.76389
7.97089
8.1738
8.37244
8.56638
8.75605
8.9377
9.12399
9.25862
-7.45056
-7.45257
-7.45882
-7.46647
-7.47399
-7.48131
-7.48845
-7.49534
-7.50187
-7.50793
-7.5134
-7.51818
-7.52218
-7.5253
-7.5275
-7.52871
-7.5289
-7.52805
-7.52614
-7.52316
-7.51911
-7.51389
-7.50751
-7.50015
-7.49206
-7.48339
-7.47439
-7.46552
-7.45725
-7.44991
-7.44344
-7.43764
-7.43242
-7.42826
-7.42608
-7.42658
-7.4302
-7.43723
-7.44772
-7.46139
-7.4781
-7.49757
-7.51953
-7.54375
-7.56996
-7.59796
-7.62756
-7.65859
-7.69092
-7.7244
-7.75892
-7.79441
-7.83077
-7.86792
-7.90579
-7.94432
-7.98343
-8.02305
-8.06306
-8.10337
-8.14383
-8.18429
-8.22459
-8.26453
-8.30387
-8.34239
-8.37981
-8.41585
-8.45021
-8.48256
-8.51259
-8.53999
-8.56447
-8.58573
-8.60353
-8.61764
-8.62788
-8.6341
-8.63618
-8.63403
-8.6276
-8.61681
-8.60163
-8.58199
-8.55785
-8.52914
-8.4958
-8.45777
-8.41497
-8.36732
-8.31463
-8.25686
-8.1939
-8.12569
-8.05213
-7.97321
-7.88886
-7.79909
-7.7039
-7.60331
-7.49744
-7.38634
-7.27016
-7.14898
-7.02297
-6.89223
-6.75692
-6.61718
-6.47314
-6.32495
-6.17272
-6.01655
-5.85655
-5.69276
-5.52524
-5.35404
-5.17915
-5.0006
-4.81836
-4.63244
-4.44276
-4.24934
-4.05209
-3.85106
-3.64615
-3.43745
-3.22489
-3.00856
-2.78844
-2.56466
-2.33722
-2.10628
-1.8719
-1.63427
-1.3935
-1.1498
-0.90332
-0.654308
-0.402975
-0.149558
0.105721
0.362624
0.620918
0.880355
1.14069
1.40166
1.66304
1.92457
2.18601
2.44715
2.70774
2.96759
3.22648
3.48423
3.74066
3.99556
4.24874
4.50001
4.74924
4.99627
5.24099
5.48326
5.72298
5.96002
6.19429
6.42565
6.65395
6.87905
7.10082
7.31912
7.5338
7.74472
7.95172
8.15458
8.35311
8.54678
8.73603
8.91674
9.10266
9.23223
-7.44788
-7.45119
-7.45785
-7.46505
-7.47223
-7.47936
-7.4864
-7.49326
-7.49981
-7.50594
-7.51152
-7.51644
-7.52059
-7.52389
-7.52626
-7.52764
-7.52799
-7.52728
-7.52549
-7.52262
-7.51864
-7.51353
-7.50742
-7.50051
-7.49306
-7.48531
-7.47758
-7.47008
-7.4629
-7.4561
-7.44978
-7.44406
-7.43928
-7.43606
-7.43514
-7.43703
-7.44206
-7.45038
-7.46199
-7.47671
-7.49434
-7.51462
-7.53728
-7.56205
-7.5887
-7.61704
-7.64687
-7.67802
-7.71036
-7.74376
-7.77811
-7.81331
-7.84928
-7.88596
-7.92328
-7.96121
-7.99968
-8.03864
-8.07801
-8.11772
-8.15766
-8.19769
-8.23767
-8.2774
-8.31667
-8.35522
-8.3928
-8.42908
-8.46373
-8.4964
-8.52673
-8.55439
-8.57906
-8.60042
-8.61821
-8.63222
-8.64225
-8.64818
-8.6499
-8.64736
-8.64051
-8.62931
-8.61372
-8.59371
-8.56924
-8.54024
-8.50665
-8.46842
-8.42547
-8.37765
-8.32486
-8.26696
-8.20386
-8.13547
-8.06172
-7.98254
-7.8979
-7.80778
-7.71218
-7.61117
-7.50483
-7.39326
-7.27658
-7.15493
-7.02844
-6.89725
-6.76154
-6.62145
-6.47714
-6.32875
-6.17641
-6.02024
-5.8603
-5.69667
-5.5294
-5.35853
-5.18406
-5.006
-4.82431
-4.63896
-4.4499
-4.2571
-4.06049
-3.86007
-3.65579
-3.44767
-3.23568
-3.01987
-2.80025
-2.57691
-2.34989
-2.1193
-1.88526
-1.64791
-1.4074
-1.1639
-0.917599
-0.668737
-0.417525
-0.164198
0.0910168
0.347875
0.606139
0.865554
1.12587
1.38683
1.64819
1.9097
2.17113
2.43224
2.69281
2.95262
3.21147
3.46919
3.7256
3.98046
4.23356
4.48475
4.73389
4.98083
5.22547
5.46766
5.7073
5.94429
6.17853
6.40987
6.63815
6.86323
7.08498
7.30326
7.51793
7.72884
7.93581
8.13862
8.33701
8.53041
8.71922
8.89905
9.08463
9.20984
-7.4393
-7.44336
-7.44991
-7.45704
-7.46435
-7.47165
-7.47886
-7.48591
-7.49268
-7.49908
-7.50495
-7.51018
-7.51464
-7.51824
-7.52089
-7.52253
-7.52313
-7.52265
-7.5211
-7.51846
-7.51476
-7.51009
-7.50459
-7.49848
-7.49195
-7.48512
-7.47814
-7.47118
-7.46434
-7.45776
-7.45171
-7.44659
-7.44279
-7.44076
-7.44102
-7.44403
-7.45007
-7.45925
-7.47158
-7.48691
-7.50504
-7.52571
-7.54867
-7.57368
-7.60051
-7.62898
-7.65889
-7.69007
-7.7224
-7.75573
-7.78994
-7.82495
-7.86068
-7.89709
-7.93413
-7.97176
-8.00995
-8.04866
-8.08784
-8.12744
-8.16737
-8.20751
-8.24771
-8.28777
-8.32747
-8.36655
-8.40472
-8.44163
-8.47694
-8.51025
-8.54117
-8.56931
-8.59432
-8.61587
-8.63369
-8.64756
-8.65732
-8.66287
-8.66413
-8.66107
-8.65369
-8.64196
-8.62587
-8.6054
-8.5805
-8.55113
-8.51723
-8.47873
-8.43554
-8.38754
-8.33454
-8.27644
-8.21312
-8.14447
-8.07041
-7.99088
-7.90583
-7.81525
-7.71914
-7.61759
-7.51066
-7.3985
-7.28121
-7.15897
-7.03188
-6.90017
-6.76395
-6.62344
-6.47879
-6.33015
-6.17765
-6.02142
-5.86153
-5.69803
-5.531
-5.36044
-5.1864
-5.00882
-4.82769
-4.6429
-4.45447
-4.26228
-4.06632
-3.8665
-3.66284
-3.45527
-3.24385
-3.02853
-2.80942
-2.58649
-2.35987
-2.12961
-1.89589
-1.6588
-1.41852
-1.1752
-0.929071
-0.680336
-0.429232
-0.175977
0.0791824
0.33601
0.59425
0.853654
1.11396
1.37492
1.63627
1.89778
2.15919
2.42028
2.68082
2.9406
3.1994
3.45709
3.71348
3.9683
4.22133
4.47243
4.72146
4.96831
5.21284
5.45495
5.69451
5.93144
6.16566
6.39699
6.62525
6.8503
7.07203
7.29029
7.50495
7.71585
7.9228
8.12554
8.32379
8.5169
8.70529
8.8843
9.06955
9.1911
-7.42342
-7.42766
-7.43436
-7.44214
-7.4501
-7.45787
-7.46544
-7.47282
-7.47997
-7.48678
-7.49311
-7.49877
-7.50363
-7.5076
-7.51061
-7.51262
-7.51357
-7.51346
-7.5123
-7.51011
-7.50695
-7.5029
-7.49808
-7.49262
-7.48666
-7.48032
-7.47372
-7.46701
-7.46038
-7.45415
-7.44863
-7.44416
-7.44112
-7.44
-7.44123
-7.44518
-7.45208
-7.46201
-7.47495
-7.49076
-7.50925
-7.5302
-7.55337
-7.57855
-7.60552
-7.6341
-7.66411
-7.69536
-7.72771
-7.76102
-7.79518
-7.83012
-7.86577
-7.9021
-7.93908
-7.97667
-8.01484
-8.0536
-8.09291
-8.13274
-8.17302
-8.21363
-8.25444
-8.29524
-8.33581
-8.37585
-8.41503
-8.45297
-8.48928
-8.52352
-8.55524
-8.58401
-8.60943
-8.63118
-8.64897
-8.6626
-8.67193
-8.67691
-8.67752
-8.67379
-8.66575
-8.65339
-8.63672
-8.6157
-8.59031
-8.56052
-8.52626
-8.48745
-8.44401
-8.39575
-8.34251
-8.28414
-8.22051
-8.15152
-8.0771
-7.99716
-7.91165
-7.82054
-7.72388
-7.6217
-7.51414
-7.40131
-7.28335
-7.16044
-7.03273
-6.90042
-6.76367
-6.62271
-6.47768
-6.32877
-6.17612
-6.01983
-5.85998
-5.69664
-5.52984
-5.35964
-5.18602
-5.00895
-4.82837
-4.6442
-4.45639
-4.26486
-4.06954
-3.87037
-3.66733
-3.46036
-3.2495
-3.03473
-2.8161
-2.59363
-2.36742
-2.13753
-1.90412
-1.6673
-1.42725
-1.18413
-0.938165
-0.689567
-0.438562
-0.185378
0.0697333
0.326531
0.584753
0.844148
1.10445
1.36541
1.62676
1.88826
2.14966
2.41073
2.67124
2.93097
3.18972
3.44739
3.70379
3.9586
4.21155
4.46253
4.71145
4.95819
5.20262
5.44463
5.68409
5.92097
6.15518
6.38652
6.61476
6.83978
7.06148
7.27972
7.49437
7.70525
7.91218
8.11486
8.31298
8.5058
8.69378
8.87204
9.05694
9.17551
-7.39985
-7.40396
-7.41146
-7.42052
-7.42944
-7.43779
-7.4458
-7.45365
-7.46138
-7.46886
-7.47586
-7.48212
-7.4875
-7.49195
-7.49542
-7.49788
-7.49931
-7.4997
-7.49905
-7.4974
-7.49479
-7.49129
-7.487
-7.482
-7.4764
-7.47032
-7.46392
-7.45742
-7.45108
-7.44519
-7.44005
-7.43609
-7.43373
-7.43341
-7.43549
-7.44028
-7.44794
-7.45854
-7.47202
-7.48826
-7.50709
-7.5283
-7.55171
-7.57709
-7.60426
-7.63303
-7.66322
-7.69463
-7.72711
-7.76051
-7.79472
-7.82968
-7.86533
-7.90165
-7.93862
-7.97625
-8.01455
-8.05354
-8.09321
-8.13353
-8.17445
-8.21586
-8.25763
-8.29956
-8.34136
-8.38272
-8.42326
-8.46256
-8.50015
-8.53549
-8.56806
-8.59739
-8.62308
-8.64481
-8.66235
-8.67548
-8.68411
-8.68826
-8.68803
-8.68351
-8.67474
-8.66173
-8.64445
-8.62287
-8.59699
-8.56677
-8.53215
-8.49303
-8.44929
-8.40079
-8.34726
-8.28854
-8.22454
-8.15518
-8.08039
-8.00004
-7.9141
-7.82248
-7.72526
-7.62246
-7.51426
-7.40074
-7.28213
-7.15855
-7.03023
-6.89731
-6.76005
-6.61863
-6.47326
-6.3241
-6.17132
-6.01501
-5.85525
-5.69209
-5.52557
-5.35574
-5.18257
-5.00604
-4.82603
-4.64252
-4.45537
-4.26456
-4.06993
-3.87149
-3.6691
-3.46283
-3.25259
-3.03844
-2.82034
-2.5984
-2.37263
-2.14318
-1.91011
-1.6736
-1.43379
-1.19091
-0.945143
-0.696709
-0.445823
-0.192738
0.062307
0.319048
0.577234
0.836595
1.09688
1.35781
1.61914
1.88061
2.14199
2.40302
2.6635
2.92317
3.18191
3.43961
3.69608
3.95087
4.20372
4.45458
4.70339
4.95001
5.19435
5.43627
5.67566
5.9125
6.14675
6.37813
6.60636
6.83135
7.05302
7.27125
7.48589
7.69675
7.90367
8.10631
8.30429
8.49684
8.68442
8.86197
9.04649
9.16274
-7.36949
-7.37383
-7.38269
-7.39339
-7.40335
-7.4123
-7.42099
-7.42967
-7.43817
-7.44647
-7.4544
-7.46153
-7.46753
-7.47244
-7.47636
-7.47933
-7.48128
-7.4822
-7.48208
-7.48095
-7.47882
-7.47576
-7.47182
-7.46709
-7.46168
-7.45576
-7.44951
-7.44315
-7.43695
-7.43127
-7.42648
-7.423
-7.42125
-7.42161
-7.42441
-7.42988
-7.43816
-7.44929
-7.46322
-7.47985
-7.49903
-7.52058
-7.5443
-7.56999
-7.59745
-7.62648
-7.65689
-7.68848
-7.72109
-7.75457
-7.78883
-7.82379
-7.85943
-7.89574
-7.93273
-7.97046
-8.00896
-8.04829
-8.08847
-8.12949
-8.17129
-8.21377
-8.25676
-8.30002
-8.34326
-8.3861
-8.42811
-8.46878
-8.50759
-8.54391
-8.57714
-8.60676
-8.63237
-8.65375
-8.6707
-8.68301
-8.69062
-8.69368
-8.69246
-8.68713
-8.67774
-8.66422
-8.64647
-8.62443
-8.5981
-8.5675
-8.53258
-8.49317
-8.44921
-8.40046
-8.34667
-8.28759
-8.22319
-8.15351
-8.07839
-7.99772
-7.91138
-7.81931
-7.72152
-7.6181
-7.5092
-7.395
-7.27569
-7.15144
-7.02245
-6.88892
-6.75108
-6.60917
-6.46341
-6.31399
-6.16106
-6.00474
-5.84509
-5.68217
-5.51599
-5.34657
-5.17388
-4.99788
-4.81849
-4.63564
-4.44922
-4.25915
-4.06531
-3.86763
-3.66603
-3.4605
-3.25097
-3.03748
-2.82001
-2.59864
-2.37341
-2.14445
-1.91185
-1.67576
-1.43633
-1.19379
-0.948319
-0.700135
-0.449469
-0.196579
0.0582883
0.314867
0.572898
0.832111
1.09224
1.35302
1.6142
1.87552
2.13672
2.39759
2.65788
2.91739
3.17601
3.43363
3.69002
3.94469
4.19736
4.44807
4.69673
4.94324
5.18749
5.42932
5.66868
5.90558
6.13996
6.37141
6.59962
6.82458
7.04624
7.26448
7.47912
7.69
7.89695
8.09959
8.29745
8.48972
8.67691
8.85381
9.03786
9.15245
-7.33489
-7.34006
-7.35079
-7.36351
-7.37464
-7.3841
-7.39319
-7.40267
-7.41237
-7.42186
-7.43082
-7.43889
-7.44561
-7.45092
-7.45519
-7.45857
-7.46098
-7.46236
-7.46269
-7.46197
-7.4602
-7.45742
-7.45369
-7.44912
-7.44382
-7.43793
-7.43168
-7.42533
-7.4192
-7.41368
-7.40915
-7.40603
-7.4047
-7.40552
-7.40878
-7.41467
-7.42332
-7.43477
-7.44901
-7.46593
-7.48542
-7.50729
-7.53135
-7.55738
-7.58518
-7.61451
-7.64515
-7.67689
-7.70957
-7.74307
-7.77729
-7.8122
-7.84777
-7.88404
-7.92106
-7.9589
-7.99765
-8.03737
-8.07808
-8.11978
-8.16244
-8.20591
-8.25002
-8.29449
-8.33899
-8.3831
-8.42633
-8.46811
-8.50784
-8.5448
-8.5783
-8.60772
-8.63273
-8.6533
-8.66931
-8.68049
-8.68674
-8.6884
-8.68605
-8.68
-8.6702
-8.65643
-8.63848
-8.61621
-8.58964
-8.55889
-8.52393
-8.48472
-8.44098
-8.39254
-8.33903
-8.28025
-8.21608
-8.14644
-8.07122
-7.99033
-7.90366
-7.81115
-7.71277
-7.60867
-7.49899
-7.38399
-7.26381
-7.13873
-7.00888
-6.87455
-6.73594
-6.59337
-6.44705
-6.29719
-6.14396
-5.98746
-5.8278
-5.66498
-5.49907
-5.32999
-5.15774
-4.98223
-4.80345
-4.62124
-4.43556
-4.24621
-4.05318
-3.85627
-3.65549
-3.4507
-3.24193
-3.0291
-2.8123
-2.59152
-2.36688
-2.13842
-1.90631
-1.67067
-1.43168
-1.18951
-0.944362
-0.696463
-0.446068
-0.193419
0.0612128
0.31757
0.575378
0.834371
1.09427
1.35482
1.61575
1.8768
2.13771
2.39827
2.6582
2.9173
3.17534
3.43215
3.68757
3.94146
4.19366
4.44403
4.6924
4.93864
5.18263
5.42425
5.66347
5.90034
6.13471
6.36611
6.59422
6.81913
7.04079
7.25906
7.47376
7.68475
7.89181
8.09449
8.29223
8.48423
8.67106
8.84733
9.03087
9.14442
-7.29834
-7.30462
-7.31769
-7.33241
-7.34402
-7.35388
-7.36405
-7.37479
-7.38561
-7.39615
-7.40609
-7.41502
-7.42239
-7.42818
-7.43287
-7.43668
-7.43953
-7.44133
-7.44204
-7.44167
-7.4402
-7.43766
-7.43411
-7.42962
-7.42433
-7.4184
-7.41206
-7.40561
-7.39937
-7.39375
-7.38914
-7.38595
-7.38455
-7.38529
-7.38845
-7.39426
-7.40284
-7.41425
-7.4285
-7.4455
-7.46514
-7.48723
-7.51159
-7.53797
-7.56614
-7.59578
-7.62669
-7.65861
-7.69139
-7.72489
-7.75904
-7.79384
-7.82927
-7.86538
-7.90226
-7.94003
-7.97879
-8.01864
-8.0596
-8.10173
-8.14493
-8.1891
-8.23403
-8.27941
-8.32488
-8.36996
-8.41412
-8.45673
-8.49706
-8.53424
-8.56739
-8.59576
-8.61927
-8.63857
-8.65403
-8.66521
-8.67161
-8.67339
-8.67093
-8.66454
-8.65421
-8.63988
-8.62134
-8.59852
-8.57149
-8.54042
-8.50539
-8.46626
-8.42285
-8.37477
-8.32176
-8.26358
-8.19998
-8.1307
-8.05566
-7.97479
-7.88802
-7.79526
-7.69652
-7.59191
-7.48166
-7.36596
-7.24506
-7.11919
-6.98857
-6.85347
-6.71416
-6.57095
-6.42411
-6.27384
-6.1203
-5.96362
-5.8039
-5.64116
-5.47544