/*--------------------------------*- C++ -*----------------------------------*\
  =========                 |
  \\      /  F ield         | OpenFOAM: The Open Source CFD Toolbox
   \\    /   O peration     | Website:  https://openfoam.org
    \\  /    A nd           | Version:  13
     \\/     M anipulation  |
\*---------------------------------------------------------------------------*/
FoamFile
{
    format      ascii;
    class       surfaceScalarField;
    location    "600";
    object      phi;
}
// * * * * * * * * * * * * * * * * * * * * * * * * * * * * * * * * * * * * * //

dimensions      [0 3 -1 0 0 0 0];

internalField   nonuniform List<scalar> 
24170
(
3.05785e-06
1.30546e-07
2.90921e-06
1.48594e-07
2.7713e-06
1.37939e-07
2.64553e-06
1.25835e-07
2.53619e-06
1.09347e-07
2.44404e-06
9.22118e-08
2.36699e-06
7.70307e-08
2.30227e-06
6.47247e-08
2.24722e-06
5.5047e-08
2.20057e-06
4.6652e-08
2.16205e-06
3.85168e-08
2.13081e-06
3.12393e-08
2.1053e-06
2.54956e-08
2.0842e-06
2.10791e-08
2.06715e-06
1.70387e-08
2.05418e-06
1.29857e-08
2.04739e-06
6.82978e-09
4.3785e-10
2.04701e-06
3.47453e-06
7.32432e-08
3.50883e-06
1.14205e-07
3.52651e-06
1.2021e-07
3.52723e-06
1.25128e-07
3.51358e-06
1.22961e-07
3.49231e-06
1.13499e-07
3.4681e-06
1.01197e-07
3.44085e-06
9.19759e-08
3.4107e-06
8.51722e-08
3.37844e-06
7.89108e-08
3.34582e-06
7.11302e-08
3.3162e-06
6.08538e-08
3.29e-06
5.16923e-08
3.26566e-06
4.54073e-08
3.24288e-06
3.98218e-08
3.22166e-06
3.42177e-08
3.2012e-06
2.73393e-08
2.12877e-08
3.18038e-06
3.68149e-06
5.42622e-08
3.69952e-06
9.61726e-08
3.71564e-06
1.04152e-07
3.73189e-06
1.08942e-07
3.74683e-06
1.08036e-07
3.75889e-06
1.01484e-07
3.76726e-06
9.28126e-08
3.77314e-06
8.60846e-08
3.77746e-06
8.08474e-08
3.78032e-06
7.60464e-08
3.78135e-06
7.01032e-08
3.78017e-06
6.2029e-08
3.7773e-06
5.45528e-08
3.77362e-06
4.90807e-08
3.76931e-06
4.41277e-08
3.76448e-06
3.90595e-08
3.75841e-06
3.34423e-08
2.77611e-08
3.75195e-06
3.93552e-06
4.41167e-08
3.94782e-06
8.37623e-08
3.95717e-06
9.47344e-08
3.96657e-06
9.95057e-08
3.97523e-06
9.93258e-08
3.9825e-06
9.41873e-08
3.98841e-06
8.68637e-08
3.99387e-06
8.06039e-08
3.99937e-06
7.53194e-08
4.00499e-06
7.04116e-08
4.01035e-06
6.47391e-08
4.0147e-06
5.76706e-08
4.01817e-06
5.10807e-08
4.02132e-06
4.59315e-08
4.02418e-06
4.12636e-08
4.02666e-06
3.66007e-08
4.02837e-06
3.17576e-08
2.70854e-08
4.02906e-06
4.21459e-06
3.66437e-08
4.22395e-06
7.43971e-08
4.23202e-06
8.6741e-08
4.24e-06
9.1577e-08
4.2471e-06
9.22543e-08
4.25283e-06
8.84813e-08
4.25725e-06
8.24285e-08
4.26117e-06
7.66752e-08
4.26502e-06
7.14592e-08
4.26895e-06
6.64751e-08
4.27272e-06
6.09681e-08
4.27581e-06
5.45751e-08
4.27836e-06
4.85293e-08
4.28081e-06
4.34804e-08
4.28321e-06
3.88614e-08
4.28546e-06
3.43657e-08
4.28731e-06
2.99238e-08
2.58027e-08
4.28859e-06
4.51523e-06
3.04879e-08
4.52263e-06
6.68809e-08
4.5301e-06
7.92006e-08
4.53761e-06
8.40055e-08
4.54458e-06
8.5237e-08
4.55042e-06
8.25974e-08
4.55511e-06
7.76975e-08
4.55923e-06
7.25229e-08
4.56313e-06
6.7531e-08
4.56695e-06
6.26441e-08
4.5705e-06
5.74031e-08
4.57344e-06
5.16296e-08
4.57585e-06
4.61125e-08
4.57805e-06
4.12787e-08
4.5801e-06
3.68085e-08
4.58195e-06
3.25247e-08
4.58348e-06
2.84143e-08
2.46659e-08
4.58464e-06
4.83771e-06
2.54907e-08
4.84451e-06
6.00889e-08
4.85171e-06
7.20563e-08
4.85873e-06
7.70247e-08
4.86545e-06
7.85393e-08
4.8713e-06
7.67657e-08
4.87618e-06
7.28123e-08
4.8805e-06
6.81868e-08
4.88454e-06
6.34803e-08
4.88841e-06
5.87686e-08
4.89198e-06
5.38297e-08
4.89501e-06
4.85947e-08
4.89756e-06
4.35565e-08
4.89985e-06
3.89812e-08
4.90195e-06
3.47101e-08
4.90383e-06
3.06564e-08
4.90544e-06
2.68251e-08
2.33401e-08
4.90674e-06
5.18358e-06
2.14819e-08
5.19058e-06
5.30094e-08
5.19765e-06
6.49343e-08
5.20416e-06
7.04619e-08
5.21052e-06
7.21377e-08
5.21628e-06
7.0962e-08
5.22129e-06
6.77696e-08
5.22577e-06
6.36767e-08
5.22992e-06
5.9306e-08
5.23383e-06
5.48413e-08
5.23744e-06
5.0218e-08
5.24059e-06
4.54416e-08
5.24334e-06
4.07982e-08
5.24583e-06
3.64878e-08
5.2481e-06
3.24419e-08
5.25013e-06
2.86335e-08
5.25189e-06
2.50623e-08
2.18414e-08
5.25339e-06
5.5547e-06
1.81148e-08
5.56156e-06
4.61499e-08
5.5684e-06
5.81301e-08
5.57485e-06
6.40311e-08
5.58107e-06
6.59394e-08
5.58683e-06
6.52109e-08
5.59198e-06
6.26065e-08
5.59664e-06
5.90048e-08
5.60094e-06
5.49954e-08
5.60496e-06
5.08169e-08
5.60866e-06
4.65147e-08
5.61196e-06
4.21352e-08
5.6149e-06
3.78558e-08
5.61757e-06
3.38171e-08
5.61999e-06
3.00191e-08
5.62217e-06
2.64645e-08
5.62409e-06
2.31536e-08
2.01599e-08
5.62574e-06
5.95269e-06
1.51963e-08
5.95889e-06
3.98813e-08
5.96554e-06
5.14269e-08
5.97211e-06
5.74033e-08
5.97842e-06
5.95857e-08
5.98431e-06
5.92816e-08
5.98967e-06
5.72134e-08
5.99455e-06
5.40972e-08
5.99904e-06
5.04777e-08
6.00322e-06
4.66303e-08
6.00706e-06
4.26657e-08
6.01054e-06
3.86584e-08
6.01366e-06
3.47317e-08
6.01648e-06
3.09901e-08
6.01904e-06
2.746e-08
6.02136e-06
2.41605e-08
6.0234e-06
2.11003e-08
1.83476e-08
6.0252e-06
6.37928e-06
1.27148e-08
6.38481e-06
3.43441e-08
6.39118e-06
4.5061e-08
6.39774e-06
5.08411e-08
6.40416e-06
5.31631e-08
6.41023e-06
5.32046e-08
6.41584e-06
5.15929e-08
6.42098e-06
4.89412e-08
6.42571e-06
4.57288e-08
6.43009e-06
4.22463e-08
6.43412e-06
3.86394e-08
6.43778e-06
3.49954e-08
6.4411e-06
3.14117e-08
6.4441e-06
2.79867e-08
6.44682e-06
2.4744e-08
6.44927e-06
2.17182e-08
6.45146e-06
1.89126e-08
1.63868e-08
6.4534e-06
5.74264e-06
1.09077e-08
5.74681e-06
3.01463e-08
5.75194e-06
3.99123e-08
5.75737e-06
4.53884e-08
5.76278e-06
4.77344e-08
5.76799e-06
4.79734e-08
5.77288e-06
4.66859e-08
5.77741e-06
4.43896e-08
5.7816e-06
4.15267e-08
5.78548e-06
3.83689e-08
5.78904e-06
3.50781e-08
5.7923e-06
3.173e-08
5.79526e-06
2.84599e-08
5.79795e-06
2.52919e-08
5.80039e-06
2.2318e-08
5.80259e-06
1.95174e-08
5.80457e-06
1.69348e-08
1.45988e-08
5.80633e-06
6.99997e-06
9.08686e-09
7.0043e-06
2.57949e-08
7.00986e-06
3.43398e-08
7.0159e-06
3.93435e-08
7.02202e-06
4.15965e-08
7.02803e-06
4.19591e-08
7.03374e-06
4.09565e-08
7.0391e-06
3.90215e-08
7.04408e-06
3.65305e-08
7.04871e-06
3.37441e-08
7.05297e-06
3.0801e-08
7.05688e-06
2.78286e-08
7.06044e-06
2.48819e-08
7.06369e-06
2.20601e-08
7.06663e-06
1.93671e-08
7.06931e-06
1.68638e-08
7.0717e-06
1.45165e-08
1.24401e-08
7.07387e-06
8.53263e-06
7.30361e-09
8.53711e-06
2.1313e-08
8.54305e-06
2.8398e-08
8.54965e-06
3.27504e-08
8.55646e-06
3.47728e-08
8.56324e-06
3.51774e-08
8.56979e-06
3.43959e-08
8.576e-06
3.28032e-08
8.58183e-06
3.06912e-08
8.58727e-06
2.82991e-08
8.59231e-06
2.57518e-08
8.59694e-06
2.31766e-08
8.60121e-06
2.06221e-08
8.60509e-06
1.81664e-08
8.60865e-06
1.58274e-08
8.61187e-06
1.36367e-08
8.6148e-06
1.16068e-08
9.78365e-09
8.6174e-06
1.0401e-05
5.56317e-09
1.04056e-05
1.67082e-08
1.04118e-05
2.21477e-08
1.04189e-05
2.56254e-08
1.04264e-05
2.72903e-08
1.0434e-05
2.76131e-08
1.04414e-05
2.70019e-08
1.04485e-05
2.56981e-08
1.04552e-05
2.39741e-08
1.04615e-05
2.19707e-08
1.04674e-05
1.98737e-08
1.04728e-05
1.77057e-08
1.04778e-05
1.56028e-08
1.04824e-05
1.35371e-08
1.04867e-05
1.1606e-08
1.04905e-05
9.76822e-09
1.04941e-05
8.09245e-09
6.58435e-09
1.04973e-05
1.26785e-05
3.85465e-09
1.26832e-05
1.19929e-08
1.26897e-05
1.5602e-08
1.26974e-05
1.80026e-08
1.27055e-05
1.91131e-08
1.27139e-05
1.92608e-08
1.27222e-05
1.87091e-08
1.27302e-05
1.76658e-08
1.27379e-05
1.62812e-08
1.27452e-05
1.47179e-08
1.27519e-05
1.30419e-08
1.27583e-05
1.13679e-08
1.27641e-05
9.69612e-09
1.27696e-05
8.10864e-09
1.27746e-05
6.58247e-09
1.27792e-05
5.17929e-09
1.27834e-05
3.8651e-09
2.72784e-09
1.27873e-05
1.54549e-05
2.13741e-09
1.54598e-05
7.09848e-09
1.54667e-05
8.71232e-09
1.54748e-05
9.79739e-09
1.54838e-05
1.0178e-08
1.5493e-05
1.00019e-08
1.55023e-05
9.42719e-09
1.55114e-05
8.56962e-09
1.55201e-05
7.52081e-09
1.55285e-05
6.36846e-09
1.55363e-05
5.17135e-09
1.55437e-05
3.97819e-09
1.55506e-05
2.81426e-09
1.5557e-05
1.70631e-09
1.55629e-05
6.65092e-10
1.55683e-05
-2.95e-10
1.55734e-05
-1.17144e-09
-1.92909e-09
1.5578e-05
1.88394e-05
3.3326e-10
1.88447e-05
1.83345e-09
1.88522e-05
1.21212e-09
1.88612e-05
7.48321e-10
1.88712e-05
2.04518e-10
1.88816e-05
-4.24627e-10
1.88921e-05
-1.11196e-09
1.89025e-05
-1.83149e-09
1.89126e-05
-2.56454e-09
1.89222e-05
-3.288e-09
1.89314e-05
-3.98841e-09
1.894e-05
-4.6522e-09
1.89481e-05
-5.27247e-09
1.89556e-05
-5.84201e-09
1.89626e-05
-6.35732e-09
1.89691e-05
-6.81478e-09
1.89752e-05
-7.21336e-09
-7.53356e-09
1.89807e-05
2.29654e-05
-1.75264e-09
2.29715e-05
-4.31545e-09
2.29803e-05
-7.5791e-09
2.29909e-05
-9.87212e-09
2.30026e-05
-1.15189e-08
2.30149e-05
-1.26905e-08
2.30273e-05
-1.35393e-08
2.30396e-05
-1.41051e-08
2.30515e-05
-1.44935e-08
2.30629e-05
-1.47198e-08
2.30738e-05
-1.4859e-08
2.3084e-05
-1.49071e-08
2.30936e-05
-1.49088e-08
2.31026e-05
-1.4854e-08
2.31111e-05
-1.47713e-08
2.31189e-05
-1.46496e-08
2.31262e-05
-1.45055e-08
-1.43207e-08
2.31329e-05
1.68124e-05
-3.48678e-09
1.68174e-05
-9.2896e-09
1.68244e-05
-1.45925e-08
1.68327e-05
-1.81873e-08
1.68417e-05
-2.05254e-08
1.6851e-05
-2.20505e-08
1.68604e-05
-2.29025e-08
1.68695e-05
-2.33272e-08
1.68785e-05
-2.33584e-08
1.68869e-05
-2.32099e-08
1.68949e-05
-2.28658e-08
1.69024e-05
-2.24671e-08
1.69095e-05
-2.19693e-08
1.69161e-05
-2.1473e-08
1.69223e-05
-2.09281e-08
1.6928e-05
-2.04028e-08
1.69334e-05
-1.98507e-08
-1.93157e-08
1.69383e-05
1.46364e-05
-5.32601e-09
1.46415e-05
-1.44381e-08
1.46486e-05
-2.16457e-08
1.46566e-05
-2.62583e-08
1.46652e-05
-2.91173e-08
1.46739e-05
-3.07935e-08
1.46826e-05
-3.16059e-08
1.4691e-05
-3.17264e-08
1.4699e-05
-3.14217e-08
1.47067e-05
-3.08067e-08
1.47138e-05
-3.00365e-08
1.47205e-05
-2.9147e-08
1.47267e-05
-2.82235e-08
1.47325e-05
-2.72741e-08
1.47379e-05
-2.63445e-08
1.4743e-05
-2.54243e-08
1.47476e-05
-2.45388e-08
-2.3668e-08
1.4752e-05
1.27422e-05
-7.41917e-09
1.27479e-05
-2.00818e-08
1.27552e-05
-2.90129e-08
1.27632e-05
-3.43056e-08
1.27715e-05
-3.74418e-08
1.27799e-05
-3.91625e-08
1.2788e-05
-3.97662e-08
1.27958e-05
-3.9548e-08
1.28032e-05
-3.87978e-08
1.28101e-05
-3.77308e-08
1.28166e-05
-3.6487e-08
1.28226e-05
-3.51393e-08
1.28281e-05
-3.37801e-08
1.28333e-05
-3.24198e-08
1.2838e-05
-3.11199e-08
1.28425e-05
-2.98534e-08
1.28466e-05
-2.86579e-08
-2.75076e-08
1.28504e-05
1.10935e-05
-9.95533e-09
1.10999e-05
-2.65011e-08
1.11076e-05
-3.67736e-08
1.11157e-05
-4.2357e-08
1.11238e-05
-4.55886e-08
1.11318e-05
-4.72176e-08
1.11396e-05
-4.7499e-08
1.11468e-05
-4.6838e-08
1.11537e-05
-4.56102e-08
1.116e-05
-4.40664e-08
1.11658e-05
-4.23375e-08
1.11712e-05
-4.05496e-08
1.11762e-05
-3.87481e-08
1.11808e-05
-3.70207e-08
1.1185e-05
-3.5349e-08
1.11889e-05
-3.37841e-08
1.11926e-05
-3.2291e-08
-3.08995e-08
1.1196e-05
9.65847e-06
-1.32055e-08
9.66584e-06
-3.38834e-08
9.67397e-06
-4.49174e-08
9.68199e-06
-5.03846e-08
9.68997e-06
-5.35764e-08
9.69773e-06
-5.49725e-08
9.70505e-06
-5.48266e-08
9.71187e-06
-5.36642e-08
9.71818e-06
-5.19343e-08
9.72401e-06
-4.98929e-08
9.72936e-06
-4.76941e-08
9.73426e-06
-4.54536e-08
9.73874e-06
-4.32541e-08
9.74287e-06
-4.11429e-08
9.74667e-06
-3.9154e-08
9.75018e-06
-3.72916e-08
9.75344e-06
-3.5545e-08
-3.39371e-08
9.75648e-06
8.40971e-06
-1.75688e-08
8.41813e-06
-4.23056e-08
8.42646e-06
-5.3252e-08
8.43439e-06
-5.83201e-08
8.44222e-06
-6.14016e-08
8.44972e-06
-6.24905e-08
8.45674e-06
-6.18416e-08
8.46322e-06
-6.0152e-08
8.46919e-06
-5.79074e-08
8.47466e-06
-5.53639e-08
8.47965e-06
-5.26852e-08
8.48418e-06
-4.99991e-08
8.48831e-06
-4.73889e-08
8.49207e-06
-4.49154e-08
8.49552e-06
-4.26076e-08
8.49871e-06
-4.04677e-08
8.50164e-06
-3.84962e-08
-3.66671e-08
8.50439e-06
7.32314e-06
-2.34263e-08
7.33263e-06
-5.18097e-08
7.34106e-06
-6.1687e-08
7.34902e-06
-6.62755e-08
7.35689e-06
-6.92798e-08
7.36443e-06
-7.00286e-08
7.37145e-06
-6.88688e-08
7.37793e-06
-6.66351e-08
7.38387e-06
-6.38473e-08
7.38926e-06
-6.07618e-08
7.39413e-06
-5.75541e-08
7.39851e-06
-5.43931e-08
7.40245e-06
-5.13355e-08
7.40599e-06
-4.84676e-08
7.4092e-06
-4.58189e-08
7.41213e-06
-4.33926e-08
7.41481e-06
-4.11859e-08
-3.91844e-08
7.41731e-06
6.37814e-06
-3.14996e-08
6.38887e-06
-6.2552e-08
6.39797e-06
-7.07889e-08
6.40706e-06
-7.53907e-08
6.41616e-06
-7.83711e-08
6.42476e-06
-7.86313e-08
6.43266e-06
-7.67733e-08
6.43983e-06
-7.38081e-08
6.44627e-06
-7.02874e-08
6.45198e-06
-6.64694e-08
6.45699e-06
-6.25958e-08
6.46138e-06
-5.87699e-08
6.46517e-06
-5.51372e-08
6.46845e-06
-5.17542e-08
6.47128e-06
-4.86491e-08
6.47373e-06
-4.58412e-08
6.47587e-06
-4.33241e-08
-4.10974e-08
6.47774e-06
5.55972e-06
-4.57537e-08
5.5751e-06
-7.79436e-08
5.58937e-06
-8.5077e-08
5.60403e-06
-9.00613e-08
5.61784e-06
-9.21762e-08
5.62982e-06
-9.06122e-08
5.63991e-06
-8.6858e-08
5.64817e-06
-8.20788e-08
5.65474e-06
-7.68487e-08
5.65972e-06
-7.14753e-08
5.66328e-06
-6.61703e-08
5.66559e-06
-6.10827e-08
5.66679e-06
-5.63304e-08
5.66704e-06
-5.20107e-08
5.6665e-06
-4.81149e-08
5.66535e-06
-4.46808e-08
5.66374e-06
-4.17457e-08
-3.94258e-08
5.66205e-06
4.88141e-06
-9.95587e-08
4.92179e-06
-1.18336e-07
4.95059e-06
-1.13897e-07
4.96823e-06
-1.07719e-07
4.97591e-06
-9.9847e-08
4.97588e-06
-9.0577e-08
4.97011e-06
-8.10843e-08
4.96001e-06
-7.19855e-08
4.9467e-06
-6.3542e-08
4.93103e-06
-5.58262e-08
4.9137e-06
-4.88595e-08
4.89527e-06
-4.26513e-08
4.87615e-06
-3.72155e-08
4.85669e-06
-3.25495e-08
4.83732e-06
-2.87428e-08
4.81842e-06
-2.57929e-08
4.80016e-06
-2.35006e-08
-2.21536e-08
4.78286e-06
4.10312e-06
3.98478e-06
3.87088e-06
3.76316e-06
3.66332e-06
3.57274e-06
3.49165e-06
3.41967e-06
3.35612e-06
3.30029e-06
3.25143e-06
3.20878e-06
3.17157e-06
3.13902e-06
3.11027e-06
3.08448e-06
3.06097e-06
3.03882e-06
-7.51398e-09
7.5221e-09
-2.05637e-08
1.30632e-08
-3.49961e-08
1.44466e-08
-4.76757e-08
1.26894e-08
-5.39341e-08
6.27402e-09
-4.81394e-08
-5.7907e-09
-2.78451e-08
-2.02739e-08
5.04986e-09
-3.28938e-08
4.68908e-08
-4.18171e-08
9.3233e-08
-4.63429e-08
1.39807e-07
-4.6551e-08
1.83506e-07
-4.36987e-08
2.2233e-07
-3.88038e-08
2.54961e-07
-3.26277e-08
2.80675e-07
-2.56948e-08
2.98998e-07
-1.83156e-08
3.09651e-07
-1.06347e-08
3.12305e-07
-2.64325e-09
3.0674e-07
5.58282e-09
2.93027e-07
1.37246e-08
2.71671e-07
2.1374e-08
2.43521e-07
2.81595e-08
2.09851e-07
3.36873e-08
1.72348e-07
3.75121e-08
1.33199e-07
3.917e-08
9.49221e-08
3.829e-08
6.01999e-08
3.47504e-08
3.13011e-08
2.89212e-08
9.52263e-09
2.18163e-08
-5.27062e-09
1.48245e-08
-1.40818e-08
8.85427e-09
-1.77285e-08
3.67655e-09
-1.62717e-08
-1.41356e-09
-8.80069e-09
-7.45214e-09
6.37621e-09
-1.51341e-08
3.0556e-08
-2.41773e-08
6.25215e-08
-3.19324e-08
9.6974e-08
-3.44567e-08
1.27848e-07
-3.0847e-08
1.50575e-07
-2.27289e-08
1.63267e-07
-1.26676e-08
1.66916e-07
-3.64959e-09
1.64694e-07
2.24704e-09
1.59945e-07
4.74577e-09
1.55766e-07
4.22258e-09
1.5289e-07
2.85193e-09
1.45403e-07
7.56631e-09
1.25095e-07
2.0226e-08
8.46792e-08
4.05338e-08
1.85224e-08
6.60384e-08
-7.03604e-08
8.89911e-08
-1.76964e-07
1.0651e-07
-2.97837e-07
1.20938e-07
-4.30573e-07
1.3268e-07
-5.71848e-07
1.41331e-07
-7.15615e-07
1.43728e-07
-8.57746e-07
1.42173e-07
-9.96397e-07
1.38626e-07
-1.12914e-06
1.32778e-07
-1.2549e-06
1.25753e-07
-1.37167e-06
1.168e-07
-1.47942e-06
1.07738e-07
-1.57848e-06
9.90925e-08
-1.66895e-06
9.0476e-08
-1.75203e-06
8.30993e-08
-1.82872e-06
7.66959e-08
-1.89944e-06
7.07425e-08
-1.9649e-06
6.5461e-08
-2.02576e-06
6.08703e-08
-2.08256e-06
5.68095e-08
-2.13578e-06
5.32319e-08
-2.18582e-06
5.00433e-08
-2.23299e-06
4.7181e-08
-2.27757e-06
4.45802e-08
-2.31976e-06
4.21944e-08
-2.35973e-06
3.9976e-08
-2.39762e-06
3.78964e-08
-2.43355e-06
3.59223e-08
-2.46758e-06
3.40386e-08
-2.4998e-06
3.22209e-08
-2.53026e-06
3.0464e-08
-2.55901e-06
2.87511e-08
-2.58608e-06
2.70831e-08
-2.61153e-06
2.54463e-08
-2.63536e-06
2.38431e-08
-2.65762e-06
2.226e-08
-2.67831e-06
2.0695e-08
-2.69745e-06
1.91399e-08
-2.71506e-06
1.75938e-08
-2.73114e-06
1.60516e-08
-2.7457e-06
1.45243e-08
-2.75874e-06
1.3006e-08
-2.77027e-06
1.14947e-08
-2.78028e-06
9.97728e-09
-2.78876e-06
8.44808e-09
-2.7957e-06
6.8931e-09
-2.80103e-06
5.30618e-09
-2.80474e-06
3.67375e-09
-2.80677e-06
2.00237e-09
-2.80713e-06
3.41471e-10
-2.80601e-06
-1.13986e-09
-2.80362e-06
-2.39234e-09
-2.80007e-06
-3.54683e-09
-2.79537e-06
-4.66054e-09
-2.78958e-06
-5.76276e-09
-2.78267e-06
-6.84568e-09
-2.7747e-06
-7.93118e-09
-2.76565e-06
-8.99553e-09
-2.75557e-06
-1.00636e-08
-2.74442e-06
-1.11072e-08
-2.73225e-06
-1.21544e-08
-2.71905e-06
-1.31765e-08
-2.70486e-06
-1.42033e-08
-2.68964e-06
-1.52077e-08
-2.67345e-06
-1.62193e-08
-2.65625e-06
-1.72122e-08
-2.63808e-06
-1.82113e-08
-2.61892e-06
-1.91946e-08
-2.5988e-06
-2.01861e-08
-2.57768e-06
-2.11728e-08
-2.55556e-06
-2.21713e-08
-2.53244e-06
-2.31715e-08
-2.50831e-06
-2.41789e-08
-2.48317e-06
-2.51889e-08
-2.45704e-06
-2.62021e-08
-2.42989e-06
-2.72204e-08
-2.40173e-06
-2.82375e-08
-2.37255e-06
-2.92635e-08
-2.34234e-06
-3.02849e-08
-2.31111e-06
-3.13197e-08
-2.27882e-06
-3.23451e-08
-2.24552e-06
-3.33726e-08
-2.21118e-06
-3.43777e-08
-2.17584e-06
-3.53852e-08
-2.13949e-06
-3.63567e-08
-2.1022e-06
-3.73149e-08
-2.06397e-06
-3.82102e-08
-2.02489e-06
-3.90637e-08
-1.985e-06
-3.98341e-08
-1.94421e-06
-4.07111e-08
-1.90246e-06
-4.16644e-08
-1.85984e-06
-4.25332e-08
-1.8164e-06
-4.33653e-08
-1.77216e-06
-4.41683e-08
-1.72714e-06
-4.49399e-08
-1.68139e-06
-4.56813e-08
-1.63494e-06
-4.63894e-08
-1.58781e-06
-4.70671e-08
-1.54004e-06
-4.77117e-08
-1.49167e-06
-4.83273e-08
-1.4427e-06
-4.89111e-08
-1.39319e-06
-4.94668e-08
-1.34315e-06
-4.99943e-08
-1.29262e-06
-5.04912e-08
-1.24161e-06
-5.09615e-08
-1.19017e-06
-5.13981e-08
-1.13832e-06
-5.18076e-08
-1.08609e-06
-5.21857e-08
-1.03351e-06
-5.25436e-08
-9.80605e-07
-5.28799e-08
-9.27374e-07
-5.32035e-08
-8.73826e-07
-5.35251e-08
-8.19964e-07
-5.38415e-08
-7.65783e-07
-5.4163e-08
-7.11279e-07
-5.44885e-08
-6.56447e-07
-5.48157e-08
-6.01291e-07
-5.51443e-08
-5.45806e-07
-5.5468e-08
-4.90007e-07
-5.57877e-08
-4.33892e-07
-5.60974e-08
-3.77484e-07
-5.63943e-08
-3.20804e-07
-5.66618e-08
-2.63908e-07
-5.6881e-08
-2.06893e-07
-5.69962e-08
-1.49949e-07
-5.69311e-08
-9.34657e-08
-5.64675e-08
-3.80153e-08
-5.54342e-08
1.47856e-08
-5.2773e-08
6.44239e-08
-4.9608e-08
-2.52181e-08
8.96568e-08
-3.38473e-09
1.09225e-08
-9.45817e-09
1.91676e-08
-1.2636e-08
1.76588e-08
-6.49913e-09
6.58188e-09
1.39706e-08
-1.41639e-08
4.84193e-08
-4.02259e-08
9.30206e-08
-6.48585e-08
1.42705e-07
-8.2573e-08
1.92555e-07
-9.16541e-08
2.39171e-07
-9.29556e-08
2.80984e-07
-8.83526e-08
3.17169e-07
-7.98797e-08
3.47535e-07
-6.91591e-08
3.722e-07
-5.72873e-08
3.91457e-07
-4.49401e-08
4.05644e-07
-3.24959e-08
4.15158e-07
-2.0137e-08
4.20491e-07
-7.96729e-09
4.22048e-07
4.03838e-09
4.19807e-07
1.59746e-08
4.13364e-07
2.78286e-08
4.02125e-07
3.94076e-08
3.85504e-07
5.03195e-08
3.6306e-07
5.99641e-08
3.34681e-07
6.7562e-08
3.00743e-07
7.22385e-08
2.62315e-07
7.3196e-08
2.2126e-07
6.99907e-08
1.80369e-07
6.27319e-08
1.43165e-07
5.20514e-08
1.13328e-07
3.87289e-08
9.36393e-08
2.33945e-08
8.58926e-08
6.38054e-09
9.00049e-08
-1.15426e-08
1.04958e-07
-3.00506e-08
1.27349e-07
-4.65626e-08
1.50839e-07
-5.53995e-08
1.69186e-07
-5.28041e-08
1.78856e-07
-4.04994e-08
1.79166e-07
-2.30399e-08
1.70717e-07
-4.19665e-09
1.55202e-07
1.18659e-08
1.33703e-07
2.37871e-08
1.00575e-07
3.78717e-08
4.65278e-08
5.8342e-08
-3.66955e-08
8.60846e-08
-1.49245e-07
1.20167e-07
-2.84001e-07
1.54978e-07
-4.31329e-07
1.87883e-07
-5.83499e-07
2.18202e-07
-7.37757e-07
2.43259e-07
-8.92352e-07
2.61092e-07
-1.04367e-06
2.72258e-07
-1.18784e-06
2.76847e-07
-1.32123e-06
2.74723e-07
-1.4434e-06
2.65891e-07
-1.55342e-06
2.52201e-07
-1.65099e-06
2.36198e-07
-1.73717e-06
2.18957e-07
-1.81303e-06
2.01614e-07
-1.88067e-06
1.84451e-07
-1.94124e-06
1.68302e-07
-1.99581e-06
1.5367e-07
-2.0458e-06
1.40478e-07
-2.09173e-06
1.29036e-07
-2.13417e-06
1.19138e-07
-2.17387e-06
1.10444e-07
-2.21124e-06
1.02835e-07
-2.24654e-06
9.61762e-08
-2.28001e-06
9.02866e-08
-2.31181e-06
8.50339e-08
-2.34205e-06
8.02951e-08
-2.37084e-06
7.59702e-08
-2.39823e-06
7.19741e-08
-2.42427e-06
6.82404e-08
-2.44901e-06
6.47132e-08
-2.47246e-06
6.13508e-08
-2.49465e-06
5.81176e-08
-2.5156e-06
5.49898e-08
-2.53532e-06
5.19443e-08
-2.55382e-06
4.89689e-08
-2.57111e-06
4.60488e-08
-2.5872e-06
4.31789e-08
-2.6021e-06
4.03481e-08
-2.61581e-06
3.75535e-08
-2.62833e-06
3.47845e-08
-2.63967e-06
3.20379e-08
-2.64983e-06
2.93077e-08
-2.65884e-06
2.65872e-08
-2.66669e-06
2.38845e-08
-2.6734e-06
2.11997e-08
-2.67895e-06
1.85349e-08
-2.68337e-06
1.58894e-08
-2.68667e-06
1.32551e-08
-2.68888e-06
1.06348e-08
-2.69004e-06
8.02736e-09
-2.6902e-06
5.44526e-09
-2.68945e-06
2.89847e-09
-2.68788e-06
4.16255e-10
-2.68557e-06
-1.97725e-09
-2.68243e-06
-4.28606e-09
-2.67827e-06
-6.55439e-09
-2.673e-06
-8.78686e-09
-2.66665e-06
-1.09841e-08
-2.65922e-06
-1.3155e-08
-2.65072e-06
-1.5307e-08
-2.64117e-06
-1.74424e-08
-2.63058e-06
-1.95571e-08
-2.61895e-06
-2.16536e-08
-2.60632e-06
-2.37258e-08
-2.59267e-06
-2.578e-08
-2.57804e-06
-2.78101e-08
-2.56241e-06
-2.98263e-08
-2.5458e-06
-3.18229e-08
-2.52821e-06
-3.38122e-08
-2.50966e-06
-3.57874e-08
-2.49013e-06
-3.77593e-08
-2.46964e-06
-3.97222e-08
-2.44818e-06
-4.16898e-08
-2.42573e-06
-4.36605e-08
-2.40229e-06
-4.56469e-08
-2.37785e-06
-4.76424e-08
-2.35242e-06
-4.9652e-08
-2.32597e-06
-5.16691e-08
-2.29853e-06
-5.36967e-08
-2.27007e-06
-5.57313e-08
-2.24059e-06
-5.77727e-08
-2.21008e-06
-5.98201e-08
-2.17856e-06
-6.18688e-08
-2.14601e-06
-6.39201e-08
-2.11244e-06
-6.59631e-08
-2.07785e-06
-6.79969e-08
-2.04226e-06
-7.00102e-08
-2.00566e-06
-7.20063e-08
-1.96807e-06
-7.39662e-08
-1.9295e-06
-7.58892e-08
-1.88995e-06
-7.7757e-08
-1.84942e-06
-7.95734e-08
-1.80788e-06
-8.13355e-08
-1.76542e-06
-8.31173e-08
-1.72212e-06
-8.48995e-08
-1.67798e-06
-8.66136e-08
-1.63302e-06
-8.82716e-08
-1.58727e-06
-8.98683e-08
-1.54075e-06
-9.14064e-08
-1.49351e-06
-9.28802e-08
-1.44556e-06
-9.42915e-08
-1.39695e-06
-9.56376e-08
-1.3477e-06
-9.69213e-08
-1.29786e-06
-9.81422e-08
-1.24743e-06
-9.93039e-08
-1.19646e-06
-1.00407e-07
-1.14497e-06
-1.01456e-07
-1.09299e-06
-1.02446e-07
-1.04054e-06
-1.03384e-07
-9.87647e-07
-1.04261e-07
-9.34346e-07
-1.05082e-07
-8.80662e-07
-1.05845e-07
-8.26617e-07
-1.06565e-07
-7.72228e-07
-1.07249e-07
-7.17505e-07
-1.07907e-07
-6.62458e-07
-1.08557e-07
-6.07081e-07
-1.09202e-07
-5.51374e-07
-1.09857e-07
-4.95327e-07
-1.10521e-07
-4.38936e-07
-1.11194e-07
-3.82197e-07
-1.1187e-07
-3.25111e-07
-1.12541e-07
-2.6768e-07
-1.13206e-07
-2.09909e-07
-1.13857e-07
-1.51807e-07
-1.14485e-07
-9.33942e-08
-1.15065e-07
-3.47156e-08
-1.15551e-07
2.41499e-08
-1.15857e-07
8.30421e-08
-1.1582e-07
1.41673e-07
-1.151e-07
1.99463e-07
-1.13224e-07
2.55873e-07
-1.09184e-07
3.07356e-07
-1.01091e-07
-7.50424e-08
3.57168e-07
3.52401e-10
1.05883e-08
3.49394e-09
1.60612e-08
1.66404e-08
4.54667e-09
4.72938e-08
-2.40518e-08
9.47101e-08
-6.15642e-08
1.50553e-07
-9.60625e-08
2.05434e-07
-1.19729e-07
2.53618e-07
-1.30753e-07
2.93113e-07
-1.31141e-07
3.24274e-07
-1.24114e-07
3.48495e-07
-1.12566e-07
3.6721e-07
-9.85919e-08
3.81578e-07
-8.35192e-08
3.92405e-07
-6.81101e-08
4.00245e-07
-5.27726e-08
4.05465e-07
-3.77104e-08
4.08352e-07
-2.30156e-08
4.09128e-07
-8.73744e-09
4.0807e-07
5.10501e-09
4.0551e-07
1.85409e-08
4.01725e-07
3.16214e-08
3.96791e-07
4.43482e-08
3.90501e-07
5.66177e-08
3.82315e-07
6.81568e-08
3.71419e-07
7.84685e-08
3.56864e-07
8.68018e-08
3.37891e-07
9.2181e-08
3.14359e-07
9.35337e-08
2.87176e-07
8.99312e-08
2.58423e-07
8.08189e-08
2.31006e-07
6.61667e-08
2.07906e-07
4.65121e-08
1.91369e-07
2.29425e-08
1.8263e-07
-2.78866e-09
1.7951e-07
-2.69096e-08
1.75629e-07
-4.26747e-08
1.64485e-07
-4.42421e-08
1.44324e-07
-3.26414e-08
1.15967e-07
-1.21284e-08
7.96895e-08
1.32406e-08
3.31706e-08
4.23437e-08
-2.9332e-08
7.43796e-08
-1.13973e-07
1.08451e-07
-2.22308e-07
1.46219e-07
-3.5145e-07
1.87501e-07
-4.95053e-07
2.29696e-07
-6.446e-07
2.69727e-07
-7.94362e-07
3.04743e-07
-9.393e-07
3.32829e-07
-1.07439e-06
3.53293e-07
-1.19691e-06
3.6578e-07
-1.30611e-06
3.70287e-07
-1.40135e-06
3.67502e-07
-1.4828e-06
3.583e-07
-1.55183e-06
3.43753e-07
-1.61115e-06
3.25208e-07
-1.6633e-06
3.04346e-07
-1.70985e-06
2.8275e-07
-1.75231e-06
2.61418e-07
-1.79177e-06
2.41072e-07
-1.82937e-06
2.2205e-07
-1.86569e-06
2.04625e-07
-1.90099e-06
1.88968e-07
-1.93551e-06
1.74998e-07
-1.96916e-06
1.62683e-07
-2.00188e-06
1.51857e-07
-2.03371e-06
1.42282e-07
-2.06465e-06
1.33777e-07
-2.09466e-06
1.26183e-07
-2.1237e-06
1.19336e-07
-2.15177e-06
1.131e-07
-2.17883e-06
1.07359e-07
-2.20487e-06
1.02014e-07
-2.22987e-06
9.69839e-08
-2.25383e-06
9.2203e-08
-2.27674e-06
8.76183e-08
-2.29857e-06
8.3189e-08
-2.31933e-06
7.88824e-08
-2.33901e-06
7.46744e-08
-2.35761e-06
7.05454e-08
-2.37512e-06
6.64819e-08
-2.39154e-06
6.24724e-08
-2.40687e-06
5.85095e-08
-2.4211e-06
5.45855e-08
-2.43424e-06
5.0695e-08
-2.44628e-06
4.68316e-08
-2.45723e-06
4.29906e-08
-2.46709e-06
3.9166e-08
-2.47587e-06
3.5357e-08
-2.48356e-06
3.15629e-08
-2.49017e-06
2.77912e-08
-2.4957e-06
2.40461e-08
-2.50015e-06
2.03237e-08
-2.50354e-06
1.66284e-08
-2.50588e-06
1.29578e-08
-2.50718e-06
9.32291e-09
-2.50748e-06
5.72853e-09
-2.50678e-06
2.19188e-09
-2.50509e-06
-1.28015e-09
-2.50239e-06
-4.68142e-09
-2.49864e-06
-8.03303e-09
-2.49383e-06
-1.13541e-08
-2.48795e-06
-1.46397e-08
-2.48102e-06
-1.78886e-08
-2.47303e-06
-2.10989e-08
-2.46403e-06
-2.42826e-08
-2.454e-06
-2.74319e-08
-2.44298e-06
-3.05539e-08
-2.43097e-06
-3.36386e-08
-2.41799e-06
-3.66947e-08
-2.40404e-06
-3.97149e-08
-2.38914e-06
-4.27098e-08
-2.37328e-06
-4.56756e-08
-2.35649e-06
-4.86242e-08
-2.33875e-06
-5.15542e-08
-2.32008e-06
-5.4476e-08
-2.30046e-06
-5.7389e-08
-2.27991e-06
-6.03031e-08
-2.25841e-06
-6.32218e-08
-2.23595e-06
-6.61546e-08
-2.21251e-06
-6.91057e-08
-2.18811e-06
-7.20773e-08
-2.16272e-06
-7.50691e-08
-2.13634e-06
-7.8079e-08
-2.10897e-06
-8.11067e-08
-2.08059e-06
-8.41482e-08
-2.0512e-06
-8.72031e-08
-2.0208e-06
-9.02653e-08
-1.98938e-06
-9.33328e-08
-1.95694e-06
-9.63977e-08
-1.92348e-06
-9.94547e-08
-1.88901e-06
-1.02494e-07
-1.85354e-06
-1.05512e-07
-1.81706e-06
-1.08499e-07
-1.7796e-06
-1.11444e-07
-1.74115e-06
-1.14332e-07
-1.70174e-06
-1.17158e-07
-1.66138e-06
-1.19917e-07
-1.62007e-06
-1.22614e-07
-1.57787e-06
-1.25279e-07
-1.53483e-06
-1.279e-07
-1.49096e-06
-1.30446e-07
-1.4463e-06
-1.32911e-07
-1.40085e-06
-1.35289e-07
-1.35466e-06
-1.37576e-07
-1.30776e-06
-1.39769e-07
-1.26017e-06
-1.41866e-07
-1.21192e-06
-1.43867e-07
-1.16306e-06
-1.45772e-07
-1.1136e-06
-1.47586e-07
-1.06359e-06
-1.49309e-07
-1.01304e-06
-1.50947e-07
-9.61979e-07
-1.52504e-07
-9.10435e-07
-1.53981e-07
-8.58431e-07
-1.55378e-07
-8.05992e-07
-1.56692e-07
-7.53144e-07
-1.5792e-07
-6.99911e-07
-1.59072e-07
-6.46316e-07
-1.60154e-07
-5.92371e-07
-1.61189e-07
-5.38089e-07
-1.62184e-07
-4.83477e-07
-1.63167e-07
-4.28531e-07
-1.64146e-07
-3.7325e-07
-1.65137e-07
-3.17624e-07
-1.66146e-07
-2.61649e-07
-1.67168e-07
-2.05321e-07
-1.68197e-07
-1.48638e-07
-1.69222e-07
-9.16028e-08
-1.70238e-07
-3.42179e-08
-1.71238e-07
2.35089e-08
-1.72207e-07
8.156e-08
-1.7311e-07
1.39894e-07
-1.73877e-07
1.98432e-07
-1.74386e-07
2.5703e-07
-1.74409e-07
3.15473e-07
-1.73532e-07
3.73395e-07
-1.71135e-07
4.30342e-07
-1.66116e-07
4.85342e-07
-1.56074e-07
-1.31464e-07
5.41779e-07
-8.79515e-11
1.06982e-08
1.16029e-08
4.40446e-09
4.80675e-08
-3.1891e-08
1.06337e-07
-8.23109e-08
1.70862e-07
-1.26078e-07
2.27832e-07
-1.53029e-07
2.71109e-07
-1.62999e-07
3.00896e-07
-1.60538e-07
3.20335e-07
-1.50573e-07
3.32883e-07
-1.3666e-07
3.41203e-07
-1.20879e-07
3.46931e-07
-1.04318e-07
3.50947e-07
-8.75282e-08
3.53635e-07
-7.07955e-08
3.55148e-07
-5.42793e-08
3.55523e-07
-3.80815e-08
3.54788e-07
-2.22738e-08
3.52972e-07
-6.91651e-09
3.50147e-07
7.93718e-09
3.46432e-07
2.22609e-08
3.42029e-07
3.60315e-08
3.37162e-07
4.92203e-08
3.32018e-07
6.1769e-08
3.26643e-07
7.35386e-08
3.20856e-07
8.42649e-08
3.14186e-07
9.34801e-08
3.05924e-07
1.00454e-07
2.95284e-07
1.04185e-07
2.81739e-07
1.03491e-07
2.65336e-07
9.72365e-08
2.46809e-07
8.47115e-08
2.27516e-07
6.58193e-08
2.08788e-07
4.16914e-08
1.89774e-07
1.62369e-08
1.64917e-07
-2.03469e-09
1.28551e-07
-6.30391e-09
8.06872e-08
3.63577e-09
2.26001e-08
2.54498e-08
-4.71085e-08
5.75934e-08
-1.3142e-07
9.75597e-08
-2.31502e-07
1.42436e-07
-3.46711e-07
1.89596e-07
-4.75171e-07
2.36921e-07
-6.11836e-07
2.82888e-07
-7.50377e-07
3.2605e-07
-8.84821e-07
3.64144e-07
-1.00969e-06
3.94603e-07
-1.12137e-06
4.16429e-07
-1.21838e-06
4.29841e-07
-1.30025e-06
4.35169e-07
-1.36771e-06
4.3324e-07
-1.42254e-06
4.25115e-07
-1.46693e-06
4.11896e-07
-1.50339e-06
3.94763e-07
-1.53451e-06
3.74874e-07
-1.56267e-06
3.53363e-07
-1.58959e-06
3.31272e-07
-1.61628e-06
3.09439e-07
-1.64331e-06
2.88448e-07
-1.67093e-06
2.68689e-07
-1.69924e-06
2.50364e-07
-1.72819e-06
2.33571e-07
-1.75757e-06
2.18341e-07
-1.78717e-06
2.04601e-07
-1.81676e-06
1.92268e-07
-1.84611e-06
1.81211e-07
-1.87509e-06
1.71258e-07
-1.90356e-06
1.62249e-07
-1.93142e-06
1.54039e-07
-1.95857e-06
1.46492e-07
-1.98496e-06
1.39486e-07
-2.01051e-06
1.32917e-07
-2.0352e-06
1.26698e-07
-2.05896e-06
1.20755e-07
-2.08179e-06
1.15029e-07
-2.10364e-06
1.09474e-07
-2.1245e-06
1.04052e-07
-2.14435e-06
9.87368e-08
-2.16318e-06
9.35068e-08
-2.18097e-06
8.83462e-08
-2.19773e-06
8.32436e-08
-2.21344e-06
7.81899e-08
-2.22811e-06
7.31784e-08
-2.24172e-06
6.82031e-08
-2.25428e-06
6.3259e-08
-2.26579e-06
5.83409e-08
-2.27624e-06
5.3444e-08
-2.28564e-06
4.85647e-08
-2.29399e-06
4.36982e-08
-2.30129e-06
3.8852e-08
-2.30753e-06
3.40239e-08
-2.31272e-06
2.92231e-08
-2.31686e-06
2.44487e-08
-2.31994e-06
1.97047e-08
-2.32199e-06
1.49927e-08
-2.32299e-06
1.03211e-08
-2.32296e-06
5.69561e-09
-2.3219e-06
1.12691e-09
-2.3198e-06
-3.38239e-09
-2.31664e-06
-7.83127e-09
-2.31243e-06
-1.22301e-08
-2.30718e-06
-1.65866e-08
-2.3009e-06
-2.08975e-08
-2.29359e-06
-2.51629e-08
-2.28527e-06
-2.93805e-08
-2.27597e-06
-3.35573e-08
-2.26569e-06
-3.76862e-08
-2.25445e-06
-4.17737e-08
-2.24226e-06
-4.58108e-08
-2.22913e-06
-4.98078e-08
-2.21508e-06
-5.37576e-08
-2.20011e-06
-5.76749e-08
-2.18423e-06
-6.15551e-08
-2.16744e-06
-6.54154e-08
-2.14975e-06
-6.92526e-08
-2.13115e-06
-7.30839e-08
-2.11165e-06
-7.69077e-08
-2.09123e-06
-8.07401e-08
-2.06989e-06