/*--------------------------------*- C++ -*----------------------------------*\
  =========                 |
  \\      /  F ield         | OpenFOAM: The Open Source CFD Toolbox
   \\    /   O peration     | Website:  https://openfoam.org
    \\  /    A nd           | Version:  13
     \\/     M anipulation  |
\*---------------------------------------------------------------------------*/
FoamFile
{
    format      ascii;
    class       volVectorField;
    location    "600";
    object      U;
}
// * * * * * * * * * * * * * * * * * * * * * * * * * * * * * * * * * * * * * //

dimensions      [0 1 -1 0 0 0 0];

internalField   nonuniform List<vector> 
12225
(
(9.77289 0.0536143 0)
(9.35601 0.102609 0)
(8.91537 0.120306 0)
(8.48895 0.121988 0)
(8.11353 0.108432 0)
(7.79904 0.0822888 0)
(7.53608 0.0529081 0)
(7.3165 0.0411157 0)
(7.13037 0.0445822 0)
(6.96922 0.0482219 0)
(6.83619 0.0397519 0)
(6.72825 0.0166589 0)
(6.63965 -0.000685492 0)
(6.56726 -0.00602172 0)
(6.50802 -0.0112699 0)
(6.46052 -0.0153196 0)
(6.42651 -0.0191977 0)
(6.41436 -0.00659089 0)
(10.0733 0.0504972 0)
(10.2289 0.0831694 0)
(10.3134 0.0828503 0)
(10.3342 0.0819264 0)
(10.3106 0.0817137 0)
(10.2517 0.0807914 0)
(10.1862 0.0788137 0)
(10.1134 0.0728111 0)
(10.0284 0.063751 0)
(9.9364 0.0557837 0)
(9.8387 0.0517793 0)
(9.74373 0.0513337 0)
(9.66542 0.0480824 0)
(9.59163 0.0423224 0)
(9.52278 0.0379543 0)
(9.45842 0.033689 0)
(9.39673 0.0263726 0)
(9.33811 0.0152325 0)
(10.0231 0.0417426 0)
(10.0721 0.0701273 0)
(10.1258 0.0747071 0)
(10.1691 0.0805031 0)
(10.2103 0.0835662 0)
(10.2474 0.0829955 0)
(10.276 0.0803284 0)
(10.2959 0.0783187 0)
(10.3094 0.077322 0)
(10.3191 0.0764309 0)
(10.3244 0.0732071 0)
(10.3237 0.0670722 0)
(10.318 0.0622581 0)
(10.3089 0.0596212 0)
(10.2981 0.0561634 0)
(10.2855 0.0515018 0)
(10.2706 0.0455828 0)
(10.2533 0.038243 0)
(10.0104 0.0318034 0)
(10.0384 0.0573937 0)
(10.0702 0.0671995 0)
(10.0949 0.0741242 0)
(10.1163 0.0770468 0)
(10.1358 0.0754296 0)
(10.1529 0.0717438 0)
(10.1679 0.0690836 0)
(10.1818 0.0670593 0)
(10.1958 0.0651021 0)
(10.2098 0.0622153 0)
(10.2222 0.0573473 0)
(10.232 0.0525378 0)
(10.2404 0.0492172 0)
(10.2481 0.0463073 0)
(10.255 0.0430014 0)
(10.2602 0.0386819 0)
(10.2645 0.0340559 0)
(10.0061 0.0252962 0)
(10.0264 0.0518577 0)
(10.0495 0.0628967 0)
(10.0709 0.0690862 0)
(10.087 0.0717713 0)
(10.1016 0.0709306 0)
(10.1139 0.0683124 0)
(10.1242 0.0660991 0)
(10.1334 0.0643354 0)
(10.1424 0.0625287 0)
(10.1515 0.0598269 0)
(10.1597 0.055713 0)
(10.1662 0.0515736 0)
(10.1721 0.0482614 0)
(10.1779 0.045078 0)
(10.1835 0.041612 0)
(10.1884 0.0377134 0)
(10.1928 0.0337886 0)
(10.0042 0.0209195 0)
(10.0201 0.0459351 0)
(10.0377 0.0567051 0)
(10.0564 0.0626347 0)
(10.0714 0.0658215 0)
(10.085 0.0661424 0)
(10.0969 0.0645866 0)
(10.1069 0.0627552 0)
(10.1159 0.0609199 0)
(10.1243 0.0589169 0)
(10.1324 0.0561952 0)
(10.1396 0.052449 0)
(10.1454 0.0485907 0)
(10.1505 0.0452238 0)
(10.1552 0.0419634 0)
(10.1595 0.0385739 0)
(10.1633 0.0349838 0)
(10.1667 0.0314963 0)
(10.0029 0.0175269 0)
(10.0157 0.0412278 0)
(10.0314 0.0511546 0)
(10.0473 0.0569278 0)
(10.0611 0.0605278 0)
(10.0737 0.0615049 0)
(10.0849 0.0606029 0)
(10.0946 0.059074 0)
(10.1033 0.0573282 0)
(10.1114 0.0553518 0)
(10.119 0.0528269 0)
(10.1259 0.0496019 0)
(10.1316 0.0462378 0)
(10.1365 0.0430995 0)
(10.1411 0.0399908 0)
(10.1452 0.0367954 0)
(10.1489 0.0335141 0)
(10.1521 0.0303642 0)
(10.0017 0.014621 0)
(10.0127 0.0368482 0)
(10.0281 0.0464076 0)
(10.0415 0.0522177 0)
(10.0538 0.0556714 0)
(10.0653 0.0569098 0)
(10.0757 0.0564519 0)
(10.085 0.055196 0)
(10.0934 0.0535803 0)
(10.1011 0.0516771 0)
(10.1083 0.049322 0)
(10.1148 0.0464401 0)
(10.1205 0.0433957 0)
(10.1255 0.0404407 0)
(10.1301 0.0374859 0)
(10.1343 0.0344829 0)
(10.138 0.0314388 0)
(10.1413 0.0285257 0)
(10.001 0.012389 0)
(10.0107 0.032298 0)
(10.0244 0.0418748 0)
(10.0367 0.0477773 0)
(10.0481 0.051097 0)
(10.0587 0.0525066 0)
(10.0686 0.0523906 0)
(10.0775 0.0513769 0)
(10.0856 0.0498867 0)
(10.0931 0.0480477 0)
(10.1 0.0458267 0)
(10.1063 0.0432385 0)
(10.1119 0.0404726 0)
(10.1169 0.0376899 0)
(10.1215 0.0348802 0)
(10.1257 0.03205 0)
(10.1294 0.0292188 0)
(10.1328 0.0265234 0)
(10.0008 0.0105053 0)
(10.0088 0.0282536 0)
(10.0205 0.0374934 0)
(10.0321 0.0433244 0)
(10.043 0.0466606 0)
(10.0531 0.0481746 0)
(10.0626 0.0482861 0)
(10.0713 0.0474733 0)
(10.0791 0.0461151 0)
(10.0864 0.0443794 0)
(10.0931 0.042312 0)
(10.0993 0.0399416 0)
(10.1048 0.0373746 0)
(10.1098 0.0347523 0)
(10.1143 0.0321054 0)
(10.1184 0.0294585 0)
(10.1221 0.0268309 0)
(10.1255 0.0243267 0)
(10.0006 0.00880755 0)
(10.0071 0.0243724 0)
(10.0169 0.0330594 0)
(10.0276 0.0386474 0)
(10.0379 0.0419412 0)
(10.0477 0.0435853 0)
(10.0568 0.043908 0)
(10.0653 0.043309 0)
(10.0731 0.0421155 0)
(10.0802 0.0405243 0)
(10.0868 0.0386153 0)
(10.0928 0.0364305 0)
(10.0983 0.0340789 0)
(10.1032 0.0316522 0)
(10.1077 0.0291803 0)
(10.1118 0.0267071 0)
(10.1154 0.0242582 0)
(10.1188 0.0219355 0)
(10.0006 0.00743716 0)
(10.0058 0.0210372 0)
(10.0142 0.028961 0)
(10.0239 0.0342143 0)
(10.0335 0.0374017 0)
(10.0428 0.0390925 0)
(10.0516 0.0395744 0)
(10.0598 0.0391666 0)
(10.0674 0.0381607 0)
(10.0745 0.03674 0)
(10.0809 0.0350059 0)
(10.0869 0.0330172 0)
(10.0923 0.0308712 0)
(10.0972 0.0286224 0)
(10.1017 0.0263409 0)
(10.1057 0.0240453 0)
(10.1093 0.0217771 0)
(10.1127 0.0196115 0)
(10.0005 0.00627823 0)
(10.0049 0.0182901 0)
(10.0121 0.025327 0)
(10.0208 0.0301523 0)
(10.0297 0.0331392 0)
(10.0384 0.0347659 0)
(10.0468 0.0353048 0)
(10.0547 0.0350118 0)
(10.0621 0.0341395 0)
(10.069 0.0328601 0)
(10.0753 0.031274 0)
(10.0812 0.0294546 0)
(10.0865 0.027479 0)
(10.0914 0.0254093 0)
(10.0958 0.0233001 0)
(10.0998 0.0211822 0)
(10.1034 0.0190773 0)
(10.1068 0.0170867 0)
(10.0004 0.00514976 0)
(10.004 0.0154001 0)
(10.0102 0.0213685 0)
(10.0179 0.0256173 0)
(10.0259 0.0282956 0)
(10.0339 0.0297843 0)
(10.0418 0.0303181 0)
(10.0493 0.0301132 0)
(10.0564 0.029367 0)
(10.063 0.0282396 0)
(10.0691 0.0268163 0)
(10.0748 0.0251928 0)
(10.08 0.0234115 0)
(10.0848 0.0215571 0)
(10.0892 0.0196455 0)
(10.0931 0.0177354 0)
(10.0967 0.015825 0)
(10.1001 0.0140287 0)
(10.0004 0.00405136 0)
(10.0033 0.0124161 0)
(10.0085 0.0171714 0)
(10.0152 0.0206865 0)
(10.0224 0.02294 0)
(10.0297 0.0241949 0)
(10.0369 0.0246572 0)
(10.0439 0.0244858 0)
(10.0506 0.0238435 0)
(10.0569 0.0228468 0)
(10.0627 0.0216015 0)
(10.0682 0.0201625 0)
(10.0732 0.0186071 0)
(10.0778 0.0169612 0)
(10.0821 0.0152857 0)
(10.086 0.013584 0)
(10.0895 0.0119101 0)
(10.0929 0.0103122 0)
(10.0003 0.00297206 0)
(10.0027 0.00935957 0)
(10.0071 0.0127857 0)
(10.0129 0.0154055 0)
(10.0193 0.0170931 0)
(10.0259 0.0180044 0)
(10.0325 0.0183027 0)
(10.0389 0.0180983 0)
(10.0452 0.0175104 0)
(10.0511 0.0166296 0)
(10.0566 0.0155431 0)
(10.0618 0.0142996 0)
(10.0666 0.0129591 0)
(10.0711 0.0115461 0)
(10.0752 0.0101029 0)
(10.079 0.00864538 0)
(10.0825 0.00720217 0)
(10.0858 0.00584123 0)
(10.0002 0.00189447 0)
(10.0023 0.00621287 0)
(10.006 0.00820061 0)
(10.011 0.00976392 0)
(10.0167 0.0107293 0)
(10.0227 0.0111777 0)
(10.0287 0.0112047 0)
(10.0347 0.0108901 0)
(10.0405 0.0102974 0)
(10.046 0.0095046 0)
(10.0513 0.00855085 0)
(10.0562 0.00750093 0)
(10.0608 0.00636382 0)
(10.0651 0.00519284 0)
(10.0691 0.00398456 0)
(10.0728 0.00278488 0)
(10.0762 0.00158295 0)
(10.0794 0.000462307 0)
(10.0002 0.00078121 0)
(10.002 0.00290126 0)
(10.0053 0.00332177 0)
(10.0098 0.00365696 0)
(10.015 0.00373869 0)
(10.0204 0.00358199 0)
(10.026 0.00322648 0)
(10.0316 0.00270653 0)
(10.0371 0.00204951 0)
(10.0423 0.00129103 0)
(10.0473 0.000454631 0)
(10.0521 -0.00043386 0)
(10.0565 -0.00136031 0)
(10.0606 -0.00230582 0)
(10.0645 -0.00326029 0)
(10.0681 -0.00420914 0)
(10.0714 -0.00514521 0)
(10.0746 -0.00602748 0)
(10.0002 -0.000450776 0)
(10.0019 -0.00077651 0)
(10.0051 -0.00212282 0)
(10.0094 -0.00319618 0)
(10.0144 -0.00415584 0)
(10.0197 -0.00504115 0)
(10.0251 -0.00588412 0)
(10.0305 -0.00668184 0)
(10.0358 -0.00746255 0)
(10.0409 -0.00821608 0)
(10.0457 -0.00896476 0)
(10.0503 -0.00969579 0)
(10.0547 -0.0104237 0)
(10.0587 -0.0111355 0)
(10.0625 -0.0118404 0)
(10.0661 -0.0125262 0)
(10.0694 -0.0131976 0)
(10.0725 -0.013827 0)
(10.0002 -0.00166211 0)
(10.0021 -0.00438905 0)
(10.0056 -0.00744574 0)
(10.0103 -0.00984669 0)
(10.0156 -0.0117571 0)
(10.0211 -0.013315 0)
(10.0267 -0.014579 0)
(10.0322 -0.0156269 0)
(10.0376 -0.0164853 0)
(10.0428 -0.0172288 0)
(10.0477 -0.0178663 0)
(10.0524 -0.0184514 0)
(10.0567 -0.0189755 0)
(10.0608 -0.0194789 0)
(10.0646 -0.0199455 0)
(10.0681 -0.0204034 0)
(10.0714 -0.0208329 0)
(10.0745 -0.0212467 0)
(10.0003 -0.00279285 0)
(10.0025 -0.00767996 0)
(10.0067 -0.012216 0)
(10.012 -0.0156604 0)
(10.0179 -0.0182777 0)
(10.0238 -0.020306 0)
(10.0298 -0.0218493 0)
(10.0357 -0.0230166 0)
(10.0413 -0.0238832 0)
(10.0467 -0.0245525 0)
(10.0517 -0.0250646 0)
(10.0564 -0.0254859 0)
(10.0609 -0.025827 0)
(10.065 -0.0261356 0)
(10.0688 -0.0264062 0)
(10.0724 -0.0266686 0)
(10.0757 -0.0269098 0)
(10.0789 -0.0271434 0)
(10.0004 -0.00403371 0)
(10.0032 -0.0111758 0)
(10.0084 -0.0170986 0)
(10.0147 -0.0213828 0)
(10.0213 -0.0245466 0)
(10.0279 -0.0269099 0)
(10.0344 -0.0286282 0)
(10.0407 -0.0298125 0)
(10.0466 -0.0306235 0)
(10.0523 -0.031158 0)
(10.0575 -0.0315205 0)
(10.0624 -0.0317445 0)
(10.0669 -0.0319041 0)
(10.0711 -0.0320031 0)
(10.075 -0.0320961 0)
(10.0786 -0.0321633 0)
(10.082 -0.0322428 0)
(10.0852 -0.03231 0)
(10.0005 -0.0054878 0)
(10.0043 -0.0150717 0)
(10.0109 -0.0222252 0)
(10.0185 -0.027124 0)
(10.026 -0.030683 0)
(10.0332 -0.0332816 0)
(10.0404 -0.0350491 0)
(10.0472 -0.0361687 0)
(10.0535 -0.036836 0)
(10.0595 -0.0372032 0)
(10.065 -0.0373625 0)
(10.07 -0.0373876 0)
(10.0747 -0.0373333 0)
(10.079 -0.0372437 0)
(10.083 -0.0371411 0)
(10.0866 -0.0370422 0)
(10.0901 -0.0369529 0)
(10.0933 -0.036881 0)
(10.0007 -0.00729125 0)
(10.0061 -0.0195363 0)
(10.0146 -0.0276515 0)
(10.0236 -0.0328808 0)
(10.0319 -0.0367085 0)
(10.04 -0.0394485 0)
(10.0478 -0.0411801 0)
(10.0552 -0.0421482 0)
(10.062 -0.042617 0)
(10.0683 -0.0427627 0)
(10.0741 -0.0426871 0)
(10.0794 -0.042484 0)
(10.0842 -0.042207 0)
(10.0887 -0.0419206 0)
(10.0928 -0.0416363 0)
(10.0966 -0.0413891 0)
(10.1001 -0.0411595 0)
(10.1034 -0.0409857 0)
(10.0012 -0.00962068 0)
(10.0088 -0.0247063 0)
(10.0196 -0.0334378 0)
(10.0301 -0.0386811 0)
(10.0393 -0.0426082 0)
(10.0483 -0.04537 0)
(10.057 -0.0469915 0)
(10.0651 -0.047786 0)
(10.0725 -0.0480503 0)
(10.0793 -0.0479637 0)
(10.0855 -0.0476391 0)
(10.0912 -0.0471759 0)
(10.0963 -0.0466497 0)
(10.101 -0.0461207 0)
(10.1053 -0.0456301 0)
(10.1092 -0.0451941 0)
(10.1129 -0.044817 0)
(10.1163 -0.0445099 0)
(10.0019 -0.0127744 0)
(10.0128 -0.0303362 0)
(10.0264 -0.0392785 0)
(10.0384 -0.0445158 0)
(10.0489 -0.0484731 0)
(10.0592 -0.0511012 0)
(10.0692 -0.0524923 0)
(10.0786 -0.0530645 0)
(10.0871 -0.0531241 0)
(10.0948 -0.0528353 0)
(10.1018 -0.0523086 0)
(10.1081 -0.0516582 0)
(10.1138 -0.0509422 0)
(10.1189 -0.050239 0)
(10.1235 -0.0495896 0)
(10.1277 -0.049015 0)
(10.1315 -0.0485332 0)
(10.1351 -0.0481352 0)
(10.0033 -0.0173132 0)
(10.0191 -0.0359521 0)
(10.0366 -0.0442275 0)
(10.0515 -0.0499599 0)
(10.0653 -0.0544644 0)
(10.079 -0.0570625 0)
(10.0922 -0.0581056 0)
(10.1041 -0.0582466 0)
(10.1148 -0.0578533 0)
(10.1243 -0.0570977 0)
(10.1327 -0.0561356 0)
(10.1401 -0.055078 0)
(10.1465 -0.0540118 0)
(10.152 -0.0530125 0)
(10.1568 -0.0521175 0)
(10.1609 -0.0513396 0)
(10.1645 -0.0506908 0)
(10.1676 -0.0501878 0)
(10.008 -0.026756 0)
(10.0363 -0.0451631 0)
(10.0671 -0.0498814 0)
(10.0932 -0.0551248 0)
(10.1184 -0.0605078 0)
(10.1417 -0.0639304 0)
(10.1619 -0.065487 0)
(10.1785 -0.0658693 0)
(10.1918 -0.0654884 0)
(10.2021 -0.0645381 0)
(10.2098 -0.0632234 0)
(10.215 -0.0616815 0)
(10.2182 -0.0600836 0)
(10.2194 -0.0585361 0)
(10.2191 -0.057151 0)
(10.2175 -0.0559863 0)
(10.215 -0.0550392 0)
(10.2118 -0.054423 0)
(10.0459 -0.0361855 0)
(10.1555 -0.0649576 0)
(10.2338 -0.0697546 0)
(10.2799 -0.0714104 0)
(10.3031 -0.0722219 0)
(10.3102 -0.0715395 0)
(10.3039 -0.0697194 0)
(10.287 -0.0673426 0)
(10.2622 -0.0646875 0)
(10.2318 -0.0618801 0)
(10.1973 -0.0589868 0)
(10.1601 -0.0560914 0)
(10.121 -0.05329 0)
(10.0809 -0.0507158 0)
(10.0404 -0.0483661 0)
(10.0007 -0.0463656 0)
(9.96206 -0.0448392 0)
(9.92524 -0.0441108 0)
(9.87436 -0.0390016 0)
(9.62033 -0.0726447 0)
(9.35154 -0.0836524 0)
(9.08304 -0.0854346 0)
(8.83177 -0.0823398 0)
(8.60482 -0.0765725 0)
(8.4011 -0.0697129 0)
(8.21918 -0.0624475 0)
(8.05805 -0.0553026 0)
(7.91619 -0.0485253 0)
(7.79197 -0.042239 0)
(7.6834 -0.0364908 0)
(7.58872 -0.0313186 0)
(7.50601 -0.0267168 0)
(7.43371 -0.0228282 0)
(7.36915 -0.0197651 0)
(7.31057 -0.01741 0)
(7.25784 -0.0160041 0)
(-0.00247654 0.00692556 -1.00999e-18)
(-0.0118546 0.0117532 1.12204e-18)
(-0.0246184 0.0131195 0)
(-0.038285 0.0117043 0)
(-0.0486571 0.00672183 0)
(-0.048916 -0.00193351 -7.86198e-19)
(-0.0350535 -0.0138593 0)
(-0.00999757 -0.0266901 0)
(0.0232863 -0.0367142 0)
(0.0619116 -0.0419583 0)
(0.103219 -0.0428859 4.32581e-19)
(0.143925 -0.0405568 0)
(0.181317 -0.0359613 0)
(0.213666 -0.0298722 0)
(0.240052 -0.0228495 0)
(0.259999 -0.0152523 2.39727e-19)
(0.273177 -0.00729044 0)
(0.279664 0.0010578 0)
(0.278639 0.00973255 0)
(0.269979 0.0183211 0)
(0.254228 0.0261406 0)
(0.232024 0.0324131 0)
(0.204179 0.036404 0)
(0.171946 0.0374763 3.26558e-19)
(0.137023 0.0351414 -3.81583e-19)
(0.101576 0.0292675 4.6286e-19)
(0.0680666 0.020355 5.84448e-19)
(0.039023 0.00993203 0)
(0.0164008 0.000687463 0)
(0.000604403 -0.00486556 -1.29803e-18)
(-0.00971398 -0.00699243 -1.30446e-18)
(-0.0155744 -0.0078875 0)
(-0.0169572 -0.00921331 0)
(-0.012613 -0.0120022 -1.25905e-18)
(-0.00193952 -0.0165641 0)
(0.0162125 -0.0226969 0)
(0.0417815 -0.0287831 7.75196e-19)
(0.0717296 -0.0317589 0)
(0.101614 -0.0303787 4.76262e-19)
(0.126562 -0.0249331 8.37825e-19)
(0.143342 -0.017224 0)
(0.151194 -0.00958885 0)
(0.151648 -0.00392519 0)
(0.14782 -0.00118069 0)
(0.143326 -0.00204666 0)
(0.140268 -0.00728393 8.18482e-19)
(0.136317 -0.01646 8.27549e-19)
(0.125438 -0.0246487 8.4944e-19)
(0.101104 -0.0219631 0)
(0.0585485 -0.00375624 -1.08943e-18)
(-0.0162967 0.0168232 0)
(-0.11211 0.0363155 5.52898e-19)
(-0.216055 0.0594159 3.63204e-19)
(-0.331382 0.0831391 0)
(-0.45538 0.101971 0)
(-0.586596 0.105624 0)
(-0.720734 0.104615 1.70102e-19)
(-0.84955 0.105417 0)
(-0.97472 0.10478 0)
(-1.09318 0.102648 0)
(-1.2052 0.095094 0)
(-1.30907 0.086809 0)
(-1.4045 0.0788443 0)
(-1.49253 0.0701763 0)
(-1.57299 0.0640398 0)
(-1.64725 0.0593107 -9.28536e-20)
(-1.71615 0.054335 0)
(-1.77995 0.0498657 0)
(-1.83931 0.046092 8.55615e-20)
(-1.89482 0.0427271 8.36807e-20)
(-1.94693 0.039795 0)
(-1.99601 0.0371907 -8.04465e-20)
(-2.04241 0.0348716 7.90307e-20)
(-2.08638 0.0327777 0)
(-2.12813 0.0308747 -7.64937e-20)
(-2.16784 0.0291193 0)
(-2.20565 0.0274904 0)
(-2.24165 0.0259583 7.32034e-20)
(-2.27594 0.0245117 0)
(-2.30858 0.0231293 -7.12383e-20)
(-2.33963 0.0218055 0)
(-2.36913 0.0205254 6.93963e-20)
(-2.39713 0.0192877 6.85097e-20)
(-2.42365 0.0180794 6.76418e-20)
(-2.44872 0.0169008 1.33575e-19)
(-2.47236 0.0157411 -1.31892e-19)
(-2.49459 0.0146017 0)
(-2.51541 0.0134774 0)
(-2.53487 0.0123664 0)
(-2.55294 0.0112694 -1.253e-19)
(-2.56962 0.0101892 -1.23675e-19)
(-2.58492 0.00912176 1.22051e-19)
(-2.59884 0.00806478 0)
(-2.61138 0.00701063 -1.18788e-19)
(-2.62254 0.00595586 -1.17142e-19)
(-2.63229 0.00489344 -1.15483e-19)
(-2.6406 0.0038206 0)
(-2.64743 0.00273261 0)
(-2.65272 0.00164257 0)
(-2.65645 0.000600207 -1.08691e-19)
(-2.65859 -0.000291419 0)
(-2.65954 -0.00102424 0)
(-2.65939 -0.00167252 1.03195e-19)
(-2.65816 -0.00226434 0)
(-2.65588 -0.00282694 0)
(-2.65257 -0.00336628 9.72489e-20)
(-2.64824 -0.00389327 0)
(-2.6429 -0.00439705 0)
(-2.63655 -0.00489019 -9.08315e-20)
(-2.62922 -0.00535899 -8.85945e-20)
(-2.62089 -0.00581842 0)
(-2.61159 -0.00625445 8.39835e-20)
(-2.60131 -0.00668367 0)
(-2.59007 -0.00709265 -7.92042e-20)
(-2.57787 -0.00749795 0)
(-2.56471 -0.00788657 -7.42717e-20)
(-2.55059 -0.00827318 -7.17514e-20)
(-2.53552 -0.00864747 0)
(-2.51949 -0.00902413 0)
(-2.50249 -0.00939676 0)
(-2.48452 -0.00977459 0)
(-2.46555 -0.0101511 0)
(-2.44559 -0.010531 0)
(-2.42462 -0.0109105 0)
(-2.40265 -0.0112935 -5.02086e-20)
(-2.37967 -0.0116795 4.7318e-20)
(-2.35567 -0.0120693 0)
(-2.33064 -0.0124669 0)
(-2.30456 -0.0128726 0)
(-2.27743 -0.0132978 0)
(-2.24924 -0.0137344 6.3886e-20)
(-2.21999 -0.0141662 0)
(-2.18967 -0.0145817 -5.05083e-20)
(-2.15829 -0.0149898 4.35369e-20)
(-2.12585 -0.0153673 0)
(-2.09238 -0.0157088 0)
(-2.0579 -0.0159256 0)
(-2.0225 -0.0159603 -1.34323e-20)
(-1.9862 -0.0157878 -5.28139e-21)
(-1.94897 -0.0158647 0)
(-1.9107 -0.0162624 1.1898e-20)
(-1.87144 -0.0166147 2.09745e-20)
(-1.83126 -0.0169532 -3.04e-20)
(-1.79017 -0.0172829 0)
(-1.74819 -0.0176007 0)
(-1.70536 -0.0179076 -6.09521e-20)
(-1.6617 -0.0182025 0)
(-1.61723 -0.0184869 0)
(-1.57199 -0.0187599 0)
(-1.526 -0.0190236 0)
(-1.47929 -0.0192773 1.20803e-19)
(-1.43187 -0.0195229 1.3436e-19)
(-1.38378 -0.0197618 0)
(-1.33504 -0.0199918 1.6334e-19)
(-1.28565 -0.0202178 0)
(-1.23568 -0.0204343 0)
(-1.18512 -0.0206495 2.12145e-19)
(-1.13403 -0.0208586 0)
(-1.08238 -0.0210726 2.48924e-19)
(-1.03025 -0.0212859 0)
(-0.977614 -0.0215106 0)
(-0.924486 -0.0217508 3.12019e-19)
(-0.870863 -0.0220048 0)
(-0.816737 -0.0222819 3.60603e-19)
(-0.762101 -0.0225804 0)
(-0.706943 -0.0229025 0)
(-0.651256 -0.0232489 0)
(-0.595039 -0.0236196 -4.79328e-19)
(-0.538288 -0.0240167 0)
(-0.481007 -0.0244408 5.53435e-19)
(-0.423197 -0.0248935 0)
(-0.364874 -0.0253716 0)
(-0.30607 -0.0258698 0)
(-0.246855 -0.026384 0)
(-0.187357 -0.026884 0)
(-0.127851 -0.0272295 0)
(-0.0687833 -0.0272294 0)
(-0.0127773 -0.0262973 -2.03832e-18)
(0.0493439 -0.0236248 0)
(0.0683578 -0.011611 0)
(-0.000235457 0.0189347 3.07695e-18)
(-0.00572184 0.0335781 -3.49783e-18)
(-0.0119454 0.0351008 0)
(-0.012972 0.0267493 2.43913e-18)
(-0.000942674 0.00686201 0)
(0.0262498 -0.0268547 7.79541e-19)
(0.0628439 -0.0658472 -9.77385e-19)
(0.105273 -0.0988919 -6.93404e-19)
(0.14975 -0.120143 0)
(0.19289 -0.128722 -4.47899e-19)
(0.232425 -0.126786 -1.95084e-19)
(0.267298 -0.117437 0)
(0.297094 -0.103449 0)
(0.32177 -0.0868714 0)
(0.341492 -0.069065 0)
(0.356539 -0.0508366 -1.49249e-19)
(0.367269 -0.0325834 0)
(0.373866 -0.0144984 3.0241e-19)
(0.377153 0.00342939 0)
(0.377212 0.0211127 0)
(0.373712 0.0382411 -3.13052e-19)
(0.366163 0.0543609 0)
(0.354008 0.0687784 3.32925e-19)
(0.336723 0.0805575 -1.74075e-19)
(0.31401 0.0885935 1.84913e-19)
(0.285928 0.0917688 -2.00013e-19)
(0.253148 0.0892173 -2.21321e-19)
(0.217073 0.0807862 0)
(0.179842 0.0673201 0)
(0.144192 0.0505212 3.53993e-19)
(0.113233 0.0321433 -4.32225e-19)
(0.0902503 0.0134306 0)
(0.0777133 -0.00537578 0)
(0.0766941 -0.0240023 6.10026e-19)
(0.0864277 -0.0427368 0)
(0.104619 -0.0610549 0)
(0.126298 -0.0743538 -3.44904e-19)
(0.145578 -0.0763511 0)
(0.158253 -0.0660908 2.5818e-19)
(0.162836 -0.0480346 -5.00269e-19)
(0.159463 -0.0276095 0)
(0.149058 -0.0105567 0)
(0.132773 7.6898e-05 -1.23307e-18)
(0.109578 0.00569361 -1.36325e-18)
(0.0732242 0.0112308 -1.57369e-18)
(0.0143317 0.0250804 8.4998e-19)
(-0.0780479 0.0566734 -6.20364e-19)
(-0.195576 0.097981 -1.17383e-18)
(-0.324652 0.141012 5.41547e-19)
(-0.459629 0.182052 2.01991e-19)
(-0.600619 0.216357 0)
(-0.74281 0.241925 -1.33421e-19)
(-0.882961 0.259408 1.15685e-19)
(-1.01885 0.268884 0)
(-1.1469 0.270931 0)
(-1.2656 0.266084 0)
(-1.37208 0.255137 -8.06546e-20)
(-1.46765 0.24042 0)
(-1.55215 0.223286 1.45837e-19)
(-1.62695 0.2055 0)
(-1.69374 0.187757 1.3552e-19)
(-1.75314 0.170899 0)
(-1.807 0.155489 -1.28353e-19)
(-1.85599 0.141479 0)
(-1.90113 0.129068 1.22504e-19)
(-1.94302 0.11817 -6.01035e-20)
(-1.98213 0.108633 0)
(-2.01897 0.100308 -1.15848e-19)
(-2.05391 0.093043 -5.69932e-20)
(-2.08712 0.0866625 -5.6137e-20)
(-2.1188 0.0810221 0)
(-2.14905 0.0759882 -5.44856e-20)
(-2.17797 0.071451 -5.38248e-20)
(-2.20564 0.0673164 0)
(-2.23209 0.0635104 5.24383e-20)
(-2.25738 0.0599698 -1.03461e-19)
(-2.28152 0.0566489 0)
(-2.30453 0.0535061 -5.05025e-20)
(-2.32644 0.0505162 0)
(-2.34724 0.0476511 1.47732e-19)
(-2.36696 0.0448986 0)
(-2.3856 0.0422396 -1.44135e-19)
(-2.40317 0.0396697 -4.74776e-20)
(-2.41966 0.0371731 4.68157e-20)
(-2.43509 0.0347471 9.24616e-20)
(-2.44944 0.0323768 -9.12936e-20)
(-2.46273 0.0300589 0)
(-2.47496 0.0277851 0)
(-2.48614 0.0255511 0)
(-2.49628 0.0233589 2.5995e-19)
(-2.50537 0.0212122 8.54738e-20)
(-2.5134 0.019109 -8.42682e-20)
(-2.5204 0.0170462 0)
(-2.52637 0.0150137 -8.18392e-20)
(-2.53132 0.0130101 8.05753e-20)
(-2.53529 0.0110297 7.93139e-20)
(-2.53832 0.00907702 0)
(-2.54046 0.0071523 0)
(-2.5418 0.0052722 0)
(-2.54242 0.00346657 7.40769e-20)
(-2.54243 0.00179918 0)
(-2.54153 0.000262945 -1.42675e-19)
(-2.5396 -0.00119934 -2.09575e-19)
(-2.53665 -0.00261159 1.36816e-19)
(-2.53269 -0.00398697 0)
(-2.52771 -0.00532713 6.54644e-20)
(-2.52173 -0.00664165 0)
(-2.51477 -0.00792095 1.24305e-19)
(-2.50682 -0.00917526 -6.06506e-20)
(-2.4979 -0.010392 -5.89868e-20)
(-2.48802 -0.0115842 0)
(-2.47717 -0.0127393 -1.66121e-19)
(-2.46537 -0.0138728 1.07368e-19)
(-2.45262 -0.0149727 5.17596e-20)
(-2.43893 -0.0160556 0)
(-2.42429 -0.0171088 4.81784e-20)
(-2.4087 -0.0181464 1.39441e-19)
(-2.39217 -0.019158 0)
(-2.37468 -0.0201592 8.57533e-20)
(-2.35623 -0.021145 8.20507e-20)
(-2.3368 -0.0221272 7.83199e-20)
(-2.31638 -0.0230986 0)
(-2.29497 -0.024064 0)
(-2.27255 -0.0250179 0)
(-2.24912 -0.0259634 -3.17641e-20)
(-2.22467 -0.0268986 -2.94128e-20)
(-2.19919 -0.0278235 0)
(-2.17268 -0.028739 -5.13743e-20)
(-2.14511 -0.0296403 -4.73724e-20)
(-2.11649 -0.0305306 0)
(-2.08682 -0.0314007 -3.87264e-20)
(-2.05609 -0.0322567 -7.00805e-20)
(-2.02431 -0.0330902 3.02847e-20)
(-1.99147 -0.0339088 2.70173e-20)
(-1.95759 -0.0346994 0)
(-1.92266 -0.0354719 0)
(-1.88669 -0.0362305 0)
(-1.84967 -0.0369946 7.77487e-21)
(-1.81158 -0.0377476 -4.19482e-21)
(-1.77243 -0.0384805 2.57087e-21)
(-1.73233 -0.0391538 -6.89978e-21)
(-1.6913 -0.0397736 1.07166e-20)
(-1.64934 -0.0403551 1.72367e-20)
(-1.60648 -0.0408991 0)
(-1.56273 -0.0414085 0)
(-1.51812 -0.041882 -3.22146e-20)
(-1.47268 -0.0423204 0)
(-1.42644 -0.0427243 0)
(-1.37942 -0.0430947 1.0077e-19)
(-1.33165 -0.0434333 0)
(-1.28316 -0.0437412 6.19089e-20)
(-1.23397 -0.0440199 -6.9797e-20)
(-1.18409 -0.0442725 0)
(-1.13356 -0.0444961 8.13292e-20)
(-1.0824 -0.0446958 0)
(-1.03062 -0.0448662 0)
(-0.97825 -0.0450129 -1.03656e-19)
(-0.925324 -0.0451339 2.20111e-19)
(-0.871845 -0.045238 -1.18235e-19)
(-0.817851 -0.0453283 0)
(-0.763329 -0.0454089 0)
(-0.7083 -0.0454906 1.39614e-19)
(-0.652753 -0.0455735 0)
(-0.596682 -0.0456647 1.55851e-19)
(-0.540075 -0.0457651 0)
(-0.482921 -0.0458738 0)
(-0.425209 -0.0459897 0)
(-0.366933 -0.0461102 1.92612e-19)
(-0.308088 -0.046235 0)
(-0.248673 -0.0463629 -2.11547e-19)
(-0.188688 -0.0464917 0)
(-0.12814 -0.0466134 0)
(-0.0670584 -0.0467082 4.82224e-19)
(-0.00550115 -0.0467273 -4.98962e-19)
(0.0564509 -0.0465945 0)
(0.118523 -0.0461811 0)
(0.180559 -0.0453023 0)
(0.240471 -0.0435176 1.54433e-18)
(0.303531 -0.039726 0)
(0.343685 -0.0276446 -1.06853e-18)
(0.000345434 0.0216483 3.10942e-22)
(0.000534938 0.0380327 4.85414e-18)
(0.00565266 0.0317883 0)
(0.0237542 0.00178343 -3.44002e-18)
(0.0601528 -0.0528527 0)
(0.108627 -0.115105 0)
(0.159572 -0.166373 -3.4475e-22)
(0.206009 -0.197414 3.93681e-19)
(0.244992 -0.208026 3.36472e-19)
(0.276198 -0.202623 2.99379e-19)
(0.300612 -0.186602 0)
(0.319576 -0.164539 0)
(0.334262 -0.139632 -2.47101e-19)
(0.345528 -0.113829 -4.79326e-19)
(0.353941 -0.0882056 4.71155e-19)
(0.359892 -0.0632848 0)
(0.36365 -0.039277 4.71318e-19)
(0.365411 -0.0162675 -2.38876e-19)
(0.365393 0.00575926 0)
(0.363927 0.0269235 4.88339e-19)
(0.361256 0.0473643 2.47689e-19)
(0.357554 0.0670662 -5.09638e-19)
(0.352807 0.085751 -2.63944e-19)
(0.346675 0.102803 0)
(0.338524 0.117244 5.80384e-19)
(0.3275 0.127776 6.1338e-19)
(0.31275 0.132957 0)
(0.293751 0.131518 7.04542e-19)
(0.270774 0.122739 0)
(0.24511 0.106707 8.57721e-19)
(0.219133 0.0842892 4.85709e-19)
(0.195789 0.056859 0)
(0.178009 0.0258908 0)
(0.167162 -0.00732454 0)
(0.163025 -0.041249 0)
(0.161588 -0.0699846 0)
(0.155035 -0.0822006 0)
(0.140177 -0.0739834 8.01583e-19)
(0.118084 -0.0511482 -1.15386e-18)
(0.0893213 -0.0215197 0)
(0.0534762 0.01057 0)
(0.00770582 0.0411158 0)
(-0.0580344 0.0696922 6.89041e-22)
(-0.147526 0.106495 7.13827e-19)
(-0.256509 0.153909 1.05627e-18)
(-0.381385 0.206584 -8.08162e-19)
(-0.516311 0.260277 -3.21516e-19)
(-0.654347 0.310586 2.6431e-19)
(-0.789735 0.353265 5.04718e-22)
(-0.91822 0.386905 1.9708e-19)
(-1.03637 0.410389 0)
(-1.14264 0.42288 1.59722e-19)
(-1.23653 0.425066 1.09492e-21)
(-1.31765 0.41797 0)
(-1.38682 0.402853 0)
(-1.44587 0.381277 -1.23226e-19)
(-1.49714 0.355671 0)
(-1.54281 0.328451 0)
(-1.58419 0.301128 1.09412e-19)
(-1.62253 0.274867 2.09826e-19)
(-1.65883 0.250211 -1.01213e-19)
(-1.69376 0.227672 0)
(-1.72775 0.207554 9.60712e-20)
(-1.761 0.189723 0)
(-1.79357 0.174204 9.20562e-20)
(-1.82539 0.160748 8.9852e-20)
(-1.85643 0.148977 -1.76297e-19)
(-1.88671 0.138648 -8.64874e-20)
(-1.9162 0.129551 0)
(-1.94488 0.12146 1.66945e-19)
(-1.97271 0.114196 0)
(-1.99969 0.107605 2.42445e-19)
(-2.02578 0.10156 1.59093e-19)
(-2.05097 0.0959581 1.56703e-19)
(-2.07525 0.0907159 -1.54397e-19)
(-2.0986 0.0857673 2.28321e-19)
(-2.12102 0.0810616 0)
(-2.1425 0.0765576 0)
(-2.16302 0.0722257 -1.4578e-19)
(-2.18259 0.0680407 -2.15657e-19)
(-2.20119 0.0639861 0)
(-2.21882 0.0600465 6.99088e-20)
(-2.23549 0.0562131 0)
(-2.25117 0.052475 -2.03678e-19)
(-2.26588 0.0488257 -9.6776e-23)
(-2.2796 0.0452557 9.02671e-23)
(-2.29234 0.0417588 1.29899e-19)
(-2.30409 0.0383281 0)
(-2.31487 0.0349594 -1.26023e-19)
(-2.32467 0.0316543 -5.4492e-23)
(-2.33349 0.0284161 0)
(-2.34132 0.0252467 0)
(-2.34816 0.0221428 0)
(-2.35402 0.0191025 1.16327e-19)
(-2.35892 0.0161252 0)
(-2.36286 0.0132158 0)
(-2.36587 0.010382 0)
(-2.36795 0.00763726 0)
(-2.36912 0.00499635 0)
(-2.36936 0.00246649 1.04188e-19)
(-2.36866 2.44589e-05 0)
(-2.36696 -0.00236051 9.97028e-20)
(-2.36426 -0.00468569 9.74573e-20)
(-2.36056 -0.00694964 -9.51747e-20)
(-2.35588 -0.00915493 0)
(-2.35021 -0.0113102 -9.04939e-20)
(-2.34359 -0.0134125 0)
(-2.33601 -0.0154646 -8.56684e-20)
(-2.32748 -0.017463 8.32069e-20)
(-2.31802 -0.0194105 2.42585e-19)
(-2.30763 -0.0213061 0)
(-2.29631 -0.0231539 2.2744e-19)
(-2.28408 -0.0249557 7.35683e-20)
(-2.27093 -0.026716 0)
(-2.25687 -0.0284384 1.36352e-19)
(-2.2419 -0.0301264 1.31156e-19)
(-2.22601 -0.0317831 -1.88665e-19)
(-2.20919 -0.0334118 0)
(-2.19145 -0.0350183 -5.74796e-20)
(-2.17275 -0.0366072 -5.48473e-20)
(-2.1531 -0.0381843 -1.57158e-19)
(-2.13249 -0.0397488 0)
(-2.11089 -0.041302 0)
(-2.0883 -0.0428412 0)
(-2.06471 -0.0443671 -4.21796e-20)
(-2.04012 -0.0458776 0)
(-2.01449 -0.0473727 0)
(-1.98784 -0.04885 3.35424e-20)
(-1.96014 -0.0503079 3.08317e-20)
(-1.93139 -0.0517437 0)
(-1.90159 -0.0531526 0)
(-1.87073 -0.0545313 4.51631e-20)
(-1.83883 -0.0558758 0)
(-1.80586 -0.0571838 -3.39033e-20)
(-1.77185 -0.0584451 -2.89666e-20)
(-1.73679 -0.059655 0)
(-1.7007 -0.0608069 0)
(-1.66358 -0.0619067 1.14144e-20)
(-1.62542 -0.0629587 -8.8536e-22)
(-1.58626 -0.0639871 -9.0851e-22)
(-1.54615 -0.0649791 0)
(-1.50512 -0.0659122 -2.72728e-20)
(-1.46318 -0.066788 0)
(-1.42035 -0.0676034 0)
(-1.37665 -0.0683587 0)
(-1.3321 -0.0690531 4.01744e-20)
(-1.28673 -0.0696871 0)
(-1.24057 -0.0702617 -1.05346e-19)
(-1.19364 -0.0707785 -6.06249e-20)
(-1.14598 -0.0712403 0)
(-1.0976 -0.0716492 -7.4666e-20)
(-1.04854 -0.0720085 0)
(-0.998804 -0.0723212 0)
(-0.948418 -0.072588 -2.86668e-19)
(-0.897407 -0.0728104 2.0505e-19)
(-0.845783 -0.0729876 0)
(-0.793576 -0.0731199 2.34849e-19)
(-0.740799 -0.0732121 -1.2613e-19)
(-0.687481 -0.0732691 0)
(-0.633626 -0.0733021 0)
(-0.579248 -0.0733149 0)
(-0.52435 -0.0733219 -4.68628e-19)
(-0.468929 -0.073326 0)
(-0.412978 -0.0733356 -1.72784e-19)
(-0.356485 -0.0733527 0)
(-0.299436 -0.0733756 0)
(-0.241822 -0.0734016 0)
(-0.183635 -0.0734264 0)
(-0.12487 -0.0734474 0)
(-0.0655239 -0.0734621 0)
(-0.00559723 -0.0734632 -4.55677e-19)
(0.0549092 -0.0734345 0)
(0.115973 -0.073349 -2.38029e-19)
(0.177535 -0.0731494 7.22739e-19)
(0.239507 -0.0727316 0)
(0.301656 -0.0719203 0)
(0.363938 -0.0704542 -5.026e-19)
(0.424781 -0.0678267 -5.12715e-19)
(0.488255 -0.0629884 5.20347e-19)
(0.538447 -0.0507085 5.36976e-19)
(-0.000980996 0.0217387 -6.17941e-18)
(0.00170734 0.0265366 -7.64223e-18)
(0.0211685 -0.0107799 -3.43629e-18)
(0.0653543 -0.0873654 -9.29943e-19)
(0.123245 -0.17104 0)
(0.179513 -0.234523 8.45673e-19)
(0.224696 -0.267727 -3.40944e-19)
(0.25678 -0.273952 0)
(0.277983 -0.261642 -2.61418e-19)
(0.291647 -0.23881 0)
(0.300615 -0.210972 4.52454e-19)
(0.306757 -0.181298 0)
(0.31112 -0.15142 2.08024e-19)
(0.31421 -0.122107 4.07502e-19)
(0.316224 -0.0936978 -4.038e-19)
(0.31722 -0.0663456 0)
(0.317215 -0.0401142 -4.09153e-19)
(0.316223 -0.0150407 0)
(0.314286 0.00886233 0)
(0.311505 0.0316239 -4.26814e-19)
(0.30799 0.0532819 0)
(0.303944 0.0738556 -6.46074e-22)
(0.299586 0.0932807 0)
(0.295044 0.111307 0)
(0.29028 0.127419 5.08573e-22)
(0.28501 0.14076 -5.3757e-19)
(0.278689 0.15008 -5.75349e-19)
(0.270562 0.153822 -6.1792e-19)
(0.259932 0.150386 0)
(0.246494 0.138472 -1.45986e-18)
(0.230624 0.117501 0)
(0.213447 0.0879251 -9.11553e-19)
(0.1965 0.0514479 0)
(0.180654 0.0109788 0)
(0.162135 -0.026174 1.06888e-18)
(0.134011 -0.0460267 0)
(0.0953948 -0.0418551 -8.18428e-19)
(0.0476462 -0.0185975 -6.96443e-22)
(-0.00850833 0.0178483 1.50966e-18)
(-0.0766202 0.0629553 -1.32136e-18)
(-0.160003 0.115247 0)
(-0.257764 0.172893 0)
(-0.369506 0.232533 -3.59749e-19)
(-0.491385 0.293209 0)
(-0.617763 0.353724 -2.49056e-19)
(-0.743233 0.41003 2.1372e-19)
(-0.862526 0.457095 1.87679e-19)
(-0.970971 0.492866 0)
(-1.06658 0.517116 -1.51432e-19)
(-1.14861 0.529875 -1.38805e-19)
(-1.21687 0.531868 2.58654e-19)
(-1.27283 0.524236 -1.19881e-19)
(-1.3183 0.508503 -1.12723e-19)
(-1.35541 0.486383 0)
(-1.38657 0.459597 0)