/*--------------------------------*- C++ -*----------------------------------*\
  =========                 |
  \\      /  F ield         | OpenFOAM: The Open Source CFD Toolbox
   \\    /   O peration     | Website:  https://openfoam.org
    \\  /    A nd           | Version:  13
     \\/     M anipulation  |
\*---------------------------------------------------------------------------*/
FoamFile
{
    format      ascii;
    class       surfaceScalarField;
    location    "5.5";
    object      phi;
}
// * * * * * * * * * * * * * * * * * * * * * * * * * * * * * * * * * * * * * //

dimensions      [0 3 -1 0 0 0 0];

internalField   nonuniform List<scalar> 
760
(
1.90228e-07
-1.90232e-07
8.26307e-08
1.07598e-07
-4.23611e-07
5.06242e-07
-1.44149e-06
1.01788e-06
-2.75196e-06
1.31047e-06
-3.96683e-06
1.21487e-06
-5.01112e-06
1.04429e-06
-5.853e-06
8.41872e-07
-6.4862e-06
6.33203e-07
-6.92014e-06
4.33938e-07
-7.16879e-06
2.4865e-07
-7.23202e-06
6.32322e-08
-7.09188e-06
-1.40143e-07
-6.75086e-06
-3.4102e-07
-6.15166e-06
-5.99198e-07
-5.26353e-06
-8.88128e-07
-4.04264e-06
-1.22089e-06
-2.53067e-06
-1.51197e-06
-9.50908e-07
-1.57976e-06
-9.50908e-07
-1.93379e-07
3.14615e-09
-8.94756e-07
8.08975e-07
-2.06669e-06
1.67818e-06
-3.32323e-06
2.27442e-06
-4.31095e-06
2.29819e-06
-5.19502e-06
2.09894e-06
-5.93133e-06
1.7806e-06
-6.51739e-06
1.42793e-06
-6.96398e-06
1.07979e-06
-7.27254e-06
7.42504e-07
-7.42664e-06
4.02751e-07
-7.41232e-06
4.89098e-08
-7.25626e-06
-2.96209e-07
-6.91946e-06
-6.77813e-07
-6.39154e-06
-1.12712e-06
-5.62794e-06
-1.65173e-06
-4.59073e-06
-2.2581e-06
-3.22623e-06
-2.87647e-06
-1.57571e-06
-3.23028e-06
-2.52661e-06
-7.50047e-07
7.53193e-07
-1.86113e-06
1.92006e-06
-2.97641e-06
2.79345e-06
-3.87418e-06
3.17219e-06
-4.62224e-06
3.04624e-06
-5.24342e-06
2.72012e-06
-5.74171e-06
2.27889e-06
-6.113e-06
1.79922e-06
-6.35826e-06
1.32505e-06
-6.48382e-06
8.68071e-07
-6.50793e-06
4.26854e-07
-6.43785e-06
-2.11646e-08
-6.27111e-06
-4.62948e-07
-5.98634e-06
-9.62583e-07
-5.56633e-06
-1.54714e-06
-4.97827e-06
-2.23979e-06
-4.18438e-06
-3.05199e-06
-3.12309e-06
-3.93775e-06
-1.72231e-06
-4.63107e-06
-4.24892e-06
-1.01951e-06
1.7727e-06
-2.11425e-06
3.0148e-06
-3.03412e-06
3.71332e-06
-3.71917e-06
3.85724e-06
-4.25727e-06
3.58435e-06
-4.66685e-06
3.1297e-06
-4.95992e-06
2.57197e-06
-5.15652e-06
1.99582e-06
-5.27154e-06
1.44006e-06
-5.31641e-06
9.12947e-07
-5.29586e-06
4.06305e-07
-5.21821e-06
-9.88188e-08
-5.06319e-06
-6.17968e-07
-4.83161e-06
-1.19416e-06
-4.51201e-06
-1.86673e-06
-4.0772e-06
-2.67461e-06
-3.48783e-06
-3.64137e-06
-2.68105e-06
-4.74453e-06
-1.53828e-06
-5.77384e-06
-5.7872e-06
-1.01352e-06
2.78623e-06
-1.95835e-06
3.95962e-06
-2.68531e-06
4.44028e-06
-3.21084e-06
4.38277e-06
-3.59462e-06
3.96813e-06
-3.85868e-06
3.39375e-06
-4.03156e-06
2.74485e-06
-4.13599e-06
2.10025e-06
-4.18336e-06
1.48743e-06
-4.18115e-06
9.10734e-07
-4.13332e-06
3.58471e-07
-4.04378e-06
-1.88355e-07
-3.90692e-06
-7.54828e-07
-3.72368e-06
-1.3774e-06
-3.48869e-06
-2.10172e-06
-3.18299e-06
-2.9803e-06
-2.76585e-06
-4.05851e-06
-2.16939e-06
-5.34099e-06
-1.28863e-06
-6.6546e-06
-7.07583e-06
-8.58224e-07
3.64445e-06
-1.6162e-06
4.7176e-06
-2.17368e-06
4.99776e-06
-2.5713e-06
4.78039e-06
-2.84447e-06
4.2413e-06
-3.01904e-06
3.56832e-06
-3.12459e-06
2.85039e-06
-3.17922e-06
2.15489e-06
-3.19298e-06
1.50119e-06
-3.17104e-06
8.88798e-07
-3.11639e-06
3.03818e-07
-3.03065e-06
-2.74095e-07
-2.91434e-06
-8.71136e-07
-2.77001e-06
-1.52173e-06
-2.59807e-06
-2.27367e-06
-2.3902e-06
-3.18818e-06
-2.1208e-06
-4.3279e-06
-1.71981e-06
-5.74199e-06
-1.04018e-06
-7.33423e-06
-8.11601e-06
-6.60544e-07
4.305e-06
-1.21508e-06
5.27213e-06
-1.62601e-06
5.4087e-06
-1.91249e-06
5.06687e-06
-2.10377e-06
4.43258e-06
-2.22198e-06
3.68654e-06
-2.29049e-06
2.9189e-06
-2.32256e-06
2.18696e-06
-2.32621e-06
1.50484e-06
-2.30502e-06
8.67601e-07
-2.25994e-06
2.58738e-07
-2.19068e-06
-3.43348e-07
-2.09831e-06
-9.63512e-07
-1.98734e-06
-1.6327e-06
-1.86385e-06
-2.39715e-06
-1.72704e-06
-3.32499e-06
-1.55921e-06
-4.49573e-06
-1.3013e-06
-5.99989e-06
-8.55247e-07
-7.78028e-06
-8.97126e-06
-4.33514e-07
4.73851e-06
-8.13051e-07
5.65167e-06
-1.09139e-06
5.68704e-06
-1.28322e-06
5.25871e-06
-1.41098e-06
4.56034e-06
-1.49074e-06
3.7663e-06
-1.53867e-06
2.96683e-06
-1.56335e-06
2.21164e-06
-1.56988e-06
1.51137e-06
-1.55976e-06
8.57483e-07
-1.53207e-06
2.31047e-07
-1.48542e-06
-3.89999e-07
-1.42033e-06
-1.0286e-06
-1.34201e-06
-1.71102e-06
-1.26113e-06
-2.47803e-06
-1.18533e-06
-3.40079e-06
-1.10253e-06
-4.57853e-06
-9.58874e-07
-6.14355e-06
-6.65563e-07
-8.07359e-06
-9.63682e-06
-2.30715e-07
4.96922e-06
-4.38372e-07
5.85933e-06
-5.91586e-07
5.84025e-06
-6.99119e-07
5.36624e-06
-7.72539e-07
4.63376e-06
-8.21675e-07
3.81543e-06
-8.55516e-07
3.00067e-06
-8.7793e-07
2.23406e-06
-8.9086e-07
1.5243e-06
-8.93921e-07
8.60544e-07
-8.85404e-07
2.2253e-07
-8.63706e-07
-4.11697e-07
-8.29321e-07
-1.06299e-06
-7.87335e-07
-1.75301e-06
-7.49842e-07
-2.51553e-06
-7.30316e-07
-3.42032e-06
-7.23113e-07
-4.58573e-06
-6.79004e-07
-6.18766e-06
-5.34818e-07
-8.21778e-06
-1.01716e-05
-2.3472e-08
4.9927e-06
-9.24506e-08
5.9283e-06
-1.33268e-07
5.88107e-06
-1.61312e-07
5.39428e-06
-1.81085e-07
4.65353e-06
-1.9942e-07
3.83377e-06
-2.18297e-07
3.01954e-06
-2.37082e-07
2.25284e-06
-2.54532e-07
1.54175e-06
-2.69051e-07
8.75063e-07
-2.7905e-07
2.32529e-07
-2.83519e-07
-4.07228e-07
-2.83294e-07
-1.06321e-06
-2.83368e-07
-1.75294e-06
-2.95616e-07
-2.50328e-06
-3.33114e-07
-3.38282e-06
-4.04887e-07
-4.51396e-06
-4.51091e-07
-6.14146e-06
-4.12227e-07
-8.25664e-06
-1.05839e-05
1.60445e-07
4.83225e-06
2.42086e-07
5.84666e-06
3.1518e-07
5.80798e-06
3.56252e-07
5.35321e-06
3.84169e-07
4.62562e-06
3.96688e-07
3.82125e-06
3.95786e-07
3.02045e-06
3.84866e-07
2.26376e-06
3.66808e-07
1.55981e-06
3.43524e-07
8.98347e-07
3.15857e-07
2.60196e-07
2.83846e-07
-3.75217e-07
2.46265e-07
-1.02563e-06
1.98877e-07
-1.70555e-06
1.30801e-07
-2.4352e-06
2.01371e-08
-3.27216e-06
-1.14963e-07
-4.37886e-06
-2.59035e-07
-5.99738e-06
-3.29246e-07
-8.18643e-06
-1.09131e-05
3.29021e-07
4.50323e-06
5.46801e-07
5.62888e-06
7.23322e-07
5.63146e-06
8.44115e-07
5.23242e-06
9.27741e-07
4.54199e-06
9.79204e-07
3.76979e-06
1.00394e-06
2.99571e-06
1.00746e-06
2.26025e-06
9.93752e-07
1.57351e-06
9.64779e-07
9.2732e-07
9.2046e-07
3.04515e-07
8.59769e-07
-3.14525e-07
7.8065e-07
-9.46511e-07
6.79538e-07
-1.60444e-06
5.48165e-07
-2.30383e-06
3.75659e-07
-3.09965e-06
1.51893e-07
-4.15509e-06
-9.54978e-08
-5.74999e-06
-2.43629e-07
-8.0383e-06
-1.11567e-05
4.90367e-07
4.01286e-06
8.37622e-07
5.28163e-06
1.10696e-06
5.36212e-06
1.31081e-06
5.02857e-06
1.45778e-06
4.39502e-06
1.55744e-06
3.67012e-06
1.61706e-06
2.9361e-06
1.64312e-06
2.23419e-06
1.64005e-06
1.57658e-06
1.60962e-06
9.57747e-07
1.55074e-06
3.63398e-07
1.46109e-06
-2.24873e-07
1.33791e-06
-8.23333e-07
1.17821e-06
-1.44473e-06
9.77639e-07
-2.10326e-06
7.2652e-07
-2.84853e-06
4.07554e-07
-3.83612e-06
6.16984e-08
-5.40414e-06
-1.50114e-07
-7.82649e-06
-1.13069e-05
6.15135e-07
3.39773e-06
1.0755e-06
4.82126e-06
1.4393e-06
4.99832e-06
1.74004e-06
4.72782e-06
1.96663e-06
4.16843e-06
2.13014e-06
3.50662e-06
2.23819e-06
2.82804e-06
2.29767e-06
2.17471e-06
2.31339e-06
1.56086e-06
2.28713e-06
9.84009e-07
2.21714e-06
4.33386e-07
2.09921e-06
-1.06946e-07
1.93109e-06
-6.55204e-07
1.70941e-06
-1.22306e-06
1.43297e-06
-1.82683e-06
1.09702e-06
-2.51258e-06
6.88272e-07
-3.42738e-06
2.75698e-07
-4.99156e-06
7.29456e-09
-7.55808e-06
-1.12996e-05
7.07031e-07
2.6907e-06
1.26879e-06
4.2595e-06
1.73138e-06
4.53572e-06
2.13219e-06
4.32702e-06
2.45165e-06
3.84897e-06
2.69332e-06
3.26495e-06
2.86329e-06
2.65807e-06
2.96811e-06
2.06989e-06
3.01233e-06
1.51665e-06
2.99765e-06
9.98686e-07
2.92234e-06
5.08699e-07
2.77956e-06
3.58326e-08
2.5684e-06
-4.44045e-07
2.28504e-06
-9.39696e-07
1.92967e-06
-1.47146e-06
1.50606e-06
-2.08897e-06
1.00549e-06
-2.92681e-06
5.08521e-07
-4.49459e-06
1.37064e-07
-7.18663e-06
-1.11625e-05
6.86164e-07
2.00454e-06
1.32179e-06
3.62388e-06
1.90402e-06
3.95349e-06
2.42779e-06
3.80325e-06
2.86582e-06
3.41094e-06
3.21089e-06
2.91988e-06
3.46507e-06
2.40388e-06
3.63366e-06
1.90131e-06
3.7208e-06
1.4295e-06
3.72846e-06
9.91021e-07
3.65517e-06
5.8199e-07
3.50101e-06
1.89998e-07
3.25361e-06
-1.96644e-07
2.91749e-06
-6.03582e-07
2.48963e-06
-1.04359e-06
1.98256e-06
-1.5819e-06
1.39155e-06
-2.3358e-06
8.01082e-07
-3.90413e-06
3.17492e-07
-6.70304e-06
-1.0845e-05
5.79637e-07
1.4249e-06
1.28401e-06
2.9195e-06
1.99514e-06
3.24237e-06
2.65e-06
3.14839e-06
3.21403e-06
2.84691e-06
3.67397e-06
2.45993e-06
4.025e-06
2.05286e-06
4.26887e-06
1.65744e-06
4.41026e-06
1.28811e-06
4.45274e-06
9.48546e-07
4.39831e-06
6.36412e-07
4.24823e-06
3.4008e-07
3.99045e-06
6.11338e-08
3.63472e-06
-2.47844e-07
3.16631e-06
-5.75191e-07
2.60115e-06
-1.01673e-06
1.94369e-06
-1.67833e-06
1.25162e-06
-3.21206e-06
5.86411e-07
-6.03783e-06
-1.02586e-05
1.09338e-07
1.31556e-06
8.94556e-07
2.13428e-06
1.77626e-06
2.36067e-06
2.61457e-06
2.31008e-06
3.34649e-06
2.11499e-06
3.95299e-06
1.85344e-06
4.43133e-06
1.57451e-06
4.7826e-06
1.30617e-06
5.01465e-06
1.05606e-06
5.13379e-06
8.29399e-07
5.14543e-06
6.24772e-07
5.05329e-06
4.32217e-07
4.8611e-06
2.53326e-07
4.58019e-06
3.30692e-08
4.1598e-06
-1.54805e-07
3.62652e-06
-4.83452e-07
2.94912e-06
-1.00093e-06
2.16364e-06
-2.42658e-06
1.11824e-06
-4.99243e-06
-9.14036e-06
-5.69221e-07
1.88478e-06
3.50092e-07
1.21497e-06
1.51066e-06
1.2001e-06
2.59862e-06
1.22212e-06
3.54702e-06
1.16659e-06
4.34891e-06
1.05155e-06
5.00872e-06
9.14695e-07
5.52607e-06
7.88821e-07
5.91632e-06
6.65814e-07
6.18415e-06
5.61572e-07
6.35254e-06
4.56384e-07
6.41625e-06
3.6851e-07
6.3969e-06
2.72676e-07
6.24923e-06
1.80738e-07
6.0199e-06
7.452e-08
5.6755e-06
-1.39052e-07
5.13742e-06
-4.6285e-07
4.30139e-06
-1.59054e-06
2.5454e-06
-3.23645e-06
-6.59495e-06
1.88478e-06
3.09975e-06
4.29985e-06
5.52198e-06
6.68856e-06
7.74012e-06
8.65481e-06
9.44363e-06
1.01094e-05
1.0671e-05
1.11274e-05
1.14959e-05
1.17686e-05
1.19493e-05
1.20238e-05
1.18848e-05
1.14219e-05
9.8314e-06
6.59495e-06
)
;

boundaryField
{
    movingWall
    {
        type            calculated;
        value           uniform 0;
    }
    fixedWalls
    {
        type            calculated;
        value           uniform 0;
    }
    frontAndBack
    {
        type            empty;
    }
}


// ************************************************************************* //
