/*--------------------------------*- C++ -*----------------------------------*\
  =========                 |
  \\      /  F ield         | OpenFOAM: The Open Source CFD Toolbox
   \\    /   O peration     | Website:  https://openfoam.org
    \\  /    A nd           | Version:  13
     \\/     M anipulation  |
\*---------------------------------------------------------------------------*/
FoamFile
{
    format      ascii;
    class       volScalarField;
    location    "6.5";
    object      k;
}
// * * * * * * * * * * * * * * * * * * * * * * * * * * * * * * * * * * * * * //

dimensions      [0 2 -2 0 0 0 0];

internalField   nonuniform List<scalar> 
400
(
4.33795e-06
1.26966e-05
6.40179e-05
0.000157662
0.000227783
0.000278101
0.000318442
0.000356742
0.000389958
0.000423916
0.000455474
0.000488814
0.000522178
0.000545622
0.000556415
0.000557729
0.000518598
0.000410596
0.00025257
0.000182617
2.08747e-05
7.82936e-05
0.000187291
0.000345369
0.00041628
0.000497573
0.00054288
0.00060895
0.0006609
0.000722463
0.000779804
0.000840077
0.000894442
0.000951448
0.00100287
0.00102849
0.00103463
0.000931917
0.000617643
0.000378403
7.6195e-05
0.000266959
0.000446342
0.000533505
0.000596868
0.000652874
0.000695385
0.000748277
0.000794159
0.000842738
0.000885908
0.000927576
0.00096662
0.0010115
0.00105668
0.00109082
0.00110262
0.00105446
0.000766854
0.000491764
0.000177851
0.000479212
0.00057975
0.00062446
0.000666355
0.000698735
0.000730848
0.000767345
0.000800013
0.000832861
0.000859965
0.000887851
0.000924162
0.000972612
0.00103628
0.0011041
0.00113626
0.00113828
0.000908676
0.000564915
0.0002655
0.000596789
0.000639577
0.000650079
0.000672516
0.000694589
0.000718839
0.000737148
0.00074432
0.000745526
0.000748215
0.000765613
0.000803598
0.000867429
0.000965713
0.00109481
0.00118781
0.00121056
0.00103612
0.000619993
0.000319372
0.000640518
0.000648646
0.00064778
0.000664433
0.000672925
0.000673935
0.000657144
0.000632399
0.000616645
0.000610424
0.000617065
0.000653631
0.000725818
0.000848044
0.00102715
0.00121758
0.00129528
0.00117469
0.00066396
0.000331287
0.000635788
0.000642446
0.000637823
0.000640619
0.000628458
0.000605032
0.000568015
0.000530153
0.000503759
0.000492243
0.000491507
0.000522275
0.000592511
0.000722533
0.000934302
0.0012223
0.00137473
0.00130647
0.000698143
0.00032647
0.000620117
0.000626782
0.000616276
0.000608085
0.000583686
0.000545412
0.000498188
0.000454832
0.00042386
0.000409232
0.000406402
0.000428875
0.000488502
0.000609381
0.000829137
0.00117249
0.00144304
0.00144693
0.000725529
0.000313635
0.000587332
0.000599766
0.00059083
0.000578265
0.000547313
0.000501965
0.00045137
0.000407358
0.000375604
0.000359384
0.00035509
0.000370644
0.000418457
0.000522673
0.000730305
0.00109484
0.00149016
0.00156868
0.000744477
0.000287526
0.000557826
0.000573564
0.000567716
0.000553811
0.000520892
0.000474086
0.000424142
0.00038169
0.000351162
0.000334183
0.000329385
0.000340818
0.000378104
0.000465191
0.000656091
0.00102246
0.00151061
0.00169274
0.00075786
0.000260113
0.000518159
0.000544158
0.000543976
0.000532814
0.000502256
0.000457906
0.000411027
0.000371118
0.000342336
0.000325086
0.000320389
0.000329318
0.000359805
0.000433687
0.00060331
0.00096153
0.00151607
0.00179603
0.000764062
0.000236368
0.000483972
0.000521728
0.000524909
0.000516729
0.000490587
0.000450123
0.00040783
0.000371523
0.000343925
0.000326476
0.000321049
0.000327878
0.000354556
0.000421312
0.000574672
0.000910445
0.00151364
0.00188148
0.000766279
0.000210494
0.000439071
0.000493715
0.000503568
0.000499475
0.000481423
0.000446817
0.000409689
0.000376171
0.000350792
0.000334366
0.000330118
0.000336272
0.000359797
0.000420019
0.000564213
0.000877705
0.00150507
0.00192255
0.00076559
0.000186932
0.000409696
0.000477467
0.000491844
0.000488745
0.000475343
0.000447752
0.00041512
0.000386034
0.000363663
0.000348412
0.00034613
0.000352871
0.000376661
0.000434555
0.000568263
0.000864908
0.00149306
0.00193495
0.00076118
0.000159338
0.00036159
0.000449443
0.000477178
0.000479704
0.000472561
0.000452332
0.000424752
0.000399567
0.000380235
0.000366719
0.000367015
0.000375148
0.000401
0.000460429
0.000593334
0.000865342
0.00148255
0.00188537
0.000751128
0.000132474
0.000332227
0.000434378
0.000475833
0.000484543
0.000479295
0.000464298
0.000440937
0.000418502
0.000400802
0.000389364
0.000391103
0.000401824
0.000431956
0.000497417
0.000643494
0.000896916
0.00147863
0.00178894
0.000726244
0.000100384
0.000266876
0.000394811
0.000475189
0.00050102
0.000499435
0.00049003
0.000469941
0.000448756
0.000431371
0.000423346
0.000427492
0.00044342
0.000483878
0.000565168
0.000748331
0.000991641
0.00150039
0.00162225
0.000688258
6.74244e-05
0.000240089
0.000405575
0.000505905
0.000558518
0.000561847
0.000556022
0.0005407
0.000522752
0.000510852
0.00051414
0.000529684
0.000566115
0.000643261
0.000766188
0.00103278
0.00129684
0.00158534
0.00145077
0.000633018
8.04454e-05
0.000265508
0.000466595
0.000585121
0.000664692
0.000696279
0.000716609
0.000732502
0.00076007
0.000799042
0.000865312
0.000956872
0.00108496
0.00127032
0.00148586
0.0017944
0.0018697
0.00173115
0.00135722
0.000554575
5.79602e-05
9.27418e-05
0.000172083
0.000246414
0.0003074
0.000346508
0.000369608
0.000384219
0.00039188
0.00039919
0.000403428
0.000411944
0.000418957
0.00043432
0.000445304
0.000469652
0.000493541
0.000519902
0.000514534
0.000460113
)
;

boundaryField
{
    movingWall
    {
        type            kqRWallFunction;
        value           nonuniform List<scalar> 
20
(
5.79602e-05
9.27418e-05
0.000172083
0.000246414
0.0003074
0.000346508
0.000369608
0.000384219
0.00039188
0.00039919
0.000403428
0.000411944
0.000418957
0.00043432
0.000445304
0.000469652
0.000493541
0.000519902
0.000514534
0.000460113
)
;
    }
    fixedWalls
    {
        type            kqRWallFunction;
        value           nonuniform List<scalar> 
60
(
4.33795e-06
2.08747e-05
7.6195e-05
0.000177851
0.0002655
0.000319372
0.000331287
0.00032647
0.000313635
0.000287526
0.000260113
0.000236368
0.000210494
0.000186932
0.000159338
0.000132474
0.000100384
6.74244e-05
8.04454e-05
5.79602e-05
0.000182617
0.000378403
0.000491764
0.000564915
0.000619993
0.00066396
0.000698143
0.000725529
0.000744477
0.00075786
0.000764062
0.000766279
0.00076559
0.00076118
0.000751128
0.000726244
0.000688258
0.000633018
0.000554575
0.000460113
4.33795e-06
1.26966e-05
6.40179e-05
0.000157662
0.000227783
0.000278101
0.000318442
0.000356742
0.000389958
0.000423916
0.000455474
0.000488814
0.000522178
0.000545622
0.000556415
0.000557729
0.000518598
0.000410596
0.00025257
0.000182617
)
;
    }
    frontAndBack
    {
        type            empty;
    }
}


// ************************************************************************* //
