/*--------------------------------*- C++ -*----------------------------------*\
  =========                 |
  \\      /  F ield         | OpenFOAM: The Open Source CFD Toolbox
   \\    /   O peration     | Website:  https://openfoam.org
    \\  /    A nd           | Version:  13
     \\/     M anipulation  |
\*---------------------------------------------------------------------------*/
FoamFile
{
    format      ascii;
    class       volScalarField;
    location    "6.5";
    object      nut;
}
// * * * * * * * * * * * * * * * * * * * * * * * * * * * * * * * * * * * * * //

dimensions      [0 2 -1 0 0 0 0];

internalField   nonuniform List<scalar> 
400
(
1.22204e-07
3.58156e-07
1.80416e-06
4.43787e-06
6.40828e-06
7.82282e-06
8.95701e-06
1.00339e-05
1.09678e-05
1.19227e-05
1.28101e-05
1.37477e-05
1.46859e-05
1.53452e-05
1.56487e-05
1.56856e-05
1.45849e-05
1.15475e-05
7.10324e-06
5.13595e-06
5.8809e-07
2.85482e-06
5.56806e-06
1.22045e-05
1.62357e-05
2.23791e-05
2.6328e-05
3.17717e-05
3.59125e-05
3.99545e-05
4.29401e-05
4.52166e-05
4.61852e-05
4.67396e-05
4.64635e-05
4.41304e-05
4.26622e-05
3.44361e-05
1.89819e-05
1.06409e-05
2.14574e-06
9.90937e-06
1.96882e-05
2.67815e-05
3.35079e-05
4.0119e-05
4.57175e-05
5.09203e-05
5.41394e-05
5.68246e-05
5.83525e-05
5.92857e-05
5.93315e-05
5.91709e-05
5.81284e-05
5.5183e-05
5.12897e-05
4.51882e-05
2.57703e-05
1.38278e-05
5.00812e-06
2.20253e-05
3.06371e-05
3.75764e-05
4.42593e-05
5.02065e-05
5.51424e-05
5.87586e-05
6.16449e-05
6.43314e-05
6.5817e-05
6.63176e-05
6.62577e-05
6.58725e-05
6.48402e-05
6.21936e-05
5.6231e-05
5.29462e-05
3.4172e-05
1.58844e-05
7.47339e-06
2.96281e-05
3.79227e-05
4.38083e-05
5.09456e-05
5.68055e-05
6.21542e-05
6.60022e-05
6.80927e-05
6.86224e-05
6.83769e-05
6.82118e-05
6.82827e-05
6.83994e-05
6.87112e-05
6.85053e-05
6.2064e-05
5.66492e-05
4.08716e-05
1.74327e-05
8.98813e-06
3.39918e-05
4.12471e-05
4.88419e-05
5.67903e-05
6.25773e-05
6.69168e-05
6.82584e-05
6.82177e-05
6.83418e-05
6.83371e-05
6.81092e-05
6.77128e-05
6.77511e-05
6.86453e-05
7.01613e-05
6.76792e-05
6.03706e-05
4.72399e-05
1.86689e-05
9.32303e-06
3.45753e-05
4.46231e-05
5.31979e-05
6.04069e-05
6.4652e-05
6.73157e-05
6.79951e-05
6.83815e-05
6.90107e-05
6.94373e-05
6.95482e-05
6.8516e-05
6.75465e-05
6.79242e-05
7.03651e-05
7.30138e-05
6.37388e-05
5.236e-05
1.963e-05
9.18753e-06
3.54581e-05
4.69937e-05
5.5342e-05
6.16696e-05
6.53061e-05
6.72686e-05
6.81641e-05
6.94921e-05
7.13176e-05
7.27273e-05
7.33478e-05
7.2144e-05
6.93557e-05
6.76861e-05
6.94859e-05
7.47292e-05
6.76502e-05
5.70669e-05
2.04002e-05
8.82656e-06
3.5199e-05
4.7473e-05
5.60039e-05
6.20528e-05
6.54375e-05
6.72685e-05
6.87079e-05
7.10047e-05
7.3756e-05
7.5592e-05
7.61378e-05
7.47929e-05
7.20654e-05
6.86251e-05
6.78098e-05
7.22396e-05
7.12415e-05
6.04183e-05
2.09331e-05
8.09227e-06
3.48862e-05
4.73385e-05
5.59604e-05
6.18616e-05
6.52257e-05
6.7169e-05
6.90057e-05
7.16611e-05
7.46553e-05
7.64917e-05
7.67971e-05
7.57247e-05
7.3455e-05
7.03737e-05
6.82476e-05
7.08296e-05
7.30975e-05
6.36618e-05
2.13099e-05
7.32119e-06
3.30306e-05
4.60308e-05
5.49417e-05
6.10999e-05
6.46483e-05
6.67338e-05
6.85045e-05
7.05517e-05
7.30639e-05
7.50509e-05
7.57509e-05
7.50455e-05
7.35844e-05
7.11495e-05
6.88551e-05
7.03859e-05
7.47008e-05
6.60469e-05
2.14846e-05
6.65329e-06
3.06153e-05
4.47404e-05
5.35805e-05
5.98768e-05
6.38543e-05
6.56415e-05
6.70898e-05
6.92315e-05
7.1184e-05
7.2477e-05
7.30633e-05
7.31772e-05
7.29933e-05
7.12274e-05
6.90196e-05
7.00228e-05
7.57037e-05
6.78202e-05
2.15471e-05
5.92546e-06
2.69142e-05
4.15107e-05
5.11213e-05
5.76552e-05
6.22135e-05
6.41389e-05
6.58002e-05
6.70364e-05
6.81971e-05
6.91074e-05
6.99201e-05
7.02584e-05
7.09129e-05
7.1026e-05
6.92246e-05
6.91203e-05
7.58755e-05
6.8576e-05
2.15288e-05
5.26264e-06
2.41454e-05
3.85841e-05
4.85172e-05
5.49017e-05
5.99794e-05
6.26861e-05
6.37991e-05
6.46725e-05
6.54578e-05
6.61443e-05
6.72281e-05
6.78286e-05
6.90421e-05
7.01078e-05
6.95893e-05
6.87906e-05
7.51046e-05
6.86707e-05
2.14051e-05
4.48635e-06
1.9773e-05
3.37379e-05
4.45261e-05
5.14241e-05
5.71791e-05
6.06508e-05
6.18581e-05
6.25854e-05
6.31094e-05
6.37719e-05
6.48887e-05
6.56814e-05
6.71428e-05
6.85529e-05
6.88694e-05
6.77514e-05
7.38287e-05
6.62866e-05
2.11224e-05
3.73035e-06
1.71864e-05
3.0502e-05
4.10893e-05
4.85909e-05
5.4076e-05
5.79486e-05
5.95807e-05
6.05093e-05
6.08399e-05
6.17862e-05
6.22436e-05
6.31206e-05
6.43763e-05
6.54638e-05
6.71261e-05
6.51324e-05
7.05931e-05
6.34044e-05
2.04229e-05
2.82722e-06
1.24685e-05
2.51203e-05
3.74903e-05
4.51614e-05
5.01503e-05
5.43885e-05
5.63677e-05
5.72702e-05
5.74813e-05
5.79848e-05
5.82268e-05
5.87015e-05
5.93236e-05
5.9781e-05
6.3444e-05
6.16651e-05
6.60085e-05
5.82356e-05
1.93543e-05
1.8985e-06
1.12676e-05
2.41882e-05
3.46649e-05
4.28783e-05
4.61755e-05
4.98174e-05
5.18104e-05
5.23981e-05
5.21949e-05
5.2067e-05
5.18892e-05
5.20108e-05
5.36044e-05
5.4169e-05
5.91327e-05
6.23832e-05
6.10134e-05
4.9663e-05
1.78006e-05
2.26403e-06
1.32296e-05
2.37184e-05
3.09429e-05
3.73116e-05
4.06522e-05
4.31954e-05
4.48057e-05
4.67649e-05
4.83324e-05
5.03344e-05
5.21444e-05
5.5454e-05
5.91626e-05
6.35851e-05
6.96333e-05
6.61278e-05
5.97752e-05
4.35685e-05
1.55945e-05
1.63116e-06
2.60983e-06
4.84229e-06
6.93428e-06
8.64976e-06
9.74992e-06
1.03998e-05
1.08106e-05
1.10259e-05
1.1231e-05
1.13498e-05
1.15884e-05
1.1785e-05
1.22159e-05
1.25241e-05
1.32075e-05
1.3879e-05
1.46195e-05
1.44683e-05
1.29374e-05
)
;

boundaryField
{
    movingWall
    {
        type            nutkWallFunction;
        Cmu             0.09;
        kappa           0.41;
        E               9.8;
        value           uniform 0;
    }
    fixedWalls
    {
        type            nutkWallFunction;
        Cmu             0.09;
        kappa           0.41;
        E               9.8;
        value           uniform 0;
    }
    frontAndBack
    {
        type            empty;
    }
}


// ************************************************************************* //
