/*--------------------------------*- C++ -*----------------------------------*\
  =========                 |
  \\      /  F ield         | OpenFOAM: The Open Source CFD Toolbox
   \\    /   O peration     | Website:  https://openfoam.org
    \\  /    A nd           | Version:  13
     \\/     M anipulation  |
\*---------------------------------------------------------------------------*/
FoamFile
{
    format      ascii;
    class       volScalarField;
    location    "6.5";
    object      p;
}
// * * * * * * * * * * * * * * * * * * * * * * * * * * * * * * * * * * * * * //

dimensions      [0 2 -2 0 0 0 0];

internalField   nonuniform List<scalar> 
400
(
2.99571e-08
-6.65264e-05
-0.000144887
-0.000246692
-0.000870466
-0.00206233
-0.00352433
-0.00495326
-0.00612249
-0.00690871
-0.00721794
-0.00696747
-0.00613257
-0.00469199
-0.00263943
-8.51779e-05
0.00269792
0.00516545
0.00669361
0.00700544
4.91227e-05
-2.12953e-05
-0.000167421
-0.000626795
-0.00151994
-0.00281503
-0.00425647
-0.00562321
-0.00674849
-0.00752048
-0.00784455
-0.00767486
-0.00698261
-0.00570262
-0.00383568
-0.00143968
0.00126664
0.00383964
0.00567089
0.00639358
0.000231614
-4.30447e-05
-0.000538911
-0.00139446
-0.00261787
-0.00404563
-0.00548718
-0.00680077
-0.00787868
-0.00860087
-0.00890662
-0.00876923
-0.00816117
-0.00707219
-0.00548386
-0.00341869
-0.000992307
0.00152088
0.00363799
0.00469787
0.000101117
-0.000380573
-0.00126942
-0.00252647
-0.00401656
-0.00555036
-0.0069866
-0.00821931
-0.00916043
-0.00976764
-0.0100219
-0.00990851
-0.00940593
-0.00850397
-0.00719095
-0.00547393
-0.00340621
-0.00113683
0.000986153
0.00211409
-0.000542552
-0.00119887
-0.00237009
-0.00387104
-0.00548011
-0.00702226
-0.00838578
-0.00949826
-0.0103188
-0.0108356
-0.0110448
-0.0109442
-0.0105285
-0.00979396
-0.00873237
-0.00734339
-0.00564849
-0.00371815
-0.00178419
-0.000721528
-0.00168119
-0.00242141
-0.00369969
-0.00525375
-0.00685056
-0.00832243
-0.00957801
-0.0105717
-0.0112895
-0.0117315
-0.0119028
-0.0118108
-0.0114621
-0.0108611
-0.0100062
-0.008895
-0.00753482
-0.0059621
-0.00439374
-0.0033898
-0.00304365
-0.0037948
-0.00504007
-0.00653033
-0.00803755
-0.00939985
-0.0105399
-0.0114269
-0.0120583
-0.0124408
-0.0125847
-0.0125017
-0.0122038
-0.0117024
-0.0110038
-0.0101086
-0.00902169
-0.00776513
-0.00655502
-0.00566352
-0.0043383
-0.00504967
-0.00620155
-0.00758889
-0.00898209
-0.0102304
-0.0112664
-0.0120662
-0.0126313
-0.0129713
-0.0130979
-0.0130239
-0.0127631
-0.0123313
-0.0117427
-0.0110041
-0.0101245
-0.00912105
-0.00820934
-0.0074228
-0.00536028
-0.00602485
-0.00707035
-0.00835783
-0.00964695
-0.0108009
-0.011758
-0.0124963
-0.0130175
-0.0133309
-0.013448
-0.0133807
-0.0131431
-0.0127535
-0.0122331
-0.0115977
-0.0108683
-0.0100416
-0.0093448
-0.00865431
-0.00603059
-0.0066206
-0.00758285
-0.00879989
-0.0100123
-0.0111048
-0.0120156
-0.0127209
-0.0132202
-0.0135211
-0.0136341
-0.0135699
-0.0133423
-0.0129706
-0.0124819
-0.0118993
-0.011276
-0.010541
-0.0100181
-0.00935524
-0.00631007
-0.00682779
-0.00773407
-0.00890249
-0.0100725
-0.0111397
-0.0120378
-0.0127383
-0.0132367
-0.0135383
-0.0136518
-0.0135868
-0.0133567
-0.0129816
-0.0124931
-0.0119148
-0.0113662
-0.0106213
-0.0102713
-0.00953533
-0.00619083
-0.0066656
-0.00753237
-0.00867116
-0.00983229
-0.0109053
-0.0118209
-0.0125432
-0.0130615
-0.0133769
-0.0134959
-0.0134268
-0.0131828
-0.0127847
-0.0122679
-0.0116744
-0.0111121
-0.0103182
-0.0101573
-0.00918463
-0.00574271
-0.00619667
-0.00703167
-0.00813349
-0.00930468
-0.0104067
-0.0113646
-0.012133
-0.0126911
-0.013034
-0.0131647
-0.0130896
-0.012822
-0.0123838
-0.011816
-0.0111677
-0.0105386
-0.00969433
-0.00965904
-0.00832006
-0.00507941
-0.00549805
-0.00628302
-0.00733077
-0.00850435
-0.00964859
-0.0106704
-0.0115077
-0.0121264
-0.0125124
-0.0126636
-0.0125836
-0.0122855
-0.0117931
-0.0111532
-0.0104155
-0.00968905
-0.00878191
-0.00874918
-0.00699663
-0.00435549
-0.00469588
-0.00536803
-0.00632264
-0.00747163
-0.00865855
-0.0097588
-0.0106849
-0.0113842
-0.01183
-0.0120136
-0.0119352
-0.0116049
-0.0110484
-0.0103187
-0.00946194
-0.00860589
-0.00757576
-0.00742101
-0.00525891
-0.00372756
-0.00388934
-0.00434577
-0.00514873
-0.00624756
-0.00747388
-0.00866343
-0.00969612
-0.0104963
-0.0110213
-0.0112538
-0.0111893
-0.0108402
-0.0102206
-0.00938925
-0.00838117
-0.00733778
-0.00608247
-0.00565668
-0.00289988
-0.00333073
-0.00318574
-0.00331324
-0.00390825
-0.00493363
-0.00619124
-0.00747381
-0.00862508
-0.00954351
-0.0101676
-0.0104707
-0.0104421
-0.0100939
-0.00942025
-0.00847869
-0.0072734
-0.0059328
-0.00426781
-0.00320614
0.000914711
-0.00314741
-0.00255366
-0.00230377
-0.00268093
-0.00362875
-0.00491029
-0.00628101
-0.00755638
-0.00860796
-0.00935161
-0.00974632
-0.00977008
-0.00943363
-0.00873182
-0.00768952
-0.0062377
-0.00445779
-0.00200376
0.000559454
0.0080195
-0.00311233
-0.00200023
-0.00149345
-0.00171351
-0.00259528
-0.0038972
-0.00534785
-0.00673664
-0.00790885
-0.00877045
-0.0092661
-0.00937567
-0.00908273
-0.0083677
-0.00718834
-0.00545998
-0.00307483
0.000933465
0.00681886
0.0197123
-0.00372897
-0.00073209
-0.00011033
-0.000508624
-0.00145099
-0.00280729
-0.004362
-0.00587024
-0.00715849
-0.00811556
-0.00868636
-0.00883442
-0.00854094
-0.0077782
-0.00650846
-0.00455162
-0.00108833
0.00546324
0.0170891
0.034805
)
;

boundaryField
{
    movingWall
    {
        type            zeroGradient;
    }
    fixedWalls
    {
        type            zeroGradient;
    }
    frontAndBack
    {
        type            empty;
    }
}


// ************************************************************************* //
