/*--------------------------------*- C++ -*----------------------------------*\
  =========                 |
  \\      /  F ield         | OpenFOAM: The Open Source CFD Toolbox
   \\    /   O peration     | Website:  https://openfoam.org
    \\  /    A nd           | Version:  13
     \\/     M anipulation  |
\*---------------------------------------------------------------------------*/
FoamFile
{
    format      ascii;
    class       surfaceScalarField;
    location    "6.5";
    object      phi;
}
// * * * * * * * * * * * * * * * * * * * * * * * * * * * * * * * * * * * * * //

dimensions      [0 3 -1 0 0 0 0];

internalField   nonuniform List<scalar> 
760
(
1.51918e-07
-1.51921e-07
-3.4027e-08
1.85944e-07
-7.12512e-07
6.78485e-07
-1.89065e-06
1.17813e-06
-3.2319e-06
1.34125e-06
-4.43664e-06
1.20474e-06
-5.46504e-06
1.0284e-06
-6.28299e-06
8.17949e-07
-6.88998e-06
6.06991e-07
-7.29952e-06
4.09534e-07
-7.52517e-06
2.25657e-07
-7.56281e-06
3.76326e-08
-7.39955e-06
-1.63259e-07
-7.03604e-06
-3.63505e-07
-6.4102e-06
-6.25845e-07
-5.49189e-06
-9.18307e-07
-4.22991e-06
-1.26198e-06
-2.66457e-06
-1.56534e-06
-1.01679e-06
-1.64779e-06
-1.01679e-06
-2.77666e-07
1.25745e-07
-1.13719e-06
1.04547e-06
-2.41613e-06
1.95743e-06
-3.65579e-06
2.4178e-06
-4.66845e-06
2.35391e-06
-5.57039e-06
2.10668e-06
-6.30676e-06
1.76478e-06
-6.88866e-06
1.39985e-06
-7.32731e-06
1.04564e-06
-7.62114e-06
7.03371e-07
-7.7569e-06
3.61417e-07
-7.71712e-06
-2.14751e-09
-7.54201e-06
-3.38368e-07
-7.1823e-06
-7.23218e-07
-6.62918e-06
-1.17896e-06
-5.83646e-06
-1.71103e-06
-4.76432e-06
-2.33412e-06
-3.35318e-06
-2.97647e-06
-1.64162e-06
-3.35936e-06
-2.6584e-06
-8.7645e-07
1.0022e-06
-2.09822e-06
2.26724e-06
-3.22334e-06
3.08255e-06
-4.13893e-06
3.33339e-06
-4.91032e-06
3.1253e-06
-5.54859e-06
2.74495e-06
-6.05159e-06
2.26777e-06
-6.41353e-06
1.76179e-06
-6.64858e-06
1.28068e-06
-6.75893e-06
8.13725e-07
-6.76578e-06
3.68271e-07
-6.68917e-06
-7.87581e-08
-6.50121e-06
-5.26329e-07
-6.19411e-06
-1.03032e-06
-5.75251e-06
-1.62057e-06
-5.13993e-06
-2.3236e-06
-4.31992e-06
-3.15414e-06
-3.22537e-06
-4.07103e-06
-1.77915e-06
-4.80558e-06
-4.43755e-06
-1.12586e-06
2.12806e-06
-2.27181e-06
3.41319e-06
-3.20646e-06
4.01719e-06
-3.91662e-06
4.04355e-06
-4.47587e-06
3.68454e-06
-4.8976e-06
3.16668e-06
-5.19623e-06
2.5664e-06
-5.3965e-06
1.96206e-06
-5.50806e-06
1.39224e-06
-5.54697e-06
8.52635e-07
-5.51654e-06
3.37846e-07
-5.42237e-06
-1.72932e-07
-5.25011e-06
-6.98591e-07
-4.99862e-06
-1.28181e-06
-4.65749e-06
-1.9617e-06
-4.20039e-06
-2.7807e-06
-3.58855e-06
-3.76598e-06
-2.75833e-06
-4.90125e-06
-1.58275e-06
-5.98116e-06
-6.0203e-06
-1.08562e-06
3.21368e-06
-2.06145e-06
4.38902e-06
-2.8117e-06
4.76744e-06
-3.36279e-06
4.59464e-06
-3.76639e-06
4.08815e-06
-4.04505e-06
3.44534e-06
-4.22836e-06
2.74971e-06
-4.34033e-06
2.07403e-06
-4.38928e-06
1.44119e-06
-4.3844e-06
8.47756e-07
-4.32846e-06
2.81904e-07
-4.2246e-06
-2.7679e-07
-4.06965e-06
-8.53542e-07
-3.86579e-06
-1.48567e-06
-3.60849e-06
-2.21899e-06
-3.28065e-06
-3.10854e-06
-2.8428e-06
-4.20383e-06
-2.22613e-06
-5.51792e-06
-1.3237e-06
-6.88358e-06
-7.344e-06
-9.0527e-07
4.11895e-06
-1.68396e-06
5.16771e-06
-2.27077e-06
5.35425e-06
-2.69289e-06
5.01677e-06
-2.98628e-06
4.38153e-06
-3.17805e-06
3.6371e-06
-3.29751e-06
2.86918e-06
-3.36238e-06
2.13889e-06
-3.38094e-06
1.45975e-06
-3.35864e-06
8.25457e-07
-3.29773e-06
2.2099e-07
-3.19962e-06
-3.74895e-07
-3.06537e-06
-9.87798e-07
-2.89887e-06
-1.65217e-06
-2.70253e-06
-2.41533e-06
-2.47085e-06
-3.34022e-06
-2.18116e-06
-4.49351e-06
-1.76344e-06
-5.93564e-06
-1.06802e-06
-7.579e-06
-8.41202e-06
-6.8981e-07
4.80876e-06
-1.26522e-06
5.74312e-06
-1.70232e-06
5.79134e-06
-2.0123e-06
5.32675e-06
-2.22482e-06
4.59405e-06
-2.36206e-06
3.77434e-06
-2.44643e-06
2.95355e-06
-2.49037e-06
2.18283e-06
-2.50074e-06
1.47012e-06
-2.48096e-06
8.05677e-07
-2.43145e-06
1.7148e-07
-2.35168e-06
-4.54663e-07
-2.24243e-06
-1.09705e-06
-2.10881e-06
-1.78578e-06
-1.95921e-06
-2.56494e-06
-1.79676e-06
-3.50267e-06
-1.60781e-06
-4.68246e-06
-1.33352e-06
-6.20993e-06
-8.76451e-07
-8.03607e-06
-9.28847e-06
-4.50268e-07
5.25903e-06
-8.50217e-07
6.14307e-06
-1.15053e-06
6.09166e-06
-1.3648e-06
5.54102e-06
-1.51417e-06
4.74342e-06
-1.61375e-06
3.87392e-06
-1.67827e-06
3.01808e-06
-1.71526e-06
2.21982e-06
-1.72905e-06
1.48391e-06
-1.72108e-06
7.97706e-07
-1.69024e-06
1.40638e-07
-1.63497e-06
-5.0993e-07
-1.55521e-06
-1.17681e-06
-1.45583e-06
-1.88516e-06
-1.34887e-06
-2.6719e-06
-1.24617e-06
-3.60536e-06
-1.14095e-06
-4.78769e-06
-9.81694e-07
-6.36919e-06
-6.80215e-07
-8.33755e-06
-9.96869e-06
-2.40616e-07
5.49964e-06
-4.62283e-07
6.36473e-06
-6.31548e-07
6.26092e-06
-7.60703e-07
5.67017e-06
-8.55594e-07
4.83831e-06
-9.24558e-07
3.94289e-06
-9.74772e-07
3.06829e-06
-1.00906e-06
2.2541e-06
-1.02894e-06
1.5038e-06
-1.03425e-06
8.03017e-07
-1.0234e-06
1.29792e-07
-9.94772e-07
-5.38561e-07
-9.48371e-07
-1.22321e-06
-8.8864e-07
-1.94489e-06
-8.27816e-07
-2.73272e-06
-7.82238e-07
-3.65094e-06
-7.52655e-07
-4.81727e-06
-6.9414e-07
-6.4277e-06
-5.44913e-07
-8.48677e-06
-1.05136e-05
-2.4442e-08
5.52409e-06
-9.80714e-08
6.43836e-06
-1.52324e-07
6.31518e-06
-1.97674e-07
5.71552e-06
-2.37735e-07
4.87838e-06
-2.75148e-07
3.9803e-06
-3.099e-07
3.10304e-06
-3.40002e-07
2.2842e-06
-3.64165e-07
1.52796e-06
-3.81237e-07
8.20089e-07
-3.89984e-07
1.38539e-07
-3.89453e-07
-5.39092e-07
-3.80046e-07
-1.23262e-06
-3.65779e-07
-1.95916e-06
-3.58378e-07
-2.74012e-06
-3.70984e-07
-3.63834e-06
-4.2418e-07
-4.76407e-06
-4.57951e-07
-6.39393e-06
-4.15902e-07
-8.52882e-06
-1.09295e-05
1.7444e-07
5.34965e-06
2.60715e-07
6.35209e-06
3.27166e-07
6.24873e-06
3.52272e-07
5.69042e-06
3.62005e-07
4.86864e-06
3.57025e-07
3.98528e-06
3.41264e-07
3.1188e-06
3.19323e-07
2.30614e-06
2.94244e-07
1.55304e-06
2.67611e-07
8.46722e-07
2.39911e-07
1.6624e-07
2.11034e-07
-5.10216e-07
1.79912e-07
-1.2015e-06
1.43314e-07
-1.92256e-06
9.16598e-08
-2.68847e-06
-4.56473e-09
-3.54211e-06
-1.18691e-07
-4.64995e-06
-2.56987e-07
-6.25564e-06
-3.28476e-07
-8.45733e-06
-1.1258e-05
3.61254e-07
4.98839e-06
5.96188e-07
6.11716e-06
7.74575e-07
6.07034e-06
8.83874e-07
5.58112e-06
9.52156e-07
4.80036e-06
9.87791e-07
3.94965e-06
9.9845e-07
3.10815e-06
9.90854e-07
2.31374e-06
9.69352e-07
1.57454e-06
9.3581e-07
8.80263e-07
8.89805e-07
2.12246e-07
8.30006e-07
-4.50416e-07
7.54234e-07
-1.12573e-06
6.5941e-07
-1.82774e-06
5.37305e-07
-2.56636e-06
3.79548e-07
-3.38435e-06
1.65699e-07
-4.4361e-06
-8.50444e-08
-6.00489e-06
-2.33943e-07
-8.30844e-06
-1.14919e-05
5.42366e-07
4.44603e-06
9.21691e-07
5.73783e-06
1.20662e-06
5.78541e-06
1.40569e-06
5.38204e-06
1.54104e-06
4.66502e-06
1.62758e-06
3.86311e-06
1.6747e-06
3.06103e-06
1.6899e-06
2.29853e-06
1.67828e-06
1.58616e-06
1.64182e-06
9.16731e-07
1.57909e-06
2.74974e-07
1.48784e-06
-3.59174e-07
1.36453e-06
-1.00242e-06
1.20572e-06
-1.66892e-06
1.00725e-06
-2.36789e-06
7.61442e-07
-3.13855e-06
4.43293e-07
-4.11795e-06
9.46013e-08
-5.6562e-06
-1.27502e-07
-8.08633e-06
-1.16194e-05
6.93622e-07
3.7524e-06
1.20373e-06
5.22772e-06
1.59348e-06
5.39567e-06
1.89952e-06
5.076e-06
2.12096e-06
4.44357e-06
2.2754e-06
3.70867e-06
2.37353e-06
2.9629e-06
2.42357e-06
2.24849e-06
2.43085e-06
1.57888e-06
2.39739e-06
9.50196e-07
2.32098e-06
3.51385e-07
2.19813e-06
-2.36328e-07
2.02527e-06
-8.29555e-07
1.79792e-06
-1.44157e-06
1.51385e-06
-2.08382e-06
1.17033e-06
-2.79503e-06
7.50578e-07
-3.6982e-06
3.23994e-07
-5.22962e-06
3.6595e-08
-7.79893e-06
-1.15828e-05
8.13573e-07
2.93883e-06
1.43748e-06
4.60381e-06
1.93886e-06
4.89429e-06
2.36078e-06
4.65408e-06
2.68643e-06
4.11792e-06
2.92638e-06
3.46872e-06
3.09108e-06
2.7982e-06
3.18918e-06
2.15039e-06
3.22586e-06
1.5422e-06
3.20322e-06
9.72836e-07
3.11875e-06
4.35853e-07
2.96568e-06
-8.32592e-08
2.74337e-06
-6.07245e-07
2.44548e-06
-1.14367e-06
2.07024e-06
-1.70859e-06
1.62341e-06
-2.3482e-06
1.09567e-06
-3.17046e-06
5.72257e-07
-4.7062e-06
1.68372e-07
-7.39505e-06
-1.14145e-05
8.10077e-07
2.12875e-06
1.5242e-06
3.88969e-06
2.1608e-06
4.2577e-06
2.72141e-06
4.09346e-06
3.1806e-06
3.65873e-06
3.5352e-06
3.11413e-06
3.79198e-06
2.54141e-06
3.95893e-06
1.98344e-06
4.04106e-06
1.46007e-06
4.04083e-06
9.73068e-07
3.95674e-06
5.19942e-07
3.78518e-06
8.83034e-08
3.51746e-06
-3.39529e-07
3.15464e-06
-7.80847e-07
2.69174e-06
-1.24569e-06
2.14414e-06
-1.8006e-06
1.50787e-06
-2.53419e-06
8.77127e-07
-4.07545e-06
3.57624e-07
-6.87554e-06
-1.10568e-05
6.99751e-07
1.429e-06
1.48773e-06
3.10171e-06
2.27499e-06
3.47043e-06
2.98814e-06
3.38032e-06
3.59389e-06
3.05297e-06
4.08134e-06
2.62668e-06
4.44789e-06
2.17486e-06
4.69857e-06
1.73276e-06
4.83905e-06
1.31959e-06
4.87323e-06
9.38895e-07
4.80348e-06
5.89687e-07
4.63059e-06
2.61194e-07
4.33749e-06
-4.64286e-08
3.94013e-06
-3.83487e-07
3.41939e-06
-7.24948e-07
2.79558e-06
-1.17678e-06
2.07707e-06
-1.81569e-06
1.33614e-06
-3.33453e-06
6.33761e-07
-6.17316e-06
-1.04231e-05
1.82893e-07
1.24611e-06
1.08074e-06
2.20387e-06
2.0499e-06
2.50127e-06
2.96142e-06
2.46879e-06
3.75323e-06
2.26117e-06
4.40563e-06
1.97427e-06
4.91493e-06
1.66556e-06
5.2824e-06
1.36528e-06
5.51666e-06
1.08534e-06
5.62467e-06
8.3088e-07
5.61276e-06
6.016e-07
5.48767e-06
3.8628e-07
5.2541e-06
1.87142e-07
4.91219e-06
-4.15701e-08
4.42402e-06
-2.36784e-07
3.81948e-06
-5.72245e-07
3.07657e-06
-1.07277e-06
2.24927e-06
-2.50723e-06
1.16998e-06
-5.09388e-06
-9.25309e-06
-5.90901e-07
1.83701e-06
4.03001e-07
1.20996e-06
1.66611e-06
1.23816e-06
2.84704e-06
1.28786e-06
3.87134e-06
1.23688e-06
4.732e-06
1.11361e-06
5.43436e-06
9.632e-07
5.97491e-06
8.24739e-07
6.37231e-06
6.87931e-07
6.63057e-06
5.72624e-07
6.77568e-06
4.5649e-07
6.80159e-06
3.6037e-07
6.73051e-06
2.58224e-07
6.52715e-06
1.61783e-07
6.23783e-06
5.25451e-08
5.83354e-06
-1.67958e-07
5.24661e-06
-4.85837e-07
4.38549e-06
-1.64611e-06
2.59926e-06
-3.30765e-06
-6.65383e-06
1.83701e-06
3.04697e-06
4.28514e-06
5.573e-06
6.80987e-06
7.92348e-06
8.88668e-06
9.71142e-06
1.03994e-05
1.0972e-05
1.14285e-05
1.17888e-05
1.20471e-05
1.22088e-05
1.22614e-05
1.20934e-05
1.16076e-05
9.96148e-06
6.65383e-06
)
;

boundaryField
{
    movingWall
    {
        type            calculated;
        value           uniform 0;
    }
    fixedWalls
    {
        type            calculated;
        value           uniform 0;
    }
    frontAndBack
    {
        type            empty;
    }
}


// ************************************************************************* //
