# vtk DataFile Version 2.0
tracks
ASCII
DATASET POLYDATA
POINTS 12025 float
-0.0206 0.000999969 1e-05 -0.02058 0.000999971 1e-05 -0.02056 0.000999975 1e-05 -0.02054 0.000999981
1e-05 -0.02052 0.00099999 1e-05 -0.0205 0.001 1e-05 -0.0202034 0.00100016 1e-05
-0.0199069 0.00100058 1e-05 -0.0196103 0.00100127 1e-05 -0.0193137 0.00100221 1e-05 -0.0190172
0.00100341 1e-05 -0.0187132 0.00100487 1e-05 -0.0184093 0.00100642 1e-05 -0.0181054 0.00100806
1e-05 -0.0178015 0.0010098 1e-05 -0.0174976 0.00101163 1e-05 -0.0172058 0.00101346 1e-05
-0.016914 0.00101534 1e-05 -0.0166222 0.00101726 1e-05 -0.0163305 0.00101922 1e-05 -0.0160387
0.00102123 1e-05 -0.0158798 0.00102235 1e-05 -0.0157209 0.00102348 1e-05 -0.015562 0.00102462
1e-05 -0.0154031 0.00102577 1e-05 -0.0152595 0.00102682 1e-05 -0.0151352 0.00102773 1e-05
-0.0150109 0.00102866 1e-05 -0.0148866 0.00102959 1e-05 -0.0147624 0.00103052 1e-05 -0.0146381
0.00103147 1e-05 -0.0143692 0.00103353 1e-05 -0.0141002 0.0010356 1e-05 -0.0138313 0.0010377
1e-05 -0.0135624 0.00103981 1e-05 -0.0132934 0.00104194 1e-05 -0.0130353 0.001044 1e-05
-0.0127771 0.00104606 1e-05 -0.0125189 0.00104811 1e-05 -0.0122607 0.00105015 1e-05 -0.0120025
0.00105219 1e-05 -0.0117547 0.00105414 1e-05 -0.0115068 0.00105607 1e-05 -0.0112589 0.00105797
1e-05 -0.0110111 0.00105986 1e-05 -0.0107632 0.00106173 1e-05 -0.0105252 0.00106351 1e-05
-0.0102873 0.00106526 1e-05 -0.0100493 0.001067 1e-05 -0.00981133 0.00106872 1e-05 -0.00957337
0.00107041 1e-05 -0.00934491 0.00107203 1e-05 -0.00911645 0.00107363 1e-05 -0.00888799 0.00107521
1e-05 -0.00865954 0.00107678 1e-05 -0.00843108 0.00107832 1e-05 -0.00821175 0.0010798 1e-05
-0.00799242 0.00108126 1e-05 -0.00777309 0.00108271 1e-05 -0.00755376 0.00108414 1e-05 -0.00733443
0.00108555 1e-05 -0.00712387 0.00108691 1e-05 -0.0069133 0.00108825 1e-05 -0.00670273 0.00108958
1e-05 -0.00649216 0.0010909 1e-05 -0.0062816 0.00109221 1e-05 -0.00607944 0.00109347 1e-05
-0.00587729 0.0010947 1e-05 -0.00567514 0.00109593 1e-05 -0.00547298 0.00109714 1e-05 -0.00527083
0.00109834 1e-05 -0.00507675 0.00109949 1e-05 -0.00488267 0.00110062 1e-05 -0.0046886 0.00110174
1e-05 -0.00449452 0.00110284 1e-05 -0.00430044 0.00110393 1e-05 -0.00411412 0.00110498 1e-05
-0.0039278 0.001106 1e-05 -0.00374147 0.00110702 1e-05 -0.00355515 0.00110803 1e-05 -0.00336883
0.00110902 1e-05 -0.00318995 0.00110997 1e-05 -0.00301107 0.00111091 1e-05 -0.00283219 0.00111183
1e-05 -0.00265331 0.00111275 1e-05 -0.00247443 0.00111366 1e-05 -0.0023027 0.00111452 1e-05
-0.00213097 0.00111537 1e-05 -0.00195924 0.00111621 1e-05 -0.0017875 0.00111703 1e-05 -0.00161577
0.00111785 1e-05 -0.0014509 0.00111862 1e-05 -0.00128603 0.00111937 1e-05 -0.00112116 0.00112011
1e-05 -0.000956289 0.00112083 1e-05 -0.000791418 0.00112152 1e-05 -0.000633135 0.00112218 1e-05
-0.000474851 0.00112281 1e-05 -0.000316567 0.00112342 1e-05 -0.000158283 0.00112401 1e-05 0
0.00112458 1e-05 0.000105677 0.00112496 1e-05 0.000211355 0.00112532 1e-05 0.000317032 0.00112567
1e-05 0.00042271 0.00112602 1e-05 0.000528387 0.00112636 1e-05 0.000634886 0.0011267 1e-05
0.000741385 0.00112703 1e-05 0.000847885 0.00112736 1e-05 0.000954384 0.00112768 1e-05 0.00106088
0.001128 1e-05 0.00116821 0.00112832 1e-05 0.00127554 0.00112863 1e-05 0.00138286 0.00112894
1e-05 0.00149019 0.00112923 1e-05 0.00159752 0.00112953 1e-05 0.00170568 0.00112982 1e-05
0.00181384 0.0011301 1e-05 0.001922 0.00113037 1e-05 0.00203016 0.00113064 1e-05 0.00213833
0.00113089 1e-05 0.00224733 0.00113114 1e-05 0.00235633 0.00113139 1e-05 0.00246533 0.00113162
1e-05 0.00257434 0.00113185 1e-05 0.00268334 0.00113207 1e-05 0.00279319 0.00113228 1e-05
0.00290304 0.00113249 1e-05 0.00301289 0.0011327 1e-05 0.00312274 0.00113289 1e-05 0.00323259
0.00113308 1e-05 0.00334329 0.00113326 1e-05 0.003454 0.00113344 1e-05 0.0035647 0.00113362
1e-05 0.0036754 0.00113378 1e-05 0.00378611 0.00113395 1e-05 0.00389767 0.0011341 1e-05
0.00400924 0.00113425 1e-05 0.0041208 0.00113439 1e-05 0.00423237 0.00113453 1e-05 0.00434393
0.00113467 1e-05 0.00445636 0.00113479 1e-05 0.00456879 0.00113491 1e-05 0.00468123 0.00113502
1e-05 0.00479366 0.00113513 1e-05 0.00490609 0.00113523 1e-05 0.0050194 0.00113532 1e-05
0.0051327 0.00113541 1e-05 0.00524601 0.0011355 1e-05 0.00535931 0.00113557 1e-05 0.00547262
0.00113564 1e-05 0.00558681 0.0011357 1e-05 0.005701 0.00113575 1e-05 0.00581518 0.0011358
1e-05 0.00592937 0.00113584 1e-05 0.00604356 0.00113588 1e-05 0.00615863 0.00113591 1e-05
0.00627371 0.00113593 1e-05 0.00638878 0.00113594 1e-05 0.00650386 0.00113595 1e-05 0.00661893
0.00113596 1e-05 0.0067349 0.00113595 1e-05 0.00685087 0.00113594 1e-05 0.00696684 0.00113593
1e-05 0.00708281 0.00113591 1e-05 0.00719878 0.00113588 1e-05 0.00731565 0.00113585 1e-05
0.00743252 0.00113581 1e-05 0.00754939 0.00113577 1e-05 0.00766626 0.00113572 1e-05 0.00778313
0.00113567 1e-05 0.00790091 0.00113561 1e-05 0.00801869 0.00113554 1e-05 0.00813647 0.00113548
1e-05 0.00825425 0.00113541 1e-05 0.00837203 0.00113533 1e-05 0.00849073 0.00113525 1e-05
0.00860942 0.00113517 1e-05 0.00872812 0.00113508 1e-05 0.00884682 0.00113499 1e-05 0.00896551
0.0011349 1e-05 0.00905295 0.00113482 1e-05 0.00914039 0.00113475 1e-05 0.00922783 0.00113467
1e-05 0.00931527 0.0011346 1e-05 0.00940149 0.00113452 1e-05 0.00943391 0.00113449 1e-05
0.00946633 0.00113446 1e-05 0.00949876 0.00113443 1e-05 0.00953118 0.00113439 1e-05 0.0095636
0.00113436 1e-05 0.00968415 0.00113424 1e-05 0.0098047 0.00113412 1e-05 0.00992525 0.001134
1e-05 0.0100458 0.00113387 1e-05 0.0101663 0.00113374 1e-05 0.0102878 0.0011336 1e-05
0.0104093 0.00113346 1e-05 0.0105308 0.00113331 1e-05 0.0106523 0.00113316 1e-05 0.0107738
0.00113301 1e-05 0.0108962 0.00113284 1e-05 0.0110186 0.00113268 1e-05 0.0111411 0.00113251
1e-05 0.0112635 0.00113233 1e-05 0.0113859 0.00113215 1e-05 0.0115093 0.00113195 1e-05
0.0116327 0.00113176 1e-05 0.0117561 0.00113156 1e-05 0.0118795 0.00113136 1e-05 0.0120028
0.00113115 1e-05 0.0121272 0.00113091 1e-05 0.0122515 0.00113068 1e-05 0.0123759 0.00113045
1e-05 0.0125002 0.00113021 1e-05 0.0126245 0.00112996 1e-05 0.0127498 0.00112968 1e-05
0.0128752 0.00112941 1e-05 0.0130005 0.00112913 1e-05 0.0131258 0.00112884 1e-05 0.0132511
0.00112854 1e-05 0.0133774 0.00112821 1e-05 0.0135036 0.00112789 1e-05 0.0136299 0.00112756
1e-05 0.0137562 0.00112722 1e-05 0.0138825 0.00112687 1e-05 0.0140098 0.00112648 1e-05
0.014137 0.0011261 1e-05 0.0142643 0.00112571 1e-05 0.0143915 0.00112531 1e-05 0.0145188
0.00112489 1e-05 0.0146471 0.00112445 1e-05 0.0147753 0.001124 1e-05 0.0149036 0.00112354
1e-05 0.0150318 0.00112307 1e-05 0.0151601 0.00112259 1e-05 0.0152893 0.00112208 1e-05
0.0154186 0.00112156 1e-05 0.0155478 0.00112103 1e-05 0.0156771 0.00112048 1e-05 0.0158063
0.00111993 1e-05 0.0159366 0.00111934 1e-05 0.0160668 0.00111875 1e-05 0.0161971 0.00111814
1e-05 0.0163273 0.00111751 1e-05 0.0164576 0.00111687 1e-05 0.0165889 0.00111621 1e-05
0.0167201 0.00111553 1e-05 0.0168514 0.00111484 1e-05 0.0169827 0.00111413 1e-05 0.0171139
0.0011134 1e-05 0.0172462 0.00111266 1e-05 0.0173785 0.0011119 1e-05 0.0175108 0.00111112
1e-05 0.0176431 0.00111032 1e-05 0.0177754 0.00110952 1e-05 0.0179087 0.0011087 1e-05
0.018042 0.00110785 1e-05 0.0181753 0.00110698 1e-05 0.0183087 0.0011061 1e-05 0.018442
0.0011052 1e-05 0.0185763 0.0011043 1e-05 0.0187107 0.00110337 1e-05 0.018845 0.00110241
1e-05 0.0189794 0.00110144 1e-05 0.0191137 0.00110046 1e-05 0.0192491 0.00109948 1e-05
0.0193845 0.00109847 1e-05 0.0195199 0.00109743 1e-05 0.0196553 0.00109637 1e-05 0.0197907
0.00109531 1e-05 0.0199272 0.00109425 1e-05 0.0200636 0.00109316 1e-05 0.0202001 0.00109203
1e-05 0.0203365 0.00109089 1e-05 0.020473 0.00108975 1e-05 0.0206105 0.00108862 1e-05
0.020748 0.00108745 1e-05 0.0208855 0.00108625 1e-05 0.021023 0.00108502 1e-05 0.0211606
0.00108382 1e-05 0.0212991 0.00108262 1e-05 0.0214377 0.00108138 1e-05 0.0215763 0.0010801
1e-05 0.0217149 0.00107881 1e-05 0.0218535 0.00107754 1e-05 0.0219931 0.00107628 1e-05
0.0221328 0.00107498 1e-05 0.0222724 0.00107364 1e-05 0.0224121 0.00107228 1e-05 0.0225517
0.00107096 1e-05 0.0226925 0.00106964 1e-05 0.0228332 0.00106829 1e-05 0.022974 0.00106689
1e-05 0.0231147 0.00106548 1e-05 0.0232555 0.0010641 1e-05 0.0233973 0.00106274 1e-05
0.0235391 0.00106134 1e-05 0.023681 0.00105989 1e-05 0.0238228 0.00105844 1e-05 0.0239647
0.00105702 1e-05 0.0241076 0.00105562 1e-05 0.0242505 0.00105417 1e-05 0.0243935 0.00105269
1e-05 0.0245364 0.0010512 1e-05 0.0246794 0.00104975 1e-05 0.0248234 0.00104832 1e-05
0.0249675 0.00104684 1e-05 0.0251115 0.00104533 1e-05 0.0252556 0.00104381 1e-05 0.0253996
0.00104234 1e-05 0.0255448 0.00104088 1e-05 0.02569 0.00103939 1e-05 0.0258351 0.00103786
1e-05 0.0259803 0.00103633 1e-05 0.0261255 0.00103484 1e-05 0.0262718 0.00103337 1e-05
0.0264181 0.00103187 1e-05 0.0265644 0.00103033 1e-05 0.0267107 0.0010288 1e-05 0.026857
0.0010273 1e-05 0.0270044 0.00102583 1e-05 0.0271519 0.00102432 1e-05 0.0272993 0.00102279
1e-05 0.0274468 0.00102126 1e-05 0.0275942 0.00101976 1e-05 0.0277428 0.00101829 1e-05
0.0278914 0.00101679 1e-05 0.0280399 0.00101527 1e-05 0.0281885 0.00101375 1e-05 0.0283371
0.00101226 1e-05 0.0284869 0.0010108 1e-05 0.0286366 0.00100931 1e-05 0.0287863 0.0010078
1e-05 0.0289361 0.00100631 1e-05 0.0290858 0.00100483 1e-05 0.0292367 0.00100339 1e-05
0.0293876 0.00100191 1e-05 0.0295385 0.00100043 1e-05 0.0296894 0.000998958 1e-05 0.0298403
0.0009975 1e-05 0.0299924 0.000996075 1e-05 0.0301445 0.000994616 1e-05 0.0302966 0.000993164
1e-05 0.0304486 0.00099172 1e-05 0.0306007 0.000990285 1e-05 0.030754 0.000988882 1e-05
0.0309072 0.000987448 1e-05 0.0310605 0.000986024 1e-05 0.0312138 0.000984609 1e-05 0.031367
0.000983203 1e-05 0.0315215 0.000981822 1e-05 0.0316759 0.000980418 1e-05 0.0318304 0.000979022
1e-05 0.0319848 0.000977635 1e-05 0.0321393 0.000976256 1e-05 0.0322949 0.000974897 1e-05
0.0324506 0.00097352 1e-05 0.0326062 0.00097215 1e-05 0.0327619 0.000970788 1e-05 0.0329175
[...]
POINT_DATA 12025
FIELD attributes 4
age 1 12025 float
-9.9998e-06 -7.99981e-06 -5.99984e-06 -3.99988e-06 -1.99993e-06 0 2.96557e-05 5.92983e-05 8.89271e-05 0.000118542 0.000148144
0.000178444 0.000208732 0.000238998 0.00026924 0.000299459 0.000328433 0.000357401 0.00038635 0.000415281 0.000444193
0.000459924 0.000475653 0.000491376 0.000507094 0.000521297 0.000533583 0.000545866 0.000558146 0.000570422 0.000582695
0.000609246 0.000635783 0.000662306 0.000688814 0.000715308 0.000740726 0.000766136 0.000791534 0.00081692 0.000842294
0.000866636 0.000890977 0.00091531 0.000939634 0.000963949 0.000987277 0.00101061 0.00103394 0.00105726 0.00108057
0.00110294 0.00112532 0.0011477 0.00117007 0.00119244 0.0012139 0.00123537 0.00125685 0.00127832 0.00129979
0.00132039 0.001341 0.00136161 0.00138222 0.00140283 0.00142261 0.0014424 0.00146219 0.00148198 0.00150177
0.00152077 0.00153976 0.00155876 0.00157777 0.00159677 0.00161502 0.00163327 0.00165151 0.00166976 0.00168802
0.00170555 0.00172307 0.00174059 0.00175812 0.00177565 0.00179249 0.00180932 0.00182615 0.00184298 0.00185982
0.00187599 0.00189216 0.00190832 0.00192448 0.00194066 0.00195619 0.00197172 0.00198724 0.00200277 0.00201831
0.00202869 0.00203906 0.00204943 0.00205981 0.00207018 0.00208065 0.00209111 0.00210157 0.00211204 0.0021225
0.00213306 0.00214361 0.00215416 0.00216471 0.00217526 0.00218591 0.00219655 0.00220718 0.00221782 0.00222847
0.00223921 0.00224993 0.00226066 0.00227139 0.00228212 0.00229295 0.00230377 0.00231459 0.00232541 0.00233624
0.00234716 0.00235808 0.00236899 0.00237991 0.00239083 0.00240185 0.00241286 0.00242387 0.00243488 0.00244589
0.00245701 0.00246812 0.00247923 0.00249034 0.00250146 0.00251268 0.00252388 0.00253509 0.00254631 0.00255753
0.00256885 0.00258016 0.00259148 0.0026028 0.00261412 0.00262555 0.00263697 0.0026484 0.00265983 0.00267126
0.0026828 0.00269433 0.00270587 0.00271741 0.00272896 0.00274062 0.00275227 0.00276392 0.00277558 0.00278725
0.00279902 0.00281079 0.00282257 0.00283436 0.00284615 0.00285805 0.00286994 0.00288185 0.00289376 0.00290568
0.00291447 0.00292326 0.00293206 0.00294086 0.00294954 0.00295281 0.00295608 0.00295934 0.00296261 0.00296588
0.00297804 0.00299021 0.00300239 0.00301457 0.00302677 0.00303909 0.0030514 0.00306372 0.00307606 0.0030884
0.00310088 0.00311334 0.00312582 0.00313831 0.0031508 0.00316345 0.00317608 0.00318871 0.00320136 0.00321402
0.00322684 0.00323963 0.00325243 0.00326525 0.00327808 0.00329108 0.00330405 0.00331702 0.00333001 0.00334302
0.00335621 0.00336936 0.00338252 0.00339569 0.00340888 0.00342227 0.0034356 0.00344895 0.00346232 0.0034757
0.00348929 0.00350281 0.00351636 0.00352993 0.00354351 0.0035573 0.00357103 0.00358479 0.00359856 0.00361235
0.00362635 0.0036403 0.00365427 0.00366825 0.00368227 0.00369649 0.00371066 0.00372485 0.00373905 0.0037533
0.00376774 0.00378214 0.00379656 0.00381099 0.00382547 0.00384013 0.00385478 0.00386942 0.00388409 0.0038988
0.0039137 0.00392859 0.00394347 0.00395838 0.00397334 0.00398848 0.00400361 0.00401874 0.00403389 0.0040491
0.00406448 0.00407986 0.00409524 0.00411065 0.0041261 0.00414173 0.00415736 0.004173 0.00418867 0.00420438
0.00422026 0.00423616 0.00425206 0.00426799 0.00428396 0.0043001 0.00431625 0.00433242 0.00434862 0.00436486
0.00438126 0.00439768 0.00441412 0.00443059 0.00444709 0.00446376 0.00448045 0.00449716 0.0045139 0.00453068
0.00454761 0.00456457 0.00458156 0.00459858 0.00461562 0.00463283 0.00465007 0.00466734 0.00468463 0.00470195
0.00471943 0.00473695 0.0047545 0.00477207 0.00478967 0.00480742 0.00482522 0.00484305 0.0048609 0.00487878
0.00489681 0.00491488 0.00493299 0.00495113 0.00496928 0.00498759 0.00500595 0.00502434 0.00504275 0.00506118
0.00507978 0.00509841 0.00511708 0.00513577 0.00515449 0.00517336 0.00519228 0.00521122 0.00523019 0.00524918
0.00526833 0.00528753 0.00530675 0.00532599 0.00534526 0.00536469 0.00538416 0.00540365 0.00542317 0.00544271
0.00546241 0.00548215 0.00550192 0.0055217 0.00554151 0.00556149 0.0055815 0.00560153 0.00562158 0.00564166
0.0056619 0.00568218 0.00570247 0.00572279 0.00574313 0.00576363 0.00578417 0.00580473 0.0058253 0.0058459
0.00586667 0.00588746 0.00590828 0.00592911 0.00594996 0.00597099 0.00599203 0.0060131 0.00603418 0.00605528
0.00605909 0.00606289 0.0060667 0.0060705 0.0060743 0.00609179 0.00610929 0.00612681 0.00614434 0.00616187
0.0061834 0.00620495 0.00622652 0.0062481 0.00626969 0.00629147 0.00631326 0.00633507 0.00635689 0.00637873
0.00640075 0.00642279 0.00644484 0.0064669 0.00648899 0.00651124 0.00653352 0.00655581 0.00657812 0.00660044
0.00662294 0.00664546 0.00666799 0.00669054 0.0067131 0.00673583 0.00675859 0.00678137 0.00680416 0.00682696
0.00684993 0.00687293 0.00689595 0.00691898 0.00694202 0.00696523 0.00698847 0.00701173 0.007035 0.00705829
0.00708174 0.00710522 0.00712873 0.00715225 0.00717577 0.00719947 0.0072232 0.00724695 0.00727072 0.00729449
0.00731844 0.00734242 0.00736642 0.00739044 0.00741447 0.00743867 0.0074629 0.00748716 0.00751144 0.00753572
0.00756018 0.00758467 0.0076092 0.00763373 0.00765827 0.007683 0.00770776 0.00773254 0.00775735 0.00778215
0.00780715 0.00783217 0.00785723 0.00788231 0.00790738 0.00793265 0.00795796 0.00798329 0.00800865 0.008034
0.00805955 0.00808514 0.00811076 0.0081364 0.00816204 0.00818788 0.00821375 0.00823966 0.00826559 0.00829152
0.00831765 0.00834383 0.00837003 0.00839624 0.00842247 0.00844891 0.00847538 0.00850188 0.0085284 0.00855493
0.00858168 0.00860846 0.00863526 0.00866209 0.00868893 0.00871599 0.00874308 0.0087702 0.00879734 0.00882449
0.00885187 0.00887928 0.00890672 0.00893417 0.00896164 0.00898935 0.00901708 0.00904484 0.00907262 0.00910042
0.00912845 0.00915651 0.0091846 0.0092127 0.00924083 0.00925054 0.00926025 0.00926997 0.00927968 0.00928926
0.00930798 0.00932671 0.00934545 0.0093642 0.00938296 0.00941167 0.0094404 0.00946916 0.00949795 0.00952676
0.00955581 0.00958489 0.009614 0.00964313 0.00967229 0.00970169 0.00973113 0.00976059 0.00979007 0.00981959
0.00984934 0.00987913 0.00990895 0.00993879 0.00996866 0.00999877 0.0100289 0.0100591 0.0100893 0.0101195
0.01015 0.0101805 0.0102111 0.0102416 0.0102722 0.0103031 0.010334 0.0103649 0.0103958 0.0104268
0.010458 0.0104893 0.0105206 0.0105519 0.0105832 0.0106148 0.0106464 0.0106781 0.0107098 0.0107415
0.0107735 0.0108055 0.0108376 0.0108697 0.0109018 0.0109341 0.0109665 0.010999 0.0110315 0.011064
0.0110967 0.0111295 0.0111624 0.0111952 0.0112281 0.0112613 0.0112945 0.0113277 0.011361 0.0113943
0.0114279 0.0114615 0.0114952 0.0115288 0.0115626 0.0115965 0.0116306 0.0116646 0.0116987 0.0117329
0.0117568 0.0117807 0.0118047 0.0118286 0.0118513 0.0118621 0.0118729 0.0118837 0.0118945 0.0119053
0.0119402 0.0119751 0.01201 0.012045 0.01208 0.0121153 0.0121506 0.012186 0.0122215 0.0122569
0.0122927 0.0123285 0.0123644 0.0124003 0.0124362 0.0124724 0.0125087 0.0125451 0.0125814 0.0126179
0.0126546 0.0126914 0.0127282 0.0127651 0.012802 0.0128392 0.0128765 0.0129138 0.0129512 0.0129886
0.0130264 0.0130642 0.013102 0.01314 0.0131779 0.0132162 0.0132545 0.0132929 0.0133313 0.0133698
0.0134086 0.0134475 0.0134865 0.0135254 0.0135645 0.0136039 0.0136433 0.0136828 0.0137224 0.013762
0.0137655 0.013769 0.0137725 0.013776 0.0137795 0.013816 0.0138525 0.0138891 0.0139257 0.0139624
0.014003 0.0140436 0.0140842 0.0141249 0.0141657 0.0142069 0.0142481 0.0142894 0.0143307 0.0143721
0.0144139 0.0144557 0.0144976 0.0145396 0.0145816 0.0146241 0.0146665 0.0147091 0.0147517 0.0147944
0.0148375 0.0148806 0.0149238 0.0149671 0.0150105 0.0150543 0.0150981 0.015142 0.015186 0.01523
0.0152745 0.015319 0.0153637 0.0154083 0.0154531 0.0154602 0.0154673 0.0154744 0.0154816 0.0154886
0.0155268 0.015565 0.0156032 0.0156415 0.0156799 0.0157258 0.0157718 0.0158179 0.0158641 0.0159103
0.015957 0.0160038 0.0160506 0.0160976 0.0161446 0.0161921 0.0162396 0.0162873 0.016335 0.0163828
0.0164311 0.0164795 0.0165279 0.0165765 0.0166251 0.0166742 0.0167234 0.0167727 0.0168221 0.0168716
0.0169216 0.0169717 0.0170219 0.0170722 0.0171226 0.0171287 0.0171349 0.0171411 0.0171472 0.0171534
0.0171982 0.017243 0.017288 0.017333 0.0173781 0.01743 0.0174819 0.0175339 0.0175861 0.0176383
0.0176911 0.017744 0.017797 0.0178501 0.0179034 0.0179572 0.0180112 0.0180652 0.0181193 0.0181736
0.0182285 0.0182835 0.0183386 0.0183939 0.0184493 0.0185052 0.0185613 0.0186176 0.018674 0.0187305
0.0187571 0.0187838 0.0188104 0.0188371 0.0188634 0.0188942 0.0189251 0.018956 0.0189869 0.0190178
0.0190762 0.0191347 0.0191933 0.0192521 0.0193111 0.0193707 0.0194305 0.0194904 0.0195504 0.0196107
0.0196717 0.0197327 0.019794 0.0198554 0.019917 0.0199794 0.0200419 0.0201045 0.0201673 0.0202304
0.0202942 0.0203581 0.0204223 0.0204866 0.0205512 0.0205739 0.0205966 0.0206193 0.0206421 0.0206647
0.0207075 0.0207505 0.0207935 0.0208367 0.0208799 0.0209468 0.0210138 0.0210811 0.0211486 0.0212164
0.0212849 0.0213536 0.0214226 0.0214918 0.0215612 0.0216315 0.021702 0.0217727 0.0218436 0.0219149
0.021987 0.0220593 0.0221318 0.0222047 0.0222778 0.0223393 0.0224009 0.0224628 0.0225248 0.0225854
0.0225984 0.0226114 0.0226245 0.0226375 0.0226506 0.0227265 0.0228028 0.0228793 0.0229561 0.0230332
0.0231112 0.0231895 0.0232681 0.0233471 0.0234263 0.0235065 0.023587 0.0236678 0.0237489 0.0238304
0.0239129 0.0239956 0.0240787 0.0241622 0.024246 0.0243264 0.0244071 0.0244881 0.0245695 0.0246486
0.0246537 0.0246587 0.0246637 0.0246688 0.0246738 0.0247611 0.0248488 0.0249368 0.0250252 0.025114
0.0252039 0.0252942 0.0253848 0.0254759 0.0255673 0.0256599 0.0257529 0.0258463 0.02594 0.0260343
0.0261297 0.0262255 0.0263218 0.0264184 0.0265156 0.0265863 0.0266573 0.0267285 0.0268 0.0268699
0.0268983 0.0269268 0.0269553 0.0269839 0.0270124 0.0271139 0.0272158 0.0273181 0.027421 0.0275244
0.027629 0.0277341 0.0278397 0.0279459 0.0280525 0.0281605 0.028269 0.028378 0.0284876 0.0285977
0.0287091 0.0288212 0.0289337 0.0290469 0.0291606 0.0291791 0.0291976 0.0292162 0.0292348 0.0292532
0.0293503 0.0294477 0.0295455 0.0296438 0.0297424 0.0298613 0.0299808 0.0301009 0.0302216 0.0303429
0.0304657 0.0305891 0.0307132 0.0308379 0.0309632 0.0310901 0.0312176 0.0313458 0.0314745 0.0316041
0.0316417 0.0316794 0.0317171 0.0317549 0.0317923 0.0318866 0.0319811 0.032076 0.0321712 0.0322668
0.0324021 0.0325382 0.0326749 0.0328123 0.0329504 0.0330901 0.0332305 0.0333718 0.0335136 0.0336562
0.0338003 0.0339453 0.034091 0.0342373 0.0343844 0.0344034 0.0344223 0.0344413 0.0344602 0.0344791
0.0346095 0.0347403 0.0348717 0.0350036 0.0351361 0.0352895 0.0354436 0.0355985 0.0357541 0.0359104
0.0360684 0.0362271 0.0363867 0.036547 0.036708 0.0368264 0.0369452 0.0370644 0.037184 0.037302
0.0373475 0.037393 0.0374386 0.0374843 0.03753 0.0376976 0.037866 0.0380351 0.038205 0.0383756
0.038548 0.0387213 0.0388954 0.0390702 0.0392457 0.0394231 0.0396013 0.0397803 0.0399599 0.0401403
0.0401489 0.0401576 0.0401662 0.0401748 0.0401834 0.0403574 0.0405321 0.0407074 0.0408833 0.0410599
0.0412472 0.0414353 0.0416242 0.0418138 0.0420039 0.0421961 0.0423891 0.0425828 0.0427771 0.0429721
0.0430125 0.043053 0.0430935 0.043134 0.0431746 0.0433318 0.0434894 0.0436474 0.0438058 0.0439646
0.0441663 0.0443687 0.0445718 0.0447755 0.0449796 0.0451857 0.0453926 0.0456 0.045808 0.0460164
0.0460756 0.0461348 0.0461941 0.0462535 0.0463133 0.046465 0.0466169 0.0467691 0.0469216 0.0470742
0.0472885 0.0475034 0.0477188 0.0479345 0.0481503 0.048368 0.0485861 0.0488046 0.0490235 0.0492424
0.0493319 0.0494216 0.0495112 0.0496009 0.0496929 0.049824 0.0499552 0.0500865 0.0502178 0.050349
0.0505633 0.050778 0.050993 0.0512082 0.0514229 0.0515969 0.0517708 0.0519446 0.0521184 0.0523016
0.0523486 0.0523955 0.0524425 0.0524894 0.0525363 0.052767 0.0529976 0.0532281 0.0534583 0.0536877
0.0539019 0.0541158 0.0543295 0.0545428 0.0547759 0.0547954 0.0548149 0.0548344 0.0548539 0.0548734
0.0551181 0.0553621 0.0556055 0.0558481 0.0560893 0.0563391 0.0565882 0.0568363 0.0570833 0.0573286
0.0573423 0.057356 0.0573697 0.0573834 0.0573972 0.0576371 0.0578759 0.0581135 0.0583499 0.0585845
0.0588409 0.0590959 0.0593493 0.059601 0.0598505 0.0599297 0.0600087 0.0600875 0.0601661 0.0602499
0.0604252 0.0605995 0.0607729 0.0609454 0.0611168 0.0613741 0.0616292 0.0618823 0.0621332 0.0623815
0.0625903 0.0627976 0.0630034 0.0632075 0.0634554 0.0634913 0.0635273 0.0635632 0.063599 0.0636348
0.063888 0.0641386 0.0643867 0.0646323 0.0648752 0.0651249 0.065372 0.0656165 0.0658582 0.0660974
0.0663141 0.0665286 0.066741 0.0669513 0.0672196 0.0672352 0.0672508 0.0672664 0.0672819 0.0672975
0.0675386 0.0677769 0.0680123 0.068245 0.0684752 0.0687114 0.0689448 0.0691754 0.0694032 0.0696284
0.0698596 0.0700879 0.0703134 0.0705362 0.0707565 0.0709825 0.0712057 0.0714261 0.0716438 0.071859
0.0718851 0.0719111 0.0719371 0.0719631 0.0719901 0.0721831 0.0723741 0.0725629 0.0727497 0.0729345
0.0731503 0.0733633 0.0735737 0.0737814 0.0739867 0.0741973 0.0744051 0.0746101 0.0748127 0.0750131
0.075219 0.0754224 0.0756233 0.0758216 0.0760172 0.0762175 0.0764147 0.0766093 0.0768018 0.0769925
0.077189 0.0773837 0.0775752 0.0777634 0.0779485 0.0780722 0.0781944 0.0783159 0.0784367 0.0785081
0.0785804 0.0786522 0.0787237 0.0787948 0.0788655 -9.9999e-06 -7.99991e-06 -5.99992e-06 -3.99994e-06 -1.99997e-06
0 2.96562e-05 5.9311e-05 8.89633e-05 0.000118613 0.000148259 0.000178634 0.000209005 0.00023937 0.00026973
0.000300082 0.000329213 0.000358336 0.000387451 0.00041656 0.000445661 0.000473592 0.000501516 0.000529434 0.000557345
0.00058525 0.000612034 0.000638812 0.000665584 0.00069235 0.00071911 0.000744796 0.000770475 0.00079615 0.000821819
0.000847483 0.000872116 0.000896745 0.000921368 0.000945987 0.000970602 0.000994228 0.00101785 0.00104147 0.00106508
0.00108869 0.00111135 0.00113401 0.00115667 0.00117932 0.00120197 0.00122371 0.00124545 0.00126718 0.00128891
0.00131064 0.0013315 0.00135235 0.0013732 0.00139405 0.0014149 0.00143491 0.00145491 0.00147492 0.00149492
0.00151492 0.00153412 0.00155332 0.00157251 0.0015917 0.00161089 0.00162931 0.00164773 0.00166615 0.00168456
0.00170298 0.00172065 0.00173833 0.001756 0.00177367 0.00179133 0.0018083 0.00182525 0.00184221 0.00185917
0.00187612 0.0018924 0.00190867 0.00192494 0.00194121 0.00195748 0.0019731 0.00198872 0.00200433 0.00201995
0.00203556 0.00204599 0.00205641 0.00206683 0.00207726 0.00208768 0.00209818 0.00210868 0.00211919 0.00212969
0.00214019 0.00215077 0.00216135 0.00217193 0.00218251 0.00219309 0.00220376 0.00221442 0.00222508 0.00223574
0.0022464 0.00225715 0.00226789 0.00227863 0.00228938 0.00230012 0.00231094 0.00232177 0.00233259 0.00234342
0.00235424 0.00236515 0.00237606 0.00238697 0.00239787 0.00240878 0.00241977 0.00243076 0.00244175 0.00245274
0.00246373 0.00247481 0.00248589 0.00249696 0.00250804 0.00251911 0.00253027 0.00254143 0.00255259 0.00256375
0.00257492 0.00258616 0.00259741 0.00260866 0.0026199 0.00263115 0.00264248 0.00265382 0.00266515 0.00267648
0.00268782 0.00269924 0.00271066 0.00272208 0.0027335 0.00274492 0.00275643 0.00276794 0.00277945 0.00279096
0.00280247 0.00281407 0.00282567 0.00283726 0.00284886 0.00286046 0.00287215 0.00288384 0.00289553 0.00290721
0.0029189 0.00293068 0.00294246 0.00295424 0.00296602 0.0029778 0.00298967 0.00300154 0.00301341 0.00302528
0.00303715 0.00304911 0.00306107 0.00307303 0.00308499 0.00309695 0.00310901 0.00312106 0.00313312 0.00314517
0.00315722 0.00316937 0.00318152 0.00319366 0.00320581 0.00321796 0.0032302 0.00324244 0.00325468 0.00326692
0.00327916 0.00329149 0.00330382 0.00331616 0.00332849 0.00334083 0.00335326 0.00336569 0.00337811 0.00339054
0.00340297 0.0034155 0.00342802 0.00344055 0.00345307 0.0034656 0.00347822 0.00349084 0.00350346 0.00351608
0.0035287 0.00354142 0.00355414 0.00356686 0.00357958 0.00359229 0.00360511 0.00361793 0.00363074 0.00364356
0.00365638 0.00366773 0.00367909 0.00369044 0.0037018 0.0037131 0.00371467 0.00371624 0.00371781 0.00371938
0.00372096 0.00373397 0.00374699 0.00376 0.00377302 0.00378604 0.00379915 0.00381227 0.00382539 0.0038385
0.00385162 0.00386484 0.00387806 0.00389128 0.0039045 0.00391772 0.00393104 0.00394436 0.00395769 0.00397101
0.00398433 0.00399776 0.00401118 0.00402461 0.00403804 0.00405146 0.00406499 0.00407852 0.00409206 0.00410559
0.00411912 0.00413276 0.00414639 0.00416003 0.00417367 0.0041873 0.00420105 0.00421479 0.00422853 0.00424228
0.00425602 0.00426987 0.00428372 0.00429758 0.00431143 0.00432528 0.00433924 0.0043532 0.00436715 0.00438111
0.00439507 0.00440914 0.00442321 0.00443728 0.00445134 0.00446541 0.00447959 0.00449377 0.00450794 0.00452212
0.00453629 0.00455058 0.00456487 0.00457915 0.00459344 0.00460773 0.00462212 0.00463652 0.00465092 0.00466531
0.00467971 0.00469422 0.00470873 0.00472323 0.00473774 0.00475225 0.00476686 0.00478148 0.0047961 0.00481072
0.00482534 0.00484007 0.0048548 0.00486952 0.00488425 0.00489898 0.00491382 0.00492867 0.00494351 0.00495835
0.00497319 0.00498814 0.00500309 0.00501805 0.005033 0.00504795 0.00506302 0.00507808 0.00509315 0.00510821
0.00512327 0.00513845 0.00515363 0.00516881 0.00518399 0.00519916 0.00521446 0.00522975 0.00524504 0.00526033
0.00527562 0.00529103 0.00530643 0.00532184 0.00533724 0.00535264 0.00536816 0.00538368 0.0053992 0.00541472
0.00543024 0.00544588 0.00546151 0.00547714 0.00549278 0.00550841 0.00552416 0.00553992 0.00555567 0.00557141
0.00558716 0.00560303 0.0056189 0.00563477 0.00565064 0.0056665 0.00568249 0.00569848 0.00571447 0.00573045
0.00574644 0.00576255 0.00577865 0.00579476 0.00581086 0.00582697 0.0058432 0.00585943 0.00587566 0.00589188
0.00590811 0.00592446 0.00594081 0.00595717 0.00597352 0.00598987 0.00599017 0.00599047 0.00599077 0.00599108
0.00599138 0.00600755 0.00602373 0.0060399 0.00605608 0.00607225 0.00608886 0.00610546 0.00612206 0.00613867
0.00615527 0.00617201 0.00618874 0.00620547 0.00622221 0.00623894 0.00625581 0.00627268 0.00628954 0.00630641
0.00632327 0.00634028 0.00635728 0.00637428 0.00639128 0.00640827 0.00642543 0.00644256 0.00645969 0.00647683
0.00649397 0.00651126 0.00652854 0.00654581 0.00656308 0.00658036 0.00659781 0.00661523 0.00663264 0.00665006
0.00666749 0.00668508 0.00670265 0.00672021 0.00673777 0.00675535 0.0067731 0.00679082 0.00680852 0.00682623
0.00684396 0.00686187 0.00687975 0.0068976 0.00691546 0.00693335 0.00695142 0.00696946 0.00698747 0.00700548
0.00702354 0.00704177 0.00705997 0.00707815 0.00709632 0.00711454 0.00713294 0.00715131 0.00716965 0.007188
0.00720638 0.00722495 0.00724349 0.007262 0.00728052 0.00729908 0.00731783 0.00733654 0.00735522 0.00737392
0.00739265 0.00741158 0.00743047 0.00744934 0.00746822 0.00748714 0.00750625 0.00752532 0.00754438 0.00756345
0.00758255 0.00760185 0.00762111 0.00764036 0.00765963 0.00767891 0.0076984 0.00771785 0.00773731 0.00775677
0.00777625 0.00779593 0.00781558 0.00783524 0.00785492 0.0078746 0.00789448 0.00791434 0.00793421 0.00795409
0.00797398 0.00799406 0.00801413 0.00803422 0.00805431 0.00807442 0.00809284 0.00811127 0.0081297 0.00814814
0.00816608 0.00816805 0.00817002 0.008172 0.00817397 0.00817594 0.00819644 0.00821695 0.00823748 0.00825802
0.00827857 0.00829931 0.00832005 0.0083408 0.00836157 0.00838235 0.00840333 0.00842431 0.00844529 0.00846629
0.00848731 0.00850854 0.00852975 0.00855097 0.00857221 0.00859347 0.00861495 0.00863641 0.00865788 0.00867936
0.00870087 0.00872261 0.00874433 0.00876604 0.00878777 0.00880954 0.00883154 0.00885352 0.00887549 0.00889747
0.00891951 0.00894177 0.00896402 0.00898624 0.00900849 0.00903079 0.00905333 0.00907585 0.00909835 0.00912086
0.00914344 0.00916626 0.00918905 0.00921183 0.00923462 0.00925748 0.00928057 0.00930365 0.00932671 0.00934979
0.00937293 0.00939631 0.00941967 0.00944303 0.00946642 0.00948985 0.00951352 0.00953717 0.00956084 0.00958453
0.00960825 0.00963222 0.00965618 0.00968015 0.00970415 0.00972818 0.00975245 0.00977672 0.00980102 0.00982533
0.00984968 0.00987426 0.00989885 0.00992347 0.00994811 0.00997279 0.00997812 0.00998345 0.00998878 0.00999411
0.00999938 0.010019 0.0100386 0.0100582 0.0100779 0.0100976 0.0101228 0.010148 0.0101733 0.0101986