/*--------------------------------*- C++ -*----------------------------------*\
  =========                 |
  \\      /  F ield         | OpenFOAM: The Open Source CFD Toolbox
   \\    /   O peration     | Website:  https://openfoam.org
    \\  /    A nd           | Version:  13
     \\/     M anipulation  |
\*---------------------------------------------------------------------------*/
FoamFile
{
    format      ascii;
    class       volScalarField;
    location    "1.5";
    object      epsilon;
}
// * * * * * * * * * * * * * * * * * * * * * * * * * * * * * * * * * * * * * //

dimensions      [0 2 -3 0 0 0 0];

internalField   nonuniform List<scalar> 
1600
(
2.05897e-05
9.00784e-05
0.000169398
0.000234838
0.000286961
0.000328853
0.00036271
0.000390238
0.000413064
0.00043286
0.000451331
0.000470185
0.000491157
0.000516091
0.000547109
0.000586792
0.000638303
0.000705356
0.000791933
0.0009014
0.00103536
0.00119238
0.0013678
0.00155621
0.00175716
0.00198768
0.00221561
0.00238394
0.00246481
0.00248634
0.00237604
0.00215311
0.00184725
0.00148295
0.0011097
0.000772189
0.000491091
0.000279965
0.000122746
2.68318e-05
9.56921e-05
9.37371e-05
0.000136942
0.000180233
0.00021756
0.000248755
0.000275043
0.000298013
0.000319354
0.000340774
0.000363929
0.000390347
0.000421343
0.000457943
0.000500873
0.000550635
0.000607673
0.000672601
0.00074619
0.000829571
0.000923928
0.0010296
0.0011464
0.00127559
0.0014178
0.00156963
0.00171643
0.00182368
0.00187033
0.0018767
0.00178647
0.0015962
0.00133498
0.00103827
0.000752073
0.00051428
0.000336967
0.000210241
0.000118963
0.000114177
0.000209008
0.000143952
0.000171793
0.000209511
0.00024498
0.000275823
0.000302387
0.000325972
0.000348191
0.000370648
0.000394745
0.000421532
0.000451651
0.000485463
0.000523429
0.000566691
0.000616721
0.000676479
0.000750381
0.000842977
0.000958178
0.0011006
0.00127449
0.00148231
0.00172093
0.00197651
0.00222958
0.00245115
0.00258583
0.00263332
0.00258479
0.00235706
0.00198693
0.00153182
0.00107088
0.000687424
0.00042379
0.000261136
0.000165645
0.000217301
0.000329652
0.000199645
0.000214459
0.000247872
0.000282078
0.000313283
0.00034116
0.000366609
0.000390974
0.000415589
0.00044149
0.000469272
0.000499198
0.000531606
0.000567618
0.000609885
0.000663888
0.000736587
0.000835698
0.000970471
0.00115093
0.00138443
0.00167157
0.00200606
0.00237337
0.00275696
0.00313506
0.0034663
0.00370156
0.0038094
0.00382365
0.00361794
0.00315705
0.00249081
0.00175256
0.00107877
0.000605352
0.000348304
0.000223295
0.000293217
0.000446202
0.000252102
0.000254557
0.000284059
0.000317021
0.00034855
0.000377853
0.000405483
0.00043249
0.000459937
0.000488618
0.000519029
0.00055171
0.00058796
0.000630777
0.000685684
0.000761055
0.000868057
0.00101995
0.00122929
0.0015044
0.0018448
0.00223776
0.00265562
0.00306262
0.00342535
0.00372514
0.0039755
0.00419144
0.00435565
0.00443609
0.00445639
0.00428608
0.00379652
0.00285022
0.00180258
0.000922014
0.000463481
0.000276911
0.000336119
0.000553908
0.000299411
0.000291218
0.00031694
0.000348652
0.000380368
0.000410956
0.000440726
0.000470506
0.000501191
0.000533542
0.000568313
0.00060681
0.000651808
0.000708601
0.00078581
0.000895626
0.00105311
0.00127368
0.00156754
0.0019313
0.00233966
0.00274574
0.00309747
0.00336567
0.00356441
0.00372301
0.00387227
0.00402407
0.00419405
0.00438039
0.00453661
0.00460444
0.00453135
0.00411809
0.00295847
0.00152944
0.00063268
0.000323455
0.000335091
0.000650455
0.000341643
0.000323997
0.000346229
0.000376775
0.000408608
0.000440336
0.000472127
0.000504706
0.000538953
0.000575815
0.000616603
0.000663711
0.000721672
0.000798244
0.000905147
0.00105785
0.00127325
0.00156338
0.00192402
0.00232208
0.00269434
0.00297251
0.00313202
0.00322764
0.00328501
0.00334925
0.00344935
0.003588
0.00375961
0.00396033
0.0041908
0.00445449
0.0046238
0.00467181
0.0042553
0.00267394
0.00096228
0.000366753
0.000294737
0.000734968
0.000378999
0.000352759
0.000371831
0.000401332
0.00043327
0.000466036
0.000499742
0.000535126
0.000573204
0.000615302
0.000663487
0.000721412
0.000795427
0.000895613
0.00103618
0.00123403
0.00150332
0.00184372
0.00222486
0.00258131
0.00282556
0.00293375
0.00297383
0.00298038
0.00301941
0.00311754
0.0032563
0.00342925
0.00362859
0.00384931
0.00407545
0.00431767
0.00457559
0.00477387
0.00483201
0.00424949
0.00176648
0.000453131
0.000221729
0.000807369
0.000411658
0.000377568
0.000393756
0.000422314
0.000454363
0.000488095
0.000523621
0.000561786
0.000603861
0.000651673
0.000708138
0.000778164
0.000869734
0.000994716
0.0011685
0.00140657
0.00171525
0.00207639
0.00243662
0.00268618
0.00277958
0.00279426
0.00277508
0.00278613
0.00286909
0.00300291
0.00317302
0.00337583
0.00360717
0.00385363
0.00410424
0.00435103
0.00459296
0.00484636
0.00498815
0.00500646
0.00370431
0.000861788
0.000203459
0.000867905
0.000439852
0.000398602
0.000412103
0.000439775
0.000471922
0.000506544
0.000543779
0.000584634
0.0006307
0.000684349
0.000749317
0.0008316
0.000940398
0.0010885
0.00129082
0.00155866
0.00188748
0.00224195
0.00253772
0.00265653
0.00267397
0.00262891
0.00261566
0.00265675
0.00277219
0.00292598
0.00311678
0.00334609
0.00361482
0.0039211
0.00426536
0.00457737
0.00484251
0.00504285
0.00520287
0.005277
0.00500965
0.00204532
0.000406907
0.000917024
0.000463892
0.000416104
0.000427051
0.000453837
0.000486031
0.000521435
0.000560221
0.00060357
0.000653402
0.000712597
0.00078558
0.000879135
0.00100311
0.00117022
0.00139341
0.0016782
0.00200924
0.00233769
0.00253144
0.00258157
0.00253856
0.00249192
0.00248762
0.00255476
0.00267952
0.00283487
0.00302858
0.0032699
0.0035682
0.00392589
0.00433332
0.00479176
0.00518891
0.00546781
0.00558928
0.00562383
0.0054483
0.00406105
0.00116886
0.000955448
0.000484102
0.000430359
0.000438843
0.000464692
0.000496832
0.000532861
0.000572969
0.000618492
0.000671636
0.000735688
0.000815554
0.000918433
0.00105421
0.00123469
0.00146983
0.00175904
0.0020781
0.00236337
0.00248335
0.00248232
0.00240956
0.00237179
0.00237464
0.0024507
0.00256593
0.00270616
0.00288546
0.00312196
0.00343523
0.00383883
0.00433056
0.00488288
0.00546468
0.00592218
0.00614251
0.0062183
0.00618245
0.00555001
0.00281993
0.000984029
0.000500824
0.000441685
0.000447768
0.000472591
0.000504526
0.00054097
0.000582096
0.000629353
0.000685153
0.000753047
0.000838179
0.000947789
0.00109129
0.00127894
0.00151749
0.00180126
0.00210069
0.00233598
0.00240598
0.00237872
0.00229339
0.00225996
0.00226582
0.0023353
0.00243068
0.002546
0.00269997
0.00291821
0.00322959
0.00365973
0.00422136
0.00489987
0.00565239
0.00632904
0.00667165
0.00676641
0.00666112
0.00621466
0.00454981
0.00100368
0.000514407
0.000450415
0.00045415
0.000477829
0.000509371
0.000545965
0.000587739
0.000636192
0.000693842
0.000764346
0.000852846
0.000966281
0.00111317
0.00130189
0.00153558
0.00180549
0.00208657
0.00228128
0.00232445
0.0022779
0.00218806
0.00215415
0.00215738
0.00221252
0.00228485
0.00237244
0.00249688
0.00268939
0.00298684
0.00342621
0.00403636
0.00482285
0.00574388
0.00670288
0.00729858
0.00747022
0.0073243
0.00698646
0.0059838
0.00101537
0.00052519
0.000456885
0.000458327
0.000480726
0.000511643
0.000548043
0.000590022
0.000639054
0.000697654
0.000769408
0.000859206
0.000973343
0.00111914
0.00130329
0.00152918
0.00178806
0.00204732
0.00220847
0.00224012
0.00218524
0.00209167
0.00205245
0.0020503
0.002089
0.00214038
0.00220301
0.0022992
0.00246383
0.00274014
0.00317527
0.00381357
0.0046838
0.00577045
0.0069959
0.00794391
0.00826266
0.00807059
0.00755732
0.00722814
0.00101998
0.000533529
0.000461381
0.000460633
0.000481536
0.000511513
0.00054749
0.000589267
0.00063822
0.000696783
0.000768409
0.000857723
0.000970586
0.00111362
0.00129249
0.00150758
0.00174724
0.00198112
0.00212799
0.0021564
0.00210088
0.00200544
0.00195603
0.00194678
0.00197037
0.00200557
0.0020493
0.00212261
0.00226204
0.00251546
0.00293837
0.0035896
0.00452197
0.00575535
0.00721959
0.00858409
0.00914101
0.00892622
0.00831415
0.00841218
0.00101829
0.00053967
0.000464207
0.000461379
0.000480866
0.000510058
0.000545361
0.000586605
0.000635085
0.000693089
0.000763836
0.000851525
0.000961284
0.00109849
0.00126723
0.00146671
0.00168675
0.00190029
0.00204222
0.00207513
0.00202501
0.00193066
0.00186795
0.00184895
0.00185983
0.00188399
0.0019161
0.00197425
0.00209471
0.00232801
0.00273568
0.00338832
0.00436097
0.00570935
0.00740066
0.00919631
0.0101008
0.00997588
0.00903529
0.00953507
0.0010124
0.00054395
0.00046571
0.000460956
0.00047903
0.000506932
0.000541201
0.000581488
0.000628931
0.000685611
0.000754416
0.000839004
0.000943666
0.00107289
0.00122989
0.00141368
0.00161486
0.00181009
0.0019512
0.00199562
0.00195731
0.00186847
0.00179305
0.00175995
0.00175947
0.00177629
0.00180338
0.00185478
0.00196454
0.00218378
0.0025776
0.00322569
0.00422397
0.00566748
0.00757588
0.00974134
0.0111058
0.0111158
0.00988308
0.0106174
0.00100205
0.000546619
0.00046622
0.000459746
0.000476072
0.0005026
0.000535625
0.000574627
0.000620557
0.000675262
0.000741298
0.000821841
0.000920513
0.0010409
0.00118543
0.00135311
0.00153602
0.00171491
0.00185435
0.00191531
0.00189453
0.00181863
0.001736
0.00168675
0.00167355
0.00168349
0.00170963
0.00176154
0.00186906
0.0020816
0.00246508
0.0031051
0.00411584
0.00563125
0.00772964
0.0102491
0.0121541
0.0123654
0.0108403
0.0117083
0.000988918
0.000547883
0.000465919
0.000457686
0.00047242
0.000497481
0.000529076
0.000566536
0.000610623
0.000662938
0.000725695
0.000801596
0.000893644
0.00100471
0.00113663
0.00128847
0.00145395
0.00161804
0.00175425
0.00183028
0.00183137
0.00177773
0.00169702
0.00163559
0.00160824
0.00161131
0.00163548
0.00169158
0.00180365
0.00201579
0.00239202
0.00302196
0.00403597
0.00560471
0.00787082
0.0107274
0.0132019
0.0137069
0.0119036
0.0127703
0.000974488
0.000548225
0.000465114
0.000455172
0.000468318
0.00049185
0.000521887
0.000557621
0.000599629
0.000649271
0.00070843
0.000779371
0.000864548
0.000966238
0.00108582
0.00122252
0.00137149
0.0015214
0.00165261
0.00173987
0.00176461
0.00173541
0.00167156
0.00160663
0.00156802
0.00156402
0.00158525
0.00164388
0.00176263
0.00197722
0.0023477
0.00296562
0.00397392
0.00557851
0.00799132
0.0111691
0.0142241
0.0151167
0.0130909
0.0138625
0.000960968
0.000548002
0.000463831
0.000452359
0.000463973
0.000485956
0.00051436
0.000548252
0.000588038
0.000634848
0.000690263
0.000756153
0.000834497
0.000927082
0.00103494
0.00115743
0.00129088
0.00142695
0.00155132
0.00164499
0.00169075
0.00168444
0.001648
0.00159143
0.00154938
0.00153972
0.0015586
0.00161698
0.00173899
0.00195509
0.00231871
0.00292103
0.00391497
0.00553839
0.00806912
0.0115703
0.0152196
0.0165999
0.0143945
0.0149429
0.000946679
0.000547239
0.000462329
0.000449438
0.000459544
0.000480003
0.000506754
0.000538758
0.000576265
0.000620197
0.000671859
0.00073278
0.000804537
0.000888507
0.000985447
0.00109482
0.00121388
0.00133651
0.0014524
0.00154759
0.00160803
0.00162535
0.00161096
0.00157604
0.00154048
0.00152984
0.00154695
0.00160327
0.00172401
0.00193727
0.0022902
0.00287239
0.00384405
0.00547112
0.00809763
0.0119143
0.0161573
0.018133
0.0158317
0.0160576
0.000931807
0.000545633
0.000460581
0.000446481
0.000455168
0.000474153
0.000499288
0.000529423
0.000564672
0.000605771
0.000653787
0.000709951
0.000775503
0.000851484
0.000938425
0.00103586
0.00114171
0.00125148
0.00135778
0.00145049
0.00151886
0.0015549
0.00155955
0.00154681
0.00152521
0.0015197
0.00153654
0.00159038
0.00170627
0.00191136
0.00224889
0.00280631
0.0037479
0.00536449
0.00807637
0.0121822
0.0170275
0.0197129
0.0173966
0.0171711
0.000916999
0.000543181
0.000458569
0.000443517
0.000450944
0.000468541
0.000492144
0.00052049
0.000553573
0.000591966
0.00063653
0.000688241
0.000748056
0.000816744
0.000894644
0.000981334
0.00107519
0.00117289
0.00126909
0.00135648
0.00142704
0.00147414
0.00149599
0.0014986
0.00149375
0.00149582
0.00151423
0.00156614
0.00167536
0.00186797
0.00218569
0.00271277
0.00361468
0.00520172
0.00795985
0.0123135
0.0178045
0.0213041
0.0191186
0.018311
0.000902966
0.000540085
0.00045631
0.000440569
0.000446936
0.00046328
0.000485486
0.000512178
0.000543251
0.000579134
0.000620506
0.000668131
0.00072273
0.000784843
0.000854653
0.000931749
0.00101483
0.00110138
0.00118747
0.00126781
0.00133645
0.00138821
0.00142061
0.00143619
0.00144263
0.00145165
0.00147386
0.00152428
0.00162558
0.00180282
0.00209716
0.00258891
0.00344185
0.00498042
0.00775673
0.0123502
0.0184703
0.0228658
0.0210135
0.0194475
0.000890499
0.000536489
0.000453822
0.000437657
0.000443195
0.000458477
0.000479471
0.000504705
0.000533983
0.000567608
0.000606106
0.000650057
0.000699984
0.000756241
0.000818878
0.000887477
0.00096095
0.00103734
0.0011137
0.00118614
0.00125026
0.00130206
0.00133923
0.00136261
0.00137707
0.00139116
0.00141551
0.00146404
0.00155611
0.00171682
0.00198545
0.00243771
0.00323235
0.00470057
0.00745163
0.0122368
0.0189719
0.0243787
0.0230644
0.0205922
0.000880426
0.000532576
0.000451138
0.000434811
0.000439785
0.000454258
0.000474288
0.000498322
0.000526082
0.000557762
0.00059375
0.000634473
0.00068029
0.000731399
0.000787738
0.000848873
0.000913858
0.000981122
0.00104839
0.00111273
0.00117089
0.00121979
0.00125752
0.00128419
0.00130293
0.00132008
0.00134477
0.00138959
0.00147196
0.00161559
0.00185715
0.0022667
0.00299476
0.004371
0.00704724
0.0119395
0.0192152
0.0258029
0.0252488
0.0217191
0.000873872
0.000528633
0.000448333
0.000432098
0.000436818
0.000450822
0.000470216
0.000493388
0.000519981
0.000550089
0.000583987
0.000621971
0.000664262
0.00071093
0.000761823
0.000816482
0.000874065
0.000933261
0.000992265
0.00104883
0.00110047
0.00114487
0.00118049
0.00120724
0.00122719
0.00124516
0.00126873
0.00130892
0.00138137
0.0015079
0.00172199
0.00208705
0.00274223
0.00400721
0.00655467
0.0114691
0.019277
0.0270959
0.027546
0.0228272
0.000872833
0.000524982
0.000445509
0.000429656
0.000434534
0.000448533
0.000467748
0.000490517
0.000516392
0.000545388
0.000577704
0.000613515
0.000652924
0.000695899
0.000742214
0.000791397
0.000842688
0.00089496
0.000946733
0.000996233
0.00104154
0.0010809
0.00111311
0.00113808
0.00115732
0.00117457
0.00119611
0.00123145
0.00129442
0.00140473
0.00159227
0.00191304
0.00249244
0.00363302
0.00599729
0.0108121
0.0190131
0.0281563
0.0299095
0.023899
0.000875564
0.00052114
0.00044274
0.000427796
0.000433505
0.000448196
0.000467792
0.00049071
0.000516529
0.00054517
0.000576625
0.000610991
0.000648298
0.000688444
0.000731153
0.00077597
0.000822272
0.000868995
0.000914881
0.000958496
0.000998341
0.00103307
0.00106178
0.00108446
0.00110233
0.00111841
0.00113798
0.00116914
0.001224
0.00132012
0.00148362
0.00176268
0.00226765
0.00327543
0.00541878
0.0100045
0.0184096
0.0289135
0.0322901
0.02493
0.000886666
0.000518645
0.000440586
0.000427215
0.000434175
0.000449929
0.000470497
0.000494276
0.000520715
0.000549693
0.000581256
0.000615419
0.00065215
0.000691301
0.000732563
0.000775369
0.000818663
0.000861755
0.000903659
0.000943236
0.000979315
0.00101087
0.00103727
0.00105857
0.00107586
0.00109166
0.0011105
0.0011393
0.00118863
0.00127423
0.00142038
0.00166957
0.00211061
0.00298225
0.00487422
0.00913051
0.0175624
0.0294024
0.0345824
0.0259182
0.000913146
0.00051866
0.000440227
0.000428587
0.000437934
0.000456241
0.000479268
0.000505362
0.000533904
0.000564711
0.00059778
0.000633102
0.000670592
0.000710066
0.0007512
0.000793515
0.000836455
0.00087909
0.000920466
0.000959566
0.000995396
0.00102712
0.00105426
0.00107697
0.00109635
0.00111473
0.00113625
0.00116726
0.00121719
0.00130013
0.00143726
0.00166467
0.00206245
0.00284369
0.00453816
0.00838355
0.0165759
0.0297247
0.0366487
0.0268738
0.000959474
0.000521022
0.00044251
0.000434819
0.000449205
0.000472785
0.000501123
0.000532504
0.000566257
0.000602147
0.00064011
0.000680111
0.000722055
0.000765745
0.000810859
0.000856952
0.000903531
0.000949838
0.000995026
0.00103823
0.00107868
0.00111576
0.00114924
0.00117946
0.00120764
0.0012361
0.00126883
0.00131196
0.00137445
0.00146992
0.00161889
0.00185338
0.0022397
0.00295722
0.00448548
0.0080543
0.0159856
0.0300409
0.0382498
0.0278359
0.00102385
0.000527982
0.000452639
0.000453817
0.000478958
0.000513965
0.000554233
0.000597983
0.000644477
0.000693414
0.000744672
0.000798199
0.000853907
0.000911615
0.000971035
0.00103177
0.00109334
0.00115515
0.00121655
0.00127686
0.00133559
0.00139243
0.00144751
0.00150151
0.00155602
0.00161382
0.00167948
0.00175966
0.00186422
0.00200788
0.00221242
0.00251268
0.00296161
0.00372159
0.00519861
0.00847545
0.0158913
0.0306554
0.039239
0.0289317
0.00113531
0.000548051
0.000484939
0.0005094
0.000561453
0.000625651
0.000697337
0.000774653
0.000856706
0.00094304
0.00103345
0.00112783
0.00122611
0.00132811
0.00143363
0.00154233
0.00165387
0.00176777
0.00188371
0.00200131
0.00212062
0.0022418
0.00236592
0.00249437
0.00263
0.00277693
0.00294241
0.0031353
0.00336848
0.00366039
0.00403519
0.00454024
0.00521496
0.00624255
0.00786721
0.0111509
0.0180289
0.0324683
0.0399285
0.0296444
0.00126818
0.000605145
0.00059258
0.000696089
0.000836449
0.000998385
0.00117825
0.00137386
0.00158343
0.00180555
0.00203946
0.00228455
0.00254058
0.00280692
0.00308339
0.00336908
0.00366394
0.00396697
0.00427882
0.00459875
0.00492874
0.00526868
0.00562288
0.00599265
0.00638509
0.00680486
0.00726859
0.00778558
0.00837402
0.00905403
0.00984376
0.0108172
0.0119447
0.013514
0.0154682
0.0189899
0.024799
0.0369822
0.0410079
0.0299629
0.00154008
0.00079067
0.00105563
0.00153243
0.00208354
0.0026977
0.00337911
0.00412118
0.00491326
0.00574431
0.0066079
0.00749725
0.00840958
0.00933813
0.0102814
0.0112316
0.0121897
0.0131474
0.01411
0.0150688
0.0160351
0.0169984
0.0179779
0.0189606
0.0199748
0.0210038
0.0220972
0.0232284
0.0244407
0.0257192
0.0270833
0.0286291
0.0301667
0.0323426
0.034535
0.0382829
0.041572
0.0466072
0.0442478
0.0299844
0.00216538
0.00160217
0.00354784
0.00628164
0.00905377
0.0119117
0.0149285
0.0180701
0.0212707
0.0244598
0.0276042
0.030667
0.033645
0.0365056
0.0392585
0.0418679
0.0443592
0.0466933
0.048915
0.0509779
0.0529496
0.0547685
0.0565309
0.0581493
0.0597578
0.0612294
0.0627346
0.0640767
0.0654975
0.066753
0.0681129
0.069383
0.070669
0.0721765
0.0720581
0.0704498
0.0656563
0.05605
0.0470964
0.0281725
0.00152685
0.00268257
0.00430425
0.00586012
0.00734936
0.00872458
0.0100119
0.0112448
0.0124466
0.0136258
0.0147859
0.0159258
0.0170471
0.0181478
0.0192301
0.0202896
0.0213306
0.0223438
0.0233395
0.0243001
0.0252467
0.0261491
0.0270452
0.0278852
0.0287324
0.0295077
0.0303132
0.0310112
0.0317654
0.0323687
0.0330541
0.0335218
0.0340671
0.0343378
0.0346702
0.0348314
0.0346716
0.0339606
0.0320645
0.0260699
)
;

boundaryField
{
    movingWall
    {
        type            epsilonWallFunction;
        value           nonuniform List<scalar> 
40
(
0.00152685
0.00268257
0.00430425
0.00586012
0.00734936
0.00872458
0.0100119
0.0112448
0.0124466
0.0136258
0.0147859
0.0159258
0.0170471
0.0181478
0.0192301
0.0202896
0.0213306
0.0223438
0.0233395
0.0243001
0.0252467
0.0261491
0.0270452
0.0278852
0.0287324
0.0295077
0.0303132
0.0310112
0.0317654
0.0323687
0.0330541
0.0335218
0.0340671
0.0343378
0.0346702
0.0348314
0.0346716
0.0339606
0.0320645
0.0260699
)
;
    }
    fixedWalls
    {
        type            epsilonWallFunction;
        value           nonuniform List<scalar> 
120
(
2.05897e-05
9.56921e-05
0.000209008
0.000329652
0.000446202
0.000553908
0.000650455
0.000734968
0.000807369
0.000867905
0.000917024
0.000955448
0.000984029
0.00100368
0.00101537
0.00101998
0.00101829
0.0010124
0.00100205
0.000988918
0.000974488
0.000960968
0.000946679
0.000931807
0.000916999
0.000902966
0.000890499
0.000880426
0.000873872
0.000872833
0.000875564
0.000886666
0.000913146
0.000959474
0.00102385
0.00113531
0.00126818
0.00154008
0.00216538
0.00152685
2.68318e-05
0.000114177
0.000217301
0.000293217
0.000336119
0.000335091
0.000294737
0.000221729
0.000203459
0.000406907
0.00116886
0.00281993
0.00454981
0.0059838
0.00722814
0.00841218
0.00953507
0.0106174
0.0117083
0.0127703
0.0138625
0.0149429
0.0160576
0.0171711
0.018311
0.0194475
0.0205922
0.0217191
0.0228272
0.023899
0.02493
0.0259182
0.0268738
0.0278359
0.0289317
0.0296444
0.0299629
0.0299844
0.0281725
0.0260699
2.05897e-05
9.00784e-05
0.000169398
0.000234838
0.000286961
0.000328853
0.00036271
0.000390238
0.000413064
0.00043286
0.000451331
0.000470185
0.000491157
0.000516091
0.000547109
0.000586792
0.000638303
0.000705356
0.000791933
0.0009014
0.00103536
0.00119238
0.0013678
0.00155621
0.00175716
0.00198768
0.00221561
0.00238394
0.00246481
0.00248634
0.00237604
0.00215311
0.00184725
0.00148295
0.0011097
0.000772189
0.000491091
0.000279965
0.000122746
2.68318e-05
)
;
    }
    frontAndBack
    {
        type            empty;
    }
}


// ************************************************************************* //
