/*--------------------------------*- C++ -*----------------------------------*\
  =========                 |
  \\      /  F ield         | OpenFOAM: The Open Source CFD Toolbox
   \\    /   O peration     | Website:  https://openfoam.org
    \\  /    A nd           | Version:  13
     \\/     M anipulation  |
\*---------------------------------------------------------------------------*/
FoamFile
{
    format      ascii;
    class       volScalarField;
    location    "1.5";
    object      epsilon;
}
// * * * * * * * * * * * * * * * * * * * * * * * * * * * * * * * * * * * * * //

dimensions      [0 2 -3 0 0 0 0];

internalField   nonuniform List<scalar> 
400
(
0.000174543
0.000291655
0.000386683
0.000446383
0.000482731
0.000506031
0.000523233
0.000538541
0.000554003
0.000569939
0.000585352
0.000597804
0.000603598
0.000605073
0.00060471
0.000582589
0.000530183
0.000433624
0.000285028
0.000182418
0.000295566
0.000272139
0.000321187
0.000358983
0.000383298
0.000398822
0.000409741
0.000418581
0.000426343
0.000432905
0.000437161
0.000439167
0.000440094
0.000441947
0.0004462
0.000447253
0.000432705
0.000386777
0.00031388
0.000291134
0.000429141
0.000320467
0.000346185
0.000375613
0.00039675
0.000410778
0.000420483
0.000427902
0.000434109
0.000439512
0.000444458
0.000450408
0.000460284
0.000477844
0.000505894
0.000542528
0.000565037
0.000553614
0.000450225
0.00038011
0.000531421
0.000368577
0.000378097
0.000401186
0.000420023
0.000433527
0.000443362
0.00045136
0.000458994
0.000467643
0.000479249
0.000497238
0.000526718
0.000574922
0.000651922
0.000770565
0.000905987
0.000962305
0.00085786
0.000657967
0.000607613
0.00040574
0.000405314
0.000424453
0.000442221
0.00045635
0.000468047
0.0004792
0.000491812
0.000508219
0.000531838
0.000568593
0.000628266
0.000729744
0.000910964
0.00123023
0.00164855
0.00183529
0.00184537
0.00153803
0.000663896
0.000433845
0.000427441
0.000444063
0.000461441
0.000476637
0.000490784
0.00050609
0.000525266
0.000551805
0.000591148
0.00065319
0.000757422
0.000948122
0.00131264
0.00193243
0.00260636
0.00292402
0.00301807
0.00285233
0.000705238
0.00045519
0.000444748
0.000459824
0.0004772
0.000493635
0.000510413
0.000530198
0.000556456
0.000593852
0.000650062
0.000739931
0.000896107
0.00119202
0.001748
0.00255731
0.00324514
0.0035953
0.0037272
0.00375113
0.000735471
0.000471317
0.00045789
0.000471894
0.000489356
0.000506899
0.000526023
0.000549809
0.000582291
0.000628899
0.000698739
0.000809941
0.00100453
0.00137411
0.00202971
0.0028688
0.00356771
0.003995
0.0041571
0.00422714
0.000757585
0.000483468
0.000467565
0.000480565
0.000497903
0.000516115
0.000536854
0.000563419
0.000599988
0.000651909
0.000727873
0.000845307
0.00104861
0.00143992
0.00212001
0.00296463
0.00378628
0.00442815
0.0046635
0.00468555
0.000774006
0.000492672
0.000474443
0.000486223
0.000503008
0.000521247
0.000542603
0.000570302
0.000608066
0.000659882
0.000731656
0.000838902
0.00102752
0.00139964
0.00205793
0.00291969
0.00387452
0.00483567
0.00521409
0.00503592
0.000786838
0.000499804
0.000479157
0.000489359
0.000505108
0.000522687
0.00054366
0.000570882
0.000607407
0.0006566
0.000722187
0.000815009
0.000972621
0.00129499
0.00189016
0.00275122
0.0038752
0.00518734
0.0058417
0.00529204
0.000797849
0.000505566
0.000482312
0.000490632
0.000505074
0.000521909
0.000542347
0.000568777
0.00060339
0.000647406
0.000701707
0.000772345
0.000889517
0.00114045
0.00165051
0.00249428
0.00375567
0.00537241
0.00648956
0.00549179
0.000809364
0.000510666
0.000484597
0.00049115
0.000504858
0.000521482
0.000541974
0.000568069
0.000600842
0.000639825
0.000683364
0.000733761
0.000813639
0.000992959
0.00140049
0.00218892
0.00353055
0.00543703
0.00711268
0.00560911
0.000822025
0.000515412
0.000486937
0.000492886
0.000507021
0.000525068
0.000547384
0.000575098
0.000608598
0.000646686
0.000686645
0.0007265
0.000776865
0.000894087
0.00119907
0.00188562
0.00324479
0.00543326
0.00762535
0.00566898
0.000841255
0.000521165
0.000491908
0.000499959
0.000518571
0.00054295
0.000572677
0.000607854
0.000647699
0.000689808
0.000730135
0.000766133
0.000806193
0.000893822
0.00111858
0.00170341
0.00298728
0.0053463
0.00786607
0.00569466
0.000864513
0.000530318
0.000505973
0.000525267
0.000559991
0.000604286
0.00065657
0.000715586
0.000778917
0.000842295
0.000899684
0.000946502
0.000986851
0.00105616
0.00123833
0.00171948
0.00288919
0.00531098
0.0079239
0.00570442
0.000901767
0.000554339
0.000553725
0.000613301
0.000698817
0.0008023
0.000920369
0.00104951
0.00118416
0.00131695
0.00143774
0.00153987
0.00161979
0.00170488
0.00187274
0.00227896
0.00325641
0.00551851
0.0075834
0.00564189
0.000990847
0.000633194
0.00074044
0.000946544
0.00119922
0.00148577
0.001798
0.00212645
0.00245552
0.00277407
0.00306095
0.00331394
0.00350945
0.00368043
0.00385019
0.00418483
0.00489581
0.00658753
0.0072771
0.005556
0.00099459
0.00086725
0.00144342
0.00220002
0.0029791
0.00377243
0.00456642
0.00534647
0.00606971
0.00673795
0.00730229
0.00780313
0.0081687
0.00847707
0.00865822
0.00878505
0.00857567
0.0083781
0.00744998
0.0053989
0.000822867
0.00106847
0.00155208
0.00202562
0.00248172
0.00291446
0.00332995
0.00373155
0.00413029
0.00450005
0.00487293
0.00518895
0.0055139
0.00573413
0.00595745
0.0060262
0.00602737
0.00599315
0.00582755
0.00517608
)
;

boundaryField
{
    movingWall
    {
        type            epsilonWallFunction;
        value           nonuniform List<scalar> 
20
(
0.000822867
0.00106847
0.00155208
0.00202562
0.00248172
0.00291446
0.00332995
0.00373155
0.00413029
0.00450005
0.00487293
0.00518895
0.0055139
0.00573413
0.00595745
0.0060262
0.00602737
0.00599315
0.00582755
0.00517608
)
;
    }
    fixedWalls
    {
        type            epsilonWallFunction;
        value           nonuniform List<scalar> 
60
(
0.000174543
0.000295566
0.000429141
0.000531421
0.000607613
0.000663896
0.000705238
0.000735471
0.000757585
0.000774006
0.000786838
0.000797849
0.000809364
0.000822025
0.000841255
0.000864513
0.000901767
0.000990847
0.00099459
0.000822867
0.000182418
0.000291134
0.00038011
0.000657967
0.00153803
0.00285233
0.00375113
0.00422714
0.00468555
0.00503592
0.00529204
0.00549179
0.00560911
0.00566898
0.00569466
0.00570442
0.00564189
0.005556
0.0053989
0.00517608
0.000174543
0.000291655
0.000386683
0.000446383
0.000482731
0.000506031
0.000523233
0.000538541
0.000554003
0.000569939
0.000585352
0.000597804
0.000603598
0.000605073
0.00060471
0.000582589
0.000530183
0.000433624
0.000285028
0.000182418
)
;
    }
    frontAndBack
    {
        type            empty;
    }
}


// ************************************************************************* //
