/*--------------------------------*- C++ -*----------------------------------*\
  =========                 |
  \\      /  F ield         | OpenFOAM: The Open Source CFD Toolbox
   \\    /   O peration     | Website:  https://openfoam.org
    \\  /    A nd           | Version:  13
     \\/     M anipulation  |
\*---------------------------------------------------------------------------*/
FoamFile
{
    format      ascii;
    class       volScalarField;
    location    "1.5";
    object      nut;
}
// * * * * * * * * * * * * * * * * * * * * * * * * * * * * * * * * * * * * * //

dimensions      [0 2 -1 0 0 0 0];

internalField   nonuniform List<scalar> 
400
(
1.49636e-06
2.51399e-06
3.33985e-06
3.85872e-06
4.17481e-06
4.37776e-06
4.52804e-06
4.66227e-06
4.7982e-06
4.93845e-06
5.07418e-06
5.18341e-06
5.23408e-06
5.24718e-06
5.24803e-06
5.05793e-06
4.6005e-06
3.75121e-06
2.44719e-06
1.56609e-06
2.5488e-06
1.68112e-05
2.40366e-05
2.76134e-05
2.97697e-05
3.12276e-05
3.23465e-05
3.33737e-05
3.44878e-05
3.5802e-05
3.73868e-05
3.91058e-05
4.06046e-05
4.11418e-05
4.03269e-05
3.74222e-05
3.20491e-05
2.33943e-05
1.02842e-05
2.51021e-06
3.71518e-06
2.96429e-05
4.52835e-05
5.31902e-05
5.78095e-05
6.08073e-05
6.2957e-05
6.46973e-05
6.62529e-05
6.76511e-05
6.86983e-05
6.87607e-05
6.75309e-05
6.40861e-05
5.781e-05
4.87255e-05
3.80848e-05
2.52915e-05
1.11157e-05
3.33433e-06
4.60992e-06
3.76279e-05
5.984e-05
7.17035e-05
7.86813e-05
8.31294e-05
8.61978e-05
8.84588e-05
9.00956e-05
9.09159e-05
9.00511e-05
8.71032e-05
8.12079e-05
7.16597e-05
5.92324e-05
4.592e-05
3.51751e-05
2.68411e-05
1.52487e-05
6.02356e-06
5.27753e-06
4.32191e-05
7.02407e-05
8.53082e-05
9.42522e-05
9.98537e-05
0.000103504
0.000105851
0.000106998
0.000106392
0.000102799
9.6049e-05
8.47223e-05
6.95136e-05
5.48356e-05
4.45248e-05
4.06957e-05
3.94771e-05
2.8611e-05
1.41691e-05
5.77129e-06
4.72254e-05
7.77484e-05
9.53871e-05
0.000105964
0.000112515
0.000116576
0.000118803
0.000119152
0.000116593
0.000109872
9.86244e-05
8.24862e-05
6.57079e-05
5.46383e-05
5.55114e-05
5.72052e-05
5.59381e-05
4.4629e-05
2.5654e-05
6.13414e-06
5.00715e-05
8.31963e-05
0.000102851
0.000114754
0.000122064
0.000126378
0.0001283
0.000127609
0.000122798
0.00011296
9.78096e-05
7.97626e-05
6.47382e-05
6.24467e-05
7.1905e-05
7.34382e-05
7.09488e-05
5.57787e-05
3.31186e-05
6.39924e-06
5.20621e-05
8.71045e-05
0.000108307
0.000121249
0.000129133
0.000133558
0.000135056
0.000133241
0.000126278
0.000113948
9.67187e-05
7.84329e-05
6.79925e-05
7.33108e-05
8.70771e-05
8.83908e-05
8.42409e-05
6.59107e-05
3.71961e-05
6.59262e-06
5.34138e-05
8.98335e-05
0.000112187
0.00012591
0.0001342
0.000138639
0.000139704
0.000136847
0.000128299
0.000114482
9.66791e-05
7.96027e-05
7.33539e-05
8.33114e-05
9.90923e-05
0.000102233
9.55298e-05
7.68348e-05
4.1202e-05
6.7354e-06
5.42929e-05
9.16596e-05
0.000114833
0.000129111
0.000137676
0.000142095
0.000142829
0.00013922
0.000130129
0.000115956
9.84565e-05
8.22605e-05
7.81595e-05
8.98545e-05
0.000106169
0.000114561
0.000105409
8.6014e-05
4.41836e-05
6.84602e-06
5.484e-05
9.28172e-05
0.000116542
0.000131193
0.000139959
0.000144408
0.00014503
0.000141181
0.000132049
0.000117788
0.000100811
8.56426e-05
8.18521e-05
9.36328e-05
0.000110803
0.000121229
0.000113851
9.44491e-05
4.64167e-05
6.94005e-06
5.51838e-05
9.35214e-05
0.000117584
0.000132467
0.000141342
0.000145833
0.000146483
0.000142846
0.000134567
0.000121732
0.000105922
9.14596e-05
8.69852e-05
9.74443e-05
0.000114439
0.000126243
0.000121841
0.00010119
4.81329e-05
7.03808e-06
5.5458e-05
9.39795e-05
0.000118195
0.000133144
0.000142148
0.000146847
0.000147851
0.000144962
0.000137937
0.000127006
0.000113215
0.00010055
9.49011e-05
0.000102157
0.000117753
0.000128577
0.000126047
0.000106035
4.91375e-05
7.14588e-06
5.5788e-05
9.43935e-05
0.000118606
0.00013368
0.000142856
0.000147869
0.000149408
0.000147437
0.000141699
0.000132358
0.000120693
0.000110468
0.000106007
0.000109593
0.000121987
0.000130547
0.000127578
0.000109064
4.96452e-05
7.31147e-06
5.6369e-05
9.48662e-05
0.000118892
0.00013374
0.000142813
0.00014797
0.000150091
0.000149374
0.000145655
0.000138935
0.000130137
0.000121346
0.000115882
0.000117533
0.000124517
0.000130326
0.000127721
0.000110092
4.98603e-05
7.51318e-06
5.72003e-05
9.53078e-05
0.000118153
0.000131662
0.000139588
0.000144052
0.0001462
0.000146495
0.000144902
0.00014131
0.000136021
0.000130264
0.000125499
0.000123425
0.000125141
0.000128821
0.000125568
0.000109547
4.99406e-05
7.83925e-06
5.85601e-05
9.43462e-05
0.00011321
0.000123048
0.000128221
0.000131081
0.000132827
0.000133981
0.000134417
0.000133829
0.00013193
0.000129025
0.000125998
0.000123321
0.000122078
0.000121732
0.000120003
0.000103666
4.9372e-05
8.62094e-06
5.98098e-05
8.78129e-05
9.95446e-05
0.000105379
0.000109047
0.000112027
0.000114887
0.00011805
0.000121169
0.000123727
0.000125141
0.000125221
0.000123829
0.000121752
0.000119152
0.000115902
0.000111271
9.33005e-05
4.86227e-05
8.66107e-06
5.05502e-05
7.24172e-05
8.20567e-05
8.91799e-05
9.48845e-05
9.98138e-05
0.000104247
0.000108082
0.000111279
0.00011395
0.000115973
0.000117242
0.000117689
0.000117226
0.000115381
0.000112675
0.00010452
8.49556e-05
4.72373e-05
7.16143e-06
9.31207e-06
1.35471e-05
1.76952e-05
2.16899e-05
2.54807e-05
2.91198e-05
3.26342e-05
3.61278e-05
3.93647e-05
4.26311e-05
4.5392e-05
4.8238e-05
5.01564e-05
5.21174e-05
5.27171e-05
5.27327e-05
5.24339e-05
5.09854e-05
4.52826e-05
)
;

boundaryField
{
    movingWall
    {
        type            nutkWallFunction;
        Cmu             0.09;
        kappa           0.41;
        E               9.8;
        value           uniform 0;
    }
    fixedWalls
    {
        type            nutkWallFunction;
        Cmu             0.09;
        kappa           0.41;
        E               9.8;
        value           uniform 0;
    }
    frontAndBack
    {
        type            empty;
    }
}


// ************************************************************************* //
