/*--------------------------------*- C++ -*----------------------------------*\
  =========                 |
  \\      /  F ield         | OpenFOAM: The Open Source CFD Toolbox
   \\    /   O peration     | Website:  https://openfoam.org
    \\  /    A nd           | Version:  13
     \\/     M anipulation  |
\*---------------------------------------------------------------------------*/
FoamFile
{
    format      ascii;
    class       volScalarField;
    location    "1.5";
    object      p;
}
// * * * * * * * * * * * * * * * * * * * * * * * * * * * * * * * * * * * * * //

dimensions      [0 2 -2 0 0 0 0];

internalField   nonuniform List<scalar> 
1600
(
-2.39842e-09
-7.7552e-06
-1.99512e-05
-3.12558e-05
-4.06361e-05
-4.81482e-05
-5.42104e-05
-5.93445e-05
-6.40227e-05
-6.85941e-05
-7.32059e-05
-7.76936e-05
-8.14408e-05
-8.32229e-05
-8.10679e-05
-7.21894e-05
-5.30583e-05
-1.96023e-05
3.26211e-05
0.000108648
0.000214416
0.000356008
0.000539452
0.000775039
0.001075
0.00143511
0.00184064
0.00227487
0.00270131
0.0030778
0.00336628
0.00354287
0.00360175
0.00356071
0.00345348
0.00333071
0.00322488
0.00315079
0.0031137
0.00310685
7.52359e-06
2.16101e-07
-9.05453e-06
-1.72561e-05
-2.36369e-05
-2.8424e-05
-3.20104e-05
-3.47729e-05
-3.70683e-05
-3.91891e-05
-4.13063e-05
-4.33996e-05
-4.51724e-05
-4.5941e-05
-4.44838e-05
-3.88516e-05
-2.62073e-05
-2.76374e-06
3.62216e-05
9.63693e-05
0.00018392
0.000305472
0.000468898
0.000684799
0.000961595
0.00129445
0.00167921
0.00209746
0.00251623
0.00289369
0.00319255
0.00338671
0.00346682
0.00344834
0.00336618
0.00326338
0.00317551
0.00311898
0.00309305
0.00308951
2.12858e-05
1.02315e-05
8.98773e-08
-5.7924e-06
-8.21815e-06
-8.9694e-06
-8.76981e-06
-7.96309e-06
-6.86243e-06
-5.79339e-06
-5.07747e-06
-5.00246e-06
-5.76977e-06
-7.39769e-06
-9.55116e-06
-1.12968e-05
-1.07713e-05
-4.89754e-06
1.07892e-05
4.22452e-05
9.69048e-05
0.000183593
0.000312699
0.000494712
0.000735734
0.00104804
0.00141837
0.00183267
0.0022615
0.00266198
0.00299279
0.00322192
0.00333436
0.00334024
0.00327491
0.00318468
0.0031086
0.00306488
0.00304958
0.00304808
3.02045e-05
1.527e-05
8.9208e-07
-5.92678e-06
-6.5448e-06
-4.60654e-06
-1.59513e-06
1.86925e-06
5.28402e-06
8.08578e-06
9.60376e-06
9.05426e-06
5.58821e-06
-1.57928e-06
-1.29278e-05
-2.82601e-05
-4.62958e-05
-6.43225e-05
-7.79612e-05
-8.09667e-05
-6.512e-05
-2.01934e-05
6.61745e-05
0.000208091
0.000418992
0.000698984
0.0010543
0.00146972
0.00191839
0.00236054
0.00274688
0.00303458
0.00320023
0.00324499
0.00319971
0.00311419
0.00303607
0.0029945
0.00298843
0.00298987
2.9354e-05
9.47194e-06
-1.19992e-05
-2.32647e-05
-2.53777e-05
-2.36067e-05
-2.03698e-05
-1.68031e-05
-1.38146e-05
-1.23841e-05
-1.36606e-05
-1.8981e-05
-2.97957e-05
-4.74801e-05
-7.3026e-05
-0.000106657
-0.000147485
-0.000193263
-0.000240244
-0.000283029
-0.00031428
-0.000324208
-0.000299857
-0.000224437
-7.95951e-05
0.000145315
0.000457837
0.000846566
0.00129392
0.00177487
0.00224382
0.00264092
0.00292027
0.00306784
0.00309911
0.00304876
0.00297295
0.00292348
0.00292243
0.00292684
1.30715e-05
-1.1743e-05
-4.12181e-05
-5.88528e-05
-6.49551e-05
-6.59836e-05
-6.5237e-05
-6.44325e-05
-6.49734e-05
-6.8328e-05
-7.61486e-05
-9.02787e-05
-0.000112637
-0.000144982
-0.000188605
-0.000244065
-0.000311102
-0.000388784
-0.00047564
-0.000569381
-0.00066595
-0.000757916
-0.000832701
-0.000870676
-0.000846133
-0.000734447
-0.000525806
-0.000212288
0.000208213
0.000717762
0.00126767
0.00180543
0.00228725
0.0026644
0.00288856
0.00296107
0.002937
0.00287926
0.00287086
0.00286995
-2.23145e-05
-5.15261e-05
-8.86751e-05
-0.000113366
-0.000125028
-0.000130882
-0.000134956
-0.00013951
-0.000146439
-0.000157688
-0.000175367
-0.000201736
-0.000239056
-0.000289353
-0.000354224
-0.000434871
-0.000532508
-0.000649023
-0.000787378
-0.000950978
-0.00114144
-0.00135437
-0.00157473
-0.0017752
-0.00191901
-0.00196863
-0.00189138
-0.001672
-0.00130657
-0.000806133
-0.000195166
0.000498502
0.00121965
0.00188399
0.00241455
0.00275325
0.00289291
0.00289485
0.0028527
0.00282765
-7.87005e-05
-0.000111484
-0.000155374
-0.000187113
-0.000205248
-0.000217395
-0.000228135
-0.000240198
-0.000255918
-0.000277671
-0.000307965
-0.00034941
-0.000404561
-0.00047576
-0.000565166
-0.000675251
-0.000809815
-0.00097518
-0.00118065
-0.00143715
-0.0017521
-0.00212036
-0.00251855
-0.00290404
-0.00322284
-0.00342198
-0.00346636
-0.00333703
-0.00302822
-0.00254772
-0.00190788
-0.00112665
-0.000246173
0.000674326
0.00154847
0.00225568
0.00270611
0.0029118
0.00285117
0.0027854
-0.000156472
-0.000191783
-0.000241222
-0.000279597
-0.000304641
-0.000324063
-0.000342827
-0.000364046
-0.000390437
-0.000424748
-0.000469848
-0.000528679
-0.000604145
-0.000699093
-0.000816667
-0.00096132
-0.00114041
-0.00136577
-0.00165408
-0.00202438
-0.00248661
-0.00303031
-0.00361747
-0.00418618
-0.00466732
-0.0050045
-0.00515549
-0.00509921
-0.00483463
-0.00436826
-0.0037142
-0.00289065
-0.00192189
-0.000844139
0.000287047
0.00136503
0.00222343
0.0027357
0.00286046
0.00271216
-0.000254587
-0.000291542
-0.000345159
-0.0003895
-0.000421514
-0.000448761
-0.000476437
-0.000507951
-0.000546341
-0.000594691
-0.00065621
-0.000734206
-0.000832052
-0.00095336
-0.00110268
-0.00128698
-0.00151764
-0.00181228
-0.00219548
-0.002692
-0.00331012
-0.00403025
-0.00479594
-0.00552725
-0.00614362
-0.00658579
-0.00681583
-0.00681962
-0.00659742
-0.00615783
-0.00551349
-0.00467737
-0.00366256
-0.00248776
-0.00118622
0.000165245
0.00140802
0.00232417
0.00277404
0.00253562
-0.000371052
-0.000408936
-0.000465391
-0.00051484
-0.000553572
-0.000588811
-0.000625843
-0.000668292
-0.000719462
-0.000782741
-0.000861677
-0.000960001
-0.00108169
-0.00123135
-0.00141521
-0.00164292
-0.00192969
-0.00229856
-0.00278115
-0.0034031
-0.00416991
-0.00504907
-0.00596595
-0.0068256
-0.00754103
-0.00805436
-0.00833575
-0.00837783
-0.0081835
-0.0077655
-0.00713802
-0.00631288
-0.00529737
-0.00409501
-0.00271199
-0.00118518
0.000351288
0.00164839
0.00240849
0.00247832
-0.000503361
-0.000541412
-0.000599478
-0.00065308
-0.000698043
-0.000741111
-0.000787535
-0.000841082
-0.000905273
-0.000983765
-0.00108045
-0.00119953
-0.00134567
-0.00152458
-0.0017442
-0.0020166
-0.00236015
-0.0028028
-0.00337889
-0.00411361
-0.00500927
-0.00601873
-0.00705264
-0.00800598
-0.00879015
-0.00935094
-0.00966612
-0.00973014
-0.00955473
-0.00915561
-0.00854912
-0.00774753
-0.00675636
-0.00557163
-0.00418042
-0.00258261
-0.000874937
0.000694928
0.00189203
0.0025872
-0.000648536
-0.000686015
-0.00074456
-0.000801315
-0.000851834
-0.000902281
-0.000957764
-0.00102213
-0.00109905
-0.00119243
-0.00130649
-0.00144589
-0.00161601
-0.00182361
-0.00207811
-0.00239333
-0.00279004
-0.00329947
-0.00395545
-0.00478165
-0.00577719
-0.00688339
-0.00800014
-0.0090173
-0.00984698
-0.0104385
-0.0107738
-0.0108528
-0.0106912
-0.0103091
-0.0097267
-0.00895857
-0.00801051
-0.00687617
-0.00553368
-0.00396061
-0.0021988
-0.000482729
0.00101975
0.0020791
-0.000803321
-0.000839568
-0.000897558
-0.000956447
-0.0010117
-0.00106882
-0.0011327
-0.00120718
-0.00129605
-0.0014034
-0.00153371
-0.00169208
-0.00188449
-0.00211855
-0.00240473
-0.00275803
-0.00320071
-0.00376453
-0.00448257
-0.00537086
-0.00643375
-0.00760224
-0.00877087
-0.00982756
-0.0106856
-0.0112966
-0.0116447
-0.0117343
-0.0115838
-0.011218
-0.0106616
-0.00993298
-0.0090402
-0.00797841
-0.00672632
-0.00524891
-0.00354085
-0.00180761
-0.000280564
0.000831876
-0.000964384
-0.000998833
-0.00105534
-0.00111534
-0.00117438
-0.00123726
-0.00130857
-0.00139211
-0.00149169
-0.00161152
-0.00175628
-0.00193136
-0.00214319
-0.00240001
-0.00271297
-0.0030975
-0.00357521
-0.00417594
-0.00493596
-0.00585961
-0.00695203
-0.00814987
-0.00934235
-0.0104182
-0.0112914
-0.0119143
-0.0122714
-0.0123695
-0.0122299
-0.0118815
-0.0113539
-0.0106699
-0.00984105
-0.00886534
-0.00772635
-0.00638763
-0.00481757
-0.00312844
-0.00172084
-0.000756505
-0.00112848
-0.00116066
-0.00121485
-0.00127497
-0.00133677
-0.00140434
-0.0014819
-0.00157312
-0.00168181
-0.00181218
-0.00196905
-0.00215797
-0.00238562
-0.0026605
-0.00299393
-0.00340093
-0.00390114
-0.00452084
-0.00529342
-0.00623089
-0.00732222
-0.00851509
-0.00970457
-0.0107808
-0.0116577
-0.0122862
-0.0126501
-0.0127565
-0.0126293
-0.0123013
-0.0118061
-0.011171
-0.0104117
-0.00952981
-0.00851459
-0.00733687
-0.0059572
-0.0044035
-0.00317103
-0.00237942
-0.00129257
-0.00132211
-0.00137329
-0.0014326
-0.00149611
-0.0015672
-0.00164967
-0.00174701
-0.00186292
-0.0020016
-0.00216784
-0.00236725
-0.0026065
-0.0028939
-0.00324025
-0.00365964
-0.00416959
-0.00479208
-0.00555443
-0.00647855
-0.00754097
-0.00869837
-0.00985903
-0.0109167
-0.0117853
-0.0124132
-0.0127818
-0.0128975
-0.0127857
-0.0124823
-0.0120244
-0.0114427
-0.0107562
-0.00997031
-0.00907775
-0.00805687
-0.00687283
-0.00554892
-0.00448577
-0.00383655
-0.00145394
-0.00148055
-0.00152811
-0.00158576
-0.00164991
-0.00172328
-0.0018092
-0.00191093
-0.00203204
-0.00217658
-0.00234922
-0.00255538
-0.0028015
-0.00309542
-0.00344705
-0.0038691
-0.00437688
-0.00498838
-0.00572533
-0.00660858
-0.00761596
-0.00871244
-0.00981943
-0.0108387
-0.0116849
-0.0123042
-0.0126747
-0.0128009
-0.0127084
-0.012435
-0.0120202
-0.0114962
-0.0108843
-0.0101931
-0.00941827
-0.00854476
-0.00754569
-0.00645616
-0.00557286
-0.00503727
-0.00161022
-0.00163366
-0.00167713
-0.0017323
-0.00179603
-0.00187038
-0.00195824
-0.00206259
-0.00218678
-0.00233464
-0.00251059
-0.00271975
-0.00296814
-0.00326292
-0.00361292
-0.00402909
-0.00452427
-0.00511314
-0.00581193
-0.0066351
-0.00756825
-0.00858246
-0.00961207
-0.0105706
-0.0113785
-0.0119797
-0.0123479
-0.0124851
-0.0124159
-0.0121782
-0.0118119
-0.0113494
-0.0108123
-0.0102121
-0.00954775
-0.00880949
-0.00797974
-0.00710087
-0.00638067
-0.00594477
-0.00175953
-0.00177956
-0.0018186
-0.00187058
-0.00193285
-0.00200691
-0.00209519
-0.00220038
-0.00232554
-0.00247422
-0.00265054
-0.0028592
-0.00310567
-0.00339627
-0.00373868
-0.00414197
-0.00461608
-0.00517288
-0.00582353
-0.0065766
-0.00742343
-0.00833951
-0.00927343
-0.0101524
-0.0109048
-0.0114754
-0.0118349
-0.0119817
-0.0119384
-0.0117413
-0.0114279
-0.0110286
-0.0105646
-0.0100489
-0.00948473
-0.00886648
-0.00818425
-0.00747679
-0.0069061
-0.00655767
-0.00190048
-0.0019169
-0.00195125
-0.0019994
-0.00205922
-0.00213176
-0.00221901
-0.00232331
-0.00244745
-0.00259465
-0.00276866
-0.00297371
-0.00321465
-0.00349674
-0.00382668
-0.00421143
-0.0046589
-0.00517728
-0.00577389
-0.00645319
-0.00720847
-0.00801975
-0.00884731
-0.00963278
-0.0103143
-0.0108414
-0.0111839
-0.011337
-0.0113195
-0.0111642
-0.0109049
-0.0105682
-0.0101732
-0.00973355
-0.00925672
-0.00874151
-0.0081841
-0.00762008
-0.00717382
-0.00690066
-0.00203141
-0.0020446
-0.00207393
-0.00211791
-0.00217438
-0.00224427
-0.00232911
-0.00243096
-0.00255228
-0.00269591
-0.00286527
-0.00306404
-0.00329638
-0.00356687
-0.00388065
-0.00424316
-0.00466016
-0.0051371
-0.00567803
-0.00628424
-0.00694936
-0.00765692
-0.0083762
-0.00906204
-0.00966325
-0.0101363
-0.0104532
-0.0106067
-0.0106114
-0.0104954
-0.0102871
-0.0100083
-0.00967486
-0.00930063
-0.00889641
-0.00846533
-0.00800983
-0.00756142
-0.00721502
-0.00700508
-0.0021516
-0.00216185
-0.00218634
-0.00222543
-0.00227791
-0.00234413
-0.00242533
-0.00252329
-0.00264016
-0.00277852
-0.00294127
-0.00313166
-0.00335318
-0.00360962
-0.00390492
-0.0042431
-0.00462804
-0.00506299
-0.00554963
-0.00608678
-0.00666794
-0.0072789
-0.00789571
-0.00848371
-0.00900259
-0.00941623
-0.00970049
-0.00984793
-0.00986837
-0.00978478
-0.00961969
-0.00938977
-0.00910753
-0.00878651
-0.00843999
-0.00807528
-0.00770076
-0.00734452
-0.00707822
-0.00691288
-0.00226144
-0.00226863
-0.00228822
-0.00232213
-0.00236985
-0.00243143
-0.00250786
-0.00260067
-0.00271174
-0.00284332
-0.00299796
-0.0031784
-0.00338756
-0.00362846
-0.00390407
-0.00421719
-0.00457018
-0.00496455
-0.00540031
-0.00587461
-0.00638062
-0.00690589
-0.0074312
-0.00792981
-0.00837065
-0.00872492
-0.0089729
-0.00910743
-0.00913636
-0.00907572
-0.00894324
-0.00875088
-0.00850758
-0.00822563
-0.00792106
-0.00760594
-0.00729098
-0.00700018
-0.006803
-0.00666219
-0.00236081
-0.00236506
-0.00237973
-0.00240817
-0.00245045
-0.00250652
-0.00257717
-0.00266371
-0.00276784
-0.0028915
-0.00303688
-0.00320633
-0.00340223
-0.00362692
-0.00388257
-0.00417098
-0.00449335
-0.0048499
-0.00523934
-0.00565802
-0.00609883
-0.00655071
-0.00699768
-0.00741899
-0.00779061
-0.00809013
-0.00830184
-0.00841972
-0.00844868
-0.00840121
-0.00829031
-0.0081236
-0.0079066
-0.00765034
-0.00737301
-0.00709148
-0.00681696
-0.00656909
-0.00642791
-0.0062949
-0.00244997
-0.00245148
-0.00246128
-0.00248398
-0.00252021
-0.00256996
-0.0026339
-0.00271324
-0.00280948
-0.00292434
-0.00305972
-0.00321759
-0.00339987
-0.00360835
-0.00384452
-0.0041094
-0.00440331
-0.00472553
-0.00507393
-0.00544436
-0.00582984
-0.00622032
-0.00660233
-0.00695925
-0.00727233
-0.00752418
-0.00770216
-0.00780118
-0.00782477
-0.00778233
-0.00768283
-0.00753059
-0.00732874
-0.00708699
-0.00682451
-0.00656078
-0.00630863
-0.0060822
-0.00598533
-0.00584249
-0.00252954
-0.00252851
-0.00253352
-0.00255021
-0.00257981
-0.00262245
-0.00267885
-0.00275015
-0.00283775
-0.0029432
-0.00306815
-0.00321424
-0.00338302
-0.0035758
-0.00379353
-0.00403662
-0.00430474
-0.00459652
-0.00490929
-0.00523863
-0.00557792
-0.00591795
-0.00624718
-0.00655189
-0.0068172
-0.00702916
-0.00717751
-0.00725799
-0.00727309
-0.00722948
-0.00713314
-0.00698628
-0.00679034
-0.00655367
-0.00629561
-0.006037
-0.00579257
-0.00556676
-0.00550541
-0.00533001
-0.0026004
-0.00259705
-0.00259735
-0.00260773
-0.00263006
-0.00266481
-0.00271285
-0.00277537
-0.00285374
-0.00294938
-0.00306374
-0.00319818
-0.00335394
-0.00353192
-0.00373265
-0.00395606
-0.00420133
-0.00446667
-0.00474907
-0.00504402
-0.00534525
-0.00564443
-0.00593139
-0.00619461
-0.00642187
-0.00660159
-0.00672523
-0.00678904
-0.00679431
-0.00674546
-0.00664647
-0.00649833
-0.0063014
-0.00606272
-0.00580132
-0.00553835
-0.00528647
-0.00503688
-0.00500316
-0.00476318
-0.00266375
-0.00265825
-0.00265383
-0.00265751
-0.00267184
-0.00269785
-0.00273672
-0.0027898
-0.00285845
-0.00294405
-0.00304786
-0.00317104
-0.00331451
-0.00347887
-0.00366428
-0.00387029
-0.00409575
-0.00433856
-0.00459552
-0.00486217
-0.00513253
-0.00539909
-0.00565275
-0.00588352
-0.00608107
-0.00623557
-0.00633949
-0.00638911
-0.00638454
-0.00632836
-0.00622314
-0.00606926
-0.00586652
-0.00562076
-0.00535006
-0.00507465
-0.00480299
-0.00450284
-0.00447781
-0.0041242
-0.00272103
-0.00271359
-0.00270433
-0.00270071
-0.00270613
-0.00272241
-0.00275123
-0.00279418
-0.00285271
-0.00292812
-0.00302157
-0.003134
-0.00326607
-0.00341812
-0.00358999
-0.00378096
-0.00398958
-0.00421356
-0.00444962
-0.00469336
-0.00493915
-0.00518008
-0.005408
-0.00561399
-0.00578897
-0.00592437
-0.00601318
-0.00605133
-0.00603802
-0.00597407
-0.00586085
-0.00569835
-0.00548613
-0.00522903
-0.0049433
-0.00464793
-0.00434754
-0.00395457
-0.00391024
-0.00336572
-0.00277418
-0.0027649
-0.00275046
-0.00273864
-0.0027339
-0.00273925
-0.00275703
-0.00278916
-0.00283717
-0.00290234
-0.00298566
-0.00308787
-0.00320943
-0.0033504
-0.00351039
-0.00368846
-0.00388297
-0.00409149
-0.00431073
-0.00453636
-0.00476303
-0.00498435
-0.00519291
-0.00538061
-0.00553924
-0.00566098
-0.00573886
-0.00576879
-0.00574891
-0.00567822
-0.00555681
-0.00538427
-0.00515975
-0.00488719
-0.0045807
-0.00425729
-0.00391579
-0.00335926
-0.00327816
-0.00242334
-0.00282511
-0.00281436
-0.00279407
-0.0027726
-0.00275601
-0.00274889
-0.00275446
-0.00277496
-0.00281203
-0.00286686
-0.00294028
-0.00303282
-0.00314468
-0.00327569
-0.00342529
-0.00359234
-0.00377509
-0.00397107
-0.00417697
-0.00438862
-0.0046009
-0.00480781
-0.00500253
-0.00517757
-0.00532532
-0.00543842
-0.00551019
-0.00553579
-0.00551206
-0.00543657
-0.00530799
-0.00512513
-0.00488662
-0.0045947
-0.00426005
-0.00389321
-0.00347646
-0.00269745
-0.00258684
-0.00123816
-0.00287867
-0.00286523
-0.00283792
-0.00280415
-0.00277315
-0.00275144
-0.00274314
-0.00275082
-0.00277618
-0.0028203
-0.00288381
-0.002967
-0.00306981
-0.00319186
-0.00333237
-0.00349008
-0.00366318
-0.00384917
-0.00404482
-0.00424608
-0.00444809
-0.00464519
-0.004831
-0.00499853
-0.00514056
-0.00524996
-0.00532067
-0.0053464
-0.00532238
-0.00524527
-0.00511186
-0.00491898
-0.00466345
-0.00434446
-0.00397029
-0.00353719
-0.00298978
-0.00194413
-0.00185117
0.000234244
-0.0029422
-0.002924
-0.0028856
-0.0028352
-0.00278562
-0.00274564
-0.00272078
-0.00271358
-0.00272572
-0.0027581
-0.00281107
-0.00288463
-0.00297846
-0.00309195
-0.00322419
-0.00337384
-0.00353904
-0.00371731
-0.00390553
-0.0040998
-0.00429552
-0.0044873
-0.00466915
-0.00483447
-0.00497638
-0.00508789
-0.00516239
-0.00519323
-0.00517443
-0.00510047
-0.00496561
-0.00476332
-0.0044875
-0.00413164
-0.00369513
-0.00315
-0.00240757
-0.00105588
-0.000914267
0.00208778
-0.00302531
-0.00299802
-0.00294148
-0.00286585
-0.00278997
-0.00272606
-0.00268008
-0.00265479
-0.00265148
-0.00267058
-0.00271196
-0.00277524
-0.0028598
-0.00296477
-0.00308917
-0.00323168
-0.00339047
-0.00356319
-0.00374682
-0.00393768
-0.00413136
-0.00432274
-0.00450605
-0.00467497
-0.00482283
-0.00494255
-0.00502678
-0.00506828
-0.00505964
-0.00499269
-0.00485857
-0.00464594
-0.00434143
-0.00392797
-0.0033869
-0.00265307
-0.00161878
0.000100176
0.000733123
0.00470358
-0.00315164
-0.00310512
-0.0030111
-0.002891
-0.00277487
-0.00267812
-0.00260603
-0.00256021
-0.00254068
-0.00254672
-0.00257732
-0.00263153
-0.00270847
-0.00280707
-0.00292602
-0.00306402
-0.00321936
-0.00338982
-0.00357258
-0.00376413
-0.00396021
-0.00415587
-0.00434539
-0.00452244
-0.00468019
-0.00481163
-0.00490897
-0.00496327
-0.00496485
-0.00490266
-0.00476398
-0.00452957
-0.00417589
-0.00365684
-0.00292943
-0.00186314
-0.000338495
0.00207129
0.00378373
0.00935967
-0.00336881
-0.00326195
-0.00308245
-0.00289693
-0.00273691
-0.00260728
-0.00251077
-0.00244758
-0.00241591
-0.00241332
-0.00243749
-0.00248655
-0.00255907
-0.00265404
-0.00277028
-0.0029064
-0.00306076
-0.0032313
-0.00341532
-0.00360951
-0.00380968
-0.00401098
-0.00420764
-0.00439324
-0.00456061
-0.00470231
-0.00480981
-0.0048724
-0.00487772
-0.00481039
-0.00465185
-0.0043687
-0.0039207
-0.0032183
-0.00217054
-0.000528866
0.00185473
0.00563565
0.00961651
0.0186958
-0.0038189
-0.00352537
-0.00318854
-0.00289531
-0.00268207
-0.00252705
-0.00241754
-0.00234764
-0.00231278
-0.00230891
-0.00233266
-0.00238158
-0.00245395
-0.00254868
-0.00266468
-0.00280077
-0.00295532
-0.00312648
-0.00331153
-0.00350736
-0.0037097
-0.00391382
-0.00411373
-0.00430294
-0.00447373
-0.00461771
-0.00472555
-0.00478569
-0.00478284
-0.00469614
-0.00449982
-0.00414132
-0.00355703
-0.00259016
-0.00108626
0.00141782
0.0051976
0.0115048
0.0198389
0.0354101
-0.00474018
-0.00375845
-0.00319433
-0.00283517
-0.00259054
-0.00241889
-0.00230294
-0.00223237
-0.00219896
-0.00219675
-0.00222169
-0.00227147
-0.00234444
-0.00243967
-0.0025559
-0.00269215
-0.00284661
-0.00301767
-0.00320239
-0.00339793
-0.0035997
-0.00380327
-0.00400221
-0.00419032
-0.00435898
-0.00449939
-0.00460013
-0.00464945
-0.00463151
-0.0045217
-0.00428611
-0.00386199
-0.00315443
-0.00197155
1.91007e-06
0.0035304
0.00931333
0.0195248
0.0346752
0.0593712
-0.00625303
-0.0024691
-0.0017406
-0.00167293
-0.00158035
-0.00146625
-0.00138944
-0.00136393
-0.00137791
-0.00141851
-0.00147957
-0.00155986
-0.00165973
-0.00177938
-0.00191836
-0.00207565
-0.00224991
-0.00243934
-0.00264149
-0.00285324
-0.00307049
-0.00328845
-0.00350117
-0.00370219
-0.00388348
-0.00403663
-0.00415046
-0.00421157
-0.004198
-0.00408177
-0.0038143
-0.00333474
-0.00255358
-0.00131219
0.000899638
0.00522024
0.0135682
0.0281598
0.0512064
0.0815435
)
;

boundaryField
{
    movingWall
    {
        type            zeroGradient;
    }
    fixedWalls
    {
        type            zeroGradient;
    }
    frontAndBack
    {
        type            empty;
    }
}


// ************************************************************************* //
