/*--------------------------------*- C++ -*----------------------------------*\
  =========                 |
  \\      /  F ield         | OpenFOAM: The Open Source CFD Toolbox
   \\    /   O peration     | Website:  https://openfoam.org
    \\  /    A nd           | Version:  13
     \\/     M anipulation  |
\*---------------------------------------------------------------------------*/
FoamFile
{
    format      ascii;
    class       surfaceScalarField;
    location    "1.5";
    object      phi;
}
// * * * * * * * * * * * * * * * * * * * * * * * * * * * * * * * * * * * * * //

dimensions      [0 3 -1 0 0 0 0];

internalField   nonuniform List<scalar> 
3120
(
5.60693e-09
-5.6067e-09
1.35042e-09
4.25648e-09
-1.49393e-08
1.62897e-08
-3.99477e-08
2.50084e-08
-6.99302e-08
2.99824e-08
-1.02612e-07
3.26819e-08
-1.36944e-07
3.43322e-08
-1.7258e-07
3.5636e-08
-2.09605e-07
3.70246e-08
-2.48423e-07
3.88184e-08
-2.89724e-07
4.13009e-08
-3.34469e-07
4.47445e-08
-3.83873e-07
4.94042e-08
-4.39352e-07
5.5479e-08
-5.02386e-07
6.30338e-08
-5.74264e-07
7.18785e-08
-6.55685e-07
8.14207e-08
-7.46227e-07
9.05419e-08
-8.43827e-07
9.75999e-08
-9.44507e-07
1.0068e-07
-1.04248e-06
9.79746e-08
-1.13052e-06
8.80422e-08
-1.20063e-06
7.0102e-08
-1.24562e-06
4.49945e-08
-1.26069e-06
1.50685e-08
-1.23699e-06
-2.36986e-08
-1.17286e-06
-6.41306e-08
-1.06828e-06
-1.04581e-07
-9.2526e-07
-1.43018e-07
-7.52408e-07
-1.72852e-07
-5.62598e-07
-1.89809e-07
-3.70123e-07
-1.92475e-07
-1.92919e-07
-1.77204e-07
-4.82018e-08
-1.44717e-07
5.28438e-08
-1.01046e-07
1.06684e-07
-5.38401e-08
1.1667e-07
-9.98623e-09
9.11854e-08
2.54848e-08
4.39453e-08
4.72401e-08
4.39453e-08
-5.57108e-09
-3.56218e-11
-2.9417e-08
2.81024e-08
-7.07386e-08
5.76113e-08
-1.23599e-07
7.78685e-08
-1.8366e-07
9.00439e-08
-2.48578e-07
9.75994e-08
-3.17288e-07
1.03042e-07
-3.89555e-07
1.07903e-07
-4.6568e-07
1.1315e-07
-5.46316e-07
1.19454e-07
-6.32309e-07
1.27294e-07
-7.24528e-07
1.36964e-07
-8.23624e-07
1.485e-07
-9.29729e-07
1.61584e-07
-1.04214e-06
1.75444e-07
-1.15908e-06
1.88815e-07
-1.27765e-06
1.99997e-07
-1.39411e-06
2.06998e-07
-1.50426e-06
2.07752e-07
-1.60391e-06
2.00333e-07
-1.68901e-06
1.8307e-07
-1.75554e-06
1.54573e-07
-1.79957e-06
1.14134e-07
-1.81683e-06
6.22503e-08
-1.8001e-06
-1.66261e-09
-1.74777e-06
-7.6025e-08
-1.65434e-06
-1.57563e-07
-1.51829e-06
-2.4063e-07
-1.34175e-06
-3.19557e-07
-1.13094e-06
-3.83663e-07
-8.9622e-07
-4.24528e-07
-6.52581e-07
-4.36113e-07
-4.19341e-07
-4.10444e-07
-2.16692e-07
-3.47366e-07
-6.22868e-08
-2.55451e-07
3.56668e-08
-1.51794e-07
8.05335e-08
-5.48529e-08
8.10537e-08
2.49646e-08
4.55404e-08
8.27534e-08
8.94857e-08
-2.08543e-08
2.08187e-08
-6.42696e-08
7.15176e-08
-1.19993e-07
1.13334e-07
-1.84102e-07
1.41978e-07
-2.54943e-07
1.60884e-07
-3.31418e-07
1.74075e-07
-4.12985e-07
1.84609e-07
-4.99598e-07
1.94516e-07
-5.91575e-07
2.05127e-07
-6.89418e-07
2.17298e-07
-7.93606e-07
2.31482e-07
-9.04338e-07
2.47695e-07
-1.02126e-06
2.65421e-07
-1.14323e-06
2.83551e-07
-1.2682e-06
3.00422e-07
-1.39338e-06
3.13987e-07
-1.5155e-06
3.2212e-07
-1.63142e-06
3.2292e-07
-1.73846e-06
3.14789e-07
-1.83441e-06
2.96286e-07
-1.91729e-06
2.6595e-07
-1.98491e-06
2.22193e-07
-2.03418e-06
1.634e-07
-2.06002e-06
8.80913e-08
-2.0593e-06
-2.37882e-09
-2.02225e-06
-1.13078e-07
-1.94523e-06
-2.34582e-07
-1.82326e-06
-3.62598e-07
-1.6546e-06
-4.88217e-07
-1.4414e-06
-5.96863e-07
-1.18975e-06
-6.76177e-07
-9.1437e-07
-7.11496e-07
-6.37105e-07
-6.8771e-07
-3.83671e-07
-6.008e-07
-1.8064e-07
-4.58482e-07
-4.54824e-08
-2.86952e-07
2.34866e-08
-1.23822e-07
4.38735e-08
4.57775e-09
3.03296e-08
9.62973e-08
1.19815e-07
-3.45763e-08
5.53951e-08
-9.11673e-08
1.28109e-07
-1.55548e-07
1.77715e-07
-2.25624e-07
2.12054e-07
-3.01367e-07
2.36627e-07
-3.82737e-07
2.55445e-07
-4.69722e-07
2.71594e-07
-5.62463e-07
2.87258e-07
-6.61234e-07
3.03898e-07
-7.66306e-07
3.2237e-07
-8.77753e-07
3.42929e-07
-9.95227e-07
3.65169e-07
-1.11778e-06
3.87973e-07
-1.24379e-06
4.09566e-07
-1.37112e-06
4.27744e-07
-1.49739e-06
4.40258e-07
-1.62048e-06
4.45216e-07
-1.73884e-06
4.41273e-07
-1.85158e-06
4.27533e-07
-1.9584e-06
4.03109e-07
-2.05897e-06
3.66513e-07
-2.152e-06
3.15222e-07
-2.23432e-06
2.45721e-07
-2.30045e-06
1.54227e-07
-2.34193e-06
3.90952e-08
-2.35166e-06
-1.03343e-07
-2.31886e-06
-2.67384e-07
-2.23548e-06
-4.45982e-07
-2.09534e-06
-6.28354e-07
-1.89515e-06
-7.97047e-07
-1.63541e-06
-9.35917e-07
-1.3253e-06
-1.02161e-06
-9.85368e-07
-1.02764e-06
-6.47359e-07
-9.38809e-07
-3.53046e-07
-7.52795e-07
-1.4208e-07
-4.97918e-07
-2.90136e-08
-2.36888e-07
1.21462e-08
-3.6582e-08
1.58119e-08
9.26316e-08
1.35627e-07
-4.42545e-08
9.96497e-08
-1.09346e-07
1.932e-07
-1.79444e-07
2.47814e-07
-2.53349e-07
2.85958e-07
-3.31804e-07
3.15082e-07
-4.15417e-07
3.39058e-07
-5.04586e-07
3.60763e-07
-5.99624e-07
3.82295e-07
-7.00775e-07
4.05049e-07
-8.08141e-07
4.29735e-07
-9.21536e-07
4.56324e-07
-1.04036e-06
4.83997e-07
-1.16357e-06
5.11177e-07
-1.28973e-06
5.35727e-07
-1.41733e-06
5.55342e-07
-1.54511e-06
5.68043e-07
-1.67247e-06
5.72577e-07
-1.79969e-06
5.68491e-07
-1.9279e-06
5.55742e-07
-2.05861e-06
5.33819e-07
-2.19268e-06
5.00584e-07
-2.32889e-06
4.51434e-07
-2.46269e-06
3.79524e-07
-2.58585e-06
2.77381e-07
-2.68627e-06
1.39517e-07
-2.7544e-06
-3.52118e-08
-2.77819e-06
-2.43599e-07
-2.74784e-06
-4.76327e-07
-2.65327e-06
-7.22926e-07
-2.48614e-06
-9.64176e-07
-2.24325e-06
-1.17881e-06
-1.9251e-06
-1.33977e-06
-1.53664e-06
-1.41609e-06
-1.10281e-06
-1.37264e-06
-6.73588e-07
-1.18202e-06
-3.1978e-07
-8.51726e-07
-1.06066e-07
-4.50603e-07
-2.21607e-08
-1.20487e-07
2.40571e-09
6.80652e-08
1.38033e-07
-5.02753e-08
1.49925e-07
-1.20372e-07
2.63297e-07
-1.93997e-07
3.21439e-07
-2.70188e-07
3.62149e-07
-3.49947e-07
3.94842e-07
-4.34209e-07
4.2332e-07
-5.23632e-07
4.50187e-07
-6.18658e-07
4.7732e-07
-7.1954e-07
5.05931e-07
-8.26309e-07
5.36505e-07
-9.38714e-07
5.68729e-07
-1.0562e-06
6.01479e-07
-1.17797e-06
6.32948e-07
-1.30321e-06
6.60972e-07
-1.4314e-06
6.83531e-07
-1.56265e-06
6.99287e-07
-1.698e-06
7.07927e-07
-1.83957e-06
7.10065e-07
-1.99027e-06
7.06437e-07
-2.15278e-06
6.96333e-07
-2.32782e-06
6.75625e-07
-2.51195e-06
6.35561e-07
-2.69635e-06
5.63929e-07
-2.8679e-06
4.48932e-07
-3.01265e-06
2.84265e-07
-3.11851e-06
7.06502e-08
-3.1782e-06
-1.83912e-07
-3.18643e-06
-4.68103e-07
-3.14015e-06
-7.69197e-07
-3.03221e-06
-1.07212e-06
-2.84852e-06
-1.36249e-06
-2.57533e-06
-1.61296e-06
-2.20191e-06
-1.78951e-06
-1.73031e-06
-1.84425e-06
-1.19214e-06
-1.72019e-06
-6.57913e-07
-1.38595e-06
-2.56169e-07
-8.52347e-07
-7.55432e-08
-3.01113e-07
-1.4131e-08
6.65306e-09
1.23902e-07
-5.34035e-08
2.03328e-07
-1.25888e-07
3.35781e-07
-2.01186e-07
3.96737e-07
-2.78263e-07
4.39226e-07
-3.58109e-07
4.74687e-07
-4.41768e-07
5.06979e-07
-5.30028e-07
5.38447e-07
-6.23419e-07
5.70711e-07
-7.22232e-07
6.04745e-07
-8.26527e-07
6.408e-07
-9.3614e-07
6.78342e-07
-1.05076e-06
7.16097e-07
-1.17008e-06
7.52266e-07
-1.29406e-06
7.84957e-07
-1.42327e-06
8.12739e-07
-1.55915e-06
8.35169e-07
-1.70424e-06
8.5302e-07
-1.86205e-06
8.67871e-07
-2.03627e-06
8.8066e-07
-2.22902e-06
8.89083e-07
-2.4381e-06
8.84706e-07
-2.65471e-06
8.52167e-07
-2.86347e-06
7.72689e-07
-3.0469e-06
6.32367e-07
-3.19119e-06
4.28555e-07
-3.28951e-06
1.6897e-07
-3.34105e-06
-1.32371e-07
-3.35291e-06
-4.5625e-07
-3.3284e-06
-7.93703e-07
-3.26559e-06
-1.13494e-06
-3.15808e-06
-1.46999e-06
-2.98866e-06
-1.78238e-06
-2.72918e-06
-2.04899e-06
-2.34284e-06
-2.23059e-06
-1.81175e-06
-2.25127e-06
-1.17284e-06
-2.02487e-06
-5.40594e-07
-1.48459e-06
-1.55404e-07
-6.86302e-07
-2.94997e-08
-1.19252e-07
9.44024e-08
-5.43114e-08
2.5764e-07
-1.2714e-07
4.0861e-07
-2.02506e-07
4.72103e-07
-2.79172e-07
5.15891e-07
-3.57972e-07
5.53488e-07
-4.39927e-07
5.88934e-07
-5.2586e-07
6.2438e-07
-6.16352e-07
6.61203e-07
-7.11749e-07
7.00143e-07
-8.12203e-07
7.41254e-07
-9.17737e-07
7.83877e-07
-1.02838e-06
8.26742e-07
-1.14439e-06
8.68272e-07
-1.2665e-06
9.07067e-07
-1.39623e-06
9.42472e-07
-1.53609e-06
9.75031e-07
-1.68957e-06
1.00649e-06
-1.8606e-06
1.03891e-06
-2.0522e-06
1.07226e-06
-2.26385e-06
1.10073e-06
-2.48883e-06
1.10968e-06
-2.71262e-06
1.07596e-06
-2.91639e-06
9.76462e-07
-3.08424e-06
8.00215e-07
-3.20889e-06
5.532e-07
-3.29241e-06
2.52494e-07
-3.33941e-06
-8.53762e-08
-3.35432e-06
-4.41338e-07
-3.33965e-06
-8.08371e-07
-3.29628e-06
-1.1783e-06
-3.22353e-06
-1.54274e-06
-3.11293e-06
-1.89299e-06
-2.94799e-06
-2.21392e-06
-2.69998e-06
-2.4786e-06
-2.30941e-06
-2.64184e-06
-1.73148e-06
-2.60279e-06
-9.89399e-07
-2.22667e-06
-3.10246e-07
-1.36545e-06
-4.06717e-08
-3.88826e-07
5.37307e-08
-5.35427e-08
3.11183e-07
-1.25037e-07
4.80103e-07
-1.99084e-07
5.46151e-07
-2.74156e-07
5.90963e-07
-3.50861e-07
6.30194e-07
-4.30112e-07
6.68184e-07
-5.12705e-07
7.06973e-07
-5.99239e-07
7.47736e-07
-6.90118e-07
7.91022e-07
-7.85612e-07
8.36748e-07
-8.85962e-07
8.84227e-07
-9.9155e-07
9.3233e-07
-1.10313e-06
9.79848e-07
-1.22205e-06
1.02599e-06
-1.35052e-06
1.07094e-06
-1.49159e-06
1.1161e-06
-1.64894e-06
1.16384e-06
-1.8259e-06
1.21587e-06
-2.02356e-06
1.26992e-06
-2.23835e-06
1.31552e-06
-2.45933e-06
1.33066e-06
-2.66861e-06
1.28524e-06
-2.8485e-06
1.15635e-06
-2.98867e-06
9.40389e-07
-3.08824e-06
6.52768e-07
-3.1518e-06
3.16056e-07
-3.18589e-06
-5.12819e-08
-3.1973e-06
-4.2993e-07
-3.18881e-06
-8.16863e-07
-3.163e-06
-1.20411e-06
-3.1186e-06
-1.58715e-06
-3.05009e-06
-1.9615e-06
-2.94534e-06
-2.31867e-06
-2.78322e-06
-2.64073e-06
-2.53032e-06
-2.89475e-06
-2.12022e-06
-3.01288e-06
-1.48713e-06
-2.85977e-06
-6.3772e-07
-2.21486e-06
-8.17659e-08
-9.4478e-07
-2.80351e-08
-5.14297e-08
3.62612e-07
-1.2024e-07
5.48913e-07
-1.918e-07
6.17711e-07
-2.64224e-07
6.63387e-07
-3.37875e-07
7.03844e-07
-4.13512e-07
7.43822e-07
-4.91864e-07
7.85325e-07
-5.73516e-07
8.29388e-07
-6.58916e-07
8.76422e-07
-7.48442e-07
9.26275e-07
-8.42529e-07
9.78313e-07
-9.41841e-07
1.03164e-06
-1.04748e-06
1.08549e-06
-1.16118e-06
1.13969e-06
-1.2854e-06
1.19516e-06
-1.42321e-06
1.25391e-06
-1.57776e-06
1.31839e-06
-1.751e-06
1.38912e-06
-1.94205e-06
1.46096e-06
-2.14486e-06
1.51833e-06
-2.34548e-06
1.53129e-06
-2.52632e-06
1.46608e-06
-2.67352e-06
1.30355e-06
-2.78206e-06
1.04893e-06
-2.85467e-06
7.25374e-07
-2.89798e-06
3.59376e-07
-2.91904e-06
-3.023e-08
-2.92183e-06
-4.27139e-07
-2.91227e-06
-8.26422e-07
-2.89377e-06
-1.22261e-06
-2.86704e-06
-1.61388e-06
-2.82907e-06
-1.99947e-06
-2.77118e-06
-2.37655e-06
-2.67591e-06
-2.736e-06
-2.51635e-06
-3.05431e-06
-2.24942e-06
-3.27982e-06
-1.79976e-06
-3.30942e-06
-1.06336e-06
-2.95126e-06
-2.19705e-07
-1.78844e-06
-2.4774e-07
-4.81698e-08
4.10782e-07
-1.13318e-07
6.14061e-07
-1.81386e-07
6.8578e-07
-2.50233e-07
7.32234e-07
-3.19967e-07
7.73579e-07
-3.91176e-07
8.15031e-07
-4.64484e-07
8.58633e-07
-5.40435e-07
9.05339e-07
-6.19492e-07
9.55479e-07
-7.02106e-07
1.00889e-06
-7.88838e-07
1.06504e-06
-8.80519e-07
1.12332e-06
-9.78412e-07
1.18338e-06
-1.08433e-06
1.24561e-06
-1.20061e-06
1.31143e-06
-1.32984e-06
1.38315e-06
-1.47418e-06
1.46273e-06
-1.6342e-06
1.54914e-06
-1.80772e-06
1.63448e-06
-1.98678e-06
1.6974e-06
-2.15726e-06
1.70176e-06
-2.30483e-06
1.61365e-06
-2.42026e-06
1.41898e-06
-2.50218e-06
1.13085e-06
-2.55484e-06
7.78035e-07
-2.58425e-06
3.88781e-07
-2.59648e-06
-1.79958e-08
-2.59541e-06
-4.28208e-07
-2.58624e-06
-8.35595e-07
-2.57266e-06
-1.23619e-06
-2.55652e-06
-1.63003e-06
-2.5366e-06
-2.01938e-06
-2.50687e-06
-2.40629e-06
-2.45448e-06
-2.78838e-06
-2.35723e-06
-3.15155e-06
-2.17978e-06
-3.45727e-06
-1.87518e-06
-3.61402e-06
-1.3653e-06
-3.46115e-06
-4.79841e-07
-2.67389e-06
-7.27581e-07
-4.40357e-08
4.54818e-07
-1.04709e-07
6.74735e-07
-1.68452e-07
7.49523e-07
-2.32923e-07
7.96704e-07
-2.97991e-07
8.38647e-07
-3.64058e-07
8.81098e-07
-4.31622e-07
9.26197e-07
-5.01157e-07
9.74874e-07
-5.73103e-07
1.02743e-06
-6.4793e-07
1.08372e-06
-7.26241e-07
1.14336e-06
-8.08901e-07
1.20598e-06
-8.97137e-07
1.27162e-06
-9.92576e-07
1.34105e-06
-1.09712e-06
1.41598e-06
-1.2126e-06
1.49863e-06
-1.34006e-06
1.59019e-06
-1.47917e-06
1.68826e-06
-1.62699e-06
1.78229e-06
-1.77494e-06
1.84535e-06
-1.9118e-06
1.83862e-06
-2.02737e-06
1.72923e-06
-2.11634e-06
1.50795e-06
-2.17903e-06
1.19354e-06
-2.21931e-06
8.18306e-07
-2.24153e-06
4.11005e-07
-2.25012e-06
-9.40921e-09
-2.24845e-06
-4.29876e-07
-2.24082e-06
-8.43226e-07
-2.23092e-06
-1.24608e-06
-2.22143e-06
-1.63952e-06
-2.21269e-06
-2.02812e-06
-2.201e-06
-2.41798e-06
-2.17651e-06
-2.81286e-06
-2.12086e-06
-3.20721e-06
-2.00428e-06
-3.57385e-06
-1.78217e-06
-3.83613e-06
-1.39806e-06
-3.84526e-06
-7.25759e-07
-3.34619e-06
-1.45334e-06
-3.92608e-08
4.94079e-07
-9.4793e-08
7.30267e-07
-1.53528e-07
8.08258e-07
-2.12959e-07
8.56135e-07
-2.72733e-07
8.9842e-07
-3.33058e-07
9.41423e-07
-3.94291e-07
9.87431e-07
-4.56809e-07
1.03739e-06
-5.2099e-07
1.09161e-06
-5.87267e-07
1.14999e-06
-6.56197e-07
1.21229e-06
-7.28555e-07
1.27834e-06
-8.0537e-07
1.34843e-06
-8.87892e-07
1.42357e-06
-9.77405e-07
1.50549e-06
-1.07486e-06
1.59608e-06
-1.18039e-06
1.69572e-06
-1.2932e-06
1.80106e-06
-1.41013e-06
1.89923e-06
-1.52374e-06
1.95896e-06
-1.62716e-06
1.94204e-06
-1.71426e-06
1.81633e-06
-1.78244e-06
1.57613e-06
-1.83226e-06
1.24336e-06
-1.86598e-06
8.52027e-07
-1.88597e-06
4.30988e-07
-1.89482e-06
-5.59196e-10
-1.89514e-06
-4.2955e-07
-1.8904e-06
-8.47968e-07
-1.8842e-06
-1.25228e-06
-1.87971e-06
-1.64401e-06
-1.87837e-06
-2.02946e-06
-1.87826e-06
-2.41809e-06
-1.87207e-06
-2.81905e-06
-1.84418e-06
-3.2351e-06
-1.76737e-06
-3.65066e-06
-1.59376e-06
-4.00974e-06
-1.29522e-06
-4.14381e-06
-8.10679e-07
-3.83073e-06
-2.26402e-06
-3.40371e-08
5.28116e-07
-8.39075e-08
7.80137e-07
-1.37095e-07
8.61445e-07
-1.90957e-07
9.09998e-07
-2.44932e-07
9.52394e-07
-2.99038e-07
9.95529e-07
-3.53478e-07
1.04187e-06
-4.0851e-07
1.09242e-06
-4.64417e-07
1.14751e-06
-5.2154e-07
1.20711e-06
-5.80323e-07
1.27107e-06
-6.41351e-07
1.33937e-06
-7.05349e-07
1.41243e-06
-7.73083e-07
1.4913e-06
-8.45163e-07
1.57757e-06
-9.21705e-07
1.67262e-06
-1.00214e-06
1.77615e-06
-1.08539e-06
1.88431e-06
-1.16965e-06
1.98349e-06
-1.24784e-06
2.03714e-06
-1.31921e-06
2.01342e-06
-1.3811e-06
1.87821e-06
-1.43262e-06
1.62766e-06
-1.47372e-06
1.28447e-06
-1.50464e-06
8.82939e-07
-1.5257e-06
4.52048e-07
-1.53782e-06
1.15668e-08
-1.54267e-06
-4.24708e-07
-1.54295e-06
-8.47678e-07
-1.54214e-06
-1.2531e-06
-1.54361e-06
-1.64254e-06
-1.54946e-06
-2.02361e-06
-1.55884e-06
-2.40871e-06
-1.56619e-06
-2.8117e-06
-1.55839e-06
-3.24291e-06
-1.51111e-06
-3.69794e-06
-1.38334e-06
-4.13751e-06
-1.13885e-06
-4.3883e-06
-7.05543e-07
-4.26403e-06
-2.96956e-06
-2.85334e-08
5.56649e-07
-7.23629e-08
8.23967e-07
-1.19599e-07
9.08682e-07
-1.67498e-07
9.57897e-07
-2.153e-07
1.0002e-06
-2.62838e-07
1.04307e-06
-3.10159e-07
1.08919e-06
-3.57385e-07
1.13965e-06
-4.0468e-07
1.19481e-06
-4.52255e-07
1.25469e-06
-5.00391e-07
1.31921e-06
-5.49438e-07
1.38842e-06
-5.99763e-07
1.46276e-06
-6.51626e-07
1.54317e-06
-7.04986e-07
1.63093e-06
-7.59316e-07
1.72695e-06
-8.13664e-07
1.8305e-06
-8.66752e-07
1.9374e-06
-9.16975e-07
2.03371e-06
-9.5997e-07
2.08014e-06
-1.00101e-06
2.05446e-06
-1.03972e-06
1.91692e-06
-1.07659e-06
1.66453e-06
-1.11089e-06
1.31877e-06
-1.14089e-06
9.12932e-07
-1.165e-06
4.76161e-07
-1.1826e-06
2.91671e-08
-1.19428e-06
-4.13031e-07
-1.20206e-06
-8.39899e-07
-1.20909e-06
-1.24607e-06
-1.21879e-06
-1.63284e-06
-1.23348e-06
-2.00893e-06
-1.2529e-06
-2.38929e-06
-1.27257e-06
-2.79203e-06
-1.28187e-06
-3.23361e-06
-1.26014e-06
-3.71967e-06
-1.17404e-06
-4.2236e-06
-9.66259e-07
-4.59608e-06
-6.09382e-07
-4.62091e-06
-3.57895e-06
-2.29049e-08
5.79554e-07
-6.04501e-08
8.61512e-07
-1.01468e-07
9.497e-07
-1.43141e-07
9.9957e-07
-1.8453e-07
1.04158e-06
-2.25292e-07
1.08383e-06
-2.65318e-07
1.12922e-06
-3.04589e-07
1.17892e-06
-3.43131e-07
1.23335e-06
-3.81008e-07
1.29257e-06
-4.18312e-07
1.35651e-06
-4.55133e-07
1.42524e-06
-4.91488e-07
1.49911e-06
-5.27178e-07
1.57886e-06
-5.61634e-07
1.66539e-06
-5.93828e-07
1.75915e-06
-6.22406e-07
1.85908e-06
-6.4579e-07
1.96078e-06
-6.62648e-07
2.05057e-06
-6.73692e-07
2.09118e-06
-6.84695e-07
2.06546e-06
-7.00351e-07
1.93258e-06
-7.224e-07
1.68658e-06
-7.49723e-07
1.34609e-06
-7.78998e-07
9.42208e-07
-8.06929e-07
5.04092e-07
-8.31427e-07
5.36652e-08
-8.51969e-07
-3.9249e-07
-8.69796e-07
-8.22072e-07
-8.87604e-07
-1.22826e-06
-9.08552e-07
-1.61189e-06
-9.34895e-07
-1.98258e-06
-9.66596e-07
-2.35759e-06
-9.99767e-07
-2.75886e-06
-1.02516e-06
-3.20821e-06
-1.02492e-06
-3.71992e-06
-9.71435e-07
-4.27709e-06
-8.03729e-07
-4.76378e-06
-5.07785e-07
-4.91685e-06
-4.08673e-06
-1.72977e-08
5.96852e-07
-4.84482e-08
8.92662e-07
-8.31025e-08
9.84355e-07
-1.18405e-07
1.03487e-06
-1.5326e-07
1.07644e-06
-1.87166e-07
1.11774e-06
-2.1986e-07
1.16191e-06
-2.51181e-07
1.21024e-06
-2.81015e-07
1.26319e-06
-3.09272e-07
1.32082e-06
-3.35857e-07
1.38309e-06
-3.60616e-07
1.45e-06
-3.83255e-07
1.52175e-06
-4.03207e-07
1.59881e-06
-4.19502e-07
1.68169e-06
-4.30734e-07
1.77038e-06
-4.35145e-07
1.86349e-06
-4.30881e-07
1.95652e-06
-4.17206e-07
2.0369e-06
-3.99492e-07
2.07347e-06
-3.81575e-07
2.04755e-06
-3.73103e-07
1.9241e-06
-3.78383e-07
1.69186e-06
-3.96712e-07
1.36442e-06
-4.23883e-07
9.69378e-07
-4.55189e-07
5.35398e-07
-4.87184e-07
8.56599e-08
-5.18159e-07
-3.61515e-07
-5.48399e-07
-7.91832e-07
-5.79885e-07
-1.19677e-06
-6.15232e-07
-1.57655e-06
-6.56332e-07
-1.94148e-06
-7.03101e-07
-2.31082e-06
-7.52087e-07
-2.70987e-06
-7.94978e-07
-3.16532e-06
-8.16633e-07
-3.69826e-06
-7.93371e-07
-4.30035e-06
-6.64012e-07
-4.89314e-06
-4.18094e-07
-5.16277e-06
-4.50482e-06
-1.18286e-08
6.0868e-07
-3.65854e-08
9.17419e-07
-6.48486e-08
1.01262e-06
-9.3755e-08
1.06378e-06
-1.22077e-07
1.10476e-06
-1.49164e-07
1.14482e-06
-1.7461e-07
1.18736e-06
-1.98122e-07
1.23375e-06
-2.19455e-07
1.28452e-06
-2.38374e-07
1.33974e-06
-2.54615e-07
1.39933e-06
-2.67828e-07
1.46321e-06
-2.77479e-07
1.5314e-06
-2.8274e-07
1.60407e-06
-2.82383e-07
1.68133e-06
-2.74759e-07
1.76275e-06
-2.57891e-07
1.84662e-06
-2.29848e-07
1.92847e-06
-1.90132e-07
1.99718e-06
-1.45698e-07
2.02903e-06
-1.01294e-07
2.00314e-06
-6.8504e-08
1.89131e-06
-5.45773e-08
1.67793e-06
-6.05024e-08
1.37034e-06
-8.2637e-08
9.91513e-07
-1.15599e-07
5.68361e-07
-1.5469e-07
1.2475e-07
-1.96938e-07
-3.19267e-07
-2.4143e-07
-7.4734e-07
-2.89e-07
-1.1492e-06
-3.41392e-07
-1.52415e-06
-3.99822e-07
-1.88306e-06
-4.6399e-07
-2.24665e-06
-5.30799e-07
-2.64306e-06
-5.9257e-07
-3.10355e-06
-6.35447e-07
-3.65538e-06
-6.36134e-07
-4.29966e-06
-5.51215e-07
-4.97806e-06
-3.50044e-07
-5.36394e-06
-4.85487e-06
-6.62983e-09
6.1531e-07
-2.51117e-08
9.35901e-07
-4.70694e-08
1.03458e-06
-6.96641e-08
1.08637e-06
-9.15556e-08
1.12665e-06
-1.11967e-07
1.16524e-06
-1.30368e-07
1.20576e-06
-1.46346e-07
1.24973e-06
-1.59539e-07
1.29771e-06
-1.6959e-07
1.34979e-06
-1.76104e-07
1.40585e-06
-1.78581e-07
1.46569e-06
-1.7633e-07
1.52915e-06
-1.68366e-07
1.59611e-06
-1.53332e-07
1.6663e-06
-1.29497e-07
1.73892e-06
-9.48521e-08
1.81197e-06
-4.75318e-08
1.88115e-06
1.25735e-08
1.93707e-06
7.98037e-08
1.9618e-06
1.47527e-07
1.93542e-06
2.04062e-07
1.83478e-06
2.39103e-07
1.64289e-06
2.48683e-07
1.36076e-06
2.34927e-07
1.00527e-06
2.03027e-07
6.0026e-07
1.58402e-07
1.69376e-07
1.05218e-07
-2.66083e-07
4.58472e-08
-6.87969e-07
-1.92942e-08
-1.08406e-06
-9.03524e-08
-1.45309e-06
-1.67616e-07
-1.80579e-06
-2.50479e-07
-2.16379e-06
-3.36051e-07
-2.55749e-06
-4.17166e-07
-3.02244e-06
-4.80875e-07
-3.59167e-06
-5.0464e-07
-4.2759e-06
-4.55504e-07
-5.0272e-06
-2.94664e-07
-5.52478e-06
-5.14953e-06
-1.82419e-09
6.17134e-07
-1.42546e-08
9.48331e-07
-3.01139e-08
1.05043e-06
-4.65867e-08
1.10285e-06
-6.22549e-08
1.14232e-06
-7.62384e-08
1.17922e-06
-8.79032e-08
1.21742e-06
-9.67365e-08
1.25856e-06
-1.02282e-07
1.30326e-06
-1.04089e-07
1.3516e-06
-1.01668e-07
1.40343e-06
-9.44273e-08
1.45845e-06
-8.15939e-08
1.51632e-06
-6.21212e-08
1.57663e-06
-3.46459e-08
1.63882e-06
2.51982e-09
1.70175e-06
5.12188e-08
1.76328e-06
1.13074e-07
1.8193e-06
1.88129e-07
1.86202e-06
2.722e-07
1.87773e-06
3.5827e-07
1.84935e-06
4.35201e-07
1.75785e-06
4.90798e-07
1.58729e-06
5.1803e-07
1.33353e-06
5.16226e-07
1.00707e-06
4.8899e-07
6.27496e-07
4.41624e-07
2.16742e-07
3.79162e-07
-2.03621e-07
3.05593e-07
-6.14401e-07
2.23435e-07
-1.0019e-06
1.33905e-07
-1.36357e-06
3.77277e-08
-1.70961e-06
-6.39697e-08
-2.06209e-06
-1.68337e-07
-2.45312e-06
-2.68774e-07
-2.922e-06
-3.52995e-07
-3.50745e-06
-4.00251e-07
-4.22864e-06
-3.80436e-07
-5.04701e-06
-2.53228e-07
-5.65199e-06
-5.40276e-06
2.47625e-09
6.14658e-07
-4.26586e-09
9.55074e-07
-1.42885e-08
1.06046e-06
-2.49103e-08
1.11347e-06
-3.46476e-08
1.15206e-06
-4.25382e-08
1.18711e-06
-4.78627e-08
1.22275e-06
-5.00297e-08
1.26073e-06
-4.85114e-08
1.30174e-06
-4.27955e-08
1.34589e-06
-3.23337e-08
1.39297e-06
-1.64964e-08
1.44261e-06
5.50992e-09
1.49431e-06
3.46808e-08
1.54746e-06
7.23003e-08
1.6012e-06
1.19871e-07
1.65418e-06
1.78996e-07
1.70415e-06
2.51008e-07
1.74729e-06
3.35907e-07
1.77712e-06
4.30532e-07
1.78311e-06
5.28574e-07
1.75131e-06
6.20081e-07
1.66634e-06
6.92885e-07
1.51449e-06
7.37276e-07
1.28914e-06
7.49304e-07
9.95046e-07
7.30101e-07
6.46699e-07
6.8372e-07
2.63123e-07
6.15443e-07
-1.35344e-07
5.30697e-07
-5.29655e-07
4.33702e-07
-9.04906e-07
3.27482e-07
-1.25735e-06
2.14002e-07
-1.59614e-06
9.49546e-08
-1.94304e-06
-2.69079e-08
-2.33126e-06
-1.45337e-07
-2.80357e-06
-2.48381e-07
-3.40441e-06
-3.16494e-07
-4.16053e-06
-3.21888e-07
-5.04162e-06
-2.20912e-07
-5.75297e-06
-5.62367e-06
6.05326e-09
6.08605e-07
4.67126e-09
9.56456e-07
1.20877e-10
1.06501e-06
-4.98408e-09
1.11857e-06
-9.15184e-09
1.15623e-06
-1.13461e-08
1.1893e-06
-1.07818e-08
1.22218e-06
-6.80999e-09
1.25676e-06
1.14532e-09
1.29378e-06
1.36285e-08
1.3334e-06
3.11928e-08
1.3754e-06
5.44762e-08
1.41932e-06
8.42221e-08
1.46456e-06
1.2135e-07
1.51033e-06
1.6696e-07
1.55559e-06
2.22307e-07
1.59883e-06
2.88664e-07
1.63779e-06
3.66995e-07
1.66896e-06
4.57227e-07
1.68689e-06
5.56898e-07
1.68343e-06
6.60632e-07
1.64757e-06
7.59934e-07
1.56704e-06
8.43887e-07
1.43053e-06
9.01838e-07
1.23119e-06
9.27023e-07
9.69862e-07
9.17658e-07
6.56063e-07
8.75803e-07
3.04979e-07
8.06007e-07
-6.55479e-08
7.14427e-07
-4.38075e-07
6.06729e-07
-7.97208e-07
4.87571e-07
-1.13819e-06
3.60063e-07
-1.46863e-06
2.26343e-07
-1.80932e-06
8.91779e-08
-2.19409e-06
-4.54351e-08
-2.66896e-06
-1.65644e-07
-3.2842e-06
-2.52387e-07
-4.07379e-06
-2.79594e-07
-5.01441e-06
-1.99042e-07
-5.83352e-06
-5.82272e-06
9.31543e-09
5.9929e-07
1.25981e-08
9.53173e-07
1.2976e-08
1.06463e-06
1.2901e-08
1.11865e-06
1.38632e-08
1.15526e-06
1.69148e-08
1.18625e-06
2.28768e-08
1.21622e-06
3.24302e-08
1.24721e-06
4.61703e-08
1.28004e-06
6.46487e-08
1.31492e-06
8.84156e-08
1.35164e-06
1.1805e-07
1.38969e-06
1.54215e-07
1.4284e-06
1.97686e-07
1.46686e-06
2.49357e-07
1.50392e-06
3.10196e-07
1.538e-06
3.81119e-07
1.56687e-06
4.62712e-07
1.58736e-06
5.54725e-07
1.59488e-06
6.55161e-07
1.583e-06
7.59465e-07
1.54327e-06
8.60538e-07
1.46597e-06
9.49002e-07
1.34207e-06
1.0148e-06
1.16539e-06
1.04982e-06
9.34837e-07
1.04985e-06
6.56032e-07
1.01464e-06
3.40195e-07
9.47545e-07
1.54381e-09
8.54074e-07
-3.44605e-07
7.40864e-07
-6.83997e-07
6.13564e-07
-1.01089e-06
4.76166e-07
-1.33123e-06
3.31341e-07
-1.6645e-06
1.81938e-07
-2.04469e-06
3.37239e-08
-2.52074e-06
-1.0123e-07
-3.14925e-06
-2.03523e-07
-3.97149e-06
-2.48412e-07
-4.96952e-06
-1.83505e-07
-5.89843e-06
-6.00622e-06
1.18578e-08
5.87432e-07
1.91714e-08
9.45859e-07
2.39659e-08
1.05984e-06
2.84447e-08
1.11417e-06
3.40612e-08
1.14965e-06
4.18772e-08
1.17844e-06
5.27293e-08
1.20537e-06
6.73083e-08
1.23263e-06
8.62074e-08
1.26114e-06
1.09959e-07
1.29117e-06
1.39067e-07
1.32253e-06
1.74043e-07
1.35471e-06
2.15436e-07
1.38701e-06
2.63855e-07
1.41844e-06
3.19965e-07
1.44781e-06
3.8444e-07
1.47352e-06
4.57846e-07
1.49346e-06
5.40421e-07
1.50479e-06
6.31692e-07
1.50361e-06
7.29881e-07
1.48481e-06
8.31186e-07
1.44196e-06
9.29638e-07
1.36751e-06
1.01735e-06
1.25435e-06
1.08548e-06
1.09727e-06
1.12587e-06
8.94439e-07
1.13304e-06
6.48868e-07
1.10492e-06
3.6831e-07
1.04313e-06
6.33399e-08
9.52105e-07
-2.53582e-07
8.38237e-07
-5.7013e-07
7.07533e-07
-8.80182e-07
5.64596e-07
-1.18829e-06
4.12519e-07
-1.51242e-06
2.54151e-07
-1.88632e-06
9.50119e-08
-2.36161e-06
-5.26562e-08
-3.00158e-06
-1.6867e-07
-3.85548e-06
-2.28075e-07
-4.91012e-06
-1.76786e-07
-5.94972e-06
-6.18301e-06
1.36325e-08
5.73799e-07
2.4291e-08
9.35201e-07
3.28926e-08
1.05123e-06
4.13778e-08
1.10568e-06
5.11371e-08
1.13989e-06
6.32195e-08
1.16635e-06
7.84558e-08
1.19013e-06
9.75246e-08
1.21356e-06
1.20994e-07
1.23767e-06
1.49354e-07
1.26281e-06
1.83044e-07
1.28884e-06
2.22484e-07
1.31527e-06
2.68093e-07
1.3414e-06
3.20305e-07
1.36623e-06
3.79556e-07
1.38856e-06
4.46241e-07
1.40684e-06
5.20609e-07
1.4191e-06
6.02586e-07
1.42281e-06
6.9148e-07
1.41471e-06
7.85598e-07
1.39069e-06
8.8177e-07
1.34579e-06
9.74935e-07
1.27435e-06
1.05852e-06
1.17077e-06
1.12496e-06
1.03082e-06
1.16686e-06
8.52546e-07
1.17838e-06
6.3735e-07
1.15637e-06
3.90316e-07
1.10085e-06
1.18856e-07
1.01497e-06
-1.67693e-07
9.04102e-07
-4.59266e-07
7.74061e-07
-7.50141e-07
6.29569e-07
-1.0438e-06
4.7381e-07
-1.35666e-06
3.0957e-07
-1.72208e-06
1.42277e-07
-2.19431e-06
-1.57078e-08
-2.84359e-06
-1.43291e-07
-3.72789e-06
-2.13347e-07
-4.84006e-06
-1.74321e-07
-5.98874e-06
-6.35733e-06
1.46132e-08
5.59186e-07
2.78208e-08
9.21993e-07
3.95458e-08
1.03951e-06
5.14378e-08
1.09379e-06
6.4801e-08
1.12652e-06
8.06483e-08
1.15051e-06
9.97819e-08
1.171e-06
1.22845e-07
1.19049e-06
1.50359e-07
1.21016e-06
1.82751e-07
1.23042e-06
2.2038e-07
1.25121e-06
2.63557e-07
1.2721e-06
3.12564e-07
1.29239e-06
3.67663e-07
1.31113e-06
4.29074e-07
1.32715e-06
4.9694e-07
1.33897e-06
5.71237e-07
1.3448e-06
6.51629e-07
1.34242e-06
7.37255e-07
1.32909e-06
8.26449e-07
1.3015e-06
9.16452e-07
1.25579e-06
1.00306e-06
1.18774e-06
1.08076e-06
1.09307e-06
1.1432e-06
9.68387e-07
1.18391e-06
8.11838e-07
1.19734e-06
6.23914e-07
1.17989e-06
4.07764e-07
1.13051e-06
1.68243e-07
1.05093e-06
-8.8121e-08
9.45362e-07
-3.53693e-07
8.18889e-07
-6.23667e-07
6.75937e-07
-9.00851e-07
5.19558e-07
-1.20028e-06
3.52308e-07
-1.55483e-06
1.79252e-07
-2.02126e-06
1.2666e-08
-2.67701e-06
-1.25322e-07
-3.58991e-06
-2.04919e-07
-4.76046e-06
-1.75859e-07
-6.0178e-06
-6.53319e-06
1.4738e-08
5.44448e-07
2.96019e-08
9.07129e-07
4.36917e-08
1.02542e-06
5.83456e-08
1.07914e-06
7.47575e-08
1.11011e-06
9.38795e-08
1.13138e-06
1.1646e-07
1.14842e-06
1.43082e-07
1.16387e-06
1.74197e-07
1.17904e-06
2.1015e-07
1.19447e-06
2.51202e-07
1.21016e-06
2.9755e-07
1.22575e-06
3.49338e-07
1.2406e-06
4.0666e-07
1.25381e-06
4.69544e-07
1.26426e-06
5.37915e-07
1.2706e-06
6.11522e-07
1.27119e-06
6.89825e-07
1.26411e-06
7.71838e-07
1.24707e-06
8.55926e-07
1.21741e-06
9.39605e-07
1.17211e-06
1.01937e-06
1.10798e-06
1.09061e-06
1.02182e-06
1.14803e-06
9.10965e-07
1.18609e-06
7.73781e-07
1.19978e-06
6.10223e-07
1.18549e-06
4.22056e-07
1.14149e-06
2.12237e-07
1.06844e-06
-1.50726e-08
9.69285e-07
-2.54535e-07
8.48167e-07
-5.02549e-07
7.08956e-07
-7.61639e-07
5.54355e-07
-1.04568e-06
3.86461e-07
-1.38694e-06
2.096e-07
-1.84439e-06
3.57651e-08
-2.50317e-06
-1.11621e-07
-3.44252e-06
-1.99071e-07
-4.67301e-06
-1.79741e-07
-6.03713e-06
-6.71293e-06
1.3912e-08
5.30536e-07
2.94314e-08
8.9161e-07
4.505e-08
1.0098e-06
6.17798e-08
1.06241e-06
8.06809e-08
1.09121e-06
1.02615e-07
1.10945e-06
1.28247e-07
1.12279e-06
1.5807e-07
1.13405e-06
1.92441e-07
1.14467e-06
2.31602e-07
1.15531e-06
2.75703e-07
1.16605e-06
3.2482e-07
1.17663e-06
3.78963e-07
1.18646e-06
4.38072e-07
1.1947e-06
5.02006e-07
1.20033e-06
5.7051e-07
1.20209e-06
6.43152e-07
1.19855e-06
7.19239e-07
1.18803e-06
7.97703e-07
1.16861e-06
8.76953e-07
1.13816e-06
9.54742e-07
1.09432e-06
1.02805e-06
1.03467e-06
1.09307e-06
9.56809e-07
1.14537e-06
8.58666e-07
1.18026e-06
7.38884e-07
1.19338e-06
5.9711e-07
1.18127e-06
4.34159e-07
1.14191e-06
2.51599e-07
1.07512e-06
5.17232e-08
9.82758e-07
-1.62176e-07
8.67989e-07
-3.8778e-07
7.33998e-07
-6.27649e-07
5.82992e-07
-8.94674e-07
4.16439e-07
-1.22038e-06
2.37661e-07
-1.66562e-06
5.78712e-08
-2.32338e-06
-9.88749e-08
-3.28577e-06
-1.94475e-07
-4.57741e-06
-1.85183e-07
-6.04642e-06
-6.89811e-06
1.20239e-08
5.18512e-07
2.70603e-08
8.76573e-07
4.32691e-08
9.93592e-07
6.13467e-08
1.04433e-06
8.21868e-08
1.07037e-06
1.0652e-07
1.08512e-06
1.34885e-07
1.09442e-06
1.67651e-07
1.10128e-06
2.05047e-07
1.10728e-06
2.47192e-07
1.11316e-06
2.94113e-07
1.11913e-06
3.45762e-07
1.12498e-06
4.02018e-07
1.1302e-06
4.62687e-07
1.13403e-06
5.27485e-07
1.13553e-06
5.9601e-07
1.13357e-06
6.67693e-07
1.12687e-06
7.41737e-07
1.11398e-06
8.17026e-07
1.09332e-06
8.92029e-07
1.06315e-06
9.64708e-07
1.02164e-06
1.03244e-06
9.66935e-07
1.09202e-06
8.97232e-07
1.13973e-06
8.10956e-07
1.17165e-06
7.06963e-07
1.184e-06
5.84757e-07
1.17363e-06
4.44527e-07
1.1384e-06
2.86829e-07
1.07754e-06
1.12589e-07
9.92005e-07
-7.66427e-08
8.84062e-07
-2.79838e-07
7.5622e-07
-4.99806e-07
6.10144e-07
-7.48599e-07
4.46588e-07
-1.05683e-06
2.67664e-07
-1.48669e-06
8.29614e-08
-2.13868e-06
-8.35382e-08
-3.11928e-06
-1.89384e-07
-4.47157e-06
-1.90717e-07
-6.04509e-06
-7.08883e-06
8.86745e-09
5.09645e-07
2.20724e-08
8.63368e-07
3.78437e-08
9.7782e-07
5.65239e-08
1.02565e-06
7.87944e-08
1.0481e-06
1.05199e-07
1.05871e-06
1.36092e-07
1.06353e-06
1.71667e-07
1.06571e-06
2.11993e-07
1.06695e-06
2.5704e-07
1.06812e-06
3.06701e-07
1.06947e-06
3.60804e-07
1.07088e-06
4.1911e-07
1.0719e-06
4.81305e-07
1.07184e-06
5.46988e-07
1.06985e-06
6.15647e-07
1.06491e-06
6.86616e-07
1.0559e-06
7.59032e-07
1.04157e-06
8.31765e-07
1.02059e-06
9.03355e-07
9.91564e-07
9.71946e-07
9.53054e-07
1.03525e-06
9.03633e-07
1.09053e-06
8.41951e-07
1.13467e-06
7.66815e-07
1.16436e-06
6.77276e-07
1.17634e-06
5.72771e-07
1.16777e-06
4.53105e-07
1.13649e-06
3.181e-07
1.08133e-06
1.67749e-07
1.00255e-06
2.14106e-09
9.01617e-07
-1.78904e-07
7.80421e-07
-3.7861e-07
6.40113e-07
-6.0829e-07
4.80693e-07
-8.97409e-07
3.03004e-07
-1.309e-06
1.14713e-07
-1.95039e-06
-6.158e-08
-2.94298e-06
-1.79813e-07
-4.35334e-06
-1.93809e-07
-6.0311e-06