/*--------------------------------*- C++ -*----------------------------------*\
  =========                 |
  \\      /  F ield         | OpenFOAM: The Open Source CFD Toolbox
   \\    /   O peration     | Website:  https://openfoam.org
    \\  /    A nd           | Version:  13
     \\/     M anipulation  |
\*---------------------------------------------------------------------------*/
FoamFile
{
    format      ascii;
    class       volVectorField;
    location    "1.5";
    object      U;
}
// * * * * * * * * * * * * * * * * * * * * * * * * * * * * * * * * * * * * * //

dimensions      [0 1 -1 0 0 0 0];

internalField   nonuniform List<vector> 
400
(
(-3.57267e-05 4.17663e-05 0)
(-0.00104897 0.000613827 0)
(-0.00314165 0.00104762 0)
(-0.00565102 0.00123733 0)
(-0.00838291 0.00132012 0)
(-0.0112373 0.00137748 0)
(-0.0141935 0.0014369 0)
(-0.0172475 0.00150079 0)
(-0.0203788 0.0015543 0)
(-0.0235218 0.00156548 0)
(-0.0265438 0.00148277 0)
(-0.0292554 0.00122843 0)
(-0.0312242 0.000742246 0)
(-0.0320031 0.000218465 0)
(-0.0313543 -0.000924652 0)
(-0.0284059 -0.00214354 0)
(-0.0231686 -0.00331995 0)
(-0.0160085 -0.00389418 0)
(-0.0080761 -0.00323652 0)
(-0.00184684 -0.00176369 0)
(-0.000605738 0.00105095 0)
(-0.00261937 0.0027226 0)
(-0.00529763 0.00374316 0)
(-0.00834345 0.00425462 0)
(-0.0116104 0.00451919 0)
(-0.0150247 0.00469381 0)
(-0.0185543 0.00483862 0)
(-0.0221692 0.0049531 0)
(-0.0258233 0.00499288 0)
(-0.0294336 0.00487517 0)
(-0.0328606 0.00448315 0)
(-0.035901 0.00367047 0)
(-0.0382602 0.00229151 0)
(-0.0395061 0.000237616 0)
(-0.0391184 -0.00259386 0)
(-0.0365021 -0.00609716 0)
(-0.031146 -0.00965936 0)
(-0.0230741 -0.0121038 0)
(-0.0129825 -0.0118926 0)
(-0.00313034 -0.0077603 0)
(-0.00110785 0.00310814 0)
(-0.00361232 0.0053445 0)
(-0.00639964 0.00661605 0)
(-0.00945925 0.00735763 0)
(-0.0127203 0.00781168 0)
(-0.0161477 0.00813377 0)
(-0.0197235 0.00839037 0)
(-0.0234239 0.00857678 0)
(-0.0272143 0.00862866 0)
(-0.0310359 0.00842662 0)
(-0.0347897 0.0078019 0)
(-0.038325 0.00654817 0)
(-0.0413952 0.00442712 0)
(-0.0436054 0.00119315 0)
(-0.0443738 -0.00338016 0)
(-0.0428039 -0.00926396 0)
(-0.0378247 -0.0158399 0)
(-0.0289347 -0.0214593 0)
(-0.0168134 -0.023179 0)
(-0.00382571 -0.0164197 0)
(-0.00133425 0.00556335 0)
(-0.0040698 0.00817463 0)
(-0.00689974 0.00955623 0)
(-0.00991913 0.0104551 0)
(-0.0131031 0.0110858 0)
(-0.0164556 0.0115785 0)
(-0.019989 0.0119926 0)
(-0.0237071 0.0123187 0)
(-0.0276085 0.0124808 0)
(-0.0316795 0.0123354 0)
(-0.0358878 0.0116735 0)
(-0.0401609 0.0102245 0)
(-0.0443257 0.00762584 0)
(-0.0480246 0.00342684 0)
(-0.0505409 -0.00288299 0)
(-0.0504714 -0.0116278 0)
(-0.0458326 -0.0225093 0)
(-0.0361056 -0.0330564 0)
(-0.0222794 -0.0375302 0)
(-0.00504095 -0.0269416 0)
(-0.0013851 0.00819073 0)
(-0.00417401 0.0110974 0)
(-0.00699435 0.0125188 0)
(-0.00995564 0.0135202 0)
(-0.0130485 0.014308 0)
(-0.016304 0.014987 0)
(-0.0197667 0.0156068 0)
(-0.0234762 0.0161565 0)
(-0.0274743 0.0165579 0)
(-0.0318033 0.0166577 0)
(-0.0365114 0.0162245 0)
(-0.0416215 0.0149303 0)
(-0.0470812 0.0122896 0)
(-0.0526056 0.00755577 0)
(-0.0571617 -0.000476985 0)
(-0.0587311 -0.013154 0)
(-0.0540599 -0.0300364 0)
(-0.0441603 -0.0464298 0)
(-0.0296295 -0.0543114 0)
(-0.00879418 -0.0421874 0)
(-0.00134283 0.0108067 0)
(-0.00406784 0.0139902 0)
(-0.00682032 0.0154286 0)
(-0.00968926 0.0164989 0)
(-0.0126653 0.0174244 0)
(-0.0157932 0.0182978 0)
(-0.0191421 0.0191646 0)
(-0.022784 0.0200193 0)
(-0.0268005 0.0207923 0)
(-0.0312881 0.0213378 0)
(-0.036368 0.0214235 0)
(-0.0421524 0.0206763 0)
(-0.0487099 0.0184474 0)
(-0.0557084 0.0133965 0)
(-0.0614608 0.00305748 0)
(-0.0627344 -0.0147808 0)
(-0.0584022 -0.0379691 0)
(-0.0488462 -0.059649 0)
(-0.0340339 -0.0726722 0)
(-0.0143572 -0.0661593 0)
(-0.00125188 0.0133048 0)
(-0.00383725 0.0167767 0)
(-0.00646584 0.0182333 0)
(-0.0091957 0.0193532 0)
(-0.0120104 0.0203964 0)
(-0.0149569 0.0214592 0)
(-0.0181165 0.0225922 0)
(-0.0215805 0.0238026 0)
(-0.025455 0.0250397 0)
(-0.0298715 0.0261805 0)
(-0.034987 0.0270052 0)
(-0.040963 0.0270775 0)
(-0.0478784 0.0254287 0)
(-0.0551332 0.0197284 0)
(-0.060159 0.00617924 0)
(-0.0602868 -0.0168772 0)
(-0.0556798 -0.0446602 0)
(-0.047109 -0.07156 0)
(-0.0331137 -0.0914152 0)
(-0.0169254 -0.0938472 0)
(-0.00113499 0.0156209 0)
(-0.00353167 0.0193995 0)
(-0.00598793 0.020881 0)
(-0.0085284 0.0220344 0)
(-0.0111253 0.023169 0)
(-0.0138178 0.0243968 0)
(-0.016685 0.0257809 0)
(-0.0198203 0.0273459 0)
(-0.0233303 0.0290637 0)
(-0.0273478 0.0308384 0)
(-0.032013 0.0324499 0)
(-0.0374517 0.0333322 0)
(-0.0436513 0.0320017 0)
(-0.0496956 0.0249928 0)
(-0.0529424 0.00782777 0)
(-0.0516078 -0.0190534 0)
(-0.0477041 -0.0500028 0)
(-0.0407656 -0.0812459 0)
(-0.0283517 -0.108129 0)
(-0.0154595 -0.11674 0)
(-0.00100721 0.017719 0)
(-0.00318615 0.0218164 0)
(-0.00543188 0.023324 0)
(-0.00773628 0.0244878 0)
(-0.0100561 0.0256737 0)
(-0.0124145 0.0270161 0)
(-0.0148764 0.0285941 0)
(-0.0175191 0.0304482 0)
(-0.0204268 0.0325675 0)
(-0.0236969 0.0348726 0)
(-0.0274111 0.037108 0)
(-0.0315937 0.0385054 0)
(-0.0361466 0.0370451 0)
(-0.0401224 0.0284147 0)
(-0.0414119 0.00836336 0)
(-0.0398308 -0.0208978 0)
(-0.0372678 -0.053768 0)
(-0.0326082 -0.0880098 0)
(-0.0240573 -0.121197 0)
(-0.0116213 -0.136782 0)
(-0.000883083 0.0195899 0)
(-0.00283106 0.0239986 0)
(-0.00484364 0.0255238 0)
(-0.00687458 0.0266622 0)
(-0.00886386 0.0278411 0)
(-0.010814 0.0292208 0)
(-0.0127677 0.0308951 0)
(-0.0147746 0.0329135 0)
(-0.0168824 0.0352707 0)
(-0.0191304 0.0378785 0)
(-0.0215438 0.0404205 0)
(-0.0239903 0.0419047 0)
(-0.0264285 0.0399747 0)
(-0.0282062 0.0299973 0)
(-0.0281896 0.00833972 0)
(-0.0270417 -0.0219069 0)
(-0.0260197 -0.0557444 0)
(-0.0237201 -0.0922092 0)
(-0.0194131 -0.129749 0)
(-0.00971036 -0.153444 0)
(-0.00077662 0.0212404 0)
(-0.00250349 0.0259389 0)
(-0.00427634 0.0274562 0)
(-0.006009 0.0285167 0)
(-0.00762546 0.0296122 0)
(-0.009108 0.0309298 0)
(-0.0104763 0.0325743 0)
(-0.011751 0.0345958 0)
(-0.0129404 0.03698 0)
(-0.0140298 0.039611 0)
(-0.0149929 0.042115 0)
(-0.0155418 0.0432072 0)
(-0.0159131 0.0408077 0)
(-0.0157744 0.0301753 0)
(-0.015055 0.00825035 0)
(-0.0147669 -0.021796 0)
(-0.0154295 -0.055782 0)
(-0.0154816 -0.093639 0)
(-0.0150118 -0.134506 0)
(-0.00693181 -0.166446 0)
(-0.000700283 0.0227165 0)
(-0.00224691 0.0276556 0)
(-0.00379094 0.0291135 0)
(-0.00521258 0.030023 0)
(-0.0064241 0.0309422 0)
(-0.00739494 0.0320849 0)
(-0.00812809 0.0335622 0)
(-0.00862209 0.0354163 0)
(-0.00885575 0.0376116 0)
(-0.00877232 0.0399878 0)
(-0.00827019 0.0420704 0)
(-0.00728335 0.0426954 0)
(-0.00581914 0.0398134 0)
(-0.00418664 0.0292576 0)
(-0.00314922 0.00826328 0)
(-0.00382788 -0.0205464 0)
(-0.00625058 -0.0540104 0)
(-0.00824924 -0.092731 0)
(-0.0113874 -0.136048 0)
(-0.00491063 -0.17652 0)
(-0.000699262 0.0240563 0)
(-0.00212507 0.0291784 0)
(-0.00345931 0.0304978 0)
(-0.0045585 0.0311594 0)
(-0.00533208 0.0317964 0)
(-0.00575288 0.0326475 0)
(-0.00581939 0.0338259 0)
(-0.00552146 0.0353603 0)
(-0.00482676 0.0371869 0)
(-0.00366691 0.039095 0)
(-0.00195393 0.0406088 0)
(0.00034867 0.0406725 0)
(0.00311682 0.0373981 0)
(0.00571336 0.0275298 0)
(0.00691784 0.00842759 0)
(0.00551463 -0.0182558 0)
(0.00149062 -0.050569 0)
(-0.00175725 -0.0895803 0)
(-0.00846042 -0.134963 0)
(-0.00268385 -0.184277 0)
(-0.000765604 0.0254877 0)
(-0.00219712 0.0305892 0)
(-0.00335011 0.0316253 0)
(-0.00409779 0.0319052 0)
(-0.00437864 0.032135 0)
(-0.00420124 0.0325824 0)
(-0.00356937 0.0333481 0)
(-0.00247888 0.0344453 0)
(-0.000908338 0.0357831 0)
(0.00120246 0.0371308 0)
(0.0039025 0.0380157 0)
(0.0071554 0.0375351 0)
(0.0107448 0.0341092 0)
(0.01387 0.0252878 0)
(0.0151711 0.00873685 0)
(0.0133657 -0.0151709 0)
(0.00830391 -0.0457515 0)
(0.00444288 -0.0845574 0)
(-0.00616644 -0.132073 0)
(0.000152552 -0.19027 0)
(-0.00112064 0.026938 0)
(-0.00262015 0.0318917 0)
(-0.00352237 0.032438 0)
(-0.00379071 0.0321633 0)
(-0.0035079 0.0318883 0)
(-0.00264305 0.0318315 0)
(-0.00125712 0.0321 0)
(0.000643028 0.03269 0)
(0.00306842 0.0334878 0)
(0.00604063 0.03426 0)
(0.00955316 0.0345619 0)
(0.0135019 0.0336513 0)
(0.0175733 0.0303323 0)
(0.0210103 0.0227558 0)
(0.0224408 0.00900931 0)
(0.020633 -0.0116827 0)
(0.0150343 -0.0398928 0)
(0.0108248 -0.0781072 0)
(-0.0042242 -0.12763 0)
(0.00415351 -0.194857 0)
(-0.00155498 0.0293732 0)
(-0.00340823 0.033244 0)
(-0.00395322 0.0328641 0)
(-0.00352939 0.0318388 0)
(-0.0024342 0.0309493 0)
(-0.000723385 0.0303353 0)
(0.00154176 0.0300653 0)
(0.00433925 0.0301201 0)
(0.00766609 0.0303795 0)
(0.0115092 0.0306177 0)
(0.0158047 0.0304626 0)
(0.0203854 0.02932 0)
(0.0248797 0.0263028 0)
(0.0285838 0.020071 0)
(0.0302672 0.00908336 0)
(0.0287888 -0.00818812 0)
(0.0229154 -0.0333756 0)
(0.0186388 -0.0704921 0)
(-0.00192055 -0.122141 0)
(0.00992667 -0.197422 0)
(-0.00314477 0.031804 0)
(-0.00508352 0.0342304 0)
(-0.00412927 0.0324663 0)
(-0.00256428 0.0306296 0)
(-0.000192064 0.0290689 0)
(0.0027144 0.0278941 0)
(0.00613129 0.027097 0)
(0.0100646 0.0266198 0)
(0.0145209 0.0263513 0)
(0.0194263 0.0261187 0)
(0.0246614 0.0256418 0)
(0.0300187 0.0244644 0)
(0.0350833 0.0219737 0)
(0.0392488 0.0171624 0)
(0.0413573 0.00884832 0)
(0.0405431 -0.00481104 0)
(0.0343945 -0.025883 0)
(0.0301528 -0.0604037 0)
(0.00125016 -0.112924 0)
(0.0184538 -0.194128 0)
(-0.0055111 0.0392688 0)
(-0.0057639 0.0350045 0)
(-0.00240158 0.0314574 0)
(0.00161375 0.0288241 0)
(0.00623174 0.0266853 0)
(0.01122 0.0249546 0)
(0.0165818 0.0235993 0)
(0.0223079 0.0225766 0)
(0.0283334 0.0218179 0)
(0.034632 0.0211762 0)
(0.0410542 0.0204807 0)
(0.0474494 0.0193718 0)
(0.0533308 0.0175318 0)
(0.0582949 0.0141684 0)
(0.061012 0.00865285 0)
(0.0613829 -0.000956432 0)
(0.0552201 -0.016751 0)
(0.0502115 -0.0466928 0)
(0.0106419 -0.0956457 0)
(0.0342813 -0.174393 0)
(-0.00459638 0.0371555 0)
(-0.000928729 0.0221327 0)
(0.00759613 0.0179256 0)
(0.0163461 0.0155157 0)
(0.0250971 0.0136123 0)
(0.0337031 0.0120102 0)
(0.0422052 0.0107898 0)
(0.0506476 0.00992307 0)
(0.0589471 0.0093547 0)
(0.0672053 0.00896052 0)
(0.075213 0.0086634 0)
(0.0830937 0.00818574 0)
(0.090133 0.00744375 0)
(0.0964801 0.00580694 0)
(0.100379 0.00321049 0)
(0.101675 -0.00245638 0)
(0.0965297 -0.0109583 0)
(0.090475 -0.0319363 0)
(0.0449344 -0.0680242 0)
(0.0681117 -0.131952 0)
(0.0473144 0.0563985 0)
(0.0526362 0.0377897 0)
(0.0773057 0.0285145 0)
(0.0974627 0.0236012 0)
(0.112622 0.0204954 0)
(0.125398 0.0180782 0)
(0.13668 0.0161087 0)
(0.147093 0.0146087 0)
(0.156457 0.0134533 0)
(0.165508 0.012431 0)
(0.173582 0.0117956 0)
(0.181696 0.0107372 0)
(0.188579 0.0104284 0)
(0.19521 0.00846905 0)
(0.199839 0.00816843 0)
(0.202611 0.00366221 0)
(0.199492 0.000840541 0)
(0.189959 -0.00657708 0)
(0.147521 -0.0197289 0)
(0.142921 -0.110534 0)
)
;

boundaryField
{
    movingWall
    {
        type            fixedValue;
        value           uniform (1 0 0);
    }
    fixedWalls
    {
        type            noSlip;
    }
    frontAndBack
    {
        type            empty;
    }
}


// ************************************************************************* //
