# vtk DataFile Version 2.0
tracks
ASCII
DATASET POLYDATA
POINTS 12025 float
-0.0206 0.00099997 1e-05 -0.02058 0.000999972 1e-05 -0.02056 0.000999976 1e-05 -0.02054 0.000999982
1e-05 -0.02052 0.00099999 1e-05 -0.0205 0.001 1e-05 -0.0202034 0.00100015 1e-05
-0.0199069 0.00100058 1e-05 -0.0196103 0.00100127 1e-05 -0.0193137 0.00100224 1e-05 -0.0190172
0.00100348 1e-05 -0.0187132 0.00100498 1e-05 -0.0184093 0.00100659 1e-05 -0.0181054 0.00100828
1e-05 -0.0178015 0.00101005 1e-05 -0.0174976 0.00101192 1e-05 -0.0172058 0.00101378 1e-05
-0.016914 0.00101566 1e-05 -0.0166222 0.00101754 1e-05 -0.0163305 0.00101943 1e-05 -0.0160387
0.00102132 1e-05 -0.0158698 0.00102242 1e-05 -0.0157009 0.00102352 1e-05 -0.015532 0.00102463
1e-05 -0.0153631 0.00102575 1e-05 -0.015202 0.00102682 1e-05 -0.0150892 0.00102757 1e-05
-0.0149764 0.00102832 1e-05 -0.0148637 0.00102908 1e-05 -0.0147509 0.00102984 1e-05 -0.0146381
0.0010306 1e-05 -0.0143692 0.00103242 1e-05 -0.0141002 0.00103428 1e-05 -0.0138313 0.00103617
1e-05 -0.0135624 0.0010381 1e-05 -0.0132934 0.00104007 1e-05 -0.0130353 0.00104199 1e-05
-0.0127771 0.00104394 1e-05 -0.0125189 0.00104592 1e-05 -0.0122607 0.00104794 1e-05 -0.0120025
0.00104998 1e-05 -0.0117547 0.00105197 1e-05 -0.0115068 0.00105396 1e-05 -0.0112589 0.00105596
1e-05 -0.0110111 0.00105796 1e-05 -0.0107632 0.00105998 1e-05 -0.0105252 0.00106192 1e-05
-0.0102873 0.00106384 1e-05 -0.0100493 0.00106576 1e-05 -0.00981133 0.00106766 1e-05 -0.00957337
0.00106955 1e-05 -0.00934491 0.00107137 1e-05 -0.00911645 0.00107316 1e-05 -0.00888799 0.00107494
1e-05 -0.00865954 0.00107671 1e-05 -0.00843108 0.00107847 1e-05 -0.00821175 0.00108018 1e-05
-0.00799242 0.00108186 1e-05 -0.00777309 0.00108355 1e-05 -0.00755376 0.00108523 1e-05 -0.00733443
0.00108691 1e-05 -0.00712387 0.00108855 1e-05 -0.0069133 0.00109017 1e-05 -0.00670273 0.00109177
1e-05 -0.00649216 0.00109337 1e-05 -0.0062816 0.00109497 1e-05 -0.00607944 0.00109652 1e-05
-0.00587729 0.00109803 1e-05 -0.00567514 0.00109953 1e-05 -0.00547298 0.00110101 1e-05 -0.00527083
0.00110249 1e-05 -0.00507675 0.00110392 1e-05 -0.00488267 0.0011053 1e-05 -0.0046886 0.00110667
1e-05 -0.00449452 0.00110802 1e-05 -0.00430044 0.00110936 1e-05 -0.00411412 0.00111068 1e-05
-0.0039278 0.00111194 1e-05 -0.00374147 0.00111319 1e-05 -0.00355515 0.00111443 1e-05 -0.00336883
0.00111566 1e-05 -0.00318995 0.00111685 1e-05 -0.00301107 0.001118 1e-05 -0.00283219 0.00111912
1e-05 -0.00265331 0.00112022 1e-05 -0.00247443 0.00112131 1e-05 -0.0023027 0.00112235 1e-05
-0.00213097 0.00112334 1e-05 -0.00195924 0.00112429 1e-05 -0.0017875 0.00112521 1e-05 -0.00161577
0.0011261 1e-05 -0.0014509 0.00112696 1e-05 -0.00128603 0.00112775 1e-05 -0.00112116 0.00112851
1e-05 -0.000956288 0.00112923 1e-05 -0.000791418 0.00112991 1e-05 -0.000633135 0.00113057 1e-05
-0.000474851 0.00113116 1e-05 -0.000316567 0.00113171 1e-05 -0.000158283 0.00113224 1e-05 0
0.00113275 1e-05 0.000105677 0.00113311 1e-05 0.000211355 0.00113344 1e-05 0.000317033 0.00113376
1e-05 0.00042271 0.00113407 1e-05 0.000528387 0.00113438 1e-05 0.000634886 0.00113469 1e-05
0.000741386 0.00113498 1e-05 0.000847885 0.00113525 1e-05 0.000954384 0.00113552 1e-05 0.00106088
0.00113577 1e-05 0.00116821 0.00113603 1e-05 0.00127554 0.00113627 1e-05 0.00138286 0.00113648
1e-05 0.00149019 0.00113669 1e-05 0.00159752 0.00113688 1e-05 0.00170568 0.00113709 1e-05
0.00181384 0.00113726 1e-05 0.001922 0.00113742 1e-05 0.00203016 0.00113757 1e-05 0.00213833
0.00113771 1e-05 0.00224733 0.00113785 1e-05 0.00235633 0.00113798 1e-05 0.00246533 0.00113809
1e-05 0.00257434 0.0011382 1e-05 0.00268334 0.00113829 1e-05 0.00279319 0.00113839 1e-05
0.00290304 0.00113849 1e-05 0.00301289 0.00113857 1e-05 0.00312274 0.00113865 1e-05 0.00323259
0.00113872 1e-05 0.00334329 0.0011388 1e-05 0.003454 0.00113887 1e-05 0.0035647 0.00113895
1e-05 0.0036754 0.00113902 1e-05 0.00378611 0.00113909 1e-05 0.00389767 0.00113917 1e-05
0.00400924 0.00113925 1e-05 0.0041208 0.00113934 1e-05 0.00423237 0.00113943 1e-05 0.00434393
0.00113952 1e-05 0.00445636 0.00113962 1e-05 0.00456879 0.00113972 1e-05 0.00468123 0.00113984
1e-05 0.00479366 0.00113996 1e-05 0.00490609 0.00114008 1e-05 0.0050194 0.00114021 1e-05
0.0051327 0.00114035 1e-05 0.00524601 0.00114049 1e-05 0.00535931 0.00114064 1e-05 0.00547262
0.00114079 1e-05 0.00558681 0.00114095 1e-05 0.005701 0.00114111 1e-05 0.00581518 0.00114128
1e-05 0.00592937 0.00114145 1e-05 0.00604356 0.00114163 1e-05 0.00615863 0.0011418 1e-05
0.00627371 0.00114198 1e-05 0.00638878 0.00114217 1e-05 0.00650386 0.00114235 1e-05 0.00661893
0.00114254 1e-05 0.0067349 0.00114272 1e-05 0.00685087 0.00114291 1e-05 0.00696684 0.00114309
1e-05 0.00708281 0.00114328 1e-05 0.00719878 0.00114346 1e-05 0.00731565 0.00114364 1e-05
0.00743252 0.00114382 1e-05 0.00754939 0.001144 1e-05 0.00766626 0.00114417 1e-05 0.00778313
0.00114433 1e-05 0.00790091 0.00114449 1e-05 0.00801869 0.00114464 1e-05 0.00813647 0.00114479
1e-05 0.00825425 0.00114493 1e-05 0.00837203 0.00114505 1e-05 0.00849073 0.00114517 1e-05
0.00860942 0.00114528 1e-05 0.00872812 0.00114538 1e-05 0.00884682 0.00114547 1e-05 0.00896551
0.00114554 1e-05 0.00908513 0.0011456 1e-05 0.00920475 0.00114565 1e-05 0.00932437 0.00114568
1e-05 0.00944398 0.0011457 1e-05 0.0095636 0.0011457 1e-05 0.00968415 0.00114568 1e-05
0.0098047 0.00114565 1e-05 0.00992525 0.0011456 1e-05 0.0100458 0.00114554 1e-05 0.0101663
0.00114545 1e-05 0.0102017 0.00114542 1e-05 0.010237 0.00114539 1e-05 0.0102723 0.00114536
1e-05 0.0103076 0.00114532 1e-05 0.0103417 0.00114529 1e-05 0.0104281 0.00114519 1e-05
0.0105145 0.00114509 1e-05 0.0106009 0.00114498 1e-05 0.0106874 0.00114486 1e-05 0.0107738
0.00114472 1e-05 0.0108962 0.00114452 1e-05 0.0110186 0.0011443 1e-05 0.0111411 0.00114405
1e-05 0.0112635 0.00114379 1e-05 0.0113859 0.00114351 1e-05 0.0115093 0.00114319 1e-05
0.0116327 0.00114287 1e-05 0.0117561 0.00114252 1e-05 0.0118795 0.00114216 1e-05 0.0120028
0.00114177 1e-05 0.0121272 0.00114135 1e-05 0.0122515 0.00114092 1e-05 0.0123759 0.00114047
1e-05 0.0125002 0.00114 1e-05 0.0126245 0.00113951 1e-05 0.0127498 0.00113898 1e-05
0.0128752 0.00113845 1e-05 0.0130005 0.0011379 1e-05 0.0131258 0.00113733 1e-05 0.0132511
0.00113675 1e-05 0.0133774 0.00113612 1e-05 0.0135036 0.00113549 1e-05 0.0136299 0.00113484
1e-05 0.0137562 0.00113418 1e-05 0.0138825 0.0011335 1e-05 0.0140098 0.00113278 1e-05
0.014137 0.00113206 1e-05 0.0142643 0.00113133 1e-05 0.0143915 0.00113059 1e-05 0.0145188
0.00112983 1e-05 0.0146471 0.00112903 1e-05 0.0147753 0.00112823 1e-05 0.0149036 0.00112742
1e-05 0.0150318 0.0011266 1e-05 0.0151601 0.00112576 1e-05 0.0152893 0.00112489 1e-05
0.0154186 0.00112403 1e-05 0.0155478 0.00112315 1e-05 0.0156771 0.00112226 1e-05 0.0158063
0.00112137 1e-05 0.0159366 0.00112044 1e-05 0.0160668 0.00111952 1e-05 0.0161971 0.00111858
1e-05 0.0163273 0.00111764 1e-05 0.0164576 0.0011167 1e-05 0.0165889 0.00111573 1e-05
0.0167201 0.00111476 1e-05 0.0168514 0.00111378 1e-05 0.0169827 0.0011128 1e-05 0.0171139
0.00111181 1e-05 0.0172462 0.00111081 1e-05 0.0173785 0.0011098 1e-05 0.0175108 0.00110879
1e-05 0.0176431 0.00110777 1e-05 0.0177754 0.00110676 1e-05 0.0179087 0.00110573 1e-05
0.018042 0.0011047 1e-05 0.0181753 0.00110367 1e-05 0.0183087 0.00110263 1e-05 0.018442
0.00110159 1e-05 0.0185763 0.00110056 1e-05 0.0187107 0.00109952 1e-05 0.018845 0.00109846
1e-05 0.0189794 0.00109741 1e-05 0.0191137 0.00109636 1e-05 0.0192491 0.00109533 1e-05
0.0193845 0.00109428 1e-05 0.0195199 0.00109321 1e-05 0.0196553 0.00109215 1e-05 0.0197907
0.0010911 1e-05 0.0199272 0.00109007 1e-05 0.0200636 0.00108901 1e-05 0.0202001 0.00108795
1e-05 0.0203365 0.00108687 1e-05 0.020473 0.00108583 1e-05 0.0206105 0.0010848 1e-05
0.020748 0.00108375 1e-05 0.0208855 0.00108267 1e-05 0.021023 0.0010816 1e-05 0.0211606
0.00108056 1e-05 0.0212991 0.00107953 1e-05 0.0214377 0.00107849 1e-05 0.0215763 0.00107741
1e-05 0.0217149 0.00107634 1e-05 0.0218535 0.0010753 1e-05 0.0219931 0.00107428 1e-05
0.0221328 0.00107324 1e-05 0.0222724 0.00107217 1e-05 0.0224121 0.00107109 1e-05 0.0225517
0.00107006 1e-05 0.0226925 0.00106905 1e-05 0.0228332 0.001068 1e-05 0.022974 0.00106693
1e-05 0.0231147 0.00106585 1e-05 0.0232555 0.00106481 1e-05 0.0233973 0.0010638 1e-05
0.0235391 0.00106275 1e-05 0.023681 0.00106167 1e-05 0.0238228 0.00106059 1e-05 0.0239647
0.00105955 1e-05 0.0241076 0.00105853 1e-05 0.0242505 0.00105748 1e-05 0.0243935 0.00105638
1e-05 0.0245364 0.00105529 1e-05 0.0246794 0.00105423 1e-05 0.0248234 0.0010532 1e-05
0.0249675 0.00105213 1e-05 0.0251115 0.00105102 1e-05 0.0252556 0.00104991 1e-05 0.0253996
0.00104883 1e-05 0.0255448 0.00104779 1e-05 0.02569 0.00104669 1e-05 0.0258351 0.00104555
1e-05 0.0259803 0.00104442 1e-05 0.0261255 0.00104331 1e-05 0.0262718 0.00104224 1e-05
0.0264181 0.00104111 1e-05 0.0265644 0.00103995 1e-05 0.0267107 0.00103878 1e-05 0.026857
0.00103764 1e-05 0.0270044 0.00103652 1e-05 0.0271519 0.00103536 1e-05 0.0272993 0.00103416
1e-05 0.0274468 0.00103295 1e-05 0.0275942 0.00103176 1e-05 0.0277428 0.0010306 1e-05
0.0278914 0.00102939 1e-05 0.0280399 0.00102814 1e-05 0.0281885 0.00102689 1e-05 0.0283371
0.00102565 1e-05 0.0284869 0.00102443 1e-05 0.0286366 0.00102316 1e-05 0.0287863 0.00102186
1e-05 0.0289361 0.00102055 1e-05 0.0290858 0.00101925 1e-05 0.0292367 0.00101797 1e-05
0.0293876 0.00101663 1e-05 0.0295385 0.00101527 1e-05 0.0296894 0.00101389 1e-05 0.0298403
0.00101252 1e-05 0.0299924 0.00101117 1e-05 0.0301445 0.00100976 1e-05 0.0302966 0.00100833
1e-05 0.0304486 0.00100688 1e-05 0.0306007 0.00100544 1e-05 0.030754 0.001004 1e-05
0.0309072 0.00100251 1e-05 0.0310605 0.001001 1e-05 0.0312138 0.000999485 1e-05 0.031367
0.000997953 1e-05 0.0315215 0.000996432 1e-05 0.0316759 0.000994858 1e-05 0.0318304 0.00099327
1e-05 0.0319848 0.000991669 1e-05 0.0321393 0.000990054 1e-05 0.0322949 0.000988442 1e-05
0.0324506 0.000986783 1e-05 0.0326062 0.000985109 1e-05 0.0327619 0.000983421 1e-05 0.0329175
[...]
POINT_DATA 12025
FIELD attributes 4
age 1 12025 float
-9.9986e-06 -7.9987e-06 -5.99888e-06 -3.99916e-06 -1.99953e-06 0 2.96498e-05 5.92766e-05 8.88802e-05 0.00011846 0.000148018
0.00017827 0.000208497 0.000238698 0.000268873 0.000299022 0.000327933 0.000356834 0.000385717 0.000414583 0.000443432
0.000460118 0.000476802 0.000493481 0.000510155 0.000526062 0.000537192 0.000548321 0.000559447 0.000570572 0.000581694
0.00060821 0.000634717 0.000661215 0.000687702 0.00071418 0.000739587 0.000764988 0.000790379 0.000815759 0.000841128
0.000865467 0.000889805 0.000914132 0.000938449 0.000962756 0.000986072 0.00100939 0.0010327 0.001056 0.0010793
0.00110164 0.00112399 0.00114634 0.00116867 0.001191 0.00121242 0.00123384 0.00125527 0.00127668 0.00129809
0.00131862 0.00133916 0.0013597 0.00138023 0.00140076 0.00142044 0.00144014 0.00145983 0.00147951 0.00149919
0.00151806 0.00153694 0.00155582 0.0015747 0.00159357 0.00161166 0.00162976 0.00164787 0.00166596 0.00168406
0.00170141 0.00171877 0.00173613 0.00175349 0.00177084 0.00178748 0.00180413 0.00182078 0.00183743 0.00185407
0.00187003 0.00188601 0.00190198 0.00191796 0.00193393 0.00194925 0.00196457 0.0019799 0.00199523 0.00201056
0.00202079 0.00203102 0.00204126 0.0020515 0.00206173 0.00207204 0.00208235 0.00209267 0.00210299 0.0021133
0.00212369 0.00213409 0.00214449 0.00215489 0.00216529 0.00217576 0.00218624 0.00219672 0.00220721 0.00221769
0.00222825 0.00223882 0.00224938 0.00225995 0.00227052 0.00228117 0.00229182 0.00230247 0.00231313 0.00232378
0.00233452 0.00234526 0.002356 0.00236674 0.00237748 0.00238831 0.00239913 0.00240996 0.00242079 0.00243162
0.00244253 0.00245345 0.00246436 0.00247528 0.0024862 0.0024972 0.0025082 0.0025192 0.00253021 0.00254121
0.0025523 0.00256339 0.00257448 0.00258558 0.00259667 0.00260785 0.00261903 0.00263021 0.00264139 0.00265257
0.00266385 0.00267512 0.00268639 0.00269766 0.00270894 0.00272031 0.00273167 0.00274304 0.00275441 0.00276579
0.00277726 0.00278872 0.00280019 0.00281167 0.00282315 0.00283472 0.00284629 0.00285787 0.00286945 0.00288104
0.00289273 0.00290442 0.00291611 0.00292781 0.00293952 0.00295133 0.00296314 0.00297496 0.00298679 0.00299862
0.00300209 0.00300556 0.00300903 0.00301251 0.00301586 0.00302436 0.00303286 0.00304137 0.00304989 0.00305841
0.0030705 0.00308259 0.00309469 0.0031068 0.00311893 0.00313119 0.00314343 0.00315569 0.00316796 0.00318024
0.00319268 0.00320509 0.00321752 0.00322996 0.00324241 0.00325505 0.00326763 0.00328024 0.00329286 0.00330549
0.00331833 0.0033311 0.0033439 0.00335671 0.00336954 0.00338258 0.00339556 0.00340855 0.00342157 0.0034346
0.00344786 0.00346105 0.00347426 0.00348749 0.00350074 0.00351422 0.00352763 0.00354106 0.00355452 0.00356799
0.00358171 0.00359536 0.00360902 0.00362271 0.00363643 0.00365039 0.00366429 0.0036782 0.00369213 0.00370611
0.00372031 0.00373447 0.00374862 0.00376281 0.00377705 0.0037915 0.00380592 0.00382034 0.00383478 0.00384928
0.00386399 0.00387868 0.00389336 0.00390806 0.00392283 0.0039378 0.00395276 0.00396771 0.00398268 0.00399772
0.00401295 0.00402818 0.0040434 0.00405865 0.00407396 0.00408946 0.00410495 0.00412045 0.00413598 0.00415156
0.00416732 0.00418309 0.00419887 0.00421467 0.00423053 0.00424656 0.0042626 0.00427865 0.00429474 0.00431086
0.00432716 0.00434347 0.0043598 0.00437616 0.00439256 0.00440912 0.0044257 0.00444231 0.00445894 0.00447561
0.00449243 0.00450929 0.00452617 0.00454307 0.00456 0.00457709 0.00459421 0.00461136 0.00462853 0.00464573
0.00466309 0.00468047 0.00469789 0.00471533 0.00473279 0.0047504 0.00476805 0.00478574 0.00480344 0.00482116
0.00483904 0.00485695 0.00487489 0.00489286 0.00491084 0.00492898 0.00494715 0.00496535 0.00498358 0.00500182
0.00502021 0.00503864 0.0050571 0.00507559 0.00509408 0.00511274 0.00513143 0.00515014 0.00516888 0.00518763
0.00520654 0.00522549 0.00524447 0.00526346 0.00528247 0.00530163 0.00532084 0.00534007 0.00535931 0.00537858
0.005398 0.00541747 0.00543695 0.00545645 0.00547597 0.00549565 0.00551537 0.00553511 0.00555486 0.00557464
0.00559458 0.00561455 0.00563455 0.00565456 0.00567459 0.00569479 0.00571503 0.00573528 0.00575555 0.00577584
0.0057963 0.00581679 0.0058373 0.00585783 0.00587838 0.0058991 0.00591985 0.00594062 0.00596141 0.00598222
0.00598651 0.0059908 0.00599509 0.00599938 0.00600363 0.00602036 0.0060371 0.00605386 0.00607062 0.00608741
0.00610866 0.00612994 0.00615124 0.00617256 0.00619391 0.00621543 0.00623698 0.00625855 0.00628014 0.00630176
0.00632355 0.00634537 0.00636721 0.00638908 0.00641096 0.00643303 0.00645512 0.00647724 0.00649938 0.00652154
0.00654388 0.00656625 0.00658864 0.00661106 0.0066335 0.00665611 0.00667876 0.00670143 0.00672413 0.00674684
0.00676973 0.00679266 0.00681561 0.00683859 0.00686158 0.00688475 0.00690796 0.0069312 0.00695446 0.00697773
0.00700118 0.00702467 0.00704819 0.00707174 0.00709529 0.00711903 0.0071428 0.00716661 0.00719044 0.00721428
0.0072383 0.00726236 0.00728645 0.00731057 0.00733469 0.007359 0.00738334 0.00740772 0.00743213 0.00745653
0.00748113 0.00750576 0.00753043 0.00755512 0.00757981 0.0076047 0.00762962 0.00765458 0.00767956 0.00770454
0.00772971 0.00775493 0.00778017 0.00780544 0.00783071 0.00785618 0.00788168 0.00790722 0.00793278 0.00795834
0.0079841 0.0080099 0.00803573 0.00806157 0.00808742 0.00811348 0.00813957 0.00816569 0.00819183 0.00821797
0.00824433 0.00827072 0.00829713 0.00832356 0.00835 0.00837665 0.00840334 0.00843005 0.00845678 0.00848352
0.00851047 0.00853746 0.00856447 0.00859149 0.00861853 0.00864579 0.00867308 0.00870039 0.00872771 0.00875505
0.00878262 0.00881021 0.00883782 0.00886545 0.0088931 0.00892098 0.00894888 0.0089768 0.00900474 0.0090327
0.00905531 0.00907793 0.00910056 0.00912321 0.0091447 0.00915053 0.00915637 0.0091622 0.00916804 0.00917387
0.00920238 0.00923091 0.00925947 0.00928804 0.00931663 0.00934546 0.00937432 0.00940319 0.00943209 0.00946101
0.00949016 0.00951935 0.00954855 0.00957778 0.00960703 0.00963652 0.00966604 0.00969558 0.00972515 0.00975474
0.00978456 0.00981442 0.0098443 0.00987421 0.00990414 0.0099343 0.00996451 0.00999474 0.010025 0.0100553
0.0100858 0.0101163 0.0101469 0.0101776 0.0102082 0.0102391 0.01027 0.0103009 0.0103319 0.0103629
0.0103941 0.0104254 0.0104567 0.0104881 0.0105194 0.010551 0.0105827 0.0106144 0.0106461 0.0106779
0.0107099 0.0107419 0.010774 0.0108061 0.0108382 0.0108706 0.010903 0.0109355 0.010968 0.0110005
0.0110333 0.0110662 0.011099 0.0111319 0.0111649 0.0111981 0.0112313 0.0112646 0.0112979 0.0113313
0.0113649 0.0113986 0.0114323 0.011466 0.0114998 0.0115339 0.011568 0.0116021 0.0116363 0.0116705
0.0116731 0.0116757 0.0116784 0.011681 0.0116836 0.0117155 0.0117475 0.0117794 0.0118114 0.0118435
0.0118785 0.0119135 0.0119485 0.0119837 0.0120188 0.0120543 0.0120898 0.0121253 0.0121609 0.0121966
0.0122325 0.0122686 0.0123046 0.0123407 0.0123769 0.0124133 0.0124499 0.0124865 0.0125231 0.0125598
0.0125968 0.0126338 0.0126709 0.0127081 0.0127453 0.0127828 0.0128204 0.0128581 0.0128958 0.0129336
0.0129716 0.0130098 0.013048 0.0130863 0.0131246 0.0131633 0.013202 0.0132408 0.0132796 0.0133185
0.0133578 0.0133971 0.0134364 0.0134759 0.0135154 0.0135167 0.0135181 0.0135195 0.0135208 0.0135222
0.0135607 0.0135992 0.0136378 0.0136765 0.0137152 0.0137556 0.0137961 0.0138367 0.0138773 0.013918
0.0139591 0.0140002 0.0140414 0.0140826 0.0141239 0.0141656 0.0142074 0.0142492 0.014291 0.014333
0.0143753 0.0144177 0.0144602 0.0145027 0.0145453 0.0145882 0.0146313 0.0146744 0.0147176 0.0147608
0.0148045 0.0148482 0.014892 0.0149358 0.0149798 0.0150241 0.0150685 0.015113 0.0151575 0.0152021
0.0152205 0.0152389 0.0152573 0.0152757 0.0152938 0.0153206 0.0153474 0.0153743 0.0154012 0.0154281
0.0154738 0.0155196 0.0155655 0.0156114 0.0156575 0.0157039 0.0157505 0.0157971 0.0158437 0.0158905
0.0159377 0.015985 0.0160323 0.0160797 0.0161272 0.0161752 0.0162232 0.0162713 0.0163195 0.0163678
0.0164165 0.0164653 0.0165142 0.0165632 0.0166123 0.0166618 0.0167114 0.0167611 0.0168109 0.0168608
0.0169103 0.0169598 0.0170095 0.0170592 0.0171072 0.0171085 0.0171098 0.017111 0.0171123 0.0171136
0.0171648 0.0172161 0.0172675 0.0173191 0.0173707 0.0174228 0.017475 0.0175273 0.0175797 0.0176322
0.0176853 0.0177384 0.0177917 0.017845 0.0178985 0.0179525 0.0180066 0.0180608 0.0181151 0.0181696
0.0182246 0.0182797 0.018335 0.0183903 0.0184458 0.0185019 0.018558 0.0186143 0.0186708 0.0187273
0.0187777 0.0188281 0.0188787 0.0189294 0.0189785 0.0189857 0.0189929 0.0190001 0.0190073 0.0190145
0.0190728 0.0191312 0.0191898 0.0192485 0.0193073 0.0193668 0.0194264 0.0194862 0.0195461 0.0196062
0.0196669 0.0197278 0.0197888 0.0198499 0.0199113 0.0199733 0.0200354 0.0200977 0.0201602 0.0202229
0.0202863 0.0203498 0.0204134 0.0204773 0.0205414 0.0206061 0.0206711 0.0207362 0.0208015 0.020867
0.0208792 0.0208913 0.0209035 0.0209157 0.0209278 0.020982 0.0210364 0.0210909 0.0211455 0.0212003
0.021268 0.021336 0.0214041 0.0214725 0.0215411 0.0216104 0.0216799 0.0217497 0.0218197 0.0218899
0.0219609 0.0220321 0.0221036 0.0221752 0.0222472 0.0223199 0.0223929 0.0224661 0.0225396 0.0226133
0.0226858 0.0227585 0.0228314 0.0229046 0.0229752 0.0229779 0.0229806 0.0229833 0.0229861 0.0229888
0.0230652 0.023142 0.023219 0.0232962 0.0233738 0.0234523 0.023531 0.02361 0.0236893 0.0237689
0.0238494 0.0239302 0.0240113 0.0240927 0.0241745 0.0242571 0.0243401 0.0244235 0.0245071 0.0245911
0.0246761 0.0247614 0.024847 0.024933 0.0250194 0.0250388 0.0250582 0.0250777 0.0250972 0.0251164
0.0251848 0.0252533 0.025322 0.025391 0.0254602 0.0255501 0.0256403 0.025731 0.025822 0.0259134
0.0260059 0.0260988 0.0261921 0.0262858 0.02638 0.0264753 0.026571 0.0266671 0.0267636 0.0268607
0.026955 0.0270497 0.0271449 0.0272404 0.0273317 0.0273366 0.0273416 0.0273465 0.0273514 0.0273564
0.0274577 0.0275594 0.0276616 0.0277643 0.0278676 0.0279721 0.0280771 0.0281825 0.0282886 0.0283951
0.028503 0.0286114 0.0287203 0.0288298 0.0289399 0.0290513 0.0291633 0.0292758 0.029389 0.0295027
0.0295241 0.0295455 0.029567 0.0295884 0.0296097 0.029704 0.0297987 0.0298938 0.0299892 0.0300852
0.0302042 0.0303239 0.0304443 0.0305653 0.0306869 0.03081 0.0309338 0.0310583 0.0311835 0.0313093
0.0314367 0.0315648 0.0316936 0.0318231 0.0319533 0.0319541 0.0319549 0.0319557 0.0319564 0.0319572
0.0320883 0.0322201 0.0323526 0.0324858 0.0326198 0.0327561 0.0328932 0.0330311 0.0331697 0.0333091
0.03345 0.0335918 0.0337344 0.0338777 0.0340219 0.034096 0.0341703 0.0342448 0.0343195 0.034393
0.0344661 0.0345392 0.0346126 0.0346861 0.0347599 0.0349106 0.0350621 0.0352144 0.0353675 0.0355213
0.0356769 0.0358334 0.0359907 0.0361487 0.0363075 0.036433 0.036559 0.0366855 0.0368124 0.0369375
0.0369738 0.0370102 0.0370466 0.0370831 0.0371196 0.0372854 0.037452 0.0376195 0.0377877 0.0379567
0.0381277 0.0382995 0.0384722 0.0386457 0.0388199 0.0389647 0.03911 0.0392559 0.0394024 0.0395481
0.0395804 0.0396127 0.0396451 0.0396774 0.0397098 0.0398913 0.0400737 0.0402568 0.0404407 0.0406254
0.040812 0.0409996 0.041188 0.0413771 0.0415668 0.0417105 0.0418547 0.0419993 0.0421442 0.0422903
0.042339 0.0423878 0.0424367 0.0424855 0.0425344 0.0427314 0.0429291 0.0431275 0.0433267 0.0435263
0.043728 0.0439305 0.0441338 0.0443377 0.044542 0.0446744 0.0448071 0.0449401 0.0450733 0.0452093
0.0452834 0.0453577 0.045432 0.0455063 0.0455807 0.0457915 0.0460029 0.0462148 0.0464272 0.0466398
0.0468545 0.0470697 0.0472855 0.0475016 0.0477177 0.0478507 0.0479838 0.0481171 0.0482506 0.0483902
0.0484744 0.0485588 0.0486431 0.0487275 0.0488119 0.0490332 0.0492549 0.0494768 0.0496989 0.0499204
0.0501347 0.0503494 0.0505645 0.0507796 0.0509942 0.0510431 0.0510921 0.0511411 0.05119 0.0512399
0.0514135 0.051587 0.0517604 0.0519337 0.0521064 0.0523367 0.0525668 0.0527968 0.0530264 0.0532551
0.0533414 0.0534276 0.0535138 0.0535999 0.0536896 0.0538393 0.0539888 0.0541381 0.0542871 0.0544357
0.054679 0.0549217 0.0551638 0.055405 0.0556446 0.055775 0.0559052 0.0560351 0.0561646 0.0563051
0.0564192 0.0565331 0.0566468 0.0567602 0.0568732 0.0571249 0.0573754 0.0576246 0.0578724 0.058118
0.0583229 0.0585268 0.0587297 0.0589314 0.0591671 0.0592076 0.0592481 0.0592885 0.0593289 0.0593692
0.0596239 0.0598767 0.0601275 0.0603764 0.0606229 0.060877 0.0611291 0.0613789 0.0616266 0.0618718
0.0619761 0.06208 0.0621835 0.0622866 0.0624008 0.0625437 0.0626858 0.0628272 0.0629677 0.0631075
0.0633574 0.0636047 0.0638496 0.064092 0.0643318 0.0645783 0.0648222 0.0650635 0.0653022 0.0655383
0.0656718 0.0658044 0.0659362 0.0660672 0.0662203 0.0663214 0.0664221 0.0665222 0.0666219 0.0667211
0.0669594 0.0671948 0.0674276 0.0676576 0.0678851 0.0681187 0.0683495 0.0685776 0.068803 0.0690259
0.0692547 0.0694807 0.069704 0.0699246 0.0701428 0.070323 0.0705014 0.070678 0.070853 0.0710773
0.0711088 0.0711401 0.0711714 0.0712027 0.0712339 0.0714529 0.0716691 0.0718828 0.0720938 0.0723024
0.0725166 0.0727282 0.0729371 0.0731435 0.0733474 0.0735567 0.0737633 0.0739671 0.0741685 0.0743679
0.0745727 0.074775 0.074975 0.0751723 0.0753671 0.0755665 0.0757629 0.0759568 0.0761486 0.0763386
0.0765344 0.0767283 0.076919 0.0771065 0.077291 0.0773988 0.0775054 0.0776115 0.077717 0.0777833
0.0778689 0.0779539 0.0780385 0.0781225 0.078206 -9.99989e-06 -7.99989e-06 -5.99991e-06 -3.99993e-06 -1.99996e-06
0 2.96562e-05 5.93107e-05 8.89627e-05 0.000118612 0.000148257 0.000178633 0.000209003 0.000239369 0.000269728
0.00030008 0.000329212 0.000358336 0.000387453 0.000416564 0.000445666 0.000473599 0.000501525 0.000529445 0.000557358
0.000585266 0.000612052 0.000638833 0.000665609 0.000692379 0.000719143 0.000744833 0.000770518 0.000796198 0.000821873
0.000847542 0.000872181 0.000896815 0.000921444 0.000946069 0.000970688 0.00099432 0.00101795 0.00104157 0.00106519
0.0010888 0.00111147 0.00113413 0.00115679 0.00117945 0.0012021 0.00122384 0.00124558 0.00126732 0.00128905
0.00131078 0.00133163 0.00135249 0.00137334 0.00139419 0.00141503 0.00143504 0.00145505 0.00147505 0.00149506
0.00151505 0.00153425 0.00155344 0.00157263 0.00159182 0.00161101 0.00162942 0.00164784 0.00166625 0.00168466
0.00170307 0.00172074 0.00173841 0.00175607 0.00177374 0.0017914 0.00180836 0.00182531 0.00184226 0.00185921
0.00187616 0.00189243 0.0019087 0.00192497 0.00194124 0.0019575 0.00197312 0.00198873 0.00200434 0.00201996
0.00203557 0.00204599 0.00205641 0.00206684 0.00207726 0.00208768 0.00209818 0.00210868 0.00211919 0.00212969
0.00214019 0.00215077 0.00216135 0.00217194 0.00218252 0.0021931 0.00220376 0.00221443 0.00222509 0.00223576
0.00224642 0.00225717 0.00226791 0.00227866 0.0022894 0.00230015 0.00231098 0.00232181 0.00233264 0.00234346
0.00235429 0.00236521 0.00237612 0.00238703 0.00239794 0.00240885 0.00241985 0.00243085 0.00244185 0.00245284
0.00246384 0.00247492 0.002486 0.00249708 0.00250816 0.00251925 0.00253041 0.00254158 0.00255274 0.00256391
0.00257508 0.00258633 0.00259758 0.00260883 0.00262009 0.00263134 0.00264268 0.00265401 0.00266535 0.00267669
0.00268803 0.00269945 0.00271088 0.0027223 0.00273372 0.00274515 0.00275666 0.00276817 0.00277968 0.00279119
0.0028027 0.0028143 0.0028259 0.0028375 0.0028491 0.0028607 0.00287239 0.00288407 0.00289576 0.00290745
0.00291913 0.00293091 0.00294269 0.00295446 0.00296624 0.00297802 0.00298988 0.00300175 0.00301362 0.00302548
0.00303735 0.00304931 0.00306127 0.00307322 0.00308518 0.00309714 0.00310919 0.00312124 0.00313329 0.00314534
0.00315739 0.00316954 0.00318168 0.00319383 0.00320597 0.00321812 0.00323036 0.00324259 0.00325483 0.00326707
0.00327931 0.00329165 0.00330399 0.00331632 0.00332866 0.00334099 0.00335343 0.00336586 0.00337829 0.00339073
0.00340316 0.00341569 0.00342822 0.00344075 0.00345329 0.00346582 0.00347845 0.00349108 0.00350371 0.00351634
0.00352897 0.0035417 0.00355444 0.00356717 0.0035799 0.00359263 0.00360546 0.00361829 0.00363113 0.00364396
0.00365679 0.00366647 0.00367615 0.00368582 0.0036955 0.00370525 0.00370849 0.00371173 0.00371497 0.00371821
0.00372146 0.00373449 0.00374753 0.00376056 0.0037736 0.00378663 0.00379977 0.00381291 0.00382604 0.00383918
0.00385232 0.00386556 0.0038788 0.00389204 0.00390527 0.00391851 0.00393186 0.0039452 0.00395854 0.00397188
0.00398522 0.00399867 0.00401211 0.00402556 0.004039 0.00405245 0.00406599 0.00407954 0.00409309 0.00410663
0.00412018 0.00413383 0.00414748 0.00416113 0.00417478 0.00418843 0.00420219 0.00421594 0.00422969 0.00424345
0.0042572 0.00427106 0.00428491 0.00429877 0.00431263 0.00432648 0.00434044 0.0043544 0.00436836 0.00438232
0.00439628 0.00441035 0.00442441 0.00443848 0.00445254 0.0044666 0.00448078 0.00449495 0.00450912 0.00452328
0.00453745 0.00455173 0.004566 0.00458028 0.00459455 0.00460882 0.00462321 0.00463759 0.00465197 0.00466635
0.00468073 0.00469522 0.0047097 0.00472419 0.00473868 0.00475316 0.00476776 0.00478236 0.00479695 0.00481155
0.00482614 0.00484085 0.00485555 0.00487026 0.00488496 0.00489966 0.00491448 0.00492929 0.00494411 0.00495892
0.00497373 0.00498866 0.00500359 0.00501851 0.00503344 0.00504836 0.0050634 0.00507844 0.00509348 0.00510852
0.00512356 0.00513871 0.00515386 0.00516901 0.00518417 0.00519932 0.00521459 0.00522986 0.00524512 0.00526039
0.00527566 0.00529104 0.00530643 0.00532181 0.0053372 0.00535258 0.00536809 0.00538359 0.00539909 0.0054146
0.0054301 0.00544573 0.00546135 0.00547697 0.00549259 0.00550822 0.00552396 0.00553971 0.00555545 0.00557119
0.00558694 0.00560281 0.00561867 0.00563454 0.00565041 0.00566628 0.00568227 0.00569826 0.00571425 0.00573024
0.00574623 0.00576235 0.00577847 0.00579458 0.0058107 0.00582682 0.00584306 0.0058593 0.00587555 0.00589179
0.00590803 0.00591075 0.00591346 0.00591617 0.00591888 0.00592158 0.00593524 0.00594891 0.00596257 0.00597623
0.00598989 0.0060064 0.0060229 0.0060394 0.0060559 0.0060724 0.00608904 0.00610567 0.0061223 0.00613894
0.00615557 0.00617234 0.00618911 0.00620587 0.00622264 0.0062394 0.00625631 0.00627321 0.00629011 0.00630701
0.00632391 0.00634095 0.00635799 0.00637502 0.00639206 0.00640909 0.00642628 0.00644345 0.00646062 0.0064778
0.00649497 0.00651231 0.00652962 0.00654693 0.00656424 0.00658156 0.00659904 0.0066165 0.00663395 0.0066514
0.00666886 0.00668649 0.0067041 0.00672169 0.00673928 0.0067569 0.00677468 0.00679243 0.00681017 0.0068279
0.00684567 0.0068636 0.00688151 0.0068994 0.00691728 0.0069352 0.00695329 0.00697136 0.00698939 0.00700743
0.00702551 0.00704376 0.00706199 0.00708018 0.00709838 0.00711662 0.00713503 0.00715342 0.00717177 0.00719013
0.00720853 0.00722712 0.00724567 0.00726419 0.00728271 0.00730128 0.00732003 0.00733875 0.00735744 0.00737614
0.00739488 0.00741381 0.0074327 0.00745157 0.00747045 0.00748936 0.00750846 0.00752753 0.00754659 0.00756565
0.00758474 0.00760403 0.00762327 0.00764252 0.00766177 0.00768104 0.00770051 0.00771995 0.00773938 0.00775883
0.00777829 0.00779795 0.00781757 0.00783721 0.00785686 0.00787651 0.00789637 0.0079162 0.00793604 0.00795589
0.00797575 0.0079958 0.00801583 0.00803588 0.00805594 0.00807601 0.00809295 0.00810989 0.00812684 0.00814379
0.00816006 0.00816352 0.00816697 0.00817042 0.00817388 0.00817733 0.00819779 0.00821825 0.00823873 0.00825922
0.00827973 0.00830042 0.00832111 0.00834181 0.00836253 0.00838326 0.00840419 0.0084251 0.00844604 0.00846698
0.00848794 0.00850911 0.00853026 0.00855143 0.00857261 0.0085938 0.00861523 0.00863663 0.00865803 0.00867944
0.00870089 0.00872257 0.00874423 0.00876587 0.00878753 0.00880924 0.00883118 0.00885309 0.00887499 0.0088969
0.00891887 0.00894107 0.00896325 0.00898541 0.00900758 0.00902982 0.00905229 0.00907475 0.00909717 0.00911962
0.00914213 0.00916488 0.00918761 0.00921032 0.00923305 0.00925584 0.00927887 0.00930189 0.00932488 0.0093479
0.00937098 0.0093943 0.0094176 0.0094409 0.00946423 0.0094876 0.00951121 0.00953481 0.00955842 0.00958206
0.00960573 0.00962965 0.00965355 0.00967748 0.00970144 0.00972542 0.00974965 0.00977388 0.00979813 0.00982242
0.00984673 0.00986313 0.00987954 0.00989596 0.0099124 0.00992829 0.00993657 0.00994485 0.00995313 0.00996142
0.00996971 0.00999458 0.0100195 0.0100444 0.0100694 0.0100944 0.0101196 0.0101448 0.0101701 0.0101954