/*--------------------------------*- C++ -*----------------------------------*\
  =========                 |
  \\      /  F ield         | OpenFOAM: The Open Source CFD Toolbox
   \\    /   O peration     | Website:  https://openfoam.org
    \\  /    A nd           | Version:  13
     \\/     M anipulation  |
\*---------------------------------------------------------------------------*/
FoamFile
{
    format      ascii;
    class       volScalarField;
    location    "8.5";
    object      epsilon;
}
// * * * * * * * * * * * * * * * * * * * * * * * * * * * * * * * * * * * * * //

dimensions      [0 2 -3 0 0 0 0];

internalField   nonuniform List<scalar> 
1600
(
2.91623e-05
9.87637e-05
0.000191712
0.000190473
0.000173545
0.00017741
0.000229191
0.000391223
0.00059106
0.000872878
0.00133242
0.00164099
0.00178742
0.00197943
0.00228672
0.00268362
0.00304799
0.00346975
0.00387327
0.00433884
0.00481234
0.00535689
0.0059442
0.00663156
0.00743117
0.00813179
0.00885289
0.00946183
0.0099917
0.0102765
0.0103893
0.0101768
0.00935896
0.00796648
0.00600428
0.00357574
0.00174797
0.000737942
0.000236584
4.93491e-05
0.000140851
0.000177216
0.000216958
0.000206802
0.000199004
0.000237612
0.000417544
0.000902111
0.0016223
0.00270292
0.00468724
0.00558038
0.00563365
0.00523628
0.00489849
0.00474572
0.0046142
0.00457237
0.00456494
0.00466341
0.00479938
0.00501149
0.00524085
0.00553325
0.00588793
0.00632097
0.006806
0.0073646
0.00791836
0.00838644
0.0086035
0.00864188
0.00806885
0.006998
0.00521607
0.00303176
0.0012838
0.000564736
0.000205567
8.42076e-05
0.000425277
0.000450672
0.000455407
0.000431214
0.000484818
0.000805332
0.00175981
0.0036214
0.00580906
0.00669987
0.0065114
0.00554815
0.00507407
0.00444826
0.00405448
0.00373862
0.00349702
0.00333551
0.0032388
0.0031966
0.00318423
0.00321987
0.00332585
0.00347316
0.00366354
0.0038956
0.00417522
0.00451142
0.00490842
0.0053899
0.00593671
0.00645108
0.00668872
0.00663625
0.00578391
0.00392071
0.00126157
0.000352028
0.000129345
6.89396e-05
0.000974673
0.000877103
0.000865477
0.000922202
0.00134288
0.00261396
0.0049446
0.00658966
0.00697125
0.00632429
0.00541389
0.00422594
0.00355274
0.00303954
0.00277942
0.00253327
0.00240967
0.00232812
0.00229397
0.00228532
0.00231143
0.00236822
0.00244647
0.00254906
0.00267378
0.00282623
0.00301011
0.00323211
0.00349784
0.00381506
0.00418796
0.00463365
0.00522901
0.00582929
0.0060654
0.00559927
0.00284583
0.000487629
0.000103053
4.71744e-05
0.00183415
0.00148814
0.00156954
0.00196716
0.00312769
0.00517714
0.0065076
0.0067666
0.00619301
0.00466667
0.00350697
0.00288656
0.0024659
0.00219555
0.00203974
0.00193754
0.00189413
0.00187925
0.00188171
0.00191636
0.00195817
0.0020154
0.00208189
0.00216413
0.00226247
0.00238379
0.00253359
0.00271876
0.00294214
0.00320693
0.00351533
0.00386812
0.00428515
0.00483858
0.00566166
0.00603599
0.00539132
0.00152528
0.000191483
5.38379e-05
0.00305842
0.00235284
0.00264479
0.00345474
0.00499553
0.00616213
0.00643935
0.00596553
0.00425217
0.00306091
0.00246921
0.00209924
0.00186579
0.00173919
0.00167685
0.00165057
0.00164473
0.00165663
0.00168182
0.00171553
0.00175551
0.00180536
0.001866
0.00194172
0.00203532
0.00215235
0.0022974
0.00247583
0.00269212
0.00294897
0.00324645
0.00358863
0.00395792
0.00437337
0.00490642
0.00562913
0.00593113
0.0041139
0.000582933
9.98477e-05
0.00459761
0.00346004
0.00392653
0.00486963
0.00581083
0.00609072
0.00575018
0.00414951
0.00282853
0.00220277
0.00187119
0.00165646
0.00154928
0.00149692
0.00147379
0.00146534
0.00146367
0.00146968
0.00148039
0.00149634
0.00151984
0.00155508
0.00160479
0.00167373
0.0017663
0.0018884
0.00204572
0.00224426
0.00248856
0.00277977
0.00311267
0.0034745
0.00385899
0.00426106
0.00466862
0.00517882
0.00556589
0.00546417
0.00148953
0.000225454
0.00624024
0.0046679
0.00509803
0.00565157
0.00585595
0.00559838
0.00426588
0.00278051
0.00206504
0.00171865
0.00152331
0.00141197
0.00135816
0.00132768
0.00130596
0.00128691
0.00126885
0.00125329
0.00124313
0.00123921
0.00124183
0.001262
0.00129829
0.00135646
0.00144123
0.00155892
0.00171731
0.00192538
0.00219243
0.00252501
0.00292155
0.00336489
0.00381968
0.00425532
0.00464453
0.00505771
0.00546655
0.00561126
0.00327972
0.000564503
0.00764557
0.00576945
0.0059442
0.00600108
0.00559693
0.00453607
0.00295344
0.00204834
0.001634
0.00143058
0.00131255
0.00124819
0.00120866
0.00117248
0.00113593
0.0010976
0.00105977
0.00102533
0.000997189
0.00098101
0.000974933
0.000979243
0.0010065
0.00105271
0.00112555
0.00123018
0.00137577
0.00157373
0.00183858
0.002186
0.0026274
0.0031585
0.00374265
0.00430276
0.00479226
0.00509694
0.00546569
0.00566387
0.0050012
0.00153667
0.00867558
0.00657685
0.00645009
0.00593754
0.00496668
0.00341248
0.00218397
0.00163004
0.00137278
0.00124476
0.00116513
0.00111457
0.00106794
0.0010172
0.000963976
0.000910014
0.000859316
0.000814896
0.00077936
0.000756621
0.000746509
0.000744701
0.000763169
0.000799804
0.000859302
0.00094728
0.00107229
0.00124668
0.00148769
0.00181793
0.00226295
0.00284184
0.00354568
0.00430551
0.00497944
0.00538854
0.00562692
0.0057814
0.00557941
0.0027453
0.00941438
0.00709819
0.00666642
0.00569288
0.00414077
0.00255683
0.00173781
0.00137255
0.00120039
0.00111012
0.00104457
0.000990625
0.000931172
0.000867355
0.000802839
0.000741024
0.000685734
0.000639147
0.000602811
0.000578598
0.000567176
0.000564025
0.000575798
0.000604858
0.000652434
0.000724299
0.000827863
0.000974893
0.00118289
0.0014773
0.00189243
0.0024671
0.003227
0.00414275
0.005067
0.00568006
0.00595217
0.00606398
0.00593831
0.00391272
0.0098103
0.00732424
0.00660394
0.00520337
0.00336484
0.00204107
0.001459
0.00119955
0.00107518
0.00100093
0.000936536
0.00087362
0.000803465
0.000731756
0.000662563
0.000599501
0.000545252
0.000500905
0.000466954
0.000443971
0.000432863
0.000429379
0.000436925
0.000459843
0.000497768
0.000555835
0.000640368
0.000761796
0.000936431
0.00118979
0.00156036
0.00210097
0.0028697
0.00389341
0.00508832
0.0059904
0.00632188
0.00640382
0.00628558
0.00485238
0.00979655
0.00730362
0.00641663
0.00466597
0.00273963
0.00171063
0.00127121
0.00107358
0.00097622
0.000906337
0.000837969
0.000766692
0.000690291
0.000615801
0.000546906
0.000486533
0.000436083
0.000395729
0.000365219
0.000344349
0.000334096
0.000330658
0.00033555
0.000353661
0.000384131
0.000431186
0.000500161
0.000599893
0.000744662
0.000957907
0.00127775
0.00176317
0.00249418
0.00354872
0.00493047
0.00627019
0.00680174
0.00688204
0.00657904
0.00573121
0.00967286
0.00718794
0.00607296
0.00412317
0.00231219
0.00148628
0.00113619
0.000976806
0.000893685
0.000822931
0.000749825
0.000673012
0.000594425
0.000520756
0.000454968
0.000398984
0.000353176
0.000317085
0.000290019
0.00027134
0.000262043
0.000258799
0.000262023
0.000276465
0.000301302
0.000339907
0.000396805
0.000479416
0.000599961
0.00077918
0.0010528
0.00148115
0.0021577
0.00319758
0.00466198
0.00639868
0.00730309
0.00743676
0.00702655
0.00654285
0.00937732
0.0069342
0.0056703
0.00365002
0.00202141
0.00132635
0.00103418
0.000900105
0.000823319
0.000750207
0.000673446
0.000594013
0.000516032
0.000445184
0.000383642
0.000332381
0.000291071
0.000258867
0.000234845
0.000218204
0.000209765
0.000206753
0.000208931
0.000220572
0.00024112
0.000273256
0.000320844
0.000390123
0.000491386
0.000642379
0.000874887
0.00124657
0.00185783
0.00286003
0.00440293
0.00642817
0.00782004
0.00806506
0.00751745
0.00733525
0.00887116
0.00662677
0.00526171
0.00326953
0.00181466
0.00120885
0.000955391
0.000837951
0.000763483
0.000688233
0.000609353
0.00052951
0.000453696
0.000386473
0.000329307
0.00028243
0.000245074
0.00021618
0.000194717
0.000179842
0.000172124
0.000169335
0.000170864
0.000180355
0.000197597
0.000224763
0.000265217
0.000324327
0.000410883
0.000540034
0.000739417
0.00106147
0.00160491
0.00253876
0.00408333
0.00633617
0.00830179
0.00877395
0.00811014
0.00810423
0.00829181
0.00629044
0.0048732
0.00297407
0.00166523
0.001121
0.000893815
0.000787209
0.000713347
0.000636809
0.0005572
0.000478338
0.00040535
0.000341827
0.000288658
0.000245557
0.000211501
0.000185321
0.000165947
0.000152521
0.000145381
0.00014278
0.000143911
0.000151742
0.000166389
0.000189668
0.000224548
0.000275755
0.000350929
0.000463102
0.000636125
0.0009167
0.00139877
0.00226093
0.00377717
0.00616261
0.00873033
0.00955125
0.00874195
0.00886775
0.00760209
0.00597241
0.00452838
0.00275147
0.00155787
0.00105593
0.00084594
0.000746085
0.000672315
0.000595373
0.000516074
0.000438954
0.000368899
0.000308749
0.000258981
0.000218977
0.000187575
0.000163554
0.000145834
0.000133558
0.000126837
0.000124361
0.000125247
0.000131803
0.000144406
0.000164626
0.000195123
0.00024016
0.000306555
0.000405761
0.000558445
0.000805453
0.00123277
0.00201893
0.00347957
0.00594909
0.00907059
0.0103688
0.0095038
0.00962484
0.00692791
0.00566329
0.0042302
0.00258975
0.00148455
0.00100784
0.000808988
0.000713095
0.000639496
0.00056304
0.000484843
0.000409754
0.000342406
0.000285142
0.000238147
0.000200593
0.00017125
0.000148887
0.000132433
0.000121034
0.000114571
0.000112132
0.00011284
0.000118424
0.000129425
0.000147244
0.00017427
0.000214424
0.000273928
0.000363127
0.000500266
0.000721137
0.00110322
0.00181925
0.00321266
0.00573344
0.00932365
0.0112181
0.0103376
0.0103762
0.00613823
0.00538768
0.0039877
0.00247763
0.00143737
0.000976469
0.000781768
0.00068748
0.000614325
0.000538927
0.000462234
0.000389336
0.00032447
0.000269564
0.00022467
0.000188908
0.000161057
0.000139904
0.000124376
0.000113618
0.000107281
0.000104787
0.000105448
0.000110337
0.000120034
0.000135849
0.000160141
0.000196442
0.000250504
0.000331946
0.000457255
0.000658013
0.00100301
0.00165471
0.00297216
0.00552615
0.00948181
0.0120988
0.0112886
0.0111263
0.0054949
0.00515485
0.00379334
0.00240605
0.00141977
0.000955653
0.00076276
0.000668062
0.000595402
0.00052181
0.000447358
0.000376487
0.000313421
0.00026023
0.00021693
0.000182594
0.000155985
0.000135747
0.000120837
0.000110455
0.00010411
0.000101439
0.000102243
0.00010667
0.000115533
0.000130032
0.000152118
0.000185061
0.000234518
0.000309914
0.000426275
0.000612062
0.000928197
0.00152446
0.00276215
0.00530689
0.00959647
0.0129932
0.0123472
0.0118664
0.00494522
0.00493998
0.00367079
0.00237018
0.0014273
0.000957301
0.000751642
0.000654748
0.000582849
0.000511209
0.000438498
0.00037003
0.000309524
0.000258231
0.000216221
0.000182644
0.000156281
0.000136169
0.000121307
0.000110895
0.000104383
0.000101426
0.000101987
0.000105843
0.000114149
0.000127934
0.000148714
0.000179619
0.000225891
0.000296076
0.000405166
0.000580034
0.000874252
0.00142403
0.00258457
0.00509591
0.00965203
0.0138998
0.013528
0.0126036
0.00445747
0.00476072
0.00359394
0.00237643
0.00145217
0.000968368
0.000752778
0.000646646
0.000574184
0.000505164
0.000436624
0.000370648
0.000311045
0.000260284
0.000218588
0.000185211
0.000159058
0.000139045
0.000124213
0.000113788
0.000107239
0.000104324
0.000104794
0.000108067
0.000115546
0.000128327
0.000148101
0.000177895
0.00022249
0.000289549
0.000394245
0.000561339
0.000838995
0.00135091
0.00243942
0.00489716
0.00967558
0.0148375
0.0148106
0.0133245
0.00401238
0.00461994
0.00357983
0.00240479
0.00150456
0.000994749
0.000760093
0.000647308
0.000572397
0.000505461
0.000438495
0.000374174
0.000315944
0.000266016
0.000224806
0.000191667
0.000165635
0.000145619
0.000130697
0.000120129
0.000113394
0.000110284
0.000110708
0.000113682
0.00012071
0.00013305
0.000151926
0.000180053
0.000222275
0.000287583
0.000390087
0.000552985
0.000821778
0.00130291
0.00232774
0.00471581
0.00967924
0.0157816
0.016209
0.0140343
0.0035954
0.0045122
0.00359674
0.00246937
0.00158469
0.00104565
0.000778159
0.000652301
0.000574326
0.000508033
0.000443586
0.000382063
0.000325955
0.000277091
0.000236181
0.000202954
0.000176628
0.000156248
0.000140943
0.000130005
0.000122916
0.000119504
0.000119894
0.000122707
0.000129472
0.000141629
0.0001602
0.000187793
0.000228919
0.000291566
0.000390292
0.000551016
0.000815865
0.0012795
0.00224717
0.00456066
0.0096652
0.0167201
0.0177296
0.0147191
0.00319887
0.00443469
0.00364395
0.00257026
0.00169232
0.00112051
0.000814658
0.000665291
0.000580336
0.000514159
0.000452888
0.00039414
0.000339955
0.000292153
0.0002516
0.000218264
0.000191571
0.000170725
0.000154944
0.000143566
0.000136089
0.000132353
0.000132731
0.000135483
0.000142151
0.000154331
0.000172889
0.000200334
0.000241072
0.000303198
0.000401384
0.000560393
0.00082053
0.00127194
0.00219928
0.00443348
0.00964823
0.0176443
0.019373
0.0153815
0.00281209
0.00437237
0.00372871
0.00270598
0.00183398
0.00122457
0.000872805
0.000692019
0.000593243
0.000524783
0.000465216
0.000409197
0.000357233
0.000310803
0.000270851
0.000237562
0.000210586
0.000189304
0.000173053
0.000161246
0.000153408
0.000149378
0.000149776
0.000152562
0.000159296
0.000171697
0.000190524
0.000218243
0.000259203
0.000321473
0.000419891
0.000580405
0.000842971
0.00128254
0.0021791
0.00433277
0.00964
0.0185747
0.0211195
0.0160084
0.00243186
0.00431611
0.00384129
0.00285856
0.00200379
0.00136204
0.000959623
0.000738493
0.000617916
0.000541413
0.000481088
0.000427002
0.000377294
0.000332568
0.000293602
0.000260703
0.000233711
0.000212193
0.000195616
0.000183501
0.00017541
0.000171213
0.000171681
0.000174604
0.00018158
0.00019439
0.000213748
0.000242139
0.000283943
0.000347376
0.000447486
0.000610936
0.000878047
0.00131696
0.00217646
0.00425583
0.00959479
0.019497
0.0229453
0.0166036
0.00204695
0.00422212
0.00392633
0.00305809
0.00220439
0.0015346
0.00108025
0.000810729
0.000659036
0.000567538
0.000502328
0.000448219
0.000400146
0.000357182
0.000319548
0.000287461
0.000260861
0.000239462
0.000222858
0.000210689
0.000202544
0.000198441
0.000199057
0.000202244
0.000209668
0.000223079
0.000243226
0.000272698
0.000315991
0.00038163
0.000484866
0.000653258
0.000927915
0.00137306
0.00220899
0.00421921
0.00954786
0.0203899
0.0247968
0.0171553
0.00169869
0.00410009
0.00397182
0.00327763
0.00243292
0.00174634
0.0012444
0.000920273
0.000726706
0.000610339
0.000533323
0.000475129
0.000426707
0.000384799
0.000348485
0.000317531
0.000291768
0.000270953
0.000254745
0.000242922
0.000235003
0.000231406
0.000232281
0.000235902
0.000244034
0.00025827
0.000279502
0.000310535
0.00035606
0.000425125
0.000533124
0.00070859
0.00099312
0.00145055
0.00226863
0.00420767
0.00949881
0.0211914
0.0265918
0.0176733
0.00141303
0.00384855
0.00401103
0.00349075
0.00266868
0.00198508
0.00145187
0.00107635
0.000833559
0.000681667
0.000583384
0.00051429
0.000461214
0.000417941
0.000381775
0.000351546
0.000326641
0.000306662
0.00029118
0.000280104
0.000272689
0.000270094
0.000271366
0.000275637
0.000284813
0.000300182
0.000322902
0.000356166
0.000404882
0.00047892
0.000593592
0.000778814
0.00107579
0.00155268
0.00236291
0.00423939
0.00947678
0.0219146
0.0282534
0.0181536
0.00115284
0.00332373
0.00407974
0.00370171
0.00291855
0.00224819
0.0017036
0.00128905
0.000995788
0.000798615
0.000667329
0.000577215
0.000512023
0.000462384
0.000423254
0.000391955
0.000366969
0.000347449
0.000332577
0.000322425
0.000315576
0.000314421
0.000316228
0.000321382
0.000331999
0.000348989
0.000373846
0.000410405
0.000463686
0.000544863
0.000668649
0.000867396
0.00118018
0.00168539
0.00250116
0.00434062
0.00947867
0.0225399
0.0297006
0.0186197
0.000909098
0.0025057
0.00401165
0.00379035
0.00315946
0.00251807
0.00198868
0.00156062
0.00123028
0.00098693
0.00081298
0.000689443
0.00060058
0.000535233
0.000486143
0.000448786
0.000420236
0.000398871
0.000383026
0.000372903
0.00036597
0.000365991
0.000368371
0.00037457
0.000387
0.000406412
0.00043449
0.000476152
0.000536155
0.000627908
0.000764483
0.000983081
0.00131776
0.00186572
0.00270892
0.0045519
0.00962696
0.0231645
0.0308349
0.0190935
0.000782657
0.00175498
0.00372744
0.00372614
0.00339909
0.00280385
0.00230844
0.00189107
0.00154479
0.0012664
0.00104933
0.0008839
0.000759393
0.000666104
0.000596217
0.000543981
0.000504974
0.00047657
0.000455852
0.000442863
0.000433967
0.000433515
0.000436185
0.00044335
0.000457812
0.000481009
0.000514224
0.000564309
0.000634939
0.00074374
0.000900162
0.00115138
0.00152164
0.0021407
0.00305378
0.00497563
0.0100342
0.0239068
0.0315295
0.0193923
0.000808019
0.00136048
0.00306206
0.00352512
0.00341162
0.0030846
0.00267184
0.00230267
0.00197069
0.00167779
0.00142768
0.00122031
0.00105248
0.000919231
0.000814896
0.000734011
0.000671889
0.000625262
0.000591133
0.000568253
0.000552867
0.000547173
0.000549381
0.000557052
0.000573483
0.000603255
0.000645993
0.000712055
0.000802632
0.000943623
0.00113731
0.0014513
0.00189166
0.00264574
0.00371993
0.00588427
0.0110699
0.0250394
0.0318096
0.0194998
0.00114499
0.00120516
0.00230591
0.00305797
0.00336533
0.00329397
0.00308697
0.00280147
0.00251638
0.00223952
0.00197791
0.00174033
0.00153194
0.00135367
0.00120587
0.00108843
0.000995772
0.000923834
0.000868952
0.00082985
0.000803865
0.000791552
0.000794271
0.000805603
0.000830457
0.000877186
0.000944739
0.00104949
0.00118919
0.00140488
0.00168711
0.0021439
0.00274822
0.00379341
0.00522856
0.00792656
0.0133874
0.0268978
0.0317991
0.0193863
0.00184795
0.00140232
0.00214092
0.00300298
0.0035319
0.00377264
0.00377513
0.00366558
0.00344184
0.00318219
0.00291449
0.00265208
0.00240847
0.00219034
0.00200093
0.00183997
0.00170986
0.0016072
0.00153248
0.00148277
0.00145586
0.00145964
0.00147971
0.00152596
0.00160548
0.00172358
0.00187745
0.00210144
0.00239571
0.00281814
0.00335892
0.00418584
0.00522456
0.00694906
0.00909184
0.0130836
0.0185812
0.0301487
0.0316533
0.0187877
0.00306348
0.00213742
0.00298935
0.00404399
0.00485597
0.00543924
0.0056995
0.00573082
0.00561675
0.00537418
0.0050908
0.00479545
0.00451565
0.00426374
0.00405273
0.00388305
0.00376419
0.00368319
0.0036725
0.00369582
0.00376183
0.00389523
0.00409086
0.00434201
0.00468316
0.00509553
0.00564021
0.00628586
0.00709582
0.00812943
0.00951622
0.0113138
0.013569
0.0166839
0.0203257
0.0260163
0.0309853
0.0360639
0.032629
0.0176741
0.00506934
0.00495069
0.00834462
0.0111424
0.012727
0.0135706
0.0138545
0.0137969
0.0135911
0.0132227
0.0128319
0.01246
0.0121585
0.0119373
0.0118236
0.0118411
0.0119344
0.0121407
0.0124946
0.0129633
0.0135738
0.0142892
0.0151894
0.0161997
0.017474
0.0188427
0.0206216
0.0224262
0.0249108
0.027234
0.0304908
0.0333627
0.0376015
0.0409561
0.0459646
0.0486504
0.0474842
0.0420821
0.0330661
0.0153743
0.00343759
0.00527596
0.00687915
0.00847833
0.00995594
0.0112828
0.0124175
0.0133308
0.0139782
0.0143811
0.0146337
0.0147074
0.0146775
0.0145907
0.0144322
0.0142311
0.0140115
0.0137999
0.0135772
0.0133815
0.0131885
0.0130351
0.0128931
0.0127968
0.0127198
0.0126933
0.0127062
0.012747
0.012851
0.0129587
0.0131895
0.0133831
0.0138306
0.0141784
0.0149612
0.0154589
0.0163039
0.0163693
0.0158147
0.0132034
)
;

boundaryField
{
    movingWall
    {
        type            epsilonWallFunction;
        value           nonuniform List<scalar> 
40
(
0.00343759
0.00527596
0.00687915
0.00847833
0.00995594
0.0112828
0.0124175
0.0133308
0.0139782
0.0143811
0.0146337
0.0147074
0.0146775
0.0145907
0.0144322
0.0142311
0.0140115
0.0137999
0.0135772
0.0133815
0.0131885
0.0130351
0.0128931
0.0127968
0.0127198
0.0126933
0.0127062
0.012747
0.012851
0.0129587
0.0131895
0.0133831
0.0138306
0.0141784
0.0149612
0.0154589
0.0163039
0.0163693
0.0158147
0.0132034
)
;
    }
    fixedWalls
    {
        type            epsilonWallFunction;
        value           nonuniform List<scalar> 
120
(
2.91623e-05
0.000140851
0.000425277
0.000974673
0.00183415
0.00305842
0.00459761
0.00624024
0.00764557
0.00867558
0.00941438
0.0098103
0.00979655
0.00967286
0.00937732
0.00887116
0.00829181
0.00760209
0.00692791
0.00613823
0.0054949
0.00494522
0.00445747
0.00401238
0.0035954
0.00319887
0.00281209
0.00243186
0.00204695
0.00169869
0.00141303
0.00115284
0.000909098
0.000782657
0.000808019
0.00114499
0.00184795
0.00306348
0.00506934
0.00343759
4.93491e-05
8.42076e-05
6.89396e-05
4.71744e-05
5.38379e-05
9.98477e-05
0.000225454
0.000564503
0.00153667
0.0027453
0.00391272
0.00485238
0.00573121
0.00654285
0.00733525
0.00810423
0.00886775
0.00962484
0.0103762
0.0111263
0.0118664
0.0126036
0.0133245
0.0140343
0.0147191
0.0153815
0.0160084
0.0166036
0.0171553
0.0176733
0.0181536
0.0186197
0.0190935
0.0193923
0.0194998
0.0193863
0.0187877
0.0176741
0.0153743
0.0132034
2.91623e-05
9.87637e-05
0.000191712
0.000190473
0.000173545
0.00017741
0.000229191
0.000391223
0.00059106
0.000872878
0.00133242
0.00164099
0.00178742
0.00197943
0.00228672
0.00268362
0.00304799
0.00346975
0.00387327
0.00433884
0.00481234
0.00535689
0.0059442
0.00663156
0.00743117
0.00813179
0.00885289
0.00946183
0.0099917
0.0102765
0.0103893
0.0101768
0.00935896
0.00796648
0.00600428
0.00357574
0.00174797
0.000737942
0.000236584
4.93491e-05
)
;
    }
    frontAndBack
    {
        type            empty;
    }
}


// ************************************************************************* //
