/*--------------------------------*- C++ -*----------------------------------*\
  =========                 |
  \\      /  F ield         | OpenFOAM: The Open Source CFD Toolbox
   \\    /   O peration     | Website:  https://openfoam.org
    \\  /    A nd           | Version:  13
     \\/     M anipulation  |
\*---------------------------------------------------------------------------*/
FoamFile
{
    format      ascii;
    class       volScalarField;
    location    "8.5";
    object      nut;
}
// * * * * * * * * * * * * * * * * * * * * * * * * * * * * * * * * * * * * * //

dimensions      [0 2 -1 0 0 0 0];

internalField   nonuniform List<scalar> 
1600
(
1.6032e-08
5.42859e-08
1.05368e-07
1.0468e-07
9.53705e-08
9.74914e-08
1.25943e-07
2.14984e-07
3.24817e-07
4.79776e-07
7.3229e-07
9.01807e-07
9.82269e-07
1.08784e-06
1.25677e-06
1.4749e-06
1.67512e-06
1.90687e-06
2.12859e-06
2.38441e-06
2.64458e-06
2.94379e-06
3.26648e-06
3.64416e-06
4.08351e-06
4.46839e-06
4.86455e-06
5.19907e-06
5.49015e-06
5.64659e-06
5.70857e-06
5.59176e-06
5.14247e-06
4.37745e-06
3.29936e-06
1.96505e-06
9.60684e-07
4.05612e-07
1.30051e-07
2.71295e-08
7.74294e-08
1.24922e-06
3.71965e-06
4.41475e-06
4.31341e-06
4.123e-06
4.69611e-06
6.3941e-06
7.01445e-06
8.15148e-06
9.52241e-06
1.03705e-05
1.07484e-05
1.15759e-05
1.23533e-05
1.39583e-05
1.49885e-05
1.66977e-05
1.79278e-05
1.9455e-05
2.07122e-05
2.20736e-05
2.32972e-05
2.43179e-05
2.48791e-05
2.57107e-05
2.62387e-05
2.67287e-05
2.68703e-05
2.65206e-05
2.62532e-05
2.49619e-05
2.31215e-05
1.98985e-05
1.66052e-05
1.09095e-05
5.34442e-06
2.14075e-06
7.37802e-07
4.62891e-08
2.33775e-07
3.37302e-06
8.14639e-06
9.7484e-06
1.02677e-05
1.06921e-05
1.34299e-05
1.71608e-05
1.80995e-05
1.82861e-05
1.67529e-05
1.58568e-05
1.55044e-05
1.69726e-05
1.84208e-05
2.02123e-05
2.21104e-05
2.41259e-05
2.59139e-05
2.78001e-05
2.93359e-05
3.06374e-05
3.13349e-05
3.18956e-05
3.22164e-05
3.24014e-05
3.23106e-05
3.19805e-05
3.13052e-05
3.02112e-05
2.83055e-05
2.63641e-05
2.48186e-05
2.11106e-05
1.75142e-05
1.07208e-05
4.65509e-06
2.30408e-06
9.42243e-07
3.78957e-08
5.35741e-07
7.31428e-06
1.40267e-05
1.62767e-05
1.73834e-05
1.92849e-05
2.18167e-05
2.2135e-05
2.16873e-05
1.87746e-05
1.78764e-05
1.92845e-05
2.12029e-05
2.39871e-05
2.59339e-05
2.84429e-05
3.02824e-05
3.20232e-05
3.32904e-05
3.44599e-05
3.52681e-05
3.59398e-05
3.6294e-05
3.65156e-05
3.64989e-05
3.62868e-05
3.58214e-05
3.5086e-05
3.3998e-05
3.25312e-05
3.05299e-05
2.79792e-05
2.48719e-05
2.15129e-05
1.8602e-05
1.42757e-05
5.30241e-06
1.80142e-06
6.47312e-07
2.59291e-08
1.0081e-06
1.31182e-05
2.07727e-05
2.22064e-05
2.31651e-05
2.50051e-05
2.50903e-05
2.43945e-05
2.15612e-05
2.0379e-05
2.23718e-05
2.4589e-05
2.74179e-05
3.01023e-05
3.21443e-05
3.39619e-05
3.57298e-05
3.70534e-05
3.84173e-05
3.91641e-05
3.98722e-05
4.02622e-05
4.05103e-05
4.05568e-05
4.04593e-05
4.01864e-05
3.97046e-05
3.89404e-05
3.78009e-05
3.60674e-05
3.37936e-05
3.11056e-05
2.8193e-05
2.46156e-05
2.00078e-05
1.64597e-05
1.04569e-05
2.79387e-06
6.48421e-07
2.9587e-08
1.68091e-06
1.93509e-05
2.66015e-05
2.70686e-05
2.75924e-05
2.71503e-05
2.63746e-05
2.39407e-05
2.22523e-05
2.43808e-05
2.67871e-05
2.97184e-05
3.26326e-05
3.47907e-05
3.65784e-05
3.83383e-05
3.99368e-05
4.11199e-05
4.20576e-05
4.2736e-05
4.3289e-05
4.35946e-05
4.37547e-05
4.37198e-05
4.3574e-05
4.32821e-05
4.28562e-05
4.22591e-05
4.14348e-05
4.03054e-05
3.78631e-05
3.45535e-05
3.12046e-05
2.75473e-05
2.32621e-05
1.8419e-05
1.33203e-05
4.46068e-06
9.92525e-07
5.48632e-08
2.52673e-06
2.41736e-05
3.1178e-05
3.04262e-05
2.91032e-05
2.8268e-05
2.59974e-05
2.36947e-05
2.56225e-05
2.83676e-05
3.11964e-05
3.43263e-05
3.64941e-05
3.84237e-05
4.02626e-05
4.18358e-05
4.3178e-05
4.42145e-05
4.50481e-05
4.55824e-05
4.59205e-05
4.61055e-05
4.62014e-05
4.61958e-05
4.60805e-05
4.58652e-05
4.55448e-05
4.50963e-05
4.44662e-05
4.35536e-05
4.25004e-05
4.04775e-05
3.69541e-05
3.29943e-05
2.80279e-05
2.17449e-05
1.57981e-05
8.31243e-06
1.60767e-06
1.23873e-07
3.42938e-06
2.83924e-05
3.40554e-05
3.23379e-05
3.09077e-05
2.80195e-05
2.54273e-05
2.63613e-05
2.92046e-05
3.21975e-05
3.51661e-05
3.76618e-05
3.96048e-05
4.15962e-05
4.32133e-05
4.45949e-05
4.56836e-05
4.64796e-05
4.70012e-05
4.74063e-05
4.78762e-05
4.80725e-05
4.82212e-05
4.82411e-05
4.81585e-05
4.79805e-05
4.77151e-05
4.73689e-05
4.69233e-05
4.63089e-05
4.53626e-05
4.39265e-05
4.1383e-05
3.75941e-05
3.38192e-05
2.76542e-05
1.92532e-05
1.05693e-05
2.14367e-06
3.10151e-07
4.20162e-06
3.11932e-05
3.63413e-05
3.44324e-05
3.07587e-05
2.75479e-05
2.66426e-05
2.94122e-05
3.26492e-05
3.55783e-05
3.82787e-05
4.02497e-05
4.22181e-05
4.3838e-05
4.53082e-05
4.64389e-05
4.73328e-05
4.80626e-05
4.87435e-05
4.92495e-05
4.95234e-05
5.00668e-05
5.0184e-05
5.02783e-05
5.01899e-05
4.99806e-05
4.96488e-05
4.92331e-05
4.87693e-05
4.82731e-05
4.76804e-05
4.67613e-05
4.47583e-05
4.11488e-05
3.71164e-05
3.30301e-05
2.50816e-05
1.47679e-05
4.66174e-06
8.44295e-07
4.76763e-06
3.28422e-05
3.8033e-05
3.47315e-05
3.04066e-05
2.74594e-05
2.91898e-05
3.24511e-05
3.56395e-05
3.82273e-05
4.05335e-05
4.23229e-05
4.41535e-05
4.55932e-05
4.68625e-05
4.78829e-05
4.87983e-05
4.96358e-05
5.04133e-05
5.11297e-05
5.15422e-05
5.21243e-05
5.24502e-05
5.25772e-05
5.25271e-05
5.22731e-05
5.18335e-05
5.12367e-05
5.05494e-05
4.98569e-05
4.92272e-05
4.86245e-05
4.77768e-05
4.46792e-05
4.0052e-05
3.61941e-05
2.94634e-05
1.82857e-05
6.20426e-06
1.50835e-06
5.17361e-06
3.40547e-05
3.95972e-05
3.4879e-05
2.99873e-05
2.90811e-05
3.18018e-05
3.51243e-05
3.7963e-05
4.01413e-05
4.22317e-05
4.39539e-05
4.56156e-05
4.6929e-05
4.81365e-05
4.92122e-05
5.02617e-05
5.12693e-05
5.22199e-05
5.31863e-05
5.37887e-05
5.42994e-05
5.4923e-05
5.50797e-05
5.51058e-05
5.48562e-05
5.43596e-05
5.36133e-05
5.26725e-05
5.16407e-05
5.06583e-05
4.98281e-05
4.90704e-05
4.79209e-05
4.35981e-05
3.95e-05
3.43227e-05
2.30775e-05
8.85314e-06
2.14972e-06
5.39119e-06
3.43498e-05
4.00298e-05
3.50408e-05
3.01898e-05
3.10594e-05
3.412e-05
3.72142e-05
3.96057e-05
4.16029e-05
4.35796e-05
4.5211e-05
4.67551e-05
4.80479e-05
4.93181e-05
5.05445e-05
5.17785e-05
5.29768e-05
5.41042e-05
5.52681e-05
5.60239e-05
5.64699e-05
5.73067e-05
5.75106e-05
5.76182e-05
5.74345e-05
5.69728e-05
5.61947e-05
5.51111e-05
5.38026e-05
5.24453e-05
5.12747e-05
5.04442e-05
4.97824e-05
4.62728e-05
4.14863e-05
3.75044e-05
2.67262e-05
1.11545e-05
2.66595e-06
5.38365e-06
3.4287e-05
4.039e-05
3.49756e-05
3.10994e-05
3.28655e-05
3.59709e-05
3.87642e-05
4.08054e-05
4.27605e-05
4.4627e-05
4.61972e-05
4.77046e-05
4.90691e-05
5.04772e-05
5.18901e-05
5.33118e-05
5.46804e-05
5.59467e-05
5.71966e-05
5.80047e-05
5.84712e-05
5.93521e-05
5.95933e-05
5.97569e-05
5.967e-05
5.93236e-05
5.86466e-05
5.75829e-05
5.61343e-05
5.44268e-05
5.27376e-05
5.1396e-05
5.04953e-05
4.90328e-05
4.38039e-05
4.04429e-05
3.07242e-05
1.37552e-05
3.14876e-06
5.31569e-06
3.40008e-05
4.06685e-05
3.49493e-05
3.23146e-05
3.43788e-05
3.73703e-05
3.98649e-05
4.17362e-05
4.36636e-05
4.54441e-05
4.70016e-05
4.85424e-05
5.00339e-05
5.16073e-05
5.32024e-05
5.47853e-05
5.62812e-05
5.76291e-05
5.88835e-05
5.96932e-05
6.01533e-05
6.09666e-05
6.11946e-05
6.13635e-05
6.13588e-05
6.11634e-05
6.06894e-05
5.98199e-05
5.84588e-05
5.66273e-05
5.457e-05
5.27606e-05
5.16683e-05
5.12614e-05
4.64307e-05
4.22123e-05
3.37988e-05
1.61365e-05
3.59465e-06
5.15332e-06
3.33817e-05
4.04397e-05
3.51389e-05
3.33371e-05
3.55498e-05
3.83886e-05
4.06451e-05
4.24642e-05
4.43618e-05
4.60923e-05
4.7679e-05
4.92963e-05
5.09346e-05
5.26699e-05
5.44244e-05
5.61377e-05
5.77257e-05
5.912e-05
6.03144e-05
6.10936e-05
6.15191e-05
6.21874e-05
6.23398e-05
6.24487e-05
6.24737e-05
6.2411e-05
6.21773e-05
6.16169e-05
6.05352e-05
5.87983e-05
5.64919e-05
5.40482e-05
5.21257e-05
5.11485e-05
4.84662e-05
4.39079e-05
3.6761e-05
1.84901e-05
4.02996e-06
4.8752e-06
3.25246e-05
3.99792e-05
3.54087e-05
3.4132e-05
3.64e-05
3.91087e-05
4.12255e-05
4.30273e-05
4.48981e-05
4.66114e-05
4.82513e-05
4.99619e-05
5.17417e-05
5.362e-05
5.55089e-05
5.73292e-05
5.89896e-05
6.04137e-05
6.15458e-05
6.22647e-05
6.26359e-05
6.31154e-05
6.31385e-05
6.31208e-05
6.30995e-05
6.31025e-05
6.30729e-05
6.28493e-05
6.21736e-05
6.07772e-05
5.85667e-05
5.5867e-05
5.34314e-05
5.18543e-05
5.01119e-05
4.50898e-05
3.90545e-05
2.07195e-05
4.4524e-06
4.55686e-06
3.14836e-05
3.93441e-05
3.56598e-05
3.47087e-05
3.69836e-05
3.96089e-05
4.16554e-05
4.3456e-05
4.53036e-05
4.70207e-05
4.87202e-05
5.05201e-05
5.24206e-05
5.44175e-05
5.64181e-05
5.83309e-05
6.00574e-05
6.15099e-05
6.26195e-05
6.32597e-05
6.35655e-05
6.38438e-05
6.37069e-05
6.35151e-05
6.3379e-05
6.33709e-05
6.34768e-05
6.35579e-05
6.33228e-05
6.23796e-05
6.0408e-05
5.75143e-05
5.45225e-05
5.25733e-05
5.16557e-05
4.63595e-05
4.0956e-05
2.28649e-05
4.87184e-06
4.17785e-06
3.04287e-05
3.85846e-05
3.58379e-05
3.51069e-05
3.73528e-05
3.99373e-05
4.19582e-05
4.37644e-05
4.55947e-05
4.73249e-05
4.90735e-05
5.09435e-05
5.29364e-05
5.50254e-05
5.71171e-05
5.91118e-05
6.09043e-05
6.23956e-05
6.35057e-05
6.40815e-05
6.43198e-05
6.44093e-05
6.41066e-05
6.37195e-05
6.34203e-05
6.33316e-05
6.34888e-05
6.38053e-05
6.39978e-05
6.36083e-05
6.21161e-05
5.93177e-05
5.58416e-05
5.31431e-05
5.21416e-05
4.76123e-05
4.25108e-05
2.49256e-05
5.28775e-06
3.8074e-06
2.92265e-05
3.77357e-05
3.59341e-05
3.53402e-05
3.75456e-05
4.0116e-05
4.2154e-05
4.39728e-05
4.57829e-05
4.75184e-05
4.93013e-05
5.12188e-05
5.32693e-05
5.5416e-05
5.75702e-05
5.9629e-05
6.148e-05
6.30117e-05
6.41322e-05
6.46745e-05
6.4851e-05
6.47889e-05
6.43377e-05
6.37617e-05
6.3284e-05
6.30766e-05
6.32159e-05
6.36897e-05
6.42444e-05
6.44028e-05
6.34862e-05
6.09824e-05
5.72203e-05
5.37854e-05
5.23115e-05
4.89354e-05
4.38303e-05
2.68291e-05
5.70051e-06
3.37344e-06
2.82714e-05
3.6802e-05
3.59098e-05
3.54789e-05
3.7584e-05
4.01718e-05
4.22364e-05
4.40636e-05
4.586e-05
4.76027e-05
4.93853e-05
5.12978e-05
5.33601e-05
5.55329e-05
5.77266e-05
5.98298e-05
6.17171e-05
6.32709e-05
6.43939e-05
6.49353e-05
6.50503e-05
6.48092e-05
6.42189e-05
6.35337e-05
6.29761e-05
6.2653e-05
6.27286e-05
6.32999e-05
6.41476e-05
6.48288e-05
6.45585e-05
6.25417e-05
5.86983e-05
5.45327e-05
5.22189e-05
4.99677e-05
4.49854e-05
2.86893e-05
6.11254e-06
3.01991e-06
2.68992e-05
3.58935e-05
3.58165e-05
3.5486e-05
3.75058e-05
4.00689e-05
4.22195e-05
4.40773e-05
4.58455e-05
4.7546e-05
4.93255e-05
5.12607e-05
5.33269e-05
5.548e-05
5.76345e-05
5.96698e-05
6.15115e-05
6.30477e-05
6.41687e-05
6.47665e-05
6.48679e-05
6.44939e-05
6.38249e-05
6.30038e-05
6.22571e-05
6.18113e-05
6.19698e-05
6.27082e-05
6.37784e-05
6.49246e-05
6.52937e-05
6.38715e-05
6.01589e-05
5.54553e-05
5.243e-05
5.07086e-05
4.60499e-05
3.03633e-05
6.5191e-06
2.71782e-06
2.53581e-05
3.44478e-05
3.58361e-05
3.54579e-05
3.72257e-05
3.98954e-05
4.2059e-05
4.39259e-05
4.56881e-05
4.74242e-05
4.91149e-05
5.08361e-05
5.27227e-05
5.47522e-05
5.68341e-05
5.89031e-05
6.07868e-05
6.23557e-05
6.34984e-05
6.41387e-05
6.42923e-05
6.4024e-05
6.34352e-05
6.25882e-05
6.16808e-05
6.11188e-05
6.10868e-05
6.17015e-05
6.30968e-05
6.47691e-05
6.57478e-05
6.49744e-05
6.1531e-05
5.63768e-05
5.27305e-05
5.1175e-05
4.70279e-05
3.19914e-05
6.92406e-06
2.44977e-06
2.36882e-05
3.28664e-05
3.57902e-05
3.54066e-05
3.70106e-05
3.93823e-05
4.18294e-05
4.37588e-05
4.54839e-05
4.70094e-05
4.86325e-05
5.04555e-05
5.236e-05
5.43175e-05
5.63076e-05
5.82468e-05
6.00197e-05
6.15046e-05
6.25963e-05
6.32162e-05
6.33091e-05
6.30526e-05
6.2523e-05
6.17729e-05
6.11098e-05
6.06492e-05
6.05116e-05
6.0969e-05
6.23845e-05
6.42562e-05
6.58703e-05
6.58998e-05
6.27668e-05
5.72793e-05
5.30611e-05
5.1469e-05
4.78747e-05
3.35217e-05
7.32007e-06
2.20515e-06
2.19271e-05
3.09748e-05
3.55988e-05
3.53725e-05
3.66779e-05
3.90767e-05
4.1226e-05
4.32853e-05
4.50035e-05
4.66466e-05
4.82841e-05
4.99573e-05
5.17051e-05
5.35021e-05
5.5314e-05
5.70657e-05
5.86857e-05
6.00639e-05
6.11031e-05
6.17312e-05
6.18884e-05
6.16907e-05
6.12466e-05
6.05745e-05
5.99144e-05
5.94837e-05
5.95971e-05
6.04738e-05
6.19384e-05
6.38704e-05
6.58899e-05
6.64514e-05
6.39769e-05
5.80478e-05
5.33091e-05
5.16232e-05
4.86285e-05
3.50074e-05
7.70999e-06
1.97598e-06
2.01142e-05
2.91463e-05
3.52046e-05
3.51431e-05
3.61995e-05
3.85712e-05
4.08528e-05
4.27314e-05
4.45223e-05
4.61964e-05
4.76601e-05
4.91404e-05
5.07029e-05
5.23439e-05
5.40065e-05
5.56153e-05
5.70903e-05
5.83527e-05
5.93249e-05
5.99502e-05
6.01742e-05
6.00459e-05
5.97227e-05
5.92102e-05
5.86913e-05
5.83721e-05
5.8481e-05
5.92739e-05
6.10107e-05
6.35593e-05
6.58523e-05
6.67177e-05
6.47332e-05
5.86823e-05
5.34469e-05
5.17302e-05
4.93499e-05
3.63922e-05
8.08618e-06
1.75804e-06
1.82829e-05
2.7351e-05
3.42233e-05
3.53093e-05
3.58291e-05
3.77874e-05
4.02775e-05
4.2302e-05
4.40314e-05
4.55057e-05
4.69284e-05
4.82967e-05
4.96891e-05
5.11284e-05
5.25855e-05
5.40036e-05
5.53147e-05
5.64508e-05
5.73484e-05
5.79648e-05
5.82779e-05
5.82276e-05
5.80461e-05
5.77387e-05
5.7412e-05
5.72708e-05
5.75298e-05
5.84427e-05
6.0212e-05
6.27909e-05
6.555e-05
6.70886e-05
6.52697e-05
5.92178e-05
5.34084e-05
5.1592e-05
4.99609e-05
3.77172e-05
8.45007e-06
1.54546e-06
1.64355e-05
2.55594e-05
3.25904e-05
3.53343e-05
3.56162e-05
3.71026e-05
3.94208e-05
4.16131e-05
4.33299e-05
4.47857e-05
4.61167e-05
4.7369e-05
4.86022e-05
4.98487e-05
5.11013e-05
5.23246e-05
5.34676e-05
5.44759e-05
5.52995e-05
5.59003e-05
5.63204e-05
5.63505e-05
5.63182e-05
5.62386e-05
5.61287e-05
5.61935e-05
5.66234e-05
5.7662e-05
5.95381e-05
6.22791e-05
6.52157e-05
6.70212e-05
6.59138e-05
5.94971e-05
5.32238e-05
5.13361e-05
5.04626e-05
3.89128e-05
8.79439e-06
1.33647e-06
1.46074e-05
2.36625e-05
3.07243e-05
3.51892e-05
3.53811e-05
3.64677e-05
3.84042e-05
4.06274e-05
4.24581e-05
4.39529e-05
4.52335e-05
4.63888e-05
4.74836e-05
4.85587e-05
4.96245e-05
5.06656e-05
5.16498e-05
5.25381e-05
5.3296e-05
5.38757e-05
5.44141e-05
5.4522e-05
5.46357e-05
5.47888e-05
5.49024e-05
5.51855e-05
5.58015e-05
5.69791e-05
5.89276e-05
6.17237e-05
6.47541e-05
6.67164e-05
6.58405e-05
5.95692e-05
5.28258e-05
5.08205e-05
5.08805e-05
4.00385e-05
9.12136e-06
1.1249e-06
1.28113e-05
2.21722e-05
2.83796e-05
3.44913e-05
3.54113e-05
3.60242e-05
3.75604e-05
3.95249e-05
4.14387e-05
4.29942e-05
4.42649e-05
4.53553e-05
4.6344e-05
4.72824e-05
4.81953e-05
4.90842e-05
4.99343e-05
5.0721e-05
5.14288e-05
5.19875e-05
5.26465e-05
5.28253e-05
5.3074e-05
5.34501e-05
5.37778e-05
5.42736e-05
5.50707e-05
5.63837e-05
5.83771e-05
6.11602e-05
6.41291e-05
6.60683e-05
6.5265e-05
5.92356e-05
5.21313e-05
4.99845e-05
5.11756e-05
4.10039e-05
9.42441e-06
9.33459e-07
1.12869e-05
2.08338e-05
2.60485e-05
3.25338e-05
3.53982e-05
3.58207e-05
3.68784e-05
3.85344e-05
4.03403e-05
4.19447e-05
4.32456e-05
4.43135e-05
4.52335e-05
4.60706e-05
4.68647e-05
4.7633e-05
4.8376e-05
4.90832e-05
4.97501e-05
5.03081e-05
5.10591e-05
5.12993e-05
5.16749e-05
5.22544e-05
5.27681e-05
5.34531e-05
5.44044e-05
5.58281e-05
5.78103e-05
6.04826e-05
6.32116e-05
6.49536e-05
6.40045e-05
5.82879e-05
5.11575e-05
4.88152e-05
5.13319e-05
4.18506e-05
9.70895e-06
7.76439e-07
1.00586e-05
1.9961e-05
2.40931e-05
3.02139e-05
3.47901e-05
3.57343e-05
3.65187e-05
3.77586e-05
3.93058e-05
4.08261e-05
4.21277e-05
4.31976e-05
4.40933e-05
4.48792e-05
4.56036e-05
4.62975e-05
4.69675e-05
4.76368e-05
4.82394e-05
4.89369e-05
4.95542e-05
4.99252e-05
5.04988e-05
5.11783e-05
5.18377e-05
5.26723e-05
5.37244e-05
5.52049e-05
5.70802e-05
5.95192e-05
6.17952e-05
6.31604e-05
6.18661e-05
5.65471e-05
4.97437e-05
4.73854e-05
5.12386e-05
4.2446e-05
9.97278e-06
6.33443e-07
8.97015e-06
1.93433e-05
2.26939e-05
2.80153e-05
3.31588e-05
3.53425e-05
3.63755e-05
3.74076e-05
3.86629e-05
3.99933e-05
4.12103e-05
4.22398e-05
4.30984e-05
4.3837e-05
4.45019e-05
4.51394e-05
4.57401e-05
4.63982e-05
4.69045e-05
4.77746e-05
4.82178e-05
4.86903e-05
4.94296e-05
5.01547e-05
5.08969e-05
5.1816e-05
5.28749e-05
5.4315e-05
5.5929e-05
5.79784e-05
5.95637e-05
6.03988e-05
5.86238e-05
5.38175e-05
4.78016e-05
4.60106e-05
5.0895e-05
4.26557e-05
1.02288e-05
4.99496e-07
8.18288e-06
1.88877e-05
2.22284e-05
2.63197e-05
3.13326e-05
3.46603e-05
3.61442e-05
3.72401e-05
3.83055e-05
3.94077e-05
4.04651e-05
4.14031e-05
4.2205e-05
4.28994e-05
4.35161e-05
4.41169e-05
4.46616e-05
4.53071e-05
4.5764e-05
4.66728e-05
4.70209e-05
4.75618e-05
4.83383e-05
4.90494e-05
4.97702e-05
5.06631e-05
5.15714e-05
5.28136e-05
5.39435e-05
5.54225e-05
5.60966e-05
5.63256e-05
5.40815e-05
5.00364e-05
4.52844e-05
4.46822e-05
5.02094e-05
4.2175e-05
1.04891e-05
4.30027e-07
8.01548e-06
1.82249e-05
2.23982e-05
2.46685e-05
2.94066e-05
3.37096e-05
3.61502e-05
3.75455e-05
3.86542e-05
3.96364e-05
4.05289e-05
4.13184e-05
4.19939e-05
4.25796e-05
4.30802e-05
4.35766e-05
4.39943e-05
4.45489e-05
4.48716e-05
4.56716e-05
4.59712e-05
4.63779e-05
4.70098e-05
4.76015e-05
4.81206e-05
4.88015e-05
4.93231e-05
5.0147e-05
5.05372e-05
5.12958e-05
5.09659e-05
5.06835e-05
4.8246e-05
4.53894e-05
4.20868e-05
4.28062e-05
4.93193e-05
4.16369e-05
1.06531e-05
4.4399e-07
8.85609e-06
1.74759e-05
2.24916e-05
2.48806e-05
2.80102e-05
3.202e-05
3.56312e-05
3.78951e-05
3.92072e-05
4.019e-05
4.0962e-05
4.15882e-05
4.20948e-05
4.25221e-05
4.28889e-05
4.32481e-05
4.35593e-05
4.38658e-05
4.40869e-05
4.43295e-05
4.46541e-05
4.4752e-05
4.49163e-05
4.52063e-05
4.52887e-05
4.5516e-05
4.54047e-05
4.56022e-05
4.51318e-05
4.5195e-05
4.41128e-05
4.36965e-05
4.16975e-05
4.05143e-05
3.93963e-05
4.18212e-05
4.82275e-05
4.08975e-05
1.07121e-05
6.29192e-07
1.12889e-05
1.80763e-05
2.29894e-05
2.58081e-05
2.88161e-05
3.20871e-05
3.53634e-05
3.85198e-05
4.08706e-05
4.21554e-05
4.30251e-05
4.36069e-05
4.39992e-05
4.42237e-05
4.41812e-05
4.39925e-05
4.36764e-05
4.33608e-05
4.29264e-05
4.26052e-05
4.20463e-05
4.17093e-05
4.14252e-05
4.10227e-05
4.04844e-05
4.01087e-05
3.93705e-05
3.8986e-05
3.80253e-05
3.78062e-05
3.67613e-05
3.68599e-05
3.61048e-05
3.6789e-05
3.82141e-05
4.17845e-05
4.65271e-05
3.8663e-05
1.06497e-05
1.01551e-06
1.50895e-05
2.04575e-05
2.45756e-05
2.77446e-05
3.09618e-05
3.44019e-05
3.70707e-05
3.98157e-05
4.24083e-05
4.43942e-05
4.53136e-05
4.56289e-05
4.54535e-05
4.49298e-05
4.41563e-05
4.32076e-05
4.20821e-05
4.09979e-05
3.9855e-05
3.89558e-05
3.77136e-05
3.701e-05
3.61748e-05
3.51566e-05
3.42492e-05
3.36647e-05
3.2959e-05
3.26298e-05
3.21644e-05
3.24175e-05
3.23572e-05
3.35113e-05
3.42536e-05
3.67627e-05
3.9121e-05
4.37625e-05
4.43464e-05
3.67471e-05
1.03215e-05
1.68345e-06
1.94445e-05
2.29273e-05
2.71719e-05
3.08025e-05
3.40223e-05
3.70412e-05
3.9278e-05
4.03194e-05
4.16399e-05
4.2615e-05
4.28306e-05
4.262e-05
4.20522e-05
4.12744e-05
4.02944e-05
3.92283e-05
3.82124e-05
3.69975e-05
3.57722e-05
3.50022e-05
3.40465e-05
3.30773e-05
3.24573e-05
3.19475e-05
3.16977e-05
3.16286e-05
3.17902e-05
3.23246e-05
3.29497e-05
3.40574e-05
3.51083e-05
3.7145e-05
3.87547e-05
4.18969e-05
4.40301e-05
4.63184e-05
4.25682e-05
3.32188e-05
9.71125e-06
2.78541e-06
2.29012e-05
2.57703e-05
3.02905e-05
3.35185e-05
3.59011e-05
3.77102e-05
3.88541e-05
3.91493e-05
3.95227e-05
3.97498e-05
3.97614e-05
3.96215e-05
3.9301e-05
3.89931e-05
3.84047e-05
3.81602e-05
3.78006e-05
3.73848e-05
3.71124e-05
3.6896e-05
3.68975e-05
3.69242e-05
3.71971e-05
3.74912e-05
3.80605e-05
3.8654e-05
3.94888e-05
4.04631e-05
4.14639e-05
4.29e-05
4.39365e-05
4.59225e-05
4.64935e-05
4.90701e-05
4.78385e-05
4.61474e-05
4.0191e-05
2.51215e-05
8.44828e-06
1.88883e-06
2.89886e-06
3.77965e-06
4.65821e-06
5.47001e-06
6.19898e-06
6.82247e-06
7.32424e-06
7.67998e-06
7.90135e-06
8.04014e-06
8.08059e-06
8.06413e-06
8.01642e-06
7.92934e-06
7.8188e-06
7.69811e-06
7.58177e-06
7.45938e-06
7.35177e-06
7.24568e-06
7.16132e-06
7.08326e-06
7.03021e-06
6.9879e-06
6.97317e-06
6.98028e-06
7.00249e-06
7.05969e-06
7.11758e-06
7.24732e-06
7.3501e-06
7.59897e-06
7.78805e-06
8.21892e-06
8.49242e-06
8.95555e-06
8.99246e-06
8.68734e-06
7.25239e-06
)
;

boundaryField
{
    movingWall
    {
        type            nutkWallFunction;
        Cmu             0.09;
        kappa           0.41;
        E               9.8;
        value           uniform 0;
    }
    fixedWalls
    {
        type            nutkWallFunction;
        Cmu             0.09;
        kappa           0.41;
        E               9.8;
        value           uniform 0;
    }
    frontAndBack
    {
        type            empty;
    }
}


// ************************************************************************* //
