/*--------------------------------*- C++ -*----------------------------------*\
  =========                 |
  \\      /  F ield         | OpenFOAM: The Open Source CFD Toolbox
   \\    /   O peration     | Website:  https://openfoam.org
    \\  /    A nd           | Version:  13
     \\/     M anipulation  |
\*---------------------------------------------------------------------------*/
FoamFile
{
    format      ascii;
    class       volScalarField;
    location    "9.4";
    object      epsilon;
}
// * * * * * * * * * * * * * * * * * * * * * * * * * * * * * * * * * * * * * //

dimensions      [0 2 -3 0 0 0 0];

internalField   nonuniform List<scalar> 
6400
(
2.91679e-05
0.000149839
0.000364561
0.000587045
0.000754098
0.000847215
0.000880287
0.000882562
0.000887128
0.000918546
0.000996122
0.00114934
0.00139141
0.00172739
0.00213894
0.0026029
0.00309538
0.0036069
0.00411379
0.00460457
0.00510044
0.00564426
0.00629325
0.00707905
0.0079651
0.00885442
0.00973904
0.0106175
0.0115183
0.0124647
0.0134426
0.0144209
0.0153831
0.0163339
0.0172954
0.018274
0.0192886
0.0203455
0.0214569
0.0226259
0.023861
0.0251715
0.026565
0.0280557
0.0296593
0.031432
0.0334837
0.0360469
0.0385476
0.0411191
0.0436179
0.046043
0.048308
0.0503541
0.0521036
0.0534521
0.0541186
0.0543792
0.0541844
0.0530841
0.0511857
0.0485062
0.0450674
0.0410285
0.0364467
0.0315725
0.0266351
0.021817
0.0172957
0.0132926
0.0100233
0.00728268
0.00507221
0.00338856
0.0021783
0.00135384
0.000816321
0.000469961
0.000222777
4.7549e-05
0.000140889
0.000141693
0.000232191
0.000336259
0.000413995
0.000460849
0.000483775
0.000494089
0.00050593
0.000533036
0.000590315
0.000698611
0.000874616
0.00113119
0.00147189
0.00189751
0.00240992
0.00301585
0.0037215
0.00453735
0.00547075
0.00656538
0.00787182
0.00941239
0.0111741
0.0131858
0.0152448
0.0172173
0.0189969
0.0204886
0.0216148
0.0224767
0.0230594
0.0234577
0.0237102
0.0238758
0.0239944
0.0240998
0.0242138
0.0243574
0.0245528
0.024804
0.0251051
0.0254375
0.0258275
0.0263126
0.026874
0.0275185
0.0282292
0.0289762
0.0297567
0.0305255
0.0312646
0.0319233
0.0324588
0.0327327
0.0328114
0.0326577
0.0322157
0.0313538
0.030129
0.028495
0.0264676
0.0241209
0.021542
0.0188382
0.0161256
0.0135146
0.0110924
0.00895489
0.0071431
0.0055877
0.0042524
0.00312035
0.00218561
0.00143158
0.000873844
0.00049177
0.000256375
0.000251105
0.000307933
0.000258289
0.000346018
0.000434458
0.000487314
0.000513817
0.000528233
0.000544935
0.000579359
0.000650072
0.000781665
0.00100325
0.0013427
0.0018201
0.00244812
0.00323879
0.00420479
0.00536085
0.00671728
0.00828115
0.0100588
0.0120095
0.0140416
0.0159937
0.0176767
0.0188477
0.019547
0.0199224
0.0201083
0.0202458
0.0203115
0.0202097
0.0198979
0.0196058
0.0193027
0.0190428
0.0188351
0.0187197
0.0186762
0.0186812
0.0188131
0.0190147
0.0193275
0.0197599
0.0203029
0.0209307
0.0216414
0.0224287
0.0232873
0.024201
0.0251593
0.0261374
0.027112
0.0280463
0.0289002
0.0296246
0.0301248
0.0303312
0.0303346
0.0299319
0.0290786
0.0277706
0.0259999
0.0238639
0.0214531
0.0188686
0.0162348
0.0136663
0.011267
0.00911813
0.00726508
0.00570627
0.00441616
0.00335627
0.00248872
0.00178987
0.00121726
0.000762602
0.00047303
0.000671422
0.000534718
0.000445416
0.000544982
0.000629556
0.000672829
0.000694926
0.000717095
0.000760828
0.000849865
0.00101648
0.00130141
0.001748
0.00239204
0.0032552
0.00434716
0.00567214
0.00722871
0.00899438
0.0109116
0.0128817
0.0147653
0.0164133
0.0176697
0.0183243
0.0185933
0.0186537
0.0185743
0.0182059
0.0176402
0.0170371
0.0163846
0.0158779
0.0154901
0.0151617
0.0149183
0.0147767
0.0147177
0.0147107
0.0148168
0.0149975
0.015272
0.0156252
0.016068
0.0165944
0.0172044
0.0178958
0.0186701
0.0195254
0.0204598
0.0214669
0.022539
0.0236611
0.024813
0.0259651
0.0270789
0.0281036
0.0289802
0.0295986
0.0298702
0.0298927
0.0294213
0.0285351
0.0271923
0.0252371
0.0228918
0.0202506
0.0174624
0.014679
0.0120432
0.00966842
0.00762524
0.00593417
0.00457372
0.00349703
0.0026492
0.00198061
0.00143904
0.000995902
0.000711499
0.00112076
0.000858011
0.000704784
0.000803014
0.000884699
0.000930411
0.000966147
0.00102048
0.00112563
0.00132126
0.00165753
0.00219075
0.00297051
0.00402552
0.0053589
0.00695219
0.00876562
0.0107283
0.0127239
0.0145862
0.0161447
0.0171675
0.017617
0.0177396
0.0176723
0.0172306
0.0164769
0.0156027
0.0147947
0.0141406
0.0135356
0.0130378
0.0126524
0.0123533
0.0121318
0.012
0.0119411
0.0119268
0.0119811
0.0121106
0.0122955
0.0125458
0.0128563
0.0132321
0.0136737
0.0141858
0.0147712
0.015435
0.0161817
0.0170158
0.0179401
0.018955
0.0200571
0.0212379
0.0224826
0.0237684
0.0250528
0.0262839
0.0273955
0.0283087
0.028823
0.0289904
0.0286963
0.0278696
0.0265502
0.024502
0.021956
0.0190862
0.0160809
0.0131351
0.0104261
0.00808209
0.00616271
0.004659
0.003514
0.00264769
0.00199242
0.00148832
0.00109629
0.00087066
0.00143423
0.00131948
0.00104473
0.00112512
0.0012086
0.00127194
0.00134361
0.00146191
0.00167424
0.00203892
0.00262243
0.00348628
0.00466715
0.00616237
0.00792778
0.00988091
0.0118996
0.0138206
0.0154568
0.0165382
0.016998
0.0171011
0.0169369
0.0163655
0.0153713
0.014363
0.0134716
0.0126617
0.0119814
0.0114123
0.0109291
0.0105429
0.010234
0.00999175
0.00980894
0.0096804
0.00960494
0.00957232
0.00956684
0.00961462
0.00969832
0.00982364
0.00999125
0.0102024
0.0104622
0.0107751
0.0111482
0.0115901
0.0121108
0.0127216
0.013435
0.0142626
0.0152155
0.0163011
0.0175204
0.0188677
0.0203263
0.0218587
0.0234175
0.0249288
0.0262875
0.027339
0.0278349
0.0279304
0.0273507
0.0261753
0.0240285
0.021281
0.018141
0.0148587
0.0117014
0.00889872
0.0065934
0.00482097
0.00352703
0.00260036
0.00194031
0.00145591
0.00109611
0.000935964
0.00155296
0.00195952
0.00147153
0.00152355
0.00161959
0.00171944
0.00185369
0.00207377
0.00244442
0.00303955
0.00392988
0.00516071
0.0067294
0.00857463
0.0105788
0.0125766
0.0143669
0.015723
0.0163758
0.0165598
0.0164771
0.0159103
0.0148436
0.0137147
0.0126904
0.0117687
0.0109836
0.0103054
0.00973789
0.00925593
0.00884973
0.00851103
0.00822583
0.00798763
0.00778985
0.00762815
0.00749863
0.00739756
0.00732414
0.00728719
0.00727294
0.00727331
0.00731524
0.00738167
0.0074851
0.00762431
0.00780731
0.00804045
0.00833336
0.00869708
0.00914883
0.00970822
0.0103976
0.0112412
0.0122573
0.0134752
0.0149101
0.0165565
0.0183803
0.0203328
0.0223392
0.024281
0.0259906
0.0271028
0.0275353
0.0274452
0.0263698
0.0241143
0.0210846
0.017556
0.0138859
0.0104455
0.00752628
0.0052711
0.00366657
0.0025894
0.00186246
0.00137914
0.00105965
0.000929183
0.00150987
0.00281536
0.00198995
0.00201215
0.00213525
0.00229387
0.00251997
0.00288018
0.00345374
0.00431869
0.00552919
0.00708868
0.00893134
0.0109204
0.0128625
0.0145343
0.0156067
0.0160325
0.0160962
0.015707
0.0147556
0.0135224
0.0123748
0.0113192
0.0104109
0.00962493
0.00895658
0.00838084
0.00788881
0.00746276
0.00709538
0.00677711
0.00650052
0.00626101
0.00605439
0.00587791
0.00572909
0.00560523
0.00550526
0.00542864
0.00537275
0.00534502
0.00533547
0.00534299
0.00538443
0.00544877
0.00554443
0.0056731
0.00584135
0.00605582
0.00632431
0.00665837
0.00707446
0.00759697
0.00826501
0.00911349
0.0101993
0.0115759
0.0132665
0.0152746
0.0175721
0.0200482
0.022598
0.024995
0.0269121
0.0278395
0.0280937
0.0271928
0.0247637
0.0213215
0.0172619
0.013096
0.00932509
0.00629818
0.00412677
0.00271881
0.00185372
0.00131075
0.000994066
0.000894382
0.00140523
0.00391264
0.00260351
0.00260045
0.00277251
0.00301026
0.00335482
0.00388469
0.00468408
0.00581709
0.00729822
0.00906828
0.0109871
0.0128475
0.0144084
0.0152866
0.0155775
0.0155619
0.0149193
0.0137428
0.0124631
0.0112676
0.010219
0.00930386
0.008525
0.0078532
0.00727548
0.00677359
0.0063385
0.00595925
0.00563021
0.00534471
0.00509847
0.00488775
0.00470909
0.00455943
0.00443625
0.00433763
0.00426165
0.00420662
0.0041748
0.00416133
0.00415898
0.00417967
0.00421963
0.00427868
0.00435914
0.00446206
0.00459031
0.00474697
0.00493646
0.00516492
0.00544066
0.00577497
0.0061832
0.00668854
0.00732697
0.00815561
0.00927639
0.0108029
0.0128087
0.01527
0.0181545
0.0212691
0.0243969
0.0271245
0.0286701
0.0292331
0.0285216
0.0258146
0.0218107
0.0170853
0.0123517
0.00825612
0.00517856
0.00315412
0.00196659
0.00130563
0.000941528
0.00083674
0.00128529
0.00526077
0.00332012
0.00330167
0.00353671
0.00387198
0.00435284
0.00506295
0.00607737
0.00742676
0.00906812
0.0108718
0.0126322
0.0141019
0.014891
0.0151397
0.0149898
0.0141844
0.0129016
0.0116049
0.010385
0.00932331
0.00841155
0.00762825
0.00695821
0.00637854
0.00587815
0.00544505
0.00507246
0.00475307
0.00448195
0.00425363
0.00406388
0.00390833
0.00378313
0.00368475
0.00360999
0.0035561
0.00352227
0.00350655
0.00350212
0.00351081
0.00353569
0.003574
0.00362605
0.003692
0.00377267
0.0038691
0.00398285
0.00411589
0.00427088
0.00445128
0.00466173
0.00490863
0.00520094
0.00554858
0.00596843
0.00648764
0.00714914
0.00802236
0.00923055
0.0110155
0.0134822
0.0166059
0.0202578
0.0241152
0.027698
0.0299105
0.0307617
0.0301837
0.0270538
0.0223226
0.0168199
0.011506
0.00716383
0.00414276
0.00233872
0.0013904
0.000933843
0.000785587
0.00118526
0.00688432
0.00415617
0.00412039
0.00442628
0.00486855
0.00548807
0.00636305
0.00754406
0.00901342
0.0106643
0.012306
0.0136959
0.0144474
0.0146843
0.0144657
0.0135608
0.0122603
0.0109184
0.00968929
0.00860962
0.00769203
0.00690775
0.00623662
0.005662
0.00516896
0.00474918
0.004394
0.00409712
0.00385167
0.00365172
0.00349115
0.00336458
0.00326684
0.00319354
0.00314082
0.00310585
0.00308863
0.00308246
0.00308349
0.00309995
0.0031253
0.00316213
0.00320908
0.00326724
0.00333699
0.00341943
0.00351568
0.0036271
0.00375521
0.00390172
0.00406857
0.00425798
0.00447268
0.00471629
0.00499414
0.00531451
0.00569093
0.00614581
0.00671077
0.00744402
0.00844977
0.00990909
0.0121939
0.015433
0.0195263
0.02411
0.0286112
0.0314762
0.0325706
0.0319919
0.0282377
0.0226014
0.0162531
0.0104349
0.00600858
0.00318438
0.00167472
0.000987861
0.000767624
0.00114765
0.00885665
0.00513647
0.00505229
0.00542748
0.00597428
0.00671597
0.00771346
0.00898076
0.010446
0.0119461
0.0132535
0.0139908
0.0142283
0.0139878
0.0130532
0.0117744
0.010407
0.00914926
0.00805574
0.00712339
0.00633564
0.00566516
0.00509644
0.00461597
0.0042134
0.00388067
0.00360919
0.00339117
0.00321859
0.00308421
0.00298122
0.00290385
0.00284713
0.00280705
0.00278103
0.00276834
0.00276388
0.00276404
0.00277632
0.00279615
0.00282435
0.00286148
0.00290795
0.00296479
0.00303295
0.00311371
0.00320842
0.00331859
0.00344583
0.00359184
0.00375837
0.00394713
0.00415973
0.00439771
0.00466268
0.00495683
0.00528403
0.00565213
0.0060772
0.0065899
0.0072438
0.00812462
0.00940837
0.0114175
0.0146483
0.0190921
0.0244028
0.0298573
0.0332953
0.0345465
0.0337296
0.0290857
0.0223631
0.015185
0.00906824
0.00479142
0.00232807
0.00117886
0.000798353
0.00118665
0.011044
0.00622077
0.00607601
0.00651464
0.00715115
0.0079802
0.00903588
0.0102903
0.0116222
0.0128312
0.0135591
0.0138001
0.0135776
0.0126802
0.0114243
0.0100514
0.00875909
0.00763902
0.00669
0.00589152
0.00522077
0.00465732
0.00418891
0.00380376
0.00349192
0.00324352
0.00304854
0.00289768
0.00278222
0.00269472
0.0026289
0.0025798
0.00254359
0.00251752
0.00249984
0.00249083
0.00248736
0.00248732
0.0024971
0.00251291
0.00253663
0.00256868
0.00261003
0.00266174
0.00272499
0.00280115
0.00289169
0.0029983
0.00312278
0.00326712
0.00343336
0.00362355
0.00383961
0.00408311
0.00435514
0.00465611
0.00498594
0.00534479
0.00573504
0.00616563
0.00666014
0.00726996
0.00808139
0.00925248
0.0110998
0.0142507
0.0190095
0.0250513
0.0314702
0.0352913
0.0365428
0.0351421
0.0292597
0.0213044
0.0134926
0.00741088
0.00356665
0.00162941
0.000923856
0.00135656
0.0133838
0.00738423
0.00716518
0.0076538
0.00835364
0.00922091
0.0102579
0.0113972
0.012482
0.0131884
0.0134281
0.0132558
0.0124309
0.0112106
0.00983577
0.00851098
0.00735093
0.00637569
0.00556123
0.00488385
0.00432291
0.00386273
0.00349124
0.00319594
0.00296513
0.00278711
0.00265099
0.00254729
0.00246795
0.00240668
0.00235865
0.00232041
0.00228967
0.00226507
0.00224593
0.00223194
0.00222426
0.00222147
0.00222311
0.0022333
0.00225075
0.00227661
0.0023118
0.00235734
0.0024144
0.0024843
0.00256858
0.00266897
0.00278743
0.00292619
0.0030877
0.00327456
0.00348941
0.00373474
0.00401254
0.00432396
0.00466884
0.00504556
0.00545128
0.00588362
0.00634479
0.00685043
0.00744601
0.00822731
0.00934528
0.0111335
0.0142533
0.0193415
0.0261573
0.0335076
0.0373474
0.0384157
0.0359013
0.0283369
0.019226
0.0111716
0.00556333
0.00249117
0.00123374
0.00176994
0.0158002
0.00859709
0.00828822
0.00880595
0.00953347
0.0103814
0.0113198
0.0122496
0.0129059
0.0131361
0.0130278
0.0122914
0.0111276
0.00975701
0.00839764
0.00718806
0.00617178
0.00533222
0.00464067
0.0040753
0.003618
0.00325402
0.00296943
0.00275008
0.00258279
0.0024554
0.00235765
0.00228127
0.00221996
0.00216924
0.00212606
0.00208856
0.0020558
0.00202739
0.00200339
0.00198405
0.00196983
0.00196268
0.00196031
0.00196363
0.00197617
0.00199656
0.00202617
0.00206578
0.00211647
0.00217948
0.00225624
0.00234848
0.00245819
0.00258774
0.00273984
0.00291754
0.00312421
0.00336332
0.00363824
0.00395175
0.00430548
0.00469916
0.00513001
0.00559258
0.00608013
0.00658869
0.00712667
0.00773398
0.00851088
0.00962028
0.0114169
0.0146449
0.0201973
0.0279424
0.0358108
0.0393897
0.0400137
0.0354685
0.0260125
0.0160984
0.00841645
0.00383551
0.00180347
0.00244068
0.0182253
0.00982803
0.0094109
0.00993069
0.0106445
0.0114128
0.0121748
0.0127501
0.0129655
0.0128875
0.0122592
0.0111665
0.00981353
0.00841884
0.00714938
0.00607626
0.00519688
0.00448122
0.00390241
0.00344026
0.00307699
0.00279643
0.00258266
0.00242062
0.00229717
0.00220131
0.00212456
0.00206072
0.00200556
0.00195646
0.00191192
0.00187131
0.00183453
0.00180176
0.00177339
0.00174986
0.00173168
0.00172046
0.00171566
0.001715
0.00172338
0.00173976
0.0017647
0.00179909
0.00184377
0.00189987
0.0019687
0.00205188
0.00215134
0.00226942
0.00240891
0.0025731
0.00276576
0.00299117
0.00325385
0.00355833
0.00390853
0.00430693
0.00475348
0.00524445
0.00577183
0.00632427
0.00689141
0.00747449
0.00811081
0.00890867
0.0100463
0.011922
0.0154015
0.0216075
0.0305228
0.038453
0.0414062
0.0410215
0.0333393
0.0221544
0.0122041
0.00571304
0.00263116
0.00330913
0.0206066
0.0110448
0.0104992
0.0109895
0.0116464
0.0122782
0.0127654
0.0129598
0.0128569
0.0123411
0.0113227
0.0100021
0.00857796
0.00723925
0.00609176
0.00515408
0.00439988
0.00379688
0.00332039
0.00295003
0.0026668
0.00245285
0.00229148
0.00216825
0.00207153
0.00199247
0.00192491
0.00186484
0.0018099
0.00175891
0.00171147
0.00166763
0.00162771
0.00159213
0.00156131
0.00153566
0.0015156
0.00150193
0.00149542
0.00149354
0.00149844
0.00151199
0.00153316
0.00156305
0.0016023
0.00165191
0.00171304
0.00178716
0.00187607
0.00198195
0.00210751
0.00225601
0.00243136
0.00263818
0.00288176
0.00316788
0.00350249
0.00389095
0.00433694
0.00484088
0.00539819
0.005998
0.00662381
0.00725807
0.00789492
0.00857155
0.00941231
0.0106149
0.0126627
0.016599
0.0236463
0.0339123
0.041409
0.0434708
0.040313
0.0292031
0.0170458
0.00819749
0.00374182
0.00432032
0.0228969
0.0122157
0.0115194
0.0119482
0.0125089
0.012927
0.0130883
0.0129672
0.0125358
0.0115982
0.01032
0.00887824
0.00746665
0.00622671
0.00520857
0.00439677
0.00375558
0.00325386
0.00286737
0.00257442
0.00235471
0.00218982
0.00206387
0.00196431
0.00188185
0.00181015
0.00174529
0.00168507
0.00162851
0.00157535
0.00152579
0.00148017
0.00143891
0.00140239
0.00137096
0.00134488
0.00132439
0.00130981
0.00130258
0.00130014
0.00130279
0.00131415
0.00133226
0.0013583
0.00139275
0.00143649
0.00149054
0.0015562
0.00163508
0.00172917
0.00184097
0.00197355
0.00213068
0.00231697
0.00253794
0.00280006
0.00311058
0.00347712
0.00390682
0.0044048
0.0049721
0.00560307
0.00628329
0.00699
0.0076975
0.0083935
0.00912031
0.0100213
0.0113364
0.0137013
0.0184124
0.02665
0.0381948
0.0439641
0.0447583
0.036791
0.0230649
0.0114455
0.00518414
0.00542514
0.0250046
0.0133103
0.0124448
0.0127834
0.0131955
0.0133649
0.0132701
0.0128331
0.0119923
0.0107684
0.00932191
0.007842
0.00649537
0.00537175
0.00447817
0.0037803
0.00323997
0.00282698
0.00251631
0.002285
0.00211243
0.00198108
0.00187712
0.00179054
0.00171462
0.00164532
0.00158048
0.00151921
0.00146136
0.00140717
0.00135701
0.00131127
0.00127028
0.00123431
0.00120353
0.00117808
0.00115806
0.00114359
0.00113611
0.0011334
0.00113461
0.00114415
0.00115975
0.00118247
0.00121273
0.00125128
0.00129902
0.00135709
0.0014269
0.00151025
0.00160935
0.00172698
0.00186665
0.00203268
0.00223045
0.00246652
0.00274871
0.00308597
0.00348791
0.00396377
0.00452039
0.00515936
0.00587333
0.00664291
0.00743692
0.00822025
0.00897723
0.00976372
0.0107395
0.0122462
0.0151875
0.0211462
0.0313025
0.0423919
0.0463684
0.0438573
0.030217
0.0156387
0.00701118
0.00658856
0.0268561
0.0143009
0.0132527
0.0134729
0.0136853
0.0136546
0.0132515
0.0125116
0.0113459
0.00991173
0.00837445
0.00691539
0.00566215
0.00465739
0.0038785
0.00328214
0.00283013
0.00249231
0.00224263
0.00205779
0.00191815
0.00180825
0.0017169
0.00163673
0.00156335
0.00149449
0.00142925
0.00136751
0.00130953
0.00125568
0.00120632
0.00116174
0.00112212
0.00108758
0.00105817
0.0010339
0.00101477
0.00100082
0.00099329
0.000990461
0.000990727
0.000998667
0.00101215
0.00103199
0.00105859
0.00109261
0.00113483
0.00118624
0.0012481
0.00132195
0.00140978
0.00151405
0.00163788
0.00178522
0.00196107
0.00217167
0.00242479
0.00272982
0.00309774
0.00354054
0.0040699
0.0046946
0.0054165
0.00622536
0.00709437
0.00798056
0.00883734
0.00964982
0.0105026
0.0115796
0.0133959
0.017187
0.0248539
0.0375317
0.046437
0.048015
0.0380911
0.0209509
0.00926685
0.00780108
0.0284116
0.0151668
0.0139237
0.0139928
0.014048
0.0137854
0.013124
0.0120493
0.0106462
0.00907114
0.00750399
0.00610387
0.00495597
0.00406467
0.00338884
0.00288154
0.00250496
0.00222853
0.00202581
0.00187438
0.00175659
0.00165963
0.00157505
0.00149784
0.00142542
0.00135676
0.00129172
0.00123053
0.00117358
0.00112119
0.0010736
0.00103095
0.000993288
0.000960601
0.000932839
0.000909939
0.000891832
0.000878492
0.000870899
0.000867881
0.000867733
0.000874159
0.000885811
0.000903144
0.000926573
0.000956651
0.000994074
0.00103972
0.00109467
0.0011603
0.00123833
0.00133094
0.00144088
0.00157167
0.00172779
0.00191498
0.00214056
0.00241372
0.00274578
0.00315014
0.00364165
0.00423486
0.00494054
0.00576012
0.00667847
0.00765762
0.00863827
0.00956136
0.0104218
0.0113394
0.0125806
0.0149458
0.0202418
0.0304522
0.0440717
0.0494725
0.045684
0.0274844
0.01202
0.00905644
0.0296493
0.0159057
0.0144495
0.0143652
0.0142595
0.0137613
0.0128477
0.0115163
0.0099326
0.0082751
0.00672247
0.00540316
0.00436216
0.00357516
0.00299038
0.00255982
0.00224591
0.00201792
0.00185004
0.00172168
0.00161781
0.00152838
0.00144737
0.00137167
0.00129997
0.00123202
0.00116803
0.00110834
0.00105328
0.00100304
0.000957742
0.000917372
0.00088187
0.000851132
0.000825042
0.000803492
0.000786378
0.000773648
0.00076601
0.000762784
0.000762354
0.000767404
0.000777445
0.000792593
0.000813253
0.00083991
0.000873179
0.000913833
0.000962835
0.00102139
0.001091
0.00117358
0.00127153
0.00138796
0.00152684
0.00169331
0.00189403
0.0021376
0.00243499
0.00279989
0.00324871
0.00379973
0.00447076
0.0052743
0.00620977
0.00725358
0.00835079
0.00942001
0.0103909
0.0112869
0.0122774
0.0138309
0.0172201
0.0248219
0.038703
0.0495029
0.0509456
0.0352403
0.0154365
0.0104235
0.0305659
0.0165161
0.0148328
0.0145985
0.0143261
0.0136473
0.0124759
0.0109445
0.00923328
0.00754019
0.00603223
0.00480389
0.00386534
0.003172
0.00266645
0.00230072
0.00203754
0.00184668
0.00170386
0.00159099
0.00149578
0.00141074
0.00133183
0.0012573
0.00118669
0.00112012
0.00105791
0.00100037
0.000947689
0.000899948
0.000857112
0.000819077
0.000785702
0.000756827
0.0007323
0.000711985
0.000695772
0.000683587
0.000675902
0.00067248
0.000671797
0.000675651
0.000684262
0.000697503
0.000715747
0.000739428
0.000769095
0.000805436
0.000849304
0.000901766
0.000964151
0.00103813
0.00112583
0.00122995
0.00135399
0.0015025
0.00168142
0.00189857
0.00216416
0.00249142
0.00289706
0.00340124
0.00402645
0.00479407
0.00571751
0.00679115
0.00797677
0.00919407
0.0103338
0.0113215
0.0122151
0.0133657
0.0155261
0.0207836
0.0319315
0.0475325
0.0532532
0.0438924
0.019841
0.0121651
0.031176
0.0169969
0.0150857
0.0147024
0.0142822
0.0134109
0.0120466
0.0103609
0.00856753
0.00687434
0.00542971
0.00429467
0.00345091
0.00284028
0.00240268
0.00209068
0.00186764
0.00170456
0.00157939
0.00147675
0.00138698
0.0013047
0.0012274
0.00115423
0.00108519
0.00102056
0.00096062
0.000905576
0.000855485
0.000810299
0.000769888
0.000734079
0.000702681
0.000675508
0.000652386
0.000633173
0.000617756
0.000606048
0.000598315
0.000594712
0.000593799
0.000596626
0.00060397
0.000615543
0.000631677
0.000652763
0.000679295
0.00071189
0.000751315
0.000798519
0.000854685
0.000921294
0.00100021
0.00109382
0.00120519
0.0013383
0.00149843
0.00169254
0.00192991
0.00222284
0.00258747
0.00304439
0.00361854
0.00433745
0.00522618
0.00629709
0.00753401
0.00887364
0.0101979
0.0113644
0.0123335
0.0132462
0.0147302
0.0181517
0.0265505
0.0428154
0.0537998
0.0520787
0.0255451
0.0145182
0.0314827
0.0173546
0.01522
0.0146883
0.0141495
0.0130998
0.011583
0.00978526
0.00794731
0.00627947
0.00490817
0.00386376
0.00310571
0.00256711
0.00218699
0.00191875
0.0017269
0.00158428
0.0014714
0.00137556
0.00128937
0.00120914
0.00113342
0.00106194
0.00099489
0.000932555
0.000875134
0.000822694
0.00077518
0.000732449
0.000694307
0.000660539
0.000630927
0.000605273
0.0005834
0.000565162
0.000550447
0.000539167
0.000531403
0.000527635
0.000526516
0.000528473
0.000534699
0.000544813
0.000559101
0.000577915
0.000601706
0.000631032
0.000666587
0.000709226
0.000760013
0.000820269
0.000891653
0.00097627
0.00107682
0.00119681
0.00134088
0.00151518
0.001728
0.00199055
0.00231787
0.00272992
0.00325234
0.00391611
0.00475457
0.00579559
0.00704633
0.00847092
0.00996768
0.0113707
0.0125183
0.0133627
0.0144499
0.0166845
0.0227206
0.0362652
0.0533125
0.0574
0.0330666
0.0174817
0.0314655
0.0175863
0.0152467
0.0146055
0.0139158
0.012737
0.0111045
0.00923176
0.00737903
0.00575369
0.00445947
0.00350007
0.00281821
0.00234162
0.0020095
0.00177642
0.00160847
0.00148079
0.00137649
0.00128529
0.0012017
0.00112329
0.00104931
0.0009798
0.000915001
0.00085513
0.000800273
0.000750382
0.000705312
0.000664856
0.00062878
0.000596845
0.000568827
0.000544522
0.000523756
0.000506384
0.000492294
0.000481404
0.000473674
0.000469744
0.000468444
0.000469675
0.000474919
0.000483757
0.000496425
0.000513246
0.000534629
0.000561085
0.000593246
0.000631895
0.000677994
0.000732737
0.000797615
0.000874503
0.000965798
0.0010746
0.00120498
0.00136237
0.00155412
0.00179025
0.00208452
0.00245565
0.00292874
0.00353607
0.00431618
0.0053087
0.0065415
0.00800745
0.00963269
0.0112555
0.012658
0.0136695
0.0144207
0.016002
0.0200322
0.0305851
0.0503716
0.0597374
0.0427291
0.0209358
0.0313009
0.0177332
0.0152077
0.0144266
0.0136205
0.0123401
0.0106259
0.00870985
0.00686513
0.00529284
0.00407514
0.00319357
0.00257854
0.00215481
0.00186234
0.0016572
0.00150744
0.00139064
0.00129242
0.00120457
0.00112311
0.00104649
0.00097442
0.000907055
0.000844618
0.000787223
0.000734849
0.000687357
0.000644539
0.000606147
0.000571925
0.000541628
0.000515028
0.000491926
0.000472149
0.000455555
0.000442029
0.000431493
0.000423891
0.000419795
0.000418337
0.000418978
0.000423363
0.000431084
0.000442332
0.000457397
0.000476656
0.000500578
0.000529746
0.00056488
0.000606862
0.000656784
0.000715999
0.0007862
0.00086953
0.000968747
0.00108745
0.00123045
0.00140421
0.00161766
0.00188315
0.00221788
0.0026456
0.00319829
0.00391694
0.00484919
0.00604019
0.00751164
0.00922649
0.0110456
0.0127132
0.0140133
0.0147737
0.0157855
0.0184772
0.0266044
0.044893
0.0602735
0.0530642
0.0245368
0.0309345
0.017816
0.015102
0.0141805
0.0132792
0.0119241
0.0101582
0.00822523
0.00640533
0.00489161
0.00374707
0.00293543
0.00237842
0.00199933
0.00173933
0.00155625
0.00142029
0.00131147
0.00121767
0.00113243
0.00105288
0.000978095
0.000908035
0.000842886
0.000782798
0.000727787
0.000677741
0.000632455
0.000591677
0.000555138
0.000522575
0.000493739
0.000468408
0.000446386
0.000427504
0.000411621
0.000398622
0.000388426
0.000380972
0.000376736
0.000375143
0.000375333
0.00037897
0.000385713
0.000395711
0.000409227
0.000426606
0.000448282
0.000474795
0.000506814
0.000545156
0.000590828
0.000645074
0.000709438
0.000785864
0.000876828
0.000985542
0.00111626
0.00127471
0.0014688
0.00170954
0.00201249
0.00239965
0.00290164
0.00355982
0.0044264
0.00555908
0.00700455
0.00876481
0.0107462
0.0127141
0.0143021
0.0151959
0.0158335
0.0177114
0.0234489
0.0391682
0.0594462
0.0617908
0.0274663
0.0303609
0.0178129
0.0149244
0.013887
0.0129069
0.0115009
0.00970942
0.00778081
0.00599756
0.00454427
0.00346779
0.00271811
0.00221098
0.00186931
0.00163572
0.00146997
0.0013445
0.00124163
0.00115118
0.0010681
0.000990356
0.00091744
0.000849419
0.00078646
0.000728627
0.000675847
0.000627938
0.00058465
0.000545706
0.000510826
0.000479744
0.000452218
0.000428029
0.000406986
0.000388924
0.000373701
0.000361203
0.000351343
0.000344055
0.000339685
0.000337931
0.000337856
0.000340832
0.000346719
0.000355619
0.000367766
0.000383477
0.000403155
0.000427305
0.000456549
0.000491651
0.00053355
0.000583401
0.000642631
0.000713021
0.000796822
0.00089693
0.00101714
0.00116255
0.00134015
0.00155974
0.00183526
0.00218676
0.00264289
0.00324392
0.00404378
0.00510833
0.00650378
0.00826698
0.0103518
0.0125634
0.0145329
0.0157291
0.0163147
0.0174426
0.0213543
0.0336403
0.0572727
0.0662538
0.028824
0.0296135
0.0177776
0.0147087
0.0135605
0.0125161
0.0110802
0.00928489
0.00737748
0.00563875
0.00424513
0.00323067
0.00253519
0.00207057
0.00176005
0.00154785
0.0013957
0.00127825
0.00117989
0.0010921
0.00101092
0.000934923
0.00086386
0.000797841
0.000736978
0.000681253
0.000630523
0.000584552
0.000543061
0.000505758
0.000472361
0.000442607
0.000416259
0.000393105
0.000372956
0.00035565
0.000341044
0.000329023
0.000319493
0.000312386
0.000307926
0.00030601
0.000305763
0.000308167
0.000313305
0.00032124
0.000332176
0.000346405
0.000364304
0.000386343
0.000413107
0.000445314
0.000483845
0.000529782
0.000584459
0.000649528
0.000727062
0.000819701
0.000930871
0.00106513
0.0012287
0.00143028
0.00168232
0.00200289
0.00241841
0.00296709
0.00370261
0.00469552
0.00602687
0.00776452
0.00991137
0.0123238
0.0146379
0.0161946
0.0168549
0.0174358
0.020215
0.0298496
0.0530291
0.067863
0.0290609
0.0287352
0.0176955
0.0144653
0.0132134
0.0121175
0.0106691
0.00888794
0.00701467
0.00532527
0.00398885
0.00302992
0.0023813
0.00195264
0.00166787
0.00147291
0.00133146
0.0012202
0.00112535
0.00103974
0.000960283
0.000885974
0.00081671
0.000752604
0.000693701
0.000639915
0.000591044
0.000546816
0.000506933
0.000471098
0.000439029
0.000410469
0.000385186
0.000362972
0.000343642
0.000327033
0.000313004
0.000301434
0.000292225
0.000285306
0.000280793
0.000278748
0.000278362
0.000280288
0.000284774
0.00029186
0.000301726
0.00031464
0.000330953
0.000351107
0.00037565
0.000405261
0.000440772
0.000483207
0.00053382
0.000594164
0.000666168
0.00075227
0.000855602
0.000980282
0.00113188
0.00131815
0.00155017
0.00184415
0.00222414
0.00272575
0.0034009
0.00432166
0.00557887
0.00726548
0.00943106
0.0119986
0.014664
0.0166961
0.0175576
0.017956
0.019679
0.0270641
0.0480384
0.0679168
0.0284739
0.0277597
0.0175829
0.0142052
0.0128562
0.0117195
0.010273
0.00852029
0.00669089
0.00505336
0.00377051
0.00286056
0.00225201
0.00185347
0.00158987
0.00140878
0.00127574
0.0011693
0.00107725
0.000993512
0.000915638
0.000842937
0.000775384
0.000713065
0.000655966
0.000603939
0.00055674
0.000514072
0.000475626
0.000441103
0.000410226
0.000382741
0.000358421
0.000337063
0.000318482
0.000302517
0.000289024
0.000277879
0.00026898
0.00026225
0.000257717
0.000255567
0.000255065
0.000256594
0.000260515
0.000266854
0.000275775
0.000287523
0.000302424
0.000320892
0.000343447
0.000370729
0.000403528
0.000442816
0.000489785
0.000545903
0.000612991
0.000693327
0.000789808
0.000906202
0.00104754
0.00122077
0.00143578
0.00170706
0.00205633
0.0025164
0.00313648
0.00398804
0.00516754
0.00678682
0.00893485
0.0115963
0.0145417
0.0171027
0.0182213
0.0185541
0.01951
0.0249608
0.0434872
0.0656046
0.0274756
0.0267208
0.0174553
0.0139377
0.0124975
0.0113291
0.00989581
0.00818255
0.00640402
0.00481921
0.00358579
0.00271841
0.00214367
0.00177009
0.00152376
0.00135377
0.00122739
0.00112476
0.00103498
0.000952873
0.000876467
0.000805278
0.000739321
0.000678647
0.000623184
0.00057274
0.000527036
0.00048576
0.000448597
0.000415247
0.000385438
0.000358921
0.000335473
0.000314892
0.000296996
0.000281622
0.000268623
0.000257873
0.000249268
0.000242725
0.000238199
0.000235961
0.000235357
0.000236557
0.000239987
0.000245673
0.000253759
0.000264474
0.000278119
0.000295085
0.00031586
0.000341053
0.000371415
0.000407871
0.00045156
0.000503884
0.000566573
0.000641782
0.000732229
0.000841402
0.000973901
0.001136
0.00133655
0.00158852
0.00191143
0.00233521
0.00290581
0.00369247
0.00479406
0.00633639
0.00844309
0.0111562
0.0143005
0.0173733
0.0189709
0.0193652
0.0196691
0.0235266
0.0394272
0.062406
0.026288
0.0256168
0.0173299
0.0136736
0.0121453
0.0109515
0.00953998
0.00787446
0.00615176
0.00461924
0.00343078
0.00259995
0.00205328
0.00170013
0.00146774
0.00130662
0.00118549
0.0010859
0.000998012
0.000917348
0.000842296
0.00077251
0.00070802
0.000648837
0.000594846
0.000545814
0.000501442
0.000461404
0.000425382
0.000393081
0.000364228
0.000338582
0.00031592
0.000296042
0.000278767
0.00026393
0.000251382
0.000240995
0.000232659
0.000226286
0.000221812
0.000219486
0.000218787
0.000219715
0.000222719
0.000227831
0.000235183
0.000244983
0.000257515
0.000273144
0.000292331
0.000315653
0.000343826
0.000377734
0.000418468
0.000467372
0.000526106
0.00059673
0.000681819
0.000784648
0.000909477
0.00106203
0.00125029
0.00148589
0.00178633
0.00217873
0.00270555
0.00343266
0.00445851
0.00591779
0.00796324
0.0106969
0.0140273
0.0174862
0.0196883
0.0202362
0.0202843
0.0227241
0.0358811
0.0585675
0.0250588
0.0245231
0.0172106
0.0134193