/*--------------------------------*- C++ -*----------------------------------*\
  =========                 |
  \\      /  F ield         | OpenFOAM: The Open Source CFD Toolbox
   \\    /   O peration     | Website:  https://openfoam.org
    \\  /    A nd           | Version:  13
     \\/     M anipulation  |
\*---------------------------------------------------------------------------*/
FoamFile
{
    format      ascii;
    class       volScalarField;
    location    "9.4";
    object      k;
}
// * * * * * * * * * * * * * * * * * * * * * * * * * * * * * * * * * * * * * //

dimensions      [0 2 -2 0 0 0 0];

internalField   nonuniform List<scalar> 
6400
(
5.69693e-07
2.92659e-06
7.12043e-06
1.14659e-05
1.47286e-05
1.65473e-05
1.71932e-05
1.72376e-05
1.73267e-05
1.79402e-05
1.94552e-05
2.24474e-05
2.7175e-05
3.3737e-05
4.17749e-05
5.08364e-05
6.04553e-05
7.04463e-05
8.03472e-05
8.99333e-05
9.96192e-05
0.000110241
0.000122917
0.000138265
0.000155571
0.000172941
0.000190219
0.000207378
0.00022497
0.000243456
0.000262556
0.000281663
0.000300457
0.000319028
0.000337806
0.00035692
0.000376736
0.000397379
0.000419087
0.00044192
0.000466043
0.000491638
0.000518855
0.000547971
0.000579291
0.000613915
0.000653986
0.000704048
0.00075289
0.000803114
0.000851918
0.000899284
0.000943523
0.000983486
0.00101765
0.00104399
0.00105701
0.0010621
0.0010583
0.00103681
0.000999731
0.000947397
0.000880232
0.000801349
0.000711858
0.000616659
0.000520225
0.000426119
0.000337812
0.000259625
0.00019577
0.000142241
9.90672e-05
6.61829e-05
4.25446e-05
2.64418e-05
1.59433e-05
9.17854e-06
4.35088e-06
9.28634e-07
2.75176e-06
2.31161e-05
5.61117e-05
8.76195e-05
0.000110817
0.000124565
0.000131045
0.000133608
0.000135915
0.000141086
0.000152646
0.000174687
0.000208297
0.000252774
0.00030597
0.000365159
0.000427927
0.000491863
0.00055517
0.000617274
0.000680429
0.000749138
0.000828958
0.00092216
0.00102435
0.0011263
0.00122547
0.00131978
0.0014103
0.00149802
0.00158112
0.00165874
0.00172937
0.00179411
0.0018552
0.00191357
0.00197116
0.00202882
0.00208788
0.00214886
0.00221246
0.00227937
0.00234963
0.00242333
0.00249985
0.00257913
0.00265915
0.00273714
0.00282145
0.00290734
0.0029956
0.00308255
0.00316662
0.00324405
0.00331146
0.00336479
0.00339161
0.00339947
0.00338536
0.00333713
0.00325117
0.00312718
0.00296339
0.00276396
0.00253322
0.00228033
0.00201623
0.00174886
0.001486
0.00123134
0.000989559
0.000770151
0.000579314
0.000420236
0.00029294
0.000195574
0.000125022
7.54968e-05
3.66992e-05
4.90411e-06
6.01437e-06
5.00854e-05
0.00011638
0.000171716
0.000209219
0.000231233
0.000243282
0.000251466
0.000261912
0.00028063
0.000313509
0.000365401
0.000438002
0.000529434
0.00063559
0.000752221
0.000876056
0.00100442
0.00113475
0.00126487
0.00139309
0.00151857
0.001639
0.00174891
0.00184332
0.00191852
0.00197201
0.0020096
0.002039
0.00206733
0.00209837
0.00213139
0.00216674
0.00220225
0.00224129
0.00228314
0.00232946
0.00238017
0.00243632
0.00249784
0.00256456
0.00263711
0.00271485
0.00279802
0.00288649
0.00298015
0.00307832
0.00318216
0.00329142
0.00340429
0.00351986
0.00363576
0.00374973
0.00385837
0.00395784
0.00404331
0.00410963
0.00414368
0.00415287
0.00413079
0.00406358
0.00395103
0.00378878
0.00357941
0.00332509
0.00303457
0.00272368
0.00240101
0.00207698
0.00176198
0.00146474
0.00119187
0.000948184
0.000736203
0.000556539
0.000408452
0.000288657
0.000189633
9.6445e-05
1.31129e-05
1.04438e-05
8.41112e-05
0.000182579
0.00025625
0.000304283
0.000333913
0.000353806
0.000372612
0.000398819
0.00044072
0.000505709
0.000598345
0.000718389
0.000861023
0.0010193
0.0011866
0.00135712
0.00152518
0.0016846
0.00182939
0.00195379
0.00205579
0.00213277
0.00217784
0.00219702
0.0022016
0.00219768
0.00219575
0.00219567
0.00220224
0.00221379
0.00222886
0.00224899
0.002274
0.00230432
0.00233969
0.00238075
0.00242736
0.00247947
0.00253747
0.00260126
0.00267115
0.00274693
0.00282862
0.00291575
0.00300891
0.00310871
0.00321491
0.00332702
0.00344412
0.0035652
0.00368852
0.00381194
0.0039325
0.0040466
0.00414966
0.00423659
0.00429831
0.00432632
0.00432946
0.00428812
0.0042018
0.00407402
0.00389504
0.00366301
0.00338014
0.00306293
0.00272262
0.00237444
0.00203239
0.00170831
0.00141073
0.0011446
0.000911864
0.000712521
0.000544836
0.000404443
0.000281707
0.000153435
2.18887e-05
1.67581e-05
0.000129588
0.000260964
0.000352165
0.00041086
0.00044951
0.000480255
0.00051464
0.000563716
0.000637601
0.000743609
0.000883683
0.0010532
0.00124274
0.0014414
0.00163885
0.0018256
0.00199261
0.00213059
0.00223528
0.00229573
0.00231904
0.00232091
0.00229104
0.00226113
0.00223446
0.00221287
0.00219871
0.00219224
0.00219068
0.00219353
0.00220133
0.00221378
0.00223047
0.00225137
0.00227636
0.0023054
0.00233813
0.00237463
0.00241511
0.00245961
0.00250862
0.00256278
0.00262297
0.00269007
0.00276396
0.00284451
0.00293212
0.00302697
0.00312906
0.00323816
0.00335367
0.00347454
0.00359919
0.00372542
0.00384953
0.00396692
0.00407186
0.00415776
0.00420799
0.00422464
0.00419716
0.0041133
0.00397406
0.00378898
0.00354467
0.00324486
0.00290722
0.00254911
0.00218889
0.00184352
0.00152599
0.00124378
0.000999157
0.000791159
0.000616582
0.000469564
0.000337908
0.000192416
2.80107e-05
2.57711e-05
0.000189861
0.000356095
0.000465608
0.000536375
0.00058633
0.000631496
0.000686595
0.000764912
0.000876836
0.00102707
0.00121238
0.00142214
0.00164161
0.00185541
0.00204941
0.00221126
0.00233361
0.00239905
0.00242059
0.00240765
0.0023627
0.00231807
0.00227477
0.00223476
0.00220006
0.00217191
0.00214999
0.00213274
0.00211875
0.00210812
0.00210148
0.00209837
0.00209744
0.00209885
0.00210346
0.00211047
0.00212031
0.00213311
0.00214925
0.00216905
0.00219322
0.00222155
0.00225466
0.00229297
0.00233702
0.00238761
0.00244566
0.00251213
0.00258807
0.00267437
0.00277182
0.00288084
0.00300117
0.00313164
0.0032709
0.00341565
0.00356152
0.00370197
0.00382797
0.0039292
0.00397874
0.00398982
0.00393756
0.00382027
0.0036417
0.00338399
0.003066
0.00270607
0.00232757
0.00195483
0.00160867
0.0013026
0.00104155
0.000824015
0.00064463
0.000495128
0.000360912
0.000210058
3.03297e-05
3.82717e-05
0.000266845
0.000470291
0.000599413
0.000683935
0.000747656
0.000810721
0.000890753
0.00100197
0.00115262
0.00134216
0.00156055
0.0017908
0.00201334
0.0022097
0.00236465
0.00245835
0.00249336
0.00249089
0.00244149
0.00238803
0.00232555
0.0022654
0.00220561
0.00215239
0.00210657
0.00206675
0.00203098
0.00199856
0.0019698
0.00194506
0.00192335
0.0019038
0.00188637
0.00187126
0.00185857
0.00184821
0.00184049
0.00183612
0.00183441
0.00183434
0.00183857
0.00184565
0.00185667
0.00187172
0.00189136
0.00191636
0.00194748
0.00198588
0.00203318
0.00209116
0.00216183
0.00224748
0.00235018
0.00247061
0.00260986
0.00276823
0.00294216
0.00312617
0.00331314
0.0034946
0.00365449
0.00376595
0.00381142
0.00380472
0.00371059
0.00353536
0.0032613
0.00291349
0.00251885
0.00211004
0.00171927
0.00137134
0.00107858
0.000841004
0.000651173
0.00049638
0.00035974
0.000209114
2.94883e-05
5.49869e-05
0.00036155
0.000604157
0.000754205
0.000854069
0.000933615
0.00101694
0.00112359
0.0012667
0.00144991
0.00166572
0.00189702
0.00212144
0.00231639
0.00246339
0.00253593
0.00255475
0.00252346
0.00246792
0.00239236
0.00230939
0.0022226
0.0021456
0.00207606
0.00201691
0.00196256
0.00191297
0.00186685
0.00182428
0.00178516
0.00174932
0.00171639
0.00168633
0.00165928
0.00163535
0.00161458
0.00159676
0.0015819
0.00157001
0.00156091
0.00155509
0.0015525
0.00155191
0.00155487
0.00156138
0.00157146
0.0015857
0.00160456
0.00162862
0.0016584
0.00169485
0.00173918
0.00179317
0.00185958
0.00194322
0.00204929
0.00218205
0.00234602
0.00253956
0.00275471
0.00298685
0.00322131
0.00344291
0.00362438
0.00371387
0.00373429
0.00366971
0.00349401
0.00318995
0.00279775
0.00235545
0.00190764
0.00149569
0.00114726
0.000870784
0.000658019
0.000491894
0.0003514
0.000202544
2.74447e-05
7.64175e-05
0.000473724
0.000757009
0.000929039
0.00104534
0.00114164
0.00124535
0.00137651
0.00154506
0.00174834
0.00197161
0.00219197
0.0023842
0.00252082
0.0025814
0.00258978
0.00254545
0.00247694
0.00238052
0.00227035
0.00216791
0.00207752
0.00199685
0.00192395
0.00185818
0.00179661
0.00173967
0.00168679
0.00163832
0.00159421
0.00155451
0.00151917
0.00148825
0.00146163
0.00143911
0.00142046
0.00140548
0.00139393
0.00138549
0.00138049
0.00137833
0.00137789
0.0013804
0.00138573
0.00139376
0.00140446
0.00141801
0.00143455
0.00145438
0.0014778
0.00150526
0.00153734
0.0015748
0.0016187
0.00167073
0.00173339
0.00181061
0.0019098
0.00204498
0.00223035
0.00246302
0.0027267
0.00301106
0.00329125
0.0035392
0.00367806
0.00372074
0.00368149
0.00349852
0.0031519
0.00270299
0.00220407
0.001714
0.00128317
0.000938815
0.000681669
0.00049219
0.000338417
0.00018911
2.51022e-05
0.000102748
0.000601583
0.000926806
0.00112159
0.00125448
0.00136666
0.00148794
0.00163732
0.00182001
0.00202659
0.00223616
0.0024225
0.00255222
0.00260603
0.00260951
0.00256275
0.00247674
0.00235631
0.00222959
0.00211471
0.00201142
0.00191958
0.00183626
0.00175995
0.00168981
0.00162491
0.00156589
0.00151268
0.00146565
0.00142472
0.00138981
0.00136065
0.00133689
0.00131808
0.0013037
0.00129321
0.00128618
0.00128272
0.00128148
0.0012817
0.00128494
0.00128964
0.00129649
0.00130509
0.00131553
0.00132781
0.00134208
0.00135847
0.00137713
0.00139826
0.00142212
0.00144899
0.0014792
0.00151315
0.00155129
0.00159461
0.00164467
0.00170447
0.00177978
0.00187991
0.00202211
0.00223899
0.0025238
0.00284517
0.00318443
0.00349646
0.00368574
0.00374915
0.00372432
0.00352268
0.00312141
0.00260622
0.00204708
0.00151839
0.00107685
0.000743754
0.00050776
0.000333159
0.000176627
2.31491e-05
0.000134457
0.000741274
0.00111041
0.00132822
0.00147655
0.00160155
0.00173455
0.0018923
0.00207471
0.00226632
0.00244223
0.00256659
0.00261706
0.00261844
0.0025713
0.00247086
0.00233334
0.00219522
0.00206635
0.00195211
0.00184954
0.00175719
0.00167288
0.00159603
0.00152647
0.00146431
0.00141006
0.00136364
0.00132496
0.00129353
0.00126878
0.00124993
0.00123621
0.00122679
0.00122142
0.00121904
0.00121846
0.00122014
0.0012237
0.00122869
0.00123535
0.00124322
0.00125256
0.00126322
0.00127533
0.00128896
0.00130423
0.00132124
0.00134011
0.00136098
0.00138397
0.00140922
0.0014369
0.00146725
0.00150058
0.00153668
0.00157606
0.00161935
0.0016685
0.00172758
0.00180534
0.00191725
0.00208793
0.00236541
0.0027201
0.0031092
0.0034843
0.00372155
0.00380187
0.00377785
0.00354084
0.00307228
0.00248418
0.00186788
0.0013119
0.000872415
0.000557808
0.00034265
0.000172868
2.2415e-05
0.000172978
0.000888337
0.00130408
0.00154412
0.00170522
0.00183794
0.00197437
0.00212844
0.00229516
0.00245472
0.00257276
0.00262159
0.00262274
0.00257619
0.00246731
0.0023188
0.00216838
0.00202791
0.00190177
0.00178996
0.00168929
0.00159865
0.00151705
0.00144466
0.00138168
0.00132825
0.00128426
0.00124908
0.00122192
0.00120171
0.00118738
0.00117784
0.00117264
0.0011704
0.0011699
0.00117137
0.00117446
0.0011789
0.00118448
0.00119115
0.00119896
0.00120788
0.00121806
0.00122955
0.00124251
0.00125706
0.00127336
0.00129154
0.00131173
0.00133402
0.00135847
0.00138509
0.00141381
0.00144452
0.00147709
0.00151146
0.00154778
0.00158633
0.00162665
0.00166977
0.00171882
0.00178161
0.00187151
0.00201522
0.00225619
0.00263101
0.0030601
0.0034985
0.00377345
0.00386336
0.00382293
0.00352806
0.00297848
0.00231556
0.0016545
0.00108929
0.000666233
0.000378993
0.000179904
2.31771e-05
0.000215699
0.00104291
0.00150365
0.00176377
0.0019336
0.00206738
0.00219746
0.00233518
0.00247181
0.00257973
0.00262646
0.00262812
0.00258223
0.00247086
0.00231552
0.00215323
0.00200074
0.00186355
0.00174198
0.00163409
0.00153774
0.00145258
0.0013784
0.00131548
0.00126363
0.00122231
0.00119056
0.00116705
0.00115041
0.00113925
0.00113258
0.00112942
0.00112836
0.00112836
0.00113018
0.00113301
0.00113685
0.00114157
0.00114717
0.00115374
0.00116138
0.00117021
0.00118037
0.00119202
0.00120532
0.00122043
0.00123753
0.00125677
0.00127831
0.00130228
0.00132876
0.00135779
0.00138928
0.00142305
0.00145876
0.00149592
0.00153398
0.00157253
0.00161155
0.00165142
0.00169136
0.00173441
0.0017865
0.00186096
0.00198296
0.00219668
0.00257209
0.00304156
0.00353575
0.00383161
0.00391871
0.003841
0.00345792
0.00281412
0.00208599
0.00140011
0.000849449
0.000462017
0.000205459
2.64964e-05
0.000261397
0.00120125
0.00170413
0.00198126
0.00215486
0.00228219
0.00239586
0.00250537
0.00259693
0.00263859
0.00264008
0.00259355
0.00248388
0.00232492
0.0021526
0.00198741
0.00183865
0.00170728
0.00159174
0.00149016
0.00140152
0.00132586
0.00126296
0.00121247
0.00117334
0.00114417
0.00112327
0.00110892
0.00109958
0.00109396
0.00109121
0.0010901
0.00108986
0.00109047
0.00109215
0.00109444
0.00109752
0.00110139
0.00110617
0.001112
0.00111903
0.00112741
0.00113729
0.00114885
0.00116224
0.00117762
0.00119518
0.0012151
0.00123757
0.00126275
0.00129081
0.00132188
0.00135599
0.00139305
0.00143279
0.0014747
0.00151798
0.00156159
0.00160443
0.00164576
0.00168591
0.0017241
0.00176314
0.00180776
0.00187185
0.0019809
0.00218264
0.00254859
0.00305562
0.00359563
0.00388533
0.00395385
0.00381329
0.00329909
0.00256469
0.00178626
0.00110679
0.000601577
0.000261474
3.45714e-05
0.00030859
0.00135918
0.00190037
0.00219083
0.0023628
0.00247624
0.00256425
0.00263412
0.00266611
0.00266437
0.00261452
0.00250856
0.00234868
0.00216831
0.00199046
0.00182873
0.00168664
0.00156277
0.00145528
0.0013629
0.00128516
0.00122176
0.00117181
0.00113395
0.00110631
0.00108686
0.00107364
0.00106494
0.00105936
0.00105586
0.0010537
0.00105232
0.00105167
0.00105149
0.00105189
0.00105299
0.00105487
0.00105768
0.00106156
0.00106665
0.0010731
0.00108106
0.00109068
0.00110209
0.00111545
0.00113091
0.00114865
0.00116884
0.00119169
0.00121743
0.00124627
0.00127845
0.00131414
0.00135345
0.00139633
0.00144251
0.00149133
0.00154173
0.00159215
0.00164069
0.00168561
0.00172637
0.00176183
0.00179736
0.00183872
0.00189588
0.00199841
0.00219415
0.00256406
0.00310925
0.00366752
0.00392783
0.00395871
0.00370726
0.00304212
0.00221535
0.00142176
0.00079013
0.000346957
4.76726e-05
0.000355955
0.00151265
0.00208765
0.00238745
0.00255226
0.0026452
0.00269758
0.00271789
0.00270687
0.00265012
0.00254757
0.00238849
0.00220205
0.00201201
0.00183596
0.0016812
0.0015476
0.00143297
0.00133576
0.00125502
0.00119001
0.00113958
0.00110188
0.00107471
0.00105568
0.00104263
0.0010337
0.00102745
0.00102287
0.00101928
0.00101629
0.00101375
0.00101166
0.00101015
0.00100947
0.00100933
0.00101011
0.00101206
0.00101525
0.00101981
0.00102586
0.00103355
0.00104297
0.00105427
0.00106755
0.00108297
0.00110067
0.00112084
0.00114368
0.00116942
0.00119833
0.00123071
0.00126685
0.00130703
0.00135147
0.00140021
0.00145302
0.00150921
0.00156748
0.00162577
0.00168132
0.0017311
0.00177585
0.00180875
0.00183605
0.00187417
0.00192938
0.00202959
0.00222781
0.00261526
0.00320353
0.00374611
0.00396373
0.00391169
0.00346886
0.00265579
0.0017739
0.00101607
0.000454292
6.46351e-05
0.000402463
0.00165748
0.00226235
0.00256788
0.00271849
0.00278073
0.0027949
0.00277133
0.00270547
0.00260441
0.00244633
0.00225552
0.00205414
0.00186267
0.00169282
0.00154708
0.00142347
0.00131979
0.0012346
0.00116668
0.00111447
0.0010758
0.00104807
0.00102863
0.00101503
0.00100531
0.000997991
0.00099206
0.000986901
0.000982196
0.000977841
0.000973878
0.000970429
0.000967635
0.000965821
0.000965051
0.000964975
0.000966315
0.000969063
0.000973296
0.000979107
0.000986611
0.000995905
0.00100709
0.00102028
0.00103558
0.00105315
0.00107314
0.00109575
0.00112119
0.00114975
0.00118173
0.00121751
0.00125747
0.00130201
0.00135147
0.00140602
0.00146553
0.00152934
0.00159596
0.00166287
0.00172637
0.00178197
0.00183038
0.00186174
0.00187995
0.00191385
0.00196974
0.00207237
0.00228237
0.00270429
0.00333458
0.00381556
0.00396049
0.00377063
0.00307986
0.00214902
0.00126997
0.000577045
8.43851e-05
0.000447195
0.00179237
0.00242064
0.00272459
0.00285491
0.00288859
0.00286557
0.00279327
0.00268201
0.00252489
0.00233056
0.00211895
0.00191146
0.001724
0.00156293
0.00142759
0.00131526
0.00122373
0.00115126
0.00109586
0.00105502
0.00102578
0.00100516
0.000990494
0.000979636
0.000971033
0.000963659
0.00095692
0.00095054
0.000944456
0.000938738
0.000933525
0.00092898
0.000925267
0.000922577
0.000921256
0.000920861
0.000921662
0.000924141
0.000928148
0.00093379
0.000941149
0.000950321
0.000961387
0.000974448
0.00098961
0.001007
0.00102675
0.00104904
0.00107408
0.00110213
0.00113348
0.00116851
0.00120766
0.00125141
0.00130028
0.00135476
0.00141519
0.00148155
0.00155322
0.00162859
0.00170466
0.00177674
0.00183862
0.00189052
0.00191607
0.00192935
0.00195758
0.00201603
0.00212624
0.00236074
0.00284091
0.00351126
0.00385537
0.00389139
0.00346055
0.00253723
0.00154759
0.000711107
0.000105964
0.000488361
0.00191357
0.00255775
0.00285522
0.00296318
0.00297264
0.00290656
0.00278642
0.00262888
0.00242953
0.00220857
0.0019851
0.00177787
0.0015978
0.00144707
0.00132313
0.00122291
0.00114391
0.00108369
0.00103935
0.00100761
0.00098512
0.00096893
0.000956684
0.000946694
0.000937877
0.000929627
0.00092168
0.000913994
0.000906656
0.000899814
0.000893636
0.000888286
0.000883913
0.000880647
0.000878932
0.000878335
0.000878722
0.000880978
0.000884781
0.000890246
0.000897435
0.000906446
0.000917352
0.000930245
0.000945223
0.000962399
0.000981902
0.00100389
0.00102854
0.00105608
0.00108679
0.00112102
0.00115918
0.00120179
0.00124945
0.00130279
0.00136248
0.00142901
0.00150252
0.00158245
0.00166702
0.00175272
0.00183384
0.00190241
0.00195294
0.00197209
0.00198063
0.00200502
0.00206784
0.00219303
0.00247472
0.00303821
0.00365975
0.00389458
0.00371326
0.00291823
0.00184542
0.000853992
0.000128686
0.000524522
0.00201815
0.00267145
0.00295952
0.00304858
0.00303018
0.0029219
0.00276106
0.0025562
0.00232545
0.00208638
0.00185798
0.00165534
0.00148474
0.00134528
0.00123331
0.00114537
0.00107837
0.00102902
0.000993646
0.000968539
0.000950378
0.000936521
0.000925082
0.000914862
0.000905201
0.000895818
0.000886671
0.000877852
0.000869512
0.00086182
0.000854937
0.000849006
0.000844151
0.00084048
0.000838415
0.00083764
0.000837679
0.000839669
0.000843232
0.000848465
0.000855423
0.000864208
0.00087489
0.00088756
0.000902311
0.000919251
0.000938498
0.000960191
0.000984495
0.00101161
0.00104178
0.0010753
0.00111257
0.00115406
0.00120037
0.00125218
0.00131032
0.00137558
0.00144868
0.00152988
0.00161862
0.00171286
0.00180832
0.00189788
0.00197119
0.00201603
0.00202859
0.00203276
0.00205565
0.0021253
0.0022778
0.00263653
0.00328551
0.0037361
0.0038068
0.00327166
0.00215817
0.00100116
0.000152368
0.000554904
0.00210506
0.00276151
0.00303857
0.00311172
0.00306284
0.00291529
0.0027124
0.00247281
0.00221818
0.00196807
0.0017399
0.00154466
0.00138472
0.00125699
0.00115705
0.00108089
0.00102467
0.000984297
0.000955649
0.000934971
0.000919237
0.000906272
0.000894689
0.000883721
0.000873034
0.000862565
0.000852399
0.000842685
0.000833589
0.000825268
0.000817859
0.000811481
0.000806238
0.000802222
0.000799735
0.000798673
0.000798532
0.00080014
0.000803397
0.000808325
0.000814979
0.000823463
0.000833852
0.000846237
0.000860712
0.000877379
0.000896355
0.000917767
0.000941764
0.000968523
0.000998258
0.00103123
0.00106779
0.00110834
0.00115345
0.00120377
0.00126016
0.00132356
0.00139501
0.0014754
0.00156515
0.00166364
0.00176843
0.00187435
0.00197261
0.00204635
0.00207903
0.00208486
0.00208473
0.00210877
0.00219129
0.00239201
0.00287604
0.0035321
0.00379327
0.00353802
0.00247536
0.00114989
0.000176885
0.000579077
0.00217431
0.00282897
0.00309405
0.00315233
0.00307329
0.00289377
0.00265193
0.00238364
0.00211177
0.00185624
0.00163195
0.00144586
0.00129717
0.00118119
0.00109282
0.00102738
0.000980278
0.00094689
0.000922955
0.000904958
0.000890324
0.000877383
0.000865193
0.000853321
0.000841661
0.000830274
0.000819302
0.000808904
0.000799233
0.000790423
0.000782586
0.000775821
0.000770215
0.000765848
0.000762891
0.000761498
0.000761154
0.000762286
0.000765167
0.000769718
0.000776
0.000784116
0.000794148
0.000806187
0.000820332
0.000836685
0.000855361
0.000876482
0.000900188
0.000926641
0.000956029
0.000988586
0.0010246
0.00106444
0.00110859
0.00115766
0.00121244
0.00127392
0.00134325
0.00142168
0.00151032
0.00160966
0.00171884
0.00183466
0.00195047
0.00205557
0.0021231
0.00214138
0.00214039
0.00213301
0.00216582
0.0022722
0.00256156
0.00318177
0.0036256
0.00365629
0.00279413
0.00131191
0.000203585
0.000596979
0.00222659
0.00287524
0.00312787
0.00317249
0.0030667
0.00285448
0.00258323
0.00229249
0.00200904
0.0017524
0.00153445
0.00135849
0.00122114
0.00111654
0.00103886
0.000982743
0.00094299
0.000914744
0.000893887
0.000877312
0.000862946
0.000849578
0.000836622
0.000823885
0.000811394
0.000799272
0.000787672
0.00077674
0.000766605
0.000757377
0.000749149
0.000742004
0.000736019
0.000731264
0.000727812
0.000726024
0.00072544
0.000726043
0.000728486
0.000732606
0.000738462
0.000746156
0.000755776
0.000767419
0.000781183
0.000797176
0.000815512
0.000836315
0.00085972
0.000885879
0.000914966
0.000947189
0.000982799
0.00102212
0.00106556
0.00111366
0.00116713
0.0012269
0.00129414
0.00137025
0.00145675
0.00155498
0.00166543
0.00178674
0.00191424
0.00203834
0.00214359
0.00219641
0.00220461
0.00218739
0.00217568
0.00222685
0.00238711
0.00284122
0.00347037
0.00367817
0.00310835
0.00151224
0.0002376
0.000608894
0.00226292
0.00290135
0.00314034
0.00317189
0.00304666
0.00280556
0.00250991
0.00220223
0.00191184
0.00165726
0.00144722
0.00128177
0.00115552
0.00106157
0.000993418
0.000945085
0.000911017
0.000886376
0.000867377
0.000851392
0.000836825
0.000822847
0.000809133
0.000795645
0.000782477
0.000769769
0.000757665
0.000746288
0.000735743
0.000726123
0.000717504
0.000709962
0.000703564
0.000698379
0.000694471
0.000692196
0.000691333
0.000691413
0.000693369
0.000697022
0.000702417
0.000709651
0.000718821
0.000730023
0.000743363
0.00075895
0.000776903
0.000797347
0.000820418
0.000846265
0.000875056
0.000906979
0.000942265
0.000981191
0.00102412
0.00107151
0.00112398
0.00118237
0.00124778
0.0013216
0.00140556
0.00150148
0.00161093
0.00173435
0.00186971
0.00201071
0.00214499
0.00223652
0.0022662
0.00226196
0.00222875
0.00221944
0.00230305
0.00257147
0.00319909
0.00357151
0.00336131
0.00176688
0.000283559
0.000614884
0.00228364
0.00290845
0.003137
0.00316043
0.00301187
0.00274949
0.00243476
0.00211493
0.00182128
0.00157099
0.00136975
0.00121479
0.00109907
0.00101482
0.000954892
0.000912856
0.00088303
0.000860795
0.0008428
0.000826898
0.000811904
0.000797284
0.000782892
0.000768776
0.000755056
0.000741869
0.000729335
0.000717558
0.000706626
0.000696615
0.000687598
0.000679643
0.000672821
0.000667201
0.000662856
0.000660004
0.000658714
0.000658477
0.000659883
0.000663052
0.000667969
0.000674725
0.000683418
0.00069415
0.000707028
0.000722166
0.000739689
0.000759725
0.000782415
0.00080791
0.000836376
0.000867995
0.00090298
0.000941584
0.00098412
0.00103099
0.00108274
0.00114008
0.00120401
0.00127585
0.00135731
0.00145045
0.00155746
0.00167997
0.00181786
0.00196729
0.00211831
0.00225274
0.00232308
0.002334
0.00229964
0.00226142
0.00227622
0.00242607
0.00291114
0.0034282
0.00348249
0.00207195
0.00034144
0.00061455
0.00229156
0.00290355
0.00312239
0.00313412
0.00296813
0.00268894
0.00235994
0.00203203
0.00173797
0.00149345
0.00130135
0.00115654
0.00105059
0.000974942
0.000921931
0.00088485
0.000858088
0.000837376
0.000819823
0.000803722
0.000788221
0.000772999
0.000758024
0.000743384
0.000729204
0.000715602
0.00070268
0.000690524
0.00067921
0.000668807
0.000659386
0.000651017
0.000643771
0.000637722
0.000632946
0.000629524
0.000627793
0.000627276
0.00062813
0.000630813
0.000635253
0.000641525
0.00064973
0.000659971
0.000672358
0.000687012
0.000704059
0.000723636
0.00074589
0.000770976
0.000799065
0.000830341
0.00086501
0.000903307
0.000945518
0.000991997
0.00104321
0.00109978
0.00116258
0.00123281
0.00131209
0.00140254
0.0015067
0.00162713
0.00176553
0.0019209
0.00208706
0.00224982
0.00236413
0.00240115
0.00238964
0.00231487
0.00228098
0.00235097
0.00266566
0.00328909
0.00351339
0.00241686
0.000408902
0.000611336
0.00228956
0.00288743
0.00309243
0.00309534
0.00291739
0.00262601
0.00228707
0.00195447
0.0016621
0.00142423
0.00124126
0.00110603
0.00100894
0.000940763
0.000893443
0.000860174
0.000835562
0.000815746
0.000798286
0.000781847
0.000765833
0.000750074
0.000734601
0.000719516
0.000704935
0.000690958
0.00067767
0.000665145
0.000653453
0.000642663
0.000632844
0.000624068
0.000616409
0.00060994
0.000604734
0.000600858
0.00059866
0.000597868
0.000598217
0.000600431
0.000604406
0.000610201
0.000617917
0.000627658
0.000639535
0.000653673
0.000670204
0.000689272
0.000711031
0.000735645
0.000763293
0.000794165
0.000828468
0.000866434
0.000908329
0.000954475
0.00100528
0.00106129
0.00112325
0.00119223
0.00126969
0.00135768
0.00145881
0.00157613
0.00171246
0.00186886
0.00204202
0.00222061
0.00238104
0.00246056
0.00247147
0.00241158
0.00233122
0.00232537
0.00249756
0.00306379
0.00343476
0.0027632
0.000479236
0.000604178
0.00228077
0.00285728
0.00305243
0.00304778
0.00286168
0.00256235
0.0022173
0.00188281
0.00159363
0.00136283
0.00118867
0.00106229
0.000973095
0.000911298
0.000868579
0.000838186
0.000815035
0.000795692
0.000778118
0.000761285
0.00074479
0.000728558
0.000712653
0.000697179
0.000682235
0.000667906
0.000654266
0.000641384
0.000629325
0.000618161
0.000607962
0.000598803
0.00059076
0.000583904
0.000578308
0.00057404
0.00057138
0.000570291
0.000570251
0.000572018
0.000575551
0.000580886
0.000588122
0.000597361
0.000608717
0.000622317
0.000638298
0.000656811
0.000678018
0.000702095
0.00072923
0.000759625
0.000793494
0.000831074
0.000872624
0.000918447
0.00096891
0.00102449
0.00108584
0.00115388
0.00122993
0.00131586
0.00141426
0.00152841
0.00166199
0.00181793
0.0019962
0.0021901
0.00238184
0.00250967
0.00254467
0.00251332
0.00238863
0.00233128
0.00241427
0.00284944
0.00329691
0.00303917
0.000536453
0.000592975
0.00226224
0.00281836
0.00300478
0.00299353
0.00280273
0.00249928
0.00215147
0.0018173
0.00153234
0.00130868
0.00114282
0.00102447
0.00094219
0.000885747
0.000846693
0.000818434
0.000796243
0.00077709
0.000759288
0.000742051
0.000725115
0.000708465
0.000692179
0.000676353
0.000661073
0.000646411
0.000632435
0.00061921
0.000606805
0.000595291
0.000584744
0.00057524
0.000566855
0.000559663
0.000553736
0.000549146
0.000546056
0.000544619
0.000544335
0.000545668
0.000548783
0.000553682
0.000560453
0.000569198
0.000580029
0.000593076
0.00060848
0.000626399
0.000647004
0.000670482
0.000697033
0.000726873
0.00076023
0.00079735
0.000838498
0.000883967
0.000934104
0.000989334
0.00105023
0.00111758
0.00119254
0.0012768
0.00137278
0.00148376
0.00161381
0.001767
0.00194552
0.00214617
0.00235581
0.00253447
0.00260965
0.0026097
0.00249643
0.00237767
0.00237472
0.00267382
0.00316868
0.00317063
0.000562971
0.000578379
0.00223692
0.00277255
0.00295097
0.00293454
0.00274201
0.0024378
0.00209009
0.00175804
0.00147792
0.0012612
0.00110298
0.000991794
0.000915479
0.000863475
0.000827304
0.000800602
0.000779008
0.000759866
0.000741779
0.00072415
0.000706813
0.000689789
0.00067316
0.00065701
0.000641414
0.000626439
0.000612146
0.000598603
0.00058588
0.000574053
0.000563198
0.000553395
0.00054472
0.000537245
0.000531042
0.000526178
0.000522719
0.000520973
0.000520485
0.000521436
0.000524166
0.000528657
0.000534983
0.000543245
0.000553554
0.00056604
0.00058085
0.000598144
0.000618104
0.000640928
0.000666829
0.000696039
0.000728802
0.000765381
0.000806051
0.000851113
0.000900899
0.000955806
0.00101634
0.00108318
0.00115735
0.00124032
0.00133431
0.0014425
0.00156914
0.00171915
0.00189673
0.00210195
0.00232538
0.00254185
0.0026693
0.00269396
0.00261133
0.00242872
0.0023643
0.00251644
0.00306152
0.00320765
0.000567597
0.000561224
0.00220695
0.00272156
0.00289253
0.00287241
0.00268071
0.00237864
0.00203346
0.00170492
0.00142999
0.00121982
0.0010685
0.000963586
0.00089235
0.00084398
0.000810051
0.000784465
0.000763214
0.000743968
0.000725572
0.000707573
0.00068987
0.000672507
0.000655563
0.000639114
0.000623226
0.000607959
0.000593376
0.000579546
0.000566543
0.000554445
0.000543331
0.000533281
0.000524368
0.000516664
0.000510233
0.000505134
0.000501419
0.000499389
0.000498719
0.000499343
0.000501724
0.000505836
0.000511742
0.000519536
0.000529332
0.000541257
0.000555461
0.00057211
0.000591392
0.000613516
0.00063871
0.000667221
0.000699313
0.000735267
0.000775379
0.000819961
0.000869348
0.000923922
0.000984139
0.00105061
0.00112419
0.00120619
0.00129859
0.00140433
0.00152762
0.00167384
0.00184861
0.00205508
0.00228885
0.00253114
0.00271326
0.00277035
0.00272674
0.00252942
0.00239101
0.00243987
0.00289304
0.003179
0.000556132
0.000542173
0.00217413
0.00266702
0.0028309
0.00280848
0.00261977
0.00232232
0.00198172
0.00165779
0.00138815
0.001184
0.00103877
0.000939275
0.000872298
0.000826869
0.000794664
0.000769859
0.000748772
0.000729356
0.000710646
0.000692299
0.000674262
0.00065659
0.000639357
0.000622632
0.000606474
0.000590944
0.000576104
0.000562025
0.000548785
0.000536464
0.000525142
0.000514897
0.000505801
0.000497921
0.000491315
0.000486035
0.000482129
0.000479856
0.000479025
0.000479377
0.000481446
0.000485208
0.000490719
0.000498067
0.000507361
0.000518731
0.000532326
0.000548317
0.000566899
0.00058829
0.00061273
0.000640483
0.000671834
0.000707085
0.000746556
0.000790579
0.000839504
0.000893708
0.000953623
0.00101979
0.00109297
0.00117427
0.00126544
0.00136918
0.0014895
0.00163193
0.00180305
0.00200824
0.00224677
0.00250429
0.00273549
0.00283717
0.00282935
0.00264846
0.00243462
0.00240825
0.00274346
0.00310562
0.000536633
0.000521881
0.00213917
0.00261013
0.00276734
0.00274383
0.00255994
0.00226918
0.00193487
0.00161639
0.00135201
0.00115326
0.00101329
0.000918374
0.000854915
0.000811833
0.000780933
0.000756659
0.000735615
0.000715989
0.000696971
0.0006783
0.000659957
0.000642002
0.000624506
0.00060753
0.000591131
0.000575369
0.000560309
0.000546024
0.000532592
0.000520097
0.000508618
0.000498231
0.000489005
0.000481
0.00047427
0.00046886
0.000464813
0.000462337
0.000461364
0.000461494
0.000463287
0.00046673
0.000471871
0.000478793
0.000487603