/*--------------------------------*- C++ -*----------------------------------*\
  =========                 |
  \\      /  F ield         | OpenFOAM: The Open Source CFD Toolbox
   \\    /   O peration     | Website:  https://openfoam.org
    \\  /    A nd           | Version:  13
     \\/     M anipulation  |
\*---------------------------------------------------------------------------*/
FoamFile
{
    format      ascii;
    class       volScalarField;
    location    "9.4";
    object      nut;
}
// * * * * * * * * * * * * * * * * * * * * * * * * * * * * * * * * * * * * * //

dimensions      [0 2 -1 0 0 0 0];

internalField   nonuniform List<scalar> 
6400
(
1.00143e-09
5.14446e-09
1.25165e-08
2.01551e-08
2.58905e-08
2.90874e-08
3.02227e-08
3.03005e-08
3.0457e-08
3.15352e-08
3.41979e-08
3.94573e-08
4.77671e-08
5.93013e-08
7.343e-08
8.93584e-08
1.06267e-07
1.2383e-07
1.41235e-07
1.58087e-07
1.75114e-07
1.93787e-07
2.1607e-07
2.4305e-07
2.7347e-07
3.04003e-07
3.34375e-07
3.64537e-07
3.95462e-07
4.27957e-07
4.61533e-07
4.95119e-07
5.28156e-07
5.608e-07
5.9381e-07
6.27409e-07
6.62242e-07
6.98529e-07
7.36688e-07
7.76824e-07
8.19228e-07
8.64221e-07
9.12063e-07
9.63244e-07
1.0183e-06
1.07916e-06
1.1496e-06
1.2376e-06
1.32345e-06
1.41174e-06
1.49752e-06
1.58078e-06
1.65855e-06
1.7288e-06
1.78886e-06
1.83516e-06
1.85804e-06
1.86699e-06
1.8603e-06
1.82253e-06
1.75736e-06
1.66536e-06
1.5473e-06
1.40864e-06
1.25133e-06
1.08399e-06
9.14471e-07
7.4905e-07
5.93821e-07
4.56379e-07
3.44131e-07
2.50036e-07
1.74143e-07
1.16337e-07
7.47848e-08
4.64789e-08
2.80245e-08
1.61335e-08
7.64762e-09
1.63226e-09
4.83714e-09
3.39409e-07
1.22041e-06
2.0548e-06
2.66967e-06
3.03024e-06
3.19478e-06
3.25162e-06
3.28614e-06
3.36087e-06
3.55245e-06
3.93123e-06
4.46467e-06
5.08357e-06
5.72436e-06
6.32444e-06
6.8388e-06
7.21973e-06
7.4538e-06
7.55782e-06
7.6166e-06
7.69318e-06
7.85656e-06
8.13121e-06
8.45139e-06
8.65855e-06
8.86601e-06
9.10501e-06
9.4229e-06
9.8575e-06
1.04093e-05
1.1017e-05
1.16727e-05
1.23497e-05
1.30644e-05
1.3803e-05
1.45739e-05
1.53715e-05
1.62028e-05
1.70619e-05
1.7943e-05
1.88517e-05
1.97915e-05
2.07774e-05
2.17766e-05
2.27523e-05
2.36807e-05
2.45025e-05
2.53799e-05
2.62539e-05
2.71411e-05
2.80155e-05
2.88657e-05
2.96695e-05
3.04052e-05
3.11299e-05
3.15522e-05
3.18478e-05
3.20173e-05
3.19667e-05
3.15746e-05
3.08873e-05
2.98611e-05
2.85045e-05
2.68103e-05
2.48426e-05
2.26887e-05
2.03681e-05
1.79167e-05
1.52385e-05
1.23378e-05
9.55347e-06
7.10292e-06
5.0936e-06
3.53369e-06
2.40464e-06
1.60984e-06
1.04313e-06
4.72803e-07
8.61999e-09
1.05722e-08
8.74098e-07
3.52292e-06
6.10824e-06
8.0842e-06
9.36556e-06
1.00841e-05
1.04437e-05
1.06563e-05
1.0903e-05
1.13167e-05
1.19777e-05
1.28592e-05
1.38602e-05
1.48513e-05
1.57236e-05
1.64271e-05
1.69371e-05
1.72524e-05
1.73878e-05
1.73642e-05
1.72818e-05
1.7218e-05
1.72119e-05
1.72999e-05
1.75758e-05
1.79053e-05
1.8244e-05
1.86081e-05
1.89989e-05
1.95104e-05
2.02305e-05
2.12348e-05
2.22633e-05
2.34219e-05
2.46364e-05
2.59289e-05
2.7237e-05
2.86038e-05
3.00585e-05
3.14636e-05
3.29162e-05
3.43208e-05
3.56583e-05
3.69339e-05
3.81888e-05
3.94081e-05
4.06332e-05
4.18687e-05
4.30986e-05
4.43196e-05
4.55167e-05
4.66747e-05
4.77722e-05
4.87818e-05
4.96667e-05
5.04573e-05
5.09479e-05
5.11684e-05
5.13068e-05
5.11078e-05
5.05917e-05
4.96901e-05
4.83198e-05
4.63832e-05
4.39235e-05
4.1125e-05
3.79645e-05
3.44589e-05
3.06437e-05
2.65781e-05
2.24051e-05
1.83224e-05
1.45339e-05
1.1201e-05
8.38885e-06
6.16063e-06
4.24398e-06
1.76976e-06
2.30487e-08
1.83584e-08
1.4295e-06
5.50503e-06
9.38716e-06
1.23849e-05
1.44401e-05
1.57108e-05
1.64237e-05
1.6844e-05
1.71976e-05
1.7686e-05
1.84334e-05
1.94175e-05
2.04972e-05
2.15101e-05
2.23411e-05
2.29307e-05
2.32761e-05
2.34071e-05
2.3382e-05
2.3268e-05
2.3174e-05
2.31686e-05
2.32951e-05
2.33644e-05
2.3386e-05
2.34024e-05
2.38338e-05
2.45967e-05
2.56198e-05
2.69202e-05
2.81588e-05
2.93876e-05
3.06957e-05
3.20338e-05
3.33413e-05
3.46601e-05
3.60477e-05
3.73429e-05
3.86391e-05
3.98763e-05
4.10972e-05
4.22645e-05
4.3394e-05
4.44739e-05
4.55311e-05
4.65862e-05
4.76409e-05
4.86914e-05
4.97314e-05
5.07546e-05
5.17501e-05
5.27053e-05
5.36032e-05
5.44242e-05
5.51449e-05
5.57408e-05
5.61779e-05
5.63952e-05
5.64346e-05
5.62491e-05
5.56846e-05
5.49341e-05
5.41037e-05
5.27519e-05
5.07777e-05
4.83517e-05
4.54486e-05
4.21332e-05
3.84504e-05
3.44447e-05
3.01835e-05
2.57797e-05
2.13995e-05
1.72474e-05
1.34888e-05
1.02302e-05
7.17167e-06
2.97796e-06
3.84739e-08
2.94577e-08
2.14444e-06
7.63273e-06
1.26165e-05
1.63288e-05
1.88225e-05
2.03415e-05
2.11764e-05
2.16459e-05
2.20739e-05
2.27164e-05
2.36594e-05
2.47993e-05
2.59374e-05
2.68962e-05
2.75765e-05
2.79591e-05
2.80845e-05
2.80093e-05
2.78534e-05
2.76297e-05
2.74743e-05
2.73286e-05
2.6731e-05
2.67049e-05
2.72718e-05
2.82459e-05
2.94085e-05
3.05881e-05
3.19096e-05
3.32142e-05
3.44699e-05
3.57051e-05
3.6907e-05
3.8015e-05
3.90553e-05
4.01064e-05
4.10661e-05
4.19055e-05
4.26942e-05
4.33989e-05
4.40552e-05
4.4672e-05
4.52838e-05
4.59111e-05
4.6547e-05
4.7179e-05
4.7817e-05
4.84623e-05
4.91185e-05
4.9787e-05
5.04679e-05
5.11593e-05
5.18565e-05
5.25526e-05
5.32354e-05
5.38839e-05
5.4469e-05
5.49594e-05
5.52908e-05
5.54074e-05
5.52492e-05
5.46377e-05
5.35358e-05
5.27334e-05
5.15041e-05
4.96495e-05
4.73027e-05
4.45231e-05
4.13591e-05
3.78455e-05
3.40076e-05
2.98837e-05
2.55687e-05
2.12767e-05
1.71729e-05
1.33332e-05
9.37371e-06
3.82716e-06
4.92347e-08
4.53006e-08
3.10535e-06
1.01432e-05
1.61437e-05
2.03569e-05
2.30279e-05
2.45506e-05
2.53411e-05
2.58265e-05
2.63861e-05
2.7232e-05
2.83444e-05
2.9538e-05
3.05936e-05
3.13565e-05
3.17663e-05
3.18418e-05
3.17088e-05
3.13207e-05
3.10231e-05
3.05074e-05
2.96638e-05
2.95505e-05
3.02973e-05
3.12937e-05
3.23365e-05
3.353e-05
3.47223e-05
3.58712e-05
3.69674e-05
3.79376e-05
3.88374e-05
3.96612e-05
4.03644e-05
4.09555e-05
4.14586e-05
4.18776e-05
4.22934e-05
4.25929e-05
4.28667e-05
4.31032e-05
4.33298e-05
4.35364e-05
4.37303e-05
4.39155e-05
4.40923e-05
4.42673e-05
4.44488e-05
4.46461e-05
4.487e-05
4.51321e-05
4.54449e-05
4.58211e-05
4.62678e-05
4.67809e-05
4.73716e-05
4.80358e-05
4.87499e-05
4.94774e-05
5.01684e-05
5.08238e-05
5.11851e-05
5.12947e-05
5.10185e-05
5.01811e-05
4.96734e-05
4.84295e-05
4.66362e-05
4.43547e-05
4.16687e-05
3.86485e-05
3.53237e-05
3.16758e-05
2.76819e-05
2.35006e-05
1.92749e-05
1.51545e-05
1.06953e-05
4.24288e-06
5.33111e-08
6.72741e-08
4.35506e-06
1.30653e-05
1.99659e-05
2.44842e-05
2.714e-05
2.8525e-05
2.92134e-05
2.97263e-05
3.04253e-05
3.14155e-05
3.25702e-05
3.36606e-05
3.44857e-05
3.4942e-05
3.50279e-05
3.45934e-05
3.41671e-05
3.37208e-05
3.2559e-05
3.22586e-05
3.27911e-05
3.3678e-05
3.45006e-05
3.54288e-05
3.63622e-05
3.7304e-05
3.8123e-05
3.8838e-05
3.94599e-05
4.00062e-05
4.04742e-05
4.08382e-05
4.11121e-05
4.13135e-05
4.14588e-05
4.15584e-05
4.1625e-05
4.16375e-05
4.16415e-05
4.16363e-05
4.15886e-05
4.15324e-05
4.14492e-05
4.13546e-05
4.12373e-05
4.1107e-05
4.09607e-05
4.08108e-05
4.06656e-05
4.05392e-05
4.04531e-05
4.04413e-05
4.05555e-05
4.07678e-05
4.11145e-05
4.1656e-05
4.23858e-05
4.32584e-05
4.42236e-05
4.52661e-05
4.62465e-05
4.70953e-05
4.74817e-05
4.74701e-05
4.69916e-05
4.66483e-05
4.54003e-05
4.35157e-05
4.1122e-05
3.83614e-05
3.53468e-05
3.21094e-05
2.85552e-05
2.45832e-05
2.04903e-05
1.60792e-05
1.09915e-05
4.23551e-06
5.18322e-08
9.66557e-08
5.91204e-06
1.63261e-05
2.39758e-05
2.86194e-05
3.11303e-05
3.23155e-05
3.2898e-05
3.34379e-05
3.42189e-05
3.52276e-05
3.62635e-05
3.70907e-05
3.7544e-05
3.75764e-05
3.70859e-05
3.66385e-05
3.56051e-05
3.48987e-05
3.4909e-05
3.54962e-05
3.59275e-05
3.66038e-05
3.72593e-05
3.80378e-05
3.87032e-05
3.92982e-05
3.97603e-05
4.01352e-05
4.04223e-05
4.06386e-05
4.07874e-05
4.08773e-05
4.09273e-05
4.0949e-05
4.09519e-05
4.09383e-05
4.09093e-05
4.08654e-05
4.08131e-05
4.07199e-05
4.0657e-05
4.05685e-05
4.04104e-05
4.0268e-05
4.0086e-05
3.98902e-05
3.96682e-05
3.94192e-05
3.91387e-05
3.88275e-05
3.84804e-05
3.80929e-05
3.76555e-05
3.7291e-05
3.70579e-05
3.70184e-05
3.7338e-05
3.80005e-05
3.8866e-05
4.0049e-05
4.13273e-05
4.26816e-05
4.393e-05
4.45898e-05
4.46734e-05
4.45711e-05
4.43685e-05
4.2953e-05
4.08104e-05
3.81285e-05
3.51224e-05
3.19676e-05
2.87049e-05
2.51006e-05
2.10221e-05
1.66137e-05
1.11797e-05
4.12818e-06
4.82405e-08
1.34326e-07
7.75772e-06
1.98334e-05
2.8018e-05
3.26701e-05
3.49646e-05
3.59311e-05
3.64065e-05
3.69339e-05
3.76945e-05
3.85799e-05
3.93576e-05
3.98207e-05
3.96928e-05
3.92324e-05
3.875e-05
3.74721e-05
3.70105e-05
3.71117e-05
3.72221e-05
3.75401e-05
3.80124e-05
3.8572e-05
3.90785e-05
3.95705e-05
3.99289e-05
4.02122e-05
4.03995e-05
4.05367e-05
4.06265e-05
4.06916e-05
4.07397e-05
4.07834e-05
4.08302e-05
4.08807e-05
4.09338e-05
4.09866e-05
4.10345e-05
4.10693e-05
4.10841e-05
4.10882e-05
4.10849e-05
4.10305e-05
4.09569e-05
4.08608e-05
4.07248e-05
4.0557e-05
4.03492e-05
4.01036e-05
3.98159e-05
3.94821e-05
3.90957e-05
3.86493e-05
3.81385e-05
3.75597e-05
3.69072e-05
3.61772e-05
3.53867e-05
3.48401e-05
3.49531e-05
3.57553e-05
3.6858e-05
3.83649e-05
3.99603e-05
4.15616e-05
4.24669e-05
4.26213e-05
4.27677e-05
4.26722e-05
4.09938e-05
3.84864e-05
3.5397e-05
3.20249e-05
2.86157e-05
2.51492e-05
2.12655e-05
1.66989e-05
1.09475e-05
3.84664e-06
4.41233e-08
1.80608e-07
9.81026e-06
2.34146e-05
3.20119e-05
3.65797e-05
3.8618e-05
3.93561e-05
3.97001e-05
4.0141e-05
4.07623e-05
4.13951e-05
4.18111e-05
4.15722e-05
4.10464e-05
4.048e-05
3.94329e-05
3.89219e-05
3.87313e-05
3.85523e-05
3.87556e-05
3.90551e-05
3.94258e-05
3.97818e-05
4.00633e-05
4.02898e-05
4.04257e-05
4.05286e-05
4.05993e-05
4.06754e-05
4.076e-05
4.08689e-05
4.1001e-05
4.11572e-05
4.13307e-05
4.15137e-05
4.16941e-05
4.18669e-05
4.20417e-05
4.21487e-05
4.22169e-05
4.23253e-05
4.23353e-05
4.2328e-05
4.22755e-05
4.21876e-05
4.20595e-05
4.18974e-05
4.17011e-05
4.14693e-05
4.12006e-05
4.08913e-05
4.05344e-05
4.01179e-05
3.96211e-05
3.90344e-05
3.83433e-05
3.75246e-05
3.65738e-05
3.55365e-05
3.44581e-05
3.34077e-05
3.34648e-05
3.45213e-05
3.59639e-05
3.78455e-05
3.97239e-05
4.0876e-05
4.11243e-05
4.13584e-05
4.12819e-05
3.92825e-05
3.63447e-05
3.27786e-05
2.89643e-05
2.51921e-05
2.12874e-05
1.66886e-05
1.06972e-05
3.57407e-06
4.06906e-08
2.36345e-07
1.18989e-05
2.6932e-05
3.58709e-05
4.03031e-05
4.20631e-05
4.2555e-05
4.27186e-05
4.29801e-05
4.33464e-05
4.36213e-05
4.32876e-05
4.26659e-05
4.2022e-05
4.11346e-05
4.05184e-05
3.99664e-05
3.97228e-05
3.96604e-05
3.98351e-05
4.00248e-05
4.02293e-05
4.0385e-05
4.04906e-05
4.0571e-05
4.06343e-05
4.07249e-05
4.0847e-05
4.10203e-05
4.12381e-05
4.14996e-05
4.1791e-05
4.21017e-05
4.24144e-05
4.2749e-05
4.30622e-05
4.32616e-05
4.34679e-05
4.37066e-05
4.38303e-05
4.39471e-05
4.39904e-05
4.40005e-05
4.39562e-05
4.38668e-05
4.37287e-05
4.35451e-05
4.33156e-05
4.3042e-05
4.27259e-05
4.23696e-05
4.19754e-05
4.15456e-05
4.10821e-05
4.05787e-05
3.99896e-05
3.92831e-05
3.84012e-05
3.73358e-05
3.60836e-05
3.47149e-05
3.33862e-05
3.21758e-05
3.2629e-05
3.41028e-05
3.60863e-05
3.81888e-05
3.96011e-05
3.99403e-05
4.01505e-05
3.99599e-05
3.75861e-05
3.41722e-05
3.00921e-05
2.57794e-05
2.15112e-05
1.67213e-05
1.06967e-05
3.50365e-06
3.94012e-08
3.04056e-07
1.38272e-05
3.02943e-05
3.95372e-05
4.38045e-05
4.52687e-05
4.5483e-05
4.53998e-05
4.53857e-05
4.53962e-05
4.49482e-05
4.42109e-05
4.35108e-05
4.27021e-05
4.19731e-05
4.10992e-05
4.06618e-05
4.04533e-05
4.04067e-05
4.048e-05
4.05379e-05
4.06012e-05
4.06419e-05
4.06922e-05
4.07777e-05
4.0916e-05
4.1128e-05
4.14069e-05
4.17504e-05
4.21401e-05
4.25622e-05
4.29971e-05
4.34676e-05
4.39195e-05
4.42932e-05
4.46075e-05
4.49156e-05
4.52531e-05
4.54804e-05
4.56686e-05
4.58075e-05
4.58882e-05
4.59191e-05
4.58924e-05
4.58116e-05
4.56749e-05
4.54837e-05
4.52385e-05
4.49406e-05
4.45913e-05
4.4192e-05
4.37438e-05
4.32474e-05
4.27036e-05
4.21135e-05
4.14793e-05
4.08032e-05
4.007e-05
3.91855e-05
3.80781e-05
3.67059e-05
3.51614e-05
3.35053e-05
3.20122e-05
3.12756e-05
3.26314e-05
3.45363e-05
3.6894e-05
3.84889e-05
3.88838e-05
3.89963e-05
3.85155e-05
3.57028e-05
3.17791e-05
2.71677e-05
2.22877e-05
1.71593e-05
1.09659e-05
3.64861e-06
4.07414e-08
3.79149e-07
1.57358e-05
3.34904e-05
4.29772e-05
4.70546e-05
4.82023e-05
4.80963e-05
4.7693e-05
4.73131e-05
4.66791e-05
4.57881e-05
4.50454e-05
4.41987e-05
4.33326e-05
4.22385e-05
4.15143e-05
4.11304e-05
4.09156e-05
4.0823e-05
4.07914e-05
4.07639e-05
4.07742e-05
4.08218e-05
4.09445e-05
4.11543e-05
4.14565e-05
4.1846e-05
4.23033e-05
4.28115e-05
4.33478e-05
4.39146e-05
4.45008e-05
4.50499e-05
4.55157e-05
4.59861e-05
4.63835e-05
4.67638e-05
4.7154e-05
4.74307e-05
4.76742e-05
4.78558e-05
4.79797e-05
4.80436e-05
4.80444e-05
4.79822e-05
4.78557e-05
4.76651e-05
4.74111e-05
4.70949e-05
4.67181e-05
4.62826e-05
4.57901e-05
4.52416e-05
4.46369e-05
4.39752e-05
4.32549e-05
4.24753e-05
4.16397e-05
4.07563e-05
3.98088e-05
3.86572e-05
3.72403e-05
3.55436e-05
3.36867e-05
3.18828e-05
3.04748e-05
3.13215e-05
3.32358e-05
3.57524e-05
3.744e-05
3.78204e-05
3.77837e-05
3.67792e-05
3.34549e-05
2.9025e-05
2.38065e-05
1.82078e-05
1.17904e-05
4.11234e-06
4.65776e-08
4.59477e-07
1.75874e-05
3.64773e-05
4.61582e-05
5.00273e-05
5.08362e-05
5.03625e-05
4.95663e-05
4.8627e-05
4.75111e-05
4.67155e-05
4.56695e-05
4.46685e-05
4.33942e-05
4.23997e-05
4.17673e-05
4.13902e-05
4.11457e-05
4.10032e-05
4.09209e-05
4.08946e-05
4.09582e-05
4.11193e-05
4.13985e-05
4.17875e-05
4.22736e-05
4.28352e-05
4.34479e-05
4.40917e-05
4.4754e-05
4.5436e-05
4.60902e-05
4.66885e-05
4.72484e-05
4.77978e-05
4.83e-05
4.87393e-05
4.91455e-05
4.95365e-05
4.98315e-05
5.00723e-05
5.02475e-05
5.03545e-05
5.03903e-05
5.03526e-05
5.02399e-05
5.00517e-05
4.97882e-05
4.9451e-05
4.90426e-05
4.85663e-05
4.80258e-05
4.74244e-05
4.67644e-05
4.60458e-05
4.52658e-05
4.44187e-05
4.34977e-05
4.24994e-05
4.14316e-05
4.03174e-05
3.90526e-05
3.75743e-05
3.57492e-05
3.37438e-05
3.17199e-05
3.00811e-05
3.0224e-05
3.21253e-05
3.47255e-05
3.63779e-05
3.66248e-05
3.64529e-05
3.45684e-05
3.0791e-05
2.57048e-05
1.98171e-05
1.30744e-05
4.98743e-06
6.07741e-08
5.42431e-07
1.93396e-05
3.92153e-05
4.9055e-05
5.27044e-05
5.3158e-05
5.22788e-05
5.09787e-05
4.95691e-05
4.86367e-05
4.72232e-05
4.60775e-05
4.46158e-05
4.3368e-05
4.2461e-05
4.18727e-05
4.14837e-05
4.12217e-05
4.10728e-05
4.10213e-05
4.10854e-05
4.1285e-05
4.16181e-05
4.2081e-05
4.26487e-05
4.32982e-05
4.40032e-05
4.47418e-05
4.54968e-05
4.62542e-05
4.70003e-05
4.77187e-05
4.84191e-05
4.90816e-05
4.97073e-05
5.02968e-05
5.0841e-05
5.12981e-05
5.17375e-05
5.21466e-05
5.24442e-05
5.26821e-05
5.28399e-05
5.29171e-05
5.29093e-05
5.2814e-05
5.26296e-05
5.23559e-05
5.19942e-05
5.15475e-05
5.10202e-05
5.04184e-05
4.97488e-05
4.90181e-05
4.82313e-05
4.73902e-05
4.64912e-05
4.55241e-05
4.44725e-05
4.33192e-05
4.20575e-05
4.07112e-05
3.91999e-05
3.75932e-05
3.5752e-05
3.36261e-05
3.14819e-05
2.95862e-05
2.92957e-05
3.1138e-05
3.38044e-05
3.52505e-05
3.52486e-05
3.48744e-05
3.20195e-05
2.74373e-05
2.16154e-05
1.46493e-05
6.00735e-06
8.3805e-08
6.25689e-07
2.09533e-05
4.16798e-05
5.16573e-05
5.50765e-05
5.51782e-05
5.37936e-05
5.21428e-05
5.08612e-05
4.90461e-05
4.76468e-05
4.59801e-05
4.44706e-05
4.32762e-05
4.24326e-05
4.18646e-05
4.14781e-05
4.12404e-05
4.11498e-05
4.12052e-05
4.14211e-05
4.17954e-05
4.23103e-05
4.29434e-05
4.36634e-05
4.4445e-05
4.52646e-05
4.61045e-05
4.69509e-05
4.77923e-05
4.86196e-05
4.94259e-05
5.02097e-05
5.09704e-05
5.17157e-05
5.23972e-05
5.30287e-05
5.35809e-05
5.407e-05
5.45782e-05
5.49595e-05
5.52607e-05
5.54776e-05
5.5602e-05
5.56304e-05
5.55583e-05
5.5383e-05
5.51033e-05
5.47193e-05
5.42336e-05
5.36509e-05
5.29781e-05
5.22246e-05
5.14012e-05
5.05192e-05
4.95886e-05
4.86149e-05
4.75962e-05
4.65195e-05
4.53589e-05
4.40787e-05
4.2646e-05
4.11858e-05
3.93927e-05
3.74067e-05
3.54853e-05
3.3348e-05
3.10963e-05
2.90024e-05
2.84884e-05
3.02605e-05
3.28453e-05
3.41496e-05
3.35706e-05
3.24832e-05
2.86529e-05
2.32058e-05
1.62639e-05
7.05936e-06
1.13623e-07
7.07439e-07
2.23863e-05
4.38738e-05
5.40027e-05
5.71092e-05
5.66797e-05
5.50735e-05
5.33362e-05
5.12381e-05
4.9466e-05
4.75691e-05
4.57769e-05
4.42708e-05
4.31343e-05
4.23372e-05
4.17945e-05
4.14478e-05
4.1288e-05
4.13149e-05
4.15256e-05
4.19167e-05
4.24656e-05
4.3143e-05
4.39184e-05
4.47619e-05
4.56512e-05
4.65677e-05
4.74981e-05
4.84322e-05
4.93622e-05
5.02818e-05
5.11861e-05
5.20705e-05
5.29282e-05
5.37709e-05
5.45817e-05
5.52955e-05
5.59537e-05
5.65177e-05
5.70843e-05
5.75788e-05
5.79408e-05
5.82226e-05
5.83991e-05
5.84702e-05
5.8429e-05
5.82718e-05
5.79955e-05
5.75991e-05
5.70834e-05
5.64518e-05
5.57109e-05
5.48702e-05
5.39425e-05
5.29435e-05
5.18901e-05
5.07983e-05
4.96797e-05
4.85362e-05
4.73544e-05
4.61008e-05
4.47201e-05
4.31453e-05
4.15434e-05
3.95124e-05
3.71087e-05
3.50236e-05
3.28961e-05
3.05245e-05
2.82445e-05
2.78347e-05
2.95099e-05
3.1642e-05
3.24746e-05
3.17413e-05
2.92331e-05
2.4384e-05
1.77071e-05
8.00902e-06
1.4834e-07
7.86069e-07
2.36691e-05
4.57799e-05
5.59169e-05
5.86418e-05
5.80919e-05
5.64651e-05
5.41532e-05
5.16433e-05
4.94694e-05
4.73678e-05
4.5515e-05
4.40402e-05
4.29595e-05
4.22086e-05
4.17175e-05
4.14561e-05
4.14205e-05
4.16013e-05
4.19831e-05
4.25429e-05
4.3246e-05
4.40586e-05
4.49507e-05
4.58974e-05
4.68808e-05
4.78874e-05
4.89075e-05
4.99338e-05
5.09599e-05
5.19802e-05
5.29887e-05
5.39787e-05
5.49424e-05
5.58758e-05
5.67964e-05
5.76257e-05
5.83685e-05
5.90086e-05
5.96333e-05
6.02377e-05
6.06619e-05
6.10089e-05
6.12412e-05
6.13602e-05
6.13576e-05
6.12286e-05
6.09686e-05
6.05746e-05
6.00456e-05
5.93827e-05
5.85901e-05
5.76757e-05
5.66514e-05
5.55339e-05
5.43436e-05
5.31039e-05
5.18381e-05
5.05651e-05
4.92926e-05
4.80094e-05
4.66758e-05
4.52171e-05
4.3526e-05
4.17885e-05
3.93662e-05
3.67328e-05
3.44161e-05
3.2267e-05
2.96967e-05
2.72415e-05
2.72559e-05
2.90513e-05
3.04283e-05
3.04493e-05
2.92949e-05
2.51196e-05
1.8833e-05
8.77881e-06
1.86271e-07
8.58429e-07
2.47594e-05
4.73122e-05
5.73951e-05
5.98872e-05
5.95063e-05
5.72964e-05
5.44507e-05
5.18658e-05
4.93325e-05
4.70936e-05
4.5225e-05
4.37963e-05
4.27734e-05
4.20842e-05
4.16796e-05
4.1542e-05
4.16582e-05
4.20036e-05
4.25481e-05
4.32556e-05
4.40878e-05
4.50127e-05
4.60041e-05
4.70428e-05
4.81155e-05
4.9212e-05
5.03251e-05
5.14483e-05
5.25751e-05
5.36988e-05
5.48115e-05
5.59047e-05
5.6969e-05
5.79949e-05
5.9017e-05
5.99558e-05
6.07681e-05
6.14829e-05
6.21629e-05
6.28662e-05
6.33529e-05
6.37619e-05
6.40508e-05
6.42205e-05
6.42625e-05
6.41709e-05
6.39399e-05
6.35649e-05
6.30425e-05
6.23713e-05
6.15525e-05
6.05907e-05
5.94947e-05
5.82788e-05
5.6963e-05
5.5573e-05
5.41388e-05
5.2692e-05
5.12597e-05
4.98569e-05
4.84759e-05
4.70741e-05
4.55624e-05
4.37983e-05
4.17574e-05
3.89899e-05
3.61603e-05
3.36895e-05
3.14249e-05
2.85e-05
2.60653e-05
2.65399e-05
2.84355e-05
2.94403e-05
2.82951e-05
2.53647e-05
1.95988e-05
9.36179e-06
2.26212e-07
9.21993e-07
2.56323e-05
4.84653e-05
5.85092e-05
6.11197e-05
6.05201e-05
5.79839e-05
5.4838e-05
5.18318e-05
4.91029e-05
4.67814e-05
4.49273e-05
4.35545e-05
4.25991e-05
4.19954e-05
4.17089e-05
4.17182e-05
4.19932e-05
4.24948e-05
4.31822e-05
4.40143e-05
4.49549e-05
4.59762e-05
4.70573e-05
4.81835e-05
4.93447e-05
5.05329e-05
5.17413e-05
5.29627e-05
5.41896e-05
5.54133e-05
5.66243e-05
5.78128e-05
5.89686e-05
6.00818e-05
6.11902e-05
6.22284e-05
6.3102e-05
6.38827e-05
6.46099e-05
6.53968e-05
6.59453e-05
6.64102e-05
6.67537e-05
6.69743e-05
6.7064e-05
6.70162e-05
6.68245e-05
6.64829e-05
6.59862e-05
6.53305e-05
6.45136e-05
6.35364e-05
6.24032e-05
6.11237e-05
5.9714e-05
5.81976e-05
5.66058e-05
5.49759e-05
5.33479e-05
5.17577e-05
5.02268e-05
4.8749e-05
4.72749e-05
4.56946e-05
4.38195e-05
4.13919e-05
3.83807e-05
3.54095e-05
3.28433e-05
3.03467e-05
2.7169e-05
2.51718e-05
2.58851e-05
2.7053e-05
2.71635e-05
2.52904e-05
2.00083e-05
9.7345e-06
2.67838e-07
9.75397e-07
2.62953e-05
4.92925e-05
5.93849e-05
6.2034e-05
6.12453e-05
5.82828e-05
5.49525e-05
5.16927e-05
4.88173e-05
4.64548e-05
4.4636e-05
4.3329e-05
4.24563e-05
4.19622e-05
4.18141e-05
4.19765e-05
4.24024e-05
4.30424e-05
4.38512e-05
4.47887e-05
4.58232e-05
4.69316e-05
4.80974e-05
4.93096e-05
5.05594e-05
5.18393e-05
5.31416e-05
5.44579e-05
5.57788e-05
5.7094e-05
5.83932e-05
5.96656e-05
6.09012e-05
6.20904e-05
6.3259e-05
6.43722e-05
6.53266e-05
6.61617e-05
6.69334e-05
6.77685e-05
6.83824e-05
6.88953e-05
6.92889e-05
6.9558e-05
6.96954e-05
6.96945e-05
6.95485e-05
6.92508e-05
6.87949e-05
6.81749e-05
6.73859e-05
6.64246e-05
6.52908e-05
6.39885e-05
6.25276e-05
6.09261e-05
5.92112e-05
5.74203e-05
5.55991e-05
5.37977e-05
5.20612e-05
5.04181e-05
4.8864e-05
4.73444e-05
4.57334e-05
4.3629e-05
4.06861e-05
3.75365e-05
3.44947e-05
3.18125e-05
2.8915e-05
2.544e-05
2.44463e-05
2.5477e-05
2.61761e-05
2.46604e-05
2.00647e-05
9.9004e-06
3.10935e-07
1.01789e-06
2.67504e-05
4.98479e-05
5.99772e-05
6.27193e-05
6.1772e-05
5.86606e-05
5.49611e-05
5.14829e-05
4.85024e-05
4.61299e-05
4.43617e-05
4.31316e-05
4.23583e-05
4.19911e-05
4.19887e-05
4.22977e-05
4.28585e-05
4.36176e-05
4.45298e-05
4.55587e-05
4.66775e-05
4.78675e-05
4.91155e-05
5.04119e-05
5.17485e-05
5.31168e-05
5.45075e-05
5.59106e-05
5.73152e-05
5.87101e-05
6.00843e-05
6.14273e-05
6.27292e-05
6.3981e-05
6.51908e-05
6.63665e-05
6.73975e-05
6.82722e-05
6.90802e-05
6.99438e-05
7.06222e-05
7.11759e-05
7.16134e-05
7.19265e-05
7.21089e-05
7.21545e-05
7.20566e-05
7.18086e-05
7.14034e-05
7.08339e-05
7.00929e-05
6.91742e-05
6.8073e-05
6.67875e-05
6.53206e-05
6.36824e-05
6.18927e-05
5.99832e-05
5.79983e-05
5.59934e-05
5.4029e-05
5.21588e-05
5.04138e-05
4.8784e-05
4.7203e-05
4.55384e-05
4.30658e-05
3.97173e-05
3.65302e-05
3.33521e-05
3.05237e-05
2.69837e-05
2.37912e-05
2.35416e-05
2.38986e-05
2.36166e-05
1.99386e-05
1.00346e-05
3.57866e-07
1.04936e-06
2.70156e-05
5.0161e-05
6.03158e-05
6.32287e-05
6.2021e-05
5.87795e-05
5.48745e-05
5.12275e-05
4.81767e-05
4.58174e-05
4.41119e-05
4.29701e-05
4.23099e-05
4.20782e-05
4.22177e-05
4.26595e-05
4.33376e-05
4.41986e-05
4.52003e-05
4.63108e-05
4.75077e-05
4.87754e-05
5.01026e-05
5.148e-05
5.28986e-05
5.43482e-05
5.5818e-05
5.72965e-05
5.87717e-05
6.02323e-05
6.16672e-05
6.30663e-05
6.44204e-05
6.57206e-05
6.69591e-05
6.81831e-05
6.92869e-05
7.01914e-05
7.10241e-05
7.19027e-05
7.26401e-05
7.32283e-05
7.37027e-05
7.40538e-05
7.42766e-05
7.43654e-05
7.43144e-05
7.41173e-05
7.37672e-05
7.32566e-05
7.25772e-05
7.17205e-05
7.06782e-05
6.94432e-05
6.80117e-05
6.63852e-05
6.45738e-05
6.25999e-05
6.05005e-05
5.83292e-05
5.61537e-05
5.40467e-05
5.20703e-05
5.02528e-05
4.85616e-05
4.68782e-05
4.49799e-05
4.20154e-05
3.86371e-05
3.52533e-05
3.18743e-05
2.8745e-05
2.46755e-05
2.27527e-05
2.28037e-05
2.28644e-05
1.98113e-05
1.03734e-05
4.17657e-07
1.0703e-06
2.71151e-05
5.02199e-05
6.03679e-05
6.33991e-05
6.22923e-05
5.88056e-05
5.47221e-05
5.09463e-05
4.78535e-05
4.55245e-05
4.38917e-05
4.2848e-05
4.23094e-05
4.22126e-05
4.24834e-05
4.30419e-05
4.38211e-05
4.47703e-05
4.58511e-05
4.70361e-05
4.8306e-05
4.96473e-05
5.10493e-05
5.25019e-05
5.39944e-05
5.55153e-05
5.70521e-05
5.85925e-05
6.01243e-05
6.16361e-05
6.31174e-05
6.45586e-05
6.59508e-05
6.72853e-05
6.85534e-05
6.98045e-05
7.09757e-05
7.19097e-05
7.27552e-05
7.36369e-05
7.4427e-05
7.50442e-05
7.55485e-05
7.59313e-05
7.61884e-05
7.63151e-05
7.63067e-05
7.61579e-05
7.58626e-05
7.54136e-05
7.48024e-05
7.40193e-05
7.30537e-05
7.18945e-05
7.05319e-05
6.89595e-05
6.7177e-05
6.51949e-05
6.30388e-05
6.07532e-05
5.84035e-05
5.60721e-05
5.38467e-05
5.18003e-05
4.99634e-05
4.82963e-05
4.66648e-05
4.41443e-05
4.06718e-05
3.73356e-05
3.375e-05
3.00968e-05
2.62986e-05
2.24148e-05
2.15127e-05
2.13386e-05
1.95254e-05
1.09989e-05
4.98443e-07
1.08083e-06
2.70449e-05
5.00209e-05
6.02976e-05
6.3532e-05
6.23231e-05
5.87389e-05
5.45236e-05
5.06542e-05
4.75418e-05
4.52556e-05
4.37032e-05
4.27646e-05
4.23498e-05
4.23812e-05
4.27692e-05
4.34291e-05
4.42957e-05
4.53221e-05
4.64741e-05
4.77275e-05
4.90654e-05
5.04751e-05
5.19453e-05
5.34646e-05
5.50208e-05
5.66008e-05
5.81913e-05
5.97798e-05
6.13541e-05
6.29037e-05
6.44189e-05
6.58908e-05
6.73116e-05
6.86735e-05
6.99695e-05
7.1223e-05
7.24292e-05
7.34345e-05
7.42751e-05
7.51494e-05
7.59859e-05
7.66279e-05
7.71557e-05
7.75638e-05
7.78486e-05
7.80068e-05
7.80349e-05
7.79289e-05
7.76842e-05
7.72944e-05
7.67519e-05
7.60468e-05
7.51673e-05
7.41e-05
7.28304e-05
7.13451e-05
6.96345e-05
6.76967e-05
6.55433e-05
6.3205e-05
6.07364e-05
5.82176e-05
5.5747e-05
5.34237e-05
5.13175e-05
4.9433e-05
4.76752e-05
4.58218e-05
4.27156e-05
3.91652e-05
3.56178e-05
3.18523e-05
2.79484e-05
2.33146e-05
2.10319e-05
1.98402e-05
1.90156e-05
1.16845e-05
6.00189e-07
1.08024e-06
2.68739e-05
4.97648e-05
6.0076e-05
6.3528e-05
6.22504e-05
5.86012e-05
5.42951e-05
5.03623e-05
4.72476e-05
4.50132e-05
4.35466e-05
4.27162e-05
4.24222e-05
4.25708e-05
4.30619e-05
4.38094e-05
4.47521e-05
4.5847e-05
4.70631e-05
4.8379e-05
4.9779e-05
5.12502e-05
5.27801e-05
5.43559e-05
5.59639e-05
5.759e-05
5.92209e-05
6.08442e-05
6.24486e-05
6.40245e-05
6.55633e-05
6.70575e-05
6.84998e-05
6.98837e-05
7.12026e-05
7.24507e-05
7.36827e-05
7.47618e-05
7.55926e-05
7.64516e-05
7.73284e-05
7.7992e-05
7.85383e-05
7.89656e-05
7.92717e-05
7.94545e-05
7.95118e-05
7.94415e-05
7.92404e-05
7.8904e-05
7.84258e-05
7.7797e-05
7.70057e-05
7.60374e-05
7.48749e-05
7.34995e-05
7.18936e-05
7.0044e-05
6.79477e-05
6.56187e-05
6.30961e-05
6.04494e-05
5.77794e-05
5.52063e-05
5.28449e-05
5.07663e-05
4.89575e-05
4.72921e-05
4.46909e-05
4.09933e-05
3.75972e-05
3.34435e-05
2.92624e-05
2.48319e-05
2.09094e-05
1.9329e-05
1.85973e-05
1.23033e-05
7.18774e-07
1.07459e-06
2.66049e-05
4.93402e-05
5.96597e-05
6.33094e-05
6.20743e-05
5.84076e-05
5.40492e-05
5.00787e-05
4.6975e-05
4.47981e-05
4.342e-05
4.26972e-05
4.25169e-05
4.27705e-05
4.33511e-05
4.41747e-05
4.5184e-05
4.63394e-05
4.76131e-05
4.89851e-05
5.044e-05
5.19643e-05
5.3544e-05
5.51649e-05
5.68123e-05
5.84719e-05
6.01307e-05
6.17769e-05
6.34007e-05
6.49935e-05
6.6548e-05
6.80575e-05
6.95154e-05
7.0915e-05
7.22488e-05
7.35081e-05
7.47532e-05
7.58926e-05
7.67225e-05
7.75608e-05
7.84709e-05
7.91544e-05
7.97152e-05
8.01568e-05
8.04782e-05
8.06788e-05
8.0758e-05
8.07153e-05
8.05496e-05
8.02582e-05
7.98366e-05
7.92777e-05
7.85708e-05
7.77014e-05
7.66511e-05
7.53982e-05
7.39187e-05
7.21901e-05
7.01957e-05
6.79321e-05
6.54187e-05
6.27067e-05
5.98858e-05
5.70797e-05
5.44267e-05
5.20407e-05
4.99604e-05
4.81006e-05
4.61939e-05
4.28605e-05
3.92294e-05
3.54287e-05
3.0985e-05
2.63385e-05
2.11018e-05
1.88184e-05
1.76161e-05
1.29499e-05
8.4241e-07
1.06201e-06
2.62783e-05
4.86533e-05
5.91348e-05
6.29559e-05
6.18101e-05
5.81705e-05
5.37954e-05
4.98095e-05
4.67267e-05
4.46103e-05
4.33205e-05
4.27014e-05
4.26254e-05
4.29715e-05
4.36296e-05
4.45191e-05
4.55864e-05
4.67952e-05
4.81195e-05
4.95404e-05
5.10421e-05
5.26099e-05
5.42288e-05
5.58831e-05
5.7558e-05
5.92393e-05
6.09147e-05
6.25739e-05
6.42083e-05
6.58108e-05
6.73749e-05
6.88949e-05
7.03645e-05
7.1777e-05
7.31247e-05
7.43988e-05
7.56457e-05
7.6832e-05
7.76852e-05
7.84991e-05
7.94314e-05
8.01345e-05
8.07073e-05
8.11591e-05
8.14909e-05
8.17033e-05
8.17973e-05
8.17743e-05
8.16351e-05
8.13793e-05
8.10048e-05
8.05066e-05
7.98759e-05
7.90996e-05
7.81596e-05
7.70327e-05
7.56911e-05
7.4105e-05
7.22461e-05
7.00949e-05
6.765e-05
6.49406e-05
6.20379e-05
5.90602e-05
5.61626e-05
5.35052e-05
5.12e-05
4.92526e-05
4.7513e-05
4.4585e-05
4.07478e-05
3.74122e-05
3.24311e-05
2.76171e-05
2.23713e-05
1.86565e-05
1.64563e-05
1.34533e-05
9.42986e-07
1.04232e-06
2.58574e-05
4.79002e-05
5.85141e-05
6.24868e-05
6.14714e-05
5.79003e-05
5.35412e-05
4.95591e-05
4.6504e-05
4.44486e-05
4.32447e-05
4.27227e-05
4.27404e-05
4.31671e-05
4.38921e-05
4.48384e-05
4.5956e-05
4.72108e-05
4.85785e-05
5.00402e-05
5.15797e-05
5.31811e-05
5.48281e-05
5.65047e-05
5.8196e-05
5.98885e-05
6.15713e-05
6.32353e-05
6.48735e-05
6.64801e-05
6.80498e-05
6.95773e-05
7.10569e-05
7.24821e-05
7.38454e-05
7.51391e-05
7.63809e-05
7.75892e-05
7.8505e-05
7.92995e-05
8.02255e-05
8.09512e-05
8.15349e-05
8.19942e-05
8.23323e-05
8.25514e-05
8.2654e-05
8.26432e-05
8.2522e-05
8.22924e-05
8.19547e-05
8.15065e-05
8.09415e-05
8.02488e-05
7.94117e-05
7.84073e-05
7.72061e-05
7.57734e-05
7.40721e-05
7.20684e-05
6.97411e-05
6.70947e-05
6.41747e-05
6.10802e-05
5.7964e-05
5.50092e-05
5.23778e-05
5.01447e-05
4.82513e-05
4.6016e-05
4.21751e-05
3.89691e-05
3.43798e-05
2.91699e-05
2.37674e-05
1.9127e-05
1.57779e-05
1.3656e-05
9.89601e-07
1.01667e-06
2.53319e-05
4.70355e-05
5.77958e-05
6.19231e-05
6.1071e-05
5.76054e-05
5.32922e-05
4.93304e-05
4.63079e-05
4.43118e-05
4.31888e-05
4.27557e-05
4.28563e-05
4.33525e-05
4.41347e-05
4.51295e-05
4.62897e-05
4.75832e-05
4.89864e-05
5.04806e-05
5.20485e-05
5.36733e-05
5.53381e-05
5.70266e-05
5.87245e-05
6.04194e-05
6.21018e-05
6.37643e-05
6.54013e-05
6.70081e-05
6.85806e-05
7.0114e-05
7.16029e-05
7.30408e-05
7.442e-05
7.57323e-05
7.69693e-05
7.81955e-05
7.91795e-05
7.99666e-05
8.08714e-05
8.16214e-05
8.22158e-05
8.26807e-05
8.30222e-05
8.3244e-05
8.335e-05
8.33452e-05
8.32345e-05
8.30223e-05
8.27115e-05
8.23023e-05
8.17914e-05
8.11708e-05
8.0426e-05
7.95356e-05
7.84704e-05
7.71932e-05
7.56609e-05
7.38286e-05
7.16573e-05
6.91276e-05
6.62565e-05
6.3117e-05
5.98488e-05
5.66485e-05
5.37231e-05
5.12119e-05
4.91016e-05
4.71841e-05
4.38088e-05
4.03326e-05
3.64115e-05
3.0448e-05
2.4887e-05
1.90931e-05
1.59075e-05
1.36453e-05
9.97732e-07
9.8651e-07
2.47723e-05
4.60842e-05
5.69881e-05
6.12807e-05
6.06198e-05
5.72928e-05
5.30526e-05
4.91257e-05
4.61385e-05
4.41981e-05
4.31493e-05
4.27959e-05
4.29685e-05
4.35241e-05
4.43547e-05
4.539e-05
4.65853e-05
4.79099e-05
4.93407e-05
5.08585e-05
5.24456e-05
5.40842e-05
5.5757e-05
5.74483e-05
5.91444e-05
6.08344e-05
6.25104e-05
6.41664e-05
6.57984e-05
6.74029e-05
6.89766e-05
7.0515e-05
7.20128e-05
7.34628e-05
7.48566e-05
7.6184e-05
7.7433e-05
7.86699e-05
7.972e-05
8.05062e-05
8.13882e-05
8.21594e-05
8.27643e-05
8.32339e-05
8.35769e-05
8.37984e-05
8.3904e-05
8.39e-05
8.37936e-05
8.35912e-05
8.32982e-05
8.29179e-05
8.245e-05
8.18892e-05
8.12245e-05
8.04368e-05
7.94985e-05
7.83722e-05
7.70114e-05
7.53633e-05
7.33745e-05
7.10034e-05
6.82375e-05
6.51172e-05
6.17564e-05
5.83473e-05
5.51298e-05