/*--------------------------------*- C++ -*----------------------------------*\
  =========                 |
  \\      /  F ield         | OpenFOAM: The Open Source CFD Toolbox
   \\    /   O peration     | Website:  https://openfoam.org
    \\  /    A nd           | Version:  13
     \\/     M anipulation  |
\*---------------------------------------------------------------------------*/
FoamFile
{
    format      ascii;
    class       volVectorField;
    location    "9.4";
    object      U;
}
// * * * * * * * * * * * * * * * * * * * * * * * * * * * * * * * * * * * * * //

dimensions      [0 1 -1 0 0 0 0];

internalField   nonuniform List<vector> 
6400
(
(-0.000129038 8.47642e-05 0)
(0.000453408 -0.000177455 0)
(0.00213446 -0.000445274 0)
(0.00435083 -0.000563396 0)
(0.00655147 -0.000495807 0)
(0.00838181 -0.000329324 0)
(0.00959378 -0.000129788 0)
(0.0101941 1.9224e-05 0)
(0.0103114 7.37416e-05 0)
(0.0101958 5.15316e-05 0)
(0.00996884 -2.89679e-05 0)
(0.00980654 -0.000138125 0)
(0.00977127 -0.000251371 0)
(0.00986239 -0.000342684 0)
(0.0100304 -0.000416125 0)
(0.010195 -0.000469716 0)
(0.0102806 -0.000503292 0)
(0.0102335 -0.000505064 0)
(0.0100107 -0.000484917 0)
(0.00951604 -0.000442734 0)
(0.00871152 -0.000392688 0)
(0.0075378 -0.000342139 0)
(0.00595234 -0.000295103 0)
(0.00392698 -0.00027803 0)
(0.00142645 -0.000329253 0)
(-0.00151757 -0.000447582 0)
(-0.00495027 -0.000484046 0)
(-0.00909913 -0.000280732 0)
(-0.0140715 0.000275348 0)
(-0.0199269 0.00117918 0)
(-0.02737 0.00223541 0)
(-0.0356224 0.00312299 0)
(-0.0445325 0.00382994 0)
(-0.0537857 0.00434601 0)
(-0.063122 0.0046796 0)
(-0.0723063 0.00484746 0)
(-0.0811537 0.00487558 0)
(-0.0895108 0.00478799 0)
(-0.0972633 0.00460752 0)
(-0.104314 0.00435198 0)
(-0.11059 0.00403313 0)
(-0.11603 0.00365923 0)
(-0.120593 0.00323223 0)
(-0.124257 0.00275643 0)
(-0.127002 0.00224734 0)
(-0.128585 0.00177985 0)
(-0.129218 0.00135295 0)
(-0.128982 0.000604795 0)
(-0.127354 6.2019e-05 0)
(-0.124804 -0.000633597 0)
(-0.12097 -0.00126562 0)
(-0.116061 -0.00193179 0)
(-0.109944 -0.00256267 0)
(-0.102734 -0.00318279 0)
(-0.0944684 -0.00378719 0)
(-0.0852241 -0.00436328 0)
(-0.0750367 -0.00486224 0)
(-0.0640983 -0.005284 0)
(-0.0525616 -0.0055932 0)
(-0.040645 -0.00575991 0)
(-0.0285894 -0.00574631 0)
(-0.0166789 -0.00554258 0)
(-0.00513403 -0.00514624 0)
(0.00556046 -0.0046392 0)
(0.0150888 -0.00386182 0)
(0.0232804 -0.00291976 0)
(0.0298029 -0.00185549 0)
(0.0343812 -0.000705325 0)
(0.0370398 0.000452011 0)
(0.0371754 0.00164038 0)
(0.0356475 0.00230744 0)
(0.0319832 0.00287901 0)
(0.0266267 0.00305755 0)
(0.0204725 0.00274206 0)
(0.0142896 0.00203193 0)
(0.00886268 0.00118892 0)
(0.00462314 0.000509497 0)
(0.0017169 0.000110926 0)
(0.000118322 -0.000174434 0)
(-0.0002409 -0.000346928 0)
(1.55131e-05 -0.000389942 0)
(0.00185054 -0.00214649 0)
(0.005337 -0.00360695 0)
(0.00921564 -0.00409351 0)
(0.0127817 -0.00369507 0)
(0.0156161 -0.00280299 0)
(0.0175413 -0.00171827 0)
(0.0185875 -0.000733918 0)
(0.0188798 -3.6835e-05 0)
(0.018584 0.000343155 0)
(0.0179006 0.000448214 0)
(0.0170018 0.00036231 0)
(0.0159754 0.000209129 0)
(0.0148135 0.000103274 0)
(0.0134436 0.000109176 0)
(0.0117618 0.000240341 0)
(0.00968027 0.000475746 0)
(0.00712917 0.000801519 0)
(0.00399334 0.00123361 0)
(0.000164606 0.00178207 0)
(-0.00446785 0.00245109 0)
(-0.0101427 0.00325975 0)
(-0.0169425 0.00417076 0)
(-0.0249354 0.00517605 0)
(-0.0341667 0.00629332 0)
(-0.0447419 0.00752785 0)
(-0.0565355 0.00890603 0)
(-0.0691884 0.0104253 0)
(-0.0823059 0.0120165 0)
(-0.095346 0.013496 0)
(-0.107815 0.0145724 0)
(-0.119901 0.0152215 0)
(-0.131317 0.0154536 0)
(-0.141988 0.0153006 0)
(-0.151817 0.014834 0)
(-0.160741 0.0141066 0)
(-0.168721 0.0131757 0)
(-0.175725 0.0120858 0)
(-0.181742 0.0108752 0)
(-0.186756 0.00957181 0)
(-0.190755 0.00819265 0)
(-0.193741 0.00675387 0)
(-0.195701 0.00526224 0)
(-0.196638 0.00372832 0)
(-0.196539 0.00216142 0)
(-0.19537 0.000575728 0)
(-0.193147 -0.00105278 0)
(-0.18986 -0.00277502 0)
(-0.185455 -0.00452132 0)
(-0.179994 -0.0063062 0)
(-0.173407 -0.00810347 0)
(-0.165733 -0.00989994 0)
(-0.15694 -0.0116714 0)
(-0.147062 -0.0133877 0)
(-0.136103 -0.0150145 0)
(-0.124159 -0.0165019 0)
(-0.111335 -0.0178153 0)
(-0.0977316 -0.0188901 0)
(-0.0835355 -0.0196611 0)
(-0.068958 -0.0200772 0)
(-0.0542135 -0.0200719 0)
(-0.0395603 -0.0196077 0)
(-0.0252793 -0.0186625 0)
(-0.0116885 -0.017261 0)
(0.000932374 -0.0153311 0)
(0.0123265 -0.0129423 0)
(0.0222199 -0.010143 0)
(0.030373 -0.00702875 0)
(0.0366181 -0.00368273 0)
(0.0407835 -0.000291831 0)
(0.042852 0.00290313 0)
(0.042702 0.00583109 0)
(0.0404213 0.00822402 0)
(0.0362626 0.00967799 0)
(0.0302024 0.00988028 0)
(0.0228082 0.00890838 0)
(0.0150851 0.00704832 0)
(0.00813097 0.00473576 0)
(0.00301594 0.00227277 0)
(0.000219356 0.000250047 0)
(0.000209043 -0.00166751 0)
(0.00327095 -0.00550408 0)
(0.00761845 -0.00777207 0)
(0.0116673 -0.00803071 0)
(0.0149828 -0.00689765 0)
(0.0173584 -0.00505083 0)
(0.0188248 -0.00307053 0)
(0.0194435 -0.00128659 0)
(0.0192918 0.000117645 0)
(0.0184756 0.00105932 0)
(0.0171415 0.00157166 0)
(0.0153662 0.00180123 0)
(0.0131658 0.00194648 0)
(0.0105015 0.00218458 0)
(0.00728116 0.00262599 0)
(0.00340348 0.00329617 0)
(-0.00126204 0.00418826 0)
(-0.00687646 0.00531308 0)
(-0.0135686 0.00669456 0)
(-0.0214599 0.0083662 0)
(-0.0306335 0.0103308 0)
(-0.0410585 0.012523 0)
(-0.0527075 0.0148584 0)
(-0.0654271 0.0172135 0)
(-0.078954 0.0194592 0)
(-0.092977 0.0215047 0)
(-0.107121 0.0232505 0)
(-0.121065 0.0246341 0)
(-0.134467 0.0255993 0)
(-0.147077 0.0261261 0)
(-0.158738 0.0262068 0)
(-0.169403 0.0258441 0)
(-0.179016 0.0250843 0)
(-0.187641 0.0239655 0)
(-0.195278 0.0225374 0)
(-0.201967 0.0208703 0)
(-0.20773 0.0190127 0)
(-0.212594 0.0170085 0)
(-0.216568 0.0148891 0)
(-0.219668 0.0126899 0)
(-0.221901 0.0104194 0)
(-0.223267 0.00809081 0)
(-0.223765 0.00571075 0)
(-0.223388 0.00327865 0)
(-0.222124 0.000797198 0)
(-0.219952 -0.00173866 0)
(-0.216845 -0.00434337 0)
(-0.212791 -0.00701257 0)
(-0.207763 -0.00971335 0)
(-0.201749 -0.0124627 0)
(-0.194721 -0.0152324 0)
(-0.186674 -0.018007 0)
(-0.177596 -0.0207529 0)
(-0.167497 -0.0234278 0)
(-0.156399 -0.0259723 0)
(-0.14435 -0.0283169 0)
(-0.131434 -0.0303931 0)
(-0.117742 -0.0321041 0)
(-0.103401 -0.0333604 0)
(-0.0886039 -0.0340681 0)
(-0.0735666 -0.0341388 0)
(-0.0585206 -0.0335002 0)
(-0.0437544 -0.0321275 0)
(-0.0295671 -0.0300223 0)
(-0.0162259 -0.0271768 0)
(-0.00396002 -0.0236325 0)
(0.00697998 -0.0194626 0)
(0.0163826 -0.0147858 0)
(0.0241136 -0.0097532 0)
(0.0300575 -0.00454828 0)
(0.0341977 0.000605937 0)
(0.0364907 0.00547277 0)
(0.0367997 0.0097033 0)
(0.035036 0.0130658 0)
(0.0315468 0.015241 0)
(0.0263749 0.0157159 0)
(0.0197382 0.0145735 0)
(0.0125322 0.0119005 0)
(0.00584257 0.0078336 0)
(0.000775443 0.00288096 0)
(0.000437889 -0.00367014 0)
(0.0043615 -0.00971605 0)
(0.00879662 -0.012067 0)
(0.0123398 -0.0115144 0)
(0.0148821 -0.00937168 0)
(0.0164244 -0.00658794 0)
(0.0170711 -0.00374133 0)
(0.0169165 -0.0011765 0)
(0.0160419 0.00090802 0)
(0.0145038 0.00244412 0)
(0.0122998 0.003517 0)
(0.00940616 0.00431942 0)
(0.0057698 0.00508911 0)
(0.00131814 0.00603254 0)
(-0.00402464 0.00727213 0)
(-0.0103627 0.00886073 0)
(-0.0178188 0.0108143 0)
(-0.0265123 0.0131357 0)
(-0.0365205 0.0158126 0)
(-0.0478503 0.0188062 0)
(-0.0604054 0.0220156 0)
(-0.0739735 0.025287 0)
(-0.0882544 0.0284398 0)
(-0.102873 0.0313065 0)
(-0.117528 0.033789 0)
(-0.131872 0.0356987 0)
(-0.14561 0.0369499 0)
(-0.158469 0.037567 0)
(-0.170296 0.0376124 0)
(-0.181059 0.0371386 0)
(-0.190741 0.0362023 0)
(-0.199404 0.0348426 0)
(-0.207091 0.0331026 0)
(-0.213875 0.0310516 0)
(-0.219796 0.0287386 0)
(-0.224916 0.0262181 0)
(-0.229265 0.023532 0)
(-0.232872 0.0207227 0)
(-0.235755 0.017813 0)
(-0.237923 0.0148232 0)
(-0.239379 0.0117645 0)
(-0.240118 0.00864198 0)
(-0.240132 0.00545563 0)
(-0.239403 0.00220402 0)
(-0.237914 -0.00111326 0)
(-0.235637 -0.0045056 0)
(-0.232544 -0.00797744 0)
(-0.228608 -0.0115377 0)
(-0.223797 -0.015169 0)
(-0.218083 -0.0188665 0)
(-0.211436 -0.0226085 0)
(-0.203832 -0.0263719 0)
(-0.19525 -0.0301176 0)
(-0.185675 -0.0337889 0)
(-0.175108 -0.0373048 0)
(-0.163567 -0.0405697 0)
(-0.151104 -0.0434906 0)
(-0.137795 -0.0459502 0)
(-0.12374 -0.0478079 0)
(-0.109081 -0.0489265 0)
(-0.0940135 -0.0491882 0)
(-0.0787507 -0.048484 0)
(-0.0635603 -0.0467479 0)
(-0.0487634 -0.0439569 0)
(-0.0346972 -0.0401839 0)
(-0.0216085 -0.0354851 0)
(-0.00972989 -0.0299508 0)
(0.000723227 -0.0237417 0)
(0.00959891 -0.0170702 0)
(0.0167919 -0.0101738 0)
(0.022257 -0.00329698 0)
(0.0260063 0.00332969 0)
(0.0280915 0.00939689 0)
(0.0284979 0.0144984 0)
(0.0271037 0.0182863 0)
(0.023954 0.0204615 0)
(0.019219 0.0205917 0)
(0.0133121 0.0185419 0)
(0.00691777 0.0141325 0)
(0.00107072 0.00664793 0)
(0.00072783 -0.00624338 0)
(0.00504709 -0.0141558 0)
(0.00893602 -0.0158756 0)
(0.0115901 -0.0141854 0)
(0.0131581 -0.0109391 0)
(0.0137186 -0.00720353 0)
(0.0134215 -0.0035294 0)
(0.0123534 -0.000223691 0)
(0.0105504 0.00256009 0)
(0.00799815 0.00481027 0)
(0.00463104 0.00664664 0)
(0.000358674 0.0082871 0)
(-0.00491386 0.0099807 0)
(-0.0112768 0.0119359 0)
(-0.018814 0.0142849 0)
(-0.0276044 0.0170858 0)
(-0.0377059 0.020343 0)
(-0.0491334 0.0240174 0)
(-0.0618139 0.0280033 0)
(-0.0755602 0.0321469 0)
(-0.0900696 0.0362171 0)
(-0.10498 0.0400142 0)
(-0.119929 0.0433934 0)
(-0.134604 0.0460779 0)
(-0.14862 0.0479474 0)
(-0.161671 0.0490219 0)
(-0.173677 0.0493267 0)
(-0.184588 0.0489252 0)
(-0.194458 0.0479228 0)
(-0.203329 0.0464142 0)
(-0.211267 0.0444826 0)
(-0.218358 0.0421938 0)
(-0.224651 0.0395995 0)
(-0.230205 0.036752 0)
(-0.235069 0.0336944 0)
(-0.239286 0.0304668 0)
(-0.242877 0.0271042 0)
(-0.245868 0.0236358 0)
(-0.248271 0.0200762 0)
(-0.250088 0.0164392 0)
(-0.251316 0.0127282 0)
(-0.251947 0.00894466 0)
(-0.251968 0.00508006 0)
(-0.251359 0.00112908 0)
(-0.250105 -0.00290975 0)
(-0.248171 -0.00705268 0)
(-0.245525 -0.0113058 0)
(-0.242137 -0.0156764 0)
(-0.237969 -0.0201606 0)
(-0.232975 -0.0247449 0)
(-0.227116 -0.0294106 0)
(-0.220354 -0.0341313 0)
(-0.212647 -0.0388618 0)
(-0.203962 -0.043537 0)
(-0.194276 -0.0480615 0)
(-0.183565 -0.0523109 0)
(-0.171858 -0.0561737 0)
(-0.159195 -0.0595009 0)
(-0.145643 -0.0621109 0)
(-0.131312 -0.0638334 0)
(-0.116364 -0.064508 0)
(-0.100987 -0.0639678 0)
(-0.0854352 -0.062109 0)
(-0.0699608 -0.0588728 0)
(-0.054946 -0.0543007 0)
(-0.0407895 -0.0485276 0)
(-0.0277357 -0.0416861 0)
(-0.0160178 -0.0339863 0)
(-0.00583449 -0.0256864 0)
(0.00267599 -0.0170877 0)
(0.00945008 -0.00849774 0)
(0.0145032 -0.000205401 0)
(0.0179042 0.00748754 0)
(0.0197216 0.0142551 0)
(0.0199662 0.019723 0)
(0.0186395 0.0234486 0)
(0.0157514 0.0249884 0)
(0.0115181 0.0240334 0)
(0.00630892 0.019984 0)
(0.000948612 0.0104567 0)
(0.00104695 -0.00921717 0)
(0.00522976 -0.0182157 0)
(0.00813884 -0.0186947 0)
(0.00965647 -0.0158015 0)
(0.0101464 -0.0114547 0)
(0.00966816 -0.0068162 0)
(0.00836652 -0.00234443 0)
(0.00628468 0.00171832 0)
(0.00340369 0.00527816 0)
(-0.000347458 0.00837374 0)
(-0.00507751 0.0111596 0)
(-0.0109038 0.013864 0)
(-0.0179304 0.0167255 0)
(-0.0262391 0.0199352 0)
(-0.035884 0.0236046 0)
(-0.0468769 0.0277554 0)
(-0.0591649 0.0323269 0)
(-0.0726115 0.0372121 0)
(-0.0869777 0.0421739 0)
(-0.101891 0.0469532 0)
(-0.116998 0.0513742 0)
(-0.131942 0.0550854 0)
(-0.146262 0.0578981 0)
(-0.159609 0.0597568 0)
(-0.171851 0.0606279 0)
(-0.183004 0.0606051 0)
(-0.193119 0.0598192 0)
(-0.202268 0.0584001 0)
(-0.21054 0.0564602 0)
(-0.217991 0.054087 0)
(-0.224694 0.0513572 0)
(-0.230704 0.0483256 0)
(-0.236068 0.0450433 0)
(-0.240835 0.041554 0)
(-0.245041 0.037892 0)
(-0.248712 0.0340869 0)
(-0.251864 0.030164 0)
(-0.254511 0.0261505 0)
(-0.256663 0.0220542 0)
(-0.258324 0.0178811 0)
(-0.259492 0.0136304 0)
(-0.260161 0.00929979 0)
(-0.260328 0.00487249 0)
(-0.259977 0.000331616 0)
(-0.259119 -0.00435038 0)
(-0.257708 -0.00916899 0)
(-0.255706 -0.0141308 0)
(-0.253074 -0.0192392 0)
(-0.249773 -0.0244999 0)
(-0.245755 -0.0299032 0)
(-0.240954 -0.0354264 0)
(-0.235305 -0.041036 0)
(-0.228738 -0.0466764 0)
(-0.221196 -0.0522864 0)
(-0.21271 -0.0578254 0)
(-0.203155 -0.0631136 0)
(-0.192503 -0.0680012 0)
(-0.180778 -0.0723212 0)
(-0.167999 -0.0758487 0)
(-0.154224 -0.0783741 0)
(-0.139603 -0.0796942 0)
(-0.124263 -0.0795878 0)
(-0.108463 -0.0779245 0)
(-0.0924501 -0.0745492 0)
(-0.0765265 -0.0694556 0)
(-0.061133 -0.0627735 0)
(-0.0467019 -0.0547512 0)
(-0.0334938 -0.0456272 0)
(-0.0217685 -0.0357143 0)
(-0.0117254 -0.0253867 0)
(-0.00347989 -0.0150352 0)
(0.00295153 -0.0050328 0)
(0.00764059 0.00428354 0)
(0.0107172 0.012591 0)
(0.0122904 0.0195647 0)
(0.0124086 0.0247739 0)
(0.0110777 0.0277412 0)
(0.00839927 0.028003 0)
(0.00471592 0.0246458 0)
(0.000578391 0.0136159 0)
(0.00130108 -0.0123296 0)
(0.00485064 -0.0213795 0)
(0.00643636 -0.0204032 0)
(0.00682699 -0.0162119 0)
(0.00615434 -0.0108699 0)
(0.00460405 -0.00538093 0)
(0.00224151 -0.000110372 0)
(-0.000944203 0.00476702 0)
(-0.00502123 0.00921154 0)
(-0.0100962 0.0132999 0)
(-0.0162917 0.0172027 0)
(-0.0237212 0.0211391 0)
(-0.0324706 0.0253201 0)
(-0.0425835 0.0298969 0)
(-0.054048 0.0349277 0)
(-0.066768 0.0403633 0)
(-0.0805861 0.0460586 0)
(-0.0951908 0.0517593 0)
(-0.110188 0.0572412 0)
(-0.125239 0.0621302 0)
(-0.139867 0.0661493 0)
(-0.153591 0.069099 0)
(-0.166223 0.0709029 0)
(-0.17774 0.0716185 0)
(-0.188208 0.0713901 0)
(-0.197702 0.0703579 0)
(-0.20631 0.0686538 0)
(-0.214118 0.0664006 0)
(-0.221198 0.0636957 0)
(-0.227602 0.0606199 0)
(-0.233381 0.0572388 0)
(-0.238575 0.0536003 0)
(-0.243224 0.0497483 0)
(-0.24736 0.0457187 0)
(-0.251009 0.0415426 0)
(-0.254192 0.0372474 0)
(-0.256921 0.0328586 0)
(-0.259203 0.0283957 0)
(-0.261051 0.0238609 0)
(-0.262466 0.019258 0)
(-0.26348 0.0145243 0)
(-0.26407 0.00973097 0)
(-0.264233 0.00483971 0)
(-0.26396 -0.000161232 0)
(-0.263229 -0.00530321 0)
(-0.26208 -0.0105927 0)
(-0.2605 -0.0160617 0)
(-0.258483 -0.0217383 0)
(-0.256003 -0.0276563 0)
(-0.253034 -0.0337895 0)
(-0.249498 -0.0401101 0)
(-0.245322 -0.0466038 0)
(-0.240418 -0.0532306 0)
(-0.234677 -0.059916 0)
(-0.227894 -0.0665129 0)
(-0.219993 -0.0728693 0)
(-0.210836 -0.0787973 0)
(-0.200489 -0.0841865 0)
(-0.188969 -0.0888182 0)
(-0.176185 -0.0923677 0)
(-0.162303 -0.0946091 0)
(-0.147351 -0.0952274 0)
(-0.131606 -0.0940561 0)
(-0.115261 -0.0908896 0)
(-0.098645 -0.085651 0)
(-0.0821011 -0.0783716 0)
(-0.0661762 -0.0693309 0)
(-0.051342 -0.0588892 0)
(-0.0378841 -0.0473959 0)
(-0.0260849 -0.0352971 0)
(-0.0161454 -0.0230835 0)
(-0.00815413 -0.0112399 0)
(-0.00208264 -0.000195312 0)
(0.00222923 0.00969839 0)
(0.00497667 0.0181319 0)
(0.0062932 0.0247361 0)
(0.00626243 0.0290608 0)
(0.00494596 0.0304955 0)
(0.00273836 0.0278433 0)
(0.000114615 0.0156396 0)
(0.00139739 -0.0152292 0)
(0.00380781 -0.0233796 0)
(0.00414777 -0.0208561 0)
(0.003288 -0.0153984 0)
(0.00146099 -0.00916687 0)
(-0.00118984 -0.00285862 0)
(-0.00466528 0.0032412 0)
(-0.00902411 0.00901229 0)
(-0.0143671 0.0144517 0)
(-0.020811 0.0196555 0)
(-0.0284677 0.0247908 0)
(-0.0374249 0.0300502 0)
(-0.0477249 0.0355971 0)
(-0.0593488 0.0415148 0)
(-0.0721966 0.0477925 0)
(-0.0860787 0.0542757 0)
(-0.100647 0.0607011 0)
(-0.115537 0.0667875 0)
(-0.1303 0.0721524 0)
(-0.144433 0.0764861 0)
(-0.157559 0.0795696 0)
(-0.169583 0.0813963 0)
(-0.180526 0.0820777 0)
(-0.190452 0.0817653 0)
(-0.199454 0.0805981 0)
(-0.207619 0.0787193 0)
(-0.215035 0.0762508 0)
(-0.221765 0.0733003 0)
(-0.22786 0.0699504 0)
(-0.233359 0.0662729 0)
(-0.238298 0.0623252 0)
(-0.242708 0.0581546 0)
(-0.246617 0.0538031 0)
(-0.250045 0.0493083 0)
(-0.253008 0.0447088 0)
(-0.25551 0.0400383 0)
(-0.257664 0.035222 0)
(-0.259467 0.0303274 0)
(-0.260925 0.0253551 0)
(-0.262036 0.020306 0)
(-0.262792 0.0152274 0)
(-0.263202 0.0100395 0)
(-0.263268 0.00475407 0)
(-0.262995 -0.000648715 0)
(-0.26238 -0.00617497 0)
(-0.261447 -0.0118486 0)
(-0.260178 -0.0176902 0)
(-0.25857 -0.0237118 0)
(-0.2566 -0.0299185 0)
(-0.254248 -0.0363764 0)
(-0.251502 -0.0431222 0)
(-0.248332 -0.0501439 0)
(-0.244695 -0.0574256 0)
(-0.24053 -0.0649403 0)
(-0.23576 -0.072655 0)
(-0.230256 -0.0803405 0)
(-0.22373 -0.0877711 0)
(-0.215852 -0.0946337 0)
(-0.206338 -0.100516 0)
(-0.195203 -0.105233 0)
(-0.182761 -0.108709 0)
(-0.16882 -0.110409 0)
(-0.153675 -0.110138 0)
(-0.137468 -0.107595 0)
(-0.120532 -0.10265 0)
(-0.103178 -0.095249 0)
(-0.0858733 -0.0855006 0)
(-0.0693182 -0.073894 0)
(-0.0540091 -0.0609231 0)
(-0.0402702 -0.0470543 0)
(-0.0284095 -0.0328801 0)
(-0.0186233 -0.0190159 0)
(-0.0109635 -0.00603167 0)
(-0.00531764 0.0056171 0)
(-0.00145199 0.0155759 0)
(0.000905108 0.0235546 0)
(0.00195044 0.0291436 0)
(0.00182767 0.0316741 0)
(0.000872388 0.0295417 0)
(-0.000264344 0.0164359 0)
(0.00129682 -0.0176121 0)
(0.00234269 -0.0240756 0)
(0.00136388 -0.0199404 0)
(-0.000728885 -0.0134208 0)
(-0.00369511 -0.00634329 0)
(-0.00746522 0.000785272 0)
(-0.0120852 0.00775956 0)
(-0.0176476 0.014499 0)
(-0.0242631 0.0210188 0)
(-0.0320374 0.0274135 0)
(-0.0410542 0.0338279 0)
(-0.0513561 0.0404095 0)
(-0.0629216 0.0472532 0)
(-0.0756731 0.0543749 0)
(-0.0894106 0.0616436 0)
(-0.103758 0.0687915 0)
(-0.11836 0.0754782 0)
(-0.132739 0.0813358 0)
(-0.14635 0.0860076 0)
(-0.158973 0.0893286 0)
(-0.170502 0.0912996 0)
(-0.18097 0.0920655 0)
(-0.190446 0.0917575 0)
(-0.199027 0.0905441 0)
(-0.2068 0.0885634 0)
(-0.213841 0.0859503 0)
(-0.220212 0.0828093 0)
(-0.225955 0.0792333 0)
(-0.231108 0.0752961 0)
(-0.235702 0.0710642 0)
(-0.239768 0.0665923 0)
(-0.243334 0.061929 0)
(-0.246426 0.0571175 0)
(-0.24909 0.0521734 0)
(-0.251388 0.047114 0)
(-0.253342 0.0419662 0)
(-0.25492 0.0368093 0)
(-0.256129 0.0315974 0)
(-0.256989 0.0263281 0)
(-0.25752 0.0209976 0)
(-0.257766 0.0156027 0)
(-0.257756 0.0101248 0)
(-0.257517 0.00455985 0)
(-0.257073 -0.00111251 0)
(-0.256435 -0.00690903 0)
(-0.255573 -0.0128602 0)
(-0.254511 -0.0189965 0)
(-0.253242 -0.0253461 0)
(-0.251764 -0.0319322 0)
(-0.250068 -0.038772 0)
(-0.248135 -0.0458758 0)
(-0.245933 -0.0532473 0)
(-0.243414 -0.0608746 0)
(-0.240516 -0.0687169 0)
(-0.237142 -0.0766977 0)
(-0.233219 -0.084934 0)
(-0.228714 -0.0933197 0)
(-0.223439 -0.101652 0)
(-0.217138 -0.109492 0)
(-0.20931 -0.116324 0)
(-0.199245 -0.121347 0)
(-0.187194 -0.124459 0)
(-0.173472 -0.125546 0)
(-0.158116 -0.124135 0)
(-0.141454 -0.120001 0)
(-0.123846 -0.113039 0)
(-0.105621 -0.103175 0)
(-0.0874517 -0.090731 0)
(-0.0701807 -0.0764027 0)
(-0.0543675 -0.0608487 0)
(-0.0403766 -0.0446696 0)
(-0.0285363 -0.0286179 0)
(-0.0190241 -0.0134317 0)
(-0.0118277 0.00025179 0)
(-0.00673614 0.011959 0)
(-0.00339325 0.0213886 0)
(-0.00145059 0.0281989 0)
(-0.000597391 0.0316592 0)
(-0.000453376 0.0299481 0)
(-0.00038209 0.0162991 0)
(0.00104065 -0.0189368 0)
(0.000597825 -0.0233585 0)
(-0.00172332 -0.0177208 0)
(-0.00499623 -0.0102757 0)
(-0.00909339 -0.00239207 0)
(-0.0139883 0.00556775 0)
(-0.0197541 0.0134564 0)
(-0.0264998 0.0212159 0)
(-0.0343282 0.028859 0)
(-0.0433185 0.0364595 0)
(-0.0535121 0.0441221 0)
(-0.064891 0.0519313 0)
(-0.0773942 0.0599208 0)
(-0.0908446 0.0679904 0)
(-0.104871 0.0758644 0)
(-0.119075 0.0831935 0)
(-0.133007 0.0895998 0)
(-0.146182 0.0947078 0)
(-0.158369 0.0983719 0)
(-0.169491 0.10062 0)
(-0.179552 0.10155 0)
(-0.188644 0.101339 0)
(-0.196848 0.100147 0)
(-0.204253 0.0981337 0)
(-0.210923 0.0954258 0)
(-0.216914 0.0921407 0)
(-0.222266 0.0883706 0)
(-0.227014 0.0842003 0)
(-0.231192 0.0797006 0)
(-0.234834 0.074936 0)
(-0.237975 0.0699611 0)
(-0.240652 0.0648234 0)
(-0.242906 0.0595617 0)
(-0.244757 0.0542208 0)
(-0.246215 0.0488247 0)
(-0.24733 0.0433714 0)
(-0.248112 0.0378807 0)
(-0.248621 0.0323469 0)
(-0.248895 0.0267844 0)
(-0.248976 0.0211941 0)
(-0.248861 0.0155711 0)
(-0.248573 0.0098959 0)
(-0.248126 0.00415401 0)
(-0.247536 -0.00167879 0)
(-0.246807 -0.00762555 0)
(-0.24595 -0.0137187 0)
(-0.244981 -0.0199851 0)
(-0.243907 -0.0264572 0)
(-0.242737 -0.0331665 0)
(-0.241474 -0.0401459 0)
(-0.240116 -0.0474241 0)
(-0.238654 -0.0550248 0)
(-0.237067 -0.0629601 0)
(-0.235309 -0.0712198 0)
(-0.23331 -0.0797589 0)
(-0.230982 -0.0884926 0)
(-0.228205 -0.0973057 0)
(-0.224802 -0.106029 0)
(-0.220616 -0.11475 0)
(-0.215545 -0.123204 0)
(-0.209169 -0.130753 0)
(-0.200822 -0.136552 0)
(-0.18959 -0.139473 0)
(-0.176106 -0.139763 0)
(-0.16056 -0.137029 0)
(-0.143417 -0.131143 0)
(-0.124992 -0.121876 0)
(-0.1058 -0.109313 0)
(-0.0866779 -0.0939737 0)
(-0.0686451 -0.0768075 0)
(-0.0523553 -0.0586732 0)
(-0.0382096 -0.0403276 0)
(-0.0265419 -0.022695 0)
(-0.0174821 -0.00662754 0)
(-0.0109216 0.00718783 0)
(-0.00650219 0.0183055 0)
(-0.0037195 0.0264097 0)
(-0.00213018 0.0306595 0)
(-0.0011497 0.0293884 0)
(-0.000357772 0.0157093 0)
(0.000713374 -0.0192695 0)
(-0.00132401 -0.021227 0)
(-0.00491568 -0.0142719 0)
(-0.00933141 -0.00597413 0)
(-0.014543 0.00268252 0)
(-0.0205376 0.0114749 0)
(-0.0274102 0.0202977 0)
(-0.0352673 0.0290929 0)
(-0.0441907 0.0378511 0)
(-0.0542223 0.0466082 0)
(-0.06535 0.0554135 0)
(-0.077526 0.0642995 0)
(-0.0906019 0.0731954 0)
(-0.104237 0.0818319 0)
(-0.118017 0.0898485 0)
(-0.131504 0.0968677 0)
(-0.144293 0.102538 0)
(-0.156118 0.106677 0)
(-0.166888 0.109296 0)
(-0.176612 0.1105 0)
(-0.185361 0.110465 0)
(-0.193226 0.109372 0)
(-0.200276 0.107378 0)
(-0.206576 0.104625 0)
(-0.21217 0.101228 0)
(-0.217098 0.0972926 0)
(-0.221394 0.0929074 0)
(-0.225097 0.0881563 0)
(-0.228246 0.0831124 0)
(-0.230885 0.0778422 0)
(-0.233055 0.072402 0)
(-0.234802 0.0668398 0)
(-0.236168 0.0611933 0)
(-0.237193 0.0554929 0)
(-0.237918 0.0497599 0)
(-0.238387 0.0440095 0)
(-0.238631 0.0382597 0)
(-0.238684 0.0325114 0)
(-0.238569 0.026764 0)
(-0.238306 0.021009 0)
(-0.237907 0.0152355 0)
(-0.237388 0.00942559 0)
(-0.236763 0.00356135 0)
(-0.236044 -0.00238022 0)
(-0.235242 -0.0084225 0)
(-0.234371 -0.0145964 0)
(-0.233445 -0.0209298 0)
(-0.232479 -0.0274546 0)
(-0.231488 -0.034203 0)
(-0.230483 -0.0412093 0)
(-0.229478 -0.0485066 0)
(-0.22848 -0.0561262 0)
(-0.227491 -0.064094 0)
(-0.226496 -0.0724277 0)
(-0.22546 -0.0811326 0)
(-0.224328 -0.0901935 0)
(-0.223006 -0.0995399 0)
(-0.221349 -0.10903 0)
(-0.219174 -0.118439 0)
(-0.216235 -0.127498 0)
(-0.212225 -0.136123 0)
(-0.207002 -0.144093 0)
(-0.199939 -0.150306 0)
(-0.189952 -0.153491 0)
(-0.176696 -0.152822 0)
(-0.16102 -0.148747 0)
(-0.143249 -0.140843 0)
(-0.123887 -0.129027 0)
(-0.103641 -0.113539 0)
(-0.0835222 -0.0951238 0)
(-0.0647569 -0.0750497 0)
(-0.0481009 -0.0544062 0)
(-0.0339855 -0.0341421 0)
(-0.0227173 -0.0153574 0)
(-0.0143374 0.000995586 0)
(-0.00858867 0.0142186 0)
(-0.00488668 0.0238675 0)
(-0.00271264 0.0289732 0)
(-0.00122738 0.0282386 0)
(-0.000186523 0.014896 0)
(0.000121365 -0.0184083 0)
(-0.00333683 -0.0177478 0)
(-0.00809013 -0.00961032 0)
(-0.013595 -0.000553912 0)
(-0.0198733 0.0088402 0)
(-0.0269098 0.0184541 0)
(-0.0348063 0.0282032 0)
(-0.0436577 0.0380088 0)
(-0.0535144 0.0478224 0)
(-0.0643729 0.0576292 0)
(-0.0761948 0.0674327 0)
(-0.0888601 0.0771794 0)
(-0.10207 0.0866159 0)
(-0.115422 0.0953819 0)
(-0.128498 0.103099 0)
(-0.140941 0.109436 0)
(-0.15247 0.114179 0)
(-0.162948 0.117282 0)
(-0.17239 0.118866 0)
(-0.180848 0.119098 0)
(-0.188404 0.118174 0)
(-0.195127 0.11626 0)
(-0.201069 0.113503 0)
(-0.206274 0.11003 0)
(-0.21078 0.105952 0)
(-0.214628 0.101371 0)
(-0.217861 0.0963806 0)
(-0.220531 0.0910686 0)
(-0.222692 0.0855114 0)
(-0.224398 0.0797773 0)
(-0.225705 0.0739227 0)
(-0.226665 0.0679937 0)
(-0.227327 0.0620255 0)
(-0.227736 0.0560458 0)
(-0.227932 0.0500747 0)
(-0.22795 0.044125 0)
(-0.227813 0.0382045 0)
(-0.227545 0.0323088 0)
(-0.22716 0.0264321 0)
(-0.226671 0.0205629 0)
(-0.22609 0.0146866 0)
(-0.225428 0.00878652 0)
(-0.224695 0.0028433 0)
(-0.223903 -0.00316491 0)
(-0.223061 -0.00926175 0)
(-0.222182 -0.0154751 0)
(-0.221282 -0.021833 0)
(-0.220376 -0.0283658 0)
(-0.219482 -0.0351056 0)
(-0.218619 -0.042086 0)
(-0.217806 -0.0493413 0)
(-0.217062 -0.056905 0)
(-0.216402 -0.064808 0)
(-0.215834 -0.0730768 0)
(-0.215356 -0.0817324 0)
(-0.214947 -0.0907848 0)
(-0.214563 -0.100221 0)
(-0.214114 -0.109996 0)
(-0.213461 -0.120005 0)
(-0.212392 -0.130025 0)
(-0.210626 -0.139691 0)
(-0.207793 -0.148567 0)
(-0.203483 -0.156565 0)
(-0.197341 -0.162989 0)
(-0.188344 -0.166213 0)
(-0.175384 -0.164744 0)
(-0.159469 -0.159151 0)
(-0.140916 -0.148973 0)
(-0.120506 -0.13434 0)
(-0.0991361 -0.11568 0)
(-0.0780564 -0.0940355 0)
(-0.0586912 -0.0710434 0)
(-0.0418965 -0.0480663 0)
(-0.0281038 -0.0262841 0)
(-0.0175406 -0.00697231 0)
(-0.0101051 0.00886858 0)
(-0.00527233 0.0205126 0)
(-0.00249304 0.0268719 0)
(-0.00079179 0.0269344 0)
(6.99872e-05 0.014327 0)
(-0.000468669 -0.0162854 0)
(-0.00530012 -0.0129675 0)
(-0.0111266 -0.00381935 0)
(-0.0176529 0.00591586 0)
(-0.0249238 0.0160067 0)
(-0.032913 0.0264154 0)
(-0.0417193 0.0370537 0)
(-0.0514169 0.0478054 0)
(-0.0620193 0.0585711 0)
(-0.0734961 0.0692913 0)
(-0.0857504 0.0799021 0)
(-0.0985303 0.0901644 0)
(-0.111466 0.0997368 0)
(-0.124172 0.108237 0)
(-0.136309 0.11534 0)
(-0.147598 0.120806 0)
(-0.157858 0.124526 0)
(-0.167071 0.126597 0)
(-0.175293 0.127198 0)
(-0.182587 0.126521 0)
(-0.189021 0.124751 0)
(-0.194642 0.122042 0)
(-0.199492 0.118532 0)
(-0.203614 0.114344 0)
(-0.207053 0.109594 0)
(-0.209866 0.104391 0)
(-0.212113 0.0988339 0)
(-0.213861 0.0930144 0)
(-0.215176 0.087011 0)
(-0.216122 0.0808904 0)
(-0.216758 0.0747056 0)
(-0.217136 0.0684976 0)
(-0.217303 0.0622967 0)
(-0.217297 0.0561249 0)
(-0.217148 0.0499943 0)
(-0.216882 0.0439107 0)
(-0.216514 0.0378746 0)
(-0.216058 0.0318782 0)
(-0.215524 0.0259123 0)
(-0.21492 0.0199641 0)
(-0.214252 0.014018 0)
(-0.213528 0.00805669 0)
(-0.212754 0.00206114 0)
(-0.211937 -0.00398964 0)
(-0.211088 -0.0101182 0)
(-0.210217 -0.0163497 0)
(-0.209337 -0.0227102 0)
(-0.208466 -0.029228 0)
(-0.207621 -0.035933 0)
(-0.206825 -0.042857 0)
(-0.206101 -0.0500335 0)
(-0.205473 -0.0574968 0)
(-0.204967 -0.0652809 0)
(-0.204603 -0.0734189 0)
(-0.204397 -0.0819402 0)
(-0.204354 -0.0908667 0)
(-0.204463 -0.100207 0)
(-0.204685 -0.10995 0)
(-0.204945 -0.120056 0)
(-0.205107 -0.130434 0)
(-0.204955 -0.140905 0)
(-0.204176 -0.151123 0)
(-0.20236 -0.160519 0)
(-0.198954 -0.168468 0)
(-0.193454 -0.174807 0)
(-0.185019 -0.177795 0)
(-0.17227 -0.175498 0)
(-0.155911 -0.168129 0)
(-0.136425 -0.155382 0)
(-0.114854 -0.137602 0)
(-0.0923508 -0.1155 0)
(-0.07045 -0.090498 0)
(-0.0507622 -0.0646853 0)
(-0.0342038 -0.0397083 0)
(-0.0211504 -0.0170476 0)
(-0.0116868 0.00193123 0)
(-0.00543548 0.0161762 0)
(-0.00189989 0.0244231 0)
(-8.47094e-05 0.025749 0)
(0.000364984 0.0142482 0)
(-0.00106195 -0.0129879 0)
(-0.00713914 -0.00700405 0)
(-0.0139323 0.00301946 0)
(-0.0213887 0.0133535 0)
(-0.0295572 0.0240893 0)
(-0.0383854 0.0352436 0)
(-0.0479641 0.046705 0)
(-0.0583422 0.058306 0)
(-0.0695051 0.0698984 0)
(-0.0813745 0.0813639 0)
(-0.0937392 0.0924605 0)
(-0.106283 0.102878 0)
(-0.11866 0.112236 0)
(-0.130535 0.120196 0)
(-0.141633 0.126492 0)
(-0.151743 0.130963 0)
(-0.160799 0.133647 0)
(-0.168843 0.13472 0)
(-0.175937 0.134386 0)
(-0.182135 0.132833 0)
(-0.187491 0.130235 0)
(-0.192044 0.12674 0)
(-0.195841 0.122488 0)
(-0.198938 0.117607 0)
(-0.201399 0.112224 0)
(-0.203299 0.106455 0)
(-0.204713 0.100404 0)
(-0.205717 0.0941612 0)
(-0.206383 0.0878026 0)
(-0.206773 0.0813886 0)
(-0.206944 0.0749645 0)
(-0.206939 0.0685637 0)
(-0.206798 0.0622083 0)
(-0.206547 0.0559117 0)
(-0.206208 0.0496787 0)
(-0.205795 0.0435091 0)
(-0.205319 0.037398 0)
(-0.204786 0.0313354 0)
(-0.2042 0.0253091 0)
(-0.203565 0.0193053 0)
(-0.202883 0.0133087 0)
(-0.202156 0.00730181 0)
(-0.201389 0.00126639 0)
(-0.200586 -0.00481716 0)
(-0.199755 -0.0109695 0)
(-0.198903 -0.0172128 0)
(-0.198045 -0.0235707 0)
(-0.197195 -0.0300681 0)
(-0.196372 -0.0367319 0)
(-0.195598 -0.043591 0)
(-0.194899 -0.0506762 0)
(-0.194303 -0.0580204 0)
(-0.19384 -0.0656582 0)
(-0.193539 -0.0736255 0)
(-0.193428 -0.0819579 0)
(-0.193527 -0.0906879 0)
(-0.193847 -0.099841 0)
(-0.19438 -0.109429 0)
(-0.195092 -0.119441 0)
(-0.195908 -0.129832 0)
(-0.196697 -0.140509 0)
(-0.197246 -0.151303 0)
(-0.197226 -0.161906 0)
(-0.196177 -0.171749 0)
(-0.193506 -0.179987 0)
(-0.18845 -0.185944 0)
(-0.180201 -0.188388 0)
(-0.167416 -0.185026 0)
(-0.150367 -0.175552 0)
(-0.129787 -0.159828 0)
(-0.106984 -0.138508 0)
(-0.0834208 -0.112653 0)
(-0.0609989 -0.0842401 0)
(-0.0414457 -0.0558746 0)
(-0.0256786 -0.0295008 0)
(-0.0139206 -0.0068654 0)
(-0.00597731 0.0106226 0)
(-0.00145795 0.0214974 0)
(0.0005937 0.0247126 0)
(0.000574836 0.0146151 0)
(-0.00162434 -0.00858593 0)
(-0.00878948 2.18317e-05 0)
(-0.0164375 0.0108004 0)
(-0.0247207 0.0216549 0)
(-0.0336678 0.0329728 0)
(-0.0432023 0.0448054 0)
(-0.053403 0.0570002 0)
(-0.0642926 0.069339 0)
(-0.0758172 0.081605 0)
(-0.0877963 0.0935221 0)
(-0.0999815 0.104796 0)
(-0.112067 0.115064 0)
(-0.123722 0.123956 0)
(-0.134676 0.131181 0)
(-0.144696 0.136524 0)
(-0.153672 0.139959 0)
(-0.161611 0.141627 0)
(-0.168571 0.141738 0)
(-0.174606 0.140495 0)
(-0.179765 0.138083 0)
(-0.184093 0.13467 0)
(-0.187642 0.130407 0)
(-0.190474 0.125445 0)
(-0.192664 0.119925 0)
(-0.194296 0.11398 0)
(-0.195456 0.107731 0)
(-0.196227 0.101279 0)
(-0.196687 0.0947105 0)
(-0.196903 0.0880918 0)
(-0.19693 0.0814736 0)
(-0.196816 0.0748916 0)
(-0.196594 0.0683693 0)
(-0.196293 0.0619199 0)
(-0.19593 0.0555489 0)
(-0.195517 0.0492553 0)
(-0.195061 0.0430338 0)
(-0.194567 0.0368752 0)
(-0.194035 0.0307681 0)
(-0.193464 0.0246991 0)
(-0.192855 0.0186529 0)
(-0.192205 0.0126146 0)
(-0.191515 0.006568 0)
(-0.190787 0.000495727 0)
(-0.190022 -0.00561951 0)
(-0.189226 -0.0117966 0)
(-0.188406 -0.0180547 0)
(-0.187573 -0.0244143 0)
(-0.186741 -0.0308968 0)
(-0.185927 -0.0375254 0)
(-0.185153 -0.0443252 0)
(-0.184444 -0.0513234 0)
(-0.18383 -0.0585501 0)
(-0.183342 -0.0660378 0)
(-0.183015 -0.0738222 0)
(-0.182883 -0.0819415 0)
(-0.182981 -0.0904346 0)
(-0.183332 -0.0993392 0)
(-0.183952 -0.108687 0)
(-0.184835 -0.118495 0)
(-0.185944 -0.128758 0)
(-0.187201 -0.13943 0)