/*--------------------------------*- C++ -*----------------------------------*\
  =========                 |
  \\      /  F ield         | OpenFOAM: The Open Source CFD Toolbox
   \\    /   O peration     | Website:  https://openfoam.org
    \\  /    A nd           | Version:  13
     \\/     M anipulation  |
\*---------------------------------------------------------------------------*/
FoamFile
{
    format      ascii;
    class       volScalarField;
    location    "4.2";
    object      epsilon;
}
// * * * * * * * * * * * * * * * * * * * * * * * * * * * * * * * * * * * * * //

dimensions      [0 2 -3 0 0 0 0];

internalField   nonuniform List<scalar> 
6400
(
2.13392e-05
0.000109248
0.00026164
0.000422211
0.000548319
0.000625895
0.000663116
0.000679347
0.000696386
0.000734504
0.000810564
0.0009397
0.0011347
0.00139854
0.00172143
0.00208905
0.00248547
0.00290572
0.00332941
0.00374503
0.00415816
0.0045987
0.005108
0.00572347
0.00644301
0.00721121
0.00797236
0.00873284
0.00950564
0.0103091
0.0111436
0.0119799
0.0127992
0.0135963
0.0143858
0.0151806
0.0159935
0.0168367
0.0177197
0.0186518
0.0196376
0.0206847
0.0218013
0.0229948
0.0242743
0.025655
0.0271825
0.0289531
0.0311721
0.0333952
0.0356721
0.0379055
0.0400739
0.0421043
0.0439309
0.0454775
0.0466293
0.0471955
0.0474093
0.0471116
0.045984
0.0441118
0.0415073
0.0382146
0.0343889
0.0301195
0.0256769
0.0212564
0.0170472
0.0131437
0.00993744
0.00728216
0.00511711
0.00344158
0.00222256
0.0013811
0.000826814
0.000468293
0.000218098
4.62633e-05
0.000103979
0.000101103
0.000163055
0.000236562
0.000294533
0.000332904
0.000355742
0.000370649
0.000386947
0.000415963
0.00046897
0.000558573
0.000697527
0.000895061
0.00115534
0.00148105
0.00187512
0.00234382
0.00289154
0.00352576
0.00425701
0.00509988
0.00609906
0.00728453
0.00865696
0.0102115
0.0119104
0.0136094
0.0152212
0.0166616
0.0178319
0.0187503
0.0194276
0.0199021
0.0202246
0.0204352
0.0205761
0.0206792
0.0207721
0.0208718
0.0209974
0.0211659
0.021383
0.0216377
0.0219225
0.0222568
0.0226733
0.0231587
0.0237163
0.024336
0.0249875
0.0256699
0.0263424
0.0269883
0.0275617
0.0280138
0.0282333
0.0282876
0.0281162
0.0276692
0.0268369
0.0256718
0.0241323
0.022248
0.0200879
0.0177387
0.0153089
0.0129124
0.0106456
0.00857893
0.00682159
0.00533105
0.00406112
0.00298659
0.00210047
0.00139273
0.000855061
0.00048014
0.000247806
0.000242976
0.000229597
0.000182706
0.000239669
0.000302023
0.000343274
0.00036809
0.000385697
0.000406043
0.000440397
0.000503056
0.000611044
0.000784872
0.00104479
0.00140674
0.0018822
0.00248404
0.00322391
0.00411457
0.00516477
0.00638037
0.00776502
0.00930937
0.0109574
0.0126089
0.0141241
0.0153373
0.0161278
0.0166178
0.0168931
0.0170654
0.0171907
0.0172215
0.0170616
0.0168158
0.0165657
0.0163215
0.0161126
0.0159491
0.0158639
0.0158334
0.0158519
0.0159694
0.0161478
0.0164227
0.0167975
0.0172668
0.0178095
0.0184247
0.0191071
0.0198529
0.0206479
0.0214829
0.0223366
0.0231886
0.024006
0.0247519
0.0253827
0.0258038
0.0259704
0.0259404
0.0255411
0.0247249
0.0234877
0.0218513
0.0198934
0.0177038
0.0153886
0.013059
0.0108226
0.00877017
0.00697218
0.00544877
0.00418887
0.00316199
0.00233125
0.00166352
0.00112993
0.000708773
0.000441898
0.000638057
0.000400843
0.000315793
0.000380807
0.000442543
0.000479401
0.000503667
0.000529814
0.000573168
0.000651648
0.000787984
0.0010117
0.00135406
0.00184249
0.00249652
0.00332862
0.00434601
0.00555266
0.00693694
0.00846281
0.0100647
0.0116457
0.0130861
0.0142694
0.0150505
0.015424
0.0155647
0.0155984
0.0154303
0.015053
0.0145767
0.0140332
0.0135433
0.0131573
0.0128484
0.012596
0.0124136
0.0123189
0.0122838
0.0122962
0.0124048
0.012572
0.012817
0.0131281
0.0135142
0.0139707
0.0144982
0.0150954
0.015764
0.0165031
0.0173118
0.0181857
0.0191179
0.0200955
0.0211017
0.0221106
0.0230876
0.0239874
0.0247542
0.0252813
0.0255029
0.0255056
0.0250475
0.024223
0.0229438
0.021147
0.0190085
0.0166282
0.0141453
0.0117048
0.0094352
0.00743196
0.00574541
0.00437968
0.0033025
0.0024655
0.00181638
0.00130517
0.000898627
0.000647156
0.00103772
0.00064306
0.00050191
0.000567453
0.000630201
0.000672277
0.000710334
0.00076433
0.000857589
0.00101911
0.00128511
0.00169642
0.00229036
0.00309203
0.00411051
0.00533983
0.00675793
0.00831964
0.00994476
0.0115142
0.012887
0.0139379
0.0144814
0.014691
0.0147267
0.014508
0.0140152
0.0133098
0.012616
0.0120039
0.0114752
0.0110062
0.0106353
0.0103446
0.0101251
0.00997141
0.00989536
0.0098678
0.00987206
0.0099535
0.01008
0.0102584
0.0104873
0.0107668
0.0110996
0.0114869
0.0119326
0.0124402
0.0130145
0.0136597
0.0143798
0.0151782
0.0160564
0.0170117
0.0180368
0.0191193
0.0202384
0.0213608
0.0224365
0.0234071
0.024202
0.0246306
0.0247602
0.0244548
0.0237096
0.0224278
0.0205379
0.0182153
0.015627
0.0129567
0.010388
0.00807758
0.00612727
0.00457015
0.00337926
0.00249198
0.00183304
0.00134097
0.000974051
0.000777244
0.00129942
0.000986783
0.000748446
0.000803218
0.000871091
0.000930639
0.0010002
0.00110683
0.0012849
0.00157683
0.00203103
0.00269341
0.00359477
0.00474083
0.00610883
0.00764719
0.00927296
0.0108686
0.0122853
0.0133722
0.013911
0.0140883
0.014089
0.0137379
0.0130557
0.0122151
0.0114261
0.0107245
0.0101086
0.00959264
0.00916049
0.00880694
0.00852982
0.00831318
0.00815201
0.00803919
0.00797612
0.00794862
0.00794344
0.00798386
0.0080532
0.00815658
0.00829062
0.00845821
0.00866059
0.00890138
0.00918488
0.0095168
0.00990446
0.0103565
0.0108832
0.0114949
0.0122037
0.0130197
0.0139497
0.014996
0.0161547
0.0174107
0.0187358
0.0200846
0.0213966
0.0225744
0.0234594
0.0238603
0.0239123
0.0233793
0.0221946
0.0201928
0.0176621
0.0148164
0.0119014
0.00916501
0.00680293
0.00491727
0.00351047
0.00250925
0.00180733
0.00131656
0.000971479
0.000826132
0.00138681
0.00146231
0.00106122
0.00109768
0.00117905
0.00127139
0.00139346
0.00158182
0.00188344
0.00235234
0.00304113
0.00398649
0.00519396
0.00662902
0.00821556
0.00983856
0.0113511
0.0125934
0.0133169
0.0135857
0.0136136
0.0132821
0.0125558
0.0116223
0.0107456
0.0099414
0.00924811
0.00865587
0.00815686
0.00774293
0.00739988
0.00711969
0.00689245
0.00670869
0.00656321
0.00645006
0.00636542
0.00630424
0.00627081
0.00625758
0.00625606
0.00628128
0.00632429
0.0063903
0.00647828
0.00659263
0.00673599
0.00691325
0.00713057
0.00739569
0.00771829
0.00811138
0.00859064
0.00917563
0.00988839
0.0107462
0.0117738
0.0129856
0.014384
0.0159401
0.0176109
0.0193361
0.0210069
0.0224703
0.0233801
0.023713
0.0235854
0.0224639
0.0203067
0.0174812
0.0142692
0.0110199
0.00806859
0.0056503
0.00384848
0.00261125
0.00180266
0.00127066
0.000942117
0.000819012
0.00134586
0.00209811
0.00144445
0.00146116
0.00156839
0.00171098
0.00190824
0.00220766
0.00266688
0.0033438
0.00428109
0.00548788
0.00692582
0.00850462
0.0100877
0.0115074
0.0125601
0.0130536
0.0131866
0.0130212
0.0123983
0.0114347
0.0104556
0.00955338
0.00876415
0.00808445
0.00751238
0.0070296
0.00662522
0.00628676
0.00600328
0.00576646
0.00556831
0.005403
0.00526613
0.00515381
0.00506275
0.00499035
0.00493561
0.00489599
0.00487546
0.00486794
0.00486981
0.00489461
0.00493303
0.00499145
0.0050699
0.00517204
0.00530132
0.00546285
0.00566272
0.00590764
0.00620713
0.00657454
0.00702895
0.0076004
0.00831928
0.00922986
0.0103826
0.011806
0.0134996
0.0154511
0.0175691
0.0197545
0.0218073
0.0233802
0.0241085
0.0242819
0.02323
0.0208424
0.0175956
0.0138976
0.0102383
0.0070564
0.00461068
0.00293218
0.00188559
0.00126397
0.000903045
0.000790019
0.00125794
0.00291556
0.0019015
0.0019018
0.00205225
0.00226112
0.00255425
0.00298761
0.00362298
0.00450967
0.00566385
0.00705094
0.00857779
0.0100981
0.0114326
0.0123223
0.0126916
0.0127617
0.0124077
0.0115497
0.0105071
0.00950774
0.00860262
0.00782226
0.00715993
0.00660162
0.00613282
0.00573771
0.00540565
0.00512604
0.00489092
0.00469368
0.00452881
0.00439208
0.00427971
0.00418859
0.00411645
0.00406126
0.00402138
0.00399725
0.00398652
0.00398393
0.00399505
0.00402074
0.00405829
0.00411067
0.00417809
0.00426282
0.00436677
0.00449254
0.00464341
0.00482354
0.00503829
0.0052945
0.00560129
0.00597086
0.00642162
0.00698194
0.00769563
0.00864144
0.0099255
0.0116127
0.0137026
0.0161591
0.0188269
0.0215017
0.0237903
0.0249731
0.0253756
0.024374
0.0216351
0.0178283
0.0135392
0.00943936
0.00606863
0.00366558
0.00216634
0.00132761
0.000896673
0.000753802
0.00117679
0.00392594
0.0024386
0.00243021
0.00263495
0.00292481
0.00332809
0.00390457
0.00471036
0.00577218
0.00706593
0.00850514
0.00994453
0.0112006
0.0119863
0.0122827
0.0123061
0.0117905
0.0108249
0.00977222
0.00874613
0.00784527
0.00707125
0.00642115
0.0058755
0.00541852
0.00503547
0.00471462
0.004447
0.0042246
0.00404125
0.00389151
0.0037708
0.00367515
0.00360109
0.0035456
0.00350608
0.00348152
0.0034701
0.00346681
0.00347295
0.00349036
0.00351723
0.00355418
0.00360101
0.00365893
0.00372849
0.00381104
0.003908
0.00402114
0.00415261
0.00430499
0.00448145
0.0046861
0.00492438
0.0052038
0.00553176
0.00592189
0.00639452
0.0069837
0.00774709
0.00878314
0.0102932
0.0123987
0.0150778
0.0182104
0.0215183
0.0245212
0.026179
0.0267693
0.0257211
0.022477
0.0179613
0.0130132
0.00851614
0.00506572
0.00280976
0.00154625
0.000939695
0.000741383
0.00113701
0.00514838
0.00306776
0.00305018
0.00331593
0.00369478
0.00421111
0.00492098
0.00586374
0.00703214
0.00835529
0.00969877
0.0108838
0.0116182
0.0118844
0.011857
0.0112702
0.0102645
0.00918448
0.00815491
0.00724452
0.00647707
0.00583333
0.00529849
0.0048531
0.00448362
0.00417807
0.0039274
0.00372378
0.00356041
0.0034314
0.00333142
0.00325578
0.00320033
0.0031615
0.00313696
0.00312515
0.00312117
0.00312335
0.00313544
0.00315403
0.00318045
0.00321408
0.00325582
0.00330621
0.00336636
0.00343731
0.00352049
0.00361736
0.00372958
0.00385885
0.00400695
0.00417574
0.00436716
0.00458341
0.00482724
0.00510268
0.00541627
0.00577912
0.00620925
0.00672879
0.00738557
0.00826899
0.00953622
0.0115095
0.0143335
0.017876
0.0218297
0.0255807
0.0276389
0.0283368
0.0270815
0.0231236
0.0177516
0.0121541
0.00739951
0.00404051
0.00205236
0.00109137
0.000766607
0.00116197
0.00664097
0.00380893
0.0037592
0.00408543
0.00455228
0.00517058
0.00598397
0.00700577
0.00818911
0.00941954
0.0105304
0.0112397
0.0114998
0.011446
0.0108432
0.00984319
0.00874367
0.00770107
0.00678369
0.00601117
0.00537209
0.00484352
0.00440912
0.00405285
0.00376345
0.00353074
0.00334645
0.00320284
0.00309306
0.00301094
0.00295103
0.00290864
0.00287986
0.00286224
0.00285382
0.00285095
0.00285154
0.00285938
0.00287228
0.00289043
0.00291466
0.00294542
0.00298384
0.00303097
0.00308815
0.00315678
0.00323849
0.00333495
0.00344797
0.00357939
0.00373103
0.00390463
0.00410172
0.00432348
0.00457071
0.0048439
0.00514376
0.00547243
0.00583579
0.00624782
0.00673561
0.00733429
0.00812298
0.00925696
0.0110385
0.0139255
0.0178461
0.0224663
0.0269668
0.0292548
0.0299585
0.0282243
0.0232745
0.0169568
0.0108462
0.00607681
0.00302263
0.00144825
0.000866909
0.00128656
0.00831538
0.00463433
0.00454204
0.00492452
0.00546894
0.00616425
0.00703427
0.0080614
0.00916095
0.0101874
0.0108783
0.0111373
0.0110926
0.0105027
0.00954209
0.00843583
0.00737419
0.00644143
0.00565865
0.00501572
0.00449067
0.00406321
0.00371836
0.00344272
0.00322583
0.00305785
0.00293018
0.00283484
0.00276483
0.00271415
0.00267776
0.00265172
0.00263315
0.00262005
0.00261096
0.00260562
0.00260351
0.00260382
0.00260959
0.00261965
0.00263591
0.00265891
0.00269004
0.00273051
0.00278178
0.00284541
0.0029231
0.00301672
0.00312827
0.00325989
0.0034138
0.00359218
0.00379704
0.00402999
0.00429191
0.00458274
0.00490123
0.00524518
0.00561237
0.00600303
0.00642482
0.00690155
0.007475
0.00821083
0.00926248
0.0109431
0.0138554
0.0181851
0.0235294
0.0285876
0.0309476
0.0315038
0.0288209
0.0225996
0.0154018
0.00905839
0.00460957
0.00213563
0.00111551
0.00160894
0.0101254
0.00552588
0.00537904
0.0058074
0.00641007
0.00714598
0.00801497
0.00896913
0.0098954
0.0105603
0.0108147
0.0107991
0.010259
0.00934471
0.00825018
0.00716551
0.00620746
0.00540529
0.00475097
0.00422249
0.00379782
0.00345965
0.00319404
0.00298855
0.00283243
0.00271561
0.00262926
0.0025656
0.00251824
0.00248203
0.00245313
0.00242893
0.00240779
0.00238884
0.00237179
0.0023569
0.00234458
0.00233651
0.00233315
0.00233279
0.00234013
0.00235492
0.00237842
0.00241174
0.00245633
0.00251364
0.00258541
0.00267352
0.00278014
0.00290767
0.00305875
0.0032362
0.00344288
0.00368144
0.00395397
0.00426158
0.00460373
0.00497785
0.00537903
0.00580082
0.00623757
0.00669013
0.00717692
0.00774709
0.00846061
0.00947638
0.0111425
0.014127
0.0189199
0.025093
0.0304734
0.0326561
0.0328456
0.0284431
0.0208693
0.0130168
0.00691192
0.00322607
0.00158427
0.00216707
0.0120099
0.00646079
0.00624602
0.00670387
0.00733778
0.00807028
0.00887542
0.00967906
0.0102995
0.0105548
0.0105695
0.0101085
0.00924855
0.0081747
0.00707117
0.00607616
0.00524328
0.00456755
0.00402746
0.00359886
0.00326199
0.00300099
0.00280209
0.00265281
0.00254207
0.00245994
0.00239815
0.00234994
0.00231024
0.00227542
0.00224321
0.00221239
0.00218252
0.00215373
0.00212653
0.00210169
0.00208008
0.00206268
0.00205092
0.00204565
0.00204474
0.00205281
0.00207026
0.00209736
0.00213564
0.00218632
0.00225102
0.00233158
0.00243017
0.00254935
0.00269206
0.00286164
0.00306176
0.00329624
0.00356875
0.00388232
0.00423865
0.00463721
0.0050743
0.00554245
0.00603077
0.00652741
0.00702563
0.0075382
0.00811964
0.00883229
0.00984996
0.0115728
0.0147573
0.0200905
0.0271706
0.0326548
0.0345027
0.0334951
0.0268509
0.0179062
0.00998907
0.00476696
0.00227513
0.00290881
0.0139089
0.00741375
0.00711605
0.00758248
0.00821574
0.00889833
0.00958041
0.010146
0.0104009
0.0104185
0.0100435
0.00924963
0.00820491
0.00708664
0.00604803
0.00516936
0.00446009
0.00389793
0.00345716
0.00311482
0.00285265
0.00265505
0.00250805
0.00239918
0.0023177
0.00225468
0.00220319
0.00215816
0.00211626
0.00207553
0.00203515
0.00199507
0.00195573
0.00191788
0.00188239
0.00185021
0.00182221
0.00179924
0.00178203
0.0017727
0.00176926
0.00177166
0.00178511
0.00180737
0.00184019
0.00188453
0.00194182
0.00201377
0.00210245
0.00221039
0.00234063
0.0024968
0.00268308
0.00290422
0.00316526
0.00347126
0.00382656
0.00423388
0.00469296
0.00519913
0.00574213
0.00630606
0.00687197
0.00742522
0.00797368
0.00857834
0.00930624
0.0103694
0.0122378
0.0158274
0.0218381
0.029813
0.0347695
0.0359983
0.032679
0.0236012
0.0139099
0.00680984
0.00320519
0.00378364
0.0157567
0.00835784
0.00796246
0.00841302
0.00901243
0.00960154
0.0101024
0.0103422
0.0103558
0.0100663
0.00934108
0.00833786
0.00721105
0.00612512
0.00518669
0.00442745
0.00383072
0.00336746
0.00301176
0.00274199
0.00254041
0.00239132
0.00228092
0.00219742
0.00213131
0.00207533
0.00202445
0.00197549
0.00192684
0.00187798
0.00182917
0.0017811
0.00173469
0.00169089
0.00165062
0.0016147
0.00158383
0.00155861
0.00153954
0.00152838
0.00152386
0.00152362
0.00153424
0.001553
0.00158128
0.00161991
0.0016701
0.00173336
0.00181158
0.00190714
0.00202296
0.00216267
0.00233064
0.00253206
0.00277291
0.00305976
0.00339936
0.00379777
0.00425907
0.00478353
0.00536544
0.00599114
0.00663863
0.00728047
0.0078935
0.00848268
0.00911655
0.0098777
0.0110316
0.0131733
0.0174689
0.0245245
0.0329433
0.0367003
0.0368826
0.0297501
0.0187433
0.00945882
0.00440418
0.00473938
0.017545
0.00926993
0.00875942
0.00916895
0.00970324
0.0101614
0.0103898
0.0104078
0.010166
0.00952189
0.00856864
0.00744501
0.00631214
0.00530215
0.00447458
0.00382663
0.00332858
0.00294983
0.00266529
0.00245412
0.00229875
0.00218378
0.00209627
0.00202592
0.00196506
0.00190851
0.0018532
0.00179771
0.00174178
0.00168591
0.00163097
0.00157799
0.00152797
0.00148179
0.00144018
0.00140373
0.00137286
0.00134791
0.00132917
0.00131784
0.00131299
0.0013123
0.0013209
0.00133712
0.00136169
0.00139536
0.00143913
0.00149431
0.00156257
0.00164603
0.00174737
0.00187
0.00201814
0.00219699
0.00241289
0.00267324
0.00298641
0.0033612
0.00380576
0.00432592
0.00492255
0.00558851
0.00630566
0.00704391
0.00776511
0.0084371
0.00906822
0.00972925
0.0105424
0.0118575
0.0144615
0.019748
0.0282831
0.0361826
0.0386458
0.0356355
0.0244591
0.0128409
0.00591112
0.00573492
0.0192104
0.0101285
0.00948601
0.0098309
0.0102762
0.0105286
0.0105673
0.0103335
0.00978427
0.00889494
0.00778706
0.00661506
0.00552594
0.00461157
0.00389197
0.00334298
0.00292954
0.0026215
0.00239455
0.00222839
0.00210587
0.00201259
0.00193722
0.00187145
0.00180976
0.00174902
0.0016879
0.0016263
0.00156488
0.00150466
0.00144675
0.00139214
0.00134169
0.00129604
0.00125565
0.00122082
0.00119173
0.00116849
0.00115117
0.00114071
0.00113623
0.00113556
0.00114294
0.00115719
0.0011787
0.00120812
0.00124629
0.00129433
0.00135368
0.00142617
0.00151419
0.00162078
0.0017498
0.00190617
0.00209603
0.00232697
0.00260808
0.00294984
0.00336347
0.00385968
0.0044463
0.00512479
0.00588576
0.00670463
0.0075399
0.00833859
0.00905794
0.00971309
0.0104099
0.01131
0.0129118
0.0163127
0.0229267
0.033133
0.0389709
0.0396428
0.0307629
0.0170907
0.00775262
0.00676996
0.0206989
0.0109138
0.0101263
0.0103866
0.0106876
0.0107735
0.0105913
0.0101304
0.00930888
0.00823536
0.00703754
0.00587011
0.00485315
0.00403885
0.00341799
0.00295463
0.00261238
0.00236199
0.00217987
0.00204639
0.00194543
0.00186426
0.0017936
0.00172736
0.00166213
0.0015965
0.00153044
0.00146473
0.00140046
0.00133881
0.00128079
0.0012272
0.00117861
0.00113538
0.0010977
0.00106561
0.00103912
0.00101816
0.00100267
0.000993431
0.000989533
0.000989022
0.000995574
0.00100818
0.00102711
0.00105291
0.00108629
0.0011282
0.00117986
0.00124285
0.00131924
0.00141165
0.00152353
0.00165928
0.00182457
0.00202662
0.00227451
0.0025793
0.00295396
0.00341264
0.00396903
0.00463316
0.00540668
0.00627663
0.00720936
0.00814811
0.0090216
0.00977666
0.0104229
0.0111588
0.0122199
0.0143265
0.0190826
0.027767
0.0378506
0.0412995
0.0370105
0.0222972
0.00998867
0.00783818
0.0219619
0.0116081
0.0106657
0.0108187
0.0109748
0.0109118
0.0105214
0.00980242
0.00878185
0.00758027
0.00634462
0.00521713
0.00428522
0.00356689
0.00303317
0.00264255
0.00235899
0.00215425
0.00200556
0.00189442
0.00180632
0.00173061
0.00166028
0.00159136
0.00152218
0.00145267
0.00138361
0.0013162
0.00125163
0.00119095
0.00113493
0.00108407
0.00103866
0.000998795
0.000964426
0.000935447
0.000911709
0.000893066
0.000879374
0.0008713
0.000867951
0.000867584
0.000873434
0.000884607
0.000901313
0.000924015
0.00095332
0.00099003
0.00103519
0.00109015
0.00115666
0.001237
0.00133413
0.00145191
0.00159538
0.00177112
0.00198763
0.00225577
0.00258898
0.00300328
0.00351634
0.00414524
0.00490218
0.00578782
0.00678267
0.00783903
0.0088785
0.00980625
0.0105891
0.0111953
0.0120068
0.0133502
0.0163663
0.0230313
0.0344384
0.0416022
0.041964
0.0284428
0.0127368
0.00899031
0.0229774
0.0122004
0.0110963
0.0111226
0.0111573
0.0109132
0.0103453
0.00941112
0.00823569
0.00695471
0.0057203
0.00465377
0.00380965
0.00317894
0.00272043
0.00239059
0.00215441
0.00198471
0.0018599
0.00176306
0.0016817
0.00160743
0.0015354
0.00146344
0.00139125
0.00131958
0.00124965
0.00118269
0.0011198
0.00106173
0.00100896
0.00096172
0.000920023
0.00088376
0.000852744
0.000826753
0.000805565
0.000788989
0.000776849
0.000769716
0.000766782
0.000766498
0.000771658
0.000781542
0.000796303
0.000816339
0.000842173
0.000874494
0.000914193
0.000962428
0.00102069
0.00109093
0.00117566
0.00127824
0.00140303
0.00155585
0.00174439
0.00197872
0.0022719
0.00264039
0.00310395
0.0036845
0.00440303
0.00527352
0.00629366
0.00743304
0.00862265
0.0097553
0.0107134
0.0114469
0.0120037
0.01298
0.014909
0.0196303
0.0291743
0.0408352
0.0444154
0.0353349
0.0162493
0.0104404
0.0237358
0.0126954
0.0114144
0.0113186
0.0112342
0.0108489
0.0100788
0.00898229
0.00769467
0.00637391
0.00516788
0.00417269
0.00341304
0.00285997
0.00246534
0.00218551
0.00198675
0.00184316
0.00173467
0.00164632
0.00156781
0.00149296
0.00141877
0.00134451
0.00127077
0.00119874
0.00112972
0.00106484
0.00100489
0.000950341
0.00090139
0.000858009
0.00082003
0.000787207
0.000759261
0.000735914
0.000716918
0.000702061
0.000691171
0.000684716
0.000682045
0.000681772
0.000686233
0.000694937
0.000707983
0.000725714
0.000748586
0.000777196
0.000812314
0.000854932
0.000906331
0.000968169
0.00104261
0.00113251
0.00124163
0.00137503
0.00153946
0.00174402
0.00200078
0.00232565
0.00273886
0.00326487
0.00393069
0.00476132
0.00577112
0.0069506
0.00825047
0.00956905
0.0107587
0.011725
0.0123375
0.0129117
0.0142298
0.0172992
0.0246845
0.0379378
0.0452871
0.0421405
0.0207469
0.0123695
0.0242466
0.0130924
0.0116295
0.0114156
0.0112134
0.0106934
0.00976226
0.00853794
0.00717552
0.0058456
0.00468526
0.00376446
0.00308269
0.00259707
0.00225601
0.00201671
0.00184692
0.00172224
0.00162445
0.00154069
0.00146288
0.00138677
0.00131088
0.00123548
0.00116166
0.00109077
0.00102398
0.000962168
0.000905825
0.000855143
0.000810073
0.000770411
0.000735866
0.00070611
0.000680824
0.00065971
0.000642516
0.000629035
0.000619108
0.0006131
0.000610559
0.000610237
0.000614001
0.000621624
0.000633152
0.00064888
0.000669212
0.000694671
0.000725928
0.000763844
0.000809522
0.000864387
0.000930294
0.00100968
0.00110578
0.00122295
0.00136706
0.0015461
0.00177098
0.00205641
0.00242198
0.00289284
0.00349944
0.00427479
0.00524774
0.00643019
0.00779853
0.00927265
0.0107051
0.0119055
0.0127186
0.0132014
0.0140209
0.0160371
0.0215132
0.0331379
0.0453535
0.0474184
0.026504
0.0147663
0.0245214
0.0133934
0.011749
0.0114138
0.0111291
0.0104655
0.00941335
0.00809486
0.00668899
0.0053723
0.00426731
0.00341924
0.00280733
0.00237949
0.00208286
0.00187598
0.00172821
0.0016169
0.00152582
0.00144428
0.00136621
0.00128898
0.00121225
0.00113689
0.00106424
0.000995555
0.000931798
0.000873538
0.000820998
0.000774134
0.00073272
0.000696432
0.000664908
0.000637785
0.00061473
0.000595451
0.000579707
0.000567306
0.000558106
0.000552365
0.000549854
0.000549439
0.00055253
0.000559165
0.000569346
0.000583328
0.000601471
0.000624238
0.000652221
0.000686174
0.000727059
0.000776109
0.000834924
0.0009056
0.000990914
0.0010946
0.00122174
0.00137928
0.00157686
0.00182777
0.00215022
0.0025687
0.00311478
0.0038263
0.00474294
0.0058956
0.00728754
0.00886832
0.0105066
0.0119827
0.0131005
0.0136446
0.0140811
0.0154524
0.0191236
0.0286051
0.0439404
0.0500486
0.0339602
0.0175419
0.0245225
0.0135977
0.0117883
0.0113623
0.0109597
0.010193
0.00904789
0.0076652
0.0062411
0.00495308
0.00390755
0.00312773
0.00257732
0.00219846
0.00193834
0.0017571
0.00162583
0.00152377
0.00143676
0.00135616
0.00127762
0.00119979
0.00112312
0.00104882
0.000978218
0.000912397
0.000852042
0.000797449
0.000748607
0.000705294
0.000667167
0.000633832
0.000604893
0.00057998
0.000558768
0.00054098
0.000526393
0.000514836
0.000506181
0.00050058
0.000498029
0.000497493
0.000499954
0.000505692
0.000514677
0.00052713
0.000543374
0.000563824
0.000589009
0.000619596
0.000656433
0.000700601
0.000753491
0.000816918
0.000893279
0.000985788
0.00109882
0.00123841
0.00141296
0.00163426
0.00191888
0.00228976
0.00277799
0.00342355
0.00427338
0.00537379
0.00675364
0.00839699
0.0102088
0.0119872
0.0134349
0.0141899
0.0145593
0.0152865
0.0177548
0.0250247
0.0405413
0.0510178
0.0423017
0.0205923
0.0244019
0.0137306
0.0117681
0.0112393
0.0107393
0.00989009
0.00867818
0.00725716
0.00583446
0.00458496
0.00359913
0.00288163
0.00238463
0.00204695
0.0018166
0.00165545
0.00153642
0.00144068
0.0013561
0.00127585
0.00119703
0.00111925
0.00104344
0.000970926
0.000902921
0.000840266
0.000783377
0.000732318
0.000686896
0.000646765
0.00061151
0.000580704
0.000553944
0.000530869
0.00051117
0.000494591
0.000480931
0.000470036
0.000461794
0.000456253
0.000453616
0.000452944
0.00045483
0.000459758
0.000467681
0.000478792
0.000493379
0.00051182
0.000534591
0.000562293
0.000595681
0.000635713
0.000683614
0.000740971
0.000809866
0.000893083
0.0009944
0.00111904
0.0012743
0.00147055
0.00172256
0.00205135
0.0024864
0.00306766
0.00384593
0.00487849
0.00621556
0.0078737
0.00979683
0.0118142
0.0136229
0.0146911
0.0151246
0.015468
0.0170992
0.0224529
0.0362822
0.0510495
0.0500943
0.0234006
0.0241229
0.0138151
0.0117031
0.0110575
0.0104801
0.00956878
0.00831353
0.00687586
0.0054693
0.00426388
0.00333549
0.00267376
0.00222266
0.00191937
0.00171315
0.00156765
0.00145764
0.00136622
0.00128311
0.00120307
0.00112434
0.0010472
0.000972845
0.000902582
0.000837432
0.000777987
0.000724429
0.000676633
0.000634274
0.000596927
0.000564141
0.000535478
0.000510543
0.000488992
0.000470538
0.000454947
0.000442035
0.000431668
0.000423747
0.000418227
0.000415476
0.00041466
0.000416031
0.000420233
0.000427213
0.000437138
0.000450272
0.000466958
0.00048763
0.000512835
0.000543255
0.000579749
0.000623411
0.000675642
0.000738271
0.000813725
0.000905287
0.00101748
0.00115665
0.00133185
0.00155614
0.00184843
0.00223601
0.00275738
0.00346454
0.00442188
0.00569697
0.00733713
0.00932837
0.0115423
0.0136921
0.015219
0.0158041
0.0160136
0.016877
0.0205126
0.0318519
0.0504775
0.055601
0.0253536
0.0236906
0.0138394
0.0115802
0.0108375
0.010194
0.00923891
0.00796074
0.00652409
0.00514431
0.00398537
0.00311062
0.00249805
0.00208607
0.00181134
0.00162459
0.00149124
0.00138788
0.00129945
0.00121731
0.00113756
0.0010593
0.000983274
0.000910771
0.000842989
0.000780737
0.000724378
0.000673899
0.000629032
0.000589362
0.000554419
0.000523736
0.00049688
0.000473472
0.00045319
0.000435767
0.000420991
0.000408692
0.000398748
0.000391072
0.000385609
0.000382704
0.00038174
0.000382658
0.000386213
0.000392355
0.000401232
0.000413084
0.000428226
0.000447059
0.000470083
0.000497923
0.000531361
0.000571383
0.000619245
0.000676572
0.0007455
0.000828902
0.000930717
0.00105647
0.00121405
0.00141493
0.00167596
0.00202194
0.002489
0.00312822
0.00400739
0.00520632
0.0067982
0.00881029
0.0111663
0.0136345
0.0156507
0.0164919
0.0166906
0.016971
0.0194967
0.0283358
0.0481369
0.0582891
0.0261471
0.0231259
0.0138267
0.0114254
0.0105903
0.0098914
0.00890835
0.00762449
0.00620292
0.00485724
0.00374495
0.00291921
0.00234945
0.00197055
0.00171942
0.00154833
0.00142442
0.001326
0.00123969
0.00115831
0.00107901
0.00100156
0.000926974
0.000856531
0.000791282
0.000731826
0.000678329
0.000630624
0.000588337
0.000550999
0.000518114
0.000489215
0.000463884
0.00044176
0.000422542
0.000405984
0.000391888
0.000380101
0.000370509
0.000363034
0.000357625
0.000354565
0.000353457
0.000353984
0.000356965
0.000362364
0.000370311
0.000381027
0.000394804
0.000412013
0.000433117
0.000458695
0.000489466
0.000526333
0.000570434
0.000623231
0.000686629
0.000763163
0.00085629
0.000970834
0.00111369
0.0012949
0.00152939
0.00183943
0.00225833
0.00283491
0.00363763
0.00475425
0.00627897
0.0082762
0.0107158
0.0133945
0.0159085
0.0172112
0.0175117
0.0175481
0.01903
0.0261039
0.0446192
0.0592057
0.0262742
0.022453
0.0137886
0.0112493
0.0103259
0.00958084
0.00858316
0.00730774
0.00591216
0.00460536
0.00353839
0.00275665
0.00222377
0.00187266
0.00164094
0.00148241
0.00136583
0.00127113
0.00118641
0.00110572
0.00102707
0.000950682
0.000877715
0.000809396
0.000746606
0.000689754
0.000638845
0.000593593
0.000553552
0.000518219
0.00048709
0.000459706
0.000435665
0.000414627
0.00039631
0.000380484
0.000366968
0.000355618
0.000346329
0.000339025
0.000333661
0.000330454
0.000329207
0.000329407
0.000331884
0.000336623
0.000343745
0.000353453
0.000366016
0.000381783
0.000401185
0.000424763
0.000453186
0.000487289
0.000528121
0.000577012
0.000635681
0.000706393
0.000792207
0.000897363
0.0010279
0.00119262
0.00140468
0.00168395
0.00206071
0.00258064
0.0033107
0.00434259
0.00578654
0.00774237
0.010236
0.0131243
0.0160009
0.0178689
0.0183672
0.018246
0.0188862
0.02413
0.0412034
0.0591873
0.025922
0.0217053
0.013723
0.0110596
0.0100529
0.00926936
0.00826791
0.00701219
0.00565088
0.0043857
0.00336179
0.00261904
0.00211758
0.00178962
0.00157377
0.0014253
0.00131446
0.00122261
0.00113916
0.00105918
0.000981327
0.000906155
0.000834883
0.000768644
0.000708157
0.000653671
0.000605059
0.000561948
0.000523846
0.000490229
0.000460597
0.000434502
0.000411559
0.000391446
0.000373898
0.000358701
0.000345684
0.000334714
0.00032569
0.000318539
0.000313219
0.000309874
0.000308478
0.000308429
0.00031046
0.000314615
0.000321004
0.000329814
0.000341296
0.000355776
0.000373661
0.000395459
0.000421798
0.000453461
0.000491422
0.000536912
0.000591502
0.000657238
0.000736858
0.000834117
0.00095433
0.00110524
0.00129842
0.00155152
0.00189182
0.00236147
0.00302442
0.00397302
0.00532777
0.00721637
0.00971543
0.012753
0.0160069
0.0184676
0.0192921
0.0191497
0.0191112
0.022854
0.0378781
0.0574842
0.0253033
0.0209035
0.0136442
0.0108638
0.00977809
0.00896257
0.00796592
0.00673859
0.00541752
0.00419521
0.00321166
0.0025031
0.00202808
0.00171921
0.00151626
0.00137582
0.00126949
0.00117989
0.00109752
0.00101829
0.000941344
0.000867463
0.000797872
0.000733597
0.000675211
0.000622831
0.000576229
0.00053497
0.000498531
0.00046638
0.000438024
0.000413027
0.000391022
0.000371702
0.000354818
0.000340166
0.000327585
0.000316948
0.00030816
0.00030115
0.000295875
0.000292407
0.000290835
0.000290618
0.000292257
0.000295896
0.000301635
0.000309645
0.000320162
0.000333492
0.00035002
0.000370224
0.000394703
0.000424193
0.000459615
0.000502115
0.000553152
0.000614599
0.000688933
0.000779515
0.000891057
0.00103039
0.0012077
0.00143865
0.00174764
0.00217316
0.00277527
0.00364463
0.00490772
0.00671479
0.00918816
0.0123171
0.0158358
0.0189452
0.0201914
0.0201506
0.0197293
0.0220579
0.034921
0.0552071
0.0244829
0.0200632
0.0135675
0.0106704
0.0095078
0.00866495
0.00767948
0.00648695
0.00521029
0.00403117
0.00308496
0.00240604
0.001953
0.00165967
0.00146708
0.00133304
0.00123027
0.00114248
0.00106109
0.000982645
0.000906677
0.000834098
0.000766111
0.000703638
0.00064713
0.000596596
0.000551732
0.000512061
0.000477042
0.00044614
0.000418871
0.000394813
0.000373612
0.000354976
0.000338666
0.00032449
0.000312292
0.000301951
0.000293373
0.000286491
0.000281262
0.000277692
0.000275959
0.000275595
0.000276899
0.000280085
0.000285247
0.000292546
0.000302201
0.000314501
0.000329811
0.000348586
0.000371395
0.000398941
0.000432097
0.000471949
0.000519863
0.000577581
0.000647371
0.000732274
0.000836503
0.000966112
0.00113011
0.00134236
0.00162464
0.00201179
0.00255949
0.00335489