/*--------------------------------*- C++ -*----------------------------------*\
  =========                 |
  \\      /  F ield         | OpenFOAM: The Open Source CFD Toolbox
   \\    /   O peration     | Website:  https://openfoam.org
    \\  /    A nd           | Version:  13
     \\/     M anipulation  |
\*---------------------------------------------------------------------------*/
FoamFile
{
    format      ascii;
    class       volScalarField;
    location    "4.2";
    object      k;
}
// * * * * * * * * * * * * * * * * * * * * * * * * * * * * * * * * * * * * * //

dimensions      [0 2 -2 0 0 0 0];

internalField   nonuniform List<scalar> 
6400
(
4.16858e-07
2.13415e-06
5.11124e-06
8.24807e-06
1.07116e-05
1.22268e-05
1.29536e-05
1.32703e-05
1.36027e-05
1.43469e-05
1.58322e-05
1.83543e-05
2.21631e-05
2.73167e-05
3.3624e-05
4.08048e-05
4.85483e-05
5.67569e-05
6.50326e-05
7.31506e-05
8.12199e-05
8.98246e-05
9.97725e-05
0.000111795
0.000125849
0.000140854
0.000155722
0.000170576
0.00018567
0.000201363
0.000217664
0.000233997
0.000250001
0.000265568
0.00028099
0.000296513
0.00031239
0.000328859
0.000346107
0.000364313
0.000383568
0.000404021
0.00042583
0.000449142
0.000474133
0.000501102
0.000530939
0.000565525
0.000608869
0.000652291
0.000696766
0.000740389
0.000782742
0.000822398
0.000858075
0.000888282
0.000910777
0.000921833
0.000926008
0.00092019
0.000898161
0.00086159
0.000810716
0.000746399
0.000671672
0.00058828
0.000501507
0.000415165
0.000332952
0.00025671
0.000194088
0.000142227
9.99404e-05
6.72157e-05
4.3407e-05
2.69729e-05
1.61477e-05
9.1458e-06
4.25952e-06
9.03537e-07
2.0312e-06
1.71438e-05
4.12974e-05
6.50657e-05
8.33656e-05
9.50797e-05
0.000101615
0.000105389
0.000109083
0.000115236
0.000126619
0.000145585
0.000173293
0.000209454
0.000252736
0.000301307
0.000353458
0.000407384
0.000461611
0.000515232
0.000569021
0.000626112
0.000690893
0.00076682
0.000852901
0.000943185
0.00103173
0.00111764
0.00120083
0.00128188
0.00136003
0.00143323
0.00150034
0.0015611
0.00161721
0.00166999
0.00172082
0.00177099
0.00182152
0.0018734
0.00192721
0.00198359
0.00204313
0.00210599
0.00217212
0.00224113
0.00231288
0.0023857
0.00245715
0.00253394
0.00261259
0.0026934
0.00277311
0.00285013
0.00292089
0.00298208
0.00302805
0.00305002
0.00305538
0.00303765
0.00298617
0.00289866
0.00277415
0.00261216
0.00241696
0.00219344
0.00195314
0.00170517
0.0014569
0.00121666
0.000985153
0.000770937
0.00058231
0.000423403
0.00029579
0.000197426
0.00012545
7.46068e-05
3.56233e-05
4.74541e-06
4.48512e-06
3.77915e-05
8.79315e-05
0.000131582
0.000162572
0.000182134
0.000194282
0.000203686
0.000215092
0.0002332
0.000262548
0.000306624
0.000366833
0.000442123
0.000529823
0.000626982
0.000731176
0.000840284
0.000952161
0.0010649
0.00117691
0.00128709
0.00139439
0.00149532
0.00158493
0.00166025
0.00171873
0.00176048
0.00179183
0.00181832
0.00184476
0.00187236
0.00190219
0.00193248
0.00196456
0.00199929
0.00203729
0.00207924
0.00212545
0.00217665
0.00223277
0.0022938
0.00236013
0.00243132
0.00250757
0.00258878
0.00267485
0.00276518
0.00286076
0.00296134
0.00306535
0.00317178
0.00327847
0.00338328
0.00348298
0.0035738
0.00365109
0.00370845
0.00373572
0.00374108
0.00371329
0.00364248
0.0035273
0.00336511
0.00315793
0.00290797
0.00262973
0.00233448
0.00203083
0.00173025
0.00144259
0.00117547
0.00093503
0.000724963
0.000546698
0.000399694
0.000280866
0.000182998
9.22289e-05
1.24616e-05
7.83037e-06
6.42191e-05
0.000140725
0.000200475
0.000241202
0.000268019
0.00028755
0.000306555
0.000331707
0.000369482
0.000425556
0.000503408
0.000603143
0.000721623
0.000854026
0.000995504
0.00114154
0.00128747
0.00142827
0.00155896
0.00167451
0.00177166
0.00184886
0.00190271
0.0019292
0.00193888
0.0019401
0.00193716
0.00193622
0.00193882
0.0019466
0.00195773
0.00197291
0.00199246
0.0020168
0.0020458
0.00207963
0.00211855
0.00216249
0.0022114
0.00226562
0.00232504
0.00238993
0.00246014
0.00253568
0.00261617
0.00270224
0.0027943
0.00289219
0.00299549
0.00310344
0.00321497
0.00332846
0.0034419
0.00355251
0.00365675
0.00375025
0.0038279
0.00387976
0.00390132
0.00389844
0.00385231
0.00376396
0.00363547
0.00345636
0.00322486
0.00295022
0.00264446
0.00232179
0.00199661
0.00168204
0.0013888
0.00112412
0.000891729
0.00069265
0.000525806
0.000386966
0.000266836
0.00014379
2.02677e-05
1.25621e-05
9.96051e-05
0.000203768
0.00027914
0.000329863
0.000365289
0.000394866
0.000427687
0.000472444
0.000537019
0.000627093
0.000744381
0.000885887
0.00104503
0.00121381
0.00138424
0.00154861
0.00169907
0.00182767
0.00192945
0.00199875
0.0020311
0.00203988
0.00202549
0.00199846
0.00197448
0.00195446
0.00193892
0.0019312
0.00192814
0.00192805
0.00193345
0.00194287
0.00195676
0.00197484
0.00199674
0.00202256
0.00205203
0.00208483
0.00212115
0.00216097
0.00220438
0.00225177
0.00230378
0.00236094
0.0024241
0.0024931
0.00256803
0.00264924
0.00273685
0.00283094
0.00293132
0.0030374
0.00314811
0.00326194
0.00337666
0.00348907
0.00359452
0.00368754
0.00376208
0.00379998
0.00380956
0.00377209
0.00368409
0.00354326
0.00336139
0.00311651
0.00282404
0.00250001
0.00216191
0.00182752
0.00151255
0.00122808
0.000979685
0.000768362
0.000592011
0.000445127
0.000315939
0.000177367
2.5379e-05
1.92768e-05
0.000146758
0.000280676
0.000372598
0.00043473
0.000480883
0.000523615
0.000574538
0.000644094
0.000740424
0.000867376
0.00102296
0.00119971
0.00138676
0.0015723
0.00174495
0.00189431
0.00201201
0.00208604
0.00211643
0.00211992
0.00208714
0.00204896
0.00201254
0.00197551
0.00194378
0.00191689
0.00189528
0.0018786
0.00186532
0.00185651
0.00185262
0.0018515
0.00185352
0.00185898
0.00186676
0.00187712
0.00188972
0.00190459
0.00192216
0.00194241
0.00196574
0.0019923
0.00202219
0.0020559
0.00209386
0.00213653
0.00218463
0.002239
0.00230059
0.00237026
0.00244902
0.00253763
0.00263641
0.00274515
0.00286284
0.00298768
0.00311732
0.00324709
0.00337139
0.00348132
0.00356318
0.00359933
0.00360206
0.00353921
0.00341623
0.003232
0.0029744
0.00266293
0.0023175
0.00196141
0.00161785
0.00130526
0.00103423
0.000807341
0.000621402
0.000468847
0.000335473
0.000191496
2.7086e-05
2.85663e-05
0.000207472
0.000373584
0.000483432
0.000558616
0.000617687
0.000676497
0.000748949
0.000846267
0.000975089
0.00113546
0.0013203
0.00151708
0.00171073
0.00188618
0.00203026
0.00213047
0.00217607
0.00218502
0.00215382
0.00210936
0.00205741
0.00200464
0.00195107
0.00190138
0.00185986
0.00182407
0.00179384
0.00176801
0.00174723
0.00173064
0.00171705
0.00170597
0.00169738
0.00169097
0.00168651
0.00168433
0.00168359
0.00168431
0.00168743
0.00169218
0.00169908
0.00170822
0.00171979
0.00173413
0.00175164
0.00177278
0.0017982
0.00182862
0.00186523
0.00190917
0.00196193
0.00202539
0.00210175
0.00219293
0.00230011
0.00242292
0.00256299
0.00271672
0.00287904
0.00304313
0.00320127
0.00333837
0.00342541
0.00345697
0.00342997
0.00333428
0.00314216
0.00286405
0.00252219
0.0021441
0.00176198
0.00140564
0.00109584
0.000840573
0.000636773
0.000474415
0.000335281
0.000190439
2.62862e-05
4.09869e-05
0.000282754
0.000483255
0.000612408
0.000702128
0.000775873
0.000852663
0.000947977
0.00107231
0.00122896
0.00141276
0.00161111
0.00180694
0.00198225
0.0021211
0.0022021
0.00223035
0.00221928
0.00217421
0.00211631
0.00204662
0.00196874
0.00189939
0.00183681
0.00178522
0.00173982
0.00170011
0.00166534
0.00163486
0.00160842
0.00158522
0.00156486
0.00154714
0.00153191
0.00151899
0.00150816
0.00149926
0.00149209
0.00148681
0.00148363
0.00148222
0.00148196
0.00148405
0.00148817
0.00149454
0.00150345
0.00151531
0.00153058
0.00154981
0.00157335
0.00160187
0.0016362
0.00167734
0.0017267
0.0017864
0.00186012
0.00195343
0.00206949
0.00221292
0.00238287
0.00257105
0.00277423
0.0029793
0.00317098
0.00331471
0.0033779
0.00338159
0.00330579
0.00310315
0.00279234
0.00240665
0.00198515
0.00157117
0.00120153
0.000897116
0.000660161
0.000478616
0.000330514
0.000184846
2.45689e-05
5.69561e-05
0.00037259
0.00060934
0.000758901
0.000864127
0.000953297
0.00104813
0.00116458
0.00131085
0.00148551
0.00167775
0.00187004
0.00204221
0.002176
0.00224368
0.0022616
0.0022353
0.00218635
0.00210909
0.0020139
0.00192195
0.00184177
0.00177135
0.00170973
0.00165664
0.00160914
0.00156718
0.00152997
0.00149719
0.00146848
0.00144346
0.00142193
0.00140367
0.00138842
0.0013759
0.0013659
0.0013582
0.00135254
0.00134902
0.00134741
0.00134695
0.0013481
0.00135127
0.00135608
0.00136287
0.00137176
0.00138289
0.00139652
0.00141289
0.00143228
0.00145502
0.00148159
0.00151242
0.0015481
0.00158943
0.00163761
0.00169493
0.00176442
0.00185229
0.00196983
0.0021319
0.00233425
0.00256498
0.00281271
0.00305547
0.00326155
0.00336126
0.00338009
0.0033184
0.00309703
0.00274062
0.00230006
0.00182911
0.00138347
0.00100515
0.000710983
0.000493535
0.000327347
0.000175393
2.29835e-05
7.66942e-05
0.000475885
0.000750338
0.000921036
0.00104191
0.00114575
0.0012563
0.00138883
0.00154805
0.00172731
0.00191073
0.00207758
0.00220556
0.00226707
0.0022797
0.00224857
0.00218651
0.00208992
0.00197885
0.00187778
0.00178678
0.00170839
0.00163954
0.00157923
0.00152622
0.00147916
0.00143802
0.00140227
0.00137171
0.001346
0.0013248
0.00130775
0.00129444
0.00128443
0.00127725
0.00127256
0.00127027
0.00126946
0.00126972
0.00127188
0.00127502
0.00127954
0.00128533
0.00129243
0.00130096
0.00131104
0.00132282
0.00133652
0.00135237
0.00137062
0.00139155
0.00141528
0.00144204
0.00147205
0.00150553
0.0015426
0.001584
0.00163078
0.00168564
0.00175386
0.00184393
0.00196935
0.00215891
0.00240833
0.00268704
0.00298144
0.00324604
0.00338092
0.00341303
0.00335088
0.00309823
0.00268388
0.00218121
0.00166129
0.00119095
0.000813215
0.000534503
0.00033484
0.000170979
2.2206e-05
0.000100575
0.000589783
0.000903725
0.00109579
0.00123135
0.00134735
0.00146884
0.00160952
0.00177006
0.00193897
0.00209682
0.00221969
0.00227815
0.00228884
0.002257
0.00218457
0.00207199
0.00195066
0.00183772
0.00173865
0.00165183
0.00157684
0.00151103
0.00145364
0.0014037
0.00136069
0.00132446
0.00129454
0.00127053
0.00125187
0.00123795
0.00122808
0.00122158
0.00121828
0.00121695
0.00121677
0.00121849
0.00122114
0.00122474
0.00122932
0.00123465
0.00124094
0.0012482
0.00125657
0.00126622
0.0012773
0.00129003
0.0013046
0.00132121
0.00134002
0.00136116
0.00138472
0.00141077
0.00143939
0.00147065
0.00150476
0.0015411
0.00157968
0.00162088
0.00166652
0.00172106
0.00179153
0.00189205
0.00204545
0.00229141
0.0025999
0.00293838
0.00325449
0.00341912
0.00345864
0.00338379
0.00308094
0.002597
0.00203031
0.00146904
0.000987721
0.000621736
0.000363788
0.000175708
2.26931e-05
0.000129733
0.000710596
0.00106637
0.00127917
0.00142721
0.00155119
0.00167687
0.00181589
0.00196506
0.00210926
0.00222607
0.00228273
0.00229307
0.00226152
0.00218118
0.00205889
0.00193007
0.00180678
0.00169823
0.00160445
0.00152315
0.00145307
0.00139242
0.00134073
0.00129734
0.00126184
0.00123374
0.00121227
0.00119663
0.00118588
0.00117927
0.00117608
0.00117494
0.0011749
0.00117663
0.001179
0.00118222
0.00118586
0.00119005
0.00119481
0.00120022
0.00120646
0.00121369
0.00122214
0.00123202
0.00124358
0.00125705
0.00127268
0.00129067
0.00131119
0.00133437
0.00136025
0.00138878
0.00141976
0.00145289
0.00148781
0.00152415
0.00156182
0.00160047
0.00163912
0.00167945
0.0017246
0.00178121
0.00186372
0.00199636
0.00221692
0.00254742
0.00292266
0.0032858
0.00346603
0.00350391
0.0033981
0.00301889
0.00245718
0.00183073
0.00124458
0.000771373
0.000430688
0.00019532
2.51254e-05
0.000162443
0.000838376
0.00123481
0.00146655
0.00162374
0.00175024
0.00187213
0.00199903
0.00212472
0.00223206
0.00228682
0.00229753
0.00226648
0.00218371
0.00205629
0.00191847
0.00178645
0.00166818
0.00156669
0.00147977
0.00140536
0.00134221
0.00128924
0.00124595
0.00121159
0.00118538
0.0011663
0.00115317
0.00114481
0.00114052
0.00113869
0.00113824
0.00113879
0.00114017
0.00114204
0.00114408
0.0011464
0.00114892
0.00115184
0.0011553
0.00115951
0.00116471
0.00117113
0.00117903
0.00118867
0.00120032
0.00121424
0.0012307
0.00124996
0.00127223
0.00129771
0.00132648
0.00135853
0.00139368
0.00143153
0.00147146
0.00151257
0.00155389
0.00159455
0.00163428
0.00167141
0.00170853
0.00174727
0.00179424
0.00186458
0.0019802
0.00218258
0.00252441
0.00293714
0.00332968
0.00351204
0.00353653
0.00337254
0.0028884
0.002244
0.00157287
0.000987448
0.000546542
0.000240447
3.14204e-05
0.000197801
0.000970139
0.00140484
0.00165292
0.00181521
0.00193807
0.00204792
0.00215292
0.00224526
0.00229629
0.00230707
0.00227562
0.00219423
0.00206469
0.00191942
0.00177762
0.00164994
0.0015398
0.00144667
0.00136795
0.00130203
0.00124785
0.00120444
0.00117094
0.00114615
0.00112875
0.00111727
0.00111028
0.00110668
0.00110504
0.00110438
0.00110419
0.00110417
0.00110432
0.00110439
0.00110443
0.00110462
0.0011051
0.00110609
0.00110782
0.00111058
0.00111458
0.00112008
0.00112733
0.00113659
0.00114811
0.00116217
0.00117905
0.00119904
0.00122242
0.00124947
0.00128042
0.00131539
0.00135438
0.00139715
0.00144316
0.00149147
0.00154071
0.00158913
0.0016349
0.00167702
0.00171309
0.0017443
0.00177836
0.00182148
0.00188286
0.00198877
0.00218231
0.00253025
0.0029819
0.00338316
0.00354925
0.00354313
0.00326411
0.00266535
0.00194594
0.00125856
0.000707514
0.00031282
4.23202e-05
0.000234617
0.00110233
0.00157202
0.00183333
0.00199627
0.00210933
0.00219949
0.00227444
0.00231738
0.00232651
0.00229269
0.00221457
0.00208533
0.00193438
0.00178271
0.00164439
0.00152486
0.00142421
0.00134043
0.0012712
0.00121514
0.00117108
0.00113771
0.0011136
0.00109702
0.00108625
0.00107964
0.00107575
0.00107341
0.00107164
0.00106994
0.00106805
0.00106592
0.00106359
0.00106113
0.00105875
0.00105667
0.00105532
0.00105478
0.00105486
0.00105653
0.00105966
0.00106451
0.00107129
0.00108021
0.00109152
0.00110547
0.00112233
0.00114241
0.00116605
0.0011936
0.00122541
0.00126181
0.00130302
0.00134911
0.00139988
0.0014547
0.0015124
0.00157112
0.00162831
0.00168097
0.00172832
0.00176701
0.00178979
0.00181603
0.00185623
0.00191266
0.00201474
0.00220783
0.00256764
0.00305335
0.00343909
0.00357579
0.00348761
0.00305025
0.00233447
0.00156642
0.000904175
0.000405939
5.68068e-05
0.000271714
0.00123164
0.00173219
0.00200337
0.00216246
0.00225979
0.00232364
0.00235493
0.00235916
0.0023215
0.00224687
0.00211943
0.00196467
0.00180358
0.00165339
0.00152275
0.00141313
0.00132274
0.00124914
0.00119026
0.00114458
0.00111049
0.00108613
0.00106953
0.00105866
0.00105166
0.00104698
0.0010434
0.00104007
0.00103649
0.00103247
0.00102803
0.00102327
0.0010184
0.00101365
0.00100928
0.00100556
0.00100274
0.00100126
0.00100075
0.00100162
0.00100441
0.00100897
0.00101554
0.00102427
0.00103537
0.00104906
0.00106559
0.00108526
0.00110844
0.00113551
0.00116693
0.00120316
0.00124466
0.00129182
0.00134484
0.00140359
0.00146746
0.00153509
0.0016042
0.00167143
0.00173252
0.00178559
0.00182549
0.00184304
0.00185975
0.00189442
0.00195107
0.00205312
0.00225431
0.00264286
0.00315736
0.00348316
0.00356048
0.00335109
0.00271274
0.00189585
0.00112671
0.00051369
7.38932e-05
0.000307809
0.00135481
0.0018819
0.00215966
0.00231097
0.00238528
0.00241256
0.00241049
0.00236906
0.00229314
0.00216846
0.00201147
0.00184192
0.001679
0.00153513
0.00141432
0.00131541
0.00123574
0.00117273
0.00112428
0.0010884
0.00106292
0.00104551
0.00103389
0.001026
0.00102017
0.00101513
0.00101008
0.00100457
0.000998463
0.000991836
0.000984882
0.000977856
0.000971036
0.000964699
0.00095911
0.000954498
0.000951061
0.000949262
0.00094863
0.000949345
0.000952176
0.000956768
0.000963352
0.000972032
0.000982972
0.000996354
0.00101241
0.00103141
0.0010537
0.00107968
0.00110985
0.00114476
0.00118501
0.00123124
0.001284
0.00134369
0.00141032
0.0014833
0.00156112
0.00164109
0.001719
0.00178924
0.00184814
0.00188715
0.00190095
0.00190991
0.00193763
0.00199548
0.00210203
0.00232347
0.00275831
0.00327508
0.00350795
0.00349067
0.00305357
0.00223551
0.00136937
0.000631261
9.25603e-05
0.000342746
0.00146878
0.00201856
0.00229938
0.00243462
0.00248127
0.00248211
0.00243905
0.00235573
0.00223453
0.00207611
0.00189932
0.00172346
0.00156429
0.00142945
0.00131942
0.00123151
0.00116261
0.00110998
0.00107114
0.00104358
0.00102464
0.00101175
0.00100263
0.000995456
0.000988918
0.000982189
0.000974866
0.000966861
0.000958303
0.000949444
0.000940584
0.000932029
0.000924066
0.000916951
0.0009109
0.000906087
0.0009027
0.000901049
0.000900542
0.000901585
0.000904671
0.000909494
0.000916223
0.000924941
0.000935774
0.000948873
0.000964433
0.000982697
0.00100397
0.00102865
0.0010572
0.00109019
0.00112831
0.00117231
0.00122302
0.00128122
0.0013475
0.00142204
0.00150432
0.00159267
0.00168386
0.00177275
0.00185212
0.00191649
0.00194986
0.0019592
0.00196269
0.00198438
0.00204416
0.002163
0.00242499
0.00291556
0.00337055
0.00351545
0.00330819
0.00256978
0.00162847
0.000755601
0.000112005
0.00037528
0.00157194
0.00213866
0.00241579
0.00253268
0.00255841
0.00252469
0.00243935
0.00232052
0.00216027
0.00197732
0.00178896
0.00161299
0.00146104
0.00133656
0.00123758
0.00116053
0.00110197
0.00105882
0.00102812
0.00100688
0.00099223
0.000981622
0.000973038
0.000965051
0.000956793
0.000947865
0.000938213
0.000928008
0.000917541
0.000907148
0.000897153
0.000887849
0.000879481
0.000872244
0.00086629
0.000861729
0.000858826
0.000857538
0.000857281
0.000858852
0.000862267
0.000867372
0.000874278
0.000883057
0.000893808
0.000906659
0.000921773
0.000939362
0.000959692
0.000983105
0.00101004
0.00104102
0.00107674
0.00111799
0.0011657
0.00122091
0.00128463
0.0013577
0.0014405
0.00153254
0.00163192
0.00173483
0.00183504
0.00192374
0.00198811
0.00201381
0.00201803
0.00201654
0.00203259
0.00209713
0.00224009
0.00256695
0.00311255
0.00340845
0.00341944
0.00287943
0.00189944
0.000882869
0.000132222
0.000404357
0.00166236
0.00223933
0.00250988
0.00260855
0.00261517
0.00254705
0.00242607
0.00226604
0.00207755
0.0018776
0.00168419
0.00151236
0.00136955
0.00125589
0.00116779
0.00110106
0.00105191
0.00101683
0.000992434
0.000975484
0.000963121
0.000953072
0.000943731
0.000934131
0.000923838
0.000912801
0.000901217
0.000889409
0.000877736
0.000866538
0.000856107
0.00084668
0.000838433
0.000831495
0.000825952
0.000821864
0.000819554
0.000818673
0.000818735
0.000820795
0.000824503
0.000829835
0.000836871
0.000845674
0.000856332
0.000868955
0.000883684
0.000900698
0.000920227
0.000942565
0.00096809
0.000997283
0.00103076
0.00106928
0.00111379
0.00116542
0.00122542
0.00129508
0.00137551
0.00146725
0.00156978
0.0016808
0.00179555
0.00190627
0.00200225
0.00206309
0.00207852
0.00207655
0.00206779
0.00208163
0.00215794
0.00234282
0.00277006
0.00326912
0.00343482
0.00313961
0.00217687
0.00101171
0.000153086
0.000429029
0.0017382
0.00231971
0.00258171
0.00266517
0.00264942
0.0025467
0.00239432
0.00220169
0.00199129
0.00178074
0.00158713
0.00142213
0.00128938
0.00118646
0.00110868
0.00105138
0.00101035
0.000981695
0.000961754
0.000947285
0.000935674
0.000925058
0.0009143
0.000902874
0.0008907
0.00087798
0.000865054
0.000852302
0.000840077
0.000828672
0.000818315
0.000809167
0.000801336
0.00079489
0.00078987
0.000786301
0.000784476
0.000783852
0.000784343
0.000786689
0.000790583
0.000796031
0.000803101
0.000811857
0.000822381
0.000834772
0.000849156
0.00086569
0.000884571
0.000906051
0.00093045
0.000958181
0.00098978
0.00102593
0.00106752
0.00111564
0.00117163
0.00123701
0.00131337
0.00140213
0.00150399
0.00161828
0.00174205
0.00186901
0.00198879
0.00208671
0.0021365
0.00214445
0.00212871
0.00211204
0.00213417
0.00223272
0.00249473
0.00302042
0.00332209
0.00327276
0.00245284
0.00115052
0.000175589
0.000448866
0.0017991
0.00238039
0.00263302
0.00270413
0.00266574
0.0025358
0.00234921
0.0021315
0.00190514
0.00168914
0.00149876
0.00134214
0.00121966
0.00112702
0.00105873
0.0010097
0.000975327
0.000951442
0.000934329
0.000920943
0.000909062
0.000897289
0.000884939
0.000871852
0.000858206
0.000844348
0.000830674
0.000817549
0.000805273
0.000794067
0.000784079
0.000775403
0.000768085
0.000762149
0.0007576
0.000754486
0.000752977
0.000752525
0.0007533
0.000755761
0.000759702
0.000765135
0.000772127
0.000780748
0.000791078
0.000803213
0.00081727
0.000833391
0.000851748
0.000872558
0.000896092
0.000922701
0.000952838
0.000987097
0.00102625
0.00107131
0.00112356
0.00118457
0.00125619
0.00134036
0.00143879
0.00155232
0.00168003
0.00181806
0.00195849
0.00208857
0.00217736
0.00220864
0.00220865
0.00216987
0.00214955
0.00219128
0.00233547
0.00273752
0.0032013
0.00331435
0.0027302
0.00132049
0.000203908
0.000463678
0.00184554
0.00242265
0.00266531
0.00272502
0.002664
0.00251013
0.00229662
0.00205891
0.00182166
0.00160415
0.00141927
0.00127176
0.00115932
0.00107624
0.00101642
0.000974357
0.000945181
0.000924594
0.000909016
0.000895752
0.000883034
0.000869923
0.000856116
0.000841729
0.000827096
0.000812624
0.000798693
0.000785614
0.000773608
0.000762817
0.00075332
0.000745151
0.000738315
0.000732806
0.000728611
0.000725783
0.000724436
0.000724065
0.000724928
0.000727352
0.000731201
0.000736492
0.0007433
0.000751697
0.000761767
0.000773609
0.000787336
0.000803078
0.000820994
0.000841274
0.00086415
0.00088992
0.000918965
0.000951788
0.000989052
0.00103164
0.00108071
0.00113778
0.00120472
0.00128374
0.00137719
0.00148705
0.00161407
0.00175657
0.00190887
0.00205994
0.00219262
0.0022667
0.0022814
0.002259
0.00220364
0.00218603
0.00225847
0.00250658
0.00302582
0.00327376
0.00297581
0.00153433
0.000241586
0.000473655
0.00187846
0.00244776
0.00267978
0.00272883
0.00265248
0.00247361
0.0022393
0.00198646
0.00174251
0.0015264
0.00134841
0.00121017
0.00110722
0.00103282
0.000980334
0.000943957
0.000918641
0.000900146
0.000885175
0.000871457
0.000857681
0.000843313
0.000828348
0.000813077
0.00079791
0.000783244
0.000769407
0.000756631
0.000745056
0.000734754
0.000725746
0.000718025
0.000711571
0.00070636
0.000702378
0.000699649
0.000698323
0.000697943
0.000698718
0.000700971
0.000704608
0.000709651
0.000716178
0.000724272
0.000734021
0.000745527
0.000758902
0.000774277
0.000791797
0.000811634
0.000833997
0.000859139
0.000887384
0.000919154
0.000955008
0.000995699
0.00104224
0.00109601
0.00115878
0.00123282
0.00132081
0.00142554
0.00154923
0.00169241
0.0018522
0.00202051
0.00218259
0.00230192
0.00234768
0.00234781
0.00228535
0.00223152
0.00223342
0.00237079
0.00279299
0.00315329
0.00311996
0.0017871
0.000288397
0.000479022
0.00189815
0.00245622
0.00267875
0.00272153
0.0026277
0.00243038
0.00217972
0.001916
0.00166871
0.00145603
0.00128562
0.00115643
0.00106227
0.000995565
0.000949281
0.000917385
0.000894804
0.000877492
0.000862523
0.000848072
0.000833249
0.000817846
0.000802066
0.000786298
0.000770958
0.000756396
0.000742865
0.000730515
0.000719415
0.000709579
0.000700988
0.000693609
0.000687408
0.000682359
0.000678448
0.000675675
0.000674236
0.000673768
0.000674319
0.000676296
0.000679624
0.000684333
0.000690505
0.000698229
0.000707601
0.000718727
0.000731723
0.000746719
0.000763858
0.000783301
0.000805238
0.000829893
0.000857546
0.000888552
0.000923384
0.000962674
0.00100729
0.00105843
0.00111772
0.00118732
0.00126996
0.00136887
0.00148728
0.00162746
0.00178905
0.00196685
0.00214861
0.00231364
0.00240783
0.00242728
0.00239117
0.00228763
0.00224311
0.00230389
0.00259522
0.00306587
0.0031721
0.00207255
0.000342609
0.000479042
0.00190679
0.00245339
0.00266884
0.00270271
0.00259383
0.00238258
0.00211977
0.00184884
0.00160079
0.00139286
0.00123027
0.00110965
0.00102345
0.000963443
0.000922282
0.00089382
0.00087308
0.000856311
0.000840998
0.000825742
0.000810012
0.000793845
0.000777572
0.000761616
0.000746358
0.00073208
0.000718953
0.000707055
0.000696398
0.000686954
0.000678677
0.000671522
0.00066545
0.000660439
0.000656477
0.000653571
0.000651899
0.000651273
0.000651514
0.000653135
0.000656085
0.000660397
0.000666157
0.000673459
0.000682407
0.000693113
0.000705697
0.000720293
0.000737043
0.000756105
0.000777659
0.00080191
0.000829105
0.000859551
0.000893648
0.000931927
0.000975125
0.00102426
0.00108078
0.00114663
0.00122449
0.00131769
0.00143012
0.00156543
0.00172562
0.00190868
0.00210585
0.00229945
0.0024441
0.00249726
0.0024909
0.00239382
0.00229164
0.00227993
0.00243789
0.00292475
0.00317088
0.00237531
0.000402193
0.000476686
0.00190617
0.00244196
0.00264636
0.00267228
0.00255333
0.00233203
0.00206089
0.00178581
0.00153894
0.00133654
0.00118164
0.00106897
0.00098987
0.00093559
0.000898582
0.000872684
0.000853115
0.000836472
0.000820655
0.000804647
0.000788203
0.00077153
0.000755028
0.000739105
0.000724085
0.000710174
0.000697471
0.000685993
0.000675708
0.00066656
0.000658491
0.000651451
0.000645404
0.000640333
0.000636235
0.000633126
0.000631131
0.000630266
0.000630189
0.000631394
0.000633918
0.000637792
0.0006431
0.000649943
0.00065843
0.00066868
0.000680819
0.000694985
0.000711325
0.000729998
0.000751179
0.000775063
0.000801876
0.000831891
0.00086545
0.000903007
0.00094518
0.000992837
0.00104721
0.00111006
0.00118382
0.00127178
0.00137807
0.00150725
0.00166316
0.00184666
0.00205239
0.00226517
0.0024576
0.00256085
0.00257871
0.00251082
0.00235421
0.00228697
0.00236277
0.00273567
0.00306354
0.00264532
0.00045705
0.000471235
0.0019005
0.00241857
0.00261362
0.00263393
0.00250798
0.00228021
0.00200411
0.00172741
0.00148313
0.00128662
0.00113907
0.00103362
0.000960753
0.000911309
0.000877615
0.000853588
0.000834708
0.000817946
0.000801588
0.000784942
0.00076798
0.00075102
0.00073448
0.000718729
0.000704023
0.000690497
0.000678187
0.000667063
0.000657064
0.000648119
0.000640164
0.00063315
0.000627048
0.000621848
0.000617559
0.000614206
0.000611834
0.000610623
0.000610288
0.000611039
0.000613109
0.000616521
0.000621354
0.000627713
0.000635713
0.000645477
0.000657141
0.000670846
0.000686746
0.000705005
0.000725798
0.000749319
0.000775782
0.000805436
0.000838585
0.000875619
0.00091706
0.000963643
0.00101642
0.00107692
0.00114732
0.00123073
0.00133127
0.00145399
0.00160415
0.00178526
0.00199592
0.00222569
0.00245158
0.00260862
0.00265681
0.00262485
0.00246606
0.00233211
0.00232801
0.00261031
0.00297385
0.00283246
0.000495203
0.000462788
0.00188744
0.00238735
0.00257373
0.00258947
0.00245928
0.00222826
0.00195016
0.00167391
0.00143319
0.00124261
0.0011019
0.00100293
0.000935463
0.000890051
0.000858967
0.000836278
0.00081776
0.000800751
0.000783885
0.000766733
0.000749426
0.000732344
0.00071589
0.000700382
0.00068601
0.000672843
0.000660869
0.000650024
0.000640229
0.000631405
0.000623488
0.000616434
0.00061022
0.000604846
0.000600325
0.000596689
0.000593978
0.000592365
0.00059176
0.000592066
0.000593675
0.000596615
0.000600963
0.000606825
0.00061432
0.000623578
0.000634739
0.000647952
0.00066338
0.000681191
0.000701569
0.000724708
0.000750819
0.00078014
0.000812948
0.000849587
0.000890504
0.000936321
0.00098793
0.00104664
0.00111439
0.00119397
0.00128935
0.00140573
0.00154919
0.00172522
0.00193565
0.00217403
0.00242093
0.00263176
0.00272498
0.00272789
0.00259312
0.00238247
0.00231749
0.00247579
0.00288545
0.00291643
0.000510704
0.000451754
0.00186808
0.00234997
0.0025283
0.00254048
0.00240853
0.00217709
0.0018995
0.00162536
0.00138884
0.00120405
0.00106957
0.000976317
0.000913473
0.000871385
0.000842337
0.000820586
0.000802218
0.000784913
0.000767606
0.000750074
0.000732559
0.000715464
0.000699166
0.000683924
0.000669865
0.000657009
0.000645305
0.000634667
0.000625004
0.000616235
0.0006083
0.000601162
0.000594804
0.000589232
0.000584467
0.000580545
0.000577512
0.000575486
0.000574575
0.000574493
0.000575643
0.000578114
0.000581977
0.000587339
0.000594321
0.000603058
0.000613696
0.000626391
0.000641313
0.000658641
0.000678565
0.000701288
0.000727025
0.00075601
0.000788504
0.000824819
0.000865349
0.000910622
0.000961396
0.00101879
0.00108447
0.00116095
0.0012519
0.00136244
0.00149911
0.00166893
0.00187681
0.00212073
0.00238555
0.00263791
0.00278773
0.00281895
0.00272489
0.00247944
0.00233751
0.00239535
0.00280049
0.00293986
0.000513187
0.000438609
0.00184463
0.00230791
0.00247876
0.00248832
0.00235676
0.00212735
0.00185243
0.00158173
0.00134977
0.00117045
0.00104157
0.000953276
0.000894348
0.000854977
0.000827503
0.000806398
0.000788051
0.000770449
0.000752775
0.000734969
0.000717343
0.000700303
0.000684186
0.000669198
0.000655413
0.000642811
0.000631312
0.000620816
0.000611228
0.000602468
0.00059448
0.000587232
0.000580716
0.000574942
0.000569936
0.00056574
0.000562405
0.000559997
0.000558704
0.000558332
0.000559035
0.00056105
0.000564439
0.000569307
0.000575776
0.000583985
0.000594085
0.00060624
0.000620626
0.000637435
0.000656866
0.000679133
0.000704458
0.000733081
0.000765258
0.000801282
0.000841505
0.000886388
0.000936574
0.000993009
0.00105713
0.00113115
0.00121839
0.00132371
0.00145375
0.00161647
0.0018192
0.00206412
0.00234163
0.0026241
0.00283301
0.00289937
0.00284383
0.00260483
0.00238045
0.00235919
0.00267559
0.00292408
0.000506307
0.000424001
0.00181856
0.00226258
0.00242641
0.00243419
0.00230481
0.00207951
0.00180907
0.00154284
0.00131566
0.0011414
0.00101743
0.00093339
0.000877736
0.000840562
0.000814297
0.00079363
0.00077523
0.000757353
0.000739386
0.000721387
0.000703712
0.000686757
0.000670818
0.000656052
0.000642492
0.000630085
0.000618734
0.000608329
0.000598773
0.00058999
0.000581929
0.000574563
0.000567889
0.000561922
0.00055669
0.000552238
0.000548617
0.000545887
0.00054421
0.000543566
0.000543861
0.000545444
0.000548376
0.000552763
0.000558727
0.000566408
0.000575963
0.000587561
0.000601389
0.000617645
0.000636544
0.00065831
0.00068318
0.000711402
0.000743238
0.000778971
0.00081893
0.000863522
0.000913297
0.000969061
0.00103204
0.00110415
0.00118836
0.00128918
0.0014131
0.0015686
0.00176482
0.00200753
0.00229198
0.00259469
0.00285752
0.00297113
0.00295873
0.00274229
0.00243735
0.00234901
0.00257798
0.00287821
0.000494221
0.000408337
0.00179063
0.00221508
0.00237233
0.00237905
0.00225336
0.0020339
0.00176944
0.00150849
0.00128616
0.00111652
0.00099677
0.000916303
0.000863343
0.000827929
0.000802584
0.000782209
0.000763721
0.000745602
0.000727402
0.000709268
0.00069158
0.000674714
0.00065893
0.000644345
0.000630959
0.000618694
0.000607441
0.000597088
0.000587537
0.000578714
0.000570572
0.000563091
0.00055627
0.000550127
0.000544693
0.000540012
0.000536137
0.000533127
0.000531094
0.000530172
0.000530119