/*--------------------------------*- C++ -*----------------------------------*\
  =========                 |
  \\      /  F ield         | OpenFOAM: The Open Source CFD Toolbox
   \\    /   O peration     | Website:  https://openfoam.org
    \\  /    A nd           | Version:  13
     \\/     M anipulation  |
\*---------------------------------------------------------------------------*/
FoamFile
{
    format      ascii;
    class       volScalarField;
    location    "4.1";
    object      epsilon;
}
// * * * * * * * * * * * * * * * * * * * * * * * * * * * * * * * * * * * * * //

dimensions      [0 2 -3 0 0 0 0];

internalField   nonuniform List<scalar> 
6400
(
2.09675e-05
0.000107255
0.000256324
0.00041345
0.000537333
0.000614339
0.000652366
0.00067021
0.000689001
0.000728711
0.000805703
0.000934772
0.00112833
0.00138898
0.00170753
0.0020703
0.00246213
0.00287825
0.00329856
0.00371182
0.00412293
0.00456101
0.00506625
0.00567539
0.00638761
0.00714977
0.00790498
0.00866046
0.00942808
0.0102265
0.011057
0.0118914
0.012709
0.0135055
0.0142931
0.0150862
0.0158963
0.0167365
0.0176156
0.0185435
0.0195244
0.020566
0.0216766
0.0228632
0.0241349
0.0255057
0.0270201
0.0287716
0.0309599
0.0331766
0.0354391
0.0376635
0.0398233
0.0418483
0.0436723
0.0452202
0.046384
0.0469578
0.0471771
0.0469047
0.0458022
0.0439569
0.0413815
0.038119
0.0343281
0.0300837
0.0256621
0.0212593
0.0170637
0.0131712
0.00995784
0.00730247
0.00513652
0.00345847
0.00223588
0.00139041
0.000832466
0.000471055
0.000219068
4.64497e-05
0.000102181
9.90657e-05
0.000159427
0.000231173
0.000288048
0.000326089
0.000349216
0.000364816
0.000381974
0.000411741
0.000465186
0.000554542
0.000692186
0.000887033
0.00114332
0.00146394
0.00185203
0.00231385
0.00285386
0.00347957
0.00420211
0.00503405
0.00601978
0.0071889
0.00854227
0.0100734
0.0117532
0.0134383
0.0150426
0.0164828
0.0176615
0.018588
0.0192763
0.0197602
0.0200912
0.0203087
0.0204545
0.020561
0.0206557
0.0207561
0.0208811
0.0210482
0.021263
0.0215151
0.0217962
0.0221259
0.0225366
0.0230165
0.0235671
0.0241818
0.0248275
0.0255049
0.026173
0.0268156
0.0273873
0.027842
0.0280645
0.0281217
0.0279578
0.027523
0.0267047
0.025555
0.0240341
0.0221689
0.0200264
0.0176935
0.0152787
0.0128937
0.0106355
0.00857499
0.00681891
0.00533025
0.00406224
0.00298941
0.00210431
0.0013974
0.000858808
0.000482327
0.000248739
0.000243903
0.000225607
0.000178596
0.000233495
0.000294078
0.000334654
0.00035964
0.000377924
0.000399164
0.000434366
0.000497531
0.000605245
0.000777414
0.0010337
0.00138969
0.0018569
0.00244822
0.00317539
0.00405108
0.00508403
0.00628012
0.00764291
0.00916511
0.0107931
0.01243
0.013938
0.0151574
0.0159621
0.0164666
0.0167545
0.0169354
0.0170688
0.0171067
0.0169648
0.0167231
0.0164794
0.0162383
0.0160313
0.0158681
0.0157816
0.0157503
0.0157653
0.0158795
0.0160534
0.0163234
0.0166925
0.0171559
0.0176923
0.0183009
0.0189762
0.0197148
0.0205025
0.0213305
0.0221775
0.0230237
0.0238365
0.0245796
0.0252098
0.0256344
0.0258043
0.0257835
0.0253951
0.0245952
0.023377
0.0217598
0.0198205
0.017649
0.0153495
0.0130334
0.0108071
0.00876171
0.00696759
0.00544631
0.00418752
0.00316143
0.00233141
0.00166374
0.0011306
0.000709567
0.000442628
0.000639943
0.000393649
0.000308208
0.000370531
0.000430507
0.000467066
0.000491946
0.000519128
0.000563517
0.00064262
0.000778597
0.00100015
0.00133757
0.00181755
0.00245934
0.00327556
0.00427387
0.00545859
0.00681891
0.0083204
0.0098999
0.0114641
0.0128963
0.0140814
0.0148843
0.015275
0.0154286
0.0154685
0.0153241
0.0149644
0.0145002
0.0139699
0.0134812
0.0130983
0.0127913
0.01254
0.0123573
0.0122613
0.0122255
0.0122348
0.0123409
0.0125045
0.0127458
0.0130527
0.0134341
0.0138855
0.0144073
0.0149982
0.0156601
0.0163919
0.0171929
0.0180586
0.0189823
0.0199515
0.0209496
0.0219511
0.022922
0.0238174
0.0245822
0.0251142
0.0253417
0.0253503
0.0249072
0.0240982
0.0228397
0.0210641
0.0189468
0.0165859
0.0141197
0.0116918
0.00943049
0.00743166
0.00574655
0.0043805
0.00330246
0.0024647
0.00181509
0.0013039
0.000897793
0.000647126
0.00103931
0.000630953
0.000489337
0.000551969
0.000613156
0.000655254
0.000694196
0.000749299
0.000843261
0.00100434
0.00126773
0.00167302
0.00225636
0.00304235
0.00404036
0.00524542
0.00663697
0.00817192
0.00977295
0.0113253
0.0126912
0.0137479
0.0143162
0.0145435
0.0145899
0.0143984
0.0139289
0.0132435
0.012562
0.0119538
0.0114324
0.0109664
0.0105968
0.0103076
0.0100884
0.00993448
0.00985804
0.00983011
0.00983307
0.00991312
0.0100381
0.0102145
0.0104413
0.0107183
0.0110481
0.011432
0.0118738
0.0123769
0.0129459
0.013585
0.0142983
0.015089
0.0159586
0.0169046
0.01792
0.0189925
0.0201019
0.0212153
0.0222837
0.0232496
0.0240431
0.0244777
0.0246126
0.0243216
0.0235892
0.0223328
0.0204665
0.0181673
0.0156004
0.0129472
0.01039
0.0080853
0.00613598
0.00457694
0.00338307
0.00249309
0.00183247
0.00133938
0.000972343
0.000776385
0.00129995
0.000967359
0.000729287
0.000781391
0.00084794
0.000907686
0.000978113
0.00108544
0.00126305
0.00155221
0.0019998
0.00265028
0.00353363
0.00465594
0.00599606
0.00750508
0.00910363
0.0106783
0.0120839
0.0131775
0.0137411
0.0139382
0.013951
0.0136308
0.0129805
0.0121595
0.0113804
0.0106896
0.0100788
0.00956656
0.00913783
0.00878572
0.00850998
0.00829439
0.00813401
0.00802177
0.00795926
0.00793205
0.00792698
0.00796759
0.00803685
0.00814013
0.00827382
0.00844088
0.00864246
0.00888211
0.00916406
0.00949391
0.00987884
0.0103273
0.0108494
0.0114552
0.0121567
0.0129638
0.0138833
0.0149177
0.0160632
0.0173053
0.0186163
0.0199522
0.0212536
0.0224242
0.0233126
0.0237197
0.0237789
0.0232597
0.0221039
0.020129
0.0176265
0.0148052
0.0119079
0.00918129
0.00682159
0.00493305
0.00352085
0.00251436
0.00180857
0.00131554
0.000969795
0.00082487
0.00138671
0.00143248
0.00103387
0.00106822
0.0011483
0.00124079
0.00136326
0.00155118
0.00185011
0.0023124
0.00298897
0.00391542
0.00509757
0.00650286
0.00805877
0.00965523
0.0111508
0.0123893
0.0131355
0.0134253
0.0134667
0.0131685
0.0124786
0.0115713
0.0107077
0.00991481
0.00922797
0.00864153
0.00814567
0.00773461
0.00739364
0.00711509
0.00688939
0.00670697
0.00656273
0.00645068
0.00636707
0.00630676
0.00627434
0.00626176
0.00626061
0.00628678
0.00633015
0.00639659
0.00648477
0.00659916
0.00674235
0.00691913
0.00713567
0.00739959
0.00772051
0.00811059
0.00858571
0.00916477
0.00986899
0.0107167
0.0117316
0.0129279
0.0143081
0.0158446
0.0174965
0.019204
0.0208613
0.0223181
0.0232353
0.0235755
0.0234614
0.0223701
0.0202478
0.0174563
0.0142722
0.0110411
0.00809723
0.00567733
0.00386856
0.00262304
0.00180822
0.00127169
0.000940991
0.000817831
0.0013459
0.00205413
0.00140727
0.00142234
0.00152834
0.00167053
0.00186715
0.00216411
0.00261723
0.00328254
0.00420142
0.00538306
0.0067911
0.00833917
0.00989602
0.0112998
0.0123641
0.0128757
0.0130232
0.0128923
0.0123075
0.0113781
0.0104191
0.00953161
0.0087507
0.00807783
0.00751005
0.00703093
0.00662894
0.00629265
0.00601079
0.00577542
0.00557849
0.0054142
0.0052782
0.00516659
0.00507619
0.00500433
0.00495007
0.00491075
0.00489049
0.00488309
0.00488518
0.00491002
0.00494843
0.00500672
0.00508494
0.00518671
0.00531536
0.005476
0.00567459
0.00591846
0.00621643
0.00658203
0.00703428
0.00760115
0.00831324
0.00921373
0.0103519
0.0117551
0.0134257
0.0153516
0.0174443
0.0196081
0.0216465
0.0232255
0.0239637
0.0241455
0.0231315
0.020787
0.0175806
0.013914
0.0102727
0.00709499
0.00464302
0.00295346
0.00189627
0.00126856
0.000903491
0.000789259
0.00125873
0.00285319
0.00185286
0.00185185
0.00200067
0.00220817
0.00249899
0.00292708
0.00355219
0.00442208
0.00555272
0.0069114
0.00840902
0.00990517
0.011227
0.0121333
0.0125214
0.0126049
0.012288
0.0114775
0.0104627
0.00948513
0.00859211
0.00782053
0.00716362
0.00660964
0.00614372
0.00575092
0.00542039
0.00514199
0.00490765
0.00471095
0.00454634
0.00440971
0.0042973
0.00420604
0.00413368
0.00407821
0.00403805
0.00401348
0.00400246
0.00399969
0.00401032
0.00403576
0.00407294
0.00412498
0.00419202
0.00427634
0.0043799
0.00450525
0.00465567
0.00483531
0.00504943
0.00530482
0.00561046
0.00597834
0.00642667
0.00698334
0.00769156
0.00862885
0.00989608
0.0115597
0.0136188
0.0160428
0.0186806
0.0213328
0.0236154
0.024814
0.025227
0.0242704
0.0215837
0.017824
0.0135691
0.00948559
0.00611402
0.00369969
0.00218596
0.00133618
0.000899969
0.000754404
0.00117972
0.0038409
0.00237681
0.00236719
0.00256933
0.00285648
0.00325527
0.00382328
0.00461472
0.00565568
0.00692351
0.00833552
0.00975196
0.0109955
0.0117974
0.0121142
0.0121575
0.0116871
0.0107665
0.00973918
0.00873317
0.00784498
0.00707832
0.00643361
0.00589135
0.00543688
0.0050553
0.00473534
0.00446799
0.00424553
0.00406176
0.00391143
0.00378998
0.00369354
0.00361868
0.00356244
0.00352223
0.00349689
0.00348497
0.00348139
0.00348687
0.00350399
0.00353044
0.00356712
0.00361364
0.00367132
0.00374062
0.00382296
0.00391971
0.00403265
0.00416393
0.00431609
0.0044923
0.00469663
0.00493446
0.0052132
0.00554028
0.00592903
0.00639952
0.00698501
0.00774196
0.00876704
0.0102571
0.0123303
0.01497
0.018063
0.0213388
0.0243285
0.0260057
0.0266096
0.0256146
0.0224316
0.0179696
0.0130568
0.00857134
0.00511402
0.00284228
0.00156228
0.000945945
0.000744509
0.00114336
0.0050377
0.00299117
0.00297187
0.0032338
0.00360827
0.00411781
0.00481627
0.00574176
0.00688775
0.00818666
0.00950953
0.0106841
0.0114326
0.0117133
0.0117187
0.0111715
0.0102108
0.00916142
0.00814978
0.00725202
0.00649173
0.00585242
0.00532056
0.00487673
0.00450799
0.00420234
0.00395107
0.00374645
0.00358188
0.00345157
0.00335032
0.0032735
0.00321702
0.00317733
0.00315196
0.00313964
0.00313537
0.00313702
0.00314892
0.00316721
0.00319347
0.0032269
0.00326849
0.0033187
0.00337868
0.00344943
0.0035324
0.00362905
0.00374103
0.00387005
0.00401791
0.00418644
0.00437763
0.00459365
0.00483724
0.00511238
0.0054255
0.00578751
0.00621628
0.00673335
0.00738558
0.00826053
0.00951177
0.0114547
0.0142338
0.0177266
0.021638
0.0253691
0.0274533
0.0281698
0.026975
0.0230884
0.0177756
0.0122096
0.00745963
0.00408739
0.00207973
0.00110348
0.000771845
0.00117102
0.00649704
0.00371436
0.00366332
0.00398449
0.00444532
0.0050549
0.00585504
0.00685887
0.00802185
0.00923441
0.0103363
0.0110576
0.0113289
0.0113092
0.0107539
0.00979153
0.00872597
0.00770302
0.00679717
0.00603188
0.00539658
0.00487015
0.0044366
0.00408009
0.00378976
0.00355559
0.00336961
0.00322424
0.0031128
0.00302922
0.0029681
0.00292479
0.00289535
0.00287724
0.00286857
0.00286557
0.00286602
0.00287381
0.00288671
0.00290482
0.00292902
0.0029597
0.00299801
0.00304499
0.00310198
0.00317039
0.00325183
0.003348
0.0034607
0.00359178
0.00374306
0.00391629
0.004113
0.00433439
0.00458129
0.00485419
0.00515381
0.00548223
0.00584522
0.00625644
0.00674242
0.00733772
0.00811945
0.0092396
0.0109936
0.0138319
0.017693
0.0222591
0.0267359
0.0290612
0.0297855
0.0281236
0.0232572
0.0169971
0.0109099
0.00613604
0.003063
0.00146967
0.000876676
0.00130111
0.00813434
0.00451972
0.00442666
0.00480287
0.00534003
0.00602559
0.00688228
0.00789356
0.00897854
0.00999732
0.0106988
0.0109678
0.0109547
0.0104166
0.00949314
0.00842008
0.00738105
0.00646012
0.00568401
0.00504458
0.00452084
0.00409343
0.00374755
0.00347017
0.00325119
0.00308102
0.00295131
0.00285421
0.00278282
0.00273114
0.00269412
0.00266776
0.00264909
0.00263605
0.0026271
0.00262191
0.00261985
0.00262033
0.00262616
0.00263622
0.00265241
0.00267529
0.00270624
0.00274649
0.0027975
0.00286083
0.00293821
0.00303148
0.00314268
0.00327392
0.00342743
0.0036054
0.00380984
0.00404234
0.00430381
0.0045942
0.0049123
0.00525592
0.00562286
0.00601329
0.00643466
0.00691019
0.00748092
0.00821082
0.00924995
0.010905
0.0137656
0.0180234
0.0232955
0.0283549
0.0307458
0.0313282
0.0287394
0.0226059
0.0154568
0.00912435
0.00466174
0.00216668
0.00113261
0.001632
0.00990383
0.0053896
0.00524275
0.00566393
0.00625862
0.00698497
0.00784234
0.00878485
0.00970384
0.0103799
0.0106486
0.0106579
0.0101703
0.00929586
0.00823489
0.00717477
0.0062303
0.00543458
0.00478331
0.00425557
0.00383015
0.00349026
0.00322229
0.00301421
0.00285561
0.00273663
0.0026486
0.00258377
0.00253572
0.00249922
0.00247036
0.00244637
0.00242554
0.00240693
0.00239019
0.00237553
0.00236335
0.00235526
0.00235183
0.00235138
0.00235845
0.00237295
0.00239615
0.00242911
0.00247333
0.00253029
0.00260169
0.00268945
0.00279572
0.00292291
0.00307366
0.00325079
0.00345713
0.00369533
0.00396748
0.00427467
0.0046164
0.00499008
0.00539088
0.00581237
0.00624892
0.0067012
0.00718718
0.00775503
0.00846305
0.00946676
0.0111076
0.0140402
0.0187519
0.0248359
0.0302243
0.0324466
0.0326709
0.0283961
0.0208996
0.0130813
0.00697256
0.0032658
0.00160765
0.00219567
0.0117479
0.00630198
0.00608807
0.00653838
0.00716445
0.00788896
0.00868615
0.00948448
0.0101185
0.0103942
0.0104259
0.0100117
0.00919587
0.00815783
0.00708081
0.00610169
0.00527595
0.00460288
0.00406304
0.00363308
0.00329385
0.00302999
0.00282812
0.00267616
0.00256325
0.00247958
0.00241686
0.00236827
0.00232861
0.0022941
0.00226235
0.00223202
0.00220258
0.00217413
0.00214714
0.00212235
0.00210066
0.00208307
0.00207087
0.00206525
0.00206409
0.0020715
0.00208853
0.00211515
0.00215298
0.00220324
0.00226756
0.00234777
0.00244606
0.00256498
0.00270747
0.00287687
0.00307683
0.00331115
0.00358348
0.00389684
0.00425291
0.00465114
0.00508786
0.00555563
0.00604363
0.00654004
0.00703804
0.00754997
0.00812927
0.00883639
0.00984179
0.011538
0.0146658
0.0199122
0.0268962
0.0323906
0.0342719
0.0333511
0.0268354
0.0179587
0.0100543
0.0048137
0.00230397
0.00294041
0.0136059
0.00723206
0.00693652
0.00739557
0.00802221
0.00869999
0.00937991
0.00996076
0.0102376
0.010272
0.00993708
0.00918783
0.00818346
0.00709463
0.00607459
0.00520477
0.00449819
0.00393586
0.00349324
0.00314801
0.00288252
0.00268165
0.00253179
0.00242076
0.00233787
0.00227414
0.00222253
0.0021778
0.00213642
0.00209631
0.0020565
0.00201686
0.0019778
0.00194004
0.00190446
0.00187202
0.00184364
0.00182016
0.00180237
0.00179238
0.00178858
0.00179014
0.001803
0.0018247
0.00185701
0.00190089
0.00195778
0.0020294
0.00211782
0.00222556
0.00235569
0.00251181
0.00269812
0.00291932
0.00318046
0.00348655
0.00384192
0.00424921
0.00470817
0.00521411
0.0057568
0.00632042
0.00688609
0.00743911
0.00798697
0.00858942
0.00931137
0.0103612
0.0121989
0.015721
0.0216361
0.0295171
0.034518
0.0357837
0.0325917
0.0236258
0.0139746
0.00686317
0.00323868
0.00381546
0.0154147
0.00815349
0.00776202
0.00820637
0.00880176
0.00939098
0.00990487
0.0101685
0.0102006
0.00994714
0.00926703
0.00830704
0.00721475
0.00615087
0.00522382
0.00446821
0.00387105
0.00340554
0.0030465
0.00277299
0.00256782
0.0024157
0.00230308
0.00221825
0.00215159
0.00209569
0.00204528
0.001997
0.00194905
0.00190078
0.00185237
0.00180448
0.00175802
0.00171396
0.00167326
0.00163677
0.00160523
0.00157928
0.00155946
0.00154734
0.00154214
0.00154145
0.00155111
0.00156932
0.00159704
0.00163519
0.00168497
0.0017479
0.00182588
0.00192128
0.00203705
0.00217681
0.00234492
0.00254658
0.00278776
0.00307501
0.00341502
0.00381382
0.00427543
0.00480005
0.00538193
0.00600745
0.00665466
0.00729623
0.00790899
0.00849756
0.00912872
0.00988332
0.0110213
0.0131258
0.017337
0.0242701
0.032653
0.0364542
0.0366915
0.0297242
0.0187998
0.00951765
0.0044416
0.0047691
0.0171577
0.00904349
0.00853978
0.00894548
0.00948016
0.00994696
0.0102015
0.0102408
0.0100288
0.0094318
0.00852442
0.00744007
0.00633474
0.00533962
0.00451761
0.00386959
0.00336891
0.00298645
0.00269775
0.00248265
0.002324
0.00220669
0.00211783
0.00204701
0.00198634
0.00193039
0.00187585
0.0018211
0.00176575
0.00171021
0.00165534
0.00160217
0.00155173
0.00150495
0.0014626
0.00142531
0.00139357
0.00136772
0.00134809
0.00133568
0.00133012
0.00132899
0.00133654
0.0013522
0.00137619
0.00140936
0.00145271
0.00150756
0.00157556
0.00165887
0.00176017
0.00188286
0.00203119
0.00221038
0.00242675
0.0026877
0.00300159
0.00337715
0.00382249
0.00434332
0.00494045
0.00560665
0.00632377
0.0070618
0.00778266
0.00845417
0.00908438
0.00974195
0.0105464
0.0118427
0.0143999
0.0195946
0.0279872
0.0358799
0.0383936
0.0355282
0.0244918
0.012903
0.00595074
0.00575978
0.0187825
0.00988158
0.00924966
0.00959369
0.0100443
0.0103188
0.0103788
0.0101783
0.00967513
0.00883256
0.00776883
0.00663053
0.00556182
0.00465607
0.00393764
0.00338599
0.00296844
0.00265585
0.00242454
0.00225477
0.00212967
0.00203492
0.00195906
0.00189352
0.0018325
0.00177259
0.00171223
0.00165119
0.00159004
0.0015298
0.00147156
0.0014164
0.00136521
0.00131868
0.00127733
0.0012415
0.0012114
0.00118718
0.00116892
0.00115735
0.00115214
0.00115102
0.00115737
0.00117103
0.00119196
0.00122087
0.00125862
0.0013063
0.00136537
0.00143768
0.00152563
0.00163225
0.00176146
0.00191816
0.00210853
0.00234016
0.00262216
0.00296495
0.00337974
0.00387714
0.00446486
0.00514422
0.00590573
0.0067248
0.00755994
0.00835823
0.00907657
0.00972904
0.0104199
0.0113116
0.0128872
0.0162225
0.0227316
0.0327951
0.038694
0.0394286
0.0307493
0.0171516
0.00779321
0.00679108
0.0202409
0.0106497
0.00987594
0.0101387
0.0104566
0.010563
0.0104165
0.00999577
0.00922366
0.00819816
0.00704087
0.00590083
0.00489767
0.00408695
0.00346408
0.00299634
0.00264909
0.00239389
0.00220768
0.00207126
0.00196857
0.00188677
0.00181631
0.00175076
0.00168639
0.00162155
0.00155605
0.00149057
0.0014262
0.00136414
0.00130545
0.00125101
0.00120144
0.00115715
0.00111838
0.00108521
0.00105766
0.0010357
0.00101926
0.00100893
0.00100431
0.00100335
0.0010089
0.00102092
0.00103926
0.00106455
0.00109749
0.00113902
0.00119037
0.00125314
0.0013294
0.0014218
0.00153379
0.00166982
0.00183558
0.00203832
0.00228713
0.00259309
0.00296914
0.0034294
0.00398742
0.0046531
0.00542789
0.0062987
0.00723186
0.00817076
0.00904426
0.00979888
0.0104425
0.0111676
0.012217
0.0142852
0.0189503
0.0274933
0.037526
0.0410272
0.0369213
0.0223493
0.0100299
0.0078539
0.0214832
0.0113306
0.0104056
0.0105666
0.010739
0.0107058
0.0103558
0.00968796
0.00871962
0.00756501
0.00636508
0.00525862
0.00433481
0.00361618
0.00307826
0.0026822
0.00239329
0.00218391
0.00203175
0.00191848
0.00182949
0.00175385
0.00168417
0.00161612
0.00154777
0.00147882
0.00141
0.00134245
0.00127741
0.00121599
0.00115904
0.00110713
0.00106059
0.00101957
0.000984063
0.00095398
0.00092919
0.000909555
0.000894937
0.000885802
0.000881748
0.000880936
0.000885829
0.000896404
0.000912536
0.000934722
0.000963565
0.000999872
0.00104469
0.00109938
0.00116571
0.00124597
0.00134314
0.00146111
0.00160496
0.0017813
0.00199868
0.00226798
0.00260268
0.00301878
0.00353387
0.0041649
0.00492386
0.00581116
0.00680711
0.00786393
0.00890334
0.00983059
0.0106138
0.0112165
0.0120148
0.0133377
0.0162957
0.0228476
0.0340863
0.0413082
0.041757
0.0284731
0.0127824
0.00900652
0.022485
0.0119131
0.0108296
0.0108682
0.0109222
0.0107175
0.0101959
0.0093165
0.00819444
0.00695788
0.0057538
0.0047024
0.0038617
0.00322784
0.00276371
0.00242791
0.00218642
0.0020126
0.00188508
0.00178693
0.00170538
0.00163165
0.00156049
0.00148938
0.00141781
0.0013464
0.00127633
0.0012089
0.00114523
0.00108619
0.00103232
0.000983898
0.000941005
0.000903562
0.000871405
0.000844326
0.000822113
0.000804574
0.000791538
0.000783378
0.000779756
0.000779035
0.000783281
0.000792559
0.00080675
0.000826264
0.000851623
0.000883518
0.000922847
0.000970773
0.0010288
0.00109889
0.00118359
0.00128626
0.00141133
0.00156464
0.00175392
0.00198933
0.00228395
0.00265429
0.00312009
0.00370321
0.00442443
0.00529748
0.00631974
0.00746055
0.00865092
0.00978388
0.0107419
0.0114725
0.0120232
0.0129841
0.0148775
0.0195086
0.0289003
0.0404946
0.044135
0.0353202
0.0163035
0.0104645
0.0232356
0.0123998
0.0111445
0.0110631
0.0110045
0.0106598
0.00994492
0.00890643
0.0076719
0.00639202
0.0052109
0.00422564
0.00346573
0.00290751
0.00250643
0.00222052
0.00201682
0.00186978
0.00175938
0.00167043
0.00159226
0.00151821
0.00144491
0.00137133
0.00129792
0.00122581
0.00115634
0.00109069
0.00102976
0.000974079
0.000923923
0.000879315
0.000840126
0.000806131
0.000777068
0.000752666
0.000732676
0.000716891
0.000705133
0.000697683
0.000694336
0.000693633
0.000697216
0.000705309
0.000717786
0.000734989
0.000757374
0.000785541
0.000820263
0.000862539
0.000913657
0.00097529
0.00104962
0.00113953
0.00124882
0.00138258
0.00154763
0.00175312
0.00201121
0.00233785
0.00275334
0.00328213
0.00395111
0.00478505
0.00579795
0.00697987
0.00828125
0.00960035
0.0107895
0.0117557
0.0123636
0.0129236
0.0142212
0.0172293
0.0244933
0.0375742
0.044966
0.0420441
0.0208101
0.012403
0.0237437
0.0127918
0.0113588
0.0111626
0.0109881
0.0105162
0.00964367
0.00847921
0.00716856
0.00587548
0.0047349
0.00381963
0.00313481
0.00264273
0.00229483
0.00204964
0.00187547
0.00174808
0.00164909
0.00156532
0.00148817
0.00141295
0.00133783
0.00126287
0.00118907
0.0011178
0.00105029
0.000987504
0.000930028
0.000878129
0.000831814
0.000790919
0.000755178
0.000724279
0.000697909
0.000675774
0.000657619
0.000643239
0.000632468
0.000625489
0.000622281
0.000621533
0.000624449
0.000631456
0.000642414
0.000657611
0.000677449
0.000702452
0.000733294
0.000770839
0.000816201
0.000870813
0.000936549
0.00101587
0.00111204
0.00122945
0.00137404
0.00155386
0.00177989
0.00206695
0.00243471
0.0029084
0.00351842
0.00429767
0.00527464
0.00646078
0.00783199
0.00930801
0.0107417
0.0119426
0.0127525
0.013229
0.0140236
0.0160061
0.0213763
0.0328206
0.0450228
0.0471864
0.0265801
0.0147989
0.0240205
0.0130901
0.0114792
0.0111637
0.0109109
0.0102999
0.00930927
0.00805137
0.00669518
0.00541114
0.00432127
0.00347513
0.00285814
0.00242303
0.00211952
0.00190715
0.00175565
0.00164233
0.00155069
0.00146954
0.0013923
0.00131591
0.00123975
0.00116456
0.00109164
0.00102232
0.000957645
0.000898277
0.000844525
0.000796407
0.000753745
0.000716242
0.000683551
0.000655319
0.000631213
0.000610943
0.000594266
0.00058099
0.000570965
0.000564271
0.000561096
0.000560255
0.000562525
0.000568541
0.000578152
0.000591601
0.000609245
0.000631547
0.000659101
0.000692665
0.000733205
0.000781966
0.000840561
0.000911105
0.000996406
0.00110023
0.00122772
0.00138588
0.00158444
0.00183679
0.00216127
0.00258247
0.00313204
0.00384778
0.00476915
0.00592655
0.00732256
0.00890613
0.0105459
0.0120238
0.0131384
0.0136786
0.0141063
0.0154443
0.0190425
0.0283622
0.0435713
0.0497333
0.0340148
0.0175679
0.0240294
0.0132944
0.0115218
0.0111171
0.010752
0.010039
0.00895712
0.00763487
0.00625794
0.00499851
0.00396405
0.00318332
0.00262641
0.00223987
0.00197305
0.00178684
0.00165251
0.00154909
0.00146201
0.00138205
0.00130438
0.00122727
0.00115094
0.00107654
0.00100544
0.000938784
0.000877371
0.000821589
0.000771499
0.00072693
0.000687571
0.000653048
0.000622974
0.000596982
0.000574747
0.000555993
0.000540494
0.000528079
0.000518617
0.000512081
0.000508862
0.000507897
0.000509559
0.000514676
0.000523092
0.000535013
0.000550757
0.000570738
0.000595486
0.000625671
0.000662145
0.000705996
0.000758628
0.000821872
0.000898151
0.000990712
0.00110398
0.00124404
0.0014194
0.00164195
0.00192838
0.0023018
0.00279344
0.00344335
0.00429842
0.00540456
0.00678994
0.00843771
0.0102519
0.0120306
0.0134804
0.014228
0.0145896
0.01529
0.0177149
0.0248671
0.0401709
0.0506523
0.0422833
0.0205956
0.0239132
0.0134276
0.0115046
0.0110018
0.0105406
0.00974717
0.00859931
0.00723792
0.00585969
0.00463504
0.00365687
0.00293627
0.0024318
0.00208632
0.00184961
0.00168408
0.00156261
0.00146607
0.00138177
0.00130232
0.00122432
0.00114709
0.00107139
0.00099855
0.000929845
0.000866217
0.000808186
0.000755898
0.000709221
0.000667848
0.000631387
0.000599422
0.000571555
0.000547425
0.000526724
0.000509195
0.000494634
0.000482889
0.000473845
0.000467441
0.0004641
0.00046299
0.000464098
0.000468405
0.000475761
0.000486341
0.00050043
0.000518403
0.000540735
0.000568028
0.000601041
0.000640738
0.000688353
0.000745487
0.000814245
0.00089744
0.000998892
0.00112388
0.00127979
0.00147709
0.0017307
0.0020618
0.00250006
0.00308563
0.00386936
0.00490833
0.00625219
0.00791654
0.00984429
0.0118643
0.0136741
0.0147379
0.0151665
0.0154953
0.0170822
0.0223355
0.0359801
0.0506688
0.0499626
0.023372
0.0236441
0.0135134
0.0114452
0.0108276
0.0102905
0.00943613
0.00824504
0.00686573
0.00550094
0.00431704
0.00339352
0.00272705
0.00226789
0.00195687
0.00174473
0.00159543
0.00148356
0.00139178
0.00130921
0.00123001
0.001152
0.00107523
0.00100078
0.000930002
0.000864007
0.000803496
0.000748749
0.000699711
0.000656107
0.000617541
0.000583575
0.000553779
0.000527759
0.000505171
0.000485729
0.000469198
0.000455392
0.000444175
0.000435448
0.000429152
0.000425652
0.000424386
0.000425004
0.000428586
0.000435002
0.000444402
0.000457042
0.000473262
0.000493498
0.000518293
0.000548332
0.00058448
0.000627837
0.000679817
0.000742266
0.000817639
0.000909256
0.00102169
0.00116137
0.00133744
0.00156311
0.00185746
0.00224802
0.00277353
0.00348619
0.00445037
0.00573324
0.00738115
0.00937865
0.0115961
0.0137465
0.0152714
0.0158491
0.0160472
0.0168728
0.0204408
0.0315946
0.0500949
0.0553311
0.0252883
0.0232283
0.0135424
0.0113287
0.0106155
0.0100135
0.0091156
0.00790107
0.00652122
0.00518064
0.00404038
0.00316827
0.00254978
0.00212942
0.00184718
0.00165497
0.00151838
0.00141366
0.00132522
0.00124378
0.00116486
0.00108721
0.00101137
0.000938596
0.00087015
0.000806951
0.000749468
0.000697779
0.000651675
0.000610778
0.000574639
0.000542799
0.000514831
0.000490355
0.00046905
0.000450649
0.000434938
0.000421751
0.000410962
0.000402486
0.000396267
0.000392595
0.000391172
0.000391375
0.000394312
0.000399893
0.00040825
0.000419614
0.000434298
0.000452698
0.000475316
0.000502776
0.000535863
0.00057557
0.000623161
0.000680277
0.000749078
0.000832468
0.000934437
0.00106057
0.00121887
0.00142092
0.00168377
0.00203246
0.00250341
0.00314801
0.00403423
0.00524171
0.00684288
0.00886352
0.0112256
0.0136964
0.0157105
0.0165478
0.0167378
0.0169965
0.0194626
0.0281747
0.04774
0.0579469
0.026063
0.0226825
0.0135324
0.0111804
0.0103765
0.00971955
0.00879336
0.00757213
0.00620563
0.00489683
0.00380085
0.00297603
0.00239954
0.00201215
0.0017538
0.00157772
0.00145107
0.00135172
0.00126567
0.00118508
0.00110658
0.00102961
0.000955049
0.000884188
0.000818164
0.000757692
0.00070304
0.00065412
0.000610608
0.000572062
0.000538003
0.000507968
0.00048154
0.00045836
0.000438128
0.000420597
0.000405573
0.000392902
0.000382472
0.000374203
0.000368046
0.000364199
0.000362587
0.000362488
0.000364844
0.000369684
0.000377118
0.000387355
0.000400681
0.000417465
0.00043817
0.000463372
0.000493793
0.000530339
0.000574159
0.000626724
0.00068996
0.000766432
0.000859638
0.000974464
0.00111789
0.0013001
0.00153617
0.00184865
0.00227114
0.00285287
0.00366263
0.00478827
0.00632344
0.00833112
0.0107789
0.0134619
0.015977
0.0172731
0.0175622
0.0175787
0.0190165
0.0259692
0.0442834
0.0588351
0.0261873
0.0220292
0.0134994
0.011011
0.0101202
0.00941711
0.00847546
0.00726128
0.00591896
0.00464699
0.00359445
0.00281238
0.00227222
0.00191265
0.00167404
0.00151098
0.00139211
0.00129683
0.00121257
0.00113273
0.00105481
0.000978783
0.000905708
0.000836857
0.000773211
0.0007153
0.000663222
0.000616759
0.000575509
0.000538987
0.000506702
0.000478198
0.000453072
0.000430986
0.00041166
0.000394865
0.000380423
0.000368192
0.000358068
0.000349978
0.000343876
0.00033986
0.000338031
0.000337726
0.00033957
0.000343756
0.000350372
0.000359609
0.000371731
0.000387082
0.000406094
0.000429303
0.000457381
0.000491166
0.000531711
0.000580358
0.000638842
0.000709453
0.000795287
0.00090064
0.00103163
0.00119719
0.00141062
0.00169205
0.0020721
0.00259688
0.00333381
0.00437496
0.00583036
0.00779862
0.0103032
0.0131978
0.0160754
0.017937
0.0184324
0.0182907
0.0188843
0.0240419
0.0409159
0.0588009
0.025848
0.0213017
0.0134388
0.0108281
0.00985493
0.00911313
0.00816646
0.00697031
0.00566044
0.00442838
0.00341746
0.00267348
0.00216446
0.00182816
0.00160576
0.00145319
0.00134045
0.00124831
0.00116546
0.00108634
0.00100916
0.000934245
0.000862757
0.0007959
0.000734503
0.000678931
0.000629146
0.000584835
0.00054554
0.000510752
0.000479978
0.000452773
0.000428753
0.000407597
0.000389043
0.000372878
0.000358936
0.000347086
0.000337228
0.000329295
0.000323245
0.000319087
0.000317055
0.000316571
0.000317977
0.000321585
0.000327476
0.000335824
0.000346876
0.000360952
0.000378456
0.000399895
0.000425897
0.000457247
0.000494923
0.000540164
0.000594554
0.000660162
0.000739757
0.000837144
0.000957713
0.00110931
0.00130368
0.00155869
0.00190197
0.00237612
0.00304567
0.00400352
0.00537034
0.00727302
0.00978582
0.0128328
0.0160863
0.0185427
0.0193643
0.0191993
0.0191379
0.0227915
0.037644
0.0571108
0.0252423
0.0205203
0.0133648
0.0106388
0.00958752
0.00881316
0.00786973
0.0067001
0.00542873
0.00423811
0.00326651
0.00255618
0.00207349
0.00175647
0.0015473
0.00140313
0.00129523
0.00120556
0.00112391
0.00104554
0.000969214
0.000895499
0.000825609
0.000760652
0.000701321
0.000647843
0.000600071
0.000557623
0.000520006
0.000486698
0.000457211
0.000431113
0.000408036
0.000387676
0.000369786
0.000354166
0.000340659
0.000329141
0.000319519
0.000311724
0.000305716
0.000301476
0.000299247
0.000298594
0.000299625
0.000302726
0.000307975
0.000315533
0.00032563
0.000338566
0.000354724
0.000374582
0.000398734
0.00042792
0.000463062
0.000505314
0.000556144
0.000617446
0.000691723
0.000782379
0.000894193
0.00103409
0.00121242
0.00144505
0.00175673
0.0021864
0.00279476
0.0036732
0.0049487
0.00677117
0.00926099
0.0124039
0.0159296
0.0190295
0.0202695
0.0202146
0.0197613
0.0220262
0.0347304
0.0548781
0.024441
0.0197012
0.0132925
0.0104517
0.00932412
0.00852166
0.00758764
0.00645079
0.00522216
0.00407356
0.00313866
0.00245773
0.00199705
0.00169579
0.00149729
0.00135984
0.00125578
0.00116811
0.00108752
0.00100994
0.000934531
0.000862051
0.000793703
0.000730507
0.000673031
0.000621394
0.000575367
0.00053452
0.000498335
0.000466288
0.000437898
0.000412744
0.000390475
0.000370801
0.000353485
0.00033834
0.000325214
0.00031399
0.000304577
0.000296908
0.000290939
0.00028665
0.000284238
0.000283428
0.000284138
0.000286795
0.000291476
0.000298331
0.000307576
0.000319493
0.000334444
0.000352884
0.000375379
0.000402631
0.000435517
0.000475127
0.000522835
0.000580398
0.000650109
0.000735047
0.000839481
0.000969558
0.00113443
0.00134814
0.00163282
0.00202377
0.00257734