/*--------------------------------*- C++ -*----------------------------------*\
  =========                 |
  \\      /  F ield         | OpenFOAM: The Open Source CFD Toolbox
   \\    /   O peration     | Website:  https://openfoam.org
    \\  /    A nd           | Version:  13
     \\/     M anipulation  |
\*---------------------------------------------------------------------------*/
FoamFile
{
    format      ascii;
    class       volScalarField;
    location    "4.1";
    object      p;
}
// * * * * * * * * * * * * * * * * * * * * * * * * * * * * * * * * * * * * * //

dimensions      [0 2 -2 0 0 0 0];

internalField   nonuniform List<scalar> 
6400
(
4.50064e-08
1.59172e-05
2.17611e-05
7.50158e-06
-3.10656e-05
-9.01088e-05
-0.000162151
-0.000240005
-0.000318359
-0.000394935
-0.000469918
-0.000546056
-0.000627336
-0.000717771
-0.000821437
-0.000941787
-0.00108152
-0.0012421
-0.0014252
-0.00163184
-0.00186242
-0.00211764
-0.00239958
-0.00271154
-0.00305852
-0.00344506
-0.00386927
-0.00432472
-0.00479883
-0.00526556
-0.00571055
-0.00613407
-0.00653503
-0.00690982
-0.00725416
-0.00756208
-0.00782558
-0.00803502
-0.0081797
-0.00824861
-0.00823084
-0.00811597
-0.00789508
-0.00756181
-0.00711306
-0.00654724
-0.00585717
-0.00503517
-0.0040978
-0.00306016
-0.00192836
-0.000721222
0.000541511
0.00183279
0.00312249
0.00437374
0.00554394
0.00659105
0.00747606
0.0081621
0.00862126
0.00883839
0.00881432
0.00856549
0.00811246
0.0075211
0.00683944
0.00612967
0.00545032
0.00484449
0.00434506
0.00397593
0.00372587
0.00356868
0.00348905
0.00346353
0.00347228
0.00349911
0.00353282
0.00355869
-1.21323e-05
4.03604e-06
6.51334e-06
-1.15204e-05
-5.22137e-05
-0.000111171
-0.000180209
-0.000252542
-0.000324031
-0.000393518
-0.000461939
-0.000532239
-0.000608454
-0.000694146
-0.000792513
-0.00090662
-0.00103946
-0.00119356
-0.00136957
-0.00156824
-0.00178914
-0.00203215
-0.00229937
-0.00259321
-0.00291584
-0.00327169
-0.00366736
-0.00410423
-0.00457488
-0.0050631
-0.00554551
-0.00600645
-0.00644232
-0.00685059
-0.00722642
-0.00756332
-0.00785315
-0.00808645
-0.00825294
-0.00834224
-0.00834446
-0.00825014
-0.00805132
-0.00774184
-0.00731715
-0.00677344
-0.00610755
-0.00532506
-0.00443304
-0.003433
-0.0023405
-0.00117196
5.14076e-05
0.00130387
0.00255463
0.00376802
0.00490626
0.00593003
0.00680041
0.00748379
0.00795263
0.00819148
0.00819992
0.00799283
0.00759806
0.00706293
0.00644176
0.00579223
0.00516889
0.00461862
0.00417175
0.00384168
0.00362716
0.00350941
0.00346673
0.00347666
0.0035082
0.00354143
0.00357158
0.00359635
-2.38484e-05
-5.9749e-06
-7.70063e-06
-3.26144e-05
-7.93972e-05
-0.000140477
-0.000206853
-0.000271877
-0.000332885
-0.000391058
-0.00044874
-0.000509487
-0.000577309
-0.000655255
-0.000745533
-0.000849951
-0.000970057
-0.00110795
-0.00126568
-0.00144556
-0.0016504
-0.00188281
-0.00214604
-0.00244438
-0.00278145
-0.00315953
-0.00357959
-0.00403973
-0.00453312
-0.00504736
-0.00556576
-0.00607259
-0.00655651
-0.00700974
-0.00742593
-0.00779798
-0.00811777
-0.00837659
-0.00856541
-0.00867488
-0.00869607
-0.00862107
-0.00844288
-0.00815586
-0.00775599
-0.00724102
-0.00660985
-0.00585988
-0.00500229
-0.00404253
-0.00299165
-0.00186474
-0.000681594
0.000533405
0.00175146
0.00293954
0.00406187
0.00507925
0.00595401
0.00665319
0.00715
0.00742771
0.00748397
0.00733241
0.00700044
0.00653125
0.00597612
0.00538912
0.00482568
0.00432764
0.00392303
0.00363649
0.00346612
0.0033931
0.00338686
0.00342562
0.00348222
0.00353458
0.00357901
0.00361421
-2.82717e-05
-1.08542e-05
-1.83897e-05
-5.19759e-05
-0.0001068
-0.00017074
-0.000234614
-0.000292986
-0.000344425
-0.000389953
-0.000434161
-0.000481952
-0.000537595
-0.000604202
-0.000683529
-0.000776638
-0.000884937
-0.00101077
-0.0011574
-0.00132925
-0.00153183
-0.00177111
-0.00205388
-0.00238375
-0.00276246
-0.00319145
-0.00366896
-0.00418808
-0.00473722
-0.00530209
-0.00586812
-0.00642146
-0.00694966
-0.0074429
-0.00789351
-0.00829378
-0.00863619
-0.00891313
-0.00911632
-0.00923771
-0.00926974
-0.00920576
-0.0090397
-0.00876641
-0.00838258
-0.00788686
-0.00727757
-0.00655598
-0.00572715
-0.00479703
-0.00377513
-0.0026753
-0.00151619
-0.000320454
0.000885586
0.00207135
0.00320165
0.00423802
0.00514326
0.00588271
0.00642878
0.00676228
0.00687723
0.00678514
0.00651249
0.00609862
0.00559294
0.00505018
0.00452354
0.00405766
0.00368234
0.00341703
0.00326395
0.00321134
0.00323871
0.00330878
0.00339302
0.00347252
0.00353891
0.00358515
-1.96543e-05
-7.51795e-06
-2.30871e-05
-6.58354e-05
-0.00012855
-0.000195268
-0.000256682
-0.000308361
-0.000350103
-0.000384614
-0.000417152
-0.000453295
-0.000497652
-0.000553337
-0.000622445
-0.000706893
-0.000809536
-0.000934707
-0.00108817
-0.00127686
-0.00150892
-0.00178961
-0.00212337
-0.00251404
-0.00296251
-0.00346571
-0.00401582
-0.00460172
-0.0052094
-0.00582396
-0.00643154
-0.00702008
-0.00757921
-0.00809952
-0.00857259
-0.00899082
-0.00934738
-0.00963512
-0.00984624
-0.00997399
-0.0100127
-0.00995668
-0.009801
-0.00954076
-0.00917259
-0.00869653
-0.00811105
-0.00741684
-0.00661708
-0.00571616
-0.00472194
-0.00364721
-0.00250931
-0.00132892
-0.000128679
0.00106389
0.00221374
0.00328237
0.00423455
0.00503483
0.00565277
0.00606695
0.00626557
0.0062539
0.00605569
0.00570972
0.00526252
0.00476594
0.00427414
0.00383366
0.00347678
0.00322479
0.00308083
0.00303576
0.00307043
0.00315547
0.00325977
0.00336178
0.00344702
0.00350063
9.14605e-06
1.0828e-05
-1.4781e-05
-6.8604e-05
-0.000138421
-0.000206602
-0.000265257
-0.000311182
-0.000344857
-0.000370688
-0.000394735
-0.000422942
-0.000460137
-0.000509982
-0.000575749
-0.000661379
-0.000772615
-0.000916342
-0.00110113
-0.00133512
-0.00162376
-0.00197346
-0.00238773
-0.00286488
-0.00339888
-0.00398071
-0.0045991
-0.00524265
-0.00589855
-0.00655334
-0.00719439
-0.00781032
-0.00839169
-0.0089301
-0.00941764
-0.00984711
-0.0102122
-0.0105061
-0.0107217
-0.0108537
-0.0108987
-0.010852
-0.0107094
-0.0104669
-0.0101215
-0.00967328
-0.00911952
-0.00846092
-0.0076998
-0.00683916
-0.00588508
-0.00484688
-0.00373959
-0.00258092
-0.0013893
-0.000190868
0.000978832
0.00208407
0.00309376
0.00397073
0.00468065
0.00520097
0.00551372
0.00561809
0.00552779
0.00527917
0.00491743
0.00449144
0.00405278
0.00364939
0.00331729
0.00307888
0.00294083
0.00289656
0.00292899
0.00301291
0.0031206
0.00322815
0.00331944
0.00337464
6.64498e-05
5.4302e-05
1.56897e-05
-5.20449e-05
-0.000126768
-0.000195783
-0.000252082
-0.000293705
-0.000322767
-0.000344518
-0.000365537
-0.000392146
-0.000429802
-0.000483511
-0.000558697
-0.000662169
-0.000802431
-0.00098945
-0.00123081
-0.00153453
-0.00190637
-0.00234925
-0.00285859
-0.00342496
-0.00403946
-0.00469235
-0.00537173
-0.00606563
-0.00676206
-0.00744929
-0.00811616
-0.00875252
-0.0093498
-0.00990029
-0.0103964
-0.0108309
-0.0111981
-0.0114926
-0.0117101
-0.0118488
-0.0119038
-0.0118705
-0.0117451
-0.0115254
-0.0112097
-0.010794
-0.0102779
-0.00966192
-0.00894689
-0.00813677
-0.00723794
-0.00625719
-0.0052025
-0.00408495
-0.00292351
-0.00174168
-0.000564261
0.00057897
0.00165363
0.00261694
0.0034367
0.00408789
0.00454462
0.00480197
0.00486319
0.00475401
0.00451515
0.0041931
0.00383676
0.00349328
0.0032009
0.00298467
0.00285484
0.00280824
0.00283234
0.00290428
0.00300104
0.00309879
0.00318147
0.00322988
0.000160301
0.00013131
7.53103e-05
-4.6524e-06
-8.41946e-05
-0.00015494
-0.0002103
-0.000250858
-0.000280075
-0.000304041
-0.000329804
-0.000364231
-0.000413973
-0.000486053
-0.000588337
-0.000730769
-0.000924484
-0.00117838
-0.00150075
-0.00189834
-0.00237042
-0.00291065
-0.00351108
-0.00416129
-0.00485029
-0.00556659
-0.00629845
-0.00703469
-0.00776429
-0.00847683
-0.00916255
-0.00981259
-0.0104189
-0.0109738
-0.0114702
-0.0119036
-0.0122701
-0.0125661
-0.0127901
-0.0129386
-0.0130047
-0.0129855
-0.0128777
-0.0126796
-0.0123898
-0.012007
-0.0115307
-0.010961
-0.0102994
-0.00954956
-0.00871622
-0.00780458
-0.00681764
-0.00576217
-0.00465403
-0.00351166
-0.0023541
-0.00120134
-8.92092e-05
0.000953336
0.00189622
0.00269322
0.0033194
0.00376277
0.00401621
0.00409113
0.00401894
0.00384038
0.00360058
0.00334502
0.00311351
0.00293379
0.00281993
0.00277307
0.00278422
0.00283667
0.00291329
0.00299026
0.003051
0.00308425
0.000294645
0.000248371
0.000172019
7.97382e-05
-5.71093e-06
-7.85877e-05
-0.000136164
-0.000180282
-0.000215999
-0.000250337
-0.000290933
-0.000345556
-0.00042251
-0.000530889
-0.000681396
-0.000886083
-0.00115624
-0.00150032
-0.00192348
-0.00242427
-0.00299674
-0.00363187
-0.00431867
-0.00504485
-0.00579884
-0.00656907
-0.00734455
-0.00811488
-0.00887002
-0.00960064
-0.0102981
-0.0109544
-0.0115618
-0.0121141
-0.0126082
-0.0130426
-0.0134126
-0.0137132
-0.0139406
-0.0140907
-0.0141615
-0.0141514
-0.0140587
-0.0138822
-0.0136209
-0.0132734
-0.0128401
-0.012321
-0.0117167
-0.0110291
-0.0102603
-0.00941328
-0.00849337
-0.00750889
-0.00647025
-0.00539009
-0.00427987
-0.00315092
-0.00202774
-0.000935116
9.31462e-05
0.00102365
0.00183362
0.00248163
0.00295671
0.00325557
0.00339361
0.00340011
0.003315
0.00317905
0.00303229
0.00290667
0.00282031
0.00277906
0.00277853
0.00280862
0.00285576
0.00290449
0.00293581
0.00295067
0.000474747
0.000409033
0.000309552
0.000204372
0.000110949
3.32391e-05
-3.02514e-05
-8.36922e-05
-0.00013373
-0.000188331
-0.000255929
-0.000345479
-0.000467005
-0.000631903
-0.00085246
-0.00114132
-0.00150857
-0.00195797
-0.00248779
-0.00309283
-0.00376318
-0.00448644
-0.00525044
-0.00604278
-0.00685203
-0.007667
-0.00847745
-0.00927366
-0.0100466
-0.0107879
-0.01149
-0.0121461
-0.0127512
-0.0133011
-0.0137922
-0.0142199
-0.0145805
-0.0148725
-0.0150939
-0.0152419
-0.0153152
-0.0153128
-0.0152337
-0.0150774
-0.0148433
-0.0145303
-0.014139
-0.0136695
-0.0131227
-0.0124995
-0.0118011
-0.0110292
-0.010187
-0.00927936
-0.00831202
-0.00729146
-0.0062272
-0.00513818
-0.00403879
-0.00294135
-0.00186422
-0.000833015
0.000121702
0.000966689
0.00167328
0.00221926
0.00260462
0.00283796
0.00294668
0.00296586
0.00293135
0.00287866
0.00283276
0.00280519
0.00279748
0.00280477
0.00282089
0.00283498
0.00283582
0.00283328
0.000701493
0.000611965
0.000488134
0.000365659
0.000262751
0.000176756
0.000102414
3.26784e-05
-4.08063e-05
-0.000127039
-0.000235355
-0.000376009
-0.000560713
-0.000802084
-0.00111282
-0.00150372
-0.0019798
-0.00253958
-0.0031772
-0.00388249
-0.0046427
-0.00544486
-0.0062763
-0.00712496
-0.0079797
-0.00882993
-0.00966605
-0.0104792
-0.0112612
-0.012005
-0.0127042
-0.0133535
-0.0139487
-0.0144865
-0.0149638
-0.0153775
-0.0157254
-0.0160065
-0.0162196
-0.0163634
-0.0164371
-0.01644
-0.0163718
-0.0162323
-0.0160213
-0.0157387
-0.0153847
-0.01496
-0.0144653
-0.0139013
-0.0132691
-0.0125698
-0.0118054
-0.0109784
-0.0100915
-0.00914781
-0.0081521
-0.00711297
-0.00603993
-0.00494819
-0.00385825
-0.00277919
-0.00172647
-0.000727746
0.000181906
0.000975177
0.00162319
0.00211644
0.00245818
0.0026704
0.00278164
0.00282486
0.00283333
0.00282778
0.00281797
0.00280562
0.00279147
0.00277087
0.00274403
0.00272617
0.000964928
0.000851471
0.000698078
0.000555798
0.000440815
0.000343072
0.00025216
0.000158233
5.12431e-05
-7.88633e-05
-0.000242339
-0.000450537
-0.000716152
-0.00105167
-0.0014679
-0.001971
-0.00256076
-0.00323088
-0.00397099
-0.00476836
-0.00560908
-0.00648005
-0.00736866
-0.00826323
-0.00915303
-0.0100281
-0.0108797
-0.0116998
-0.0124816
-0.013219
-0.0139071
-0.0145418
-0.0151202
-0.0156398
-0.0160985
-0.0164947
-0.0168271
-0.0170951
-0.0172981
-0.0174356
-0.0175072
-0.0175129
-0.0174526
-0.0173267
-0.0171352
-0.0168784
-0.016557
-0.0161715
-0.0157227
-0.0152114
-0.0146385
-0.0140048
-0.0133115
-0.0125597
-0.0117507
-0.0108857
-0.00996688
-0.00899689
-0.00797922
-0.00692
-0.00582869
-0.00471931
-0.00361419
-0.00251996
-0.00145591
-0.000454016
0.000443569
0.00120567
0.00180986
0.00225236
0.00254742
0.00271874
0.00280019
0.00282646
0.00281911
0.00279099
0.0027501
0.00269914
0.0026501
0.00262006
0.00125362
0.00111475
0.000927946
0.000763524
0.000633523
0.000519381
0.000405423
0.000278852
0.000127918
-5.83329e-05
-0.000290782
-0.000581589
-0.000943038
-0.00138568
-0.00191634
-0.00253581
-0.00323823
-0.00401307
-0.00484743
-0.00572709
-0.00663792
-0.00756687
-0.00850158
-0.00943089
-0.0103446
-0.0112337
-0.0120903
-0.0129078
-0.0136804
-0.0144036
-0.0150738
-0.0156884
-0.0162453
-0.016743
-0.0171805
-0.017557
-0.017872
-0.0181254
-0.018317
-0.0184469
-0.018515
-0.0185216
-0.0184672
-0.0183522
-0.0181767
-0.0179418
-0.017648
-0.0172962
-0.0168872
-0.0164217
-0.0159007
-0.0153248
-0.0146946
-0.0140105
-0.0132728
-0.0124815
-0.0116367
-0.0107383
-0.00978664
-0.00878249
-0.00772738
-0.00662562
-0.00548744
-0.00432977
-0.00316788
-0.00201667
-0.000912831
9.71735e-05
0.000971248
0.00167284
0.00218899
0.00252814
0.00271308
0.0027856
0.00278773
0.00274699
0.00268335
0.0026077
0.00254287
0.00250511
0.00155246
0.00138601
0.00116446
0.000973899
0.000825205
0.000689647
0.000545929
0.000378277
0.000173356
-8.02298e-05
-0.000394053
-0.00077981
-0.00124781
-0.00180515
-0.00245319
-0.00318704
-0.00399623
-0.00486735
-0.00578586
-0.00673692
-0.00770654
-0.00868184
-0.00965098
-0.0106034
-0.0115299
-0.0124225
-0.0132745
-0.0140808
-0.014837
-0.0155401
-0.0161878
-0.0167785
-0.0173112
-0.0177853
-0.0182004
-0.0185566
-0.0188538
-0.0190922
-0.0192722
-0.019394
-0.019458
-0.0194646
-0.0194144
-0.0193079
-0.0191461
-0.0189295
-0.0186591
-0.0183358
-0.0179605
-0.0175342
-0.0170576
-0.0165313
-0.0159558
-0.0153312
-0.0146569
-0.0139323
-0.0131559
-0.0123262
-0.0114409
-0.0104979
-0.0094951
-0.00843133
-0.00730728
-0.00612692
-0.0049012
-0.00365408
-0.00240345
-0.00118969
-6.87576e-05
0.000901229
0.00166995
0.00221617
0.00254617
0.0026933
0.00271667
0.0026682
0.00258417
0.00248793
0.00241239
0.0023692
0.00184134
0.00164632
0.00138642
0.0011686
0.000997942
0.00083597
0.000655845
0.000438909
0.000171221
-0.000159218
-0.000564274
-0.00105347
-0.00163403
-0.00230775
-0.00307036
-0.00391209
-0.00481903
-0.00577586
-0.00676708
-0.00777773
-0.00879409
-0.00980371
-0.0107955
-0.0117598
-0.0126887
-0.0135754
-0.0144149
-0.0152034
-0.0159381
-0.0166171
-0.0172395
-0.0178045
-0.0183121
-0.0187623
-0.0191554
-0.0194917
-0.0197718
-0.019996
-0.0201649
-0.020279
-0.0203389
-0.020345
-0.0202981
-0.0201989
-0.0200483
-0.0198471
-0.0195964
-0.019297
-0.0189501
-0.0185566
-0.0181174
-0.0176331
-0.017104
-0.0165301
-0.0159108
-0.0152447
-0.0145298
-0.0137633
-0.0129416
-0.0120604
-0.011115
-0.0101008
-0.00901378
-0.00785169
-0.0066159
-0.00531558
-0.003971
-0.00261318
-0.00129167
-7.54145e-05
0.000958186
0.00174701
0.0022656
0.00253042
0.00259996
0.00255369
0.00245146
0.00233693
0.00225191
0.0022018
0.00209835
0.00187452
0.00157621
0.00132919
0.00113318
0.000939628
0.000716487
0.000443829
0.000106819
-0.000308408
-0.000811029
-0.00140779
-0.00210125
-0.00288768
-0.00375786
-0.00469786
-0.0056914
-0.00672192
-0.00777348
-0.00883131
-0.00988212
-0.0109142
-0.0119174
-0.0128835
-0.0138057
-0.0146792
-0.0155001
-0.0162663
-0.0169762
-0.0176292
-0.0182252
-0.0187644
-0.0192473
-0.0196746
-0.0200469
-0.0203649
-0.0206292
-0.0208406
-0.0209995
-0.0211067
-0.0211629
-0.0211687
-0.0211246
-0.0210316
-0.0208906
-0.0207025
-0.0204682
-0.020189
-0.0198657
-0.0194996
-0.0190914
-0.018642
-0.0181517
-0.0176204
-0.0170475
-0.0164314
-0.0157701
-0.01506
-0.0142968
-0.0134751
-0.0125882
-0.0116292
-0.0105906
-0.00946598
-0.00825137
-0.00694686
-0.00556059
-0.00411533
-0.00265298
-0.00123819
4.15157e-05
0.00109028
0.00183792
0.00227023
0.00242718
0.00240081
0.00228764
0.00215528
0.00205662
0.00199573
0.00230502
0.00205084
0.0017148
0.00143753
0.00121276
0.00098273
0.00071207
0.00037936
-3.30965e-05
-0.00053708
-0.00113933
-0.00184315
-0.00264516
-0.00353692
-0.00450462
-0.00553121
-0.00659879
-0.00769013
-0.00878924
-0.00988175
-0.0109551
-0.0119985
-0.0130032
-0.0139624
-0.014871
-0.0157256
-0.016524
-0.0172651
-0.0179488
-0.0185754
-0.0191454
-0.0196599
-0.0201197
-0.0205258
-0.0208792
-0.0211807
-0.0214312
-0.0216313
-0.0217818
-0.0218833
-0.0219365
-0.0219421
-0.0219007
-0.0218133
-0.0216806
-0.0215036
-0.0212833
-0.0210209
-0.0207174
-0.0203739
-0.0199915
-0.0195708
-0.0191123
-0.0186162
-0.0180818
-0.0175078
-0.016892
-0.0162309
-0.0155198
-0.0147527
-0.0139222
-0.0130198
-0.012036
-0.010961
-0.00978636
-0.00850639
-0.00712081
-0.00564053
-0.00409562
-0.00254194
-0.00106285
0.000234959
0.00123899
0.00188295
0.0021778
0.00220597
0.00209352
0.00194293
0.00182163
0.00174629
0.00243597
0.00215608
0.00178472
0.00147686
0.00122048
0.000950692
0.000630011
0.000233462
-0.000256913
-0.000850037
-0.00155059
-0.00235628
-0.00325919
-0.004246
-0.00529912
-0.00639929
-0.00752764
-0.00866665
-0.0098006
-0.0109158
-0.0120006
-0.0130455
-0.0140434
-0.014989
-0.0158788
-0.0167108
-0.0174844
-0.0181995
-0.018857
-0.0194578
-0.0200034
-0.0204948
-0.0209336
-0.0213208
-0.0216576
-0.0219448
-0.0221834
-0.0223741
-0.0225176
-0.0226147
-0.0226657
-0.0226716
-0.0226329
-0.0225504
-0.0224251
-0.0222578
-0.0220495
-0.0218013
-0.0215143
-0.0211896
-0.0208283
-0.0204311
-0.0199987
-0.0195313
-0.0190285
-0.0184892
-0.0179113
-0.0172917
-0.0166257
-0.0159073
-0.0151289
-0.0142811
-0.0133534
-0.0123342
-0.0112116
-0.00997566
-0.00861978
-0.00714499
-0.00556799
-0.00393148
-0.00231117
-0.000806462
0.000452321
0.00134599
0.00182893
0.00195476
0.00186383
0.00169693
0.00154303
0.0014519
0.00247856
0.00217568
0.00177207
0.0014338
0.00114392
0.000833358
0.000460818
-1.59631e-06
-0.000568806
-0.0012486
-0.0020419
-0.00294158
-0.00393501
-0.00500455
-0.00612975
-0.00728989
-0.00846556
-0.00963934
-0.010796
-0.0119228
-0.0130094
-0.0140477
-0.0150322
-0.0159591
-0.0168267
-0.0176342
-0.0183821
-0.0190715
-0.0197037
-0.0202805
-0.0208035
-0.0212743
-0.0216944
-0.0220651
-0.0223875
-0.0226627
-0.0228914
-0.0230744
-0.0232124
-0.0233061
-0.0233559
-0.0233624
-0.0233265
-0.0232487
-0.02313
-0.0229711
-0.0227732
-0.0225371
-0.022264
-0.021955
-0.0216111
-0.0212332
-0.0208221
-0.020378
-0.0199008
-0.0193897
-0.018843
-0.0182579
-0.0176302
-0.0169542
-0.0162224
-0.0154254
-0.0145522
-0.0135902
-0.0125255
-0.0113451
-0.010038
-0.00859777
-0.00702872
-0.00535773
-0.00365036
-0.00199577
-0.00051565
0.000636528
0.00135056
0.00162706
0.00158957
0.00141097
0.00121791
0.00111141
0.00242073
0.00209874
0.00166685
0.00129941
0.000976173
0.000623799
0.00019794
-0.000327843
-0.000968389
-0.00172984
-0.00260785
-0.00359126
-0.00466294
-0.00580175
-0.0069852
-0.00819166
-0.00940159
-0.0105979
-0.0117663
-0.012895
-0.0139752
-0.0150004
-0.0159665
-0.0168716
-0.017715
-0.0184974
-0.01922
-0.0198846
-0.0204932
-0.021048
-0.0215507
-0.0220033
-0.0224072
-0.0227637
-0.0230741
-0.0233393
-0.02356
-0.0237369
-0.0238707
-0.023962
-0.0240112
-0.0240189
-0.0239857
-0.0239124
-0.0237997
-0.0236484
-0.0234595
-0.0232338
-0.0229725
-0.0226767
-0.0223473
-0.0219853
-0.0215915
-0.0211663
-0.0207099
-0.0202217
-0.0197003
-0.0191435
-0.0185477
-0.0179077
-0.0172166
-0.0164655
-0.0156433
-0.0147371
-0.0137322
-0.0126132
-0.0113661
-0.0099798
-0.00844882
-0.00678308
-0.00502954
-0.00328393
-0.00163852
-0.000246344
0.000726125
0.00120117
0.00125346
0.00107669
0.000846171
0.000725115
0.00225538
0.00191883
0.00146356
0.00106926
0.000713284
0.000319322
-0.000158014
-0.000743699
-0.00145257
-0.00228754
-0.00324044
-0.00429573
-0.0054324
-0.00662667
-0.00785464
-0.00909429
-0.0103262
-0.0115341
-0.0127044
-0.0138269
-0.0148941
-0.0159013
-0.0168459
-0.0177272
-0.0185458
-0.0193032
-0.0200015
-0.020643
-0.0212301
-0.0217651
-0.0222501
-0.0226867
-0.0230768
-0.0234214
-0.0237218
-0.0239787
-0.024193
-0.0243652
-0.0244959
-0.0245857
-0.0246349
-0.024644
-0.0246138
-0.0245447
-0.0244375
-0.024293
-0.024112
-0.0238954
-0.0236443
-0.0233596
-0.0230424
-0.0226936
-0.0223141
-0.0219044
-0.0214648
-0.0209951
-0.0204942
-0.0199606
-0.019391
-0.0187812
-0.018125
-0.0174142
-0.0166383
-0.0157846
-0.0148382
-0.0137825
-0.0126011
-0.0112795
-0.00980628
-0.00817846
-0.00641866
-0.00462099
-0.00287013
-0.00128689
-6.23964e-05
0.00064766
0.000839442
0.000687421
0.000430753
0.000293627
0.0019806
0.00163446
0.0011614
0.000743326
0.000355717
-7.85193e-05
-0.000603225
-0.00124358
-0.00201393
-0.00291322
-0.00392983
-0.0050443
-0.00623248
-0.00746863
-0.00872805
-0.00998866
-0.0112315
-0.0124411
-0.0136052
-0.0147149
-0.0157643
-0.0167501
-0.0176712
-0.0185279
-0.0193218
-0.0200553
-0.0207308
-0.0213512
-0.0219189
-0.0224364
-0.0229058
-0.0233289
-0.0237071
-0.0240418
-0.0243339
-0.0245843
-0.0247935
-0.0249621
-0.0250907
-0.0251796
-0.0252293
-0.0252402
-0.0252128
-0.0251478
-0.0250457
-0.0249073
-0.0247333
-0.0245247
-0.0242824
-0.0240073
-0.0237005
-0.0233628
-0.0229952
-0.0225982
-0.0221724
-0.0217177
-0.0212336
-0.0207187
-0.0201708
-0.019586
-0.0189593
-0.0182834
-0.0175486
-0.0167431
-0.0158521
-0.0148588
-0.013745
-0.0124938
-0.011091
-0.00952459
-0.00779715
-0.0059655
-0.00416343
-0.00245177
-0.00100765
-4.79059e-05
0.000327417
0.000229851
-2.8445e-05
-0.000187413
0.00159924
0.00124873
0.000763558
0.000324956
-9.19348e-05
-0.000562949
-0.00113053
-0.00181974
-0.00264293
-0.00359638
-0.00466493
-0.00582576
-0.0070523
-0.00831749
-0.0095963
-0.0108669
-0.012111
-0.0133141
-0.0144653
-0.0155572
-0.0165853
-0.0175476
-0.0184441
-0.0192763
-0.0200464
-0.0207573
-0.0214119
-0.0220131
-0.0225636
-0.0230658
-0.0235217
-0.0239332
-0.0243016
-0.024628
-0.0249134
-0.0251584
-0.0253637
-0.0255297
-0.0256568
-0.0257454
-0.0257959
-0.0258086
-0.0257842
-0.0257229
-0.0256256
-0.0254927
-0.0253251
-0.0251236
-0.024889
-0.0246222
-0.0243243
-0.0239961
-0.0236385
-0.0232523
-0.0228379
-0.0223957
-0.0219252
-0.0214258
-0.0208955
-0.0203316
-0.0197297
-0.0190836
-0.0183848
-0.0176224
-0.0167826
-0.0158486
-0.0148018
-0.0136231
-0.0122964
-0.0108064
-0.00914085
-0.00731008
-0.00547366
-0.00369471
-0.00208429
-0.000887336
-0.000298891
-0.000297934
-0.000537609
-0.000726867
0.00111814
0.000768829
0.000276862
-0.000178619
-0.000621719
-0.00112491
-0.00172991
-0.00246113
-0.00332832
-0.00432536
-0.00543404
-0.00662884
-0.00788138
-0.00916388
-0.0104513
-0.0117223
-0.0129594
-0.0141494
-0.0152827
-0.0163531
-0.0173575
-0.0182952
-0.0191671
-0.0199754
-0.0207229
-0.0214129
-0.0220483
-0.0226324
-0.0231676
-0.0236565
-0.0241009
-0.0245025
-0.0248625
-0.0251821
-0.025462
-0.0257028
-0.025905
-0.0260691
-0.0261953
-0.0262841
-0.0263356
-0.0263503
-0.0263286
-0.026271
-0.026178
-0.0260502
-0.0258884
-0.0256931
-0.0254654
-0.025206
-0.0249158
-0.0245958
-0.0242469
-0.0238697
-0.023465
-0.0230332
-0.0225741
-0.0220875
-0.0215719
-0.0210253
-0.0204442
-0.0198235
-0.0191559
-0.0184317
-0.0176381
-0.0167595
-0.015777
-0.0146703
-0.0134207
-0.0120121
-0.0104255
-0.0086533
-0.00678086
-0.00497586
-0.00326452
-0.00186914
-0.00105623
-0.000903356
-0.00110804
-0.00133687
0.000548132
0.000204726
-0.000288605
-0.000756778
-0.001222
-0.00175293
-0.00238994
-0.00315555
-0.00405769
-0.00508788
-0.00622537
-0.00744257
-0.00870993
-0.00999932
-0.011286
-0.0125493
-0.0137729
-0.0149446
-0.0160561
-0.0171026
-0.0180822
-0.0189949
-0.0198427
-0.0206282
-0.0213545
-0.0220252
-0.0226434
-0.0232121
-0.023734
-0.0242112
-0.0246457
-0.0250388
-0.0253919
-0.0257058
-0.0259812
-0.0262186
-0.0264185
-0.0265812
-0.0267069
-0.0267961
-0.0268488
-0.0268655
-0.0268466
-0.0267924
-0.0267034
-0.0265803
-0.0264236
-0.026234
-0.0260124
-0.0257595
-0.0254762
-0.0251634
-0.024822
-0.0244527
-0.0240563
-0.0236333
-0.0231839
-0.022708
-0.0222049
-0.0216729
-0.0211094
-0.0205103
-0.0198696
-0.0191789
-0.0184267
-0.0175986
-0.0166764
-0.0156397
-0.0144675
-0.0131422
-0.0116447
-0.00995571
-0.00808254
-0.00626545
-0.00451345
-0.00297356
-0.00195042
-0.00161653
-0.00175527
-0.00203423
-9.65972e-05
-0.000431267
-0.000920412
-0.00139704
-0.00188049
-0.00243464
-0.00309756
-0.00389004
-0.00481824
-0.00587163
-0.00702745
-0.00825664
-0.00952894
-0.0108163
-0.0120944
-0.0133436
-0.0145484
-0.015698
-0.0167852
-0.0178064
-0.0187606
-0.0196488
-0.0204733
-0.0212372
-0.0219439
-0.022597
-0.0231996
-0.0237547
-0.0242648
-0.0247319
-0.0251578
-0.0255438
-0.025891
-0.0262001
-0.0264718
-0.0267065
-0.0269046
-0.0270663
-0.0271919
-0.0272816
-0.0273357
-0.0273543
-0.027338
-0.027287
-0.0272018
-0.0270829
-0.0269309
-0.0267465
-0.0265303
-0.0262833
-0.0260061
-0.0256997
-0.0253649
-0.0250026
-0.0246135
-0.0241982
-0.0237572
-0.0232906
-0.022798
-0.0222784
-0.02173
-0.0211495
-0.020532
-0.0198705
-0.0191551
-0.0183725
-0.0175061
-0.0165356
-0.0154388
-0.014196
-0.0127885
-0.0111905
-0.00938885
-0.00754692
-0.00579421
-0.00417107
-0.00297151
-0.00245363
-0.00249807
-0.00284286
-0.000801074
-0.0011245
-0.00160513
-0.00208646
-0.00258414
-0.0031567
-0.00383933
-0.00465139
-0.00559725
-0.00666469
-0.00782945
-0.00906152
-0.0103304
-0.0116082
-0.0128715
-0.0141015
-0.0152838
-0.0164086
-0.01747
-0.0184653
-0.0193944
-0.0202587
-0.021061
-0.0218048
-0.0224935
-0.0231306
-0.0237192
-0.0242622
-0.0247619
-0.0252201
-0.0256386
-0.0260184
-0.0263605
-0.0266657
-0.0269343
-0.0271668
-0.0273635
-0.0275246
-0.0276502
-0.0277406
-0.027796
-0.0278166
-0.0278027
-0.0277546
-0.0276729
-0.0275579
-0.0274102
-0.0272305
-0.0270193
-0.0267775
-0.0265059
-0.0262052
-0.0258764
-0.0255203
-0.0251376
-0.0247292
-0.0242955
-0.023837
-0.0233537
-0.0228449
-0.0223095
-0.0217451
-0.0211479
-0.0205119
-0.019829
-0.0190873
-0.0182716
-0.0173628
-0.0163386
-0.0151772
-0.0138591
-0.0123593
-0.0106599
-0.00881166
-0.00708282
-0.00543966
-0.00411281
-0.00341395
-0.00335074
-0.00376969
-0.00155024
-0.00186003
-0.00232871
-0.00281123
-0.00331906
-0.00390503
-0.00460163
-0.00542654
-0.00638246
-0.00745582
-0.00862139
-0.00984863
-0.0111071
-0.0123695
-0.0136132
-0.0148202
-0.0159774
-0.0170759
-0.0181109
-0.0190804
-0.0199848
-0.0208263
-0.0216079
-0.022333
-0.0230051
-0.0236277
-0.0242038
-0.0247359
-0.0252264
-0.0256769
-0.0260888
-0.0264633
-0.0268011
-0.0271028
-0.0273689
-0.0275996
-0.0277952
-0.0279558
-0.0280816
-0.0281728
-0.0282295
-0.0282519
-0.0282403
-0.028195
-0.0281165
-0.028005
-0.0278613
-0.0276858
-0.0274792
-0.0272422
-0.0269756
-0.0266801
-0.0263567
-0.0260062
-0.0256294
-0.0252271
-0.0248001
-0.0243488
-0.0238737
-0.0233744
-0.0228505
-0.0223001
-0.0217205
-0.0211071
-0.0204529
-0.0197477
-0.018978
-0.0181261
-0.0171704
-0.0160879
-0.0148598
-0.0134651
-0.0118731
-0.010062
-0.00834504
-0.00673621
-0.00534289
-0.00448792
-0.00432186
-0.00480484
-0.00232858
-0.00262307
-0.00307692
-0.00355693
-0.00407097
-0.0046659
-0.00537129
-0.00620307
-0.00716237
-0.00823469
-0.00939423
-0.0106104
-0.011853
-0.0130954
-0.0143159
-0.0154975
-0.016628
-0.0176996
-0.0187081
-0.0196524
-0.0205333
-0.0213533
-0.0221154
-0.0228232
-0.0234802
-0.0240897
-0.0246544
-0.0251769
-0.0256592
-0.0261028
-0.026509
-0.0268788
-0.0272129
-0.0275116
-0.0277755
-0.0280047
-0.0281994
-0.0283597
-0.0284858
-0.0285777
-0.0286357
-0.0286598
-0.0286504
-0.0286076
-0.028532
-0.0284239
-0.0282837
-0.0281121
-0.0279097
-0.0276771
-0.027415
-0.0271243
-0.0268058
-0.0264604
-0.026089
-0.0256923
-0.0252713
-0.0248267
-0.0243589
-0.0238682
-0.0233544
-0.0228165
-0.0222526
-0.021659
-0.0210301
-0.0203576
-0.0196293
-0.0188291
-0.0179366
-0.016929
-0.0157861
-0.0144887
-0.0130048
-0.0113086
-0.00958443
-0.00802076
-0.00661289
-0.00564663
-0.00540697
-0.00592682
-0.00312112
-0.00339883
-0.00383543
-0.00430983
-0.00482652
-0.00542637
-0.00613598
-0.00696943
-0.0079265
-0.00899197
-0.01014
-0.0113401
-0.0125627
-0.013782
-0.014977
-0.0161317
-0.0172349
-0.0182796
-0.0192622
-0.0201822
-0.0210408
-0.0218406
-0.0225847
-0.0232767
-0.0239199
-0.0245175
-0.025072
-0.0255859
-0.0260608
-0.0264983
-0.0268994
-0.0272651
-0.0275958
-0.027892
-0.028154
-0.0283819
-0.0285758
-0.028736
-0.0288623
-0.028955
-0.0290141
-0.0290399
-0.0290324
-0.028992
-0.0289191
-0.028814
-0.0286771
-0.028509
-0.0283104
-0.0280817
-0.0278239
-0.0275376
-0.0272236
-0.026883
-0.0265164
-0.026125
-0.0257095
-0.0252709
-0.0248099
-0.0243269
-0.0238223
-0.0232956
-0.0227455
-0.0221695
-0.0215632
-0.0209197
-0.0202286
-0.0194754
-0.0186415
-0.0177046
-0.0166425
-0.015436
-0.0140573
-0.0124875
-0.0107889
-0.00927774
-0.00788724
-0.00685404
-0.00657066
-0.00708367
-0.0039136
-0.00417318
-0.00459057
-0.00505694
-0.00557323
-0.00617449
-0.00688437
-0.00771522
-0.00866559
-0.00971941
-0.0108516
-0.0120321
-0.0132319
-0.0144259
-0.0155942
-0.0167215
-0.0177974
-0.0188157
-0.0197735
-0.0206705
-0.0215081
-0.0222891
-0.0230167
-0.0236942
-0.0243249
-0.0249117
-0.025457
-0.0259631
-0.0264314
-0.0268634
-0.0272601
-0.027622
-0.0279498
-0.0282437
-0.028504
-0.0287308
-0.0289241
-0.0290841
-0.0292108
-0.0293041
-0.0293644
-0.0293915
-0.0293859
-0.0293477
-0.0292772
-0.0291747
-0.0290409
-0.028876
-0.0286808
-0.0284559
-0.0282018
-0.0279196
-0.0276098
-0.0272735
-0.0269115
-0.0265249
-0.0261146
-0.0256815
-0.0252267
-0.0247509
-0.0242546
-0.0237379
-0.0232003
-0.02264
-0.0220538
-0.0214361
-0.0207783
-0.0200676
-0.0192872
-0.018416
-0.0174309
-0.0163142
-0.0150447
-0.0135931
-0.011945
-0.0104708
-0.00913228
-0.0080742
-0.00774753
-0.00819117
-0.0046929
-0.00493327
-0.00533003
-0.00578637
-0.00629972
-0.00689945
-0.00760632
-0.00843107
-0.00937157
-0.01041
-0.0115231
-0.0126815
-0.0138567
-0.0150245
-0.0161656
-0.0172656
-0.018315
-0.019308
-0.0202422
-0.0211176
-0.0219358
-0.0226996
-0.023412
-0.0240763
-0.0246956
-0.0252727
-0.0258097
-0.0263087
-0.0267712
-0.0271983
-0.0275908
-0.0279494
-0.0282746
-0.0285665
-0.0288252
-0.029051
-0.0292438
-0.0294037
-0.0295306
-0.0296246
-0.0296858
-0.0297143
-0.0297103
-0.029674
-0.0296057
-0.0295058
-0.0293746
-0.0292127
-0.0290206
-0.028799
-0.0285485
-0.0282699
-0.027964
-0.0276317
-0.0272739
-0.0268918
-0.0264862
-0.0260584
-0.0256093
-0.02514
-0.0246514
-0.0241438
-0.0236174
-0.0230711
-0.0225028
-0.0219082
-0.02128
-0.0206074
-0.0198752
-0.0190638
-0.0181509
-0.0171184
-0.0159485
-0.01461
-0.0130687
-0.011604
-0.0103168
-0.00926494
-0.00888132
-0.00921459
-0.00544647
-0.00566746
-0.00604277
-0.00648754
-0.00699587
-0.00759169
-0.00829288
-0.00910873
-0.0100372
-0.011058
-0.0121493
-0.0132843
-0.0144342
-0.0155755
-0.0166897
-0.0177633
-0.0187872
-0.0197564
-0.0206685
-0.0215239
-0.0223243
-0.0230722