/*--------------------------------*- C++ -*----------------------------------*\
  =========                 |
  \\      /  F ield         | OpenFOAM: The Open Source CFD Toolbox
   \\    /   O peration     | Website:  https://openfoam.org
    \\  /    A nd           | Version:  13
     \\/     M anipulation  |
\*---------------------------------------------------------------------------*/
FoamFile
{
    format      ascii;
    class       volScalarField;
    location    "9.9";
    object      nut;
}
// * * * * * * * * * * * * * * * * * * * * * * * * * * * * * * * * * * * * * //

dimensions      [0 2 -1 0 0 0 0];

internalField   nonuniform List<scalar> 
6400
(
9.95304e-10
5.11104e-09
1.24314e-08
2.00183e-08
2.57164e-08
2.88927e-08
3.00216e-08
3.0104e-08
3.02747e-08
3.13814e-08
3.40999e-08
3.94574e-08
4.79294e-08
5.96745e-08
7.40611e-08
9.02736e-08
1.07463e-07
1.25298e-07
1.42914e-07
1.59925e-07
1.7708e-07
1.95872e-07
2.18273e-07
2.45342e-07
2.75801e-07
3.06332e-07
3.36716e-07
3.66884e-07
3.97829e-07
4.30354e-07
4.63983e-07
4.97626e-07
5.30741e-07
5.63477e-07
5.96606e-07
6.3035e-07
6.65362e-07
7.0186e-07
7.40269e-07
7.80693e-07
8.23426e-07
8.6879e-07
9.17048e-07
9.68703e-07
1.02429e-06
1.08577e-06
1.15695e-06
1.24586e-06
1.33268e-06
1.42194e-06
1.50872e-06
1.59296e-06
1.67167e-06
1.7428e-06
1.80366e-06
1.85068e-06
1.87394e-06
1.88303e-06
1.8766e-06
1.83869e-06
1.77315e-06
1.68056e-06
1.56173e-06
1.42192e-06
1.26345e-06
1.09474e-06
9.23807e-07
7.57006e-07
6.00416e-07
4.61819e-07
3.48537e-07
2.53492e-07
1.76745e-07
1.18193e-07
7.60395e-08
4.72873e-08
2.85111e-08
1.63958e-08
7.758e-09
1.65337e-09
4.80583e-09
3.36666e-07
1.20959e-06
2.03719e-06
2.64775e-06
3.00638e-06
3.17086e-06
3.22916e-06
3.26731e-06
3.34854e-06
3.5504e-06
3.94175e-06
4.48888e-06
5.12218e-06
5.77587e-06
6.38612e-06
6.90702e-06
7.2899e-06
7.52293e-06
7.62426e-06
7.67991e-06
7.7543e-06
7.91589e-06
8.18784e-06
8.50395e-06
8.70585e-06
8.90983e-06
9.14512e-06
9.45972e-06
9.89122e-06
1.04406e-05
1.1046e-05
1.17e-05
1.23756e-05
1.30895e-05
1.38279e-05
1.45991e-05
1.53976e-05
1.62303e-05
1.70914e-05
1.79751e-05
1.88871e-05
1.98302e-05
2.08203e-05
2.18241e-05
2.28048e-05
2.37385e-05
2.45648e-05
2.54468e-05
2.63261e-05
2.72189e-05
2.80993e-05
2.89557e-05
2.97657e-05
3.05077e-05
3.12381e-05
3.16681e-05
3.19647e-05
3.2138e-05
3.20903e-05
3.17004e-05
3.10131e-05
2.99881e-05
2.86295e-05
2.69334e-05
2.49591e-05
2.27994e-05
2.04746e-05
1.80199e-05
1.53361e-05
1.24289e-05
9.63615e-06
7.17571e-06
5.15461e-06
3.58186e-06
2.44201e-06
1.63733e-06
1.06176e-06
4.81411e-07
8.75025e-09
1.05002e-08
8.66893e-07
3.49282e-06
6.05713e-06
8.01961e-06
9.29535e-06
1.00154e-05
1.03828e-05
1.06117e-05
1.08838e-05
1.13269e-05
1.20201e-05
1.29332e-05
1.39622e-05
1.49747e-05
1.58612e-05
1.65712e-05
1.70801e-05
1.73889e-05
1.7515e-05
1.74817e-05
1.739e-05
1.73182e-05
1.73044e-05
1.73852e-05
1.76542e-05
1.79761e-05
1.83077e-05
1.86674e-05
1.9052e-05
1.95595e-05
2.0273e-05
2.1274e-05
2.22986e-05
2.34546e-05
2.46668e-05
2.59578e-05
2.72648e-05
2.86313e-05
3.00859e-05
3.14917e-05
3.29452e-05
3.4352e-05
3.56911e-05
3.69682e-05
3.82246e-05
3.94454e-05
4.06728e-05
4.19115e-05
4.31456e-05
4.43717e-05
4.55751e-05
4.67403e-05
4.78461e-05
4.8865e-05
4.97603e-05
5.05603e-05
5.1063e-05
5.12896e-05
5.14355e-05
5.12434e-05
5.07319e-05
4.98385e-05
4.84744e-05
4.65464e-05
4.409e-05
4.12915e-05
3.81333e-05
3.46311e-05
3.08178e-05
2.67523e-05
2.2576e-05
1.8487e-05
1.46876e-05
1.13435e-05
8.51439e-06
6.26802e-06
4.33001e-06
1.80878e-06
2.34564e-08
1.82358e-08
1.41878e-06
5.46587e-06
9.32256e-06
1.23048e-05
1.43555e-05
1.5633e-05
1.63629e-05
1.68122e-05
1.7201e-05
1.77287e-05
1.85161e-05
1.95367e-05
2.06461e-05
2.16802e-05
2.25228e-05
2.31153e-05
2.34566e-05
2.35788e-05
2.3543e-05
2.34179e-05
2.33138e-05
2.32981e-05
2.34118e-05
2.34734e-05
2.34903e-05
2.34931e-05
2.3914e-05
2.4669e-05
2.56797e-05
2.69708e-05
2.81989e-05
2.94195e-05
3.07182e-05
3.2048e-05
3.33472e-05
3.46582e-05
3.60385e-05
3.73265e-05
3.86165e-05
3.98481e-05
4.10643e-05
4.22281e-05
4.33549e-05
4.44331e-05
4.54891e-05
4.65447e-05
4.76014e-05
4.86554e-05
4.97006e-05
5.07307e-05
5.17347e-05
5.26999e-05
5.36094e-05
5.44434e-05
5.51781e-05
5.57885e-05
5.62452e-05
5.64767e-05
5.65257e-05
5.63528e-05
5.58008e-05
5.50424e-05
5.42241e-05
5.28884e-05
5.09257e-05
4.85151e-05
4.56231e-05
4.23181e-05
3.86456e-05
3.46499e-05
3.03975e-05
2.59984e-05
2.16172e-05
1.74588e-05
1.36846e-05
1.04038e-05
7.31284e-06
3.04156e-06
3.91695e-08
2.92806e-08
2.13096e-06
7.59034e-06
1.25507e-05
1.62519e-05
1.87479e-05
2.02823e-05
2.11438e-05
2.16491e-05
2.21183e-05
2.28044e-05
2.37892e-05
2.49648e-05
2.61297e-05
2.71052e-05
2.77927e-05
2.81744e-05
2.82932e-05
2.82077e-05
2.80409e-05
2.78027e-05
2.76379e-05
2.74871e-05
2.68763e-05
2.68342e-05
2.73826e-05
2.8338e-05
2.9482e-05
3.06451e-05
3.19537e-05
3.32394e-05
3.44784e-05
3.5698e-05
3.6883e-05
3.79729e-05
3.89973e-05
4.003e-05
4.09727e-05
4.17957e-05
4.25682e-05
4.32575e-05
4.38992e-05
4.45033e-05
4.51042e-05
4.57237e-05
4.63547e-05
4.69844e-05
4.76224e-05
4.82705e-05
4.89319e-05
4.96082e-05
5.02995e-05
5.10038e-05
5.17166e-05
5.24313e-05
5.31352e-05
5.38064e-05
5.44164e-05
5.49325e-05
5.52942e-05
5.54287e-05
5.52984e-05
5.47124e-05
5.36179e-05
5.28169e-05
5.16115e-05
4.97745e-05
4.7444e-05
4.46806e-05
4.15337e-05
3.80385e-05
3.42199e-05
3.01141e-05
2.58124e-05
2.15236e-05
1.74147e-05
1.35549e-05
9.55424e-06
3.90604e-06
5.01186e-08
4.50756e-08
3.09056e-06
1.01028e-05
1.60857e-05
2.02957e-05
2.29778e-05
2.45245e-05
2.53488e-05
2.5875e-05
2.64792e-05
2.73696e-05
2.85221e-05
2.97474e-05
3.08249e-05
3.15998e-05
3.20125e-05
3.2084e-05
3.19435e-05
3.15392e-05
3.12287e-05
3.0713e-05
2.98468e-05
2.97101e-05
3.04354e-05
3.14106e-05
3.24316e-05
3.36011e-05
3.47698e-05
3.58965e-05
3.69702e-05
3.79155e-05
3.8777e-05
3.95723e-05
4.02557e-05
4.08002e-05
4.12783e-05
4.16607e-05
4.2039e-05
4.23117e-05
4.25557e-05
4.27671e-05
4.29689e-05
4.31585e-05
4.33368e-05
4.35129e-05
4.36836e-05
4.38579e-05
4.40425e-05
4.42473e-05
4.44826e-05
4.47598e-05
4.5091e-05
4.54881e-05
4.59583e-05
4.64992e-05
4.71221e-05
4.78186e-05
4.85673e-05
4.93311e-05
5.00595e-05
5.0761e-05
5.11547e-05
5.12847e-05
5.10448e-05
5.02285e-05
4.97281e-05
4.85031e-05
4.67286e-05
4.44659e-05
4.17999e-05
3.88021e-05
3.55031e-05
3.18834e-05
2.79174e-05
2.37575e-05
1.95351e-05
1.53972e-05
1.08921e-05
4.32709e-06
5.42476e-08
6.70229e-08
4.34125e-06
1.30327e-05
1.99238e-05
2.44479e-05
2.71233e-05
2.85393e-05
2.92668e-05
2.98239e-05
3.05686e-05
3.16017e-05
3.27925e-05
3.39099e-05
3.47525e-05
3.52172e-05
3.53029e-05
3.4855e-05
3.44153e-05
3.39702e-05
3.27903e-05
3.24637e-05
3.29662e-05
3.38328e-05
3.46312e-05
3.55296e-05
3.64327e-05
3.73417e-05
3.81264e-05
3.8802e-05
3.93781e-05
3.98726e-05
4.02913e-05
4.06058e-05
4.08284e-05
4.09739e-05
4.10703e-05
4.11179e-05
4.11384e-05
4.10978e-05
4.10671e-05
4.10421e-05
4.09507e-05
4.08796e-05
4.07737e-05
4.06748e-05
4.05534e-05
4.04313e-05
4.02998e-05
4.01703e-05
4.00505e-05
3.99561e-05
3.9906e-05
3.99314e-05
4.00778e-05
4.03255e-05
4.07209e-05
4.13077e-05
4.20818e-05
4.30005e-05
4.40169e-05
4.51064e-05
4.61327e-05
4.70279e-05
4.74387e-05
4.7464e-05
4.69928e-05
4.66725e-05
4.54438e-05
4.35774e-05
4.12025e-05
3.84638e-05
3.54759e-05
3.22712e-05
2.87537e-05
2.48176e-05
2.07464e-05
1.63282e-05
1.11947e-05
4.31899e-06
5.27352e-08
9.64181e-08
5.90202e-06
1.6307e-05
2.3956e-05
2.86143e-05
3.11522e-05
3.2374e-05
3.29994e-05
3.3585e-05
3.44107e-05
3.5459e-05
3.65264e-05
3.73758e-05
3.7842e-05
3.78832e-05
3.73803e-05
3.69215e-05
3.58874e-05
3.51522e-05
3.51331e-05
3.56983e-05
3.61025e-05
3.6747e-05
3.7359e-05
3.80973e-05
3.8716e-05
3.92593e-05
3.96638e-05
3.99748e-05
4.01932e-05
4.0338e-05
4.04147e-05
4.04309e-05
4.04072e-05
4.03565e-05
4.02912e-05
4.02121e-05
4.01242e-05
4.00261e-05
3.99316e-05
3.97824e-05
3.96804e-05
3.96126e-05
3.93973e-05
3.9265e-05
3.90748e-05
3.8889e-05
3.86778e-05
3.84535e-05
3.82082e-05
3.79417e-05
3.76503e-05
3.73309e-05
3.69771e-05
3.66911e-05
3.65227e-05
3.65502e-05
3.69227e-05
3.76314e-05
3.8561e-05
3.98013e-05
4.11333e-05
4.2544e-05
4.385e-05
4.45464e-05
4.46501e-05
4.45588e-05
4.4372e-05
4.29719e-05
4.08439e-05
3.8179e-05
3.51955e-05
3.20712e-05
2.8848e-05
2.52904e-05
2.12509e-05
1.68534e-05
1.13786e-05
4.20849e-06
4.90622e-08
1.34161e-07
7.75451e-06
1.98318e-05
2.80262e-05
3.27005e-05
3.50282e-05
3.60356e-05
3.65561e-05
3.71292e-05
3.7932e-05
3.88527e-05
3.96572e-05
4.01376e-05
4.00241e-05
3.95577e-05
3.90707e-05
3.77681e-05
3.7292e-05
3.73673e-05
3.7448e-05
3.77289e-05
3.81611e-05
3.86718e-05
3.91222e-05
3.9554e-05
3.98428e-05
4.00495e-05
4.0153e-05
4.02009e-05
4.01979e-05
4.01685e-05
4.0122e-05
4.0072e-05
4.00281e-05
3.99923e-05
3.99647e-05
3.99424e-05
3.9923e-05
3.98998e-05
3.98531e-05
3.98194e-05
3.97962e-05
3.9705e-05
3.96104e-05
3.951e-05
3.93719e-05
3.92184e-05
3.90327e-05
3.88187e-05
3.85715e-05
3.82884e-05
3.79625e-05
3.75878e-05
3.71602e-05
3.66693e-05
3.61072e-05
3.54793e-05
3.47996e-05
3.43565e-05
3.45412e-05
3.54162e-05
3.65757e-05
3.81552e-05
3.98088e-05
4.14706e-05
4.24157e-05
4.25863e-05
4.27494e-05
4.26603e-05
4.09913e-05
3.84932e-05
3.54179e-05
3.20691e-05
2.86958e-05
2.52768e-05
2.14443e-05
1.69081e-05
1.11291e-05
3.91918e-06
4.48419e-08
1.80588e-07
9.8164e-06
2.34345e-05
3.20508e-05
3.66479e-05
3.87247e-05
3.9507e-05
3.98973e-05
4.03825e-05
4.10427e-05
4.17067e-05
4.21451e-05
4.19284e-05
4.14018e-05
4.08337e-05
3.97608e-05
3.92274e-05
3.90195e-05
3.88004e-05
3.89625e-05
3.92117e-05
3.95247e-05
3.98127e-05
4.00175e-05
4.01581e-05
4.01981e-05
4.01977e-05
4.01591e-05
4.01226e-05
4.00935e-05
4.00896e-05
4.01113e-05
4.01611e-05
4.02335e-05
4.03213e-05
4.04161e-05
4.05054e-05
4.05963e-05
4.06507e-05
4.06786e-05
4.07283e-05
4.07088e-05
4.06734e-05
4.06079e-05
4.05171e-05
4.03949e-05
4.02494e-05
4.00776e-05
3.98844e-05
3.96619e-05
3.94079e-05
3.91143e-05
3.87695e-05
3.83547e-05
3.78664e-05
3.72773e-05
3.65713e-05
3.57395e-05
3.4815e-05
3.38437e-05
3.29003e-05
3.30778e-05
3.42208e-05
3.57315e-05
3.76919e-05
3.96369e-05
4.08238e-05
4.10836e-05
4.1339e-05
4.12583e-05
3.92609e-05
3.63262e-05
3.27711e-05
2.89813e-05
2.52488e-05
2.13991e-05
1.68507e-05
1.08425e-05
3.63475e-06
4.13109e-08
2.36557e-07
1.19157e-05
2.69754e-05
3.59422e-05
4.04105e-05
4.22139e-05
4.27526e-05
4.29624e-05
4.32661e-05
4.36681e-05
4.39704e-05
4.36678e-05
4.3051e-05
4.24086e-05
4.14973e-05
4.08624e-05
4.02886e-05
3.99987e-05
3.98874e-05
4.00052e-05
4.01268e-05
4.02523e-05
4.03167e-05
4.03201e-05
4.02879e-05
4.02302e-05
4.01946e-05
4.01879e-05
4.02324e-05
4.03233e-05
4.04614e-05
4.06339e-05
4.08309e-05
4.10383e-05
4.1242e-05
4.14658e-05
4.16228e-05
4.17175e-05
4.18831e-05
4.1957e-05
4.20172e-05
4.20254e-05
4.2008e-05
4.19507e-05
4.18605e-05
4.17344e-05
4.15757e-05
4.13834e-05
4.1159e-05
4.09022e-05
4.06142e-05
4.02955e-05
3.99463e-05
3.95657e-05
3.91507e-05
3.86696e-05
3.80782e-05
3.73234e-05
3.63913e-05
3.52702e-05
3.4019e-05
3.27932e-05
3.17073e-05
3.22933e-05
3.38561e-05
3.59395e-05
3.81079e-05
3.95528e-05
3.98984e-05
4.01327e-05
3.99271e-05
3.75472e-05
3.41304e-05
3.00595e-05
2.57717e-05
2.15461e-05
1.68159e-05
1.08094e-05
3.54814e-06
3.99001e-08
3.04578e-07
1.38549e-05
3.03617e-05
3.96417e-05
4.39521e-05
4.54641e-05
4.57271e-05
4.56897e-05
4.57156e-05
4.57587e-05
4.53505e-05
4.46236e-05
4.3928e-05
4.30941e-05
4.23508e-05
4.14504e-05
4.09719e-05
4.07061e-05
4.05961e-05
4.05931e-05
4.05614e-05
4.05214e-05
4.0446e-05
4.03696e-05
4.03201e-05
4.0319e-05
4.03902e-05
4.05294e-05
4.0736e-05
4.09921e-05
4.12846e-05
4.15945e-05
4.19076e-05
4.22388e-05
4.25407e-05
4.27439e-05
4.29458e-05
4.31688e-05
4.33306e-05
4.34403e-05
4.35189e-05
4.35517e-05
4.35485e-05
4.35031e-05
4.3419e-05
4.3295e-05
4.31325e-05
4.29316e-05
4.26931e-05
4.24171e-05
4.21038e-05
4.17525e-05
4.1362e-05
4.09305e-05
4.04561e-05
3.99375e-05
3.93732e-05
3.87575e-05
3.80141e-05
3.70541e-05
3.58278e-05
3.43955e-05
3.28686e-05
3.14904e-05
3.08998e-05
3.23875e-05
3.43941e-05
3.68243e-05
3.8449e-05
3.88445e-05
3.8981e-05
3.84747e-05
3.56477e-05
3.17191e-05
2.71128e-05
2.2259e-05
1.71739e-05
1.1022e-05
3.67949e-06
4.11412e-08
3.80051e-07
1.57747e-05
3.35819e-05
4.31158e-05
4.72433e-05
4.84431e-05
4.83874e-05
4.8029e-05
4.76871e-05
4.71013e-05
4.62274e-05
4.54925e-05
4.46238e-05
4.37479e-05
4.26253e-05
4.18591e-05
4.14176e-05
4.11317e-05
4.09569e-05
4.08272e-05
4.06868e-05
4.05703e-05
4.04804e-05
4.04582e-05
4.05198e-05
4.06736e-05
4.09169e-05
4.12308e-05
4.15987e-05
4.19972e-05
4.24095e-05
4.28215e-05
4.32402e-05
4.36195e-05
4.39308e-05
4.4208e-05
4.44654e-05
4.47248e-05
4.49166e-05
4.506e-05
4.51643e-05
4.52232e-05
4.52394e-05
4.52106e-05
4.51378e-05
4.50203e-05
4.48589e-05
4.46539e-05
4.44058e-05
4.41155e-05
4.37833e-05
4.3409e-05
4.29915e-05
4.25281e-05
4.2015e-05
4.14469e-05
4.08189e-05
4.0129e-05
3.938e-05
3.85711e-05
3.75855e-05
3.63103e-05
3.47561e-05
3.30204e-05
3.13254e-05
3.00334e-05
3.10805e-05
3.31003e-05
3.56977e-05
3.74114e-05
3.77863e-05
3.77726e-05
3.67279e-05
3.33917e-05
2.89473e-05
2.3734e-05
1.81623e-05
1.17775e-05
4.11861e-06
4.67382e-08
4.60816e-07
1.76376e-05
3.65928e-05
4.63313e-05
5.02581e-05
5.11237e-05
5.07016e-05
4.99491e-05
4.90663e-05
4.79753e-05
4.71917e-05
4.61278e-05
4.51212e-05
4.38217e-05
4.27848e-05
4.20943e-05
4.16432e-05
4.13105e-05
4.10648e-05
4.08625e-05
4.07023e-05
4.06211e-05
4.0631e-05
4.07569e-05
4.09934e-05
4.13292e-05
4.17425e-05
4.22077e-05
4.27032e-05
4.32085e-05
4.37091e-05
4.41932e-05
4.46542e-05
4.50802e-05
4.54555e-05
4.57962e-05
4.60978e-05
4.63532e-05
4.66136e-05
4.67951e-05
4.69301e-05
4.70191e-05
4.7059e-05
4.70494e-05
4.69895e-05
4.68787e-05
4.6717e-05
4.65047e-05
4.62429e-05
4.59329e-05
4.55763e-05
4.51748e-05
4.47293e-05
4.42391e-05
4.37013e-05
4.31097e-05
4.2455e-05
4.17257e-05
4.09125e-05
4.00149e-05
3.90481e-05
3.7977e-05
3.66491e-05
3.49738e-05
3.30726e-05
3.11426e-05
2.96232e-05
2.9986e-05
3.20002e-05
3.46885e-05
3.6359e-05
3.65965e-05
3.64504e-05
3.45217e-05
3.07128e-05
2.56142e-05
1.97341e-05
1.30163e-05
4.96215e-06
6.05718e-08
5.44233e-07
1.94007e-05
3.93542e-05
4.92631e-05
5.2979e-05
5.34951e-05
5.26714e-05
5.14324e-05
5.00402e-05
4.91487e-05
4.7714e-05
4.65684e-05
4.50863e-05
4.37994e-05
4.28345e-05
4.21715e-05
4.16916e-05
4.13225e-05
4.10501e-05
4.08603e-05
4.07756e-05
4.0821e-05
4.09987e-05
4.13077e-05
4.17236e-05
4.22218e-05
4.27738e-05
4.33551e-05
4.3946e-05
4.45308e-05
4.50988e-05
4.56415e-05
4.61529e-05
4.66277e-05
4.70658e-05
4.74796e-05
4.78334e-05
4.81174e-05
4.83725e-05
4.86499e-05
4.88108e-05
4.89347e-05
4.90014e-05
4.90128e-05
4.89669e-05
4.88625e-05
4.86991e-05
4.84765e-05
4.81956e-05
4.78581e-05
4.74667e-05
4.70247e-05
4.65359e-05
4.60036e-05
4.54292e-05
4.48108e-05
4.41414e-05
4.34072e-05
4.25883e-05
4.16626e-05
4.06156e-05
3.94577e-05
3.81798e-05
3.67462e-05
3.49992e-05
3.29683e-05
3.08951e-05
2.91343e-05
2.9065e-05
3.10343e-05
3.3778e-05
3.5246e-05
3.52383e-05
3.48504e-05
3.19542e-05
2.73504e-05
2.15197e-05
1.45644e-05
5.9639e-06
8.32596e-08
6.27938e-07
2.1025e-05
4.18409e-05
5.1901e-05
5.53968e-05
5.55664e-05
5.4252e-05
5.26205e-05
5.13872e-05
4.95771e-05
4.81758e-05
4.64953e-05
4.49523e-05
4.37033e-05
4.27857e-05
4.21265e-05
4.16317e-05
4.12692e-05
4.1039e-05
4.09445e-05
4.10059e-05
4.12257e-05
4.15884e-05
4.20716e-05
4.26417e-05
4.32702e-05
4.39303e-05
4.46019e-05
4.527e-05
4.59233e-05
4.65543e-05
4.71573e-05
4.77284e-05
4.82644e-05
4.87634e-05
4.92224e-05
4.9653e-05
5.00104e-05
5.0276e-05
5.05677e-05
5.08102e-05
5.09559e-05
5.1055e-05
5.1088e-05
5.10583e-05
5.09621e-05
5.07988e-05
5.05671e-05
5.02672e-05
4.99002e-05
4.94686e-05
4.89766e-05
4.84297e-05
4.78346e-05
4.7198e-05
4.65252e-05
4.58172e-05
4.5068e-05
4.42613e-05
4.33689e-05
4.23533e-05
4.11787e-05
3.98368e-05
3.83347e-05
3.66047e-05
3.47984e-05
3.26893e-05
3.05256e-05
2.85701e-05
2.82845e-05
3.01769e-05
3.28204e-05
3.41333e-05
3.35579e-05
3.24361e-05
2.85836e-05
2.31158e-05
1.617e-05
7.00684e-06
1.12745e-07
7.10082e-07
2.24656e-05
4.40515e-05
5.42816e-05
5.7481e-05
5.71292e-05
5.55555e-05
5.38666e-05
5.17913e-05
5.00329e-05
4.81293e-05
4.63116e-05
4.47571e-05
4.35501e-05
4.26633e-05
4.20135e-05
4.15429e-05
4.12446e-05
4.11229e-05
4.11812e-05
4.14212e-05
4.18226e-05
4.23555e-05
4.29864e-05
4.36814e-05
4.44143e-05
4.51632e-05
4.59131e-05
4.66529e-05
4.73747e-05
4.80727e-05
4.87424e-05
4.93797e-05
4.99811e-05
5.05429e-05
5.1061e-05
5.15461e-05
5.1984e-05
5.22701e-05
5.25652e-05
5.28892e-05
5.30571e-05
5.31868e-05
5.32421e-05
5.32299e-05
5.31452e-05
5.29865e-05
5.27516e-05
5.24393e-05
5.20494e-05
5.15829e-05
5.10431e-05
5.04352e-05
4.97671e-05
4.90489e-05
4.82916e-05
4.75054e-05
4.66961e-05
4.58607e-05
4.49817e-05
4.40232e-05
4.29301e-05
4.16383e-05
4.0176e-05
3.84652e-05
3.63021e-05
3.43478e-05
3.22585e-05
2.9972e-05
2.78445e-05
2.76628e-05
2.94645e-05
3.16501e-05
3.24602e-05
3.17443e-05
2.91886e-05
2.43096e-05
1.7619e-05
7.95599e-06
1.47185e-07
7.8907e-07
2.37552e-05
4.59835e-05
5.62372e-05
5.9064e-05
5.85657e-05
5.70027e-05
5.47343e-05
5.22323e-05
5.00732e-05
4.7956e-05
4.60642e-05
4.45255e-05
4.3359e-05
4.25039e-05
4.18919e-05
4.1495e-05
4.13141e-05
4.13464e-05
4.15823e-05
4.20015e-05
4.25685e-05
4.32461e-05
4.3999e-05
4.47976e-05
4.56201e-05
4.645e-05
4.72758e-05
4.80893e-05
4.88838e-05
4.96539e-05
5.03946e-05
5.11009e-05
5.1768e-05
5.23912e-05
5.29662e-05
5.34896e-05
5.39812e-05
5.43315e-05
5.46244e-05
5.49862e-05
5.51945e-05
5.53449e-05
5.54219e-05
5.54269e-05
5.53563e-05
5.52074e-05
5.49773e-05
5.46634e-05
5.42634e-05
5.37765e-05
5.32033e-05
5.25469e-05
5.18137e-05
5.10137e-05
5.01605e-05
4.92703e-05
4.83595e-05
4.74403e-05
4.65146e-05
4.55658e-05
4.45513e-05
4.33969e-05
4.20028e-05
4.04356e-05
3.84129e-05
3.59303e-05
3.37674e-05
3.165e-05
2.91699e-05
2.68772e-05
2.70776e-05
2.90699e-05
3.04354e-05
3.04439e-05
2.9271e-05
2.5065e-05
1.87581e-05
8.73108e-06
1.84918e-07
8.61851e-07
2.4854e-05
4.75392e-05
5.77513e-05
6.03441e-05
6.00198e-05
5.78726e-05
5.50677e-05
5.25169e-05
4.99727e-05
4.77065e-05
4.57845e-05
4.4277e-05
4.31546e-05
4.23489e-05
4.18135e-05
4.15353e-05
4.1508e-05
4.17138e-05
4.21261e-05
4.27083e-05
4.3418e-05
4.42174e-05
4.50745e-05
4.59651e-05
4.68718e-05
4.77818e-05
4.86861e-05
4.9577e-05
5.04479e-05
5.12924e-05
5.21039e-05
5.28764e-05
5.36037e-05
5.42804e-05
5.49018e-05
5.54635e-05
5.59923e-05
5.64067e-05
5.66908e-05
5.70585e-05
5.73099e-05
5.74712e-05
5.75652e-05
5.75846e-05
5.75281e-05
5.73926e-05
5.71745e-05
5.687e-05
5.64753e-05
5.59867e-05
5.5402e-05
5.47206e-05
5.39454e-05
5.30831e-05
5.21458e-05
5.11508e-05
5.01199e-05
4.90767e-05
4.80411e-05
4.70214e-05
4.60036e-05
4.49397e-05
4.37369e-05
4.22569e-05
4.05153e-05
3.80549e-05
3.53846e-05
3.3066e-05
3.08535e-05
2.80474e-05
2.58135e-05
2.64272e-05
2.84144e-05
2.94273e-05
2.83043e-05
2.53314e-05
1.95436e-05
9.32368e-06
2.24799e-07
9.25862e-07
2.57361e-05
4.87166e-05
5.89008e-05
6.16023e-05
6.10901e-05
5.86341e-05
5.551e-05
5.25228e-05
4.97776e-05
4.74162e-05
4.54944e-05
4.40294e-05
4.29631e-05
4.22344e-05
4.1813e-05
4.16844e-05
4.18265e-05
4.22049e-05
4.27788e-05
4.35034e-05
4.43359e-05
4.52416e-05
4.61933e-05
4.71716e-05
4.81624e-05
4.9155e-05
5.01407e-05
5.11112e-05
5.20587e-05
5.29751e-05
5.38525e-05
5.46837e-05
5.5462e-05
5.61819e-05
5.68389e-05
5.74298e-05
5.79758e-05
5.84395e-05
5.87172e-05
5.90622e-05
5.93483e-05
5.95113e-05
5.9614e-05
5.96423e-05
5.9597e-05
5.94751e-05
5.92731e-05
5.89864e-05
5.86099e-05
5.81378e-05
5.75647e-05
5.68862e-05
5.61002e-05
5.52083e-05
5.42176e-05
5.31419e-05
5.20028e-05
5.08283e-05
4.965e-05
4.84967e-05
4.73832e-05
4.62977e-05
4.51852e-05
4.3933e-05
4.23618e-05
4.02863e-05
3.74881e-05
3.46532e-05
3.22584e-05
2.98304e-05
2.67681e-05
2.49951e-05
2.58486e-05
2.70522e-05
2.71451e-05
2.52725e-05
1.99757e-05
9.71086e-06
2.66365e-07
9.79688e-07
2.6407e-05
4.95637e-05
5.98043e-05
6.25456e-05
6.18512e-05
5.89588e-05
5.56769e-05
5.24245e-05
4.95248e-05
4.71097e-05
4.521e-05
4.37997e-05
4.28083e-05
4.21856e-05
4.19056e-05
4.19412e-05
4.22522e-05
4.27908e-05
4.35081e-05
4.43573e-05
4.52988e-05
4.63021e-05
4.73447e-05
4.84106e-05
4.94873e-05
5.05646e-05
5.16325e-05
5.26815e-05
5.37016e-05
5.46834e-05
5.56179e-05
5.64972e-05
5.73144e-05
5.80645e-05
5.87438e-05
5.93503e-05
5.98854e-05
6.03748e-05
6.06692e-05
6.09598e-05
6.12686e-05
6.14234e-05
6.15243e-05
6.15534e-05
6.15132e-05
6.14015e-05
6.12154e-05
6.09503e-05
6.06004e-05
6.01585e-05
5.96166e-05
5.89666e-05
5.82015e-05
5.73168e-05
5.63127e-05
5.51963e-05
5.39835e-05
5.27006e-05
5.13832e-05
5.00724e-05
4.88062e-05
4.76063e-05
4.64608e-05
4.5303e-05
4.39887e-05
4.22587e-05
3.96514e-05
3.66814e-05
3.37509e-05
3.1286e-05
2.84535e-05
2.50979e-05
2.43195e-05
2.54638e-05
2.61939e-05
2.46783e-05
2.00544e-05
9.88759e-06
3.09548e-07
1.02255e-06
2.68685e-05
5.01379e-05
6.04259e-05
6.32693e-05
6.24406e-05
5.93882e-05
5.57316e-05
5.22553e-05
4.92416e-05
4.68046e-05
4.49442e-05
4.36028e-05
4.27074e-05
4.22143e-05
4.20906e-05
4.22914e-05
4.27613e-05
4.34443e-05
4.42888e-05
4.52498e-05
4.6292e-05
4.73892e-05
4.85222e-05
4.96768e-05
5.08407e-05
5.20024e-05
5.31504e-05
5.42729e-05
5.53584e-05
5.63961e-05
5.73764e-05
5.82911e-05
5.91338e-05
5.99e-05
6.05866e-05
6.11922e-05
6.17165e-05
6.21959e-05
6.25117e-05
6.27315e-05
6.30454e-05
6.31829e-05
6.32701e-05
6.32899e-05
6.32461e-05
6.31378e-05
6.29631e-05
6.27184e-05
6.23977e-05
6.19933e-05
6.14957e-05
6.08938e-05
6.01763e-05
5.93329e-05
5.83561e-05
5.72444e-05
5.60048e-05
5.46562e-05
5.32306e-05
5.1773e-05
5.03354e-05
4.89662e-05
4.76934e-05
4.65048e-05
4.53266e-05
4.40017e-05
4.18184e-05
3.87314e-05
3.56685e-05
3.26625e-05
3.00605e-05
2.65665e-05
2.3583e-05
2.34703e-05
2.38995e-05
2.36197e-05
1.99351e-05
1.00218e-05
3.56355e-07
1.05436e-06
2.71396e-05
5.04671e-05
6.07905e-05
6.38097e-05
6.27106e-05
5.95532e-05
5.56905e-05
5.20404e-05
4.89476e-05
4.65131e-05
4.47069e-05
4.34497e-05
4.26692e-05
4.23207e-05
4.23568e-05
4.27153e-05
4.33306e-05
4.41435e-05
4.51029e-05
4.61675e-05
4.73061e-05
4.8496e-05
4.97199e-05
5.09636e-05
5.22138e-05
5.34571e-05
5.46798e-05
5.58683e-05
5.70097e-05
5.80924e-05
5.91066e-05
6.00445e-05
6.09002e-05
6.167e-05
6.23519e-05
6.2946e-05
6.34539e-05
6.38952e-05
6.42125e-05
6.43865e-05
6.46668e-05
6.47825e-05
6.48436e-05
6.48431e-05
6.47851e-05
6.46706e-05
6.44993e-05
6.42688e-05
6.39742e-05
6.3608e-05
6.31601e-05
6.26178e-05
6.19665e-05
6.11909e-05
6.02766e-05
5.92129e-05
5.79962e-05
5.66342e-05
5.51496e-05
5.35826e-05
5.19892e-05
5.04337e-05
4.8973e-05
4.76335e-05
4.63848e-05
4.51122e-05
4.35896e-05
4.09334e-05
3.76857e-05
3.45223e-05
3.12702e-05
2.82829e-05
2.43601e-05
2.26119e-05
2.27806e-05
2.28585e-05
1.98112e-05
1.03516e-05
4.15668e-07
1.0756e-06
2.72447e-05
5.05407e-05
6.0865e-05
6.40025e-05
6.30217e-05
5.96245e-05
5.55829e-05
5.17997e-05
4.86569e-05
4.62442e-05
4.45054e-05
4.33467e-05
4.2695e-05
4.24974e-05
4.26888e-05
4.31936e-05
4.39411e-05
4.4872e-05
4.59379e-05
4.71011e-05
4.83341e-05
4.96161e-05
5.09305e-05
5.22619e-05
5.35953e-05
5.49149e-05
5.6205e-05
5.74505e-05
5.86378e-05
5.9755e-05
6.07924e-05
6.17427e-05
6.26008e-05
6.33639e-05
6.4031e-05
6.46031e-05
6.50829e-05
6.54739e-05
6.57768e-05
6.59471e-05
6.61326e-05
6.62297e-05
6.62525e-05
6.62203e-05
6.61366e-05
6.60045e-05
6.58257e-05
6.55997e-05
6.53231e-05
6.49896e-05
6.45896e-05
6.41099e-05
6.35341e-05
6.28432e-05
6.20172e-05
6.1037e-05
5.98883e-05
5.85658e-05
5.70788e-05
5.54562e-05
5.37492e-05
5.2029e-05
5.03757e-05
4.88578e-05
4.75041e-05
4.62737e-05
4.50292e-05
4.28692e-05
3.96434e-05
3.64792e-05
3.31574e-05
2.9622e-05
2.59393e-05
2.21972e-05
2.14668e-05
2.13528e-05
1.95406e-05
1.09716e-05
4.95923e-07
1.08647e-06
2.71792e-05
5.03526e-05
6.08078e-05
6.41576e-05
6.30892e-05
5.96007e-05
5.54286e-05
5.15487e-05
4.83797e-05
4.60039e-05
4.43439e-05
4.32952e-05
4.27804e-05
4.27327e-05
4.30707e-05
4.37098e-05
4.45782e-05
4.56182e-05
4.67845e-05
4.80433e-05
4.93691e-05
5.07423e-05
5.21453e-05
5.35612e-05
5.49726e-05
5.63616e-05
5.77109e-05
5.90046e-05
6.02285e-05
6.13709e-05
6.24227e-05
6.33771e-05
6.42299e-05
6.49789e-05
6.5624e-05
6.6167e-05
6.66112e-05
6.69602e-05
6.72322e-05
6.73921e-05
6.7479e-05
6.75419e-05
6.75162e-05
6.74411e-05
6.73199e-05
6.7158e-05
6.69592e-05
6.67251e-05
6.64547e-05
6.61436e-05
6.57835e-05
6.53619e-05
6.4862e-05
6.42628e-05
6.35401e-05
6.26683e-05
6.16232e-05
6.03866e-05
5.89524e-05
5.73333e-05
5.55672e-05
5.37196e-05
5.18786e-05
5.01373e-05
4.85645e-05
4.71689e-05
4.58655e-05
4.44494e-05
4.16233e-05
3.82032e-05
3.4884e-05
3.12901e-05
2.75867e-05
2.30241e-05
2.09085e-05
1.98206e-05
1.9014e-05
1.16653e-05
5.97396e-07
1.08601e-06
2.7011e-05
5.0099e-05
6.06056e-05
6.41893e-05
6.30526e-05
5.95044e-05
5.5244e-05
5.12988e-05
4.81232e-05
4.5796e-05
4.4224e-05
4.32932e-05
4.29175e-05
4.30141e-05
4.34882e-05
4.42507e-05
4.52305e-05
4.63728e-05
4.76354e-05
4.89871e-05
5.0404e-05
5.18661e-05
5.33544e-05
5.48498e-05
5.63328e-05
5.77838e-05
5.91845e-05
6.05183e-05
6.17713e-05
6.2932e-05
6.3992e-05
6.49453e-05
6.57883e-05
6.65196e-05
6.71399e-05
6.76519e-05
6.806e-05
6.837e-05
6.8587e-05
6.86969e-05
6.87414e-05
6.87445e-05
6.8661e-05
6.85325e-05
6.83625e-05
6.81583e-05
6.79261e-05
6.76701e-05
6.73918e-05
6.70893e-05
6.67564e-05
6.63825e-05
6.59514e-05
6.54417e-05
6.48271e-05
6.40771e-05
6.31598e-05
6.20454e-05
6.07123e-05
5.91552e-05
5.73935e-05
5.54794e-05
5.34992e-05
5.15636e-05
4.97821e-05
4.82236e-05
4.68754e-05
4.56155e-05
4.34437e-05
3.99912e-05
3.67399e-05
3.28528e-05
2.88147e-05
2.4495e-05
2.07441e-05
1.92923e-05
1.85901e-05
1.22815e-05
7.15967e-07
1.08049e-06
2.67433e-05
4.9689e-05
6.02131e-05
6.39942e-05
6.29094e-05
5.93503e-05
5.50414e-05
5.10587e-05
4.78921e-05
4.56225e-05
4.41451e-05
4.33361e-05
4.30971e-05
4.33298e-05
4.39295e-05
4.48057e-05
4.58893e-05
4.71283e-05
4.84836e-05
4.99255e-05
5.14307e-05
5.29782e-05
5.45471e-05
5.61161e-05
5.7664e-05
5.91699e-05
6.06149e-05
6.19826e-05
6.32591e-05
6.44338e-05
6.54988e-05
6.64488e-05
6.72808e-05
6.79939e-05
6.85894e-05
6.90703e-05
6.94412e-05
6.97077e-05
6.98758e-05
6.9923e-05
6.99276e-05
6.98661e-05
6.97158e-05
6.95243e-05
6.9295e-05
6.90367e-05
6.8758e-05
6.84657e-05
6.81642e-05
6.78546e-05
6.75334e-05
6.71925e-05
6.68175e-05
6.63881e-05
6.58773e-05
6.52521e-05
6.44748e-05
6.35065e-05
6.23115e-05
6.08662e-05
5.91682e-05
5.72485e-05
5.5179e-05
5.30708e-05
5.10555e-05
4.92461e-05
4.76838e-05
4.62896e-05
4.48376e-05
4.1828e-05
3.83122e-05
3.47073e-05
3.05483e-05
2.60049e-05
2.08803e-05
1.87494e-05
1.763e-05
1.29295e-05
8.40511e-07
1.06807e-06
2.642e-05
4.90141e-05
5.96857e-05
6.36677e-05
6.2676e-05
5.91509e-05
5.48306e-05
5.08347e-05
4.76897e-05
4.54839e-05
4.41047e-05
4.34176e-05
4.33101e-05
4.36695e-05
4.4385e-05
4.53664e-05
4.65472e-05
4.78781e-05
4.93222e-05
5.0851e-05
5.24407e-05
5.40689e-05
5.57127e-05
5.73491e-05
5.89553e-05
6.051e-05
6.19939e-05
6.3391e-05
6.4688e-05
6.58749e-05
6.69443e-05
6.78916e-05
6.87141e-05
6.94112e-05
6.99844e-05
7.04367e-05
7.07724e-05
7.0997e-05
7.11167e-05
7.10961e-05
7.1049e-05
7.09374e-05
7.07087e-05
7.04455e-05
7.01476e-05
6.98243e-05
6.94866e-05
6.91442e-05
6.88045e-05
6.84715e-05
6.81452e-05
6.78203e-05
6.74852e-05
6.71217e-05
6.67036e-05
6.61973e-05
6.55618e-05
6.47514e-05
6.37193e-05
6.24248e-05
6.08439e-05
5.89829e-05
5.68915e-05
5.46712e-05
5.24661e-05
5.04315e-05
4.86793e-05
4.72164e-05
4.59018e-05
4.34152e-05
3.9788e-05
3.65994e-05
3.19218e-05
2.72278e-05
2.20898e-05
1.85302e-05
1.64512e-05
1.3443e-05
9.43076e-07
1.04862e-06
2.60073e-05
4.8268e-05
5.90692e-05
6.32194e-05
6.23653e-05
5.89162e-05
5.46189e-05
5.06314e-05
4.75178e-05
4.53795e-05
4.40993e-05
4.35312e-05
4.35477e-05
4.40243e-05
4.48465e-05
4.59255e-05
4.71975e-05
4.86156e-05
5.01443e-05
5.17557e-05
5.34251e-05
5.51284e-05
5.68411e-05
5.85387e-05
6.01976e-05
6.1796e-05
6.33151e-05
6.47391e-05
6.60556e-05
6.72551e-05
6.83307e-05
6.92781e-05
7.00947e-05
7.07801e-05
7.13353e-05
7.17629e-05
7.20669e-05
7.22528e-05
7.23279e-05
7.22313e-05
7.21032e-05
7.19791e-05
7.1663e-05
7.1321e-05
7.09463e-05
7.05487e-05
7.01412e-05
6.9736e-05
6.93438e-05
6.89719e-05
6.86237e-05
6.82972e-05
6.79842e-05
6.76691e-05
6.73282e-05
6.69284e-05
6.64279e-05
6.57767e-05
6.49197e-05
6.38023e-05
6.23799e-05
6.06323e-05
5.85809e-05
5.63036e-05
5.39385e-05
5.16617e-05
4.96345e-05
4.79315e-05
4.64816e-05
4.47233e-05
4.12451e-05
3.80851e-05
3.37741e-05
2.88076e-05
2.34809e-05
1.8993e-05
1.57329e-05
1.36449e-05
9.91094e-07
1.02316e-06
2.54845e-05
4.7407e-05
5.83567e-05
6.26725e-05
6.19896e-05
5.86546e-05
5.44118e-05
5.04518e-05
4.73772e-05
4.53078e-05
4.41248e-05
4.36704e-05
4.38024e-05
4.43867e-05
4.53071e-05
4.64767e-05
4.7834e-05
4.93341e-05
5.09426e-05
5.26316e-05
5.43751e-05
5.61476e-05
5.79232e-05
5.96763e-05
6.13829e-05
6.30213e-05
6.45733e-05
6.60235e-05
6.73603e-05
6.85745e-05
6.96598e-05
7.06116e-05
7.14275e-05
7.21064e-05
7.26487e-05
7.30561e-05
7.33313e-05
7.34786e-05
7.35034e-05
7.33559e-05
7.31517e-05
7.29883e-05
7.25946e-05
7.21694e-05
7.17117e-05
7.1232e-05
7.07453e-05
7.02666e-05
6.98095e-05
6.93847e-05
6.89989e-05
6.86539e-05
6.8345e-05
6.80601e-05
6.77783e-05
6.74687e-05
6.70903e-05
6.65912e-05
6.59111e-05
6.49847e-05
6.37501e-05
6.21623e-05
6.02119e-05
5.79469e-05
5.54875e-05
5.30188e-05
5.07468e-05
4.88183e-05
4.72357e-05
4.58082e-05
4.27998e-05
3.9407e-05
3.57201e-05
3.00284e-05
2.46062e-05
1.89239e-05
1.58492e-05
1.36311e-05
9.9972e-07
9.93122e-07
2.49247e-05
4.64567e-05
5.75541e-05
6.20434e-05
6.15599e-05
5.8373e-05
5.42133e-05
5.02978e-05
4.72679e-05
4.52668e-05
4.41768e-05
4.38289e-05
4.40672e-05
4.47501e-05
4.57607e-05
4.7014e-05
4.84506e-05
5.00271e-05
5.17099e-05
5.34706e-05
5.52822e-05
5.71178e-05
5.89504e-05
6.0754e-05
6.25043e-05
6.41803e-05
6.5764e-05
6.7241e-05
6.86e-05
6.98324e-05
7.09317e-05
7.18933e-05
7.27142e-05
7.33925e-05
7.39274e-05
7.43195e-05
7.45702e-05
7.46827e-05
7.46622e-05
7.44777e-05
7.41939e-05
7.39778e-05
7.35136e-05
7.30024e-05
7.2457e-05
7.18894e-05
7.13163e-05
7.07554e-05
7.02232e-05
6.97335e-05
6.92967e-05
6.8918e-05
6.85967e-05
6.83241e-05
6.80829e-05
6.78453e-05
6.75722e-05
6.72122e-05
6.67023e-05
6.59701e-05
6.494e-05
6.35449e-05
6.17447e-05
5.95517e-05
5.70554e-05
5.44309e-05