/*--------------------------------*- C++ -*----------------------------------*\
  =========                 |
  \\      /  F ield         | OpenFOAM: The Open Source CFD Toolbox
   \\    /   O peration     | Website:  https://openfoam.org
    \\  /    A nd           | Version:  13
     \\/     M anipulation  |
\*---------------------------------------------------------------------------*/
FoamFile
{
    format      ascii;
    class       volScalarField;
    location    "8.5";
    object      nut;
}
// * * * * * * * * * * * * * * * * * * * * * * * * * * * * * * * * * * * * * //

dimensions      [0 2 -1 0 0 0 0];

internalField   nonuniform List<scalar> 
400
(
1.86236e-07
6.36795e-07
2.62751e-06
5.43614e-06
7.31558e-06
8.74654e-06
9.90795e-06
1.10194e-05
1.19928e-05
1.29902e-05
1.39223e-05
1.49078e-05
1.58976e-05
1.65436e-05
1.68355e-05
1.68525e-05
1.55733e-05
1.22624e-05
7.56885e-06
5.46492e-06
8.40637e-07
3.68679e-06
6.73e-06
1.39147e-05
1.80833e-05
2.40273e-05
2.80152e-05
3.33875e-05
3.74501e-05
4.14107e-05
4.43195e-05
4.65061e-05
4.73047e-05
4.79309e-05
4.76462e-05
4.54761e-05
4.40882e-05
3.53667e-05
1.96913e-05
1.10992e-05
2.78207e-06
1.24239e-05
2.20671e-05
2.90345e-05
3.56709e-05
4.18444e-05
4.71455e-05
5.20689e-05
5.51239e-05
5.78169e-05
5.94663e-05
6.05031e-05
6.06837e-05
6.0572e-05
5.94275e-05
5.63094e-05
5.26236e-05
4.67106e-05
2.65988e-05
1.42397e-05
6.25374e-06
2.47337e-05
3.27993e-05
3.95675e-05
4.57579e-05
5.09798e-05
5.55829e-05
5.94289e-05
6.24792e-05
6.51419e-05
6.6375e-05
6.69941e-05
6.72785e-05
6.71966e-05
6.6432e-05
6.35949e-05
5.73116e-05
5.38004e-05
3.51166e-05
1.62704e-05
8.98775e-06
3.19313e-05
3.94043e-05
4.53021e-05
5.20003e-05
5.78635e-05
6.29266e-05
6.61082e-05
6.78473e-05
6.7662e-05
6.75213e-05
6.77279e-05
6.82455e-05
6.88761e-05
6.96389e-05
6.96836e-05
6.31034e-05
5.76407e-05
4.17603e-05
1.77862e-05
1.04241e-05
3.51439e-05
4.26751e-05
5.0627e-05
5.78068e-05
6.34291e-05
6.64159e-05
6.64163e-05
6.62215e-05
6.60071e-05
6.59956e-05
6.61802e-05
6.64774e-05
6.73779e-05
6.91051e-05
7.12292e-05
6.87709e-05
6.10871e-05
4.81932e-05
1.90077e-05
1.06556e-05
3.57265e-05
4.63098e-05
5.47609e-05
6.09246e-05
6.43801e-05
6.55529e-05
6.49388e-05
6.48433e-05
6.51665e-05
6.56439e-05
6.60189e-05
6.58995e-05
6.60432e-05
6.76561e-05
7.11504e-05
7.46411e-05
6.45763e-05
5.32818e-05
1.99516e-05
1.04922e-05
3.66986e-05
4.87014e-05
5.64512e-05
6.1805e-05
6.41982e-05
6.45012e-05
6.40398e-05
6.46732e-05
6.59441e-05
6.71269e-05
6.76934e-05
6.73049e-05
6.65513e-05
6.64745e-05
6.95689e-05
7.57035e-05
6.87286e-05
5.80334e-05
2.07226e-05
1.0082e-05
3.62462e-05
4.90273e-05
5.68979e-05
6.18141e-05
6.37136e-05
6.37915e-05
6.38244e-05
6.53739e-05
6.74003e-05
6.88987e-05
6.93611e-05
6.85232e-05
6.74507e-05
6.67232e-05
6.77414e-05
7.31121e-05
7.25035e-05
6.14492e-05
2.12569e-05
9.28708e-06
3.59863e-05
4.88494e-05
5.67856e-05
6.15381e-05
6.32223e-05
6.33903e-05
6.39147e-05
6.58886e-05
6.81698e-05
6.9647e-05
6.98809e-05
6.92193e-05
6.82694e-05
6.73724e-05
6.81474e-05
7.2021e-05
7.46737e-05
6.47566e-05
2.16597e-05
8.46168e-06
3.41049e-05
4.73757e-05
5.57387e-05
6.05738e-05
6.26325e-05
6.29752e-05
6.33028e-05
6.47998e-05
6.68765e-05
6.86392e-05
6.9173e-05
6.89364e-05
6.82379e-05
6.79492e-05
6.82922e-05
7.17107e-05
7.65229e-05
6.71516e-05
2.18537e-05
7.73938e-06
3.18472e-05
4.60641e-05
5.46772e-05
6.0027e-05
6.1726e-05
6.22587e-05
6.27861e-05
6.39145e-05
6.54535e-05
6.66748e-05
6.6982e-05
6.71539e-05
6.77128e-05
6.80045e-05
6.85388e-05
7.12594e-05
7.75079e-05
6.88247e-05
2.19368e-05
6.96225e-06
2.80156e-05
4.28796e-05
5.19491e-05
5.8004e-05
6.09282e-05
6.16863e-05
6.19148e-05
6.24657e-05
6.32822e-05
6.4227e-05
6.46973e-05
6.517e-05
6.62981e-05
6.78334e-05
6.87854e-05
7.09225e-05
7.79396e-05
6.94864e-05
2.19511e-05
6.23851e-06
2.5335e-05
3.99758e-05
4.92672e-05
5.57828e-05
5.98953e-05
6.07741e-05
6.10119e-05
6.12261e-05
6.153e-05
6.23883e-05
6.29873e-05
6.38259e-05
6.5476e-05
6.76864e-05
6.95611e-05
7.07699e-05
7.79021e-05
6.94706e-05
2.18955e-05
5.4186e-06
2.10337e-05
3.52561e-05
4.58213e-05
5.28982e-05
5.81741e-05
5.9843e-05
6.02675e-05
6.04873e-05
6.05311e-05
6.14574e-05
6.19433e-05
6.29992e-05
6.48069e-05
6.71175e-05
6.96035e-05
6.97528e-05
7.61057e-05
6.70568e-05
2.14794e-05
4.57496e-06
1.84168e-05
3.17228e-05
4.22143e-05
4.93987e-05
5.5223e-05
5.85868e-05
5.95814e-05
6.00632e-05
6.00353e-05
6.07287e-05
6.11095e-05
6.19503e-05
6.33681e-05
6.51606e-05
6.86231e-05
6.74382e-05
7.28165e-05
6.41902e-05
2.07511e-05
3.63241e-06
1.38177e-05
2.68373e-05
3.85547e-05
4.59581e-05
5.13079e-05
5.56239e-05
5.70766e-05
5.76834e-05
5.76834e-05
5.80325e-05
5.82904e-05
5.88394e-05
5.96788e-05
6.0652e-05
6.51724e-05
6.39159e-05
6.80163e-05
5.88582e-05
1.9526e-05
2.42601e-06
1.15908e-05
2.53256e-05
3.55722e-05
4.43738e-05
4.80193e-05
5.18712e-05
5.35399e-05
5.37901e-05
5.34047e-05
5.32638e-05
5.3137e-05
5.32865e-05
5.44496e-05
5.51603e-05
6.02098e-05
6.36873e-05
6.16599e-05
5.03147e-05
1.78983e-05
2.60821e-06
1.31289e-05
2.39293e-05
3.14686e-05
3.7293e-05
4.05884e-05
4.32369e-05
4.53657e-05
4.68936e-05
4.84195e-05
5.02814e-05
5.20988e-05
5.47972e-05
5.84498e-05
6.24865e-05
6.87044e-05
6.55762e-05
5.94897e-05
4.3516e-05
1.55776e-05
1.88313e-06
2.93966e-06
5.37566e-06
7.75036e-06
9.546e-06
1.06696e-05
1.12952e-05
1.16822e-05
1.18651e-05
1.19866e-05
1.20396e-05
1.21472e-05
1.22521e-05
1.24869e-05
1.26697e-05
1.31463e-05
1.3732e-05
1.43963e-05
1.42468e-05
1.27333e-05
)
;

boundaryField
{
    movingWall
    {
        type            nutkWallFunction;
        Cmu             0.09;
        kappa           0.41;
        E               9.8;
        value           uniform 0;
    }
    fixedWalls
    {
        type            nutkWallFunction;
        Cmu             0.09;
        kappa           0.41;
        E               9.8;
        value           uniform 0;
    }
    frontAndBack
    {
        type            empty;
    }
}


// ************************************************************************* //
