/*--------------------------------*- C++ -*----------------------------------*\
  =========                 |
  \\      /  F ield         | OpenFOAM: The Open Source CFD Toolbox
   \\    /   O peration     | Website:  https://openfoam.org
    \\  /    A nd           | Version:  13
     \\/     M anipulation  |
\*---------------------------------------------------------------------------*/
FoamFile
{
    format      ascii;
    class       volScalarField;
    location    "8.5";
    object      p;
}
// * * * * * * * * * * * * * * * * * * * * * * * * * * * * * * * * * * * * * //

dimensions      [0 2 -2 0 0 0 0];

internalField   nonuniform List<scalar> 
400
(
4.27189e-08
-8.25449e-05
-0.000153741
-0.000381458
-0.00122759
-0.00267371
-0.00436522
-0.00598089
-0.00728279
-0.00814577
-0.00846362
-0.00814922
-0.00718866
-0.00556368
-0.00327475
-0.000454939
0.00259421
0.00528522
0.00695227
0.00729884
8.21972e-05
-1.75713e-05
-0.000233488
-0.000847155
-0.0019653
-0.00350073
-0.00516599
-0.00671504
-0.00797446
-0.00882324
-0.0091642
-0.00895136
-0.00813889
-0.00667657
-0.0045815
-0.00192927
0.00103645
0.00383976
0.00583225
0.00661874
0.000256106
-8.38865e-05
-0.000712842
-0.00176801
-0.00322345
-0.00488308
-0.0065362
-0.00802537
-0.00923174
-0.0100245
-0.0103422
-0.010155
-0.00944185
-0.00818966
-0.00639244
-0.00408915
-0.00141929
0.00131856
0.00361065
0.00475607
1.8454e-05
-0.00055869
-0.00162172
-0.00310483
-0.00482746
-0.0065829
-0.00821155
-0.00959949
-0.0106538
-0.0113273
-0.0115954
-0.011439
-0.0108377
-0.00978478
-0.00827879
-0.00634331
-0.0040525
-0.00157546
0.000718903
0.00193663
-0.000808809
-0.00158533
-0.00294948
-0.00467166
-0.00650172
-0.0082475
-0.0097839
-0.0110359
-0.0119592
-0.0125374
-0.0127617
-0.0126249
-0.0121209
-0.0112489
-0.0100104
-0.00842119
-0.00652215
-0.00440258
-0.00231385
-0.00116179
-0.00218858
-0.00304779
-0.0045095
-0.00626992
-0.00806947
-0.0097256
-0.0111375
-0.0122584
-0.0130709
-0.0135709
-0.0137588
-0.0136374
-0.0132111
-0.0124863
-0.0114702
-0.0101758
-0.00862955
-0.00688495
-0.00518326
-0.00409284
-0.00378814
-0.00464891
-0.0060573
-0.007737
-0.00942819
-0.0109574
-0.01224
-0.0132442
-0.0139647
-0.0144038
-0.014567
-0.0144615
-0.0140966
-0.0134844
-0.0126389
-0.0115751
-0.0103176
-0.00890589
-0.00757836
-0.00660637
-0.00527715
-0.00609015
-0.00738715
-0.00894785
-0.0105089
-0.0119104
-0.0130784
-0.0139884
-0.014639
-0.0150354
-0.0151845
-0.0150946
-0.0147761
-0.0142449
-0.0135217
-0.0126271
-0.0115903
-0.0104448
-0.00942775
-0.00856562
-0.00643403
-0.00719438
-0.00837255
-0.00982175
-0.0112676
-0.0125658
-0.0136484
-0.0144924
-0.0150969
-0.0154669
-0.0156092
-0.0155313
-0.0152437
-0.0147641
-0.014119
-0.0133371
-0.012461
-0.0115008
-0.0107066
-0.00994442
-0.00717613
-0.00785368
-0.00894315
-0.010316
-0.0116803
-0.0129136
-0.0139473
-0.0147565
-0.015338
-0.0156958
-0.0158357
-0.0157642
-0.0154917
-0.0150365
-0.01443
-0.0137069
-0.0129423
-0.0120754
-0.0114655
-0.0107277
-0.00746103
-0.00805825
-0.00909319
-0.0104168
-0.0117404
-0.0129501
-0.0139727
-0.0147779
-0.0153587
-0.0157171
-0.0158579
-0.0157866
-0.0155133
-0.0150569
-0.0144533
-0.0137354
-0.0130465
-0.0121631
-0.0117425
-0.0109158
-0.00727991
-0.00783218
-0.00883091
-0.0101317
-0.0114532
-0.0126754
-0.013721
-0.0145516
-0.0151538
-0.0155261
-0.0156715
-0.0155944
-0.0153051
-0.0148233
-0.0141884
-0.0134528
-0.0127381
-0.0118082
-0.0115824
-0.0104962
-0.00670929
-0.00724304
-0.00821592
-0.009491
-0.010834
-0.012096
-0.0131935
-0.0140764
-0.0147217
-0.0151221
-0.0152773
-0.0151899
-0.014871
-0.0143414
-0.013647
-0.0128464
-0.012052
-0.0110807
-0.0109438
-0.00949728
-0.00587744
-0.00637873
-0.00730896
-0.00854054
-0.00990017
-0.0112186
-0.0123925
-0.0133539
-0.0140654
-0.0145102
-0.0146835
-0.014585
-0.0142259
-0.0136291
-0.0128478
-0.0119409
-0.0110354
-0.009994
-0.00981735
-0.0079944
-0.00495639
-0.00538061
-0.0062031
-0.00734868
-0.00869758
-0.0100747
-0.0113426
-0.0124052
-0.013205
-0.0137123
-0.0139156
-0.0138106
-0.0134069
-0.0127289
-0.0118375
-0.0107889
-0.00973401
-0.00854907
-0.00822769
-0.00602125
-0.00413679
-0.00437617
-0.00497309
-0.00596444
-0.00727243
-0.00870493
-0.0100798
-0.0112641
-0.0121754
-0.0127665
-0.0130178
-0.0129208
-0.0124834
-0.0117231
-0.0107069
-0.00948017
-0.00821239
-0.00677008
-0.00615938
-0.00336878
-0.00359508
-0.00349632
-0.00373769
-0.00450531
-0.00574266
-0.00722011
-0.00870599
-0.0100257
-0.0110683
-0.0117656
-0.0120876
-0.0120193
-0.0115734
-0.0107432
-0.00959448
-0.00814353
-0.00655088
-0.00465543
-0.00338268
0.00079052
-0.00333771
-0.0027317
-0.00254577
-0.00306934
-0.00422504
-0.00573321
-0.00732093
-0.00878187
-0.00997319
-0.0108006
-0.0112196
-0.0112047
-0.0107699
-0.00990503
-0.00863714
-0.006916
-0.00484672
-0.00211831
0.000699935
0.00825255
-0.00328631
-0.00209459
-0.00160598
-0.00194652
-0.0030268
-0.00455627
-0.0062326
-0.00782075
-0.00914866
-0.0101082
-0.0106389
-0.0107138
-0.0103162
-0.00942464
-0.00801949
-0.00600011
-0.00327632
0.00105158
0.00723267
0.0202452
-0.00381734
-0.000731602
-0.000127853
-0.000643705
-0.00177265
-0.00335742
-0.00514748
-0.00686834
-0.00832659
-0.00939758
-0.010017
-0.0101466
-0.00976453
-0.00884416
-0.0073434
-0.00509191
-0.00123136
0.00569461
0.017649
0.0355005
)
;

boundaryField
{
    movingWall
    {
        type            zeroGradient;
    }
    fixedWalls
    {
        type            zeroGradient;
    }
    frontAndBack
    {
        type            empty;
    }
}


// ************************************************************************* //
