/*--------------------------------*- C++ -*----------------------------------*\
  =========                 |
  \\      /  F ield         | OpenFOAM: The Open Source CFD Toolbox
   \\    /   O peration     | Website:  https://openfoam.org
    \\  /    A nd           | Version:  13
     \\/     M anipulation  |
\*---------------------------------------------------------------------------*/
FoamFile
{
    format      ascii;
    class       surfaceScalarField;
    location    "8.5";
    object      phi;
}
// * * * * * * * * * * * * * * * * * * * * * * * * * * * * * * * * * * * * * //

dimensions      [0 3 -1 0 0 0 0];

internalField   nonuniform List<scalar> 
760
(
1.26812e-07
-1.26816e-07
-1.3287e-07
2.59682e-07
-9.48514e-07
8.15644e-07
-2.24619e-06
1.29768e-06
-3.63894e-06
1.39275e-06
-4.88082e-06
1.24189e-06
-5.93201e-06
1.05119e-06
-6.76506e-06
8.33052e-07
-7.37559e-06
6.10529e-07
-7.78149e-06
4.05898e-07
-7.9953e-06
2.13809e-07
-8.00746e-06
1.21608e-08
-7.81284e-06
-1.94621e-07
-7.41054e-06
-4.02297e-07
-6.73466e-06
-6.75885e-07
-5.7603e-06
-9.74357e-07
-4.43281e-06
-1.32749e-06
-2.7959e-06
-1.63691e-06
-1.07344e-06
-1.72246e-06
-1.07344e-06
-3.79991e-07
2.53174e-07
-1.36333e-06
1.24302e-06
-2.72161e-06
2.17392e-06
-3.97697e-06
2.55304e-06
-5.042e-06
2.45778e-06
-5.9793e-06
2.17919e-06
-6.74347e-06
1.81535e-06
-7.34255e-06
1.43214e-06
-7.79115e-06
1.05913e-06
-8.08302e-06
6.97768e-07
-8.20366e-06
3.34444e-07
-8.15147e-06
-4.00286e-08
-7.94528e-06
-4.0081e-07
-7.54451e-06
-8.03067e-07
-6.94442e-06
-1.27598e-06
-6.09827e-06
-1.82051e-06
-4.96865e-06
-2.4571e-06
-3.49411e-06
-3.11145e-06
-1.71288e-06
-3.50369e-06
-2.78632e-06
-9.89216e-07
1.24239e-06
-2.30371e-06
2.55752e-06
-3.46926e-06
3.33947e-06
-4.43295e-06
3.51673e-06
-5.24671e-06
3.27153e-06
-5.91814e-06
2.85061e-06
-6.44463e-06
2.34184e-06
-6.81777e-06
1.80528e-06
-7.05788e-06
1.29925e-06
-7.16662e-06
8.06503e-07
-7.16745e-06
3.35274e-07
-7.07122e-06
-1.36254e-07
-6.85954e-06
-6.12495e-07
-6.51782e-06
-1.14479e-06
-6.03353e-06
-1.76027e-06
-5.37073e-06
-2.4833e-06
-4.49875e-06
-3.32909e-06
-3.35076e-06
-4.25944e-06
-1.84585e-06
-5.0086e-06
-4.63217e-06
-1.22312e-06
2.46552e-06
-2.43123e-06
3.76563e-06
-3.40664e-06
4.31488e-06
-4.16134e-06
4.27142e-06
-4.75568e-06
3.86587e-06
-5.20454e-06
3.29948e-06
-5.52397e-06
2.66127e-06
-5.74124e-06
2.02254e-06
-5.86458e-06
1.42259e-06
-5.90951e-06
8.51435e-07
-5.87751e-06
3.03266e-07
-5.77103e-06
-2.42726e-07
-5.57711e-06
-8.0642e-07
-5.29448e-06
-1.42742e-06
-4.9132e-06
-2.14155e-06
-4.40861e-06
-2.98788e-06
-3.7458e-06
-3.99191e-06
-2.86617e-06
-5.13907e-06
-1.63974e-06
-6.23504e-06
-6.2719e-06
-1.15753e-06
3.62305e-06
-2.18048e-06
4.78857e-06
-2.97041e-06
5.1048e-06
-3.56148e-06
4.8625e-06
-3.99575e-06
4.30014e-06
-4.30009e-06
3.60382e-06
-4.50507e-06
2.86625e-06
-4.63637e-06
2.15385e-06
-4.70056e-06
1.48678e-06
-4.70556e-06
8.56441e-07
-4.65233e-06
2.50034e-07
-4.54155e-06
-3.53507e-07
-4.36943e-06
-9.78543e-07
-4.13742e-06
-1.65943e-06
-3.84204e-06
-2.43693e-06
-3.46902e-06
-3.3609e-06
-2.98303e-06
-4.4779e-06
-2.31825e-06
-5.80384e-06
-1.37227e-06
-7.18102e-06
-7.64417e-06
-9.54118e-07
4.57717e-06
-1.77206e-06
5.60652e-06
-2.39626e-06
5.729e-06
-2.85042e-06
5.31666e-06
-3.17002e-06
4.61974e-06
-3.38534e-06
3.81914e-06
-3.52637e-06
3.00727e-06
-3.61112e-06
2.2386e-06
-3.64627e-06
1.52194e-06
-3.63611e-06
8.46281e-07
-3.58113e-06
1.95051e-07
-3.48067e-06
-4.53964e-07
-3.3339e-06
-1.12532e-06
-3.1434e-06
-1.84992e-06
-2.91211e-06
-2.66822e-06
-2.6377e-06
-3.63532e-06
-2.30274e-06
-4.81286e-06
-1.84196e-06
-6.26462e-06
-1.10854e-06
-7.91445e-06
-8.75271e-06
-7.23982e-07
5.30115e-06
-1.33045e-06
6.21299e-06
-1.79641e-06
6.19496e-06
-2.13188e-06
5.65213e-06
-2.3661e-06
4.85397e-06
-2.52381e-06
3.97685e-06
-2.62749e-06
3.11095e-06
-2.68943e-06
2.30054e-06
-2.71548e-06
1.54799e-06
-2.70807e-06
8.38873e-07
-2.66601e-06
1.52984e-07
-2.58714e-06
-5.3283e-07
-2.47029e-06
-1.24217e-06
-2.31855e-06
-2.00167e-06
-2.13953e-06
-2.84724e-06
-1.93896e-06
-3.83589e-06
-1.70911e-06
-5.0427e-06
-1.39665e-06
-6.57708e-06
-9.08102e-07
-8.403e-06
-9.66081e-06
-4.72286e-07
5.77344e-06
-8.94778e-07
6.63548e-06
-1.21547e-06
6.51565e-06
-1.4488e-06
5.88546e-06
-1.61482e-06
5.01998e-06
-1.73051e-06
4.09255e-06
-1.81013e-06
3.19057e-06
-1.86109e-06
2.3515e-06
-1.88731e-06
1.5742e-06
-1.88962e-06
8.41188e-07
-1.86588e-06
1.29245e-07
-1.81341e-06
-5.85303e-07
-1.73068e-06
-1.3249e-06
-1.6205e-06
-2.11185e-06
-1.49259e-06
-2.97515e-06
-1.35909e-06
-3.96938e-06
-1.21864e-06
-5.18315e-06
-1.02802e-06
-6.76771e-06
-7.01979e-07
-8.72904e-06
-1.03628e-05
-2.53074e-07
6.02651e-06
-4.87851e-07
6.87025e-06
-6.69276e-07
6.69707e-06
-8.10711e-07
6.0269e-06
-9.16595e-07
5.12587e-06
-9.96312e-07
4.17226e-06
-1.05622e-06
3.25048e-06
-1.09915e-06
2.39443e-06
-1.12674e-06
1.60179e-06
-1.13884e-06
8.53289e-07
-1.13359e-06
1.23998e-07
-1.10879e-06
-6.10108e-07
-1.06328e-06
-1.3704e-06
-9.99569e-07
-2.17556e-06
-9.27338e-07
-3.04738e-06
-8.61197e-07
-4.03552e-06
-8.04656e-07
-5.23969e-06
-7.22819e-07
-6.84954e-06
-5.57199e-07
-8.89466e-06
-1.092e-05
-2.71608e-08
6.05367e-06
-1.03872e-07
6.94696e-06
-1.6409e-07
6.75729e-06
-2.14156e-07
6.07696e-06
-2.5944e-07
5.17115e-06
-3.01831e-07
4.21466e-06
-3.40577e-07
3.28922e-06
-3.73798e-07
2.42765e-06
-4.00666e-07
1.62866e-06
-4.20621e-07
8.73245e-07
-4.32842e-07
1.36219e-07
-4.3625e-07
-6.067e-07
-4.30631e-07
-1.37602e-06
-4.18133e-07
-2.18806e-06
-4.07727e-07
-3.05779e-06
-4.09594e-07
-4.03366e-06
-4.47257e-07
-5.20202e-06
-4.66527e-07
-6.83027e-06
-4.17442e-07
-8.94374e-06
-1.13374e-05
1.83461e-07
5.87021e-06
2.76454e-07
6.85397e-06
3.43892e-07
6.68985e-06
3.70515e-07
6.05034e-06
3.80741e-07
5.16093e-06
3.75998e-07
4.2194e-06
3.61248e-07
3.30397e-06
3.41003e-07
2.4479e-06
3.17644e-07
1.65202e-06
2.91755e-07
8.99134e-07
2.62965e-07
1.65009e-07
2.30874e-07
-5.74609e-07
1.94473e-07
-1.33962e-06
1.51644e-07
-2.14523e-06
9.55687e-08
-3.00171e-06
-1.39327e-09
-3.9367e-06
-1.08415e-07
-5.095e-06
-2.4606e-07
-6.69263e-06
-3.20573e-07
-8.86923e-06
-1.1658e-05
3.8248e-07
5.48773e-06
6.35265e-07
6.60119e-06
8.22897e-07
6.50222e-06
9.39095e-07
5.93414e-06
1.01314e-06
5.08688e-06
1.0537e-06
4.17883e-06
1.06949e-06
3.28819e-06
1.06736e-06
2.45003e-06
1.05097e-06
1.66841e-06
1.02104e-06
9.29063e-07
9.75977e-07
2.10069e-07
9.13862e-07
-5.12494e-07
8.31889e-07
-1.25765e-06
7.27422e-07
-2.04076e-06
5.93692e-07
-2.86798e-06
4.27284e-07
-3.77029e-06
2.04e-07
-4.87172e-06
-6.05005e-08
-6.42813e-06
-2.11532e-07
-8.7182e-06
-1.18695e-05
5.77089e-07
4.91064e-06
9.8437e-07
6.1939e-06
1.28966e-06
6.19693e-06
1.50145e-06
5.72236e-06
1.64722e-06
4.94111e-06
1.74298e-06
4.08307e-06
1.7986e-06
3.23257e-06
1.82201e-06
2.42662e-06
1.81778e-06
1.67264e-06
1.78684e-06
9.59996e-07
1.72652e-06
2.70393e-07
1.63384e-06
-4.1981e-07
1.50418e-06
-1.128e-06
1.3336e-06
-1.87018e-06
1.11818e-06
-2.65256e-06
8.53711e-07
-3.50582e-06
5.16011e-07
-4.53402e-06
1.55816e-07
-6.06793e-06
-8.1129e-08
-8.48125e-06
-1.19507e-05
7.44077e-07
4.16656e-06
1.29594e-06
5.64204e-06
1.71582e-06
5.77705e-06
2.04113e-06
5.39705e-06
2.27763e-06
4.70461e-06
2.44493e-06
3.91578e-06
2.5545e-06
3.12299e-06
2.61486e-06
2.36625e-06
2.63107e-06
1.65644e-06
2.60428e-06
9.86785e-07
2.53113e-06
3.43547e-07
2.40713e-06
-2.95809e-07
2.22738e-06
-9.48252e-07
1.98626e-06
-1.62906e-06
1.67998e-06
-2.34628e-06
1.30843e-06
-3.13427e-06
8.58381e-07
-4.08397e-06
4.02962e-07
-5.61251e-06
7.25979e-08
-8.15089e-06
-1.18781e-05
8.84798e-07
3.28177e-06
1.5607e-06
4.96614e-06
2.10179e-06
5.23596e-06
2.55179e-06
4.94705e-06
2.89812e-06
4.35827e-06
3.15477e-06
3.65913e-06
3.33415e-06
2.94362e-06
3.44499e-06
2.25541e-06
3.49215e-06
1.60927e-06
3.47715e-06
1.00179e-06
3.39593e-06
4.24764e-07
3.24132e-06
-1.41194e-07
3.01064e-06
-7.17572e-07
2.69605e-06
-1.31447e-06
2.29255e-06
-1.94278e-06
1.8087e-06
-2.65041e-06
1.23707e-06
-3.51235e-06
6.67454e-07
-5.0429e-06
2.13817e-07
-7.69725e-06
-1.16643e-05
8.97922e-07
2.38384e-06
1.68371e-06
4.18035e-06
2.37194e-06
4.54773e-06
2.97004e-06
4.34895e-06
3.45721e-06
3.8711e-06
3.83285e-06
3.28349e-06
4.10642e-06
2.67005e-06
4.28748e-06
2.07435e-06
4.38078e-06
1.51597e-06
4.38864e-06
9.9393e-07
4.3084e-06
5.05001e-07
4.1315e-06
3.57121e-08
3.85343e-06
-4.39499e-07
3.46916e-06
-9.302e-07
2.97045e-06
-1.44408e-06
2.37593e-06
-2.05589e-06
1.67877e-06
-2.81518e-06
9.87954e-07
-4.35209e-06
4.10596e-07
-7.11989e-06
-1.12537e-05
8.06375e-07
1.57747e-06
1.66776e-06
3.31897e-06
2.51976e-06
3.69573e-06
3.28372e-06
3.58498e-06
3.92888e-06
3.22594e-06
4.44679e-06
2.76559e-06
4.83592e-06
2.28091e-06
5.10454e-06
1.80573e-06
5.25798e-06
1.36253e-06
5.30021e-06
9.51698e-07
5.23112e-06
5.74095e-07
5.05176e-06
2.15067e-07
4.74282e-06
-1.30555e-07
4.3153e-06
-5.02687e-07
3.74934e-06
-8.78113e-07
3.0685e-06
-1.37505e-06
2.27033e-06
-2.01701e-06
1.45691e-06
-3.53866e-06
6.87751e-07
-6.35073e-06
-1.05659e-05
3.04446e-07
1.27302e-06
1.29767e-06
2.32574e-06
2.34021e-06
2.65319e-06
3.31279e-06
2.61241e-06
4.15223e-06
2.3865e-06
4.84183e-06
2.07598e-06
5.37872e-06
1.74403e-06
5.76601e-06
1.41844e-06
6.01237e-06
1.11617e-06
6.12508e-06
8.3899e-07
6.10857e-06
5.9061e-07
5.97259e-06
3.5104e-07
5.71315e-06
1.28886e-07
5.32425e-06
-1.13786e-07
4.77888e-06
-3.32743e-07
4.10375e-06
-6.99922e-07
3.27459e-06
-1.18785e-06
2.37249e-06
-2.63657e-06
1.22328e-06
-5.20152e-06
-9.34262e-06
-5.41958e-07
1.81498e-06
5.49428e-07
1.23436e-06
1.90573e-06
1.29688e-06
3.15742e-06
1.36072e-06
4.24081e-06
1.30311e-06
5.15044e-06
1.16635e-06
5.89046e-06
1.004e-06
6.45643e-06
8.52477e-07
6.86693e-06
7.05671e-07
7.12878e-06
5.77135e-07
7.26467e-06
4.5472e-07
7.26963e-06
3.46085e-07
7.15843e-06
2.40081e-07
6.91396e-06
1.30685e-07
6.55996e-06
2.1259e-08
6.08353e-06
-2.23493e-07
5.42423e-06
-5.28547e-07
4.5006e-06
-1.71294e-06
2.65131e-06
-3.35223e-06
-6.69132e-06
1.81498e-06
3.04934e-06
4.34622e-06
5.70695e-06
7.01006e-06
8.17641e-06
9.18041e-06
1.00329e-05
1.07386e-05
1.13157e-05
1.17704e-05
1.21165e-05
1.23566e-05
1.24873e-05
1.25085e-05
1.2285e-05
1.17565e-05
1.00435e-05
6.69132e-06
)
;

boundaryField
{
    movingWall
    {
        type            calculated;
        value           uniform 0;
    }
    fixedWalls
    {
        type            calculated;
        value           uniform 0;
    }
    frontAndBack
    {
        type            empty;
    }
}


// ************************************************************************* //
