/*--------------------------------*- C++ -*----------------------------------*\
  =========                 |
  \\      /  F ield         | OpenFOAM: The Open Source CFD Toolbox
   \\    /   O peration     | Website:  https://openfoam.org
    \\  /    A nd           | Version:  13
     \\/     M anipulation  |
\*---------------------------------------------------------------------------*/
FoamFile
{
    format      ascii;
    class       volScalarField;
    location    "9.5";
    object      epsilon;
}
// * * * * * * * * * * * * * * * * * * * * * * * * * * * * * * * * * * * * * //

dimensions      [0 2 -3 0 0 0 0];

internalField   nonuniform List<scalar> 
6400
(
2.9196e-05
0.000149972
0.000364859
0.00058747
0.000754538
0.000847532
0.00088035
0.000882259
0.000886379
0.000917121
0.000993693
0.0011459
0.00138697
0.00172231
0.0021339
0.00259884
0.00309334
0.00360792
0.00411834
0.00461257
0.00511144
0.00565777
0.00630896
0.00709662
0.00798399
0.00887418
0.00975979
0.0106391
0.0115409
0.0124884
0.0134674
0.0144467
0.0154101
0.016362
0.0173245
0.0183042
0.0193198
0.0203777
0.0214902
0.0226603
0.0238965
0.0252082
0.026603
0.0280947
0.029699
0.0314718
0.0335225
0.0360821
0.0385855
0.0411579
0.0436589
0.0460864
0.0483542
0.0504034
0.0521563
0.0535099
0.05418
0.0544425
0.054253
0.053156
0.0512603
0.0485827
0.0451441
0.041108
0.0365218
0.0316422
0.0266987
0.0218731
0.0173438
0.0133287
0.0100506
0.00730207
0.00508478
0.00339557
0.00218142
0.00135462
0.000815813
0.000468939
0.000221968
4.73309e-05
0.000141002
0.000141875
0.000232526
0.000336729
0.000414532
0.000461372
0.000484209
0.000494363
0.00050599
0.000532736
0.000589442
0.000697076
0.000872318
0.00112819
0.00146845
0.00189419
0.00240751
0.00301533
0.00372376
0.00454297
0.00547992
0.00657765
0.00788659
0.00942882
0.0111911
0.0132029
0.0152605
0.0172309
0.0190084
0.0204983
0.0216242
0.0224862
0.0230698
0.0234692
0.0237231
0.0238901
0.0240099
0.0241164
0.0242314
0.0243759
0.024572
0.024824
0.0251249
0.0254571
0.0258465
0.0263313
0.0268924
0.0275363
0.0282471
0.0289938
0.0297741
0.0305428
0.0312818
0.0319404
0.0324759
0.03275
0.0328291
0.0326764
0.0322356
0.0313748
0.0301515
0.0285181
0.0264915
0.024144
0.0215638
0.018859
0.0161441
0.0135302
0.0111047
0.00896297
0.00714819
0.00559036
0.00425323
0.00311965
0.00218443
0.00142987
0.000871866
0.000489954
0.00025509
0.000250093
0.000308074
0.000258584
0.000346508
0.000435091
0.000487981
0.000514418
0.00052868
0.00054515
0.000579203
0.000649357
0.000780246
0.00100102
0.00133972
0.00181669
0.00244484
0.00323647
0.0042044
0.0053633
0.00672305
0.00829
0.0100697
0.0120209
0.0140518
0.0160013
0.017681
0.0188495
0.0195485
0.0199253
0.0201125
0.0202518
0.0203181
0.0202175
0.0199077
0.0196172
0.0193157
0.0190572
0.0188506
0.0187362
0.0186932
0.0186991
0.018831
0.0190327
0.019346
0.0197786
0.0203217
0.0209492
0.0216596
0.0224466
0.0233047
0.0242179
0.0251756
0.0261532
0.0271273
0.0280611
0.0289148
0.0296395
0.0301394
0.0303459
0.0303496
0.0299474
0.0290944
0.0277864
0.0260163
0.0238797
0.0214681
0.0188822
0.0162467
0.0136761
0.0112741
0.00912226
0.00726647
0.00570535
0.00441355
0.0033525
0.00248401
0.00178523
0.00121311
0.000759226
0.00047051
0.000668931
0.000534703
0.000445782
0.000545624
0.000630336
0.000673566
0.000695476
0.000717327
0.000760615
0.000848976
0.00101478
0.00129878
0.00174457
0.00238828
0.00325187
0.00434521
0.00567239
0.00723173
0.00900012
0.0109192
0.0128898
0.014772
0.0164175
0.0176712
0.0183249
0.0185939
0.0186546
0.0185768
0.0182103
0.0176468
0.0170457
0.0163958
0.0158915
0.0155051
0.0151781
0.014936
0.0147959
0.0147379
0.0147315
0.014839
0.0150204
0.0152958
0.0156498
0.0160934
0.0166205
0.017231
0.0179228
0.0186974
0.0195528
0.0204871
0.021494
0.0225658
0.0236873
0.0248384
0.0259896
0.0271025
0.0281261
0.0290017
0.0296194
0.0298907
0.0299132
0.029442
0.0285574
0.0272134
0.0252575
0.0229113
0.0202689
0.0174788
0.0146929
0.0120539
0.00967553
0.00762868
0.00593429
0.00457121
0.00349274
0.00264396
0.00197516
0.001434
0.000991578
0.000707865
0.00111675
0.000857505
0.000705098
0.000803727
0.000885522
0.00093107
0.000966433
0.0010202
0.00112461
0.00131929
0.00165455
0.00218693
0.00296642
0.00402206
0.00535705
0.00695266
0.00876856
0.0107332
0.0127297
0.0145916
0.0161484
0.0171695
0.0176182
0.0177406
0.0176739
0.0172336
0.016482
0.0156109
0.0148053
0.0141531
0.0135503
0.0130544
0.0126707
0.0123731
0.0121533
0.0120237
0.0119662
0.0119527
0.0120094
0.0121404
0.0123269
0.0125788
0.0128909
0.0132683
0.0137113
0.0142245
0.014811
0.0154758
0.0162231
0.0170577
0.017982
0.0189967
0.0200982
0.0212782
0.0225218
0.0238061
0.0250889
0.0263182
0.027428
0.0283395
0.0288526
0.0290196
0.0287249
0.0278994
0.0265794
0.0245301
0.021983
0.0191114
0.0161035
0.0131541
0.0104406
0.00809162
0.00616736
0.00465947
0.00351138
0.00264321
0.00198736
0.00148332
0.0010917
0.000866369
0.00142922
0.00131797
0.00104479
0.00112575
0.00120928
0.00127229
0.00134336
0.00146083
0.00167214
0.00203573
0.00261835
0.00348192
0.00466347
0.00616036
0.00792805
0.00988336
0.0119034
0.0138247
0.0154601
0.0165406
0.017
0.0171031
0.016939
0.0163688
0.0153775
0.0143718
0.0134829
0.0126753
0.011997
0.01143
0.0109489
0.0105647
0.0102577
0.0100175
0.0098367
0.00971022
0.00963729
0.00960635
0.00960198
0.00965259
0.00973764
0.00986491
0.010034
0.0102467
0.0105077
0.0108218
0.0111959
0.0116386
0.01216
0.0127711
0.0134846
0.014312
0.0152643
0.016349
0.0175671
0.0189129
0.0203697
0.0219001
0.0234569
0.0249661
0.0263231
0.0273733
0.0278685
0.0279639
0.027385
0.0262109
0.0240636
0.0213153
0.0181735
0.014888
0.0117259
0.00891726
0.00660536
0.00482671
0.00352779
0.00259791
0.00193614
0.00145129
0.00109162
0.000931544
0.0015479
0.00195632
0.00147106
0.00152386
0.00161991
0.00171924
0.00185266
0.00207169
0.00244122
0.00303542
0.00392541
0.00515682
0.00672709
0.00857445
0.0105806
0.0125794
0.0143697
0.0157253
0.0163781
0.0165622
0.0164799
0.0159142
0.0148499
0.013724
0.0127022
0.0117827
0.0109999
0.0103238
0.0097585
0.00927876
0.00887474
0.00853823
0.00825518
0.0080191
0.00782335
0.00766358
0.00753582
0.00743614
0.00736415
0.00732823
0.00731448
0.00731626
0.00735842
0.00742534
0.00752894
0.00766816
0.00785108
0.00808396
0.00837651
0.00873975
0.00919106
0.00974994
0.0104388
0.0112818
0.0122974
0.0135145
0.0149485
0.0165939
0.0184165
0.0203676
0.0223728
0.0243138
0.0260232
0.0271365
0.0275697
0.0274811
0.026409
0.0241548
0.0211253
0.0175952
0.0139214
0.0104749
0.00754794
0.00528453
0.00367267
0.00259048
0.00186026
0.00137549
0.00105558
0.000924913
0.00150523
0.00280969
0.00198866
0.00201189
0.00213498
0.00229293
0.00251804
0.00287714
0.00344975
0.00431426
0.00552518
0.00708602
0.00893057
0.0109213
0.0128643
0.0145361
0.0156086
0.0160349
0.0160989
0.0157108
0.0147615
0.0135313
0.0123864
0.0113332
0.0104272
0.00964341
0.00897733
0.00840387
0.00791412
0.0074903
0.00712502
0.00680873
0.00653392
0.00629598
0.00609066
0.00591521
0.00576715
0.00564381
0.00554413
0.00546753
0.0054113
0.00538325
0.00537337
0.00538004
0.00542071
0.00548417
0.0055788
0.00570645
0.00587361
0.00608703
0.00635445
0.00668741
0.0071024
0.0076238
0.00829077
0.00913858
0.0102239
0.0116001
0.0132911
0.0152989
0.0175963
0.0200728
0.0226231
0.0250217
0.0269426
0.0278729
0.0281287
0.027234
0.0248084
0.0213678
0.017307
0.0131366
0.00935802
0.00632139
0.00414015
0.00272396
0.00185433
0.00130854
0.000990698
0.000890529
0.00140144
0.00390375
0.0026011
0.00259944
0.00277144
0.00300849
0.00335206
0.00388099
0.00467986
0.00581309
0.00729528
0.00906696
0.0109873
0.0128486
0.0144095
0.0152882
0.0155795
0.0155649
0.0149239
0.0137504
0.0124737
0.0112809
0.0102347
0.00932183
0.00854519
0.00787572
0.00730031
0.00680065
0.00636762
0.0059902
0.00566272
0.00537849
0.00513319
0.00492311
0.00474483
0.00459529
0.00447202
0.00437311
0.0042967
0.00424114
0.00420841
0.0041943
0.00419151
0.004211
0.00425028
0.00430844
0.00438803
0.00449003
0.00461728
0.00477289
0.00496124
0.00518848
0.00546292
0.00579581
0.00620243
0.00670624
0.00734307
0.00816989
0.00928842
0.0108144
0.0128197
0.0152824
0.0181678
0.0212848
0.0244158
0.0271486
0.0287006
0.0292664
0.0285639
0.0258628
0.0218616
0.017135
0.0123957
0.00829062
0.00520148
0.00316591
0.00197033
0.00130552
0.000939073
0.000833434
0.00128228
0.00524807
0.00331632
0.00329968
0.00353482
0.00386947
0.00434953
0.00505906
0.0060735
0.00742366
0.00906634
0.0108713
0.0126325
0.0141024
0.0148922
0.0151415
0.0149927
0.0141895
0.0129104
0.0116166
0.0103995
0.00934013
0.00843069
0.00764968
0.00698194
0.00640453
0.0059062
0.0054749
0.00510376
0.00478546
0.00451507
0.00428717
0.00409754
0.0039419
0.00381645
0.00371772
0.00364253
0.00358819
0.00355373
0.00353756
0.00353282
0.00354084
0.00356533
0.00360303
0.00365459
0.0037199
0.00379988
0.00389551
0.00400835
0.00414036
0.00429419
0.00447333
0.00468244
0.00492792
0.00521881
0.00556457
0.00598252
0.0064997
0.00715888
0.00802969
0.00923511
0.0110167
0.0134829
0.0166087
0.0202632
0.0241253
0.0277161
0.0299378
0.0307931
0.0302268
0.0271048
0.0223768
0.0168722
0.0115512
0.00719764
0.00416361
0.00234802
0.00139254
0.000932953
0.0007832
0.00118381
0.00686681
0.00415061
0.00411732
0.00442363
0.00486551
0.00548456
0.00635943
0.00754093
0.00901132
0.0106633
0.0123057
0.0136959
0.014448
0.0146855
0.0144683
0.0135661
0.0122694
0.0109307
0.00970428
0.00862712
0.00771186
0.00692993
0.00626108
0.00568859
0.00519741
0.00477909
0.00442497
0.00412874
0.00388358
0.00368365
0.0035229
0.00339604
0.00329797
0.00322432
0.0031713
0.00313605
0.00311863
0.00311234
0.00311323
0.00312962
0.00315485
0.00319159
0.00323835
0.00329627
0.00336567
0.00344764
0.00354327
0.00365391
0.00378106
0.00392643
0.00409195
0.00427983
0.00449281
0.00473454
0.00501039
0.0053287
0.00570303
0.00615587
0.0067182
0.00744856
0.00845102
0.00990662
0.0121868
0.0154268
0.0195219
0.024112
0.0286232
0.0315008
0.0326007
0.0320358
0.0282906
0.0226571
0.0163056
0.0104786
0.00603932
0.0032017
0.00168111
0.000988568
0.000766844
0.00114859
0.00883471
0.0051292
0.0050482
0.00542425
0.00597101
0.00671262
0.00771041
0.00897846
0.0104446
0.0119453
0.0132528
0.0139908
0.0142289
0.0139896
0.0130581
0.0117831
0.0104193
0.00916442
0.00807344
0.00714354
0.00635813
0.0056899
0.00512317
0.00464432
0.00424292
0.00391088
0.00363968
0.00342164
0.00324884
0.00311416
0.00301085
0.00293321
0.00287631
0.00283616
0.00281024
0.00279765
0.00279327
0.0027938
0.00280632
0.00282642
0.00285486
0.00289217
0.00293872
0.00299555
0.00306357
0.00314404
0.00323829
0.00334782
0.00347421
0.00361917
0.00378441
0.00397164
0.00418247
0.00441845
0.0046812
0.00497294
0.00529761
0.00566312
0.00608567
0.00659588
0.00724664
0.00812389
0.00940322
0.0114062
0.0146345
0.0190805
0.0243978
0.0298644
0.0333183
0.0345767
0.0337743
0.0291392
0.0224181
0.0152349
0.00910752
0.00481719
0.00234084
0.0011827
0.00079876
0.00118916
0.0110181
0.0062119
0.00607102
0.00651102
0.00714793
0.00797727
0.00903349
0.0102886
0.011621
0.01283
0.0135584
0.0137999
0.0135785
0.0126841
0.0114321
0.0100631
0.00877401
0.00765658
0.00671006
0.00591397
0.00524542
0.00468384
0.00421683
0.00383257
0.00352112
0.00327274
0.00307752
0.00292631
0.00281051
0.00272276
0.00265681
0.00260775
0.00257171
0.00254597
0.00252885
0.00252036
0.00251723
0.00251765
0.00252809
0.00254433
0.00256853
0.00260091
0.00264253
0.00269438
0.00275764
0.00283365
0.00292388
0.00302999
0.00315377
0.00329717
0.00346222
0.00365097
0.00386531
0.00410682
0.00437658
0.00467504
0.00500215
0.0053581
0.00574537
0.00617298
0.00666458
0.0072715
0.00807932
0.00924619
0.0110883
0.0142328
0.0189931
0.0250413
0.0314745
0.0353147
0.0365747
0.0351877
0.0293126
0.0213563
0.0135368
0.00744334
0.00358603
0.0016381
0.000926713
0.00136222
0.0133546
0.00737394
0.0071595
0.00765005
0.00835068
0.0092185
0.010256
0.0113957
0.0124805
0.013187
0.0134271
0.0132557
0.0124335
0.011217
0.00984639
0.00852522
0.00736804
0.00639535
0.00558332
0.0049081
0.00434894
0.00388999
0.00351917
0.00322404
0.00299305
0.00281464
0.00267811
0.00257406
0.00249455
0.00243329
0.00238546
0.00234761
0.0023174
0.00229344
0.002275
0.00226171
0.00225476
0.00225235
0.00225499
0.00226569
0.00228371
0.00231
0.00234555
0.00239132
0.00244851
0.00251841
0.00260252
0.00270256
0.00282048
0.00295847
0.00311896
0.00330452
0.00351779
0.00376122
0.00403682
0.00434574
0.00468787
0.00506161
0.00546418
0.00589327
0.00635118
0.00685358
0.00744597
0.00822397
0.00933764
0.0111206
0.014234
0.0193226
0.0261449
0.0335122
0.0373736
0.03845
0.0359478
0.0283878
0.0192718
0.011208
0.00558794
0.00250448
0.00124042
0.00178011
0.0157683
0.00858566
0.00828204
0.00880226
0.00953089
0.0103795
0.0113181
0.0122479
0.012904
0.0131345
0.0130266
0.0122924
0.0111323
0.00976603
0.00841072
0.0072044
0.00619079
0.00535367
0.00466429
0.00410063
0.00364446
0.00328099
0.00299641
0.00277672
0.00260894
0.00248109
0.00238301
0.00230651
0.00224531
0.00219491
0.00215223
0.00211538
0.00208335
0.00205572
0.00203251
0.00201394
0.00200067
0.00199418
0.00199221
0.0019964
0.00200946
0.00203032
0.00206035
0.00210027
0.00215119
0.00221431
0.00229105
0.00238311
0.00249247
0.00262146
0.00277274
0.00294936
0.00315464
0.00339204
0.0036649
0.00397601
0.00432703
0.00471772
0.00514536
0.0056046
0.00608874
0.00659391
0.00712856
0.00773253
0.00850608
0.0096113
0.0114031
0.0146255
0.0201776
0.0279297
0.0358229
0.039419
0.0400502
0.035517
0.0260584
0.0161364
0.00844417
0.00385246
0.00181322
0.00245323
0.0181904
0.00981558
0.00940439
0.00992716
0.0106422
0.011411
0.0121729
0.0127477
0.0129631
0.0128856
0.0122585
0.0111691
0.00982047
0.00843027
0.00716455
0.00609437
0.00521749
0.00450401
0.00392691
0.00346583
0.00310298
0.00282231
0.00260808
0.00244547
0.0023215
0.00222531
0.00214847
0.00208478
0.00203001
0.00198147
0.00193762
0.00189778
0.00186179
0.00182982
0.00180224
0.00177947
0.00176203
0.00175164
0.00174738
0.00174707
0.00175626
0.00177303
0.00179845
0.0018332
0.0018782
0.00193452
0.00200348
0.00208665
0.00218595
0.00230369
0.00244261
0.00260595
0.00279749
0.00302142
0.00328227
0.00358454
0.00393216
0.00432763
0.00477096
0.00525852
0.00578237
0.00633128
0.00689496
0.00747474
0.00810771
0.00890219
0.010036
0.0119076
0.0153834
0.0215911
0.030516
0.0384713
0.0414375
0.0410644
0.0333851
0.0221932
0.0122333
0.00573218
0.00264318
0.00332235
0.0205706
0.0110316
0.0104924
0.0109861
0.0116443
0.0122763
0.012763
0.0129571
0.0128541
0.0123389
0.011323
0.0100066
0.00858721
0.00725281
0.00610868
0.00517366
0.00442168
0.00382044
0.00334503
0.00297506
0.00269164
0.00247715
0.00231512
0.00219131
0.00209421
0.00201505
0.00194766
0.00188798
0.00183361
0.00178329
0.00173659
0.00169351
0.00165435
0.00161949
0.00158937
0.0015644
0.00154498
0.00153206
0.001526
0.00152441
0.00153014
0.00154407
0.00156573
0.00159604
0.00163568
0.00168561
0.001747
0.00182127
0.00191019
0.00201594
0.00214117
0.00228909
0.00246359
0.00266923
0.00291125
0.00319541
0.00352765
0.00391334
0.00435619
0.00485671
0.00541041
0.00600656
0.00662877
0.00725959
0.0078932
0.00856648
0.00940402
0.0106032
0.0126478
0.016582
0.0236341
0.0339161
0.0414386
0.04351
0.0403579
0.0292433
0.0170756
0.00821768
0.00375501
0.00433249
0.0228592
0.012202
0.0115125
0.0119449
0.0125068
0.0129246
0.0130855
0.0129636
0.0125324
0.0115965
0.0103218
0.00888479
0.00747804
0.00624208
0.00522692
0.00441746
0.00377809
0.00327753
0.00289146
0.0025983
0.00237798
0.00221234
0.00208573
0.00198573
0.00190311
0.00183154
0.00176703
0.00170734
0.0016514
0.00159893
0.00155006
0.00150511
0.00146449
0.00142858
0.00139772
0.00137219
0.00135223
0.00133829
0.00133148
0.00132931
0.00133274
0.00134449
0.00136312
0.00138962
0.00142451
0.00146866
0.00152306
0.001589
0.00166806
0.0017622
0.00187388
0.00200613
0.00216268
0.00234808
0.0025678
0.00282827
0.0031367
0.00350069
0.0039274
0.00442203
0.00498569
0.00561289
0.00628936
0.00699248
0.00769664
0.0083895
0.0091131
0.0100111
0.0113235
0.0136863
0.0183976
0.0266435
0.0382137
0.0440021
0.0448021
0.0368333
0.0230955
0.0114655
0.00519718
0.00543496
0.0249668
0.0132964
0.0124379
0.0127802
0.0131929
0.013362
0.0132664
0.0128291
0.0119888
0.0107676
0.00932538
0.00785062
0.00650866
0.00538859
0.0044976
0.00380166
0.00326261
0.00285016
0.00253932
0.00230737
0.00213396
0.00200184
0.00189734
0.0018105
0.00173463
0.00166562
0.00160123
0.00154052
0.00148327
0.00142968
0.00138009
0.00133489
0.00129441
0.00125891
0.00122859
0.0012036
0.00118404
0.00117001
0.00116298
0.00116054
0.00116247
0.00117244
0.00118856
0.00121176
0.00124251
0.00128153
0.0013297
0.00138815
0.00145827
0.00154181
0.00164096
0.00175849
0.00189781
0.00206322
0.00226005
0.00249479
0.00277519
0.00311018
0.00350938
0.00398202
0.00453505
0.00517019
0.00588026
0.00664604
0.00743652
0.00821663
0.00897061
0.00975414
0.0107275
0.0122323
0.0151742
0.021138
0.0313084
0.0424245
0.0464123
0.043902
0.0302492
0.0156578
0.00702254
0.00659521
0.0268192
0.014287
0.0132458
0.0134696
0.0136825
0.0136513
0.0132474
0.012507
0.0113427
0.00991201
0.00837974
0.00692592
0.00567703
0.00467536
0.00389863
0.00330371
0.0028524
0.00251452
0.0022642
0.00207847
0.00193794
0.00182735
0.00173563
0.00165539
0.00158219
0.0015137
0.00144892
0.00138768
0.0013302
0.00127682
0.0012279
0.00118372
0.00114448
0.0011103
0.00108126
0.00105737
0.00103864
0.00102508
0.001018
0.00101542
0.00101633
0.00102475
0.00103873
0.00105909
0.00108621
0.00112073
0.00116343
0.00121529
0.00127753
0.0013517
0.00143972
0.00154404
0.00166773
0.0018147
0.00198987
0.00219944
0.00245109
0.00275417
0.00311961
0.00355941
0.00408529
0.00470616
0.00542404
0.00622893
0.00709421
0.00797705
0.00883086
0.00964046
0.0104907
0.0115659
0.0133815
0.0171759
0.0248541
0.0375554
0.0464813
0.0480632
0.0381267
0.0209689
0.00927557
0.00780463
0.0283761
0.0151529
0.0139168
0.0139892
0.0140447
0.0137812
0.0131191
0.0120444
0.0106435
0.00907276
0.00751106
0.00611609
0.0049721
0.00408341
0.00340926
0.00290287
0.0025264
0.00224942
0.00204576
0.00189333
0.00177471
0.00167722
0.00159242
0.00151526
0.00144309
0.0013748
0.00131016
0.00124937
0.00119279
0.00114073
0.00109344
0.00105107
0.00101369
0.000981281
0.000953815
0.000931235
0.000913485
0.000900531
0.000893473
0.000890812
0.000890976
0.000898003
0.000910141
0.000927998
0.000951952
0.000982555
0.00102049
0.00106662
0.00112201
0.00118803
0.00126636
0.00135914
0.0014691
0.0015997
0.00175538
0.0019418
0.00216621
0.00243773
0.00276762
0.00316924
0.00365745
0.00424688
0.00494847
0.00576388
0.00667825
0.00765384
0.00863141
0.00955178
0.0104096
0.0113254
0.0125656
0.0149324
0.0202362
0.0304663
0.0441132
0.0495235
0.0457256
0.0275026
0.0120258
0.00905703
0.0296154
0.0158918
0.0144428
0.0143614
0.0142558
0.0137565
0.0128418
0.0115112
0.00993058
0.00827813
0.00673119
0.00541677
0.00437919
0.00359431
0.00301071
0.00258051
0.00226621
0.00203731
0.00186832
0.00173897
0.00163438
0.00154455
0.00146346
0.00138787
0.00131643
0.00124878
0.00118509
0.00112567
0.00107085
0.00102083
0.000975724
0.000935546
0.000900245
0.00086973
0.000843893
0.000822628
0.000805849
0.000793485
0.000786371
0.000783521
0.000783349
0.000789054
0.00079957
0.000815238
0.000836422
0.000863606
0.000897397
0.000938556
0.000988031
0.00104701
0.00111698
0.00119982
0.00129792
0.00141431
0.00155293
0.00171885
0.00191866
0.00216088
0.00245641
0.00281886
0.00326461
0.00381198
0.0044789
0.00527809
0.00620931
0.00724924
0.00834316
0.00940969
0.0103783
0.0112726
0.0122616
0.0138158
0.017211
0.024827
0.0387378
0.0495553
0.0509967
0.0352617
0.0154398
0.0104218
0.0305334
0.0165022
0.014826
0.0145944
0.0143216
0.0136417
0.0124694
0.0109394
0.00923206
0.00754459
0.00604238
0.00481858
0.00388294
0.00319122
0.00268634
0.00232046
0.00205648
0.00186447
0.0017205
0.0016067
0.0015109
0.00142558
0.00134665
0.00127225
0.00120184
0.00113548
0.00107346
0.00101608
0.000963541
0.00091592
0.000873203
0.000835302
0.000802086
0.000773405
0.000749109
0.000729069
0.00071318
0.000701355
0.000694183
0.000691132
0.000690703
0.000695202
0.00070428
0.000718026
0.000736784
0.000760983
0.000791168
0.000828015
0.000872369
0.000925281
0.000988063
0.00106236
0.00115028
0.00125447
0.00137839
0.00152653
0.00170476
0.00192082
0.00218483
0.00250994
0.00291277
0.00341349
0.00403465
0.00479781
0.00571668
0.00678605
0.00796804
0.0091825
0.01032
0.011306
0.0121988
0.0133491
0.0155128
0.0207819
0.0319548
0.0475855
0.0533105
0.0439208
0.0198427
0.0121617
0.0311449
0.0169832
0.0150788
0.0146977
0.0142772
0.0134041
0.0120394
0.0103558
0.00856714
0.00687998
0.00544103
0.00431011
0.00346876
0.00285924
0.00242183
0.00210924
0.0018851
0.00172076
0.00159446
0.001491
0.00140074
0.00131826
0.00124095
0.00116789
0.00109897
0.00103446
0.000974612
0.000919635
0.0008696
0.000824471
0.000784135
0.00074843
0.000717174
0.000690184
0.00066729
0.000648348
0.000633246
0.000621893
0.000614663
0.000611421
0.000610758
0.000614203
0.000622003
0.000634061
0.00065069
0.000672277
0.000699312
0.000732405
0.000772312
0.000819972
0.000876553
0.000943515
0.0010227
0.00111646
0.00122781
0.00136069
0.00152031
0.00171354
0.00194958
0.00224063
0.00260274
0.00305643
0.00362666
0.00434108
0.00522501
0.00629124
0.00752406
0.00886047
0.0101824
0.0113469
0.0123154
0.0132287
0.0147141
0.0181445
0.0265618
0.0428646
0.05386
0.0521188
0.0255461
0.0145138
0.0314531
0.017341
0.0152129
0.0146833
0.0141435
0.0130922
0.0115753
0.00978029
0.00794769
0.00628618
0.00492038
0.00387965
0.00312351
0.00258555
0.00220517
0.001936
0.00174285
0.00159892
0.00148498
0.00138842
0.00130183
0.00122144
0.00114571
0.00107427
0.00100727
0.000944961
0.000887551
0.000835111
0.000787602
0.000744895
0.000706809
0.000673136
0.000643665
0.000618196
0.000596553
0.000578586
0.000564178
0.000553242
0.000545965
0.000542547
0.000541671
0.000544214
0.000550879
0.000561455
0.000576214
0.000595508
0.000619781
0.000649587
0.000685611
0.000728701
0.000779905
0.000840528
0.000912208
0.00099702
0.00109763
0.00121749
0.00136118
0.00153478
0.00174649
0.0020074
0.00233246
0.00274155
0.00326023
0.00391955
0.00475307
0.005789
0.00703507
0.00845599
0.00995034
0.011352
0.0124981
0.0133424
0.0144317
0.016672
0.0227247
0.0363032
0.0533742
0.0574554
0.0330671
0.0174775
0.0314369
0.0175728
0.0152393
0.0146
0.0139091
0.0127285
0.0110962
0.00922689
0.00738008
0.00576125
0.00447229
0.00351612
0.0028357
0.00235932
0.00202656
0.00179229
0.00162293
0.00149395
0.00138867
0.00129684
0.00121291
0.00113435
0.00106032
0.000990788
0.000925965
0.000866055
0.00081115
0.000761218
0.000716127
0.000675683
0.000639661
0.000607827
0.000579958
0.000555847
0.000535317
0.000518217
0.00050443
0.000493876
0.000486575
0.000483
0.000481936
0.000483716
0.000489381
0.000498654
0.000511768
0.000529042
0.000550883
0.000577797
0.00061041
0.000649494
0.000696004
0.000751116
0.000816303
0.000893416
0.000984815
0.00109356
0.00122366
0.00138049
0.0015713
0.00180602
0.00209827
0.00246669
0.00293626
0.00353928
0.00431439
0.00530152
0.00652908
0.00799054
0.00961259
0.0112335
0.0126349
0.0136476
0.014401
0.0159861
0.0200286
0.0306101
0.0504338
0.0598015
0.0427347
0.0209333
0.0312736
0.0177197
0.0152
0.0144204
0.0136129
0.0123308
0.0106171
0.00870502
0.0068667
0.00530101
0.0040883
0.00320953
0.00259551
0.00217161
0.00187819
0.00167167
0.00152045
0.00140241
0.00130328
0.00121488
0.0011331
0.00105632
0.000984159
0.000916716
0.000854195
0.000796711
0.000744254
0.000696701
0.000653856
0.000615479
0.000581321
0.000551137
0.000524697
0.000501798
0.000482262
0.000465942
0.00045272
0.000442514
0.000435265
0.000431536
0.000430306
0.00043145
0.000436238
0.000444367
0.000456033
0.000471525
0.000491215
0.000515571
0.000545169
0.00058072
0.000623099
0.000673384
0.000732909
0.000803346
0.000886811
0.000986019
0.00110453
0.00124706
0.00142003
0.00163224
0.00189594
0.00222819
0.00265263
0.00320117
0.00391484
0.00484155
0.0060269
0.00749331
0.00920443
0.0110215
0.012688
0.0139883
0.0147503
0.0157677
0.0184667
0.0266161
0.0449511
0.0603415
0.0530834
0.024538
0.0309091
0.0178026
0.0150941
0.0141738
0.0132709
0.011914
0.0101489
0.00822035
0.00640721
0.00490014
0.00376032
0.0029511
0.00239471
0.00201512
0.00175392
0.00156934
0.00143192
0.00132192
0.0012273
0.00114154
0.00106169
0.000986726
0.00091653
0.000851255
0.00079104
0.00073591
0.000685764
0.000640413
0.000599614
0.000563103
0.000530618
0.000501909
0.000476749
0.000454938
0.000436299
0.000420688
0.000407985
0.000398103
0.000390979
0.000387107
0.000385731
0.000386358
0.000390381
0.000397508
0.000407898
0.000421813
0.000439597
0.000461681
0.000488601
0.000521016
0.000559736
0.000605757
0.000660307
0.00072491
0.000801483
0.000892469
0.00100103
0.00113137
0.00128914
0.00148214
0.00172127
0.00202197
0.00240606
0.0029041
0.0035574
0.00441831
0.00554494
0.00698467
0.00874035
0.010719
0.0126864
0.0142745
0.01517
0.0158106
0.0176964
0.0234535
0.0392151
0.0595136
0.0618314
0.027473
0.0303381
0.0177998
0.0149162
0.0138797
0.0128979
0.0114901
0.0096996
0.00777577
0.00599957
0.00455293
0.00348091
0.00273329
0.00222646
0.001884
0.00164905
0.00148172
0.00135482
0.00125083
0.00115963
0.00107607
0.000998028
0.000924905
0.000856712
0.000793591
0.000735604
0.000682691
0.000634681
0.000591335
0.000552383
0.000517547
0.00048656
0.000459174
0.000435166
0.000414338
0.000396518
0.000381559
0.000369344
0.000359779
0.000352801
0.000348813
0.000347315
0.000347537
0.000350898
0.000357147
0.000366413
0.000378933
0.000395023
0.000415084
0.000439616
0.000469233
0.000504694
0.000546924
0.000597066
0.000656527
0.000727067
0.000810905
0.000910897
0.00103079
0.0011756
0.00135223
0.00157037
0.00184383
0.00219249
0.00264487
0.00324116
0.00403532
0.00509354
0.00648264
0.00824036
0.0103214
0.0125313
0.0145005
0.015701
0.0162899
0.0174241
0.0213505
0.0336713
0.0573446
0.0663136
0.0288342
0.029593
0.0177648
0.0147004
0.0135528
0.0125065
0.0110687
0.00927452
0.00737214
0.00564067
0.00425369
0.00324347
0.00254975
0.00208516
0.00177363
0.00155993
0.00140618
0.00128734
0.00118793
0.00109943
0.00101779
0.000941497
0.000870205
0.000803987
0.000742939
0.000687048
0.000636182
0.000590118
0.000548584
0.000511291
0.000477956
0.000448313
0.000422118
0.000399152
0.000379219
0.00036215
0.0003478
0.000336046
0.000326793
0.000319974
0.000315886
0.000314255
0.000314215
0.000317001
0.000322481
0.000330758
0.000342043
0.000356627
0.000374885
0.000397282
0.000424396
0.000456938
0.00049578
0.00054199
0.000596885
0.000662097
0.000739671
0.00083221
0.000943094
0.00107682
0.00123952
0.00143978
0.00168993
0.00200786
0.00241984
0.00296395
0.00369384
0.00468025
0.0060048
0.00773629
0.00987871
0.0122891
0.0146023
0.0161627
0.0168268
0.017415
0.0202047
0.0298656
0.0530984
0.0679329
0.0290719
0.0287165
0.017683
0.0144568
0.0132052
0.0121073
0.010657
0.00887698
0.00700889
0.0053269
0.00399709
0.00304223
0.00239514
0.00196627
0.00168033
0.00148379
0.00134074
0.00122812
0.00113228
0.00104602
0.000966119
0.000891502
0.000821992
0.000757667
0.000698568
0.000644614
0.000595614
0.000551307
0.0005114
0.000475594
0.000443605
0.000415171
0.000390051
0.00036803
0.000348917
0.000332542
0.000318759
0.000307445
0.0002985
0.000291854
0.000287695
0.000285917
0.000285718
0.000288
0.000292809
0.000300214
0.000310406
0.000323653
0.000340302
0.00036079
0.000385661
0.000415585
0.000451385
0.000494071
0.000544884
0.000605355
0.000677391
0.000763397
0.000866461
0.000990647
0.00114145
0.0013265
0.00155678
0.00184831
0.00222496
0.00272219
0.0033918
0.00430596
0.00555592
0.00723551
0.00939556
0.0119604
0.0146263
0.0166605
0.0175264
0.0179298
0.0196647
0.0270741
0.0480936
0.0679901
0.0284837
0.0277425
0.0175706
0.0141965
0.0128476
0.0117089
0.0102604
0.00850872
0.00668455
0.00505449
0.00377826
0.00287225
0.00226504
0.00186611
0.00160122
0.0014185
0.00128388
0.00117615
0.00108315
0.000998788
0.000920487
0.000847473
0.000779662
0.000717116
0.000659818
0.000607629
0.000560315
0.000517586
0.000479135
0.000444661
0.00041388
0.000386534
0.000362387
0.000341226
0.000322862
0.000307127
0.000293872
0.000282972
0.000274325
0.000267853
0.000263651
0.000261754
0.000261428
0.000263288
0.000267511
0.000274152
0.000283378
0.000295438
0.000310653
0.000329434
0.000352294
0.000379865
0.00041293
0.000452446
0.000499592
0.000555818
0.000622921
0.000703152
0.00079937
0.000915292
0.00105588
0.00122799
0.00144137
0.00171037
0.00205651
0.00251239
0.00312709
0.00397205
0.00514406
0.00675572
0.00889723
0.0115546
0.0144988
0.0170632
0.0181865
0.0185253
0.0194933
0.0249628
0.0435313
0.0656761
0.0274809
0.0267049
0.0174433
0.0139289
0.0124887
0.011318
0.00988264
0.00817034
0.00639697
0.00481968
0.00359287
0.00272936
0.00215582
0.00178174
0.00153404
0.0013624
0.00123446
0.00113058
0.00103992
0.000957208
0.000880385
0.00080888
0.000742661
0.000681757
0.000626101
0.000575507
0.000529704
0.000488386
0.000451237
0.000417954
0.000388257
0.000361891
0.000338622
0.000318243
0.000300564
0.000285415
0.000272649
0.000262136
0.00025377
0.000247468
0.00024325
0.000241255
0.000240821
0.000242329
0.000246045
0.000252014
0.000260388
0.000271395
0.000285335
0.000302593
0.000323652
0.000349112
0.000379715
0.000416375
0.000460216
0.000512621
0.000575303
0.000650389
0.000740562
0.000849268
0.000981045
0.00114208
0.00134111
0.00159094
0.00191091
0.0023307
0.00289608
0.0036762
0.00477008
0.00630423
0.00840356
0.0111118
0.0142547
0.0173284
0.0189322
0.0193323
0.0196455
0.0235236
0.0394613
0.0624734
0.0262901
0.0256018
0.0173179
0.0136646
0.0121362
0.0109401
0.00952636
0.00786161
0.00614389
0.00461889
0.00343705
0.00261005
0.00206453
0.0017108
0.00147699
0.0013142
0.00119156
0.00109077
0.00100204
0.000920798
0.000845338
0.000775238
0.000710485
0.000651078
0.000596903
0.000547737
0.000503284
0.000463223
0.000427234
0.000395015
0.000366289
0.000340802
0.000318327
0.000298654
0.000281595
0.000266982
0.000254662
0.000244506
0.000236402
0.000230264
0.000226048
0.000223971
0.00022344
0.000224655
0.00022793
0.000233311
0.000240934
0.00025101
0.000263818
0.000279719
0.00029917
0.000322737
0.000351128
0.000385215
0.000426073
0.000475031
0.000533728
0.000604201
0.000688995
0.000791348
0.000915464
0.00106699
0.00125381
0.00148739
0.00178505
0.00217368
0.00269547
0.00341616
0.00443421
0.00588484
0.00792194
0.0106493
0.0139774
0.0174377
0.019646
0.0202007
0.0202581
0.0227145
0.0359061
0.0586233
0.0250564
0.0245095
0.0171989
0.0134102
0.0117961