/*--------------------------------*- C++ -*----------------------------------*\
  =========                 |
  \\      /  F ield         | OpenFOAM: The Open Source CFD Toolbox
   \\    /   O peration     | Website:  https://openfoam.org
    \\  /    A nd           | Version:  13
     \\/     M anipulation  |
\*---------------------------------------------------------------------------*/
FoamFile
{
    format      ascii;
    class       volScalarField;
    location    "9.5";
    object      nut;
}
// * * * * * * * * * * * * * * * * * * * * * * * * * * * * * * * * * * * * * //

dimensions      [0 2 -1 0 0 0 0];

internalField   nonuniform List<scalar> 
6400
(
1.00237e-09
5.14891e-09
1.25265e-08
2.01692e-08
2.59049e-08
2.90975e-08
3.0224e-08
3.02893e-08
3.04305e-08
3.14855e-08
3.41138e-08
3.9339e-08
4.76154e-08
5.91284e-08
7.326e-08
8.9224e-08
1.06203e-07
1.23872e-07
1.41399e-07
1.58369e-07
1.75497e-07
1.94256e-07
2.16614e-07
2.43658e-07
2.74124e-07
3.04686e-07
3.35091e-07
3.65281e-07
3.9624e-07
4.28771e-07
4.62384e-07
4.96007e-07
5.2908e-07
5.61763e-07
5.94808e-07
6.28443e-07
6.63311e-07
6.99632e-07
7.37826e-07
7.77998e-07
8.20442e-07
8.65476e-07
9.13364e-07
9.64577e-07
1.01966e-06
1.08052e-06
1.15093e-06
1.2388e-06
1.32475e-06
1.41307e-06
1.49894e-06
1.58228e-06
1.66015e-06
1.7305e-06
1.79069e-06
1.83716e-06
1.86017e-06
1.86919e-06
1.86269e-06
1.82503e-06
1.75995e-06
1.66802e-06
1.54997e-06
1.4114e-06
1.25394e-06
1.08641e-06
9.1668e-07
7.51003e-07
5.95496e-07
4.57637e-07
3.45087e-07
2.50717e-07
1.74586e-07
1.16587e-07
7.48983e-08
4.651e-08
2.80097e-08
1.60998e-08
7.62045e-09
1.6249e-09
4.84093e-09
3.39456e-07
1.22014e-06
2.05404e-06
2.66829e-06
3.02806e-06
3.19157e-06
3.24698e-06
3.27972e-06
3.35227e-06
3.54129e-06
3.91869e-06
4.45216e-06
5.07302e-06
5.71783e-06
6.32336e-06
6.84372e-06
7.22998e-06
7.46789e-06
7.57402e-06
7.63354e-06
7.71064e-06
7.87476e-06
8.15022e-06
8.47079e-06
8.67776e-06
8.88566e-06
9.12494e-06
9.44334e-06
9.87848e-06
1.04306e-05
1.10386e-05
1.16945e-05
1.23717e-05
1.30865e-05
1.38252e-05
1.45961e-05
1.53938e-05
1.6225e-05
1.70841e-05
1.79652e-05
1.88739e-05
1.98146e-05
2.0801e-05
2.18012e-05
2.27776e-05
2.37073e-05
2.4531e-05
2.54079e-05
2.62828e-05
2.71706e-05
2.8046e-05
2.88973e-05
2.97026e-05
3.04403e-05
3.11672e-05
3.15924e-05
3.18892e-05
3.20611e-05
3.20131e-05
3.16231e-05
3.09385e-05
2.99143e-05
2.85593e-05
2.68657e-05
2.48969e-05
2.27422e-05
2.04202e-05
1.79665e-05
1.52885e-05
1.23827e-05
9.59051e-06
7.13156e-06
5.11374e-06
3.54604e-06
2.41169e-06
1.61297e-06
1.04348e-06
4.72083e-07
8.58598e-09
1.05768e-08
8.73667e-07
3.5197e-06
6.1015e-06
8.07417e-06
9.35235e-06
1.00674e-05
1.0423e-05
1.06317e-05
1.08755e-05
1.12869e-05
1.19487e-05
1.28349e-05
1.38444e-05
1.4847e-05
1.57319e-05
1.64472e-05
1.69663e-05
1.72872e-05
1.74248e-05
1.74013e-05
1.73186e-05
1.72556e-05
1.72512e-05
1.73407e-05
1.76184e-05
1.79491e-05
1.82882e-05
1.86543e-05
1.90461e-05
1.95596e-05
2.02809e-05
2.12857e-05
2.23151e-05
2.34742e-05
2.46892e-05
2.59821e-05
2.72906e-05
2.8658e-05
3.01126e-05
3.15187e-05
3.2972e-05
3.43763e-05
3.5714e-05
3.69898e-05
3.82459e-05
3.94655e-05
4.06911e-05
4.19268e-05
4.31574e-05
4.43791e-05
4.55773e-05
4.67365e-05
4.78356e-05
4.88469e-05
4.97335e-05
5.0528e-05
5.10232e-05
5.12463e-05
5.13893e-05
5.11957e-05
5.06854e-05
4.97875e-05
4.84213e-05
4.64881e-05
4.40301e-05
4.12323e-05
3.80706e-05
3.45618e-05
3.07426e-05
2.66703e-05
2.24873e-05
1.83919e-05
1.45891e-05
1.12445e-05
8.41924e-06
6.17874e-06
4.25103e-06
1.76928e-06
2.29655e-08
1.83572e-08
1.42782e-06
5.49665e-06
9.37158e-06
1.23633e-05
1.44133e-05
1.56796e-05
1.63884e-05
1.68071e-05
1.716e-05
1.76503e-05
1.84035e-05
1.93975e-05
2.04902e-05
2.15176e-05
2.23627e-05
2.29642e-05
2.33183e-05
2.34547e-05
2.34327e-05
2.33211e-05
2.32294e-05
2.3227e-05
2.33585e-05
2.34311e-05
2.34548e-05
2.3477e-05
2.39111e-05
2.46766e-05
2.57027e-05
2.70035e-05
2.82422e-05
2.94722e-05
3.07805e-05
3.21188e-05
3.34252e-05
3.47436e-05
3.61312e-05
3.74238e-05
3.87187e-05
3.99539e-05
4.11724e-05
4.2337e-05
4.34643e-05
4.45421e-05
4.55967e-05
4.66494e-05
4.7702e-05
4.87507e-05
4.97894e-05
5.0812e-05
5.18076e-05
5.27635e-05
5.36629e-05
5.44863e-05
5.52103e-05
5.58104e-05
5.62541e-05
5.64764e-05
5.65194e-05
5.63398e-05
5.57782e-05
5.50355e-05
5.42118e-05
5.28665e-05
5.08962e-05
4.84728e-05
4.5571e-05
4.22551e-05
3.85702e-05
3.45597e-05
3.02906e-05
2.58751e-05
2.14798e-05
1.73102e-05
1.35336e-05
1.0257e-05
7.18225e-06
2.97734e-06
3.83399e-08
2.94391e-08
2.1405e-06
7.61686e-06
1.25895e-05
1.62937e-05
1.87818e-05
2.02974e-05
2.11311e-05
2.16019e-05
2.20334e-05
2.26827e-05
2.36365e-05
2.47905e-05
2.59446e-05
2.69193e-05
2.76137e-05
2.80075e-05
2.81411e-05
2.80719e-05
2.79208e-05
2.77057e-05
2.75566e-05
2.74153e-05
2.6826e-05
2.68026e-05
2.73726e-05
2.83479e-05
2.95103e-05
3.06898e-05
3.20115e-05
3.33184e-05
3.45741e-05
3.58093e-05
3.70102e-05
3.81152e-05
3.9154e-05
4.0205e-05
4.11587e-05
4.19949e-05
4.27795e-05
4.34795e-05
4.41311e-05
4.47416e-05
4.5347e-05
4.59676e-05
4.65975e-05
4.72239e-05
4.78569e-05
4.84982e-05
4.91511e-05
4.98174e-05
5.04972e-05
5.11887e-05
5.18872e-05
5.25859e-05
5.32725e-05
5.39261e-05
5.45174e-05
5.50148e-05
5.53553e-05
5.54774e-05
5.53285e-05
5.47201e-05
5.3626e-05
5.28305e-05
5.16107e-05
4.9762e-05
4.74197e-05
4.46429e-05
4.14799e-05
3.79649e-05
3.41227e-05
2.99905e-05
2.56621e-05
2.13522e-05
1.72257e-05
1.33638e-05
9.38498e-06
3.82606e-06
4.90676e-08
4.52468e-08
3.09802e-06
1.0118e-05
1.61039e-05
2.03083e-05
2.29749e-05
2.4497e-05
2.529e-05
2.57807e-05
2.63485e-05
2.72061e-05
2.83337e-05
2.95446e-05
3.06179e-05
3.13972e-05
3.18207e-05
3.19072e-05
3.17827e-05
3.14038e-05
3.11109e-05
3.06072e-05
2.97676e-05
2.96553e-05
3.04107e-05
3.14103e-05
3.24567e-05
3.36528e-05
3.48477e-05
3.60012e-05
3.70985e-05
3.80733e-05
3.89724e-05
3.97932e-05
4.04908e-05
4.10793e-05
4.15728e-05
4.19861e-05
4.23962e-05
4.26808e-05
4.29456e-05
4.31686e-05
4.33822e-05
4.35769e-05
4.37584e-05
4.39323e-05
4.40982e-05
4.42636e-05
4.44368e-05
4.46277e-05
4.48468e-05
4.51059e-05
4.54179e-05
4.5795e-05
4.62446e-05
4.67621e-05
4.73586e-05
4.803e-05
4.87525e-05
4.94895e-05
5.01907e-05
5.08609e-05
5.12329e-05
5.13498e-05
5.10838e-05
5.02553e-05
4.97573e-05
4.85223e-05
4.67369e-05
4.44614e-05
4.17794e-05
3.87606e-05
3.54348e-05
3.17827e-05
2.77797e-05
2.35815e-05
1.93339e-05
1.51886e-05
1.07082e-05
4.24186e-06
5.31421e-08
6.71615e-08
4.34342e-06
1.30301e-05
1.99139e-05
2.44242e-05
2.70782e-05
2.84662e-05
2.91612e-05
2.96837e-05
3.03956e-05
3.14019e-05
3.25753e-05
3.36852e-05
3.45291e-05
3.50023e-05
3.51018e-05
3.46797e-05
3.42597e-05
3.38275e-05
3.26711e-05
3.23744e-05
3.29152e-05
3.38112e-05
3.46452e-05
3.55772e-05
3.65167e-05
3.74633e-05
3.82873e-05
3.90052e-05
3.96247e-05
4.01662e-05
4.06299e-05
4.09863e-05
4.12512e-05
4.14421e-05
4.15739e-05
4.16602e-05
4.17104e-05
4.17008e-05
4.169e-05
4.16682e-05
4.15975e-05
4.15249e-05
4.14216e-05
4.13113e-05
4.11775e-05
4.10334e-05
4.08746e-05
4.07159e-05
4.05647e-05
4.04354e-05
4.03497e-05
4.03415e-05
4.04621e-05
4.06836e-05
4.10402e-05
4.15931e-05
4.23352e-05
4.32212e-05
4.42e-05
4.52568e-05
4.62521e-05
4.71178e-05
4.7514e-05
4.7517e-05
4.70396e-05
4.67159e-05
4.54794e-05
4.36044e-05
4.12177e-05
3.84611e-05
3.54472e-05
3.22073e-05
2.86474e-05
2.46602e-05
2.05492e-05
1.61165e-05
1.10046e-05
4.23474e-06
5.16774e-08
9.64579e-08
5.89558e-06
1.62815e-05
2.39137e-05
2.85513e-05
3.10639e-05
3.2256e-05
3.28492e-05
3.3403e-05
3.42011e-05
3.52297e-05
3.62866e-05
3.71346e-05
3.7607e-05
3.76603e-05
3.71835e-05
3.67439e-05
3.57223e-05
3.5021e-05
3.50425e-05
3.56452e-05
3.6088e-05
3.67761e-05
3.74362e-05
3.82222e-05
3.88936e-05
3.94925e-05
3.9956e-05
4.03289e-05
4.06104e-05
4.08191e-05
4.09581e-05
4.1035e-05
4.10699e-05
4.10743e-05
4.10577e-05
4.10236e-05
4.09724e-05
4.09056e-05
4.08329e-05
4.07077e-05
4.06232e-05
4.05253e-05
4.03322e-05
4.0175e-05
3.99732e-05
3.97626e-05
3.95278e-05
3.92674e-05
3.89787e-05
3.86622e-05
3.83135e-05
3.79282e-05
3.74975e-05
3.71423e-05
3.69237e-05
3.69001e-05
3.72351e-05
3.79156e-05
3.87977e-05
3.99972e-05
4.12928e-05
4.26635e-05
4.39352e-05
4.46117e-05
4.47071e-05
4.46047e-05
4.44235e-05
4.30208e-05
4.08888e-05
3.8214e-05
3.52108e-05
3.20545e-05
2.87868e-05
2.51755e-05
2.1075e-05
1.66497e-05
1.11941e-05
4.12809e-06
4.81141e-08
1.34017e-07
7.73644e-06
1.97808e-05
2.79494e-05
3.25979e-05
3.48976e-05
3.58749e-05
3.6365e-05
3.69106e-05
3.76921e-05
3.86e-05
3.94005e-05
3.98852e-05
3.97817e-05
3.93374e-05
3.88637e-05
3.75938e-05
3.71477e-05
3.72659e-05
3.73916e-05
3.77237e-05
3.82086e-05
3.8779e-05
3.92931e-05
3.97928e-05
4.01557e-05
4.04402e-05
4.06253e-05
4.07566e-05
4.08374e-05
4.08908e-05
4.09242e-05
4.09507e-05
4.09783e-05
4.10076e-05
4.10382e-05
4.10673e-05
4.10911e-05
4.11021e-05
4.10837e-05
4.10656e-05
4.10486e-05
4.09599e-05
4.08653e-05
4.07477e-05
4.05906e-05
4.04034e-05
4.01792e-05
3.99194e-05
3.962e-05
3.92776e-05
3.88858e-05
3.84381e-05
3.79309e-05
3.73599e-05
3.67196e-05
3.60071e-05
3.52399e-05
3.47131e-05
3.48474e-05
3.56664e-05
3.67891e-05
3.8314e-05
3.99282e-05
4.15488e-05
4.24765e-05
4.26449e-05
4.2791e-05
4.27172e-05
4.10524e-05
3.85557e-05
3.54729e-05
3.21019e-05
2.86881e-05
2.52151e-05
2.13211e-05
1.67277e-05
1.09636e-05
3.84901e-06
4.40232e-08
1.80169e-07
9.7852e-06
2.33572e-05
3.19396e-05
3.65067e-05
3.85537e-05
3.93065e-05
3.96695e-05
4.01323e-05
4.07775e-05
4.14351e-05
4.18752e-05
4.16649e-05
4.11583e-05
4.0602e-05
3.95644e-05
3.90719e-05
3.89034e-05
3.87414e-05
3.89618e-05
3.92769e-05
3.96613e-05
4.00287e-05
4.0319e-05
4.05518e-05
4.06901e-05
4.07916e-05
4.08574e-05
4.09252e-05
4.09988e-05
4.10941e-05
4.12102e-05
4.13484e-05
4.15023e-05
4.1664e-05
4.18226e-05
4.19671e-05
4.21128e-05
4.21991e-05
4.22432e-05
4.23205e-05
4.23051e-05
4.22678e-05
4.21902e-05
4.20763e-05
4.19245e-05
4.17407e-05
4.15229e-05
4.12725e-05
4.09877e-05
4.06653e-05
4.02984e-05
3.9875e-05
3.93745e-05
3.87922e-05
3.81096e-05
3.73047e-05
3.63738e-05
3.53598e-05
3.43079e-05
3.32872e-05
3.3366e-05
3.44409e-05
3.59024e-05
3.78041e-05
3.97011e-05
4.08772e-05
4.11404e-05
4.13743e-05
4.13188e-05
3.9333e-05
3.64058e-05
3.28454e-05
2.90303e-05
2.52517e-05
2.13384e-05
1.67265e-05
1.07217e-05
3.58048e-06
4.06434e-08
2.35741e-07
1.18724e-05
2.68725e-05
3.57978e-05
4.02322e-05
4.20046e-05
4.25151e-05
4.27015e-05
4.29884e-05
4.33814e-05
4.36829e-05
4.33825e-05
4.27836e-05
4.21519e-05
4.12769e-05
4.06858e-05
4.01564e-05
3.99304e-05
3.98885e-05
4.00822e-05
4.02893e-05
4.05085e-05
4.06763e-05
4.07905e-05
4.08762e-05
4.09408e-05
4.10295e-05
4.11467e-05
4.13125e-05
4.15208e-05
4.17706e-05
4.20487e-05
4.2344e-05
4.264e-05
4.2945e-05
4.32374e-05
4.34221e-05
4.35889e-05
4.38038e-05
4.38942e-05
4.39778e-05
4.39874e-05
4.39627e-05
4.38846e-05
4.37617e-05
4.35919e-05
4.33784e-05
4.31216e-05
4.28242e-05
4.24881e-05
4.21159e-05
4.17101e-05
4.12734e-05
4.08073e-05
4.03036e-05
3.9719e-05
3.90217e-05
3.81539e-05
3.71111e-05
3.58855e-05
3.45455e-05
3.3246e-05
3.20709e-05
3.25418e-05
3.40372e-05
3.60389e-05
3.81603e-05
3.95963e-05
3.99506e-05
4.01612e-05
3.999e-05
3.76293e-05
3.42254e-05
3.01499e-05
2.58353e-05
2.15596e-05
1.67625e-05
1.07256e-05
3.51507e-06
3.94352e-08
3.03302e-07
1.37994e-05
3.02348e-05
3.94657e-05
4.37382e-05
4.52183e-05
4.54552e-05
4.53986e-05
4.54132e-05
4.5453e-05
4.50429e-05
4.43324e-05
4.36468e-05
4.28535e-05
4.21522e-05
4.1302e-05
4.08881e-05
4.07016e-05
4.06784e-05
4.07728e-05
4.08499e-05
4.09291e-05
4.09827e-05
4.10424e-05
4.1134e-05
4.12754e-05
4.14883e-05
4.17662e-05
4.2107e-05
4.24922e-05
4.29077e-05
4.33337e-05
4.37837e-05
4.42186e-05
4.45769e-05
4.48611e-05
4.51457e-05
4.54449e-05
4.56391e-05
4.57869e-05
4.58847e-05
4.59224e-05
4.59096e-05
4.58393e-05
4.57159e-05
4.55384e-05
4.5309e-05
4.5029e-05
4.47005e-05
4.43252e-05
4.39049e-05
4.3441e-05
4.29346e-05
4.23861e-05
4.17966e-05
4.11681e-05
4.05019e-05
3.97826e-05
3.8917e-05
3.78332e-05
3.64914e-05
3.49757e-05
3.33565e-05
3.19005e-05
3.11888e-05
3.2564e-05
3.44875e-05
3.68628e-05
3.84803e-05
3.88898e-05
3.90034e-05
3.85396e-05
3.57394e-05
3.1824e-05
2.72166e-05
2.23342e-05
1.72041e-05
1.10007e-05
3.6632e-06
4.08288e-08
3.78264e-07
1.57078e-05
3.34327e-05
4.29094e-05
4.69948e-05
4.81621e-05
4.80827e-05
4.77097e-05
4.73619e-05
4.67704e-05
4.59107e-05
4.5185e-05
4.43567e-05
4.3521e-05
4.24539e-05
4.17557e-05
4.13983e-05
4.12099e-05
4.11435e-05
4.11356e-05
4.11293e-05
4.11576e-05
4.12204e-05
4.13554e-05
4.15757e-05
4.18868e-05
4.22843e-05
4.27483e-05
4.32615e-05
4.38004e-05
4.43603e-05
4.49366e-05
4.54714e-05
4.59233e-05
4.63644e-05
4.67313e-05
4.70816e-05
4.74323e-05
4.76629e-05
4.78585e-05
4.79879e-05
4.80584e-05
4.80674e-05
4.80136e-05
4.78978e-05
4.77199e-05
4.74812e-05
4.71832e-05
4.68281e-05
4.64181e-05
4.59557e-05
4.54429e-05
4.48809e-05
4.42696e-05
4.36078e-05
4.28936e-05
4.21259e-05
4.13068e-05
4.04435e-05
3.95214e-05
3.83999e-05
3.70121e-05
3.53501e-05
3.35294e-05
3.17604e-05
3.03878e-05
3.12564e-05
3.31884e-05
3.57213e-05
3.74293e-05
3.78229e-05
3.77877e-05
3.67992e-05
3.34841e-05
2.90621e-05
2.38475e-05
1.82489e-05
1.18304e-05
4.13128e-06
4.67716e-08
4.5848e-07
1.756e-05
3.64228e-05
4.60958e-05
4.9976e-05
5.08083e-05
5.03652e-05
4.96027e-05
4.87103e-05
4.7631e-05
4.68556e-05
4.58314e-05
4.48638e-05
4.36198e-05
4.26547e-05
4.20519e-05
4.17054e-05
4.14914e-05
4.13783e-05
4.13228e-05
4.1321e-05
4.14066e-05
4.15879e-05
4.18863e-05
4.22938e-05
4.2798e-05
4.33768e-05
4.40048e-05
4.46606e-05
4.5328e-05
4.60076e-05
4.66531e-05
4.7238e-05
4.77775e-05
4.82974e-05
4.87651e-05
4.9162e-05
4.95262e-05
4.98549e-05
5.00924e-05
5.0269e-05
5.03785e-05
5.04178e-05
5.03861e-05
5.02821e-05
5.01057e-05
4.98575e-05
4.95391e-05
4.91531e-05
4.87029e-05
4.81925e-05
4.76259e-05
4.70069e-05
4.63375e-05
4.56178e-05
4.48443e-05
4.40108e-05
4.31096e-05
4.21363e-05
4.10973e-05
4.00143e-05
3.87918e-05
3.73425e-05
3.55544e-05
3.35842e-05
3.15952e-05
2.99944e-05
3.01628e-05
3.20816e-05
3.46969e-05
3.63668e-05
3.66243e-05
3.64539e-05
3.45825e-05
3.0814e-05
2.57345e-05
1.98507e-05
1.31098e-05
5.00931e-06
6.11203e-08
5.41348e-07
1.93137e-05
3.91651e-05
4.89993e-05
5.26635e-05
5.31451e-05
5.23018e-05
5.10484e-05
4.96692e-05
4.87784e-05
4.73855e-05
4.62768e-05
4.48489e-05
4.3634e-05
4.276e-05
4.22058e-05
4.18522e-05
4.1625e-05
4.15094e-05
4.14893e-05
4.15832e-05
4.18117e-05
4.21736e-05
4.26657e-05
4.32629e-05
4.39411e-05
4.46728e-05
4.54341e-05
4.62063e-05
4.69736e-05
4.77224e-05
4.84322e-05
4.91157e-05
4.97556e-05
5.03471e-05
5.08959e-05
5.13837e-05
5.17841e-05
5.21649e-05
5.24948e-05
5.2717e-05
5.2875e-05
5.29507e-05
5.29457e-05
5.28569e-05
5.26835e-05
5.24255e-05
5.20841e-05
5.16619e-05
5.11631e-05
5.0593e-05
4.99581e-05
4.92657e-05
4.85222e-05
4.77325e-05
4.68978e-05
4.60137e-05
4.50689e-05
4.40462e-05
4.29269e-05
4.17029e-05
4.03959e-05
3.8936e-05
3.73697e-05
3.55602e-05
3.34672e-05
3.13583e-05
2.95015e-05
2.92398e-05
3.1099e-05
3.37814e-05
3.52382e-05
3.52427e-05
3.48769e-05
3.20302e-05
2.74542e-05
2.16377e-05
1.4676e-05
6.02543e-06
8.42302e-08
6.24505e-07
2.09298e-05
4.16344e-05
5.16095e-05
5.50478e-05
5.51817e-05
5.38447e-05
5.22277e-05
5.09903e-05
4.92072e-05
4.78462e-05
4.62172e-05
4.47445e-05
4.35865e-05
4.27805e-05
4.2252e-05
4.19059e-05
4.1708e-05
4.16562e-05
4.17496e-05
4.20036e-05
4.24171e-05
4.29724e-05
4.3647e-05
4.44083e-05
4.52293e-05
4.60844e-05
4.69541e-05
4.78229e-05
4.86783e-05
4.95102e-05
5.0311e-05
5.10799e-05
5.18064e-05
5.25092e-05
5.31511e-05
5.37154e-05
5.41931e-05
5.46076e-05
5.50375e-05
5.53191e-05
5.5528e-05
5.56459e-05
5.56719e-05
5.56027e-05
5.54362e-05
5.51715e-05
5.48092e-05
5.43511e-05
5.38012e-05
5.31651e-05
5.24509e-05
5.1668e-05
5.08275e-05
4.99403e-05
4.90155e-05
4.80578e-05
4.70641e-05
4.60199e-05
4.48984e-05
4.36625e-05
4.22781e-05
4.08547e-05
3.9124e-05
3.71917e-05
3.53011e-05
3.31926e-05
3.09775e-05
2.89204e-05
2.84391e-05
3.02288e-05
3.28286e-05
3.41411e-05
3.35666e-05
3.2485e-05
2.8659e-05
2.32164e-05
1.62798e-05
7.07152e-06
1.14068e-07
7.06223e-07
2.23645e-05
4.38313e-05
5.39631e-05
5.70965e-05
5.67068e-05
5.51356e-05
5.34425e-05
5.13861e-05
4.96619e-05
4.78058e-05
4.60548e-05
4.45889e-05
4.34932e-05
4.27393e-05
4.2242e-05
4.19416e-05
4.18279e-05
4.19011e-05
4.21593e-05
4.25999e-05
4.32008e-05
4.3932e-05
4.47618e-05
4.56584e-05
4.65973e-05
4.75577e-05
4.85248e-05
4.94869e-05
5.04347e-05
5.13613e-05
5.22608e-05
5.31282e-05
5.3956e-05
5.47395e-05
5.54919e-05
5.61527e-05
5.67102e-05
5.719e-05
5.76659e-05
5.80418e-05
5.8296e-05
5.84607e-05
5.85209e-05
5.84759e-05
5.83221e-05
5.80577e-05
5.7682e-05
5.71958e-05
5.66017e-05
5.59047e-05
5.5112e-05
5.4234e-05
5.32836e-05
5.2276e-05
5.12273e-05
5.01523e-05
4.90611e-05
4.79538e-05
4.68153e-05
4.56105e-05
4.42827e-05
4.27646e-05
4.12048e-05
3.92531e-05
3.6895e-05
3.48461e-05
3.27495e-05
3.04123e-05
2.81698e-05
2.77911e-05
2.94821e-05
3.16276e-05
3.24678e-05
3.17368e-05
2.9232e-05
2.43856e-05
1.7712e-05
8.01468e-06
1.48747e-07
7.84799e-07
2.36488e-05
4.57451e-05
5.58898e-05
5.86459e-05
5.81294e-05
5.65498e-05
5.429e-05
5.18219e-05
4.97005e-05
4.76444e-05
4.58365e-05
4.44062e-05
4.33719e-05
4.26705e-05
4.22314e-05
4.20232e-05
4.20419e-05
4.22792e-05
4.27205e-05
4.33435e-05
4.41127e-05
4.49931e-05
4.59525e-05
4.69636e-05
4.80065e-05
4.90655e-05
5.01294e-05
5.1189e-05
5.22368e-05
5.32659e-05
5.42691e-05
5.5239e-05
5.61668e-05
5.70437e-05
5.78924e-05
5.86646e-05
5.9292e-05
5.98338e-05
6.0354e-05
6.08212e-05
6.112e-05
6.13308e-05
6.14269e-05
6.14098e-05
6.12745e-05
6.10187e-05
6.06404e-05
6.01391e-05
5.95157e-05
5.87731e-05
5.79168e-05
5.69555e-05
5.59015e-05
5.47709e-05
5.35835e-05
5.2361e-05
5.11251e-05
4.98925e-05
4.86688e-05
4.74401e-05
4.61648e-05
4.47661e-05
4.31358e-05
4.14594e-05
3.91203e-05
3.65221e-05
3.4251e-05
3.21296e-05
2.95952e-05
2.71762e-05
2.72213e-05
2.90296e-05
3.04174e-05
3.04425e-05
2.92902e-05
2.51154e-05
1.88297e-05
8.77899e-06
1.86595e-07
8.57158e-07
2.47418e-05
4.72846e-05
5.73785e-05
5.99052e-05
5.95576e-05
5.74021e-05
5.46077e-05
5.20846e-05
4.96016e-05
4.74125e-05
4.55931e-05
4.42141e-05
4.3244e-05
4.26115e-05
4.22665e-05
4.21907e-05
4.23715e-05
4.27858e-05
4.3404e-05
4.41895e-05
4.51025e-05
4.61089e-05
4.71801e-05
4.82945e-05
4.94365e-05
5.05942e-05
5.17583e-05
5.29206e-05
5.40731e-05
5.52077e-05
5.63154e-05
5.73868e-05
5.84122e-05
5.93822e-05
6.03132e-05
6.11768e-05
6.18905e-05
6.24791e-05
6.30407e-05
6.35878e-05
6.39294e-05
6.41822e-05
6.43135e-05
6.43255e-05
6.42131e-05
6.39734e-05
6.36036e-05
6.31017e-05
6.2467e-05
6.17001e-05
6.08038e-05
5.97838e-05
5.86494e-05
5.74146e-05
5.60985e-05
5.47254e-05
5.33233e-05
5.19212e-05
5.05435e-05
4.92027e-05
4.78882e-05
4.6555e-05
4.51111e-05
4.34126e-05
4.14425e-05
3.87475e-05
3.59635e-05
3.35361e-05
3.1301e-05
2.84095e-05
2.60125e-05
2.65138e-05
2.84225e-05
2.94326e-05
2.82898e-05
2.53581e-05
1.95908e-05
9.35834e-06
2.26427e-07
9.20759e-07
2.5618e-05
4.8446e-05
5.85044e-05
6.11433e-05
6.05911e-05
5.81159e-05
5.50296e-05
5.20848e-05
4.94119e-05
4.7145e-05
4.5345e-05
4.40281e-05
4.31328e-05
4.25938e-05
4.23756e-05
4.24569e-05
4.28091e-05
4.33938e-05
4.41699e-05
4.50952e-05
4.61311e-05
4.72474e-05
4.84207e-05
4.96339e-05
5.08748e-05
5.21332e-05
5.34004e-05
5.46674e-05
5.5925e-05
5.7163e-05
5.8371e-05
5.9538e-05
6.06538e-05
6.17084e-05
6.27066e-05
6.36482e-05
6.44419e-05
6.5066e-05
6.56606e-05
6.62749e-05
6.66552e-05
6.69433e-05
6.71065e-05
6.71465e-05
6.70587e-05
6.68401e-05
6.64874e-05
6.59979e-05
6.53693e-05
6.46001e-05
6.36902e-05
6.26416e-05
6.14596e-05
6.01538e-05
5.87395e-05
5.72387e-05
5.56803e-05
5.40988e-05
5.25313e-05
5.10102e-05
4.95539e-05
4.81534e-05
4.67562e-05
4.52493e-05
4.34407e-05
4.11073e-05
3.81539e-05
3.52245e-05
3.27058e-05
3.02374e-05
2.70929e-05
2.51306e-05
2.58658e-05
2.70435e-05
2.71573e-05
2.52837e-05
1.99991e-05
9.72903e-06
2.67947e-07
9.74215e-07
2.62839e-05
4.92799e-05
5.9389e-05
6.20672e-05
6.13336e-05
5.84322e-05
5.51746e-05
5.19816e-05
4.91681e-05
4.68653e-05
4.51063e-05
4.38622e-05
4.30577e-05
4.26371e-05
4.25675e-05
4.2814e-05
4.3331e-05
4.40692e-05
4.49823e-05
4.60279e-05
4.71719e-05
4.83886e-05
4.96592e-05
5.097e-05
5.23102e-05
5.36701e-05
5.50399e-05
5.64093e-05
5.77669e-05
5.91011e-05
6.04001e-05
6.16522e-05
6.28464e-05
6.39728e-05
6.50217e-05
6.60287e-05
6.68956e-05
6.75438e-05
6.81584e-05
6.88246e-05
6.92391e-05
6.95545e-05
6.97442e-05
6.98087e-05
6.97445e-05
6.95487e-05
6.92184e-05
6.87505e-05
6.81417e-05
6.7389e-05
6.64897e-05
6.54424e-05
6.42478e-05
6.29102e-05
6.14388e-05
5.98502e-05
5.81691e-05
5.643e-05
5.4675e-05
5.29502e-05
5.12974e-05
4.97414e-05
4.82751e-05
4.68408e-05
4.53086e-05
4.32845e-05
4.04232e-05
3.73236e-05
3.43261e-05
3.16916e-05
2.8822e-05
2.53779e-05
2.44178e-05
2.54643e-05
2.61691e-05
2.46561e-05
2.00569e-05
9.89453e-06
3.10944e-07
1.01676e-06
2.67418e-05
4.98397e-05
5.99894e-05
6.27637e-05
6.1879e-05
5.8839e-05
5.52146e-05
5.18089e-05
4.88962e-05
4.65893e-05
4.48873e-05
4.37278e-05
4.30316e-05
4.27479e-05
4.28354e-05
4.32418e-05
4.39086e-05
4.47813e-05
4.58129e-05
4.69645e-05
4.82068e-05
4.95185e-05
5.08839e-05
5.22911e-05
5.37295e-05
5.51883e-05
5.6656e-05
5.81205e-05
5.95687e-05
6.09878e-05
6.23648e-05
6.36878e-05
6.49453e-05
6.61269e-05
6.72224e-05
6.82732e-05
6.92066e-05
6.98777e-05
7.05071e-05
7.11888e-05
7.16387e-05
7.19727e-05
7.21822e-05
7.2266e-05
7.22218e-05
7.20478e-05
7.17413e-05
7.12997e-05
7.07195e-05
6.99968e-05
6.91271e-05
6.81062e-05
6.69307e-05
6.55992e-05
6.41143e-05
6.24849e-05
6.07283e-05
5.8873e-05
5.69594e-05
5.50386e-05
5.31665e-05
5.1393e-05
4.97457e-05
4.82124e-05
4.67247e-05
4.51478e-05
4.27492e-05
3.9465e-05
3.63367e-05
3.32004e-05
3.0421e-05
2.69029e-05
2.37493e-05
2.35229e-05
2.38917e-05
2.3612e-05
1.99328e-05
1.0029e-05
3.57798e-07
1.04828e-06
2.7009e-05
5.01574e-05
6.03358e-05
6.32846e-05
6.21409e-05
5.89819e-05
5.51594e-05
5.15914e-05
4.86147e-05
4.63273e-05
4.46953e-05
4.36325e-05
4.3059e-05
4.29215e-05
4.31634e-05
4.37169e-05
4.4516e-05
4.55056e-05
4.66415e-05
4.7889e-05
4.92232e-05
5.0626e-05
5.20836e-05
5.35844e-05
5.51165e-05
5.66677e-05
5.82247e-05
5.97733e-05
6.12995e-05
6.27896e-05
6.42303e-05
6.56097e-05
6.69166e-05
6.81411e-05
6.92745e-05
7.03452e-05
7.13252e-05
7.20368e-05
7.26643e-05
7.33432e-05
7.3827e-05
7.41722e-05
7.43942e-05
7.4491e-05
7.44618e-05
7.43056e-05
7.40212e-05
7.36065e-05
7.30585e-05
7.23734e-05
7.15458e-05
7.05695e-05
6.94379e-05
6.81449e-05
6.66864e-05
6.50629e-05
6.32825e-05
6.1364e-05
5.93405e-05
5.72606e-05
5.51867e-05
5.31866e-05
5.13181e-05
4.96063e-05
4.80161e-05
4.64274e-05
4.4614e-05
4.17425e-05
3.84072e-05
3.50881e-05
3.17449e-05
2.86512e-05
2.46165e-05
2.2723e-05
2.27938e-05
2.28594e-05
1.98076e-05
1.0368e-05
4.17532e-07
1.06928e-06
2.71103e-05
5.02205e-05
6.03945e-05
6.34623e-05
6.24323e-05
5.90319e-05
5.50378e-05
5.13481e-05
4.83363e-05
4.60861e-05
4.45346e-05
4.3579e-05
4.31373e-05
4.31463e-05
4.35326e-05
4.42172e-05
4.51321e-05
4.62245e-05
4.74537e-05
4.87896e-05
5.02106e-05
5.17005e-05
5.3246e-05
5.48345e-05
5.64529e-05
5.80867e-05
5.97211e-05
6.13407e-05
6.2931e-05
6.44778e-05
6.59684e-05
6.73912e-05
6.87361e-05
6.99941e-05
7.1158e-05
7.22288e-05
7.32352e-05
7.40094e-05
7.46158e-05
7.52792e-05
7.57917e-05
7.61423e-05
7.63699e-05
7.64733e-05
7.64529e-05
7.63092e-05
7.60423e-05
7.56515e-05
7.51351e-05
7.44895e-05
7.37098e-05
7.27889e-05
7.1718e-05
7.04874e-05
6.90874e-05
6.75108e-05
6.57555e-05
6.38287e-05
6.17519e-05
5.95643e-05
5.73255e-05
5.51119e-05
5.30062e-05
5.10773e-05
4.93534e-05
4.7794e-05
4.62645e-05
4.38277e-05
4.04217e-05
3.71362e-05
3.36167e-05
2.99951e-05
2.62285e-05
2.23727e-05
2.14988e-05
2.13342e-05
1.95238e-05
1.0994e-05
4.98284e-07
1.07986e-06
2.70413e-05
5.00243e-05
6.03284e-05
6.36061e-05
6.24788e-05
5.89878e-05
5.48694e-05
5.10937e-05
4.80695e-05
4.58696e-05
4.4407e-05
4.3566e-05
4.32587e-05
4.34079e-05
4.39249e-05
4.47249e-05
4.57413e-05
4.69249e-05
4.82389e-05
4.96568e-05
5.11592e-05
5.27307e-05
5.43575e-05
5.60254e-05
5.77195e-05
5.94239e-05
6.11223e-05
6.27991e-05
6.44394e-05
6.60297e-05
6.75578e-05
6.90129e-05
7.03852e-05
7.16662e-05
7.2848e-05
7.39228e-05
7.49409e-05
7.57812e-05
7.636e-05
7.69967e-05
7.75326e-05
7.78844e-05
7.81118e-05
7.82156e-05
7.81978e-05
7.80603e-05
7.78049e-05
7.74327e-05
7.69433e-05
7.63349e-05
7.56031e-05
7.47412e-05
7.37397e-05
7.25865e-05
7.12677e-05
6.97696e-05
6.80809e-05
6.61968e-05
6.41248e-05
6.189e-05
5.9541e-05
5.7151e-05
5.48122e-05
5.26178e-05
5.0634e-05
4.8864e-05
4.72154e-05
4.54746e-05
4.24491e-05
3.89379e-05
3.5451e-05
3.17321e-05
2.78744e-05
2.32602e-05
2.10076e-05
1.98337e-05
1.90129e-05
1.1681e-05
6.00037e-07
1.07931e-06
2.68714e-05
4.97709e-05
6.0113e-05
6.36138e-05
6.24209e-05
5.88713e-05
5.46698e-05
5.08385e-05
4.78199e-05
4.56798e-05
4.43117e-05
4.35889e-05
4.34132e-05
4.36918e-05
4.43249e-05
4.5226e-05
4.63319e-05
4.75971e-05
4.89884e-05
5.04819e-05
5.20592e-05
5.3705e-05
5.54041e-05
5.71408e-05
5.88985e-05
6.066e-05
6.24088e-05
6.41292e-05
6.58069e-05
6.7429e-05
6.89841e-05
7.0462e-05
7.18536e-05
7.31502e-05
7.43437e-05
7.54262e-05
7.64413e-05
7.73406e-05
7.79037e-05
7.85036e-05
7.90577e-05
7.94081e-05
7.96306e-05
7.97297e-05
7.97087e-05
7.95712e-05
7.93207e-05
7.89601e-05
7.84912e-05
7.7914e-05
7.72258e-05
7.64209e-05
7.54902e-05
7.44208e-05
7.31964e-05
7.17983e-05
7.02075e-05
6.84083e-05
6.63938e-05
6.41728e-05
6.17777e-05
5.92709e-05
5.67457e-05
5.43155e-05
5.20898e-05
5.01356e-05
4.84372e-05
4.68692e-05
4.438e-05
4.07516e-05
3.7402e-05
3.33135e-05
2.91672e-05
2.47661e-05
2.08763e-05
1.93196e-05
1.85942e-05
1.23007e-05
7.18681e-07
1.0737e-06
2.6603e-05
4.93498e-05
5.97044e-05
6.34037e-05
6.22577e-05
5.8697e-05
5.4451e-05
5.05904e-05
4.75911e-05
4.55168e-05
4.42463e-05
4.3641e-05
4.359e-05
4.39855e-05
4.47207e-05
4.57104e-05
4.68953e-05
4.82335e-05
4.96946e-05
5.12563e-05
5.29009e-05
5.46118e-05
5.63726e-05
5.81659e-05
5.9974e-05
6.17794e-05
6.35654e-05
6.53171e-05
6.70209e-05
6.86651e-05
7.0239e-05
7.17332e-05
7.3139e-05
7.44482e-05
7.56536e-05
7.6749e-05
7.77476e-05
7.86699e-05
7.92631e-05
7.98123e-05
8.03795e-05
8.07272e-05
8.09421e-05
8.10326e-05
8.10036e-05
8.08604e-05
8.06082e-05
8.02522e-05
7.97962e-05
7.92423e-05
7.85902e-05
7.7836e-05
7.6972e-05
7.59858e-05
7.48601e-05
7.35734e-05
7.2101e-05
7.0418e-05
6.85044e-05
6.63515e-05
6.39722e-05
6.14101e-05
5.87465e-05
5.60975e-05
5.35951e-05
5.13488e-05
4.93938e-05
4.76406e-05
4.5842e-05
4.26088e-05
3.9015e-05
3.52693e-05
3.08922e-05
2.62699e-05
2.10566e-05
1.88041e-05
1.76142e-05
1.2948e-05
8.42443e-07
1.06119e-06
2.62779e-05
4.86673e-05
5.91793e-05
6.30589e-05
6.20047e-05
5.84769e-05
5.4222e-05
5.03547e-05
4.73849e-05
4.53798e-05
4.4207e-05
4.37153e-05
4.37793e-05
4.42787e-05
4.51031e-05
4.61702e-05
4.74246e-05
4.88274e-05
5.03504e-05
5.19723e-05
5.36747e-05
5.54402e-05
5.72507e-05
5.9088e-05
6.09335e-05
6.27699e-05
6.45812e-05
6.63534e-05
6.80741e-05
6.97326e-05
7.13193e-05
7.28253e-05
7.42425e-05
7.55629e-05
7.67792e-05
7.78844e-05
7.88723e-05
7.9802e-05
8.04378e-05
8.09365e-05
8.15119e-05
8.18571e-05
8.20631e-05
8.21426e-05
8.21023e-05
8.19488e-05
8.16895e-05
8.13312e-05
8.08803e-05
8.03412e-05
7.97162e-05
7.90039e-05
7.81986e-05
7.72895e-05
7.62601e-05
7.50875e-05
7.37438e-05
7.21972e-05
7.04164e-05
6.83771e-05
6.60715e-05
6.35209e-05
6.07877e-05
5.79812e-05
5.52489e-05
5.27455e-05
5.05806e-05
4.87597e-05
4.71327e-05
4.42974e-05
4.05207e-05
3.72296e-05
3.23178e-05
2.75389e-05
2.23158e-05
1.86334e-05
1.64528e-05
1.34523e-05
9.43213e-07
1.04159e-06
2.58592e-05
4.79165e-05
5.85601e-05
6.25959e-05
6.16752e-05
5.82212e-05
5.399e-05
5.01352e-05
4.72023e-05
4.52672e-05
4.41894e-05
4.38046e-05
4.39726e-05
4.45631e-05
4.54649e-05
4.65993e-05
4.79141e-05
4.93731e-05
5.09495e-05
5.26222e-05
5.43721e-05
5.61807e-05
5.80288e-05
5.98973e-05
6.17678e-05
6.36235e-05
6.54495e-05
6.7233e-05
6.8963e-05
7.06298e-05
7.22248e-05
7.37397e-05
7.51663e-05
7.64966e-05
7.77222e-05
7.8835e-05
7.98262e-05
8.07555e-05
8.14371e-05
8.18908e-05
8.24677e-05
8.28118e-05
8.30094e-05
8.30771e-05
8.30235e-05
8.28568e-05
8.25859e-05
8.22198e-05
8.1767e-05
8.12347e-05
8.06275e-05
7.99471e-05
7.91904e-05
7.83491e-05
7.74083e-05
7.63459e-05
7.51325e-05
7.3732e-05
7.21047e-05
7.02124e-05
6.8028e-05
6.5548e-05
6.28087e-05
5.98992e-05
5.69631e-05
5.41762e-05
5.16961e-05
4.95955e-05
4.78144e-05
4.56993e-05
4.19481e-05
3.877e-05
3.42435e-05
2.90949e-05
2.37073e-05
1.90995e-05
1.57699e-05
1.36544e-05
9.89949e-07
1.01601e-06
2.53345e-05
4.7053e-05
5.78433e-05
6.20363e-05
6.12816e-05
5.79381e-05
5.37602e-05
4.99347e-05
4.70435e-05
4.51769e-05
4.41891e-05
4.39026e-05
4.41629e-05
4.48325e-05
4.58009e-05
4.69929e-05
4.83592e-05
4.98655e-05
5.1486e-05
5.31994e-05
5.49859e-05
5.68257e-05
5.86991e-05
6.05868e-05
6.24708e-05
6.43353e-05
6.61668e-05
6.7954e-05
6.96871e-05
7.13575e-05
7.29575e-05
7.44789e-05
7.59137e-05
7.72532e-05
7.84886e-05
7.96106e-05
8.06104e-05
8.15361e-05
8.22674e-05
8.26959e-05
8.32563e-05
8.36024e-05
8.37935e-05
8.38502e-05
8.37829e-05
8.36015e-05
8.33164e-05
8.29385e-05
8.24784e-05
8.19458e-05
8.1348e-05
8.06897e-05
7.99709e-05
7.91862e-05
7.83236e-05
7.73627e-05
7.62746e-05
7.50214e-05
7.35576e-05
7.18347e-05
6.98081e-05
6.74508e-05
6.47706e-05
6.18296e-05
5.87574e-05
5.57414e-05
5.29837e-05
5.06217e-05
4.86435e-05
4.68446e-05
4.35615e-05
4.01208e-05
3.62582e-05
3.03549e-05
2.4827e-05
1.90577e-05
1.58965e-05
1.36431e-05
9.98111e-07
9.85916e-07
2.4775e-05
4.61021e-05
5.70364e-05
6.1396e-05
6.08348e-05
5.76343e-05
5.35364e-05
4.97546e-05
4.69081e-05
4.51065e-05
4.42017e-05
4.40036e-05
4.43446e-05
4.5082e-05
4.61068e-05
4.7347e-05
4.87557e-05
5.03001e-05
5.1955e-05
5.36986e-05
5.55104e-05
5.73698e-05
5.92569e-05
6.11524e-05
6.30395e-05
6.49037e-05
6.67329e-05
6.85171e-05
7.02481e-05
7.19183e-05
7.35204e-05
7.50466e-05
7.64887e-05
7.78376e-05
7.90837e-05
8.02177e-05
8.12311e-05
8.21479e-05
8.29074e-05
8.3358e-05
8.38832e-05
8.42366e-05
8.44242e-05
8.44718e-05
8.43921e-05
8.41961e-05
8.38959e-05
8.35039e-05
8.30328e-05
8.24946e-05
8.18994e-05
8.12546e-05
8.05636e-05
7.98245e-05
7.90282e-05
7.81575e-05
7.71853e-05
7.6074e-05
7.47753e-05
7.32331e-05
7.13892e-05
6.91948e-05
6.66283e-05
6.37189e-05
6.05688e-05
5.73597e-05