/*--------------------------------*- C++ -*----------------------------------*\
  =========                 |
  \\      /  F ield         | OpenFOAM: The Open Source CFD Toolbox
   \\    /   O peration     | Website:  https://openfoam.org
    \\  /    A nd           | Version:  13
     \\/     M anipulation  |
\*---------------------------------------------------------------------------*/
FoamFile
{
    format      ascii;
    class       surfaceScalarField;
    location    "9.5";
    object      phi;
}
// * * * * * * * * * * * * * * * * * * * * * * * * * * * * * * * * * * * * * //

dimensions      [0 3 -1 0 0 0 0];

internalField   nonuniform List<scalar> 
12640
(
1.67922e-09
-1.6792e-09
1.5635e-08
-1.39558e-08
4.01848e-08
-2.45498e-08
6.84696e-08
-2.82848e-08
9.39393e-08
-2.54696e-08
1.12928e-07
-1.89892e-08
1.24071e-07
-1.11427e-08
1.28319e-07
-4.24814e-09
1.28037e-07
2.82481e-10
1.25636e-07
2.40057e-09
1.23143e-07
2.49311e-09
1.21871e-07
1.27213e-09
1.22225e-07
-3.53873e-10
1.23924e-07
-1.69896e-09
1.26092e-07
-2.16817e-09
1.27766e-07
-1.67352e-09
1.28034e-07
-2.68538e-10
1.2636e-07
1.6741e-09
1.21861e-07
4.49851e-09
1.13637e-07
8.22423e-09
1.01139e-07
1.24982e-08
8.3767e-08
1.7372e-08
6.10851e-08
2.26819e-08
3.29047e-08
2.81804e-08
-8.08315e-10
3.3713e-08
-4.0278e-08
3.94697e-08
-8.69965e-08
4.67185e-08
-1.43485e-07
5.6488e-08
-2.12682e-07
6.91972e-08
-2.96623e-07
8.39413e-08
-3.94025e-07
9.74023e-08
-5.01144e-07
1.07119e-07
-6.1437e-07
1.13226e-07
-7.30223e-07
1.15852e-07
-8.45695e-07
1.15472e-07
-9.58192e-07
1.12498e-07
-1.06561e-06
1.07421e-07
-1.16626e-06
1.00648e-07
-1.25881e-06
9.25496e-08
-1.34224e-06
8.34266e-08
-1.4157e-06
7.34631e-08
-1.47853e-06
6.28309e-08
-1.53013e-06
5.15958e-08
-1.56991e-06
3.97869e-08
-1.59729e-06
2.73718e-08
-1.61225e-06
1.49607e-08
-1.61477e-06
2.52721e-09
-1.60298e-06
-1.17939e-08
-1.57781e-06
-2.51682e-08
-1.53807e-06
-3.97447e-08
-1.48399e-06
-5.40819e-08
-1.41538e-06
-6.86025e-08
-1.33264e-06
-8.2742e-08
-1.23623e-06
-9.64094e-08
-1.12681e-06
-1.09419e-07
-1.00533e-06
-1.21485e-07
-8.73233e-07
-1.32095e-07
-7.32383e-07
-1.4085e-07
-5.85173e-07
-1.4721e-07
-4.34494e-07
-1.5068e-07
-2.83877e-07
-1.50617e-07
-1.37154e-07
-1.46723e-07
1.671e-09
-1.38825e-07
1.29572e-07
-1.27901e-07
2.41472e-07
-1.119e-07
3.33711e-07
-9.22391e-08
4.03145e-07
-6.94341e-08
4.47375e-07
-4.42302e-08
4.65164e-07
-1.77888e-08
4.55368e-07
9.79598e-09
4.21104e-07
3.42641e-08
3.64994e-07
5.61097e-08
2.93328e-07
7.16662e-08
2.1616e-07
7.71679e-08
1.43844e-07
7.23157e-08
8.36576e-08
6.01869e-08
3.92475e-08
4.441e-08
1.10902e-08
2.81573e-08
-8.60712e-10
1.1951e-08
-8.60713e-10
1.0794e-08
-1.24732e-08
4.43636e-08
-4.75254e-08
9.07296e-08
-7.09158e-08
1.37915e-07
-7.54706e-08
1.78211e-07
-6.57655e-08
2.07815e-07
-4.85931e-08
2.26155e-07
-2.94821e-08
2.34265e-07
-1.23585e-08
2.3399e-07
5.57728e-10
2.27724e-07
8.66662e-09
2.17785e-07
1.24322e-08
2.05761e-07
1.32952e-08
1.92147e-07
1.32601e-08
1.76343e-07
1.4106e-08
1.57267e-07
1.69076e-08
1.33747e-07
2.18465e-08
1.04829e-07
2.86492e-08
6.9222e-08
3.72811e-08
2.56643e-08
4.80562e-08
-2.74005e-08
6.1289e-08
-9.20518e-08
7.71496e-08
-1.70058e-07
9.53778e-08
-2.62593e-07
1.15217e-07
-3.7049e-07
1.36077e-07
-4.94261e-07
1.57485e-07
-6.33529e-07
1.78738e-07
-7.85582e-07
1.98771e-07
-9.45995e-07
2.16901e-07
-1.10917e-06
2.32373e-07
-1.26932e-06
2.44089e-07
-1.42312e-06
2.51207e-07
-1.56962e-06
2.53612e-07
-1.70742e-06
2.51029e-07
-1.83533e-06
2.4376e-07
-1.95238e-06
2.32529e-07
-2.05796e-06
2.18074e-07
-2.1516e-06
2.01064e-07
-2.23304e-06
1.82086e-07
-2.30206e-06
1.61572e-07
-2.35855e-06
1.39913e-07
-2.40239e-06
1.173e-07
-2.43348e-06
9.39202e-08
-2.45174e-06
6.98559e-08
-2.45713e-06
4.51796e-08
-2.44966e-06
1.98998e-08
-2.42863e-06
-6.06699e-09
-2.39417e-06
-3.19306e-08
-2.34671e-06
-5.92572e-08
-2.28516e-06
-8.67157e-08
-2.21016e-06
-1.14749e-07
-2.12127e-06
-1.42964e-07
-2.01863e-06
-1.71244e-07
-1.90216e-06
-1.99213e-07
-1.77211e-06
-2.26461e-07
-1.62914e-06
-2.52388e-07
-1.4744e-06
-2.76226e-07
-1.30918e-06
-2.97318e-07
-1.13537e-06
-3.14656e-07
-9.55317e-07
-3.27263e-07
-7.71724e-07
-3.34272e-07
-5.8763e-07
-3.34711e-07
-4.06451e-07
-3.27902e-07
-2.31683e-07
-3.13593e-07
-6.77633e-08
-2.91821e-07
8.2626e-08
-2.62289e-07
2.15965e-07
-2.25578e-07
3.28879e-07
-1.82349e-07
4.18814e-07
-1.34165e-07
4.83373e-07
-8.2348e-08
5.22208e-07
-2.90389e-08
5.33515e-07
2.29572e-08
5.18056e-07
7.15691e-08
4.77823e-07
1.11899e-07
4.13675e-07
1.41316e-07
3.29497e-07
1.56494e-07
2.3581e-07
1.53873e-07
1.45105e-07
1.35115e-07
6.97308e-08
1.03532e-07
1.956e-08
6.21218e-08
1.86992e-08
2.04584e-08
-3.29316e-08
6.77647e-08
-9.48317e-08
1.20679e-07
-1.2383e-07
1.67158e-07
-1.2195e-07
2.02776e-07
-1.01383e-07
2.26609e-07
-7.24263e-08
2.39384e-07
-4.22566e-08
2.42102e-07
-1.50771e-08
2.3596e-07
6.70038e-09
2.22466e-07
2.21601e-08
2.03029e-07
3.18691e-08
1.78227e-07
3.8097e-08
1.4785e-07
4.36371e-08
1.11049e-07
5.09074e-08
6.66215e-08
6.13352e-08
1.31084e-08
7.53596e-08
-5.12545e-08
9.30121e-08
-1.28299e-07
1.14325e-07
-2.1957e-07
1.39327e-07
-3.26273e-07
1.67993e-07
-4.48836e-07
1.99712e-07
-5.86802e-07
2.33344e-07
-7.39013e-07
2.67428e-07
-9.02882e-07
2.99946e-07
-1.07483e-06
3.29436e-07
-1.25051e-06
3.54417e-07
-1.4256e-06
3.73863e-07
-1.59609e-06
3.87386e-07
-1.75842e-06
3.94703e-07
-1.91011e-06
3.95781e-07
-2.04975e-06
3.90848e-07
-2.17649e-06
3.8035e-07
-2.29041e-06
3.64953e-07
-2.39198e-06
3.45322e-07
-2.4815e-06
3.22053e-07
-2.55935e-06
2.95923e-07
-2.62582e-06
2.6753e-07
-2.68114e-06
2.37411e-07
-2.72548e-06
2.0591e-07
-2.75895e-06
1.7338e-07
-2.7816e-06
1.39953e-07
-2.79342e-06
1.05738e-07
-2.79434e-06
7.0778e-08
-2.78424e-06
3.50836e-08
-2.7629e-06
-1.44517e-09
-2.73033e-06
-3.86377e-08
-2.68558e-06
-7.66815e-08
-2.62908e-06
-1.15749e-07
-2.56027e-06
-1.55531e-07
-2.47898e-06
-1.96038e-07
-2.38497e-06
-2.3697e-07
-2.27814e-06
-2.78073e-07
-2.15847e-06
-3.1889e-07
-2.02613e-06
-3.58794e-07
-1.88161e-06
-3.9691e-07
-1.72565e-06
-4.32192e-07
-1.55932e-06
-4.63639e-07
-1.38408e-06
-4.89897e-07
-1.20186e-06
-5.09482e-07
-1.01519e-06
-5.20944e-07
-8.26912e-07
-5.22991e-07
-6.40339e-07
-5.14476e-07
-4.59066e-07
-4.94867e-07
-2.86801e-07
-4.64085e-07
-1.26622e-07
-4.22467e-07
1.84004e-08
-3.70601e-07
1.45703e-07
-3.09652e-07
2.52762e-07
-2.41224e-07
3.38163e-07
-1.67749e-07
4.0108e-07
-9.19559e-08
4.40756e-07
-1.67194e-08
4.56617e-07
5.57086e-08
4.47618e-07
1.20897e-07
4.14915e-07
1.74019e-07
3.6053e-07
2.1088e-07
2.87213e-07
2.2719e-07
2.01778e-07
2.2055e-07
1.14904e-07
1.90406e-07
4.02577e-08
1.36768e-07
5.8957e-08
2.84374e-08
-6.13691e-08
8.21638e-08
-1.48558e-07
1.32509e-07
-1.74176e-07
1.70928e-07
-1.60369e-07
1.96245e-07
-1.267e-07
2.09732e-07
-8.59138e-08
2.12625e-07
-4.51495e-08
2.0607e-07
-8.52168e-09
1.90859e-07
2.1911e-08
1.67454e-07
4.55651e-08
1.35624e-07
6.36998e-08
9.48361e-08
7.88846e-08
4.42876e-08
9.41856e-08
-1.69906e-08
1.12186e-07
-9.01234e-08
1.34468e-07
-1.76488e-07
1.61725e-07
-2.77547e-07
1.9407e-07
-3.94542e-07
2.31321e-07
-5.27972e-07
2.72757e-07
-6.77244e-07
3.17265e-07
-8.40417e-07
3.62884e-07
-1.01421e-06
4.07133e-07
-1.19464e-06
4.47862e-07
-1.37736e-06
4.82665e-07
-1.55822e-06
5.10295e-07
-1.73331e-06
5.29512e-07
-1.8992e-06
5.39749e-07
-2.05331e-06
5.41497e-07
-2.1944e-06
5.35792e-07
-2.32215e-06
5.23532e-07
-2.43685e-06
5.05552e-07
-2.53912e-06
4.82613e-07
-2.6296e-06
4.55435e-07
-2.70903e-06
4.24753e-07
-2.7781e-06
3.91129e-07
-2.83735e-06
3.55171e-07
-2.88717e-06
3.17343e-07
-2.92783e-06
2.78078e-07
-2.95953e-06
2.37612e-07
-2.98232e-06
1.96168e-07
-2.99619e-06
1.5382e-07
-3.00106e-06
1.10606e-07
-2.99675e-06
6.64667e-08
-2.98301e-06
2.135e-08
-2.95967e-06
-2.47902e-08
-2.9263e-06
-7.20099e-08
-2.88251e-06
-1.20466e-07
-2.82804e-06
-1.7022e-07
-2.76242e-06
-2.21146e-07
-2.68534e-06
-2.73119e-07
-2.59644e-06
-3.2587e-07
-2.49545e-06
-3.79071e-07
-2.38213e-06
-4.32204e-07
-2.25639e-06
-4.84535e-07
-2.11831e-06
-5.34993e-07
-1.96835e-06
-5.82152e-07
-1.80728e-06
-6.24705e-07
-1.63619e-06
-6.60988e-07
-1.45664e-06
-6.89037e-07
-1.27068e-06
-7.06903e-07
-1.08085e-06
-7.12821e-07
-8.90252e-07
-7.0507e-07
-7.02597e-07
-6.82522e-07
-5.22001e-07
-6.44682e-07
-3.52094e-07
-5.92374e-07
-1.95938e-07
-5.26757e-07
-5.6425e-08
-4.49164e-07
6.43156e-08
-3.61965e-07
1.64665e-07
-2.68098e-07
2.43643e-07
-1.70934e-07
3.00935e-07
-7.40114e-08
3.37252e-07
1.93918e-08
3.52465e-07
1.05684e-07
3.46049e-07
1.80435e-07
3.17923e-07
2.39006e-07
2.69003e-07
2.7611e-07
2.03101e-07
2.86452e-07
1.26142e-07
2.67365e-07
4.87275e-08
2.14183e-07
1.07684e-07
3.45365e-08
-9.59055e-08
8.74263e-08
-2.01448e-07
1.28837e-07
-2.15587e-07
1.55584e-07
-1.87116e-07
1.6854e-07
-1.39656e-07
1.69985e-07
-8.73591e-08
1.61307e-07
-3.64715e-08
1.43237e-07
9.54822e-09
1.15932e-07
4.92166e-08
7.8911e-08
8.25856e-08
3.118e-08
1.11431e-07
-2.84791e-08
1.38544e-07
-1.01251e-07
1.66958e-07
-1.88223e-07
1.99157e-07
-2.90402e-07
2.36647e-07
-4.08614e-07
2.79937e-07
-5.43234e-07
3.2869e-07
-6.93911e-07
3.81997e-07
-8.59038e-07
4.37884e-07
-1.0354e-06
4.93622e-07
-1.21906e-06
5.46547e-07
-1.40544e-06
5.93518e-07
-1.59022e-06
6.32637e-07
-1.76917e-06
6.61614e-07
-1.93802e-06
6.79152e-07
-2.09436e-06
6.85851e-07
-2.23741e-06
6.82801e-07
-2.36726e-06
6.7134e-07
-2.48438e-06
6.52916e-07
-2.58951e-06
6.28657e-07
-2.68351e-06
5.99552e-07
-2.76721e-06
5.66316e-07
-2.84135e-06
5.29571e-07
-2.90655e-06
4.89958e-07
-2.96341e-06
4.47983e-07
-3.01231e-06
4.04079e-07
-3.05358e-06
3.5861e-07
-3.08741e-06
3.1191e-07
-3.11392e-06
2.64117e-07
-3.1331e-06
2.15349e-07
-3.14485e-06
1.65568e-07
-3.14909e-06
1.14847e-07
-3.14561e-06
6.29921e-08
-3.13407e-06
9.80786e-09
-3.11429e-06
-4.45696e-08
-3.08583e-06
-1.00474e-07
-3.04829e-06
-1.5801e-07
-3.00124e-06
-2.17263e-07
-2.94412e-06
-2.78269e-07
-2.87642e-06
-3.40814e-07
-2.79766e-06
-4.04632e-07
-2.70736e-06
-4.6937e-07
-2.60509e-06
-5.34476e-07
-2.49042e-06
-5.99206e-07
-2.36295e-06
-6.6246e-07
-2.22288e-06
-7.2223e-07
-2.07058e-06
-7.77005e-07
-1.90665e-06
-8.24914e-07
-1.73227e-06
-8.63417e-07
-1.54911e-06
-8.90061e-07
-1.35932e-06
-9.02619e-07
-1.16571e-06
-8.98675e-07
-9.71482e-07
-8.7675e-07
-7.80754e-07
-8.3541e-07
-5.98243e-07
-7.74884e-07
-4.28044e-07
-6.96956e-07
-2.7321e-07
-6.03999e-07
-1.36432e-07
-4.98743e-07
-1.97659e-08
-3.84764e-07
7.56108e-08
-2.66311e-07
1.49327e-07
-1.47728e-07
2.01939e-07
-3.32205e-08
2.34334e-07
7.32894e-08
2.47005e-07
1.67764e-07
2.4017e-07
2.45841e-07
2.14152e-07
3.02128e-07
1.6996e-07
3.30643e-07
1.10747e-07
3.26578e-07
4.433e-08
2.806e-07
1.52014e-07
3.80234e-08
-1.33929e-07
8.34497e-08
-2.46874e-07
1.12004e-07
-2.44141e-07
1.24659e-07
-1.9977e-07
1.24346e-07
-1.39342e-07
1.13066e-07
-7.60795e-08
9.17955e-08
-1.52011e-08
6.06503e-08
4.06934e-08
1.91377e-08
9.07292e-08
-3.39092e-08
1.35632e-07
-9.99073e-08
1.77429e-07
-1.80276e-07
2.18912e-07
-2.762e-07
2.62882e-07
-3.88507e-07
3.11464e-07
-5.17591e-07
3.65731e-07
-6.63147e-07
4.25493e-07
-8.23973e-07
4.89516e-07
-9.97589e-07
5.55613e-07
-1.18042e-06
6.20711e-07
-1.36781e-06
6.81021e-07
-1.55525e-06
7.3398e-07
-1.73779e-06
7.76059e-07
-1.91036e-06
8.05209e-07
-2.07005e-06
8.21304e-07
-2.21615e-06
8.25248e-07
-2.34895e-06
8.18659e-07
-2.46929e-06
8.03137e-07
-2.57817e-06
7.80221e-07
-2.67648e-06
7.51225e-07
-2.76504e-06
7.17221e-07
-2.8446e-06
6.79105e-07
-2.91579e-06
6.37509e-07
-2.97924e-06
5.93021e-07
-3.03544e-06
5.4616e-07
-3.0848e-06
4.97337e-07
-3.1276e-06
4.46887e-07
-3.16401e-06
3.95016e-07
-3.19416e-06
3.42058e-07
-3.21814e-06
2.881e-07
-3.23602e-06
2.33234e-07
-3.24762e-06
1.77166e-07
-3.25302e-06
1.20245e-07
-3.25219e-06
6.21573e-08
-3.24461e-06
2.23315e-09
-3.23065e-06
-5.85348e-08
-3.20946e-06
-1.21662e-07
-3.18063e-06
-1.86833e-07
-3.14373e-06
-2.5417e-07
-3.0981e-06
-3.23902e-07
-3.04306e-06
-3.95853e-07
-2.97783e-06
-4.69857e-07
-2.90159e-06
-5.45609e-07
-2.81364e-06
-6.2243e-07
-2.71354e-06
-6.99301e-07
-2.6007e-06
-7.75303e-07
-2.47443e-06
-8.48501e-07
-2.33464e-06
-9.16798e-07
-2.18132e-06
-9.78227e-07
-2.01518e-06
-1.02956e-06
-1.83755e-06
-1.06768e-06
-1.64997e-06
-1.0902e-06
-1.45507e-06
-1.09357e-06
-1.25581e-06
-1.07601e-06
-1.05594e-06
-1.03528e-06
-8.6005e-07
-9.70772e-07
-6.73508e-07
-8.83499e-07
-5.00683e-07
-7.76823e-07
-3.4491e-07
-6.54516e-07
-2.09e-07
-5.20673e-07
-9.49051e-08
-3.80406e-07
-3.39943e-09
-2.39233e-07
6.58928e-08
-1.02513e-07
1.14202e-07
2.49804e-08
1.43114e-07
1.38852e-07
1.53545e-07
2.3541e-07
1.46088e-07
3.09585e-07
1.212e-07
3.55532e-07
8.1166e-08
3.66611e-07
3.22832e-08
3.29483e-07
1.84298e-07
3.78801e-08
-1.71809e-07
7.04233e-08
-2.79417e-07
8.39831e-08
-2.57701e-07
8.17987e-08
-1.97586e-07
6.77153e-08
-1.25259e-07
4.31237e-08
-5.14878e-08
8.31799e-09
1.96046e-08
-3.71899e-08
8.62013e-08
-9.44722e-08
1.48012e-07
-1.64957e-07
2.06117e-07
-2.50152e-07
2.62624e-07
-3.51333e-07
3.20094e-07
-4.69304e-07
3.80853e-07
-6.04209e-07
4.46369e-07
-7.55394e-07
5.16916e-07
-9.21195e-07
5.91294e-07
-1.09861e-06
6.66928e-07
-1.28343e-06
7.40433e-07
-1.47094e-06
8.0822e-07
-1.65605e-06
8.66136e-07
-1.83281e-06
9.10741e-07
-1.99731e-06
9.40553e-07
-2.1481e-06
9.56005e-07
-2.28536e-06
9.58566e-07
-2.41003e-06
9.49916e-07
-2.52314e-06
9.31771e-07
-2.62576e-06
9.05753e-07
-2.71885e-06
8.73317e-07
-2.80321e-06
8.35582e-07
-2.87949e-06
7.93496e-07
-2.94821e-06
7.47828e-07
-3.00988e-06
6.99181e-07
-3.06495e-06
6.48089e-07
-3.11376e-06
5.94974e-07
-3.15664e-06
5.40211e-07
-3.19385e-06
4.84103e-07
-3.22536e-06
4.26527e-07
-3.25138e-06
3.68069e-07
-3.27202e-06
3.08742e-07
-3.28733e-06
2.48546e-07
-3.29757e-06
1.87402e-07
-3.30246e-06
1.25141e-07
-3.30187e-06
6.15618e-08
-3.29584e-06
-3.79034e-09
-3.28426e-06
-7.01175e-08
-3.26736e-06
-1.3856e-07
-3.24502e-06
-2.09175e-07
-3.21702e-06
-2.82165e-07
-3.1831e-06
-3.57824e-07
-3.14254e-06
-4.36411e-07
-3.09445e-06
-5.17952e-07
-3.03781e-06
-6.02251e-07
-2.97128e-06
-6.88958e-07
-2.89301e-06
-7.77572e-07
-2.80123e-06
-8.6708e-07
-2.69469e-06
-9.5504e-07
-2.57285e-06
-1.03864e-06
-2.43579e-06
-1.11529e-06
-2.28375e-06
-1.1816e-06
-2.11694e-06
-1.23449e-06
-1.93626e-06
-1.27089e-06
-1.74416e-06
-1.28567e-06
-1.54312e-06
-1.27705e-06
-1.33672e-06
-1.24168e-06
-1.12924e-06
-1.17826e-06
-9.26146e-07
-1.08659e-06
-7.33798e-07
-9.69171e-07
-5.56962e-07
-8.31351e-07
-3.99219e-07
-6.78417e-07
-2.63547e-07
-5.16078e-07
-1.51715e-07
-3.51066e-07
-6.39717e-08
-1.90255e-07
9.14238e-10
-3.99055e-08
4.47187e-08
9.50477e-08
6.98986e-08
2.1023e-07
7.79481e-08
3.01536e-07
6.96507e-08
3.63829e-07
4.73144e-08
3.88948e-07
1.73214e-08
3.59476e-07
2.01619e-07
3.29402e-08
-2.04749e-07
5.00603e-08
-2.96537e-07
4.74731e-08
-2.55113e-07
3.02148e-08
-1.80328e-07
2.0837e-09
-9.71281e-08
-3.6306e-08
-1.30981e-08
-8.53902e-08
6.86888e-08
-1.46138e-07
1.46949e-07
-2.19883e-07
2.21757e-07
-3.08066e-07
2.943e-07
-4.11958e-07
3.66516e-07
-5.32384e-07
4.4052e-07
-6.69444e-07
5.17912e-07
-8.2238e-07
5.99306e-07
-9.89336e-07
6.83872e-07
-1.16697e-06
7.68931e-07
-1.35081e-06
8.50763e-07
-1.53585e-06
9.25476e-07
-1.716e-06
9.88369e-07
-1.88605e-06
1.03618e-06
-2.04301e-06
1.0677e-06
-2.18639e-06
1.08393e-06
-2.31671e-06
1.08632e-06
-2.43495e-06
1.07681e-06
-2.54223e-06
1.05719e-06
-2.63964e-06
1.02919e-06
-2.72812e-06
9.94231e-07
-2.80838e-06
9.53573e-07
-2.88098e-06
9.08182e-07
-2.94639e-06
8.58908e-07
-3.00501e-06
8.06445e-07
-3.05721e-06
7.51377e-07
-3.1033e-06
6.94179e-07
-3.14348e-06
6.35154e-07
-3.17797e-06
5.74701e-07
-3.20728e-06
5.13419e-07
-3.23218e-06
4.51425e-07
-3.25277e-06
3.88656e-07
-3.26905e-06
3.25022e-07
-3.28087e-06
2.60366e-07
-3.28842e-06
1.9496e-07
-3.29159e-06
1.28304e-07
-3.29045e-06
6.04223e-08
-3.28507e-06
-9.16959e-09
-3.27558e-06
-7.96032e-08
-3.26194e-06
-1.52205e-07
-3.24404e-06
-2.27076e-07
-3.22169e-06
-3.04511e-07
-3.19477e-06
-3.84742e-07
-3.16304e-06
-4.68146e-07
-3.12617e-06
-5.54815e-07
-3.08369e-06
-6.44737e-07
-3.03489e-06
-7.37755e-07
-2.97905e-06
-8.33416e-07
-2.91502e-06
-9.31108e-07
-2.83982e-06
-1.03024e-06
-2.7496e-06
-1.12887e-06
-2.64077e-06
-1.22412e-06
-2.51196e-06
-1.31041e-06
-2.36392e-06
-1.38253e-06
-2.19863e-06
-1.43617e-06
-2.0166e-06
-1.4677e-06
-1.82012e-06
-1.47354e-06
-1.61252e-06
-1.44927e-06
-1.39784e-06
-1.39294e-06
-1.181e-06
-1.30343e-06
-9.69249e-07
-1.18092e-06
-7.70005e-07
-1.0306e-06
-5.88513e-07
-8.59909e-07
-4.28667e-07
-6.75923e-07
-2.93578e-07
-4.86156e-07
-1.84745e-07
-2.99088e-07
-1.01788e-07
-1.22862e-07
-4.24165e-08
3.56759e-08
-3.46099e-09
1.71274e-07
1.76679e-08
2.80407e-07
2.33403e-08
3.58157e-07
1.65181e-08
3.9577e-07
3.71029e-09
3.72284e-07
2.05329e-07
2.36073e-08
-2.28357e-07
2.39139e-08
-2.96844e-07
4.57466e-09
-2.35774e-07
-2.72026e-08
-1.4855e-07
-6.94011e-08
-5.49296e-08
-1.21961e-07
3.94614e-08
-1.85721e-07
1.32449e-07
-2.61935e-07
2.23163e-07
-3.51943e-07
3.11766e-07
-4.56944e-07
3.993e-07
-5.77741e-07
4.87313e-07
-7.14455e-07
5.77234e-07
-8.66409e-07
6.69866e-07
-1.03182e-06
7.64715e-07
-1.20718e-06
8.59233e-07
-1.38787e-06
9.49625e-07
-1.5686e-06
1.03149e-06
-1.74315e-06
1.10003e-06
-1.90684e-06
1.15206e-06
-2.05752e-06
1.18686e-06
-2.19483e-06
1.20502e-06
-2.31938e-06
1.20849e-06
-2.4322e-06
1.19914e-06
-2.53442e-06
1.17903e-06
-2.62705e-06
1.14982e-06
-2.71096e-06
1.11309e-06
-2.78679e-06
1.07007e-06
-2.85506e-06
1.02184e-06
-2.91618e-06
9.69303e-07
-2.97053e-06
9.13262e-07
-3.01847e-06
8.54382e-07
-3.06035e-06
7.93254e-07
-3.09662e-06
7.30448e-07
-3.12793e-06
6.66465e-07
-3.15477e-06
6.01544e-07
-3.17697e-06
5.35622e-07
-3.19467e-06
4.69119e-07
-3.20786e-06
4.01849e-07
-3.21678e-06
3.33947e-07
-3.22192e-06
2.65505e-07
-3.22357e-06
1.96605e-07
-3.22216e-06
1.269e-07
-3.21798e-06
5.62412e-08
-3.21143e-06
-1.57266e-08
-3.20211e-06
-8.89159e-08
-3.19019e-06
-1.64126e-07
-3.1757e-06
-2.4157e-07
-3.15861e-06
-3.21594e-07
-3.13883e-06
-4.04529e-07
-3.11621e-06
-4.90768e-07
-3.09042e-06
-5.80599e-07
-3.06094e-06
-6.74218e-07
-3.02703e-06
-7.71668e-07
-2.98773e-06
-8.72711e-07
-2.94227e-06
-9.76574e-07
-2.88958e-06
-1.08292e-06
-2.82829e-06
-1.19015e-06
-2.75622e-06
-1.29619e-06
-2.66756e-06
-1.39907e-06
-2.55538e-06
-1.49471e-06
-2.41753e-06
-1.57403e-06
-2.25545e-06
-1.62978e-06
-2.07335e-06
-1.65564e-06
-1.87273e-06
-1.64989e-06
-1.6581e-06
-1.60757e-06
-1.43373e-06
-1.52781e-06
-1.20613e-06
-1.40852e-06
-9.8447e-07
-1.25225e-06
-7.77627e-07
-1.06675e-06
-5.91472e-07
-8.62078e-07
-4.3019e-07
-6.47438e-07
-2.96923e-07
-4.32356e-07
-1.92652e-07
-2.27133e-07
-1.15976e-07
-4.1e-08
-6.34033e-08
1.18701e-07
-3.03473e-08
2.47351e-07
-1.29908e-08
3.40801e-07
-6.47596e-09
3.89255e-07
-5.05466e-09
3.70862e-07
2.00275e-07
1.11799e-08
-2.39537e-07
-6.27961e-09
-2.79384e-07
-4.13046e-08
-2.00749e-07
-8.76888e-08
-1.02166e-07
-1.44033e-07
1.41499e-09
-2.10747e-07
1.06175e-07
-2.8905e-07
2.10753e-07
-3.80226e-07
3.14338e-07
-4.85405e-07
4.16945e-07
-6.05352e-07
5.19247e-07
-7.40221e-07
6.22182e-07
-8.89472e-07
7.26485e-07
-1.05154e-06
8.31933e-07
-1.22306e-06
9.36232e-07
-1.39928e-06
1.03546e-06
-1.57475e-06
1.1251e-06
-1.74377e-06
1.20051e-06
-1.90198e-06
1.25823e-06
-2.04741e-06
1.29749e-06
-2.17961e-06
1.31906e-06
-2.29923e-06
1.32464e-06
-2.40728e-06
1.31654e-06
-2.50485e-06
1.29671e-06
-2.59287e-06
1.26705e-06
-2.67211e-06
1.22906e-06
-2.74314e-06
1.18413e-06
-2.80646e-06
1.13338e-06
-2.86247e-06
1.07785e-06
-2.91159e-06
1.01843e-06
-2.95426e-06
9.55932e-07
-2.99093e-06
8.91049e-07
-3.02206e-06
8.24385e-07
-3.04801e-06
7.56395e-07
-3.069e-06
6.87457e-07
-3.08533e-06
6.1787e-07
-3.09746e-06
5.47754e-07
-3.1058e-06
4.77457e-07
-3.11091e-06
4.06964e-07
-3.11329e-06
3.36326e-07
-3.11324e-06
2.65456e-07
-3.11086e-06
1.94226e-07
-3.10638e-06
1.22421e-07
-3.09998e-06
4.9834e-08
-3.09188e-06
-2.38249e-08
-3.08202e-06
-9.87749e-08
-3.07066e-06
-1.75489e-07
-3.05794e-06
-2.54291e-07
-3.04396e-06
-3.35569e-07
-3.02878e-06
-4.19709e-07
-3.01242e-06
-5.07128e-07
-2.99481e-06
-5.98207e-07
-2.97575e-06
-6.9328e-07
-2.95485e-06
-7.92568e-07
-2.93147e-06
-8.96095e-07
-2.90439e-06
-1.00365e-06
-2.87237e-06
-1.11494e-06
-2.83359e-06
-1.22893e-06
-2.78625e-06
-1.34353e-06
-2.72824e-06
-1.45708e-06
-2.65692e-06
-1.56603e-06
-2.56458e-06
-1.66637e-06
-2.44189e-06
-1.75246e-06
-2.28738e-06
-1.81015e-06
-2.10502e-06
-1.83226e-06
-1.90039e-06
-1.8122e-06
-1.6775e-06
-1.75069e-06
-1.44206e-06
-1.64397e-06
-1.20245e-06
-1.49186e-06
-9.70036e-07
-1.29917e-06
-7.55497e-07
-1.07662e-06
-5.65435e-07
-8.375e-07
-4.04256e-07
-5.93535e-07
-2.74862e-07
-3.56527e-07
-1.77297e-07
-1.38564e-07
-1.0876e-07
5.01635e-08
-6.38643e-08
2.02455e-07
-3.67215e-08
3.13658e-07
-1.99005e-08
3.72434e-07
-9.08475e-09
3.60046e-07
1.9119e-07
-3.04645e-09
-2.3649e-07
-3.7723e-08
-2.44708e-07
-8.83599e-08
-1.50112e-07
-1.49052e-07
-4.14739e-08
-2.19136e-07
7.14987e-08
-2.99636e-07
1.86674e-07
-3.91778e-07
3.02895e-07
-4.96721e-07
4.19282e-07
-6.15234e-07
5.35458e-07
-7.47516e-07
6.51529e-07
-8.93159e-07
7.67825e-07
-1.05088e-06
8.84201e-07
-1.2176e-06
9.98663e-07
-1.38869e-06
1.10732e-06
-1.5588e-06
1.20556e-06
-1.72264e-06
1.28894e-06
-1.87611e-06
1.35397e-06
-2.01706e-06
1.39919e-06
-2.14498e-06
1.42541e-06
-2.26032e-06
1.43439e-06
-2.36412e-06
1.42844e-06
-2.45734e-06
1.40975e-06
-2.54084e-06
1.38021e-06
-2.61528e-06
1.34149e-06
-2.6812e-06
1.29498e-06
-2.73906e-06
1.24199e-06
-2.78932e-06
1.18363e-06
-2.83243e-06
1.12096e-06
-2.86891e-06
1.05491e-06
-2.89929e-06
9.86311e-07
-2.92411e-06
9.15867e-07
-2.94388e-06
8.4416e-07
-2.95913e-06
7.71642e-07
-2.97035e-06
6.98683e-07
-2.97804e-06
6.25561e-07
-2.98274e-06
5.52452e-07
-2.98481e-06
4.79526e-07
-2.9846e-06
4.06755e-07
-2.98238e-06
3.34101e-07
-2.97836e-06
2.61435e-07
-2.97272e-06
1.8859e-07
-2.96565e-06
1.15352e-07
-2.95731e-06
4.1493e-08
-2.94787e-06
-3.32604e-08
-2.93745e-06
-1.09201e-07
-2.92624e-06
-1.86698e-07
-2.91443e-06
-2.66099e-07
-2.9022e-06
-3.47795e-07
-2.88973e-06
-4.32186e-07
-2.87716e-06
-5.19696e-07
-2.86462e-06
-6.10741e-07
-2.85218e-06
-7.05723e-07
-2.83977e-06
-8.04983e-07
-2.82709e-06
-9.0877e-07
-2.81352e-06
-1.01723e-06
-2.79817e-06
-1.13029e-06
-2.77966e-06
-1.24744e-06
-2.75557e-06
-1.36763e-06
-2.72334e-06
-1.4893e-06
-2.68e-06
-1.60938e-06
-2.62221e-06
-1.72416e-06
-2.54566e-06
-1.82902e-06
-2.43862e-06
-1.91718e-06
-2.29342e-06
-1.97745e-06
-2.11179e-06
-1.99384e-06
-1.90229e-06
-1.96019e-06
-1.66962e-06
-1.87663e-06
-1.42176e-06
-1.73972e-06
-1.16927e-06
-1.55166e-06
-9.26009e-07
-1.31987e-06
-7.04648e-07
-1.05886e-06
-5.12512e-07
-7.85671e-07
-3.53994e-07
-5.15045e-07
-2.31282e-07
-2.61277e-07
-1.42939e-07
-3.818e-08
-8.40791e-08
1.43596e-07
-4.73391e-08
2.76918e-07
-2.37652e-08
3.4886e-07
-8.46993e-09
3.44751e-07
1.8272e-07
-1.82676e-08
-2.18223e-07
-6.97182e-08
-1.93257e-07
-1.34967e-07
-8.48635e-08
-2.09211e-07
3.27704e-08
-2.92427e-07
1.54715e-07
-3.8579e-07
2.80037e-07
-4.9052e-07
4.07624e-07
-6.07482e-07
5.36245e-07
-7.3698e-07
6.64955e-07
-8.78728e-07
7.93277e-07
-1.0317e-06
9.20795e-07
-1.19323e-06
1.04573e-06
-1.35898e-06
1.16441e-06
-1.52385e-06
1.27219e-06
-1.68298e-06
1.3647e-06
-1.83242e-06
1.43839e-06
-1.96967e-06
1.49122e-06
-2.09399e-06
1.5235e-06
-2.20573e-06
1.53716e-06
-2.30576e-06
1.53443e-06
-2.39501e-06
1.51769e-06
-2.47422e-06
1.48896e-06
-2.54401e-06
1.45e-06
-2.60488e-06
1.40235e-06
-2.65732e-06
1.34743e-06
-2.70186e-06
1.28653e-06
-2.73907e-06
1.22084e-06
-2.7696e-06
1.15149e-06
-2.79411e-06
1.07942e-06
-2.81329e-06
1.00549e-06
-2.82779e-06
9.30367e-07
-2.83823e-06
8.54604e-07
-2.84521e-06
7.78615e-07
-2.84924e-06
7.02715e-07
-2.85078e-06
6.27104e-07
-2.85023e-06
5.51902e-07
-2.84786e-06
4.77158e-07
-2.84391e-06
4.02803e-07
-2.83856e-06
3.28745e-07
-2.83195e-06
2.54833e-07
-2.82425e-06
1.80884e-07
-2.81558e-06
1.06684e-07
-2.80608e-06
3.19931e-08
-2.79589e-06
-4.34531e-08
-2.78514e-06
-1.19947e-07
-2.77402e-06
-1.97817e-07
-2.76272e-06
-2.774e-07
-2.75145e-06
-3.59063e-07
-2.74045e-06
-4.43195e-07
-2.72994e-06
-5.30203e-07
-2.72017e-06
-6.2051e-07
-2.71135e-06
-7.14538e-07
-2.70364e-06
-8.12694e-07
-2.69707e-06
-9.15348e-07
-2.69148e-06
-1.02282e-06
-2.6865e-06
-1.13527e-06
-2.6813e-06
-1.25264e-06
-2.67441e-06
-1.37452e-06
-2.66373e-06
-1.49998e-06
-2.64594e-06
-1.62717e-06
-2.61684e-06
-1.75326e-06
-2.57237e-06
-1.87349e-06
-2.50708e-06
-1.98247e-06
-2.41267e-06
-2.07187e-06
-2.27515e-06
-2.13135e-06
-2.09417e-06
-2.14117e-06
-1.87816e-06
-2.09265e-06
-1.63407e-06
-1.9838e-06
-1.37258e-06
-1.81316e-06
-1.10695e-06
-1.5855e-06
-8.53875e-07
-1.31194e-06
-6.27964e-07
-1.01158e-06
-4.36972e-07
-7.06038e-07
-2.84873e-07
-4.13375e-07
-1.72325e-07
-1.50728e-07
-9.58175e-08
6.70884e-08
-4.79717e-08
2.29072e-07
-1.96835e-08
3.20572e-07
-4.21295e-09
3.29281e-07
1.78507e-07
-3.34949e-08
-1.84728e-07
-1.00526e-07
-1.26226e-07
-1.7948e-07
-5.90946e-09
-2.66348e-07
1.19639e-07
-3.61658e-07
2.50025e-07
-4.66617e-07
3.84996e-07
-5.82286e-07
5.23292e-07
-7.09171e-07
6.6313e-07
-8.4715e-07
8.02934e-07
-9.9542e-07
9.41548e-07
-1.15173e-06
1.0771e-06
-1.3122e-06
1.20621e-06
-1.47217e-06
1.32437e-06
-1.62709e-06
1.42711e-06
-1.77313e-06
1.51074e-06
-1.90748e-06
1.57274e-06
-2.02897e-06
1.6127e-06
-2.13781e-06
1.63234e-06
-2.2347e-06
1.63405e-06
-2.3205e-06
1.62022e-06
-2.39589e-06
1.59309e-06
-2.46146e-06
1.55453e-06
-2.51772e-06
1.50626e-06
-2.56522e-06
1.44986e-06
-2.6046e-06
1.3868e-06
-2.63655e-06
1.31848e-06
-2.66188e-06
1.24617e-06
-2.68138e-06
1.17099e-06
-2.69587e-06
1.09391e-06
-2.70609e-06
1.01571e-06
-2.71274e-06
9.37017e-07
-2.71643e-06
8.58292e-07
-2.71768e-06
7.79866e-07
-2.71692e-06
7.0196e-07
-2.71451e-06
6.24688e-07
-2.71069e-06
5.48088e-07
-2.70567e-06
4.72132e-07
-2.69958e-06
3.96714e-07
-2.69254e-06
3.21703e-07
-2.68464e-06
2.46936e-07
-2.67597e-06
1.72219e-07
-2.66663e-06
9.73383e-08
-2.6567e-06
2.20614e-08
-2.64628e-06
-5.38666e-08
-2.63551e-06
-1.30716e-07
-2.62455e-06
-2.08783e-07
-2.61357e-06
-2.88375e-07
-2.60281e-06
-3.69828e-07
-2.59251e-06
-4.53495e-07
-2.58295e-06
-5.39756e-07
-2.57445e-06
-6.29011e-07
-2.56731e-06
-7.21679e-07
-2.56182e-06
-8.18189e-07
-2.5582e-06
-9.1897e-07
-2.55658e-06
-1.02443e-06
-2.55694e-06
-1.13491e-06
-2.55896e-06
-1.25062e-06
-2.56193e-06
-1.37155e-06
-2.56457e-06
-1.49734e-06
-2.56468e-06
-1.62706e-06
-2.55899e-06
-1.75895e-06
-2.54257e-06
-1.88991e-06
-2.5098e-06
-2.01523e-06
-2.45445e-06
-2.12722e-06
-2.36762e-06
-2.21818e-06
-2.23508e-06
-2.27371e-06
-2.05278e-06
-2.27495e-06
-1.82808e-06
-2.20851e-06
-1.57081e-06
-2.07043e-06
-1.29489e-06
-1.86141e-06
-1.01689e-06
-1.58994e-06
-7.56617e-07
-1.27185e-06
-5.30265e-07
-9.3239e-07
-3.45353e-07
-5.98287e-07
-2.04676e-07
-2.91406e-07
-1.06611e-07
-3.09758e-08
-4.509e-08
1.67551e-07
-1.17271e-08
2.87209e-07
1.94174e-09
3.15612e-07
1.80449e-07
-4.80135e-08
-1.36714e-07
-1.29218e-07
-4.50218e-08
-2.20489e-07
8.53618e-08
-3.18884e-07
2.18034e-07
-4.24961e-07
3.56101e-07
-5.3994e-07
4.99975e-07
-6.64649e-07
6.48001e-07
-7.99246e-07
7.97728e-07
-9.43151e-07
9.46838e-07
-1.09449e-06
1.09289e-06
-1.24996e-06
1.23257e-06
-1.40544e-06
1.36169e-06
-1.55666e-06
1.4756e-06
-1.69989e-06
1.57034e-06
-1.8321e-06
1.64295e-06
-1.95162e-06
1.69227e-06
-2.05834e-06
1.71943e-06
-2.15286e-06
1.72686e-06
-2.23591e-06
1.7171e-06
-2.30817e-06
1.69248e-06
-2.37022e-06
1.65513e-06
-2.4226e-06
1.60691e-06
-2.46595e-06
1.54961e-06
-2.501e-06
1.48491e-06
-2.5286e-06
1.41441e-06
-2.54968e-06
1.33956e-06
-2.56517e-06
1.26166e-06
-2.57597e-06
1.18179e-06
-2.58291e-06
1.10085e-06
-2.58673e-06
1.01953e-06
-2.58805e-06
9.38335e-07
-2.58738e-06
8.57623e-07
-2.58514e-06
7.77619e-07
-2.58162e-06
6.98446e-07
-2.57707e-06
6.20133e-07
-2.57163e-06
5.4265e-07
-2.56541e-06
4.65911e-07
-2.55848e-06
3.89786e-07
-2.55089e-06
3.14118e-07
-2.54268e-06
2.38726e-07
-2.53389e-06
1.63424e-07
-2.52455e-06
8.80017e-08
-2.51473e-06
1.22399e-08
-2.5045e-06
-6.41025e-08
-2.49395e-06
-1.41262e-07
-2.48323e-06
-2.19502e-07
-2.47251e-06
-2.99095e-07
-2.462e-06
-3.80334e-07
-2.45197e-06
-4.63531e-07
-2.4427e-06
-5.49023e-07
-2.43454e-06
-6.37173e-07
-2.42785e-06
-7.28372e-07
-2.423e-06
-8.23039e-07
-2.42034e-06
-9.21623e-07
-2.42019e-06
-1.02458e-06
-2.42275e-06
-1.13236e-06
-2.42801e-06
-1.24535e-06
-2.43573e-06
-1.36383e-06
-2.44524e-06
-1.48784e-06
-2.45524e-06
-1.61706e-06
-2.46363e-06
-1.75056e-06
-2.46703e-06
-1.88651e-06
-2.46059e-06
-2.02168e-06
-2.43698e-06
-2.15083e-06
-2.38906e-06
-2.2661e-06
-2.30642e-06
-2.35635e-06
-2.17489e-06
-2.40647e-06
-1.98815e-06
-2.39525e-06
-1.75217e-06
-2.30642e-06
-1.48017e-06
-2.13341e-06
-1.18982e-06
-1.88029e-06
-9.01683e-07
-1.55999e-06
-6.3905e-07
-1.19502e-06
-4.18606e-07
-8.18731e-07
-2.46687e-07
-4.63325e-07
-1.23835e-07
-1.53828e-07
-4.56247e-08
8.93403e-08
-5.00172e-09
2.46586e-07
7.48752e-09
3.03122e-07
1.87936e-07
-6.12352e-08
-7.54789e-08
-1.54819e-07
4.85621e-08
-2.57163e-07
1.87706e-07
-3.65607e-07
3.26477e-07
-4.80883e-07
4.71377e-07
-6.04103e-07
6.23196e-07
-7.35856e-07
7.79754e-07
-8.75878e-07
9.3775e-07
-1.02268e-06
1.09364e-06
-1.17352e-06
1.24372e-06
-1.32496e-06
1.38401e-06
-1.473e-06
1.50973e-06
-1.61396e-06
1.61656e-06
-1.74471e-06
1.70109e-06
-1.86314e-06
1.76138e-06
-1.96866e-06
1.79779e-06
-2.06168e-06
1.81244e-06
-2.14286e-06
1.80804e-06
-2.21285e-06
1.78709e-06
-2.27225e-06
1.75189e-06
-2.32167e-06
1.70455e-06
-2.36181e-06
1.64705e-06
-2.39352e-06
1.58132e-06
-2.41777e-06
1.50916e-06
-2.4356e-06
1.43224e-06
-2.44806e-06
1.35202e-06
-2.45613e-06
1.26973e-06
-2.4607e-06
1.18636e-06
-2.46253e-06
1.10269e-06
-2.46227e-06
1.01927e-06
-2.46041e-06
9.36478e-07
-2.45735e-06
8.54559e-07
-2.45336e-06
7.73633e-07
-2.44865e-06
6.93731e-07
-2.44333e-06
6.14814e-07
-2.43748e-06
5.36795e-07
-2.43111e-06
4.5955e-07
-2.42426e-06
3.82931e-07
-2.41691e-06
3.06766e-07
-2.40905e-06
2.30866e-07
-2.40067e-06
1.5505e-07
-2.3918e-06
7.91239e-08
-2.38244e-06
2.88815e-09
-2.37266e-06
-7.38881e-08
-2.36252e-06
-1.51398e-07
-2.35215e-06
-2.29874e-07
-2.34169e-06
-3.09551e-07
-2.33135e-06
-3.90677e-07
-2.32136e-06
-4.73517e-07
-2.31203e-06
-5.5836e-07
-2.30368e-06
-6.45519e-07
-2.29671e-06
-7.35344e-07
-2.29153e-06
-8.28219e-07
-2.28858e-06
-9.24575e-07
-2.28827e-06
-1.02488e-06
-2.29099e-06
-1.12964e-06
-2.29698e-06
-1.23936e-06
-2.30629e-06
-1.35451e-06