/*--------------------------------*- C++ -*----------------------------------*\
  =========                 |
  \\      /  F ield         | OpenFOAM: The Open Source CFD Toolbox
   \\    /   O peration     | Website:  https://openfoam.org
    \\  /    A nd           | Version:  13
     \\/     M anipulation  |
\*---------------------------------------------------------------------------*/
FoamFile
{
    format      ascii;
    class       volScalarField;
    location    "6.1";
    object      k;
}
// * * * * * * * * * * * * * * * * * * * * * * * * * * * * * * * * * * * * * //

dimensions      [0 2 -2 0 0 0 0];

internalField   nonuniform List<scalar> 
6400
(
5.01582e-07
2.57571e-06
6.24449e-06
1.00759e-05
1.29848e-05
1.46282e-05
1.52281e-05
1.52783e-05
1.53472e-05
1.58815e-05
1.72153e-05
1.98861e-05
2.41572e-05
3.01301e-05
3.75228e-05
4.5936e-05
5.49541e-05
6.43758e-05
7.3817e-05
8.29884e-05
9.21425e-05
0.000102017
0.000113638
0.000127758
0.000143992
0.000160732
0.000177313
0.000193733
0.000210447
0.000227917
0.000246022
0.000264026
0.00028174
0.000299057
0.000316511
0.000334184
0.000352487
0.000371544
0.000391612
0.000412777
0.000435189
0.000459014
0.000484399
0.000511684
0.000541006
0.00057324
0.000609982
0.000654713
0.000703749
0.000752054
0.000800707
0.00084772
0.000892535
0.000933423
0.000969156
0.000997883
0.00101457
0.00102179
0.00102296
0.00100679
0.0009751
0.000928042
0.000866271
0.000791448
0.000706041
0.000613605
0.000519106
0.000426338
0.000338871
0.000260041
0.000196501
0.000143125
9.991e-05
6.67601e-05
4.28691e-05
2.65797e-05
1.59535e-05
9.12006e-06
4.29582e-06
9.12966e-07
2.42984e-06
2.04676e-05
4.96754e-05
7.7935e-05
9.89844e-05
0.000111573
0.000117532
0.000119841
0.000121859
0.000126421
0.000136747
0.000156765
0.000187614
0.000228876
0.000278694
0.000334531
0.000394149
0.000455348
0.000516282
0.000576075
0.00063624
0.000700812
0.000775084
0.000862279
0.00095958
0.00105877
0.00115543
0.00124769
0.00133626
0.00142214
0.00150395
0.00157994
0.00164937
0.00171223
0.0017713
0.0018272
0.00188209
0.00193676
0.0019926
0.00205022
0.00211035
0.00217363
0.00224031
0.00231076
0.00238435
0.00246097
0.00253954
0.00261708
0.00269744
0.00278178
0.00286837
0.00295499
0.00303967
0.00311913
0.00319002
0.00324821
0.00328307
0.00329597
0.00329207
0.00325566
0.00318214
0.00307092
0.00292042
0.00273261
0.00251236
0.00226687
0.00200814
0.0017447
0.00148421
0.00123308
0.000992687
0.000773432
0.00058232
0.000422061
0.000293934
0.000195937
0.000124812
7.49e-05
3.61805e-05
4.83011e-06
5.32319e-06
4.4575e-05
0.000104064
0.00015458
0.000189155
0.000209503
0.000220517
0.000227769
0.000236937
0.000253636
0.000283462
0.000331186
0.000398701
0.000484496
0.00058482
0.000695629
0.000813807
0.00093683
0.00106219
0.00118767
0.00131154
0.00143295
0.00155001
0.00165811
0.00175232
0.0018287
0.00188441
0.00192284
0.00195175
0.00197786
0.0020059
0.0020359
0.00206885
0.00210138
0.00213746
0.00217602
0.00221894
0.00226609
0.00231843
0.00237611
0.00243903
0.0025076
0.00258159
0.00266088
0.00274553
0.00283538
0.00292971
0.00302966
0.00313515
0.00324514
0.00335828
0.00347279
0.00358648
0.00369631
0.00379861
0.00388883
0.00396173
0.00400686
0.00402325
0.00401408
0.00396175
0.0038651
0.00371944
0.00352587
0.00328668
0.0030074
0.00270524
0.00238924
0.00206975
0.00175761
0.00146197
0.00118975
0.000946265
0.000734063
0.000554261
0.000406097
0.000286341
0.000187527
9.50353e-05
1.28953e-05
9.25535e-06
7.51504e-05
0.000164521
0.000232433
0.000276973
0.000304369
0.0003225
0.000339374
0.000362947
0.000401081
0.000460974
0.00054727
0.000660111
0.000795166
0.000945907
0.00110603
0.00127005
0.00143261
0.00158782
0.00172988
0.0018531
0.00195501
0.00203325
0.00208106
0.00210205
0.0021074
0.00210252
0.00209805
0.00209661
0.00209965
0.00210909
0.00212146
0.00213905
0.00216112
0.00218865
0.002221
0.0022589
0.00230222
0.00235098
0.00240534
0.00246544
0.00253145
0.00260335
0.00268106
0.00276433
0.00285301
0.00294849
0.00305041
0.0031585
0.00327211
0.00339018
0.00351132
0.00363359
0.00375433
0.00387016
0.00397685
0.00406913
0.00414143
0.00418026
0.00419177
0.00416604
0.00409657
0.0039815
0.00382068
0.00360695
0.00333976
0.0030357
0.00270464
0.00236261
0.00202423
0.00170196
0.00140504
0.001139
0.000906164
0.000706733
0.000539198
0.000399191
0.000277192
0.000150451
2.13871e-05
1.48586e-05
0.000116172
0.000236421
0.000320989
0.000375604
0.000411401
0.000439564
0.000470886
0.000515821
0.000584112
0.000683044
0.000814899
0.000975661
0.00115658
0.00134729
0.001538
0.00171968
0.00188364
0.00202071
0.00212623
0.00219021
0.00221633
0.00221992
0.00219231
0.0021618
0.00213425
0.002112
0.00209604
0.00208797
0.00208489
0.00208489
0.00209065
0.00210094
0.00211543
0.00213421
0.00215696
0.00218371
0.00221412
0.00224808
0.00228579
0.00232729
0.0023729
0.00242349
0.00247959
0.0025421
0.00261165
0.00268753
0.00277042
0.00286047
0.00295787
0.00306256
0.0031741
0.00329165
0.00341382
0.00353861
0.00366334
0.00378332
0.00389339
0.00398704
0.00405042
0.00407616
0.00406985
0.00400428
0.00388445
0.0037146
0.00349263
0.00320937
0.00288452
0.00253524
0.00218029
0.00183725
0.00152007
0.00123719
0.000991709
0.000783068
0.000608311
0.000461627
0.000330947
0.00018769
2.71803e-05
2.28679e-05
0.000170868
0.000324009
0.000426038
0.00049212
0.00053857
0.000580281
0.000631129
0.000703814
0.000808497
0.000950119
0.00112608
0.00132661
0.00153782
0.00174506
0.00193478
0.00209511
0.00221829
0.00228732
0.00231134
0.00230383
0.00226036
0.00221681
0.00217393
0.00213306
0.00209739
0.00206788
0.00204385
0.00202487
0.00200943
0.0019969
0.0019897
0.00198611
0.0019849
0.00198567
0.00198984
0.00199621
0.00200527
0.00201699
0.0020318
0.00204999
0.00207213
0.00209792
0.00212806
0.00216295
0.00220319
0.00224937
0.00230253
0.00236366
0.0024338
0.0025141
0.00260547
0.00270855
0.0028235
0.00294954
0.00308485
0.00322767
0.00337342
0.00351701
0.00364928
0.00376151
0.00382994
0.00385389
0.00382619
0.00373055
0.00357373
0.00333842
0.00303875
0.00269212
0.00232192
0.00195285
0.00160678
0.00129875
0.00103527
0.000815749
0.000635259
0.000485564
0.000352067
0.000203774
2.92242e-05
3.40051e-05
0.000241179
0.000429631
0.000550431
0.00062967
0.000689228
0.000747974
0.000822642
0.000926964
0.00106922
0.00124941
0.00145842
0.00168034
0.00189653
0.0020892
0.00224326
0.00234046
0.00237902
0.00238086
0.00233547
0.00228433
0.0022223
0.00216222
0.00210091
0.00204682
0.00200002
0.00195929
0.00192315
0.00189124
0.00186378
0.00184021
0.00181961
0.00180131
0.00178511
0.0017711
0.00175945
0.00174992
0.00174278
0.00173846
0.00173662
0.00173633
0.00173953
0.00174548
0.00175487
0.00176794
0.00178514
0.00180712
0.00183463
0.0018689
0.00191115
0.00196296
0.0020265
0.002104
0.00219786
0.00231011
0.0024406
0.00259048
0.00275831
0.00293879
0.00312519
0.00330942
0.00347796
0.00361087
0.0036742
0.00368578
0.00361307
0.00347359
0.0032255
0.00289795
0.00251727
0.00211559
0.00172578
0.00137462
0.0010771
0.000835292
0.000642651
0.000486874
0.000350606
0.000202531
2.83475e-05
4.89466e-05
0.000328183
0.000554022
0.000694954
0.000788957
0.000863726
0.000941977
0.00104241
0.00117784
0.00135225
0.00155899
0.00178211
0.00200038
0.00219207
0.00233955
0.00241585
0.00243793
0.00241232
0.00235948
0.00228667
0.0022047
0.00211746
0.00204005
0.00197044
0.00191159
0.001858
0.00180976
0.00176564
0.00172557
0.00168916
0.00165598
0.00162571
0.00159826
0.00157365
0.00155194
0.00153302
0.0015167
0.00150304
0.00149197
0.00148345
0.00147761
0.00147486
0.00147405
0.00147601
0.00148156
0.0014903
0.00150299
0.00152001
0.0015417
0.0015687
0.00160181
0.0016421
0.00169096
0.00175049
0.00182405
0.00191772
0.00203672
0.00218544
0.00236664
0.00257218
0.00279845
0.00303327
0.00326014
0.00345811
0.00357559
0.00361507
0.00357265
0.00343951
0.00316492
0.00279578
0.0023679
0.00192505
0.00151029
0.00115481
0.000870814
0.000652554
0.000483663
0.000342356
0.000195823
2.63301e-05
6.81823e-05
0.000431778
0.000696696
0.000858856
0.000968764
0.0010598
0.00115795
0.00128247
0.00144322
0.00163818
0.00185369
0.00206806
0.00225705
0.00239546
0.00245935
0.00247075
0.00243113
0.0023675
0.00227389
0.00216464
0.00206245
0.00197242
0.00189262
0.00182127
0.00175769
0.00169894
0.00164538
0.00159626
0.0015517
0.00151146
0.00147546
0.00144361
0.00141587
0.00139202
0.00137186
0.00135518
0.00134173
0.0013313
0.00132358
0.00131872
0.00131651
0.00131593
0.00131764
0.00132213
0.00132908
0.00133854
0.00135074
0.00136582
0.00138404
0.00140571
0.00143124
0.00146114
0.00149609
0.00153695
0.00158498
0.00164216
0.00171173
0.001799
0.00191409
0.00207661
0.00228759
0.00254131
0.00281742
0.00310094
0.00336122
0.00353338
0.00359836
0.00358537
0.00345001
0.00313797
0.00271511
0.00222999
0.0017417
0.0013037
0.000948682
0.000681976
0.00048643
0.000330616
0.000182718
2.41224e-05
9.19284e-05
0.000550599
0.00085589
0.00104004
0.00116612
0.00127278
0.00138838
0.00153126
0.0017068
0.00190643
0.00211041
0.00229361
0.00242532
0.00248265
0.00248908
0.00244648
0.00236575
0.00224908
0.00212343
0.00200958
0.00190747
0.00181754
0.00173688
0.00166403
0.00159795
0.0015376
0.00148339
0.00143503
0.00139267
0.0013561
0.00132516
0.0012995
0.00127872
0.00126235
0.00124986
0.00124074
0.0012345
0.00123129
0.00123004
0.00122996
0.00123243
0.00123624
0.00124191
0.00124926
0.00125834
0.0012692
0.00128201
0.00129692
0.00131418
0.00133403
0.00135669
0.00138237
0.00141136
0.00144403
0.0014808
0.00152209
0.00156917
0.00162427
0.0016917
0.00177954
0.00190091
0.0020821
0.00234066
0.00265108
0.00298442
0.00330606
0.00353453
0.00362468
0.00362769
0.00348007
0.00311927
0.00263131
0.00208424
0.00155325
0.00110021
0.000753581
0.000507384
0.000328906
0.000171826
2.24075e-05
0.000120474
0.00068123
0.00102863
0.00123511
0.00137638
0.00149592
0.00162361
0.00177564
0.00195227
0.00213899
0.002312
0.00243835
0.00249241
0.0024968
0.00245389
0.00235936
0.00222585
0.00208913
0.00196185
0.0018497
0.00174993
0.0016613
0.00158148
0.00150977
0.00144571
0.00138918
0.00134043
0.00129918
0.0012652
0.0012379
0.00121664
0.00120063
0.00118907
0.00118117
0.00117652
0.00117438
0.00117376
0.00117475
0.00117739
0.00118111
0.00118627
0.00119251
0.00120011
0.00120903
0.00121943
0.00123144
0.00124523
0.00126096
0.00127877
0.00129879
0.00132112
0.00134587
0.00137313
0.00140303
0.00143579
0.00147175
0.00151053
0.00155272
0.00159948
0.00165369
0.0017223
0.00181789
0.00196201
0.0021943
0.0025269
0.00289905
0.00328375
0.00356308
0.00367429
0.00367987
0.00350671
0.00308105
0.0025202
0.00191265
0.00134968
0.000895483
0.000565999
0.0003419
0.000170695
2.20616e-05
0.000155474
0.000818907
0.00121141
0.00143956
0.00159357
0.00172126
0.00185322
0.00200294
0.00216583
0.00232299
0.00244299
0.00249538
0.00249955
0.00245732
0.00235457
0.00221022
0.00206273
0.0019242
0.0018009
0.00169275
0.00159668
0.00151146
0.00143583
0.00136971
0.00131295
0.00126547
0.00122693
0.00119655
0.00117346
0.00115654
0.0011447
0.00113689
0.00113245
0.00113041
0.0011298
0.00113031
0.00113219
0.00113495
0.00113861
0.00114313
0.00114866
0.00115523
0.00116307
0.00117231
0.00118315
0.00119578
0.00121042
0.00122724
0.00124642
0.00126807
0.00129228
0.00131905
0.0013483
0.00137984
0.0014134
0.00144872
0.00148567
0.00152448
0.00156515
0.00160749
0.00165381
0.00170977
0.00178661
0.0019054
0.00210269
0.0024357
0.00284667
0.00328871
0.00360846
0.00373082
0.00372974
0.0035022
0.00299757
0.00235946
0.00170158
0.00112537
0.000686443
0.000384983
0.000179888
2.31124e-05
0.000194558
0.000964174
0.00140031
0.00164812
0.0018111
0.00194062
0.00206754
0.00220274
0.00233786
0.00244791
0.00249824
0.00250297
0.00246161
0.00235659
0.002206
0.00204738
0.00189793
0.00176399
0.00164687
0.00154432
0.00145414
0.00137566
0.00130834
0.00125211
0.0012065
0.00117078
0.0011438
0.0011242
0.00111056
0.00110151
0.00109585
0.0010928
0.00109141
0.00109096
0.00109098
0.00109194
0.00109345
0.00109556
0.00109838
0.00110203
0.0011067
0.00111258
0.00111988
0.00112881
0.0011396
0.00115246
0.00116764
0.00118533
0.00120575
0.00122907
0.00125542
0.00128487
0.00131735
0.00135266
0.0013904
0.00142995
0.00147054
0.0015114
0.00155207
0.00159285
0.00163345
0.00167504
0.00172247
0.00178615
0.00188798
0.0020669
0.00238106
0.00282589
0.00331761
0.00366422
0.00378858
0.00375375
0.00344248
0.00284305
0.00213176
0.00144397
0.000879987
0.00047751
0.000209556
2.70346e-05
0.000236571
0.00111349
0.00159059
0.00185515
0.00202238
0.00214658
0.00225875
0.00236786
0.00246212
0.00250764
0.00251234
0.00247069
0.00236765
0.00221417
0.00204627
0.00188495
0.0017402
0.00161371
0.00150422
0.00140941
0.00132805
0.00125973
0.0012039
0.00115986
0.00112637
0.0011019
0.00108468
0.001073
0.00106533
0.00106038
0.00105719
0.00105506
0.00105347
0.0010522
0.00105126
0.00105083
0.00105072
0.00105122
0.00105255
0.00105492
0.00105849
0.0010635
0.00107014
0.00107863
0.00108918
0.00110202
0.00111737
0.00113547
0.00115656
0.00118088
0.00120865
0.00124005
0.00127518
0.00131398
0.00135619
0.00140126
0.00144827
0.00149595
0.00154279
0.00158741
0.00162937
0.00166882
0.00170738
0.00174869
0.00180355
0.00189492
0.00206099
0.0023646
0.00283755
0.00337268
0.00372131
0.00382865
0.00373401
0.00329967
0.00259653
0.00182888
0.00114291
0.000623752
0.000270981
3.59586e-05
0.000280153
0.00126295
0.00177732
0.00205513
0.00222146
0.00233313
0.00242155
0.00249481
0.00253084
0.00253334
0.00248869
0.00238971
0.00223609
0.00206101
0.0018878
0.0017308
0.00159413
0.00147673
0.00137659
0.00129196
0.001222
0.00116597
0.00112266
0.0010905
0.00106746
0.0010515
0.00104064
0.00103321
0.00102791
0.00102378
0.00102023
0.00101691
0.00101367
0.00101056
0.00100774
0.00100534
0.00100363
0.00100287
0.00100274
0.00100402
0.0010068
0.00101115
0.00101731
0.00102544
0.00103574
0.0010484
0.00106363
0.00108168
0.00110281
0.0011273
0.00115545
0.00118757
0.00122392
0.00126469
0.0013099
0.00135932
0.00141231
0.00146771
0.00152375
0.0015781
0.00162829
0.00167261
0.0017109
0.00174403
0.00178192
0.00183226
0.00191788
0.00207831
0.00238383
0.00288477
0.0034565
0.00376808
0.00383692
0.00365079
0.00304789
0.00224798
0.00145716
0.000815244
0.000358727
4.94425e-05
0.000323927
0.00140871
0.00195591
0.00224319
0.00240334
0.0024961
0.00255209
0.00257596
0.00257131
0.00252047
0.0024252
0.00227322
0.00209305
0.0019085
0.00173784
0.00158904
0.00146231
0.00135544
0.00126645
0.00119386
0.00113655
0.00109297
0.00106105
0.00103847
0.0010228
0.00101189
0.00100397
0.000997707
0.000992204
0.000986935
0.000981659
0.000976341
0.000971081
0.000966066
0.000961504
0.000957608
0.000954589
0.00095289
0.000952252
0.000952645
0.00095507
0.000959084
0.000965
0.000972914
0.000982995
0.000995409
0.00101035
0.00102805
0.00104875
0.00107276
0.00110043
0.00113214
0.00116829
0.00120927
0.0012554
0.00130685
0.00136347
0.00142461
0.00148894
0.00155422
0.00161727
0.00167428
0.00172284
0.00176238
0.00178627
0.00181907
0.00186912
0.00195258
0.00211526
0.00243869
0.00297885
0.00354778
0.00379946
0.00380686
0.00344152
0.00267207
0.00180378
0.00104052
0.000466126
6.63944e-05
0.000367014
0.00154664
0.00212256
0.00241598
0.00256361
0.00262793
0.00264567
0.00262878
0.00257059
0.00247738
0.00232729
0.00214382
0.00194893
0.00176359
0.0016002
0.00146173
0.00134622
0.00125114
0.00117452
0.00111463
0.00106954
0.00103683
0.00101377
0.000997652
0.000986109
0.000977256
0.000969736
0.000962691
0.000955662
0.000948486
0.000941203
0.000933969
0.000927005
0.000920544
0.000914811
0.00091001
0.000906324
0.000904201
0.000903371
0.000903415
0.000905753
0.00090969
0.000915524
0.000923332
0.000933247
0.000945411
0.000959993
0.000977193
0.000997252
0.00102046
0.00104716
0.00107776
0.00111274
0.00115261
0.00119792
0.00124915
0.00130663
0.00137036
0.00143975
0.00151333
0.00158844
0.00166102
0.00172578
0.00177942
0.00181778
0.00183497
0.00186113
0.00191169
0.00199661
0.00216975
0.00252561
0.0031139
0.00363863
0.00382614
0.0036896
0.00307248
0.0021698
0.00129134
0.000587185
8.57609e-05
0.000408588
0.00167509
0.00227432
0.00256688
0.00269541
0.00273129
0.0027147
0.00265091
0.00254859
0.00240068
0.0022149
0.00201094
0.00181048
0.00163005
0.00147663
0.00134972
0.00124634
0.00116378
0.00109975
0.00105183
0.00101722
0.000992828
0.000975645
0.000963059
0.000953035
0.000944168
0.000935599
0.000926914
0.000918007
0.000908972
0.000900008
0.00089136
0.000883274
0.000875974
0.000869657
0.000864486
0.0008606
0.000858416
0.000857573
0.000857637
0.000860015
0.000863996
0.000869823
0.000877569
0.000887341
0.000899263
0.000913481
0.00093017
0.000949545
0.000971868
0.000997461
0.00102672
0.00106011
0.00109821
0.00114165
0.00119114
0.00124735
0.00131082
0.00138171
0.00145951
0.00154264
0.00162799
0.00171051
0.00178327
0.00184168
0.00187421
0.00188693
0.00190679
0.00195869
0.00204944
0.00224365
0.00265578
0.00328984
0.00369664
0.00377709
0.00342229
0.00254484
0.00156397
0.000718248
0.000106654
0.000447024
0.00179089
0.00240595
0.0026926
0.00279976
0.00281236
0.00275476
0.00264472
0.00249783
0.00230833
0.00209641
0.00188107
0.00168162
0.00150963
0.00136764
0.00125299
0.00116214
0.00109205
0.00103975
0.00100204
0.000975464
0.000956651
0.000942702
0.000931386
0.000921183
0.000911201
0.000901033
0.000890606
0.00088005
0.000869595
0.000859502
0.000850021
0.000841372
0.000833737
0.000827263
0.000822064
0.000818235
0.000816159
0.000815382
0.000815602
0.000818033
0.000822061
0.000827869
0.000835535
0.00084515
0.000856826
0.000870692
0.000886905
0.000905652
0.000927164
0.000951725
0.00097969
0.0010115
0.00104769
0.00108893
0.00113599
0.00118975
0.00125107
0.00132073
0.00139908
0.00148569
0.00157884
0.00167486
0.00176768
0.00184859
0.00190751
0.0019323
0.00194076
0.00195506
0.00200977
0.00211189
0.00234451
0.00284382
0.00347239
0.00373974
0.00362623
0.0029061
0.00185394
0.000856458
0.000128314
0.000480893
0.00189108
0.00251537
0.0027932
0.00288137
0.00286835
0.00277008
0.00262077
0.00242757
0.00220742
0.0019779
0.00175829
0.0015643
0.0014028
0.00127295
0.00117077
0.00109223
0.00103371
0.000991511
0.000961761
0.000940707
0.000925083
0.00091238
0.000900897
0.000889644
0.000878185
0.000866451
0.000854591
0.000842853
0.000831511
0.000820815
0.000810978
0.000802168
0.000794514
0.000788112
0.000783036
0.000779346
0.000777394
0.000776684
0.000777026
0.000779449
0.000783454
0.000789175
0.000796699
0.000806112
0.000817518
0.000831038
0.000846813
0.00086501
0.00088583
0.000909522
0.000936391
0.000966824
0.00100131
0.00104046
0.00108504
0.00113596
0.00119428
0.00126112
0.00133747
0.00142389
0.00151997
0.00162369
0.00173058
0.00183315
0.00192075
0.00197616
0.00199156
0.00199503
0.00200553
0.00206448
0.00218949
0.00249164
0.00308567
0.00358168
0.0036929
0.0032345
0.0021559
0.000996763
0.000151063
0.000509385
0.00197441
0.00260201
0.00286928
0.00294205
0.00290008
0.00276386
0.00257387
0.00234682
0.00210347
0.00186351
0.00164486
0.00145919
0.00130921
0.00119168
0.00110168
0.00103462
0.000986198
0.00095206
0.000927995
0.000910297
0.000896074
0.00088335
0.000870966
0.000858399
0.000845554
0.00083258
0.000819735
0.000807299
0.000795523
0.000784615
0.00077473
0.000765981
0.000758448
0.000752188
0.000747247
0.000743664
0.000741761
0.000741071
0.000741414
0.000743731
0.000747609
0.000753153
0.000760456
0.000769604
0.000780702
0.000793865
0.000809226
0.000826936
0.000847176
0.00087016
0.000896152
0.000925484
0.000958576
0.000995968
0.00103835
0.00108661
0.00114181
0.00120524
0.00127827
0.00136216
0.00145765
0.00156431
0.00167957
0.00179766
0.00190868
0.0019979
0.00204225
0.00205047
0.002049
0.00205673
0.00212535
0.00229321
0.00271002
0.00335391
0.0036404
0.00345629
0.00245915
0.00113946
0.00017437
0.000532091
0.00204083
0.00266687
0.00292267
0.00298112
0.00291027
0.00274326
0.00251543
0.00226049
0.00200056
0.00175583
0.00154184
0.00136615
0.00122806
0.00112257
0.00104399
0.000987114
0.000946993
0.000918873
0.000898513
0.000882526
0.000868539
0.000855127
0.000841614
0.000827832
0.000813908
0.000800099
0.000786692
0.000773941
0.000762048
0.000751161
0.000741378
0.000732767
0.00072537
0.000719222
0.000714349
0.000710782
0.000708815
0.000708078
0.000708283
0.000710386
0.000714034
0.000719309
0.00072631
0.000735129
0.000745872
0.000758654
0.000773604
0.000790866
0.000810603
0.000833006
0.000858306
0.000886785
0.000918801
0.000954816
0.000995431
0.00104143
0.00109383
0.00115391
0.00122318
0.00130332
0.0013959
0.00150183
0.00162052
0.00174874
0.00187929
0.002
0.0020799
0.00210711
0.00210827
0.00209807
0.00210968
0.00220029
0.00244434
0.00300797
0.00348223
0.00354549
0.00276633
0.00130054
0.000200782
0.000548882
0.00209097
0.00271133
0.00295518
0.00300046
0.00290392
0.00270531
0.00244897
0.00217233
0.00190147
0.00165631
0.00144943
0.00128454
0.00115822
0.00106411
0.000995842
0.000947595
0.000913957
0.000890043
0.000871844
0.000856452
0.000842051
0.000827715
0.000813145
0.000798413
0.000783763
0.000769485
0.000755839
0.000743028
0.000731194
0.000720428
0.000710784
0.000702295
0.000694983
0.000688866
0.000683966
0.00068031
0.000678152
0.00067729
0.000677266
0.000679047
0.000682373
0.0006873
0.00069393
0.000702361
0.000712702
0.000725073
0.0007396
0.000756424
0.0007757
0.000797604
0.000822341
0.000850156
0.000881356
0.00091633
0.00095559
0.000999816
0.00104991
0.00110705
0.00117275
0.00124884
0.00133734
0.00144007
0.00155797
0.00168989
0.00183105
0.00197142
0.00209461
0.00216062
0.00217322
0.00215672
0.00213819
0.00217028
0.00230118
0.0026973
0.00331685
0.0035534
0.00306233
0.00150379
0.000235482
0.000560035
0.00212582
0.00273638
0.00296709
0.00299985
0.00288457
0.00265801
0.00237807
0.00208517
0.00180803
0.00156561
0.00136731
0.00121345
0.0010984
0.00101474
0.00095546
0.000914244
0.000885433
0.00086426
0.000847125
0.000831661
0.000816568
0.000801329
0.000785913
0.00077053
0.000755467
0.000740993
0.000727318
0.000714583
0.000702876
0.000692243
0.000682708
0.000674281
0.000666973
0.000660799
0.000655781
0.000651952
0.00064947
0.000648349
0.000648136
0.000649483
0.000652419
0.000656936
0.000663141
0.000671135
0.000681034
0.000692958
0.000707039
0.000723417
0.000742244
0.000763688
0.000787937
0.000815212
0.000845779
0.00087997
0.000918219
0.000961101
0.0010094
0.00106415
0.00112677
0.00119907
0.00128326
0.00138178
0.00149677
0.00162908
0.00177674
0.00193291
0.00208401
0.00219345
0.00223451
0.00223528
0.00219146
0.00217169
0.00223594
0.0024668
0.00304187
0.0034294
0.0032819
0.00175952
0.000281966
0.000565557
0.00214568
0.00274314
0.00296384
0.00298875
0.00285091
0.00260378
0.00230547
0.00200107
0.00172131
0.00148382
0.00129487
0.00115182
0.00104729
0.000972968
0.000921291
0.000885606
0.000860233
0.000840707
0.000823925
0.000808048
0.000792218
0.000776225
0.000760208
0.000744438
0.000729195
0.0007147
0.000701104
0.000688495
0.000676915
0.000666378
0.000656889
0.000648449
0.000641065
0.000634753
0.000629541
0.000625468
0.000622585
0.000621145
0.000620717
0.00062158
0.000624076
0.000628144
0.000633885
0.000641406
0.000650827
0.000662273
0.000675879
0.000691788
0.000710155
0.000731144
0.000754936
0.000781736
0.000811783
0.000845367
0.000882858
0.000924743
0.000971682
0.00102458
0.00108469
0.0011537
0.0012338
0.00132767
0.00143817
0.00156761
0.00171627
0.00188034
0.00204934
0.00220421
0.00228971
0.00230667
0.00227727
0.00222452
0.00221808
0.00234523
0.00278209
0.00330297
0.0033814
0.00206178
0.00033926
0.000565214
0.00215329
0.00273841
0.00294973
0.00296334
0.00280862
0.00254526
0.00223328
0.00192142
0.00164184
0.0014107
0.00123132
0.00109857
0.00100364
0.000937468
0.000892056
0.000860594
0.000837566
0.000818922
0.000802076
0.000785661
0.000769173
0.000752613
0.000736214
0.000720257
0.000704984
0.00069056
0.000677082
0.000664592
0.000653101
0.000642605
0.000633096
0.000624573
0.000617045
0.000610533
0.000605066
0.000600687
0.000597445
0.000595605
0.000594931
0.000595303
0.000597331
0.000600926
0.000606181
0.000613205
0.00062212
0.000633058
0.000646159
0.00066157
0.000679449
0.000699965
0.000723297
0.000749642
0.000779224
0.000812305
0.000849207
0.000890345
0.000936279
0.000987782
0.00104594
0.00111226
0.00118881
0.00127831
0.00138401
0.00150926
0.00165633
0.00182441
0.00200669
0.00218769
0.00232281
0.00237197
0.00236628
0.00228658
0.00224
0.0022863
0.00255587
0.00315807
0.00340159
0.00239812
0.000405107
0.000562143
0.00215142
0.00272291
0.00292084
0.00292591
0.00275957
0.00248447
0.00216308
0.0018471
0.00156979
0.00134578
0.00117582
0.00105267
0.000966323
0.000907115
0.000866756
0.000838437
0.000816936
0.000798673
0.000781549
0.000764597
0.000747577
0.000730627
0.000714016
0.000698003
0.00068278
0.000668461
0.000655094
0.00064269
0.000631238
0.000620724
0.000611138
0.00060248
0.000594764
0.000588014
0.000582267
0.000577568
0.000573975
0.000571696
0.000570735
0.000570676
0.000572215
0.000575329
0.000580087
0.0005866
0.000594992
0.000605399
0.000617965
0.000632844
0.000650201
0.00067021
0.000693054
0.000718931
0.000748059
0.000780682
0.000817092
0.00085765
0.000902833
0.000953297
0.00100997
0.00107417
0.00114777
0.00123334
0.00133425
0.00145441
0.00159751
0.00176522
0.00195412
0.00215197
0.0023344
0.00243108
0.00244749
0.00239087
0.0022901
0.00226964
0.00241808
0.00293763
0.00330969
0.00272378
0.000471149
0.000555362
0.00214313
0.00269407
0.00288203
0.00288012
0.00270577
0.00242304
0.002096
0.00177864
0.00150503
0.00128849
0.00112753
0.00101315
0.000934349
0.000880996
0.000844639
0.000818606
0.000798048
0.000779858
0.000762372
0.000744944
0.000727523
0.000710324
0.000693616
0.000677622
0.000662482
0.000648262
0.000634978
0.000622617
0.000611157
0.000600579
0.000590875
0.00058205
0.000574122
0.000567122
0.000561092
0.000556084
0.000552163
0.000549425
0.000548082
0.000547744
0.000548779
0.000551412
0.000555676
0.000561674
0.000569533
0.00057939
0.000591396
0.000605712
0.000622509
0.000641968
0.000664283
0.000689657
0.000718309
0.000750478
0.000786436
0.000826509
0.000871111
0.000920801
0.000976368
0.00103895
0.00111019
0.00119247
0.00128904
0.0014041
0.00154229
0.00170741
0.00189961
0.00211135
0.00232304
0.00247277
0.00251934
0.00249407
0.00236279
0.00228888
0.00234959
0.00274759
0.00318512
0.00297146
0.000522055
0.000544862
0.0021256
0.00265674
0.00283605
0.00282785
0.00264889
0.00236225
0.00203281
0.00171625
0.00144731
0.00123823
0.00108567
0.000979151
0.000906886
0.000858386
0.000825153
0.000800748
0.000780732
0.00076244
0.000744581
0.000726759
0.000709049
0.000691702
0.000674967
0.000659023
0.000643965
0.000629823
0.000616585
0.000604227
0.000592719
0.000582045
0.000572201
0.000563195
0.000555052
0.000547807
0.000541505
0.0005362
0.000531955
0.000528835
0.000527096
0.000526501
0.000527065
0.000529233
0.000533012
0.0005385
0.000545823
0.000555121
0.000566547
0.00058027
0.000596469
0.000615336
0.000637074
0.000661896
0.00069003
0.000721717
0.000757223
0.000796851
0.000840973
0.000890072
0.000944817
0.00100618
0.00107559
0.00115517
0.00124797
0.00135814
0.00149084
0.00165128
0.00184236
0.00206046
0.00229007
0.00249148
0.00258335
0.00258831
0.00247537
0.00233468
0.0023195
0.00258056
0.00306877
0.00308685
0.000544599
0.0005312
0.00210154
0.00261281
0.00278426
0.00277102
0.00259033
0.00230305
0.001974
0.00165996
0.00139627
0.00119438
0.00104948
0.000949922
0.000883246
0.00083872
0.000807898
0.000784631
0.000764887
0.000746405
0.0007282
0.000710061
0.000692147
0.000674715
0.000657986
0.000642097
0.000627104
0.000613009
0.000599785
0.000587397
0.000575817
0.000565031
0.000555039
0.000545855
0.000537508
0.000530035
0.000523484
0.000517909
0.000513368
0.000509927
0.000507801
0.000506955
0.000507106
0.00050883
0.000512141
0.000517131
0.000523923
0.000532657
0.000543491
0.000556599
0.000572168
0.000590401
0.000611511
0.000635728
0.00066329
0.000694449
0.000729473
0.000768658
0.000812346
0.000860966
0.000915094
0.000975556
0.00104358
0.00112103
0.00121068
0.00131651
0.00144388
0.00159899
0.00178718
0.00200892
0.00225386
0.00249433
0.00264031
0.00267256
0.00259423
0.00239597
0.00231424
0.00244533
0.00296387
0.00311887
0.000548216
0.000515143
0.00207306
0.00256395
0.00272809
0.0027112
0.00253125
0.00224613
0.00191984
0.00160967
0.0013515
0.00115636
0.00101833
0.000924824
0.000862868
0.000821562
0.000792583
0.000770094
0.000750451
0.000731742
0.000713228
0.000694838
0.000676776
0.000659294
0.00064258
0.000626734
0.000611783
0.000597706
0.000584468
0.00057203
0.000560365
0.000549464
0.00053933
0.000529982
0.000521452
0.000513779
0.000507011
0.000501202
0.000496409
0.000492696
0.000490207
0.000489072
0.000488919
0.00049022
0.000493084
0.000497593
0.000503863
0.000512037
0.000522273
0.000534751
0.000549664
0.000567226
0.000587665
0.000611223
0.000638156
0.000668729
0.000703224
0.000741937
0.000785199
0.000833401
0.000887047
0.000946844
0.00101384
0.00108965
0.00117673
0.0012788
0.0014011
0.00155037
0.0017336
0.00195465
0.00220828
0.00247313
0.00267829
0.00274674
0.00270785
0.00250453
0.00235
0.00238056
0.00280463
0.0030913
0.000537459
0.00049737
0.00204186
0.00251174
0.00266894
0.00264969
0.00247256
0.00219199
0.00187042
0.00156514
0.00131258
0.00112361
0.00099163
0.000903318
0.000845297
0.000806576
0.000778991
0.000757021
0.000737373
0.000718428
0.000699645
0.000681051
0.000662876
0.000645357
0.000628653
0.000612832
0.000597897
0.000583815
0.000570543
0.000558044
0.000546293
0.000535283
0.000525023
0.000515534
0.00050685
0.00049901
0.000492062
0.000486057
0.000481052
0.00047711
0.000474301
0.000472858
0.000472477
0.000473387
0.000475832
0.00047988
0.000485645
0.000493268
0.000502908
0.000514748
0.000528989
0.000545853
0.000565581
0.000588432
0.000614679
0.000644607
0.000678515
0.000716711
0.000759525
0.000807329
0.000860576
0.000919875
0.000986121
0.00106069
0.00114576
0.00124469
0.0013625
0.00150611
0.00168368
0.00190191
0.00215999
0.00244085
0.00269596
0.00281285
0.00281137
0.00262608
0.00239257
0.00235523
0.00267003
0.00302643
0.000520131
0.000478433
0.00200867
0.00245735
0.00260798
0.00258753
0.00241496
0.00214093
0.00182572
0.00152611
0.00127908
0.00109566
0.000968886
0.000884949
0.000830165
0.000793497
0.000766958
0.000745321
0.000725604
0.000706431
0.000687413
0.000668647
0.000650377
0.000632821
0.000616113
0.000600295
0.000585355
0.00057125
0.000557935
0.000545372
0.000533541
0.000522437
0.000512072
0.000502469
0.000493662
0.00048569
0.000478598
0.000472435
0.000467252
0.000463107
0.000460058
0.000458317