/*--------------------------------*- C++ -*----------------------------------*\
  =========                 |
  \\      /  F ield         | OpenFOAM: The Open Source CFD Toolbox
   \\    /   O peration     | Website:  https://openfoam.org
    \\  /    A nd           | Version:  13
     \\/     M anipulation  |
\*---------------------------------------------------------------------------*/
FoamFile
{
    format      ascii;
    class       volScalarField;
    location    "5.1";
    object      k;
}
// * * * * * * * * * * * * * * * * * * * * * * * * * * * * * * * * * * * * * //

dimensions      [0 2 -2 0 0 0 0];

internalField   nonuniform List<scalar> 
6400
(
4.64162e-07
2.3796e-06
5.74063e-06
9.26289e-06
1.19644e-05
1.35248e-05
1.41364e-05
1.42423e-05
1.43479e-05
1.48808e-05
1.61562e-05
1.86344e-05
2.25752e-05
2.80782e-05
3.4912e-05
4.27325e-05
5.11782e-05
6.00678e-05
6.90621e-05
7.78609e-05
8.66242e-05
9.6008e-05
0.000106947
0.00012023
0.000135667
0.000151877
0.000167924
0.00018385
0.000200027
0.000216858
0.000234303
0.000251681
0.000268784
0.000285437
0.000302137
0.000318998
0.000336399
0.000354494
0.000373526
0.000393612
0.000414878
0.000437478
0.000461557
0.000487362
0.000515033
0.000545184
0.000579075
0.000619436
0.000668146
0.000714094
0.000761936
0.000807767
0.000852094
0.000892784
0.000928794
0.000958296
0.000977417
0.000986374
0.000989158
0.000977252
0.000949181
0.000906055
0.00084822
0.000776966
0.00069507
0.000605323
0.000513318
0.000422685
0.000336962
0.000258543
0.000195848
0.00014303
0.000100063
6.69826e-05
4.30627e-05
2.66905e-05
1.59821e-05
9.09383e-06
4.26391e-06
9.05162e-07
2.25109e-06
1.89752e-05
4.59211e-05
7.21757e-05
9.19374e-05
0.00010396
0.000109863
0.000112375
0.000114532
0.00011909
0.000129005
0.000147713
0.000176431
0.000214888
0.000261507
0.000314048
0.000370517
0.000428933
0.000487522
0.000545286
0.000603275
0.000665089
0.00073567
0.000818608
0.000912056
0.00100871
0.00110312
0.00119376
0.00128102
0.00136561
0.00144653
0.00152174
0.00159074
0.00165299
0.00171118
0.00176604
0.00181955
0.00187265
0.00192663
0.00198225
0.00204018
0.00210108
0.00216532
0.00223319
0.00230424
0.00237824
0.00245478
0.00253096
0.00260732
0.0026898
0.00277355
0.00285867
0.00294194
0.00302116
0.00309261
0.00315259
0.00319178
0.00320781
0.00320888
0.00318049
0.00311517
0.00301292
0.00287188
0.00269302
0.00248109
0.00224246
0.00198967
0.00173139
0.00147491
0.00122903
0.000991176
0.000773303
0.000582713
0.000422651
0.000294491
0.000196224
0.000124732
7.45211e-05
3.58311e-05
4.78116e-06
4.93344e-06
4.14173e-05
9.66673e-05
0.000144088
0.000176908
0.000196525
0.000207408
0.000214726
0.000223736
0.000239693
0.000267824
0.000312555
0.000375795
0.000456371
0.000551026
0.000656136
0.000768875
0.000886905
0.00100781
0.00112937
0.00124979
0.00136801
0.00148246
0.00158911
0.00168293
0.00176029
0.00181834
0.00185857
0.00188875
0.00191498
0.00194237
0.0019713
0.00200331
0.00203495
0.00206965
0.0021068
0.00214796
0.00219322
0.00224334
0.0022987
0.00235919
0.00242507
0.00249635
0.00257277
0.00265441
0.00274116
0.00283271
0.00292928
0.0030313
0.00313827
0.00324834
0.00336035
0.00347192
0.00358049
0.00368244
0.00377359
0.00384882
0.00389883
0.00391894
0.0039174
0.00387412
0.00378756
0.00365319
0.00347086
0.00324274
0.00297292
0.00267878
0.00236986
0.00205587
0.00174796
0.00145518
0.00118472
0.000942243
0.000730725
0.000551365
0.000403498
0.000283996
0.000185529
9.37881e-05
1.27073e-05
8.5671e-06
6.98678e-05
0.000153323
0.000217459
0.000259953
0.000286422
0.000304159
0.000320627
0.000343249
0.000379391
0.000435809
0.000516967
0.000623267
0.000750988
0.000894274
0.00104735
0.00120512
0.00136247
0.00151375
0.00165335
0.00177564
0.00187755
0.00195707
0.00200874
0.00203264
0.00203981
0.00203838
0.00203397
0.00203264
0.00203539
0.0020442
0.00205612
0.0020729
0.00209401
0.00212046
0.00215158
0.00218803
0.00222975
0.00227677
0.00232915
0.00238712
0.00245073
0.00252011
0.00259514
0.00267571
0.00276127
0.00285346
0.00295187
0.00305639
0.00316647
0.00328113
0.00339911
0.00351857
0.00363715
0.0037516
0.00385799
0.00395132
0.00402616
0.00407058
0.00408639
0.0040695
0.00400955
0.00390409
0.00375523
0.00355378
0.00329848
0.0030046
0.00268225
0.00234691
0.0020132
0.00169374
0.00139824
0.00113282
0.000900269
0.000701057
0.00053383
0.000394276
0.00027301
0.000147745
2.09376e-05
1.37202e-05
0.000107968
0.000220716
0.00030087
0.000353135
0.000387741
0.000415099
0.000445299
0.000488133
0.000552764
0.000646145
0.000770689
0.00092302
0.00109528
0.00127795
0.00146188
0.00163849
0.00179928
0.00193536
0.00204181
0.00211049
0.00214061
0.00214702
0.002125
0.00209586
0.00206977
0.00204869
0.00203278
0.00202491
0.00202185
0.00202184
0.0020276
0.00203764
0.00205191
0.00207061
0.00209306
0.00211957
0.00214967
0.00218323
0.00222041
0.00226126
0.00230598
0.00235528
0.00240972
0.00247006
0.00253732
0.00261053
0.00269044
0.00277718
0.00287098
0.00297181
0.00307941
0.00319293
0.00331121
0.00343235
0.00355386
0.00367166
0.00378074
0.00387499
0.00394312
0.00397313
0.00397516
0.0039201
0.00381243
0.00365265
0.0034455
0.00317482
0.00286114
0.00252056
0.00217149
0.00183151
0.00151521
0.00123196
0.000985718
0.000776404
0.000601344
0.000454815
0.00032487
0.000183537
2.64581e-05
2.10643e-05
0.0001588
0.000302853
0.000399834
0.000463221
0.000508132
0.000548473
0.000597251
0.000666414
0.000765619
0.000899765
0.00106682
0.00125802
0.00146057
0.00166079
0.00184588
0.00200442
0.00212807
0.00220122
0.00222847
0.00222873
0.00218905
0.00214771
0.00210855
0.00206906
0.00203508
0.0020067
0.00198353
0.00196543
0.00195088
0.00193973
0.00193422
0.00193185
0.00193147
0.00193453
0.00193997
0.00194796
0.00195834
0.00197121
0.00198694
0.00200583
0.00202827
0.00205418
0.00208404
0.00211827
0.00215743
0.00220201
0.00225299
0.00231129
0.00237796
0.00245402
0.00254055
0.00263816
0.00274716
0.00286706
0.00299629
0.00313299
0.00327354
0.00341284
0.00354325
0.0036558
0.00373067
0.00375973
0.00374484
0.00366129
0.00351669
0.00329897
0.00301408
0.00267948
0.00231776
0.00195301
0.00160765
0.00129804
0.00103212
0.000810379
0.000628405
0.000478118
0.000344973
0.000198622
2.83255e-05
3.12603e-05
0.000224265
0.000402045
0.000517163
0.000593331
0.000650917
0.000707589
0.000779086
0.000878417
0.0010136
0.00118503
0.00138458
0.00159762
0.0018067
0.00199483
0.00214749
0.00224901
0.00229253
0.00229835
0.00225992
0.00221259
0.00215428
0.00209767
0.00203941
0.00198699
0.0019424
0.00190362
0.00186987
0.0018405
0.00181589
0.00179515
0.00177748
0.00176202
0.00174876
0.00173783
0.00172882
0.00172196
0.00171733
0.00171514
0.00171451
0.00171615
0.00172057
0.00172748
0.00173749
0.00175075
0.0017678
0.00178916
0.00181557
0.00184803
0.00188778
0.00193622
0.00199519
0.00206699
0.00215387
0.00225796
0.00237992
0.00251982
0.00267796
0.00284956
0.00302833
0.00320632
0.00337253
0.00351059
0.00358339
0.003603
0.00354648
0.00342484
0.00319549
0.00288471
0.00251724
0.00212326
0.00173546
0.00138198
0.00108006
0.000833822
0.000637836
0.000480506
0.000343703
0.000197307
2.74508e-05
4.49298e-05
0.000305419
0.000519086
0.000653725
0.000744253
0.000816555
0.000891967
0.000988149
0.00111737
0.00128371
0.0014814
0.0016958
0.00190715
0.00209491
0.00224168
0.00232283
0.00234905
0.00233089
0.0022817
0.00221577
0.00213928
0.00205565
0.00198177
0.00191462
0.00185889
0.00180868
0.00176397
0.00172374
0.00168764
0.00165531
0.00162614
0.00159983
0.00157616
0.00155518
0.00153684
0.00152091
0.00150734
0.00149606
0.00148701
0.00148016
0.00147597
0.00147414
0.0014738
0.00147662
0.00148214
0.00149077
0.00150292
0.00151909
0.00153966
0.00156517
0.00159633
0.00163413
0.00167981
0.00173512
0.0018029
0.00188809
0.0019968
0.00213267
0.00229973
0.0024935
0.00270704
0.00293222
0.00315284
0.0033517
0.00348107
0.00352965
0.0035034
0.00339632
0.00314355
0.00279453
0.00238076
0.00194424
0.00152849
0.00116722
0.000875955
0.000651717
0.000479299
0.000336226
0.000190756
2.55028e-05
6.25467e-05
0.000402317
0.000653636
0.000808907
0.000914927
0.00100301
0.00109763
0.00121706
0.0013709
0.00155765
0.00176487
0.00197234
0.00215709
0.00229698
0.00236461
0.00237991
0.00234681
0.00229111
0.00220467
0.00210129
0.00200324
0.0019172
0.00184134
0.00177393
0.00171485
0.00166077
0.00161205
0.00156784
0.00152809
0.00149248
0.00146083
0.00143302
0.00140891
0.00138832
0.001371
0.00135674
0.00134534
0.00133656
0.00133016
0.00132639
0.00132478
0.00132446
0.00132656
0.001331
0.00133767
0.00134678
0.00135841
0.00137281
0.00139022
0.00141094
0.00143531
0.00146386
0.00149714
0.0015359
0.0015812
0.0016347
0.00169923
0.00177907
0.00188275
0.00202646
0.00221925
0.00245611
0.00271653
0.0029902
0.00324862
0.00343668
0.00351497
0.00351785
0.00340973
0.00312528
0.00272557
0.00225493
0.0017708
0.00132829
0.00096417
0.000687838
0.000485229
0.000326616
0.000178528
2.34789e-05
8.43324e-05
0.00051379
0.000804122
0.000980791
0.0011026
0.00120593
0.00131756
0.00145498
0.00162364
0.00181587
0.00201337
0.00219243
0.00232592
0.00238736
0.00239756
0.00236085
0.00228916
0.00218144
0.00206159
0.0019531
0.00185557
0.0017705
0.00169485
0.00162728
0.00156677
0.00151195
0.00146316
0.00141995
0.00138235
0.00135009
0.00132295
0.0013006
0.00128262
0.00126859
0.00125802
0.0012504
0.00124543
0.00124302
0.00124218
0.00124264
0.00124521
0.00124903
0.00125457
0.00126163
0.00127033
0.00128074
0.00129302
0.00130736
0.00132397
0.00134313
0.00136509
0.00138998
0.00141809
0.00144972
0.00148521
0.00152485
0.00156965
0.00162132
0.00168345
0.00176288
0.00187079
0.00202796
0.00226165
0.00255112
0.00286746
0.00318439
0.00343246
0.00354236
0.00355714
0.00344335
0.00311521
0.00265304
0.0021195
0.00158963
0.00112822
0.000769716
0.000512384
0.000328056
0.000169512
2.20306e-05
0.000110524
0.000636756
0.000967775
0.0011662
0.00130294
0.00141899
0.00154264
0.00168946
0.00186006
0.0020411
0.00221024
0.00233843
0.00239671
0.00240498
0.00236799
0.00228389
0.00215966
0.00202891
0.0019076
0.00180103
0.00170676
0.00162401
0.00155019
0.00148457
0.00142648
0.00137558
0.00133199
0.00129533
0.00126534
0.00124142
0.00122298
0.00120927
0.00119957
0.00119312
0.00118972
0.00118829
0.00118804
0.00118963
0.00119231
0.00119611
0.00120108
0.00120709
0.00121433
0.00122282
0.00123273
0.00124422
0.00125747
0.00127265
0.00128993
0.00130945
0.00133132
0.00135562
0.00138244
0.00141186
0.00144404
0.0014793
0.00151717
0.00155799
0.00160251
0.00165315
0.00171567
0.00180081
0.00192687
0.00212627
0.00242731
0.00277968
0.00315323
0.003454
0.00358793
0.00360714
0.00347424
0.00308686
0.00255169
0.00195544
0.00138961
0.000923556
0.000580372
0.0003456
0.000170478
2.20155e-05
0.000142743
0.0007666
0.00114129
0.00136089
0.00151029
0.00163465
0.00176301
0.0019084
0.00206684
0.00222073
0.00234252
0.00239908
0.00240712
0.0023708
0.00227857
0.00214368
0.00200413
0.00187178
0.00175487
0.00165297
0.00156332
0.00148468
0.0014155
0.00135554
0.00130443
0.00126194
0.00122768
0.0012009
0.00118076
0.00116623
0.00115631
0.00115001
0.00114686
0.00114556
0.00114534
0.00114648
0.00114846
0.00115133
0.00115482
0.00115912
0.00116426
0.00117039
0.00117769
0.00118635
0.00119658
0.0012086
0.00122263
0.00123888
0.00125754
0.00127874
0.00130258
0.00132908
0.00135814
0.00138959
0.00142311
0.00145838
0.00149517
0.00153356
0.00157356
0.00161454
0.00165836
0.00170986
0.00177819
0.00188145
0.0020521
0.00234046
0.00272633
0.00315062
0.00349309
0.00363985
0.00365398
0.00347887
0.00301233
0.00239864
0.0017477
0.00116467
0.000711998
0.000396111
0.000182637
2.34298e-05
0.000178872
0.00090394
0.00132099
0.00155989
0.0017184
0.00184513
0.0019694
0.00210174
0.00223453
0.0023465
0.00240091
0.00240946
0.00237399
0.0022795
0.00213891
0.00198915
0.00184715
0.00171991
0.00160975
0.00151411
0.00143087
0.0013591
0.001298
0.00124732
0.00120647
0.00117471
0.00115097
0.00113397
0.0011224
0.00111498
0.0011107
0.00110863
0.00110783
0.00110765
0.00110809
0.00110913
0.00111053
0.0011124
0.00111481
0.00111796
0.00112203
0.00112724
0.00113383
0.00114203
0.00115208
0.00116424
0.00117874
0.00119583
0.00121573
0.00123864
0.00126471
0.001294
0.00132648
0.00136193
0.00139993
0.00143986
0.00148089
0.00152213
0.00156295
0.00160345
0.00164324
0.00168301
0.00172658
0.00178323
0.00187155
0.00202437
0.00229242
0.00270492
0.00317495
0.00354397
0.00368971
0.00368565
0.00342749
0.00286664
0.00217443
0.00148889
0.000914955
0.000498395
0.000217377
2.80875e-05
0.000217845
0.00104544
0.00150235
0.00175781
0.001921
0.00204334
0.00215432
0.00226263
0.00235855
0.00240861
0.00241717
0.00238148
0.00228883
0.00214584
0.00198768
0.00183481
0.00169758
0.00157837
0.00147629
0.00138869
0.00131421
0.00125213
0.00120172
0.00116224
0.00113245
0.00111094
0.00109607
0.00108624
0.00108002
0.00107619
0.00107383
0.00107224
0.00107094
0.00106978
0.00106879
0.00106802
0.00106763
0.00106755
0.0010682
0.00106977
0.00107254
0.00107667
0.00108243
0.00109005
0.00109976
0.00111181
0.00112644
0.00114392
0.0011645
0.00118845
0.00121601
0.00124736
0.00128262
0.00132175
0.00136447
0.00141024
0.0014581
0.0015067
0.0015544
0.00159964
0.00164159
0.00167991
0.0017164
0.00175564
0.00180408
0.00188337
0.0020234
0.00228045
0.00271417
0.00322462
0.00360121
0.00373449
0.00367299
0.00329672
0.00262527
0.00187135
0.00118236
0.000650834
0.000283815
3.78811e-05
0.000258407
0.00118742
0.00168066
0.00194936
0.00211235
0.00222347
0.00231264
0.00238796
0.00242903
0.00243566
0.00239727
0.00230847
0.00216574
0.00200117
0.0018374
0.00168875
0.00155988
0.00145016
0.00135754
0.0012799
0.00121622
0.00116554
0.00112663
0.00109798
0.00107771
0.00106391
0.00105473
0.00104862
0.0010443
0.00104088
0.00103777
0.00103462
0.00103135
0.00102802
0.00102477
0.00102179
0.00101928
0.00101764
0.00101699
0.00101698
0.00101879
0.00102214
0.0010273
0.00103447
0.00104385
0.00105567
0.00107015
0.00108756
0.00110817
0.0011323
0.00116026
0.00119239
0.00122895
0.00127017
0.00131607
0.00136642
0.00142058
0.00147735
0.0015349
0.00159077
0.00164222
0.00168743
0.00172584
0.0017548
0.00178906
0.00183592
0.0019091
0.00204363
0.00230148
0.00275738
0.00330415
0.00365337
0.00374857
0.00359977
0.00305324
0.00228083
0.00149563
0.000845174
0.000374023
5.17985e-05
0.000299259
0.00132624
0.00185151
0.0021298
0.0022876
0.00238124
0.00244095
0.00246863
0.00247001
0.00242588
0.0023407
0.00219992
0.00203099
0.00185683
0.00169543
0.00155504
0.00143632
0.00133718
0.00125537
0.00118912
0.00113715
0.00109788
0.00106936
0.00104942
0.00103579
0.00102648
0.00101976
0.00101439
0.00100948
0.00100453
0.000999318
0.000993824
0.00098818
0.000982593
0.0009773
0.000972542
0.000968566
0.000965607
0.000964119
0.000963631
0.000964663
0.000967679
0.000972528
0.00097945
0.000988588
0.00100014
0.0010143
0.00103132
0.00105148
0.0010751
0.00110254
0.00113423
0.00117058
0.00121203
0.0012589
0.00131138
0.00136932
0.00143208
0.00149827
0.00156562
0.00163082
0.00168979
0.00174003
0.00178086
0.00180119
0.0018285
0.00187455
0.00194506
0.00208134
0.0023534
0.00283998
0.00341019
0.00368732
0.00371978
0.00341795
0.00269004
0.00183733
0.00107037
0.000482082
6.88845e-05
0.000339275
0.00145816
0.00201118
0.00229568
0.00244288
0.00251046
0.00253219
0.0025224
0.00247267
0.00238858
0.00224997
0.00207842
0.00189487
0.00171975
0.00156553
0.00143551
0.00132798
0.00124028
0.00117015
0.00111565
0.0010749
0.00104554
0.00102506
0.00101092
0.00100089
0.000993182
0.000986475
0.000979938
0.000973127
0.0009659
0.00095832
0.000950574
0.000942916
0.000935612
0.000928923
0.000923085
0.000918314
0.000914791
0.000912993
0.000912368
0.000913167
0.000916145
0.000920927
0.000927759
0.000936742
0.000948037
0.000961822
0.000978313
0.000997767
0.0010205
0.00104688
0.00107736
0.00111244
0.00115267
0.00119864
0.00125086
0.00130968
0.00137511
0.00144653
0.00152247
0.00160018
0.00167551
0.00174294
0.00179868
0.00183712
0.00185264
0.00187212
0.00191743
0.00198894
0.00213461
0.0024376
0.00297159
0.00350937
0.00372145
0.00362456
0.00306956
0.0021954
0.00131918
0.000602393
8.80843e-05
0.000378065
0.00158059
0.00215694
0.0024419
0.00257116
0.00261044
0.00260115
0.00254669
0.00245386
0.0023181
0.00214488
0.00195323
0.00176405
0.00159369
0.00144933
0.00133075
0.001235
0.00115915
0.00110069
0.00105718
0.00102597
0.00100416
0.000988933
0.000977832
0.00096891
0.000960802
0.000952675
0.00094413
0.000935083
0.000925658
0.000916091
0.000906667
0.000897673
0.000889372
0.000881993
0.00087573
0.000870743
0.000867192
0.000865442
0.000864871
0.00086581
0.000868892
0.000873739
0.000880563
0.000889442
0.000900512
0.000913924
0.000929866
0.000948568
0.000970315
0.000995457
0.00102442
0.00105773
0.00109599
0.00113989
0.00119019
0.0012476
0.00131268
0.00138561
0.00146586
0.00155181
0.00164025
0.00172606
0.00180208
0.00186285
0.00189581
0.00190707
0.00191918
0.00196331
0.00204021
0.00220392
0.00255627
0.00314224
0.00357923
0.00368834
0.00339182
0.00255825
0.0015881
0.000731627
0.000108562
0.000414115
0.00169149
0.00228373
0.00256363
0.00267261
0.00268968
0.00264167
0.00254262
0.0024086
0.00223226
0.0020336
0.00183071
0.00164241
0.00148031
0.00134717
0.0012405
0.00115665
0.00109239
0.00104471
0.00101051
0.000986579
0.00096975
0.000957291
0.000947064
0.000937597
0.000928019
0.000917941
0.000907318
0.000896314
0.000885204
0.000874296
0.000863888
0.00085424
0.000845568
0.000838046
0.000831809
0.000826961
0.000823685
0.000822134
0.000821698
0.00082291
0.000826119
0.00083105
0.000837868
0.000846645
0.000857497
0.000870558
0.000885992
0.000904
0.000924832
0.000948798
0.000976286
0.00100778
0.00104387
0.00108529
0.00113286
0.00118753
0.00125024
0.00132177
0.00140252
0.00149201
0.00158843
0.00168806
0.00178467
0.00186944
0.0019307
0.00195612
0.00196303
0.00196918
0.00201319
0.00209962
0.00229511
0.00272972
0.00333946
0.00361988
0.00355753
0.00290169
0.00187186
0.000866452
0.000129609
0.000446025
0.00178783
0.00238964
0.00266149
0.0027512
0.00274569
0.00265916
0.00252235
0.00234378
0.00213789
0.00192205
0.00171487
0.00153184
0.00137995
0.00125859
0.00116381
0.00109147
0.00103787
0.000999402
0.000972428
0.000953434
0.000939339
0.000927746
0.000917004
0.00090615
0.000894766
0.000882814
0.000870484
0.000858077
0.000845919
0.000834314
0.000823518
0.000813734
0.000805115
0.000797774
0.000791793
0.000787234
0.000784295
0.000782962
0.00078266
0.0007841
0.000787378
0.000792332
0.000799088
0.000807722
0.00081834
0.000831063
0.000846038
0.000863441
0.00088349
0.000906454
0.00093267
0.000962565
0.000996677
0.00103568
0.00108042
0.00113188
0.00119121
0.00125961
0.00133812
0.0014273
0.0015267
0.00163418
0.00174514
0.00185192
0.00194381
0.00200148
0.00201679
0.00201818
0.00201836
0.00206709
0.00216919
0.00242391
0.00295897
0.00346791
0.00360323
0.00320645
0.00216538
0.00100247
0.000151804
0.000472919
0.00186809
0.00247353
0.00273547
0.00281039
0.00277783
0.00265477
0.0024804
0.00226869
0.00204034
0.00181427
0.00160794
0.00143293
0.00129218
0.00118261
0.00109928
0.00103756
0.00099319
0.000962044
0.000940172
0.000924085
0.000911026
0.000899083
0.000887124
0.000874651
0.000861601
0.000848168
0.000834671
0.000821449
0.000808812
0.000797012
0.00078624
0.000776633
0.000768282
0.000761251
0.000755581
0.000751306
0.000748622
0.00074744
0.000747221
0.000748749
0.000751998
0.000756873
0.000763483
0.000771911
0.000782256
0.000794636
0.000809185
0.000826063
0.000845461
0.000867611
0.000892803
0.000921401
0.000953874
0.000990819
0.001033
0.00108139
0.00113717
0.00120171
0.0012765
0.00136286
0.00146154
0.00157203
0.00169157
0.00181416
0.00192957
0.00202312
0.00207021
0.0020784
0.00207073
0.00206629
0.00212238
0.00226042
0.00261833
0.00322907
0.00352375
0.00339288
0.00245883
0.00114319
0.000174718
0.000494415
0.00193221
0.00253651
0.00278776
0.00284918
0.00278978
0.00263752
0.00242647
0.00218799
0.00194357
0.00171278
0.00151087
0.00134547
0.00121612
0.00111792
0.00104522
0.000992845
0.000956036
0.000930316
0.000911698
0.000896965
0.00088383
0.000870905
0.000857537
0.000843594
0.000829253
0.000814835
0.000800695
0.000787148
0.000774447
0.000762774
0.000752251
0.000742954
0.000734927
0.000728198
0.000722784
0.000718703
0.000716128
0.000714989
0.00071478
0.000716233
0.000719338
0.000724027
0.000730401
0.00073855
0.000748575
0.000760592
0.000774729
0.000791136
0.000809984
0.000831477
0.000855864
0.000883456
0.000914649
0.000949957
0.000990049
0.0010358
0.00108832
0.00114902
0.00121955
0.00130171
0.00139715
0.00150677
0.0016299
0.00176306
0.00189875
0.0020244
0.00210825
0.0021374
0.00213818
0.00211921
0.0021148
0.0021873
0.00239513
0.00289835
0.00337697
0.00346095
0.00275683
0.00130755
0.000201787
0.000510343
0.00198076
0.00257992
0.00281999
0.00286898
0.00278475
0.00260299
0.00236464
0.00210531
0.00185027
0.00161898
0.00142385
0.00126879
0.0011506
0.00106306
0.00099988
0.000955391
0.000924454
0.000902474
0.000885662
0.000871228
0.000857406
0.0008433
0.000828643
0.000813561
0.000798367
0.000783424
0.000769059
0.00075553
0.000743016
0.00073163
0.000721434
0.000712457
0.000704711
0.000698202
0.000692936
0.000688928
0.000686301
0.000685091
0.000684819
0.000686049
0.000688903
0.00069331
0.000699367
0.00070717
0.000716826
0.000728451
0.000742173
0.000758135
0.000776497
0.000797443
0.000821191
0.000848009
0.000878232
0.000912293
0.000950763
0.000994397
0.0010442
0.00110148
0.0011679
0.00124546
0.00133631
0.00144238
0.00156457
0.00170156
0.00184822
0.00199414
0.00212262
0.00219224
0.00220557
0.00218584
0.00215864
0.00216639
0.0022781
0.00261757
0.00320823
0.00345598
0.00303639
0.00151605
0.000237826
0.000520966
0.0020147
0.00260471
0.00283235
0.00286925
0.00276784
0.00255927
0.00229833
0.00202338
0.00176223
0.00153348
0.00134653
0.00120196
0.00109438
0.00101655
0.000961624
0.000923532
0.000896934
0.000877333
0.000861297
0.000846536
0.000831787
0.000816566
0.000800892
0.000785048
0.000769398
0.000754287
0.000739984
0.000726672
0.000714462
0.000703404
0.000693517
0.000684798
0.000677241
0.000670843
0.000665608
0.000661556
0.000658738
0.000657354
0.000656953
0.000657848
0.000660363
0.000664411
0.000670084
0.000677486
0.000686727
0.000697929
0.000711221
0.000726743
0.00074465
0.000765114
0.000788333
0.00081454
0.000844025
0.000877152
0.000914404
0.000956421
0.00100407
0.00105854
0.00112136
0.00119455
0.00128052
0.00138186
0.0015008
0.00163813
0.00179153
0.00195365
0.00211035
0.00222512
0.00226908
0.00226987
0.00221641
0.00218664
0.00222877
0.00242107
0.00294222
0.00332538
0.00322676
0.0017727
0.000284954
0.00052632
0.00203428
0.00261184
0.00282977
0.00285951
0.00273677
0.00250866
0.00223017
0.00194419
0.00168046
0.00145636
0.00127829
0.00114394
0.0010462
0.000977001
0.000929029
0.000895951
0.000872407
0.000854164
0.000838242
0.000822851
0.000807171
0.000791037
0.000774659
0.000758391
0.000742593
0.000727557
0.000713479
0.000700472
0.000688585
0.000677826
0.000668179
0.000659628
0.000652156
0.000645761
0.000640449
0.000636245
0.000633185
0.000631514
0.000630929
0.000631418
0.000633529
0.000637163
0.000642404
0.000649362
0.000658153
0.000668901
0.00068174
0.000696812
0.00071427
0.00073428
0.000757027
0.000782725
0.000811626
0.000844046
0.000880391
0.000921202
0.000967217
0.00101945
0.00107931
0.00114865
0.00122991
0.00132599
0.00143996
0.00157415
0.00172871
0.00189931
0.00207482
0.00223546
0.00232523
0.00234348
0.00231191
0.00223918
0.00221915
0.00232177
0.00270624
0.0032156
0.00330735
0.00206938
0.000341153
0.000526083
0.00204211
0.00260772
0.00281703
0.0028363
0.00269728
0.00245372
0.00216221
0.00186907
0.00160547
0.00138737
0.00121837
0.0010937
0.00100489
0.000943193
0.000900939
0.00087167
0.000850169
0.000832575
0.000816388
0.000800281
0.000783794
0.000766993
0.000750194
0.000733768
0.000718032
0.000703209
0.000689426
0.000676734
0.000665136
0.000654608
0.000645119
0.000636642
0.000629163
0.000622682
0.000617213
0.000612786
0.000609443
0.000607403
0.000606587
0.000606656
0.000608318
0.000611501
0.00061628
0.000622765
0.000631077
0.000641345
0.000653706
0.000668308
0.000685304
0.00070486
0.000727157
0.000752394
0.000780804
0.000812664
0.000848321
0.000888235
0.00093303
0.00098357
0.00104107
0.00110723
0.00118435
0.0012754
0.00138392
0.00151344
0.00166622
0.00184104
0.00203039
0.00221788
0.00235851
0.00241035
0.00240457
0.00231795
0.00225378
0.00227671
0.00250114
0.00306854
0.00331875
0.00239576
0.00040514
0.000523272
0.00204065
0.0025936
0.00279029
0.00280119
0.00265111
0.0023964
0.00209595
0.0017989
0.00153742
0.00132607
0.00116595
0.00105027
0.000969409
0.000914109
0.000876455
0.000850001
0.000829791
0.000812388
0.000795758
0.000778976
0.000761857
0.000744621
0.000727628
0.000711226
0.000695674
0.000681125
0.000667643
0.000655233
0.000643862
0.00063349
0.000624077
0.000615597
0.00060804
0.000601412
0.000595736
0.000591051
0.000587411
0.000584943
0.000583783
0.000583547
0.000584713
0.000587426
0.000591726
0.000597722
0.000605536
0.000615302
0.000627162
0.000641268
0.000657778
0.000676862
0.000698701
0.00072349
0.000751449
0.00078283
0.000817941
0.000857176
0.000901062
0.000950333
0.00100603
0.00106964
0.00114326
0.00122975
0.0013328
0.00145663
0.00160509
0.00177964
0.00197624
0.00218154
0.00237006
0.00247076
0.00248813
0.00242708
0.00230477
0.00226793
0.00239053
0.00285615
0.00321775
0.00270181
0.000467254
0.000516987
0.00203325
0.00256661
0.00275346
0.00275799
0.00260021
0.00233827
0.00203249
0.00173415
0.0014762
0.00127191
0.00112025
0.00101273
0.000938854
0.000888924
0.000854909
0.000830484
0.000811029
0.000793546
0.000776424
0.000759067
0.000741494
0.000724012
0.000706987
0.000690721
0.000675408
0.00066114
0.00064793
0.000635745
0.000624536
0.000614251
0.000604849
0.000596309
0.000588626
0.000581813
0.000575903
0.000570941
0.000566986
0.00056411
0.000562553
0.000562052
0.000562729
0.00056497
0.000568789
0.000574289
0.000581595
0.000590843
0.000602181
0.000615765
0.00063176
0.000650343
0.000671697
0.000696022
0.000723533
0.000754469
0.000789111
0.000827805
0.000871004
0.00091933
0.000973667
0.0010353
0.00110609
0.00118868
0.0012867
0.00140471
0.00154768
0.00171942
0.00191962
0.00213964
0.00235855
0.00251336
0.0025619
0.00253495
0.00239336
0.00229875
0.00233567
0.00269068
0.00310611
0.00292532
0.000513105
0.000507297
0.00201733
0.0025316
0.00270925
0.00270859
0.00254621
0.00228056
0.00197257
0.00167506
0.00142156
0.00122431
0.00108051
0.000980315
0.000912471
0.000866991
0.000835812
0.000812816
0.000793754
0.000776049
0.000758459
0.000740647
0.000722772
0.000705185
0.000688229
0.000672152
0.000657089
0.000643077
0.000630091
0.000618076
0.000606968
0.000596714
0.000587277
0.00057864
0.000570805
0.000563793
0.000557642
0.0005524
0.00054813
0.0005449
0.000542931
0.000542164
0.000542395
0.000544175
0.000547519
0.000552527
0.000559321
0.000568043
0.000578841
0.000591879
0.00060733
0.000625375
0.00064621
0.000670037
0.000697076
0.000727564
0.000761766
0.000799998
0.000842655
0.000890269
0.00094359
0.00100372
0.00107227
0.00115163
0.00124521
0.0013576
0.0014944
0.00166105
0.00186023
0.00208735
0.0023253
0.00253262
0.00262697
0.0026318
0.00251047
0.00234413
0.00231444
0.00253335
0.00299981
0.00302718
0.000532523
0.000494669
0.001995
0.00249
0.00265972
0.00265455
0.00249044
0.00222419
0.00191667
0.00162165
0.00137316
0.00118269
0.00104607
0.000952329
0.000889643
0.000847809
0.000818815
0.000796803
0.0007779
0.000759914
0.000741913
0.000723757
0.0007057
0.0006881
0.000671267
0.000655393
0.000640561
0.000626765
0.000613954
0.000602056
0.000591003
0.000580742
0.000571241
0.000562489
0.000554495
0.000547287
0.000540905
0.000535403
0.000530845
0.000527302
0.00052493
0.000523862
0.000523742
0.000525074
0.000527959
0.000532484
0.000538773
0.000546964
0.000557212
0.000569684
0.000584561
0.000602034
0.000622307
0.000645595
0.000672124
0.000702136
0.000735893
0.000773692
0.000815891
0.000862951
0.000915513
0.000974509
0.00104134
0.0011181
0.00120792
0.00131524
0.00144593
0.00160665
0.00180274
0.00203396
0.0022883
0.00253589
0.00268546
0.00271856
0.00263596
0.00241653
0.00231391
0.00241938
0.0029002
0.00305486
0.000535402
0.000479755
0.00196834
0.00244358
0.00260608
0.00259747
0.002434
0.00216984
0.00186505
0.00157382
0.00133062
0.00114652
0.00101632
0.000928194
0.000869865
0.00083099
0.000803665
0.000782315
0.000763428
0.000745152
0.000726806
0.0007084
0.000690242
0.000672683
0.000655991
0.00064031
0.000625676
0.000612053
0.00059937
0.000587547
0.000576515
0.000566224
0.000556647
0.000547779
0.000539635
0.000532246
0.000525657
0.000519923
0.00051511
0.000511293
0.000508557
0.000507146
0.000506772
0.000507682
0.000510129
0.00051419
0.000519982
0.000527646
0.000537338
0.000549231
0.00056351
0.000580378
0.000600049
0.000622751
0.000648724
0.000678218
0.000711501
0.000748865
0.000790643
0.000837247
0.00088923
0.000947385
0.00101291
0.00108762
0.00117433
0.0012772
0.00140205
0.00155618
0.0017469
0.00197767
0.00224179
0.00251555
0.00272501
0.00279403
0.00274993
0.00253403
0.0023578
0.00236573
0.00275176
0.00302873
0.000525457
0.000463236
0.001939
0.00239387
0.00254958
0.00253863
0.00237778
0.00211798
0.00181781
0.00153135
0.00129354
0.00111528
0.000990726
0.000907421
0.00085273
0.000816235
0.000790175
0.00076926
0.000750307
0.000731756
0.000713129
0.000694544
0.000676336
0.000658842
0.000642286
0.00062677
0.000612297
0.000598806
0.000586214
0.000574436
0.000563405
0.000553074
0.000543422
0.000534448
0.000526172
0.000518627
0.00051186
0.000505928
0.000500893
0.000496828
0.000493809
0.000492061
0.000491456
0.000491988
0.000494027
0.000497645
0.000502957
0.000510103
0.00051924
0.000530544
0.000544209
0.000560445
0.000579478
0.00060155
0.000626916
0.000655843
0.00068861
0.000725512
0.000766874
0.000813075
0.0008646
0.000922129
0.000986676
0.00105982
0.00114403
0.00124312
0.00136269
0.00151034
0.00169478
0.00192265
0.0021919
0.00248305
0.00274399
0.00286203
0.00285787
0.00266044
0.00239998
0.00234654
0.00263194
0.00297177
0.000510177
0.000445596
0.00190773
0.00234205
0.00249133
0.00247908
0.00232247
0.00206892
0.00177493
0.00149401
0.00126153
0.00108853
0.000968842
0.000889601
0.000837907
0.000803309
0.000778201
0.000757562
0.000738502
0.000719704
0.00070085
0.000682133
0.000663905
0.000646476
0.000630037
0.000614656
0.000600305
0.000586911
0.00057438
0.000562627
0.000551587
0.000541217
0.0005315
0.000522439
0.000514055
0.000506385
0.000499475
0.00049338
0.000488163
0.00048389
0.000480636