/*--------------------------------*- C++ -*----------------------------------*\
  =========                 |
  \\      /  F ield         | OpenFOAM: The Open Source CFD Toolbox
   \\    /   O peration     | Website:  https://openfoam.org
    \\  /    A nd           | Version:  13
     \\/     M anipulation  |
\*---------------------------------------------------------------------------*/
FoamFile
{
    format      ascii;
    class       volScalarField;
    location    "5.1";
    object      nut;
}
// * * * * * * * * * * * * * * * * * * * * * * * * * * * * * * * * * * * * * //

dimensions      [0 2 -1 0 0 0 0];

internalField   nonuniform List<scalar> 
6400
(
8.15956e-10
4.18314e-09
1.00916e-08
1.62835e-08
2.10326e-08
2.37756e-08
2.48506e-08
2.50365e-08
2.5222e-08
2.61587e-08
2.84007e-08
3.27572e-08
3.96853e-08
4.93595e-08
6.13738e-08
7.51227e-08
8.99706e-08
1.05599e-07
1.21411e-07
1.3688e-07
1.52286e-07
1.68783e-07
1.88014e-07
2.11366e-07
2.38504e-07
2.66999e-07
2.9521e-07
3.23205e-07
3.51644e-07
3.81232e-07
4.11898e-07
4.42447e-07
4.72513e-07
5.01788e-07
5.31145e-07
5.60787e-07
5.91377e-07
6.23188e-07
6.56644e-07
6.91955e-07
7.29339e-07
7.6907e-07
8.114e-07
8.56762e-07
9.05408e-07
9.58412e-07
1.01799e-06
1.08895e-06
1.17458e-06
1.25535e-06
1.33945e-06
1.42001e-06
1.49793e-06
1.56946e-06
1.63275e-06
1.68461e-06
1.71821e-06
1.73395e-06
1.73884e-06
1.7179e-06
1.66855e-06
1.59273e-06
1.49105e-06
1.36579e-06
1.22183e-06
1.06406e-06
9.02327e-07
7.43006e-07
5.92316e-07
4.5447e-07
3.44262e-07
2.51417e-07
1.7589e-07
1.17741e-07
7.56949e-08
4.69162e-08
2.80932e-08
1.59853e-08
7.49524e-09
1.59113e-09
3.95722e-09
2.84245e-07
1.02131e-06
1.73659e-06
2.27473e-06
2.59733e-06
2.74942e-06
2.8058e-06
2.84196e-06
2.91392e-06
3.08774e-06
3.4262e-06
3.90765e-06
4.47907e-06
5.08496e-06
5.66514e-06
6.17751e-06
6.5799e-06
6.85131e-06
6.99685e-06
7.07127e-06
7.14836e-06
7.28728e-06
7.53057e-06
7.84573e-06
8.112e-06
8.32103e-06
8.54573e-06
8.82853e-06
9.20573e-06
9.70198e-06
1.02524e-05
1.08556e-05
1.14762e-05
1.21314e-05
1.28099e-05
1.35189e-05
1.42553e-05
1.50228e-05
1.58221e-05
1.66483e-05
1.7502e-05
1.83797e-05
1.93051e-05
2.02635e-05
2.12309e-05
2.21676e-05
2.30421e-05
2.38434e-05
2.47176e-05
2.55782e-05
2.6451e-05
2.73049e-05
2.81281e-05
2.88955e-05
2.96286e-05
3.02018e-05
3.0495e-05
3.07879e-05
3.0865e-05
3.06434e-05
3.00963e-05
2.92371e-05
2.80247e-05
2.64746e-05
2.46063e-05
2.25414e-05
2.03047e-05
1.79192e-05
1.54589e-05
1.26145e-05
9.81597e-06
7.31705e-06
5.24129e-06
3.62765e-06
2.44799e-06
1.61985e-06
1.0322e-06
4.6198e-07
8.40451e-09
8.67254e-09
7.47348e-07
3.05169e-06
5.36509e-06
7.15915e-06
8.33479e-06
9.00044e-06
9.34007e-06
9.54038e-06
9.77162e-06
1.01627e-05
1.07902e-05
1.16353e-05
1.26101e-05
1.35997e-05
1.44878e-05
1.52263e-05
1.57891e-05
1.617e-05
1.63784e-05
1.64304e-05
1.63914e-05
1.6347e-05
1.6342e-05
1.6405e-05
1.66085e-05
1.69365e-05
1.72424e-05
1.75725e-05
1.7916e-05
1.833e-05
1.88758e-05
1.97508e-05
2.0682e-05
2.17332e-05
2.28536e-05
2.40528e-05
2.53011e-05
2.65822e-05
2.79425e-05
2.9327e-05
3.07141e-05
3.21218e-05
3.34691e-05
3.47587e-05
3.59983e-05
3.72166e-05
3.84204e-05
3.96305e-05
4.08528e-05
4.20647e-05
4.32649e-05
4.4435e-05
4.5559e-05
4.66129e-05
4.7567e-05
4.83694e-05
4.90045e-05
4.93121e-05
4.95633e-05
4.94899e-05
4.91144e-05
4.84047e-05
4.72353e-05
4.55425e-05
4.32519e-05
4.05982e-05
3.75983e-05
3.42464e-05
3.05983e-05
2.66624e-05
2.25683e-05
1.85137e-05
1.47064e-05
1.1331e-05
8.47301e-06
6.18109e-06
4.21738e-06
1.741e-06
2.23375e-08
1.50602e-08
1.23196e-06
4.84502e-06
8.37501e-06
1.11316e-05
1.30355e-05
1.4222e-05
1.48977e-05
1.53001e-05
1.56513e-05
1.61362e-05
1.68732e-05
1.78476e-05
1.893e-05
1.99632e-05
2.08403e-05
2.14952e-05
2.19174e-05
2.21277e-05
2.21751e-05
2.21153e-05
2.20425e-05
2.20287e-05
2.21273e-05
2.21905e-05
2.22018e-05
2.21478e-05
2.23873e-05
2.29876e-05
2.38388e-05
2.50266e-05
2.61977e-05
2.73868e-05
2.85994e-05
2.98849e-05
3.11687e-05
3.2437e-05
3.37523e-05
3.50713e-05
3.6332e-05
3.75798e-05
3.87902e-05
3.99732e-05
4.11106e-05
4.22102e-05
4.32575e-05
4.43085e-05
4.53543e-05
4.63995e-05
4.7439e-05
4.84647e-05
4.94687e-05
5.04383e-05
5.13591e-05
5.22115e-05
5.2973e-05
5.36162e-05
5.41149e-05
5.44269e-05
5.45447e-05
5.4442e-05
5.40851e-05
5.33288e-05
5.25321e-05
5.14046e-05
4.96206e-05
4.73755e-05
4.46485e-05
4.15104e-05
3.80062e-05
3.41686e-05
3.00549e-05
2.57599e-05
2.14418e-05
1.72995e-05
1.3521e-05
1.02133e-05
7.10448e-06
2.91127e-06
3.68054e-08
2.4119e-08
1.85315e-06
6.76964e-06
1.13395e-05
1.4781e-05
1.71121e-05
1.8548e-05
1.93548e-05
1.98254e-05
2.02623e-05
2.09076e-05
2.18487e-05
2.29941e-05
2.41576e-05
2.5166e-05
2.59184e-05
2.63855e-05
2.65928e-05
2.65852e-05
2.64773e-05
2.62666e-05
2.61212e-05
2.59801e-05
2.54305e-05
2.52183e-05
2.55506e-05
2.64323e-05
2.74802e-05
2.86322e-05
2.98705e-05
3.11181e-05
3.23455e-05
3.35546e-05
3.47287e-05
3.58618e-05
3.68933e-05
3.79196e-05
3.89346e-05
3.97959e-05
4.06111e-05
4.13472e-05
4.20217e-05
4.26569e-05
4.32685e-05
4.38808e-05
4.45211e-05
4.51482e-05
4.57795e-05
4.6415e-05
4.70587e-05
4.77124e-05
4.83779e-05
4.90532e-05
4.97353e-05
5.04175e-05
5.10901e-05
5.17375e-05
5.23378e-05
5.28573e-05
5.32434e-05
5.34117e-05
5.34004e-05
5.29985e-05
5.20282e-05
5.10495e-05
5.00649e-05
4.83377e-05
4.6161e-05
4.35586e-05
4.05712e-05
3.72313e-05
3.35636e-05
2.95981e-05
2.54076e-05
2.11655e-05
1.70816e-05
1.32272e-05
9.23795e-06
3.7126e-06
4.651e-08
3.70296e-08
2.69171e-06
9.04692e-06
1.45894e-05
1.85254e-05
2.10471e-05
2.25094e-05
2.32946e-05
2.37979e-05
2.43746e-05
2.523e-05
2.6353e-05
2.75723e-05
2.86777e-05
2.95149e-05
3.00178e-05
3.01969e-05
3.01498e-05
2.97697e-05
2.94379e-05
2.91401e-05
2.81983e-05
2.79382e-05
2.84711e-05
2.93582e-05
3.03697e-05
3.14845e-05
3.26173e-05
3.37283e-05
3.47874e-05
3.57487e-05
3.66873e-05
3.75464e-05
3.8275e-05
3.89433e-05
3.94963e-05
3.99763e-05
4.04399e-05
4.07979e-05
4.11117e-05
4.13893e-05
4.16458e-05
4.18769e-05
4.20894e-05
4.22905e-05
4.24822e-05
4.26638e-05
4.28468e-05
4.30376e-05
4.32461e-05
4.34829e-05
4.37608e-05
4.4092e-05
4.44876e-05
4.49545e-05
4.5487e-05
4.6085e-05
4.67489e-05
4.7446e-05
4.81322e-05
4.87647e-05
4.92666e-05
4.94778e-05
4.9432e-05
4.86409e-05
4.80311e-05
4.69351e-05
4.53263e-05
4.32268e-05
4.07076e-05
3.78348e-05
3.46527e-05
3.11635e-05
2.73316e-05
2.32477e-05
1.9088e-05
1.49503e-05
1.04551e-05
4.08081e-06
4.97929e-08
5.49538e-08
3.79228e-06
1.17178e-05
1.81364e-05
2.23894e-05
2.49234e-05
2.6279e-05
2.69866e-05
2.75314e-05
2.82561e-05
2.92671e-05
3.0451e-05
3.15905e-05
3.24875e-05
3.30299e-05
3.3199e-05
3.28924e-05
3.24792e-05
3.21053e-05
3.10282e-05
3.06103e-05
3.08726e-05
3.16929e-05
3.24309e-05
3.32957e-05
3.42015e-05
3.51043e-05
3.59383e-05
3.66932e-05
3.73976e-05
3.8022e-05
3.85588e-05
3.89954e-05
3.93409e-05
3.962e-05
3.98262e-05
3.99877e-05
4.01063e-05
4.01673e-05
4.01952e-05
4.02315e-05
4.02114e-05
4.01802e-05
4.01255e-05
4.00552e-05
3.99664e-05
3.98628e-05
3.97456e-05
3.96237e-05
3.95002e-05
3.93847e-05
3.92908e-05
3.92414e-05
3.92683e-05
3.94214e-05
3.97005e-05
4.00951e-05
4.06845e-05
4.14476e-05
4.23252e-05
4.32779e-05
4.42519e-05
4.51714e-05
4.57725e-05
4.59834e-05
4.5284e-05
4.50611e-05
4.40289e-05
4.23645e-05
4.0166e-05
3.75438e-05
3.46196e-05
3.14638e-05
2.80474e-05
2.42348e-05
2.01771e-05
1.58667e-05
1.07616e-05
4.06699e-06
4.82554e-08
7.89846e-08
5.17596e-06
1.47247e-05
2.1887e-05
2.62883e-05
2.87106e-05
2.9898e-05
3.05217e-05
3.11064e-05
3.19247e-05
3.2971e-05
3.40591e-05
3.49626e-05
3.55174e-05
3.56706e-05
3.52351e-05
3.47973e-05
3.39908e-05
3.31336e-05
3.29761e-05
3.34699e-05
3.38551e-05
3.44747e-05
3.50927e-05
3.588e-05
3.65775e-05
3.72233e-05
3.777e-05
3.82365e-05
3.86237e-05
3.89272e-05
3.9157e-05
3.93212e-05
3.94354e-05
3.95117e-05
3.95534e-05
3.95701e-05
3.95608e-05
3.95294e-05
3.94739e-05
3.93993e-05
3.93463e-05
3.92331e-05
3.91042e-05
3.89646e-05
3.88053e-05
3.86337e-05
3.84487e-05
3.82442e-05
3.80228e-05
3.7781e-05
3.75192e-05
3.72329e-05
3.6917e-05
3.65625e-05
3.62542e-05
3.61214e-05
3.6185e-05
3.66215e-05
3.73413e-05
3.82819e-05
3.94766e-05
4.07135e-05
4.19702e-05
4.29372e-05
4.33387e-05
4.28079e-05
4.28949e-05
4.17596e-05
3.99034e-05
3.74283e-05
3.4521e-05
3.13838e-05
2.81307e-05
2.46408e-05
2.06816e-05
1.63046e-05
1.09077e-05
3.95918e-06
4.48311e-08
1.09955e-07
6.83393e-06
1.79872e-05
2.56965e-05
3.01311e-05
3.23701e-05
3.33678e-05
3.39039e-05
3.449e-05
3.53022e-05
3.62421e-05
3.70879e-05
3.76329e-05
3.77188e-05
3.7248e-05
3.67591e-05
3.56155e-05
3.50929e-05
3.51018e-05
3.51577e-05
3.53977e-05
3.5868e-05
3.64249e-05
3.69745e-05
3.75375e-05
3.79847e-05
3.83692e-05
3.8665e-05
3.89014e-05
3.90804e-05
3.92153e-05
3.93184e-05
3.93993e-05
3.94653e-05
3.95188e-05
3.95609e-05
3.95922e-05
3.96094e-05
3.96112e-05
3.95808e-05
3.95564e-05
3.9528e-05
3.94271e-05
3.93447e-05
3.92304e-05
3.91025e-05
3.89514e-05
3.87811e-05
3.85883e-05
3.83708e-05
3.81227e-05
3.7843e-05
3.75235e-05
3.71564e-05
3.67323e-05
3.62402e-05
3.56888e-05
3.5075e-05
3.44248e-05
3.41223e-05
3.4438e-05
3.53854e-05
3.65538e-05
3.8074e-05
3.96265e-05
4.09016e-05
4.13959e-05
4.12096e-05
4.12859e-05
4.00082e-05
3.78461e-05
3.49687e-05
3.16547e-05
2.81796e-05
2.46861e-05
2.0879e-05
1.63715e-05
1.06718e-05
3.68672e-06
4.12728e-08
1.48254e-07
8.7062e-06
2.13545e-05
2.94802e-05
3.38576e-05
3.58717e-05
3.66675e-05
3.70915e-05
3.76067e-05
3.82955e-05
3.89989e-05
3.94938e-05
3.94813e-05
3.90161e-05
3.85175e-05
3.73982e-05
3.69025e-05
3.67031e-05
3.64257e-05
3.66141e-05
3.69059e-05
3.73296e-05
3.77482e-05
3.81313e-05
3.84668e-05
3.87171e-05
3.89271e-05
3.90911e-05
3.92371e-05
3.93685e-05
3.94978e-05
3.96279e-05
3.97598e-05
3.98912e-05
4.00174e-05
4.01308e-05
4.02346e-05
4.03091e-05
4.03493e-05
4.03897e-05
4.03939e-05
4.03685e-05
4.03085e-05
4.02331e-05
4.01259e-05
3.99991e-05
3.98486e-05
3.96799e-05
3.94937e-05
3.92931e-05
3.90769e-05
3.88332e-05
3.85535e-05
3.82222e-05
3.78217e-05
3.73364e-05
3.6746e-05
3.60336e-05
3.5203e-05
3.43131e-05
3.34236e-05
3.27099e-05
3.31462e-05
3.43319e-05
3.58834e-05
3.76907e-05
3.93224e-05
4.00281e-05
3.99122e-05
4.00141e-05
3.85092e-05
3.59549e-05
3.26071e-05
2.87985e-05
2.48886e-05
2.09478e-05
1.64019e-05
1.05734e-05
3.48222e-06
3.87264e-08
1.943e-07
1.06525e-05
2.46869e-05
3.31556e-05
3.74208e-05
3.91856e-05
3.97601e-05
4.00235e-05
4.03774e-05
4.08297e-05
4.11918e-05
4.11017e-05
4.05722e-05
4.00181e-05
3.90752e-05
3.84395e-05
3.79504e-05
3.75837e-05
3.75103e-05
3.7721e-05
3.79712e-05
3.82783e-05
3.85437e-05
3.8776e-05
3.89706e-05
3.91349e-05
3.92996e-05
3.94665e-05
3.96514e-05
3.98509e-05
4.00658e-05
4.02884e-05
4.05117e-05
4.07249e-05
4.09485e-05
4.11201e-05
4.12245e-05
4.13656e-05
4.14604e-05
4.15151e-05
4.15356e-05
4.15234e-05
4.14787e-05
4.14059e-05
4.1302e-05
4.11723e-05
4.10162e-05
4.08364e-05
4.06334e-05
4.0408e-05
4.01596e-05
3.98878e-05
3.95922e-05
3.92715e-05
3.89232e-05
3.85426e-05
3.80685e-05
3.74569e-05
3.66663e-05
3.57038e-05
3.46006e-05
3.3439e-05
3.23495e-05
3.16968e-05
3.2593e-05
3.40723e-05
3.60862e-05
3.79757e-05
3.88473e-05
3.87752e-05
3.88416e-05
3.70099e-05
3.40161e-05
3.01237e-05
2.57714e-05
2.13329e-05
1.65437e-05
1.0601e-05
3.49146e-06
3.86991e-08
2.5094e-07
1.24452e-05
2.78848e-05
3.66606e-05
4.07832e-05
4.22791e-05
4.26004e-05
4.26382e-05
4.27364e-05
4.2852e-05
4.26608e-05
4.20322e-05
4.14293e-05
4.05559e-05
3.98153e-05
3.89974e-05
3.85588e-05
3.83066e-05
3.83216e-05
3.84815e-05
3.8652e-05
3.88466e-05
3.90122e-05
3.91784e-05
3.93483e-05
3.95396e-05
3.97645e-05
4.00196e-05
4.03043e-05
4.06068e-05
4.09182e-05
4.12261e-05
4.15488e-05
4.18366e-05
4.20527e-05
4.22461e-05
4.24274e-05
4.26021e-05
4.27044e-05
4.27799e-05
4.28158e-05
4.28177e-05
4.2785e-05
4.27199e-05
4.26228e-05
4.2496e-05
4.23405e-05
4.21581e-05
4.19495e-05
4.17156e-05
4.1456e-05
4.11698e-05
4.08545e-05
4.05063e-05
4.01204e-05
3.96922e-05
3.92187e-05
3.86971e-05
3.80916e-05
3.72893e-05
3.6237e-05
3.50085e-05
3.36269e-05
3.22381e-05
3.10702e-05
3.11828e-05
3.26467e-05
3.47187e-05
3.67616e-05
3.77143e-05
3.76618e-05
3.75517e-05
3.53358e-05
3.17931e-05
2.73247e-05
2.23866e-05
1.71957e-05
1.09976e-05
3.71051e-06
4.11841e-08
3.14456e-07
1.42301e-05
3.09379e-05
3.99614e-05
4.39149e-05
4.512e-05
4.51457e-05
4.48851e-05
4.46366e-05
4.42763e-05
4.35116e-05
4.2871e-05
4.1966e-05
4.11464e-05
4.00804e-05
3.93953e-05
3.90236e-05
3.88493e-05
3.88722e-05
3.89652e-05
3.90758e-05
3.92167e-05
3.93697e-05
3.95647e-05
3.98018e-05
4.0089e-05
4.04204e-05
4.07846e-05
4.11696e-05
4.15607e-05
4.19543e-05
4.23401e-05
4.26911e-05
4.2991e-05
4.32588e-05
4.35076e-05
4.37037e-05
4.38808e-05
4.40253e-05
4.41201e-05
4.41791e-05
4.41998e-05
4.41847e-05
4.41336e-05
4.40475e-05
4.39277e-05
4.37753e-05
4.35921e-05
4.33793e-05
4.31386e-05
4.28706e-05
4.25754e-05
4.22508e-05
4.1893e-05
4.1495e-05
4.10477e-05
4.05407e-05
3.99655e-05
3.93204e-05
3.86121e-05
3.77678e-05
3.66789e-05
3.53182e-05
3.37875e-05
3.22204e-05
3.08426e-05
3.01397e-05
3.15011e-05
3.35489e-05
3.56323e-05
3.65599e-05
3.64457e-05
3.60329e-05
3.32485e-05
2.9105e-05
2.40368e-05
1.84338e-05
1.20231e-05
4.28756e-06
4.93695e-08
3.8297e-07
1.59713e-05
3.38032e-05
4.30252e-05
4.67909e-05
4.76834e-05
4.73682e-05
4.67412e-05
4.60716e-05
4.5125e-05
4.44437e-05
4.3381e-05
4.2459e-05
4.12074e-05
4.02565e-05
3.96762e-05
3.93593e-05
3.92224e-05
3.9227e-05
3.92853e-05
3.93914e-05
3.95549e-05
3.97727e-05
4.00601e-05
4.0407e-05
4.08073e-05
4.12444e-05
4.17027e-05
4.21674e-05
4.26257e-05
4.30682e-05
4.34832e-05
4.38618e-05
4.42047e-05
4.45181e-05
4.48001e-05
4.50531e-05
4.52446e-05
4.53898e-05
4.55406e-05
4.56392e-05
4.56879e-05
4.56991e-05
4.56691e-05
4.5598e-05
4.54865e-05
4.5335e-05
4.51454e-05
4.49196e-05
4.46603e-05
4.43704e-05
4.40524e-05
4.37077e-05
4.33354e-05
4.29311e-05
4.2486e-05
4.19853e-05
4.14099e-05
4.07393e-05
3.99595e-05
3.90763e-05
3.80591e-05
3.68703e-05
3.54509e-05
3.38003e-05
3.21392e-05
3.05157e-05
2.93413e-05
3.05307e-05
3.25594e-05
3.4568e-05
3.53594e-05
3.5015e-05
3.40495e-05
3.05842e-05
2.58149e-05
2.00825e-05
1.33838e-05
5.22131e-06
6.65832e-08
4.5428e-07
1.76295e-05
3.64408e-05
4.58271e-05
4.9395e-05
4.99597e-05
4.9272e-05
4.82475e-05
4.70371e-05
4.62608e-05
4.48909e-05
4.38194e-05
4.24092e-05
4.12054e-05
4.03668e-05
3.98646e-05
3.95879e-05
3.94741e-05
3.94797e-05
3.95583e-05
3.97197e-05
3.99652e-05
4.02899e-05
4.06908e-05
4.11484e-05
4.16479e-05
4.21693e-05
4.26973e-05
4.32187e-05
4.37233e-05
4.42039e-05
4.46551e-05
4.50751e-05
4.54651e-05
4.58253e-05
4.61527e-05
4.64446e-05
4.67155e-05
4.69324e-05
4.70539e-05
4.72398e-05
4.73352e-05
4.73805e-05
4.7381e-05
4.73298e-05
4.72286e-05
4.70762e-05
4.68743e-05
4.66247e-05
4.63311e-05
4.59981e-05
4.56311e-05
4.5236e-05
4.48174e-05
4.43777e-05
4.39147e-05
4.3419e-05
4.28723e-05
4.22463e-05
4.15046e-05
4.06119e-05
3.95675e-05
3.83741e-05
3.68301e-05
3.52802e-05
3.36871e-05
3.19147e-05
3.00581e-05
2.85969e-05
2.96449e-05
3.16905e-05
3.34758e-05
3.3958e-05
3.34926e-05
3.14159e-05
2.72733e-05
2.17427e-05
1.49324e-05
6.21558e-06
9.10469e-08
5.26097e-07
1.91711e-05
3.8824e-05
4.83547e-05
5.17198e-05
5.19543e-05
5.08653e-05
4.93166e-05
4.83237e-05
4.6639e-05
4.53128e-05
4.37378e-05
4.22911e-05
4.11694e-05
4.04283e-05
3.9986e-05
3.97488e-05
3.96715e-05
3.97186e-05
3.98686e-05
4.01266e-05
4.04818e-05
4.09209e-05
4.14272e-05
4.19778e-05
4.25547e-05
4.31401e-05
4.37215e-05
4.42894e-05
4.48378e-05
4.53632e-05
4.58639e-05
4.63398e-05
4.67905e-05
4.72142e-05
4.76084e-05
4.79706e-05
4.82983e-05
4.86127e-05
4.88036e-05
4.89929e-05
4.9193e-05
4.92724e-05
4.93145e-05
4.92895e-05
4.92034e-05
4.90523e-05
4.88371e-05
4.8559e-05
4.82213e-05
4.78293e-05
4.73903e-05
4.69134e-05
4.64087e-05
4.58858e-05
4.53521e-05
4.48097e-05
4.42513e-05
4.36572e-05
4.2991e-05
4.21998e-05
4.12203e-05
4.00645e-05
3.87663e-05
3.67936e-05
3.49898e-05
3.3426e-05
3.15391e-05
2.94707e-05
2.78359e-05
2.88017e-05
3.09661e-05
3.22862e-05
3.22902e-05
3.15799e-05
2.81901e-05
2.31096e-05
1.64286e-05
7.18914e-06
1.21081e-07
5.96446e-07
2.05596e-05
4.09442e-05
5.06289e-05
5.37596e-05
5.35309e-05
5.20193e-05
5.06103e-05
4.87386e-05
4.70426e-05
4.52635e-05
4.35675e-05
4.21461e-05
4.11171e-05
4.04582e-05
4.00723e-05
3.98896e-05
3.98762e-05
4.00033e-05
4.0256e-05
4.0626e-05
4.1092e-05
4.16333e-05
4.2227e-05
4.28513e-05
4.34896e-05
4.41282e-05
4.47591e-05
4.53768e-05
4.59791e-05
4.65647e-05
4.71331e-05
4.76835e-05
4.82139e-05
4.87212e-05
4.92014e-05
4.96503e-05
5.00628e-05
5.04691e-05
5.07371e-05
5.09569e-05
5.12607e-05
5.13858e-05
5.14753e-05
5.1484e-05
5.14195e-05
5.12762e-05
5.10533e-05
5.07506e-05
5.03703e-05
4.99166e-05
4.93969e-05
4.88213e-05
4.8203e-05
4.75572e-05
4.69e-05
4.62453e-05
4.56012e-05
4.4965e-05
4.43173e-05
4.36162e-05
4.27935e-05
4.17566e-05
4.05052e-05
3.88997e-05
3.6677e-05
3.4578e-05
3.29988e-05
3.09783e-05
2.86704e-05
2.70364e-05
2.80296e-05
3.01541e-05
3.12683e-05
3.04004e-05
2.84904e-05
2.40623e-05
1.76871e-05
8.02809e-06
1.54831e-07
6.6464e-07
2.17815e-05
4.28141e-05
5.25632e-05
5.53219e-05
5.47975e-05
5.34773e-05
5.14139e-05
4.90877e-05
4.70759e-05
4.5102e-05
4.33593e-05
4.19986e-05
4.10611e-05
4.04773e-05
4.01576e-05
4.00513e-05
4.01277e-05
4.03582e-05
4.0723e-05
4.12014e-05
4.17657e-05
4.23919e-05
4.30569e-05
4.37423e-05
4.44354e-05
4.51275e-05
4.58148e-05
4.64952e-05
4.71682e-05
4.78332e-05
4.84888e-05
4.91324e-05
4.97597e-05
5.03658e-05
5.09447e-05
5.14901e-05
5.19989e-05
5.24955e-05
5.28355e-05
5.31163e-05
5.35022e-05
5.36868e-05
5.38245e-05
5.38727e-05
5.38364e-05
5.37094e-05
5.3489e-05
5.31732e-05
5.27621e-05
5.22578e-05
5.16656e-05
5.09944e-05
5.02576e-05
4.94725e-05
4.86604e-05
4.78445e-05
4.70465e-05
4.62819e-05
4.55535e-05
4.48436e-05
4.41056e-05
4.32563e-05
4.21712e-05
4.08241e-05
3.88263e-05
3.64051e-05
3.4071e-05
3.23954e-05
3.02221e-05
2.76702e-05
2.62984e-05
2.73245e-05
2.89149e-05
2.94188e-05
2.83329e-05
2.45879e-05
1.86271e-05
8.68019e-06
1.90828e-07
7.28016e-07
2.28342e-05
4.43298e-05
5.40449e-05
5.65083e-05
5.62283e-05
5.42961e-05
5.1727e-05
4.93622e-05
4.69804e-05
4.4882e-05
4.31451e-05
4.18628e-05
4.10133e-05
4.0507e-05
4.02695e-05
4.02589e-05
4.04403e-05
4.07804e-05
4.12521e-05
4.18263e-05
4.2474e-05
4.31711e-05
4.38978e-05
4.46405e-05
4.53912e-05
4.61459e-05
4.69035e-05
4.76638e-05
4.8426e-05
4.91883e-05
4.99471e-05
5.0697e-05
5.14315e-05
5.21431e-05
5.28238e-05
5.34658e-05
5.40743e-05
5.46538e-05
5.50567e-05
5.54106e-05
5.58591e-05
5.61065e-05
5.62908e-05
5.63808e-05
5.63777e-05
5.6275e-05
5.60686e-05
5.57548e-05
5.53309e-05
5.47963e-05
5.4153e-05
5.34068e-05
5.25681e-05
5.16531e-05
5.0684e-05
4.96884e-05
4.86977e-05
4.77424e-05
4.68466e-05
4.60191e-05
4.52442e-05
4.44721e-05
4.36087e-05
4.25062e-05
4.09243e-05
3.85459e-05
3.59756e-05
3.34861e-05
3.16535e-05
2.919e-05
2.63282e-05
2.56335e-05
2.68851e-05
2.78354e-05
2.71207e-05
2.46583e-05
1.91965e-05
9.15345e-06
2.27826e-07
7.84114e-07
2.36859e-05
4.54873e-05
5.51642e-05
5.7676e-05
5.72917e-05
5.50447e-05
5.21275e-05
4.93597e-05
4.68034e-05
4.46397e-05
4.29432e-05
4.17469e-05
4.09848e-05
4.05646e-05
4.04239e-05
4.05197e-05
4.08092e-05
4.12539e-05
4.18206e-05
4.24774e-05
4.31965e-05
4.39568e-05
4.47432e-05
4.55473e-05
4.63653e-05
4.71964e-05
4.80407e-05
4.88975e-05
4.97643e-05
5.06365e-05
5.15074e-05
5.23687e-05
5.32114e-05
5.40259e-05
5.48031e-05
5.55343e-05
5.62328e-05
5.68845e-05
5.73393e-05
5.77582e-05
5.82606e-05
5.85634e-05
5.87902e-05
5.89205e-05
5.89524e-05
5.88799e-05
5.86976e-05
5.84002e-05
5.79829e-05
5.74419e-05
5.67756e-05
5.59851e-05
5.50763e-05
5.40608e-05
5.29579e-05
5.17947e-05
5.06062e-05
4.94329e-05
4.83153e-05
4.72857e-05
4.63574e-05
4.55132e-05
4.46939e-05
4.37917e-05
4.26453e-05
4.07645e-05
3.80546e-05
3.53886e-05
3.27311e-05
3.07141e-05
2.77727e-05
2.49323e-05
2.48383e-05
2.58534e-05
2.62273e-05
2.44687e-05
1.94399e-05
9.40188e-06
2.66841e-07
8.31395e-07
2.43331e-05
4.63102e-05
5.60206e-05
5.86081e-05
5.80084e-05
5.53383e-05
5.22988e-05
4.92657e-05
4.65818e-05
4.43981e-05
4.27635e-05
4.16564e-05
4.09843e-05
4.06597e-05
4.06244e-05
4.0828e-05
4.12205e-05
4.17596e-05
4.24094e-05
4.31385e-05
4.39224e-05
4.47445e-05
4.55948e-05
4.64695e-05
4.73679e-05
4.82902e-05
4.92358e-05
5.02017e-05
5.11822e-05
5.21692e-05
5.31527e-05
5.41218e-05
5.50655e-05
5.59728e-05
5.68342e-05
5.76409e-05
5.84115e-05
5.91218e-05
5.96206e-05
6.0088e-05
6.06321e-05
6.09808e-05
6.12434e-05
6.14093e-05
6.1475e-05
6.1435e-05
6.12835e-05
6.1014e-05
6.06201e-05
6.00953e-05
5.94342e-05
5.86332e-05
5.76926e-05
5.66177e-05
5.54213e-05
5.41257e-05
5.2764e-05
5.13799e-05
5.00246e-05
4.87501e-05
4.75978e-05
4.65844e-05
4.5685e-05
4.48178e-05
4.38289e-05
4.2479e-05
4.01667e-05
3.7386e-05
3.46526e-05
3.17678e-05
2.9362e-05
2.59823e-05
2.39367e-05
2.41637e-05
2.46957e-05
2.35363e-05
1.93843e-05
9.52327e-06
3.07122e-07
8.69185e-07
2.47892e-05
4.68484e-05
5.66348e-05
5.92921e-05
5.85779e-05
5.57341e-05
5.23426e-05
4.91107e-05
4.63417e-05
4.41707e-05
4.26104e-05
4.15944e-05
4.10166e-05
4.0794e-05
4.08656e-05
4.11721e-05
4.16587e-05
4.22816e-05
4.30051e-05
4.38005e-05
4.46478e-05
4.55353e-05
4.64579e-05
4.74148e-05
4.84065e-05
4.94323e-05
5.0489e-05
5.15701e-05
5.26659e-05
5.37649e-05
5.48542e-05
5.59208e-05
5.69522e-05
5.79375e-05
5.88669e-05
5.97326e-05
6.0553e-05
6.1308e-05
6.18464e-05
6.23419e-05
6.29117e-05
6.32971e-05
6.35867e-05
6.37812e-05
6.38766e-05
6.3868e-05
6.37499e-05
6.35154e-05
6.31569e-05
6.26661e-05
6.20344e-05
6.1254e-05
6.03194e-05
5.92288e-05
5.7987e-05
5.66079e-05
5.51176e-05
5.35564e-05
5.1978e-05
5.04465e-05
4.90267e-05
4.77705e-05
4.66988e-05
4.57843e-05
4.49368e-05
4.39886e-05
4.21067e-05
3.93081e-05
3.65697e-05
3.36903e-05
3.056e-05
2.7539e-05
2.38989e-05
2.29254e-05
2.29083e-05
2.26664e-05
1.92974e-05
9.73636e-06
3.54703e-07
8.97188e-07
2.50538e-05
4.71625e-05
5.69889e-05
5.9801e-05
5.8821e-05
5.5888e-05
5.22997e-05
4.89185e-05
4.61003e-05
4.39646e-05
4.24855e-05
4.15621e-05
4.10819e-05
4.09633e-05
4.1138e-05
4.15392e-05
4.21106e-05
4.28088e-05
4.36001e-05
4.44599e-05
4.53731e-05
4.63328e-05
4.73374e-05
4.83874e-05
4.94826e-05
5.06195e-05
5.17912e-05
5.29868e-05
5.4193e-05
5.53951e-05
5.65779e-05
5.77273e-05
5.88305e-05
5.98767e-05
6.08572e-05
6.1765e-05
6.26128e-05
6.33992e-05
6.39753e-05
6.44785e-05
6.50566e-05
6.54696e-05
6.57768e-05
6.59914e-05
6.611e-05
6.61289e-05
6.60428e-05
6.58455e-05
6.55289e-05
6.50836e-05
6.4499e-05
6.37638e-05
6.28674e-05
6.18013e-05
6.05617e-05
5.91527e-05
5.75898e-05
5.59041e-05
5.41444e-05
5.23773e-05
5.06809e-05
4.91321e-05
4.7787e-05
4.66582e-05
4.56937e-05
4.47632e-05
4.36481e-05
4.12943e-05
3.82744e-05
3.54244e-05
3.23058e-05
2.89758e-05
2.5233e-05
2.24034e-05
2.19358e-05
2.19605e-05
1.92021e-05
1.02087e-05
4.1805e-07
9.15863e-07
2.51571e-05
4.72319e-05
5.70593e-05
5.99818e-05
5.91041e-05
5.59506e-05
5.21975e-05
4.87074e-05
4.58683e-05
4.37828e-05
4.23882e-05
4.15583e-05
4.11772e-05
4.11604e-05
4.14313e-05
4.19188e-05
4.2567e-05
4.33344e-05
4.41907e-05
4.5116e-05
4.61001e-05
4.71398e-05
4.82354e-05
4.93869e-05
5.05913e-05
5.18414e-05
5.31259e-05
5.44298e-05
5.57364e-05
5.70286e-05
5.829e-05
5.95062e-05
6.06647e-05
6.17556e-05
6.27713e-05
6.37063e-05
6.45618e-05
6.5367e-05
6.59806e-05
6.64737e-05
6.70427e-05
6.74745e-05
6.77901e-05
6.80158e-05
6.81498e-05
6.81895e-05
6.81311e-05
6.79689e-05
6.76953e-05
6.73007e-05
6.67733e-05
6.60997e-05
6.52655e-05
6.42563e-05
6.30604e-05
6.16717e-05
6.00937e-05
5.83446e-05
5.64623e-05
5.45078e-05
5.25637e-05
5.07262e-05
4.90866e-05
4.77062e-05
4.65883e-05
4.56566e-05
4.47445e-05
4.30022e-05
4.00909e-05
3.73015e-05
3.39352e-05
3.04008e-05
2.67892e-05
2.25172e-05
2.09352e-05
2.02613e-05
1.87866e-05
1.08896e-05
5.0089e-07
9.25276e-07
2.50969e-05
4.70495e-05
5.70021e-05
6.01207e-05
5.91628e-05
5.59236e-05
5.20542e-05
4.84906e-05
4.56522e-05
4.3626e-05
4.23172e-05
4.15808e-05
4.12976e-05
4.13775e-05
4.17369e-05
4.2303e-05
4.30218e-05
4.38549e-05
4.47758e-05
4.57696e-05
4.68302e-05
4.79569e-05
4.915e-05
5.04072e-05
5.17218e-05
5.30822e-05
5.44726e-05
5.58746e-05
5.72687e-05
5.86366e-05
5.99614e-05
6.12288e-05
6.24274e-05
6.35482e-05
6.4585e-05
6.55333e-05
6.63906e-05
6.71976e-05
6.78485e-05
6.83184e-05
6.88623e-05
6.93044e-05
6.962e-05
6.98478e-05
6.99886e-05
7.00414e-05
7.00036e-05
6.9871e-05
6.9637e-05
6.92925e-05
6.88257e-05
6.8222e-05
6.74646e-05
6.65349e-05
6.54146e-05
6.40882e-05
6.25471e-05
6.0795e-05
5.88545e-05
5.67733e-05
5.46278e-05
5.25201e-05
5.05644e-05
4.88612e-05
4.74636e-05
4.63461e-05
4.53872e-05
4.43674e-05
4.19468e-05
3.87749e-05
3.58645e-05
3.20796e-05
2.80804e-05
2.37757e-05
2.08061e-05
1.93098e-05
1.8381e-05
1.14745e-05
5.99681e-07
9.24861e-07
2.49385e-05
4.68024e-05
5.68045e-05
6.0149e-05
5.91227e-05
5.58288e-05
5.18846e-05
4.82773e-05
4.54557e-05
4.34938e-05
4.22702e-05
4.1626e-05
4.14375e-05
4.16077e-05
4.20481e-05
4.26866e-05
4.34716e-05
4.43684e-05
4.5355e-05
4.64209e-05
4.75631e-05
4.87816e-05
5.00752e-05
5.14383e-05
5.28598e-05
5.43235e-05
5.58099e-05
5.72975e-05
5.87656e-05
6.0195e-05
6.1569e-05
6.28743e-05
6.41005e-05
6.52397e-05
6.62869e-05
6.72387e-05
6.80932e-05
6.88864e-05
6.95726e-05
7.00161e-05
7.05202e-05
7.09642e-05
7.12727e-05
7.14944e-05
7.16336e-05
7.16908e-05
7.16654e-05
7.15544e-05
7.13531e-05
7.10534e-05
7.06445e-05
7.01118e-05
6.94373e-05
6.85998e-05
6.75762e-05
6.63433e-05
6.48817e-05
6.31805e-05
6.12453e-05
5.91058e-05
5.68243e-05
5.44985e-05
5.22553e-05
5.02289e-05
4.8525e-05
4.71776e-05
4.61187e-05
4.51754e-05
4.33862e-05
4.02767e-05
3.75984e-05
3.37009e-05
2.96153e-05
2.5242e-05
2.07501e-05
1.89034e-05
1.80031e-05
1.21077e-05
7.12163e-07
9.1992e-07
2.46831e-05
4.641e-05
5.64226e-05
5.99592e-05
5.89812e-05
5.56799e-05
5.16995e-05
4.8074e-05
4.52806e-05
4.33849e-05
4.2245e-05
4.16903e-05
4.15917e-05
4.18455e-05
4.23605e-05
4.30661e-05
4.39142e-05
4.48739e-05
4.59278e-05
4.70687e-05
4.82957e-05
4.9608e-05
5.10017e-05
5.24672e-05
5.39889e-05
5.55465e-05
5.71172e-05
5.8678e-05
6.0207e-05
6.16852e-05
6.30968e-05
6.44295e-05
6.56739e-05
6.68236e-05
6.78748e-05
6.88255e-05
6.96754e-05
7.04401e-05
7.11375e-05
7.15825e-05
7.20295e-05
7.24675e-05
7.27627e-05
7.29714e-05
7.3101e-05
7.31543e-05
7.31321e-05
7.30337e-05
7.28559e-05
7.25927e-05
7.22345e-05
7.17679e-05
7.11749e-05
7.04335e-05
6.95174e-05
6.83979e-05
6.70465e-05
6.54395e-05
6.35652e-05
6.14329e-05
5.90842e-05
5.66017e-05
5.41106e-05
5.17653e-05
4.97153e-05
4.80553e-05
4.6774e-05
4.57241e-05
4.46291e-05
4.1945e-05
3.89964e-05
3.57514e-05
3.10637e-05
2.64606e-05
2.13912e-05
1.8413e-05
1.68608e-05
1.27135e-05
8.21354e-07
9.08872e-07
2.43762e-05
4.57589e-05
5.59098e-05
5.96446e-05
5.87539e-05
5.54885e-05
5.15071e-05
4.78849e-05
4.51277e-05
4.32981e-05
4.22391e-05
4.17703e-05
4.17561e-05
4.2087e-05
4.26708e-05
4.34394e-05
4.43483e-05
4.53705e-05
4.64926e-05
4.77104e-05
4.9023e-05
5.04282e-05
5.19185e-05
5.348e-05
5.50929e-05
5.67336e-05
5.8377e-05
5.99989e-05
6.15775e-05
6.30943e-05
6.45345e-05
6.58868e-05
6.71432e-05
6.82984e-05
6.93495e-05
7.02954e-05
7.11369e-05
7.18762e-05
7.25586e-05
7.30221e-05
7.34071e-05
7.3832e-05
7.41094e-05
7.42992e-05
7.44125e-05
7.44539e-05
7.44263e-05
7.43308e-05
7.41664e-05
7.3929e-05
7.36114e-05
7.32017e-05
7.26834e-05
7.20345e-05
7.12277e-05
7.02308e-05
6.90087e-05
6.75271e-05
6.57584e-05
6.36917e-05
6.13447e-05
5.87772e-05
5.61011e-05
5.34768e-05
5.10879e-05
4.90909e-05
4.75521e-05
4.63994e-05
4.54161e-05
4.33046e-05
4.01602e-05
3.74888e-05
3.26317e-05
2.78772e-05
2.2784e-05
1.86969e-05
1.59211e-05
1.3146e-05
9.01957e-07
8.91837e-07
2.39897e-05
4.5047e-05
5.52922e-05
5.92205e-05
5.84544e-05
5.52641e-05
5.13136e-05
4.77129e-05
4.49972e-05
4.32321e-05
4.22503e-05
4.18629e-05
4.19272e-05
4.23292e-05
4.29767e-05
4.38048e-05
4.47724e-05
4.58565e-05
4.7047e-05
4.83413e-05
4.97381e-05
5.12326e-05
5.28135e-05
5.44627e-05
5.61568e-05
5.78696e-05
5.95747e-05
6.12474e-05
6.28663e-05
6.44138e-05
6.58761e-05
6.72431e-05
6.85078e-05
6.96657e-05
7.07146e-05
7.16537e-05
7.24837e-05
7.32058e-05
7.38611e-05
7.43448e-05
7.46712e-05
7.50766e-05
7.53328e-05
7.54995e-05
7.55909e-05
7.56138e-05
7.55727e-05
7.54708e-05
7.53093e-05
7.50866e-05
7.47977e-05
7.44332e-05
7.39786e-05
7.34135e-05
7.27107e-05
7.18367e-05
7.07522e-05
6.94149e-05
6.77843e-05
6.58304e-05
6.35461e-05
6.0964e-05
5.81719e-05
5.53207e-05
5.2611e-05
5.02477e-05
4.83675e-05
4.69632e-05
4.58458e-05
4.43674e-05
4.12497e-05
3.89262e-05
3.46594e-05
2.91409e-05
2.40004e-05
1.8989e-05
1.55159e-05
1.33044e-05
9.36092e-07
8.69637e-07
2.34992e-05
4.42189e-05
5.45953e-05
5.86965e-05
5.8093e-05
5.50142e-05
5.11235e-05
4.756e-05
4.48891e-05
4.31857e-05
4.22767e-05
4.19656e-05
4.21024e-05
4.25697e-05
4.32765e-05
4.41607e-05
4.51848e-05
4.63294e-05
4.75871e-05
4.89559e-05
5.04332e-05
5.20112e-05
5.36748e-05
5.54023e-05
5.71673e-05
5.8942e-05
6.0699e-05
6.24139e-05
6.40659e-05
6.56385e-05
6.71188e-05
6.84978e-05
6.97692e-05
7.09292e-05
7.19759e-05
7.29089e-05
7.3729e-05
7.44381e-05
7.50607e-05
7.55546e-05
7.58435e-05
7.62184e-05
7.64514e-05
7.65923e-05
7.66578e-05
7.66566e-05
7.65951e-05
7.64786e-05
7.63103e-05
7.60911e-05
7.58187e-05
7.54864e-05
7.50825e-05
7.45886e-05
7.39795e-05
7.32218e-05
7.22745e-05
7.10898e-05
6.96173e-05
6.78109e-05
6.56404e-05
6.31088e-05
6.02733e-05
5.72629e-05
5.42792e-05
5.15646e-05
4.93301e-05
4.76629e-05
4.64548e-05
4.53865e-05
4.26189e-05
3.99661e-05
3.65717e-05
3.03121e-05
2.48781e-05
1.91128e-05
1.56931e-05
1.32966e-05
9.41154e-07
8.43418e-07
2.29679e-05
4.3303e-05
5.38177e-05
5.80917e-05
5.76796e-05
5.47447e-05
5.09399e-05
4.74273e-05
4.48033e-05
4.31577e-05
4.23165e-05
4.20759e-05
4.22793e-05
4.28067e-05
4.35684e-05
4.45053e-05
4.55833e-05
4.67862e-05
4.81082e-05
4.95476e-05
5.10998e-05
5.27539e-05
5.44914e-05
5.62874e-05
5.81136e-05
5.99408e-05
6.17415e-05
6.34917e-05
6.51716e-05
6.67654e-05
6.82616e-05
6.96515e-05
7.09297e-05
7.20926e-05
7.31385e-05
7.40671e-05
7.48794e-05
7.5578e-05
7.61678e-05
7.66572e-05
7.69464e-05
7.72675e-05
7.748e-05
7.75941e-05
7.7631e-05
7.76016e-05
7.75142e-05
7.7376e-05
7.71923e-05
7.69665e-05
7.66989e-05
7.6386e-05
7.60188e-05
7.55822e-05
7.50534e-05
7.44007e-05
7.35831e-05
7.25504e-05
7.12453e-05
6.96089e-05
6.75907e-05
6.51651e-05
6.23549e-05
5.92566e-05
5.60554e-05
5.30101e-05