/*--------------------------------*- C++ -*----------------------------------*\
  =========                 |
  \\      /  F ield         | OpenFOAM: The Open Source CFD Toolbox
   \\    /   O peration     | Website:  https://openfoam.org
    \\  /    A nd           | Version:  13
     \\/     M anipulation  |
\*---------------------------------------------------------------------------*/
FoamFile
{
    format      ascii;
    class       surfaceScalarField;
    location    "5.1";
    object      phi;
}
// * * * * * * * * * * * * * * * * * * * * * * * * * * * * * * * * * * * * * //

dimensions      [0 3 -1 0 0 0 0];

internalField   nonuniform List<scalar> 
12640
(
1.61164e-09
-1.61135e-09
1.42396e-08
-1.26279e-08
3.63974e-08
-2.21579e-08
6.20796e-08
-2.56822e-08
8.54346e-08
-2.33551e-08
1.03084e-07
-1.7649e-08
1.13736e-07
-1.0652e-08
1.18126e-07
-4.39058e-09
1.18329e-07
-2.03283e-10
1.16519e-07
1.81088e-09
1.14534e-07
1.98447e-09
1.13591e-07
9.43356e-10
1.14106e-07
-5.15286e-10
1.15812e-07
-1.70589e-09
1.17962e-07
-2.14981e-09
1.19696e-07
-1.73381e-09
1.20196e-07
-5.00498e-10
1.1896e-07
1.2361e-09
1.15272e-07
3.68752e-09
1.08254e-07
7.01811e-09
9.72672e-08
1.0987e-08
8.18042e-08
1.54631e-08
6.14032e-08
2.04009e-08
3.58803e-08
2.55229e-08
5.22642e-09
3.06538e-08
-3.06998e-08
3.59262e-08
-7.28989e-08
4.21991e-08
-1.2338e-07
5.04812e-08
-1.84756e-07
6.13763e-08
-2.59405e-07
7.46481e-08
-3.47216e-07
8.78118e-08
-4.45456e-07
9.82392e-08
-5.50931e-07
1.05476e-07
-6.60442e-07
1.0951e-07
-7.71094e-07
1.10652e-07
-8.80314e-07
1.0922e-07
-9.85933e-07
1.05618e-07
-1.08617e-06
1.00234e-07
-1.17957e-06
9.34041e-08
-1.26501e-06
8.54384e-08
-1.34156e-06
7.65496e-08
-1.40847e-06
6.69063e-08
-1.46508e-06
5.66136e-08
-1.5108e-06
4.572e-08
-1.54502e-06
3.42175e-08
-1.56705e-06
2.20316e-08
-1.57714e-06
1.00872e-08
-1.57476e-06
-2.37683e-09
-1.55816e-06
-1.65967e-08
-1.52833e-06
-2.98308e-08
-1.48386e-06
-4.44681e-08
-1.42516e-06
-5.87019e-08
-1.35201e-06
-7.31505e-08
-1.26491e-06
-8.71009e-08
-1.16439e-06
-1.0052e-07
-1.05123e-06
-1.1316e-07
-9.26597e-07
-1.24632e-07
-7.92099e-07
-1.34498e-07
-6.49814e-07
-1.42285e-07
-5.02461e-07
-1.47353e-07
-3.53328e-07
-1.49134e-07
-2.06139e-07
-1.47189e-07
-6.49199e-08
-1.41219e-07
6.63463e-08
-1.31266e-07
1.83621e-07
-1.17274e-07
2.82276e-07
-9.86552e-08
3.59131e-07
-7.68554e-08
4.11391e-07
-5.22597e-08
4.37373e-07
-2.5982e-08
4.36473e-07
9.00353e-10
4.10269e-07
2.62041e-08
3.61454e-07
4.88146e-08
2.95454e-07
6.60003e-08
2.21182e-07
7.4272e-08
1.49951e-07
7.12304e-08
8.92799e-08
6.06714e-08
4.34933e-08
4.57866e-08
1.37151e-08
2.97782e-08
2.9684e-10
1.34182e-08
2.96839e-10
9.81949e-09
-1.14308e-08
4.03014e-08
-4.31099e-08
8.28736e-08
-6.473e-08
1.26782e-07
-6.9591e-08
1.64763e-07
-6.13357e-08
1.93081e-07
-4.59669e-08
2.10983e-07
-2.8554e-08
2.19359e-07
-1.27665e-08
2.19916e-07
-7.607e-10
2.14861e-07
6.86617e-09
2.06346e-07
1.04998e-08
1.95829e-07
1.14599e-08
1.83779e-07
1.15351e-08
1.69689e-07
1.23833e-08
1.5254e-07
1.49996e-08
1.31188e-07
1.96184e-08
1.04753e-07
2.59341e-08
7.21472e-08
3.38421e-08
3.21884e-08
4.36463e-08
-1.64858e-08
5.56924e-08
-7.5685e-08
7.01862e-08
-1.47238e-07
8.70158e-08
-2.32413e-07
1.05576e-07
-3.32035e-07
1.25145e-07
-4.46668e-07
1.45286e-07
-5.76239e-07
1.65498e-07
-7.18943e-07
1.84903e-07
-8.7108e-07
2.02618e-07
-1.02784e-06
2.18138e-07
-1.18373e-06
2.30535e-07
-1.33487e-06
2.38952e-07
-1.47972e-06
2.43088e-07
-1.61697e-06
2.42727e-07
-1.74532e-06
2.37859e-07
-1.8637e-06
2.29033e-07
-1.97139e-06
2.16912e-07
-2.06787e-06
2.02094e-07
-2.15279e-06
1.8516e-07
-2.22593e-06
1.66539e-07
-2.28711e-06
1.46624e-07
-2.33623e-06
1.25666e-07
-2.37316e-06
1.03834e-07
-2.39778e-06
8.12361e-08
-2.40999e-06
5.79259e-08
-2.4097e-06
3.39359e-08
-2.3967e-06
9.03146e-09
-2.37067e-06
-1.59437e-08
-2.3313e-06
-4.1751e-08
-2.27909e-06
-6.88103e-08
-2.2129e-06
-9.60133e-08
-2.13343e-06
-1.23944e-07
-2.04013e-06
-1.51998e-07
-1.93318e-06
-1.80105e-07
-1.81249e-06
-2.07784e-07
-1.67842e-06
-2.34598e-07
-1.5318e-06
-2.59775e-07
-1.37387e-06
-2.82563e-07
-1.20619e-06
-3.02176e-07
-1.03099e-06
-3.17482e-07
-8.50793e-07
-3.27554e-07
-6.6849e-07
-3.31437e-07
-4.87411e-07
-3.28267e-07
-3.1123e-07
-3.174e-07
-1.43806e-07
-2.9869e-07
1.09381e-08
-2.72018e-07
1.502e-07
-2.37917e-07
2.69931e-07
-1.96586e-07
3.6735e-07
-1.49679e-07
4.39968e-07
-9.86005e-08
4.86186e-07
-4.53171e-08
5.05765e-07
6.6248e-09
4.97572e-07
5.7008e-08
4.63992e-07
9.95802e-08
4.06658e-07
1.31605e-07
3.28155e-07
1.49734e-07
2.38151e-07
1.50675e-07
1.48897e-07
1.3504e-07
7.29517e-08
1.05724e-07
2.09699e-08
6.54001e-08
2.12667e-08
1.84126e-08
-2.98434e-08
6.16139e-08
-8.63112e-08
1.11017e-07
-1.14133e-07
1.55213e-07
-1.13787e-07
1.89619e-07
-9.57421e-08
2.131e-07
-6.94481e-08
2.26183e-07
-4.16366e-08
2.29783e-07
-1.63663e-08
2.24999e-07
4.02283e-09
2.13166e-07
1.86993e-08
1.9568e-07
2.7986e-08
1.73131e-07
3.40089e-08
1.45346e-07
3.93202e-08
1.11572e-07
4.61568e-08
7.06746e-08
5.58974e-08
2.12999e-08
6.89931e-08
-3.81863e-08
8.54203e-08
-1.09534e-07
1.0519e-07
-1.94225e-07
1.28336e-07
-2.93499e-07
1.54967e-07
-4.07974e-07
1.84662e-07
-5.3741e-07
2.16451e-07
-6.80867e-07
2.49034e-07
-8.36302e-07
2.8058e-07
-1.00066e-06
3.09643e-07
-1.16999e-06
3.34825e-07
-1.34016e-06
3.5508e-07
-1.50735e-06
3.69808e-07
-1.66798e-06
3.78765e-07
-1.8193e-06
3.81857e-07
-1.9596e-06
3.79247e-07
-2.08775e-06
3.71239e-07
-2.20348e-06
3.58461e-07
-2.30714e-06
3.41516e-07
-2.39902e-06
3.20917e-07
-2.47949e-06
2.97375e-07
-2.54884e-06
2.71451e-07
-2.60737e-06
2.43687e-07
-2.65526e-06
2.14432e-07
-2.69266e-06
1.84024e-07
-2.71967e-06
1.52671e-07
-2.73629e-06
1.20454e-07
-2.74248e-06
8.74314e-08
-2.73813e-06
5.35794e-08
-2.72304e-06
1.88458e-08
-2.69725e-06
-1.67636e-08
-2.65999e-06
-5.32011e-08
-2.61104e-06
-9.07032e-08
-2.5505e-06
-1.29345e-07
-2.47768e-06
-1.68833e-07
-2.39246e-06
-2.09166e-07
-2.29457e-06
-2.49893e-07
-2.18393e-06
-2.9074e-07
-2.06055e-06
-3.31163e-07
-1.92471e-06
-3.70444e-07
-1.77691e-06
-4.0757e-07
-1.61805e-06
-4.41428e-07
-1.44939e-06
-4.70832e-07
-1.27262e-06
-4.94251e-07
-1.09005e-06
-5.10123e-07
-9.04339e-07
-5.17152e-07
-7.18641e-07
-5.13966e-07
-5.36531e-07
-4.9951e-07
-3.61712e-07
-4.73509e-07
-1.97636e-07
-4.36095e-07
-4.76935e-08
-3.87859e-07
8.53713e-08
-3.29651e-07
1.98901e-07
-2.63208e-07
2.90943e-07
-1.90643e-07
3.60582e-07
-1.14956e-07
4.06458e-07
-3.92515e-08
4.29091e-07
3.43758e-08
4.26703e-07
1.01968e-07
4.00332e-07
1.57975e-07
3.51285e-07
1.98781e-07
2.82691e-07
2.19269e-07
2.00647e-07
2.17085e-07
1.15462e-07
1.90908e-07
4.08652e-08
1.39997e-07
6.21319e-08
2.55557e-08
-5.53991e-08
7.51807e-08
-1.35936e-07
1.2298e-07
-1.61932e-07
1.60245e-07
-1.51052e-07
1.85369e-07
-1.20866e-07
1.99315e-07
-8.33949e-08
2.03186e-07
-4.55071e-08
1.98031e-07
-1.1211e-08
1.84602e-07
1.74509e-08
1.6342e-07
3.98816e-08
1.34252e-07
5.71547e-08
9.66289e-08
7.16316e-08
4.98107e-08
8.61384e-08
-7.12089e-09
1.03088e-07
-7.52097e-08
1.23986e-07
-1.55717e-07
1.49501e-07
-2.50082e-07
1.79785e-07
-3.5957e-07
2.14679e-07
-4.84829e-07
2.53595e-07
-6.25587e-07
2.95724e-07
-7.80395e-07
3.3947e-07
-9.46323e-07
3.82378e-07
-1.11986e-06
4.22573e-07
-1.29693e-06
4.57644e-07
-1.47351e-06
4.86223e-07
-1.64578e-06
5.07099e-07
-1.81021e-06
5.19505e-07
-1.96397e-06
5.23573e-07
-2.10547e-06
5.20261e-07
-2.23409e-06
5.10482e-07
-2.34991e-06
4.9507e-07
-2.45346e-06
4.74789e-07
-2.54532e-06
4.50317e-07
-2.62618e-06
4.22375e-07
-2.69675e-06
3.91487e-07
-2.75762e-06
3.58248e-07
-2.80927e-06
3.23097e-07
-2.85203e-06
2.86447e-07
-2.88614e-06
2.48546e-07
-2.91173e-06
2.09608e-07
-2.92883e-06
1.69778e-07
-2.93743e-06
1.29044e-07
-2.93738e-06
8.73895e-08
-2.9285e-06
4.46977e-08
-2.91053e-06
8.70422e-10
-2.88316e-06
-4.41321e-08
-2.84595e-06
-9.04121e-08
-2.79854e-06
-1.38111e-07
-2.74065e-06
-1.87239e-07
-2.67171e-06
-2.37765e-07
-2.59132e-06
-2.89564e-07
-2.49908e-06
-3.42131e-07
-2.39476e-06
-3.95058e-07
-2.27815e-06
-4.47769e-07
-2.14919e-06
-4.99406e-07
-2.00799e-06
-5.48774e-07
-1.85514e-06
-5.94276e-07
-1.69159e-06
-6.34384e-07
-1.51859e-06
-6.67252e-07
-1.33799e-06
-6.90715e-07
-1.15215e-06
-7.02999e-07
-9.63909e-07
-7.02205e-07
-7.76683e-07
-6.86736e-07
-5.94524e-07
-6.55668e-07
-4.2147e-07
-6.0915e-07
-2.60994e-07
-5.48336e-07
-1.16141e-07
-4.74504e-07
1.04747e-08
-3.89824e-07
1.17125e-07
-2.97294e-07
2.0238e-07
-2.00211e-07
2.6557e-07
-1.02441e-07
3.07392e-07
-7.44643e-09
3.28032e-07
8.13281e-08
3.2683e-07
1.59178e-07
3.03851e-07
2.2176e-07
2.59536e-07
2.63583e-07
1.97577e-07
2.79044e-07
1.23576e-07
2.64909e-07
4.79436e-08
2.1563e-07
1.10076e-07
3.11247e-08
-8.65238e-08
8.07723e-08
-1.85584e-07
1.20845e-07
-2.02005e-07
1.47466e-07
-1.77673e-07
1.61047e-07
-1.34448e-07
1.63616e-07
-8.59634e-08
1.5647e-07
-3.83612e-08
1.4035e-07
4.90914e-09
1.15389e-07
4.24111e-08
8.12138e-08
7.40571e-08
3.69065e-08
1.01462e-07
-1.86656e-08
1.27204e-07
-8.66256e-08
1.54098e-07
-1.68009e-07
1.84471e-07
-2.63785e-07
2.19763e-07
-3.74809e-07
2.60525e-07
-5.01604e-07
3.06579e-07
-6.44064e-07
3.5714e-07
-8.00987e-07
4.10518e-07
-9.69662e-07
4.64399e-07
-1.14658e-06
5.16388e-07
-1.32735e-06
5.63149e-07
-1.50782e-06
6.03047e-07
-1.68388e-06
6.33694e-07
-1.85118e-06
6.53527e-07
-2.00682e-06
6.62744e-07
-2.1496e-06
6.62278e-07
-2.27941e-06
6.53388e-07
-2.39662e-06
6.37473e-07
-2.5019e-06
6.15761e-07
-2.59605e-06
5.89219e-07
-2.6799e-06
5.58642e-07
-2.75421e-06
5.24625e-07
-2.81963e-06
4.87792e-07
-2.87678e-06
4.48643e-07
-2.92615e-06
4.07617e-07
-2.96812e-06
3.65059e-07
-3.00295e-06
3.21281e-07
-3.03083e-06
2.76425e-07
-3.05173e-06
2.3051e-07
-3.06571e-06
1.8376e-07
-3.0727e-06
1.36027e-07
-3.07256e-06
8.72476e-08
-3.06508e-06
3.72183e-08
-3.04996e-06
-1.42488e-08
-3.02683e-06
-6.72627e-08
-2.99518e-06
-1.22058e-07
-2.95458e-06
-1.7871e-07
-2.90462e-06
-2.37195e-07
-2.84483e-06
-2.9756e-07
-2.77454e-06
-3.59849e-07
-2.69305e-06
-4.23626e-07
-2.59995e-06
-4.88159e-07
-2.49479e-06
-5.52924e-07
-2.37718e-06
-6.17022e-07
-2.24672e-06
-6.79231e-07
-2.10367e-06
-7.37326e-07
-1.94859e-06
-7.89464e-07
-1.78222e-06
-8.33621e-07
-1.606e-06
-8.66931e-07
-1.42193e-06
-8.87077e-07
-1.2325e-06
-8.91629e-07
-1.04073e-06
-8.78503e-07
-8.50293e-07
-8.4611e-07
-6.65788e-07
-7.93654e-07
-4.91985e-07
-7.22139e-07
-3.32289e-07
-6.342e-07
-1.89761e-07
-5.32352e-07
-6.69834e-08
-4.20071e-07
3.45605e-08
-3.01755e-07
1.14186e-07
-1.82067e-07
1.72161e-07
-6.54217e-08
2.09483e-07
4.40067e-08
2.2662e-07
1.42041e-07
2.24062e-07
2.24318e-07
2.02157e-07
2.85488e-07
1.61817e-07
3.19384e-07
1.06025e-07
3.20701e-07
4.24479e-08
2.79207e-07
1.52523e-07
3.45142e-08
-1.21038e-07
7.80958e-08
-2.29165e-07
1.0643e-07
-2.30339e-07
1.199e-07
-1.91143e-07
1.20883e-07
-1.3543e-07
1.11293e-07
-7.63733e-08
9.20965e-08
-1.91652e-08
6.34296e-08
3.3576e-08
2.48972e-08
8.09435e-08
-2.45818e-08
1.23536e-07
-8.63377e-08
1.63218e-07
-1.61712e-07
2.02578e-07
-2.51854e-07
2.4424e-07
-3.57605e-07
2.90223e-07
-4.79423e-07
3.41581e-07
-6.17188e-07
3.98289e-07
-7.70032e-07
4.59423e-07
-9.35975e-07
5.23083e-07
-1.11186e-06
5.86402e-07
-1.29333e-06
6.45873e-07
-1.47596e-06
6.99021e-07
-1.65518e-06
7.42368e-07
-1.82573e-06
7.73589e-07
-1.98421e-06
7.92177e-07
-2.12943e-06
7.98752e-07
-2.26144e-06
7.94754e-07
-2.38094e-06
7.81769e-07
-2.4889e-06
7.61348e-07
-2.58623e-06
7.34808e-07
-2.67377e-06
7.03301e-07
-2.75227e-06
6.67714e-07
-2.82238e-06
6.28761e-07
-2.88479e-06
5.87036e-07
-2.94005e-06
5.43047e-07
-2.98861e-06
4.97202e-07
-3.03079e-06
4.49798e-07
-3.06687e-06
4.01141e-07
-3.09707e-06
3.51485e-07
-3.12158e-06
3.00932e-07
-3.14018e-06
2.49111e-07
-3.1531e-06
1.96677e-07
-3.16025e-06
1.43178e-07
-3.16157e-06
8.85662e-08
-3.15693e-06
3.25799e-08
-3.1462e-06
-2.49803e-08
-3.12917e-06
-8.42923e-08
-3.10543e-06
-1.45797e-07
-3.07447e-06
-2.0967e-07
-3.03563e-06
-2.76034e-07
-2.98824e-06
-3.44953e-07
-2.93155e-06
-4.16535e-07
-2.86454e-06
-4.90637e-07
-2.78634e-06
-5.66361e-07
-2.69616e-06
-6.43103e-07
-2.59353e-06
-7.19653e-07
-2.47792e-06
-7.94846e-07
-2.34869e-06
-8.66547e-07
-2.20586e-06
-9.32297e-07
-2.04949e-06
-9.89991e-07
-1.88066e-06
-1.03576e-06
-1.70094e-06
-1.0668e-06
-1.51235e-06
-1.08022e-06
-1.3178e-06
-1.07305e-06
-1.12062e-06
-1.04329e-06
-9.24898e-07
-9.89375e-07
-7.36066e-07
-9.10971e-07
-5.59164e-07
-8.11101e-07
-3.98081e-07
-6.93435e-07
-2.5616e-07
-5.61992e-07
-1.35755e-07
-4.2216e-07
-3.80995e-08
-2.79723e-07
3.68365e-08
-1.40358e-07
9.01164e-08
-9.27316e-09
1.23204e-07
1.08953e-07
1.3742e-07
2.10102e-07
1.33525e-07
2.89383e-07
1.12096e-07
3.40814e-07
7.54694e-08
3.57327e-07
2.99503e-08
3.24726e-07
1.82474e-07
3.47721e-08
-1.5581e-07
6.69325e-08
-2.61326e-07
8.13901e-08
-2.44796e-07
8.07504e-08
-1.90503e-07
6.85451e-08
-1.23225e-07
4.6184e-08
-5.40122e-08
1.40035e-08
1.30153e-08
-2.84174e-08
7.59969e-08
-8.20537e-08
1.3458e-07
-1.48247e-07
1.89729e-07
-2.28426e-07
2.43397e-07
-3.23837e-07
2.97989e-07
-4.35315e-07
3.55719e-07
-5.63127e-07
4.18035e-07
-7.06787e-07
4.8524e-07
-8.64973e-07
5.56475e-07
-1.03517e-06
6.29616e-07
-1.21359e-06
7.01506e-07
-1.39571e-06
7.68522e-07
-1.57669e-06
8.26854e-07
-1.75068e-06
8.73008e-07
-1.91341e-06
9.05098e-07
-2.06281e-06
9.22987e-07
-2.19873e-06
9.28106e-07
-2.32191e-06
9.21932e-07
-2.43336e-06
9.06195e-07
-2.53412e-06
8.82538e-07
-2.6252e-06
8.52424e-07
-2.70743e-06
8.17035e-07
-2.78151e-06
7.77379e-07
-2.84805e-06
7.34253e-07
-2.90759e-06
6.88305e-07
-2.96063e-06
6.40077e-07
-3.00758e-06
5.89994e-07
-3.04881e-06
5.38433e-07
-3.08447e-06
4.85455e-07
-3.11476e-06
4.31436e-07
-3.13992e-06
3.76646e-07
-3.16019e-06
3.21197e-07
-3.17604e-06
2.64965e-07
-3.18713e-06
2.07771e-07
-3.19344e-06
1.49489e-07
-3.19482e-06
8.9942e-08
-3.1911e-06
2.88628e-08
-3.18234e-06
-3.37394e-08
-3.16852e-06
-9.81201e-08
-3.14959e-06
-1.6472e-07
-3.12548e-06
-2.33782e-07
-3.09593e-06
-3.0559e-07
-3.06054e-06
-3.80338e-07
-3.01892e-06
-4.58158e-07
-2.97024e-06
-5.39318e-07
-2.91293e-06
-6.23669e-07
-2.84547e-06
-7.10567e-07
-2.76581e-06
-7.99309e-07
-2.67206e-06
-8.88597e-07
-2.5629e-06
-9.75707e-07
-2.43799e-06
-1.0572e-06
-2.29755e-06
-1.13043e-06
-2.14193e-06
-1.19139e-06
-1.97166e-06
-1.23707e-06
-1.78839e-06
-1.26348e-06
-1.59473e-06
-1.26671e-06
-1.39385e-06
-1.24417e-06
-1.1894e-06
-1.19382e-06
-9.86443e-07
-1.11393e-06
-7.9146e-07
-1.00608e-06
-6.10123e-07
-8.74772e-07
-4.4667e-07
-7.25445e-07
-3.04625e-07
-5.64204e-07
-1.86276e-07
-3.98072e-07
-9.239e-08
-2.34244e-07
-2.22013e-08
-7.94618e-08
2.61544e-08
6.05974e-08
5.5027e-08
1.81229e-07
6.6237e-08
2.78173e-07
6.10536e-08
3.45997e-07
4.18255e-08
3.76556e-07
1.50002e-08
3.51551e-07
1.97474e-07
3.08219e-08
-1.86632e-07
4.87465e-08
-2.7925e-07
4.80281e-08
-2.44078e-07
3.29386e-08
-1.75414e-07
7.25518e-09
-9.75417e-08
-2.83643e-08
-1.83927e-08
-7.42488e-08
5.88998e-08
-1.31286e-07
1.33034e-07
-2.00728e-07
2.04022e-07
-2.8395e-07
2.7295e-07
-3.82193e-07
3.4164e-07
-4.96314e-07
4.1211e-07
-6.26535e-07
4.8594e-07
-7.72272e-07
5.63771e-07
-9.31991e-07
6.4496e-07
-1.10282e-06
7.27307e-07
-1.28067e-06
8.07459e-07
-1.46071e-06
8.81546e-07
-1.63719e-06
9.45004e-07
-1.8047e-06
9.94363e-07
-1.95974e-06
1.02805e-06
-2.10133e-06
1.04669e-06
-2.22974e-06
1.05139e-06
-2.34583e-06
1.0442e-06
-2.45065e-06
1.02676e-06
-2.54536e-06
1.0009e-06
-2.63092e-06
9.68097e-07
-2.70812e-06
9.29624e-07
-2.77761e-06
8.8653e-07
-2.83994e-06
8.39707e-07
-2.89558e-06
7.89885e-07
-2.94493e-06
7.37658e-07
-2.98833e-06
6.83482e-07
-3.02603e-06
6.27694e-07
-3.05851e-06
5.70907e-07
-3.08647e-06
5.13421e-07
-3.11033e-06
4.55291e-07
-3.13014e-06
3.96456e-07
-3.14561e-06
3.36673e-07
-3.15711e-06
2.76461e-07
-3.16453e-06
2.15193e-07
-3.16808e-06
1.53038e-07
-3.16788e-06
8.97392e-08
-3.164e-06
2.49878e-08
-3.15663e-06
-4.11181e-08
-3.1457e-06
-1.09045e-07
-3.13113e-06
-1.79296e-07
-3.11273e-06
-2.52178e-07
-3.09025e-06
-3.28066e-07
-3.06333e-06
-4.0726e-07
-3.03157e-06
-4.89921e-07
-2.99472e-06
-5.76168e-07
-2.95217e-06
-6.66213e-07
-2.9032e-06
-7.59543e-07
-2.8469e-06
-8.55607e-07
-2.78198e-06
-9.53521e-07
-2.70518e-06
-1.0525e-06
-2.61208e-06
-1.15031e-06
-2.49932e-06
-1.24319e-06
-2.366e-06
-1.32471e-06
-2.21327e-06
-1.3898e-06
-2.04341e-06
-1.43334e-06
-1.85739e-06
-1.45273e-06
-1.65855e-06
-1.44301e-06
-1.4502e-06
-1.40217e-06
-1.23717e-06
-1.32697e-06
-1.02552e-06
-1.21773e-06
-8.23207e-07
-1.07708e-06
-6.36664e-07
-9.11988e-07
-4.70579e-07
-7.3029e-07
-3.2868e-07
-5.3997e-07
-2.13041e-07
-3.49883e-07
-1.23807e-07
-1.68696e-07
-5.9438e-08
-3.77185e-09
-1.65797e-08
1.38371e-07
7.80099e-09
2.53792e-07
1.6227e-08
3.37571e-07
1.22678e-08
3.80515e-07
2.16578e-09
3.61653e-07
1.9964e-07
2.28279e-08
-2.0946e-07
2.50302e-08
-2.81453e-07
8.27373e-09
-2.27321e-07
-2.08369e-08
-1.46303e-07
-6.00452e-08
-5.83334e-08
-1.09255e-07
3.08166e-08
-1.69225e-07
1.1887e-07
-2.41126e-07
2.04935e-07
-3.26239e-07
2.89135e-07
-4.25737e-07
3.72449e-07
-5.40457e-07
4.5636e-07
-6.70636e-07
5.42288e-07
-8.15729e-07
6.31033e-07
-9.74226e-07
7.22268e-07
-1.14314e-06
8.13879e-07
-1.31819e-06
9.02357e-07
-1.49427e-06
9.83533e-07
-1.66526e-06
1.05254e-06
-1.82631e-06
1.10605e-06
-1.97479e-06
1.14284e-06
-2.1099e-06
1.16316e-06
-2.23198e-06
1.16877e-06
-2.34201e-06
1.16143e-06
-2.44109e-06
1.14328e-06
-2.5303e-06
1.11597e-06
-2.61058e-06
1.08118e-06
-2.68266e-06
1.04018e-06
-2.74716e-06
9.94119e-07
-2.80458e-06
9.4395e-07
-2.85537e-06
8.90503e-07
-2.89995e-06
8.34464e-07
-2.93874e-06
7.76446e-07
-2.97231e-06
7.17056e-07
-3.00128e-06
6.56665e-07
-3.02573e-06
5.95352e-07
-3.0457e-06
5.33391e-07
-3.06124e-06
4.70833e-07
-3.07257e-06
4.07789e-07
-3.0803e-06
3.44398e-07
-3.08465e-06
2.80815e-07
-3.08612e-06
2.16656e-07
-3.08495e-06
1.51874e-07
-3.08141e-06
8.61929e-08
-3.07571e-06
1.92897e-08
-3.0679e-06
-4.89307e-08
-3.05793e-06
-1.19012e-07
-3.04586e-06
-1.91366e-07
-3.03167e-06
-2.66365e-07
-3.01531e-06
-3.44426e-07
-2.99665e-06
-4.25925e-07
-2.97539e-06
-5.11179e-07
-2.95106e-06
-6.00491e-07
-2.92315e-06
-6.94129e-07
-2.89068e-06
-7.92015e-07
-2.85249e-06
-8.93791e-07
-2.80754e-06
-9.98476e-07
-2.75466e-06
-1.10537e-06
-2.6923e-06
-1.21267e-06
-2.6177e-06
-1.31779e-06
-2.52397e-06
-1.41844e-06
-2.405e-06
-1.50877e-06
-2.25983e-06
-1.57851e-06
-2.09125e-06
-1.62131e-06
-1.90349e-06
-1.63077e-06
-1.69876e-06
-1.60691e-06
-1.48202e-06
-1.5437e-06
-1.25899e-06
-1.44077e-06
-1.03738e-06
-1.29869e-06
-8.26862e-07
-1.12251e-06
-6.34934e-07
-9.22218e-07
-4.66765e-07
-7.08139e-07
-3.26164e-07
-4.90484e-07
-2.14803e-07
-2.80056e-07
-1.31796e-07
-8.67792e-08
-7.44493e-08
8.10245e-08
-3.80097e-08
2.17353e-07
-1.80678e-08
3.17629e-07
-9.05794e-09
3.71505e-07
-5.6891e-09
3.58285e-07
1.93951e-07
1.17464e-08
-2.21206e-07
-3.01409e-09
-2.66692e-07
-3.48446e-08
-1.95491e-07
-7.79186e-08
-1.03229e-07
-1.3069e-07
-5.56184e-09
-1.93507e-07
9.36338e-08
-2.67468e-07
1.9283e-07
-3.538e-07
2.91267e-07
-4.53616e-07
3.88951e-07
-5.6771e-07
4.86543e-07
-6.9634e-07
5.8499e-07
-8.39065e-07
6.85013e-07
-9.94529e-07
7.86497e-07
-1.1598e-06
8.87542e-07
-1.33055e-06
9.84631e-07
-1.50157e-06
1.07337e-06
-1.66703e-06
1.14899e-06
-1.82238e-06
1.20789e-06
-1.96527e-06
1.24894e-06
-2.09484e-06
1.2724e-06
-2.21153e-06
1.27985e-06
-2.31623e-06
1.27347e-06
-2.4101e-06
1.2553e-06
-2.49411e-06
1.22728e-06
-2.56914e-06
1.19099e-06
-2.63586e-06
1.1479e-06
-2.69485e-06
1.09917e-06
-2.74662e-06
1.04589e-06
-2.79165e-06
9.88976e-07
-2.8304e-06
9.29253e-07
-2.86335e-06
8.67418e-07
-2.89097e-06
8.04065e-07
-2.91351e-06
7.396e-07
-2.9313e-06
6.74453e-07
-2.94477e-06
6.0882e-07
-2.9544e-06
5.43023e-07
-2.96078e-06
4.77207e-07
-2.96439e-06
4.11406e-07
-2.9656e-06
3.45601e-07
-2.96453e-06
2.79752e-07
-2.96153e-06
2.13654e-07
-2.9568e-06
1.47145e-07
-2.95055e-06
7.99424e-08
-2.94297e-06
1.17094e-08
-2.93416e-06
-5.77401e-08
-2.92426e-06
-1.28917e-07
-2.91342e-06
-2.02203e-07
-2.90177e-06
-2.78018e-07
-2.88939e-06
-3.56806e-07
-2.87631e-06
-4.39001e-07
-2.86246e-06
-5.25032e-07
-2.84763e-06
-6.15319e-07
-2.83154e-06
-7.10223e-07
-2.81362e-06
-8.09929e-07
-2.79303e-06
-9.14382e-07
-2.76829e-06
-1.02322e-06
-2.73779e-06
-1.13587e-06
-2.69948e-06
-1.25099e-06
-2.65142e-06
-1.36585e-06
-2.59119e-06
-1.47867e-06
-2.51519e-06
-1.58477e-06
-2.41373e-06
-1.67997e-06
-2.28002e-06
-1.75502e-06
-2.1149e-06
-1.79589e-06
-1.92512e-06
-1.79668e-06
-1.71377e-06
-1.75505e-06
-1.4873e-06
-1.66723e-06
-1.25267e-06
-1.53332e-06
-1.02006e-06
-1.35512e-06
-8.01109e-07
-1.14117e-06
-6.0445e-07
-9.04798e-07
-4.35652e-07
-6.59281e-07
-2.9836e-07
-4.17349e-07
-1.9334e-07
-1.91799e-07
-1.18741e-07
6.42549e-09
-6.94406e-08
1.68052e-07
-3.9397e-08
2.87586e-07
-2.06829e-08
3.52791e-07
-8.80545e-09
3.46407e-07
1.85145e-07
-1.38673e-09
-2.1982e-07
-3.23842e-08
-2.35695e-07
-7.92846e-08
-1.4859e-07
-1.36118e-07
-4.63957e-08
-2.02145e-07
6.04652e-08
-2.78219e-07
1.69708e-07
-3.65534e-07
2.80145e-07
-4.65215e-07
3.90949e-07
-5.78055e-07
5.01791e-07
-7.04341e-07
6.12829e-07
-8.43728e-07
7.24378e-07
-9.95076e-07
8.36361e-07
-1.15571e-06
9.47132e-07
-1.3214e-06
1.05323e-06
-1.48702e-06
1.15025e-06
-1.6472e-06
1.23356e-06
-1.79757e-06
1.29936e-06
-1.93568e-06
1.34601e-06
-2.06061e-06
1.37387e-06
-2.17259e-06
1.38438e-06
-2.27261e-06
1.37986e-06
-2.36166e-06
1.36252e-06
-2.44069e-06
1.33434e-06
-2.51047e-06
1.29706e-06
-2.57166e-06
1.25218e-06
-2.62478e-06
1.20103e-06
-2.67038e-06
1.14477e-06
-2.70898e-06
1.08448e-06
-2.7411e-06
1.0211e-06
-2.76731e-06
9.55457e-07
-2.78814e-06
8.88247e-07
-2.80411e-06
8.20042e-07
-2.8158e-06
7.51281e-07
-2.82371e-06
6.82363e-07
-2.82842e-06
6.13533e-07
-2.83041e-06
5.45013e-07
-2.83008e-06
4.76877e-07
-2.82777e-06
4.09102e-07
-2.8238e-06
3.41625e-07
-2.81838e-06
2.74329e-07
-2.81173e-06
2.07013e-07
-2.80406e-06
1.39468e-07
-2.79553e-06
7.14143e-08
-2.78634e-06
2.51951e-09
-2.77663e-06
-6.74537e-08
-2.76657e-06
-1.38976e-07
-2.75635e-06
-2.1242e-07
-2.74615e-06
-2.88213e-07
-2.73616e-06
-3.66805e-07
-2.7265e-06
-4.48657e-07
-2.71729e-06
-5.34245e-07
-2.70856e-06
-6.24045e-07
-2.70029e-06
-7.18496e-07
-2.69227e-06
-8.17949e-07
-2.68403e-06
-9.22623e-07
-2.67467e-06
-1.03257e-06
-2.663e-06
-1.14755e-06
-2.64721e-06
-1.26677e-06
-2.62429e-06
-1.38877e-06
-2.59154e-06
-1.51142e-06
-2.54569e-06
-1.63062e-06
-2.48296e-06
-1.7427e-06
-2.3972e-06
-1.84078e-06
-2.2752e-06
-1.91789e-06
-2.11501e-06
-1.95687e-06
-1.92211e-06
-1.94796e-06
-1.70294e-06
-1.8864e-06
-1.46481e-06
-1.77145e-06
-1.21743e-06
-1.60249e-06
-9.73471e-07
-1.38513e-06
-7.46814e-07
-1.13146e-06
-5.47207e-07
-8.58887e-07
-3.80369e-07
-5.84187e-07
-2.49294e-07
-3.22875e-07
-1.53335e-07
-8.95332e-08
-8.87285e-08
1.03446e-07
-4.82201e-08
2.47077e-07
-2.29559e-08
3.27526e-07
-7.38645e-09
3.30838e-07
1.77759e-07
-1.53395e-08
-2.0448e-07
-6.25679e-08
-1.88466e-07
-1.23565e-07
-8.75937e-08
-1.93473e-07
2.35125e-08
-2.72138e-07
1.3913e-07
-3.60638e-07
2.58208e-07
-4.60152e-07
3.7966e-07
-5.71557e-07
5.02354e-07
-6.95222e-07
6.25455e-07
-8.30904e-07
7.48512e-07
-9.7767e-07
8.71144e-07
-1.13319e-06
9.91885e-07
-1.29354e-06
1.10748e-06
-1.45386e-06
1.21354e-06
-1.60917e-06
1.30556e-06
-1.75524e-06
1.37963e-06
-1.88933e-06
1.43345e-06
-2.01037e-06
1.46705e-06
-2.11842e-06
1.48192e-06
-2.21432e-06
1.48028e-06
-2.29904e-06
1.46459e-06
-2.37343e-06
1.43691e-06
-2.43823e-06
1.39913e-06
-2.49403e-06
1.35287e-06
-2.54143e-06
1.29957e-06
-2.58099e-06
1.2406e-06
-2.61335e-06
1.17713e-06
-2.63916e-06
1.11029e-06
-2.6591e-06
1.04104e-06
-2.67384e-06
9.70202e-07
-2.68406e-06
8.98469e-07
-2.6904e-06
8.26382e-07
-2.69348e-06
7.5436e-07
-2.69384e-06
6.82724e-07
-2.69198e-06
6.11669e-07
-2.68827e-06
5.41308e-07
-2.68304e-06
4.71647e-07
-2.67656e-06
4.02618e-07
-2.66905e-06
3.34113e-07
-2.66069e-06
2.65973e-07
-2.65166e-06
1.97981e-07
-2.6421e-06
1.29905e-07
-2.63215e-06
6.14677e-08
-2.622e-06
-7.6323e-09
-2.61174e-06
-7.77068e-08
-2.60159e-06
-1.49132e-07
-2.59172e-06
-2.22291e-07
-2.58234e-06
-2.97593e-07
-2.57367e-06
-3.75476e-07
-2.56593e-06
-4.56397e-07
-2.55933e-06
-5.4084e-07
-2.55408e-06
-6.293e-07
-2.55031e-06
-7.22266e-07
-2.54807e-06
-8.20189e-07
-2.54724e-06
-9.23457e-07
-2.54745e-06
-1.03235e-06
-2.54804e-06
-1.14696e-06
-2.54779e-06
-1.26702e-06
-2.54473e-06
-1.39183e-06
-2.53621e-06
-1.51994e-06
-2.518e-06
-1.64883e-06
-2.48593e-06
-1.77477e-06
-2.43525e-06
-1.89145e-06
-2.35985e-06
-1.9933e-06
-2.24772e-06
-2.069e-06
-2.09111e-06
-2.10457e-06
-1.8944e-06
-2.08311e-06
-1.66546e-06
-2.00039e-06
-1.41425e-06
-1.8537e-06
-1.15351e-06
-1.64587e-06
-8.98869e-07
-1.3861e-06
-6.66627e-07
-1.09113e-06
-4.67401e-07
-7.83413e-07
-3.06357e-07
-4.83918e-07
-1.85216e-07
-2.10674e-07
-1.0153e-07
1.97593e-08
-4.8725e-08
1.94273e-07
-1.82581e-08
2.9706e-07
-2.82495e-09
3.15404e-07
1.74934e-07
-2.96441e-08
-1.74836e-07
-9.18878e-08
-1.26223e-07
-1.66087e-07
-1.33948e-08
-2.48171e-07
1.05597e-07
-3.38511e-07
2.29469e-07
-4.38238e-07
3.57936e-07
-5.48398e-07
4.8982e-07
-6.69538e-07
6.23493e-07
-8.01571e-07
7.57488e-07
-9.43746e-07
8.90686e-07
-1.09409e-06
1.02149e-06
-1.24912e-06
1.14692e-06
-1.40439e-06
1.26275e-06
-1.55527e-06
1.36443e-06
-1.6977e-06
1.44798e-06
-1.82859e-06
1.51053e-06
-1.94652e-06
1.55137e-06
-2.05141e-06
1.57194e-06
-2.1439e-06
1.57441e-06
-2.22491e-06
1.56128e-06
-2.29522e-06
1.53491e-06
-2.35555e-06
1.49724e-06
-2.4065e-06
1.45009e-06
-2.44871e-06
1.39508e-06
-2.48286e-06
1.33372e-06
-2.50966e-06
1.2674e-06
-2.52992e-06
1.19739e-06
-2.54445e-06
1.12481e-06
-2.55404e-06
1.05063e-06
-2.55946e-06
9.75627e-07
-2.56143e-06
9.0044e-07
-2.56059e-06
8.25541e-07
-2.5575e-06
7.51268e-07
-2.55262e-06
6.77847e-07
-2.54634e-06
6.05388e-07
-2.53895e-06
5.33919e-07
-2.53069e-06
4.63382e-07
-2.52173e-06
3.93665e-07
-2.51224e-06
3.2462e-07
-2.50233e-06
2.56062e-07
-2.49211e-06
1.87758e-07
-2.48167e-06
1.19468e-07
-2.47112e-06
5.09231e-08
-2.46059e-06
-1.81654e-08
-2.45019e-06
-8.81117e-08
-2.44007e-06
-1.59249e-07
-2.43043e-06
-2.31934e-07
-2.42147e-06
-3.06551e-07
-2.41344e-06
-3.83505e-07
-2.4066e-06
-4.63232e-07
-2.40125e-06
-5.46197e-07
-2.39766e-06
-6.32891e-07
-2.3961e-06
-7.2382e-07
-2.3968e-06
-8.19493e-07
-2.39986e-06
-9.20399e-07
-2.40524e-06
-1.02698e-06
-2.41266e-06
-1.13954e-06
-2.42149e-06
-1.25819e-06
-2.43059e-06
-1.38272e-06
-2.43812e-06
-1.51242e-06
-2.44114e-06
-1.6458e-06
-2.43564e-06
-1.78027e-06
-2.41552e-06
-1.91158e-06
-2.37529e-06
-2.03352e-06
-2.3074e-06
-2.13688e-06
-2.20062e-06
-2.21136e-06
-2.0445e-06
-2.23923e-06
-1.84194e-06
-2.20295e-06
-1.60125e-06
-2.09439e-06
-1.33589e-06
-1.91123e-06
-1.06206e-06
-1.65993e-06
-7.98946e-07
-1.35425e-06
-5.65226e-07
-1.01713e-06
-3.71436e-07
-6.77708e-07
-2.21583e-07
-3.60526e-07
-1.15369e-07
-8.64551e-08
-4.77312e-08
1.26635e-07
-1.11414e-08
2.6047e-07
3.05295e-09
3.0121e-07
1.77987e-07
-4.33891e-08
-1.31447e-07
-1.19313e-07
-5.02986e-08
-2.05469e-07
7.27607e-08
-2.98668e-07
1.98797e-07
-3.99421e-07
3.30222e-07
-5.08876e-07
4.6739e-07
-6.27861e-07
6.08804e-07
-7.56549e-07
7.52182e-07
-8.94432e-07
8.9537e-07
-1.03982e-06
1.03607e-06
-1.18975e-06
1.17141e-06
-1.34033e-06
1.2975e-06
-1.48727e-06
1.40968e-06
-1.62662e-06
1.50378e-06
-1.75511e-06
1.57648e-06
-1.87083e-06
1.62624e-06
-1.97341e-06
1.65396e-06
-2.06334e-06
1.66187e-06
-2.1414e-06
1.65247e-06
-2.2084e-06
1.62828e-06
-2.26501e-06
1.59152e-06
-2.3119e-06
1.54413e-06
-2.34976e-06
1.48794e-06
-2.37935e-06
1.42467e-06
-2.40153e-06
1.3559e-06
-2.41721e-06
1.28308e-06
-2.42733e-06
1.2075e-06
-2.43278e-06
1.13026e-06
-2.43441e-06
1.05226e-06
-2.43298e-06
9.74201e-07
-2.42916e-06
8.96623e-07
-2.42352e-06
8.19893e-07
-2.4165e-06
7.44249e-07
-2.40846e-06
6.69815e-07
-2.39969e-06
5.96617e-07
-2.39038e-06
5.24607e-07
-2.38068e-06
4.53676e-07
-2.37068e-06
3.83671e-07
-2.36048e-06
3.14415e-07
-2.35012e-06
2.45703e-07
-2.33965e-06
1.77292e-07
-2.32913e-06
1.08942e-07
-2.3186e-06
4.04021e-08
-2.30816e-06
-2.86059e-08
-2.2979e-06
-9.8372e-08
-2.28796e-06
-1.69195e-07
-2.27849e-06
-2.41399e-07
-2.26972e-06
-3.15325e-07
-2.26188e-06
-3.9134e-07
-2.25528e-06
-4.6984e-07
-2.25022e-06
-5.51255e-07
-2.24706e-06
-6.3605e-07
-2.24615e-06
-7.24723e-07
-2.24784e-06
-8.17802e-07
-2.25241e-06
-9.15833e-07
-2.26003e-06
-1.01936e-06
-2.27071e-06
-1.12886e-06
-2.28418e-06
-1.24471e-06
-2.29982e-06
-1.36709e-06
-2.31646e-06
-1.49579e-06
-2.33219e-06
-1.63007e-06
-2.3441e-06
-1.76837e-06
-2.34779e-06
-1.90789e-06
-2.33731e-06
-2.044e-06
-2.30463e-06
-2.16956e-06
-2.24188e-06
-2.27411e-06
-2.13585e-06
-2.34526e-06
-1.97679e-06
-2.36201e-06
-1.76494e-06
-2.30625e-06
-1.5105e-06
-2.16567e-06
-1.23053e-06
-1.93989e-06
-9.45287e-07
-1.63949e-06
-6.78111e-07
-1.28431e-06
-4.4939e-07
-9.0643e-07
-2.68205e-07
-5.41711e-07
-1.36639e-07
-2.18021e-07
-5.14504e-08
4.14463e-08
-6.47143e-09
2.15491e-07
7.7817e-09
2.86957e-07
1.85768e-07
-5.59991e-08
-7.54477e-08
-1.43959e-07
3.76617e-08
-2.408e-07
1.69601e-07
-3.43734e-07
3.01731e-07
-4.53408e-07
4.39897e-07
-5.7088e-07
5.84862e-07
-6.96717e-07
7.34642e-07
-8.30725e-07
8.8619e-07
-9.71557e-07
1.0362e-06
-1.11673e-06
1.18124e-06
-1.26304e-06
1.31773e-06
-1.40651e-06
1.44097e-06
-1.54332e-06
1.5465e-06
-1.67012e-06
1.63058e-06
-1.78453e-06
1.69089e-06
-1.88575e-06
1.72746e-06
-1.97405e-06
1.74226e-06
-2.0501e-06
1.73793e-06
-2.1147e-06
1.71706e-06
-2.16854e-06
1.68212e-06
-2.21232e-06
1.6353e-06
-2.2468e-06
1.57861e-06
-2.27286e-06
1.514e-06
-2.29144e-06
1.44325e-06
-2.30357e-06
1.36803e-06
-2.31029e-06
1.2898e-06
-2.31258e-06
1.2098e-06
-2.31137e-06
1.12905e-06
-2.30744e-06
1.04833e-06
-2.3015e-06
9.68259e-07
-2.2941e-06
8.89225e-07
-2.2857e-06
8.1149e-07
-2.27663e-06
7.35183e-07
-2.26715e-06
6.60334e-07
-2.25743e-06
5.86891e-07
-2.24757e-06
5.14746e-07
-2.23763e-06
4.43743e-07
-2.22766e-06
3.73702e-07
-2.21767e-06
3.04416e-07
-2.20764e-06
2.35679e-07
-2.1976e-06
1.67248e-07
-2.18753e-06
9.88745e-08
-2.17747e-06
3.03394e-08
-2.16746e-06
-3.86192e-08
-2.15757e-06
-1.08262e-07
-2.14791e-06
-1.78854e-07
-2.13863e-06
-2.50678e-07
-2.12992e-06
-3.24031e-07
-2.12203e-06
-3.99234e-07
-2.11524e-06
-4.76633e-07
-2.10988e-06
-5.5661e-07
-2.10634e-06
-6.39588e-07
-2.10503e-06
-7.26032e-07
-2.10638e-06
-8.1646e-07
-2.11078e-06
-9.11433e-07
-2.11858e-06
-1.01155e-06
-2.13003e-06
-1.11741e-06
-2.14514e-06
-1.22959e-06
-2.16368e-06
-1.34855e-06
-2.18495e-06