/*--------------------------------*- C++ -*----------------------------------*\
  =========                 |
  \\      /  F ield         | OpenFOAM: The Open Source CFD Toolbox
   \\    /   O peration     | Website:  https://openfoam.org
    \\  /    A nd           | Version:  13
     \\/     M anipulation  |
\*---------------------------------------------------------------------------*/
FoamFile
{
    format      ascii;
    class       volVectorField;
    location    "5.1";
    object      U;
}
// * * * * * * * * * * * * * * * * * * * * * * * * * * * * * * * * * * * * * //

dimensions      [0 1 -1 0 0 0 0];

internalField   nonuniform List<vector> 
6400
(
(-0.000111357 7.29051e-05 0)
(0.00041857 -0.000159241 0)
(0.00193284 -0.00039316 0)
(0.00393899 -0.000497227 0)
(0.00594736 -0.000440142 0)
(0.00763379 -0.000296623 0)
(0.00877339 -0.00012412 0)
(0.00936011 7.25373e-06 0)
(0.00950901 5.87384e-05 0)
(0.00942847 4.14843e-05 0)
(0.0092525 -2.61043e-05 0)
(0.00912128 -0.000122272 0)
(0.00910558 -0.000222207 0)
(0.00920216 -0.000304923 0)
(0.00936983 -0.000373752 0)
(0.00953637 -0.000426439 0)
(0.00963374 -0.000462468 0)
(0.00960947 -0.000470958 0)
(0.00943345 -0.00045936 0)
(0.0090169 -0.000425755 0)
(0.00831273 -0.00037964 0)
(0.00727515 -0.000332218 0)
(0.0058541 -0.00028807 0)
(0.00402583 -0.00026521 0)
(0.00176037 -0.000298721 0)
(-0.000939872 -0.000397019 0)
(-0.00403619 -0.000473834 0)
(-0.00776144 -0.000371028 0)
(-0.0122347 2.10834e-05 0)
(-0.0174515 0.000744315 0)
(-0.0240176 0.00168158 0)
(-0.0315431 0.00255165 0)
(-0.0397622 0.0032782 0)
(-0.0484338 0.00384545 0)
(-0.0573109 0.00424999 0)
(-0.0661639 0.00449841 0)
(-0.074805 0.00460849 0)
(-0.0830727 0.00460081 0)
(-0.0908433 0.00449542 0)
(-0.0980139 0.0043104 0)
(-0.104503 0.00405875 0)
(-0.110242 0.00374983 0)
(-0.115174 0.00338782 0)
(-0.119261 0.00297368 0)
(-0.122476 0.0025112 0)
(-0.1248 0.00201788 0)
(-0.125934 0.00159352 0)
(-0.126293 0.00117792 0)
(-0.125578 0.00039515 0)
(-0.123642 -0.000125723 0)
(-0.120691 -0.00082784 0)
(-0.116515 -0.00144864 0)
(-0.111236 -0.00210953 0)
(-0.104776 -0.00272725 0)
(-0.097232 -0.00333514 0)
(-0.0886853 -0.00392727 0)
(-0.0791516 -0.00446909 0)
(-0.0687546 -0.00493428 0)
(-0.0576782 -0.00531657 0)
(-0.0460868 -0.00556259 0)
(-0.0342248 -0.00564622 0)
(-0.0223635 -0.00554391 0)
(-0.0107923 -0.00524696 0)
(0.000162979 -0.00476649 0)
(0.0101377 -0.00410473 0)
(0.018803 -0.00320446 0)
(0.0258786 -0.0021865 0)
(0.0310958 -0.00106277 0)
(0.0344104 8.35822e-05 0)
(0.0353005 0.00140034 0)
(0.0343659 0.0020162 0)
(0.0314776 0.00262204 0)
(0.0266175 0.00291279 0)
(0.0208229 0.00270534 0)
(0.0148048 0.00209051 0)
(0.00938124 0.00129151 0)
(0.00505104 0.000602783 0)
(0.0020044 0.000165403 0)
(0.000275309 -0.000138336 0)
(-0.000211204 -0.000327441 0)
(1.76503e-05 -0.000362842 0)
(0.0016756 -0.00194276 0)
(0.00485117 -0.00326379 0)
(0.00844112 -0.00373128 0)
(0.0117847 -0.00340243 0)
(0.0144745 -0.00261244 0)
(0.0163342 -0.00163841 0)
(0.0173721 -0.000739757 0)
(0.0177103 -9.56133e-05 0)
(0.0174931 0.00025677 0)
(0.0169239 0.000360319 0)
(0.0161404 0.0002894 0)
(0.0152366 0.000153951 0)
(0.0142042 5.8727e-05 0)
(0.0129778 6.38334e-05 0)
(0.011459 0.00018449 0)
(0.0095541 0.000403262 0)
(0.00721466 0.000696803 0)
(0.00433327 0.00108388 0)
(0.000811847 0.00157925 0)
(-0.00345208 0.00218706 0)
(-0.0086384 0.00291906 0)
(-0.0148945 0.00375957 0)
(-0.0222693 0.00468029 0)
(-0.0308109 0.0056942 0)
(-0.0405922 0.00681826 0)
(-0.0515984 0.00807451 0)
(-0.063513 0.00945275 0)
(-0.0760186 0.0109285 0)
(-0.0886479 0.0123772 0)
(-0.100864 0.0135359 0)
(-0.112723 0.014317 0)
(-0.124049 0.0147185 0)
(-0.134703 0.0147484 0)
(-0.144599 0.0144637 0)
(-0.153658 0.0139124 0)
(-0.161837 0.0131451 0)
(-0.169098 0.0122065 0)
(-0.175422 0.0111332 0)
(-0.180795 0.00995578 0)
(-0.185204 0.00869401 0)
(-0.188641 0.00736371 0)
(-0.191099 0.00597359 0)
(-0.192568 0.00453138 0)
(-0.193046 0.00304342 0)
(-0.192513 0.00151425 0)
(-0.190932 -4.09971e-05 0)
(-0.188332 -0.00165246 0)
(-0.184655 -0.0033643 0)
(-0.179901 -0.00509562 0)
(-0.174082 -0.00687653 0)
(-0.167154 -0.00866393 0)
(-0.15914 -0.0104511 0)
(-0.150019 -0.0122042 0)
(-0.139821 -0.0138924 0)
(-0.12856 -0.0154665 0)
(-0.116359 -0.0168863 0)
(-0.103308 -0.0181097 0)
(-0.0895526 -0.0190572 0)
(-0.075311 -0.0196712 0)
(-0.0607771 -0.0198878 0)
(-0.0462031 -0.0196564 0)
(-0.0318706 -0.0189374 0)
(-0.0180784 -0.0177193 0)
(-0.00511201 -0.0159928 0)
(0.00670799 -0.0137602 0)
(0.0170959 -0.0110861 0)
(0.0258322 -0.00805604 0)
(0.0327147 -0.00475389 0)
(0.0375131 -0.00134784 0)
(0.0402344 0.001895 0)
(0.0407276 0.00489641 0)
(0.0390507 0.00742621 0)
(0.0353795 0.00920776 0)
(0.0299025 0.00960221 0)
(0.0229138 0.00886237 0)
(0.0153955 0.00717721 0)
(0.00846806 0.004958 0)
(0.00321748 0.00249902 0)
(0.000256429 0.000406826 0)
(0.000185732 -0.00151664 0)
(0.00294259 -0.00499437 0)
(0.00695976 -0.00712136 0)
(0.0107865 -0.00744475 0)
(0.0139671 -0.00647026 0)
(0.0162851 -0.00480847 0)
(0.0177494 -0.0029911 0)
(0.0184168 -0.00133962 0)
(0.01836 -2.85523e-05 0)
(0.0176644 0.000862422 0)
(0.0164756 0.00135279 0)
(0.0148678 0.00158056 0)
(0.0128589 0.00172509 0)
(0.0104124 0.0019512 0)
(0.00745029 0.00236262 0)
(0.00386703 0.00299061 0)
(-0.000446502 0.00381958 0)
(-0.0056501 0.0048569 0)
(-0.0118609 0.00612213 0)
(-0.0191962 0.00765144 0)
(-0.0277444 0.00945879 0)
(-0.0375098 0.011501 0)
(-0.048449 0.0136974 0)
(-0.0604642 0.0159387 0)
(-0.0733301 0.0181052 0)
(-0.0867696 0.020105 0)
(-0.100442 0.0218551 0)
(-0.114033 0.0232844 0)
(-0.127229 0.0243356 0)
(-0.139754 0.0249854 0)
(-0.151427 0.0252242 0)
(-0.162169 0.025041 0)
(-0.171909 0.0244809 0)
(-0.180681 0.0235733 0)
(-0.188499 0.0223557 0)
(-0.195388 0.0208903 0)
(-0.201375 0.0192237 0)
(-0.206486 0.0174012 0)
(-0.210738 0.0154519 0)
(-0.214144 0.013408 0)
(-0.216716 0.0112888 0)
(-0.218458 0.00910253 0)
(-0.219368 0.00685839 0)
(-0.21944 0.00455604 0)
(-0.218667 0.0021937 0)
(-0.217034 -0.00022947 0)
(-0.214504 -0.00271781 0)
(-0.21106 -0.00528321 0)
(-0.206685 -0.00792031 0)
(-0.201347 -0.0105993 0)
(-0.195026 -0.0133362 0)
(-0.187696 -0.0160908 0)
(-0.179351 -0.0188477 0)
(-0.169983 -0.0215656 0)
(-0.159603 -0.024197 0)
(-0.148239 -0.0266726 0)
(-0.135953 -0.0289191 0)
(-0.122834 -0.0308533 0)
(-0.108982 -0.0323721 0)
(-0.094572 -0.0333822 0)
(-0.0798043 -0.033792 0)
(-0.0649024 -0.033516 0)
(-0.0501357 -0.0324847 0)
(-0.0358063 -0.0306933 0)
(-0.022201 -0.0281358 0)
(-0.00958312 -0.0248452 0)
(0.00179598 -0.0208681 0)
(0.0117072 -0.0163287 0)
(0.0199776 -0.0113692 0)
(0.0264774 -0.0061826 0)
(0.031122 -0.000993796 0)
(0.0339486 0.00398877 0)
(0.0348221 0.00841689 0)
(0.0336257 0.0119352 0)
(0.0305624 0.0144436 0)
(0.0258489 0.0152562 0)
(0.0195592 0.0144386 0)
(0.0125595 0.0120302 0)
(0.00591799 0.00813215 0)
(0.000798388 0.00314835 0)
(0.00037886 -0.00331428 0)
(0.00393361 -0.00885424 0)
(0.00810607 -0.011165 0)
(0.0115194 -0.0107957 0)
(0.0140145 -0.00889739 0)
(0.0155716 -0.00635453 0)
(0.0162785 -0.00371881 0)
(0.0162214 -0.00132423 0)
(0.0154734 0.000638284 0)
(0.0140964 0.00209441 0)
(0.0120866 0.00311794 0)
(0.00942301 0.00388657 0)
(0.00605738 0.00461924 0)
(0.00192221 0.00550879 0)
(-0.00305777 0.00667346 0)
(-0.00897005 0.00816045 0)
(-0.0159325 0.00998418 0)
(-0.0240633 0.0121454 0)
(-0.0334437 0.0146362 0)
(-0.0440982 0.0174349 0)
(-0.0559622 0.0204632 0)
(-0.0688642 0.023586 0)
(-0.0825328 0.0266378 0)
(-0.0966334 0.0294586 0)
(-0.110867 0.0319501 0)
(-0.124907 0.0339481 0)
(-0.138458 0.035339 0)
(-0.151241 0.0361114 0)
(-0.163069 0.0363282 0)
(-0.173879 0.0360366 0)
(-0.183642 0.0352986 0)
(-0.192401 0.0341522 0)
(-0.200194 0.0326339 0)
(-0.20709 0.0308062 0)
(-0.213132 0.0287145 0)
(-0.218379 0.0264124 0)
(-0.222872 0.0239383 0)
(-0.226643 0.0213313 0)
(-0.229713 0.0186178 0)
(-0.232097 0.0158175 0)
(-0.233803 0.0129448 0)
(-0.234831 0.0100043 0)
(-0.235172 0.0069965 0)
(-0.234817 0.0039168 0)
(-0.233747 0.000760851 0)
(-0.231938 -0.00247536 0)
(-0.229356 -0.00579528 0)
(-0.225976 -0.00921392 0)
(-0.221769 -0.0127318 0)
(-0.216698 -0.016336 0)
(-0.210728 -0.0200175 0)
(-0.203823 -0.0237426 0)
(-0.195961 -0.0274838 0)
(-0.187122 -0.0311959 0)
(-0.177294 -0.0348142 0)
(-0.166477 -0.0382475 0)
(-0.154701 -0.0413894 0)
(-0.142028 -0.0441321 0)
(-0.128545 -0.0463428 0)
(-0.114368 -0.0478684 0)
(-0.0996739 -0.0485911 0)
(-0.0846727 -0.0483809 0)
(-0.0695995 -0.0471377 0)
(-0.0547531 -0.0448119 0)
(-0.0404841 -0.0414307 0)
(-0.0270934 -0.0370722 0)
(-0.0148205 -0.0317994 0)
(-0.00389839 -0.0257717 0)
(0.00547914 -0.0191943 0)
(0.013182 -0.0123109 0)
(0.019141 -0.00538712 0)
(0.0233611 0.00135719 0)
(0.0258734 0.0076156 0)
(0.0267227 0.0129853 0)
(0.0257707 0.0170866 0)
(0.0230111 0.0196263 0)
(0.018642 0.020152 0)
(0.0130231 0.0184725 0)
(0.00680587 0.0143421 0)
(0.00105124 0.00689706 0)
(0.000623177 -0.00562653 0)
(0.00458717 -0.0129825 0)
(0.00832665 -0.0148161 0)
(0.0109411 -0.0134209 0)
(0.0125355 -0.0104879 0)
(0.0131697 -0.00703881 0)
(0.0129813 -0.00361031 0)
(0.0120533 -0.000504744 0)
(0.0104209 0.00212422 0)
(0.00807428 0.00425988 0)
(0.00495428 0.00600829 0)
(0.000976754 0.00757032 0)
(-0.00394748 0.00917687 0)
(-0.00990328 0.0110226 0)
(-0.0169704 0.0132317 0)
(-0.0252232 0.0158613 0)
(-0.0347251 0.0189205 0)
(-0.0455047 0.0223764 0)
(-0.0575135 0.0261404 0)
(-0.0706034 0.0300967 0)
(-0.0845205 0.0340413 0)
(-0.0989116 0.0377527 0)
(-0.113444 0.0411288 0)
(-0.127806 0.0438963 0)
(-0.141633 0.0459061 0)
(-0.154595 0.0471493 0)
(-0.166552 0.0476499 0)
(-0.177451 0.0474553 0)
(-0.187319 0.0466596 0)
(-0.1962 0.0453613 0)
(-0.204152 0.0436401 0)
(-0.211256 0.041569 0)
(-0.217565 0.0391975 0)
(-0.22314 0.0365771 0)
(-0.228029 0.0337484 0)
(-0.232281 0.0307504 0)
(-0.235929 0.0276158 0)
(-0.238996 0.0243738 0)
(-0.241501 0.0210379 0)
(-0.24345 0.0176223 0)
(-0.244845 0.0141382 0)
(-0.245685 0.0105783 0)
(-0.24596 0.00693875 0)
(-0.245657 0.00320789 0)
(-0.244757 -0.000624211 0)
(-0.243236 -0.00456699 0)
(-0.24105 -0.00862658 0)
(-0.238168 -0.0128123 0)
(-0.234548 -0.0171254 0)
(-0.230159 -0.0215673 0)
(-0.224969 -0.0261356 0)
(-0.218903 -0.0307873 0)
(-0.211925 -0.0354864 0)
(-0.203998 -0.0401862 0)
(-0.195082 -0.0448096 0)
(-0.185162 -0.0492498 0)
(-0.174215 -0.0533654 0)
(-0.162278 -0.0570253 0)
(-0.149407 -0.0600646 0)
(-0.13568 -0.0622861 0)
(-0.121236 -0.063529 0)
(-0.106259 -0.0636181 0)
(-0.0909735 -0.0624056 0)
(-0.0756249 -0.0598007 0)
(-0.0605313 -0.0557806 0)
(-0.0461307 -0.0504518 0)
(-0.0327336 -0.0439575 0)
(-0.0205782 -0.0364947 0)
(-0.00990932 -0.0283153 0)
(-0.000894038 -0.0197248 0)
(0.00637572 -0.0110568 0)
(0.0118891 -0.00261198 0)
(0.0157044 0.00529452 0)
(0.0179006 0.0123333 0)
(0.0185015 0.0181391 0)
(0.0175146 0.0222602 0)
(0.0149586 0.024233 0)
(0.0110247 0.0237061 0)
(0.0060558 0.0200025 0)
(0.000893022 0.0105903 0)
(0.000901003 -0.00831216 0)
(0.00481226 -0.0168369 0)
(0.00768998 -0.0175912 0)
(0.00924591 -0.0150689 0)
(0.00982577 -0.0110866 0)
(0.00946975 -0.00676861 0)
(0.00831975 -0.00257205 0)
(0.00641923 0.00126053 0)
(0.00375421 0.0046307 0)
(0.00026058 0.00756993 0)
(-0.004163 0.0102188 0)
(-0.0096268 0.0127887 0)
(-0.0162302 0.0155016 0)
(-0.0240526 0.0185364 0)
(-0.0331483 0.0219991 0)
(-0.0435361 0.0259191 0)
(-0.0551839 0.030254 0)
(-0.0679829 0.034912 0)
(-0.0817416 0.0396882 0)
(-0.0961292 0.0443366 0)
(-0.110777 0.0487106 0)
(-0.125366 0.0524608 0)
(-0.13947 0.0553912 0)
(-0.152677 0.0574175 0)
(-0.164838 0.0584936 0)
(-0.175919 0.0586847 0)
(-0.185961 0.0581087 0)
(-0.195041 0.0568978 0)
(-0.203235 0.0551626 0)
(-0.21061 0.0529983 0)
(-0.217233 0.050479 0)
(-0.223162 0.0476662 0)
(-0.228449 0.0446098 0)
(-0.233145 0.0413517 0)
(-0.237288 0.0379268 0)
(-0.240911 0.0343652 0)
(-0.244037 0.0306923 0)
(-0.246685 0.0269302 0)
(-0.24887 0.0230886 0)
(-0.250593 0.0191741 0)
(-0.251853 0.0151915 0)
(-0.252657 0.0111235 0)
(-0.252995 0.00696369 0)
(-0.252862 0.00269339 0)
(-0.25225 -0.00170745 0)
(-0.251143 -0.0062598 0)
(-0.249519 -0.0109729 0)
(-0.247342 -0.0158562 0)
(-0.244559 -0.0209045 0)
(-0.241119 -0.0261188 0)
(-0.236961 -0.0314971 0)
(-0.232036 -0.0370158 0)
(-0.226241 -0.0426101 0)
(-0.21951 -0.0482284 0)
(-0.211778 -0.0537922 0)
(-0.203077 -0.0592514 0)
(-0.193295 -0.0644108 0)
(-0.182398 -0.0690901 0)
(-0.17043 -0.0731068 0)
(-0.157409 -0.076207 0)
(-0.143441 -0.0781889 0)
(-0.12868 -0.0788313 0)
(-0.11331 -0.0779457 0)
(-0.0976021 -0.0753788 0)
(-0.0818095 -0.0710373 0)
(-0.0663087 -0.0649517 0)
(-0.051604 -0.057401 0)
(-0.038009 -0.0485935 0)
(-0.0258172 -0.0388398 0)
(-0.0152673 -0.0285292 0)
(-0.00651052 -0.0180769 0)
(0.000403748 -0.00787915 0)
(0.00552468 0.00170046 0)
(0.00896822 0.0103259 0)
(0.0108567 0.0176584 0)
(0.0112681 0.0232786 0)
(0.0102249 0.0266939 0)
(0.00781246 0.0273954 0)
(0.00440298 0.0244193 0)
(0.000514838 0.0135872 0)
(0.00113851 -0.0111512 0)
(0.00453459 -0.0199322 0)
(0.00619882 -0.0193216 0)
(0.00668796 -0.0155891 0)
(0.00615875 -0.010636 0)
(0.00477408 -0.00549339 0)
(0.00260544 -0.000526729 0)
(-0.000354397 0.00408636 0)
(-0.00416648 0.00830132 0)
(-0.00892961 0.0121853 0)
(-0.0147594 0.0158956 0)
(-0.0217643 0.0196367 0)
(-0.0300287 0.0236064 0)
(-0.0396 0.0279486 0)
(-0.0504746 0.0327227 0)
(-0.062577 0.0378951 0)
(-0.0757787 0.0433565 0)
(-0.0898182 0.0488781 0)
(-0.104323 0.0542333 0)
(-0.118968 0.0590961 0)
(-0.133293 0.0631788 0)
(-0.146841 0.0662741 0)
(-0.159343 0.0682638 0)
(-0.170742 0.0691885 0)
(-0.181096 0.0691671 0)
(-0.190457 0.0683385 0)
(-0.198925 0.0668363 0)
(-0.206579 0.0647817 0)
(-0.213496 0.0622759 0)
(-0.219732 0.0594047 0)
(-0.225343 0.0562345 0)
(-0.230374 0.0528172 0)
(-0.234867 0.0491973 0)
(-0.238859 0.0454117 0)
(-0.242379 0.0414927 0)
(-0.245449 0.0374698 0)
(-0.248083 0.0333675 0)
(-0.250297 0.0292019 0)
(-0.252092 0.024983 0)
(-0.253554 0.0206077 0)
(-0.254627 0.016193 0)
(-0.255326 0.0116902 0)
(-0.255634 0.00709973 0)
(-0.255544 0.00240236 0)
(-0.255042 -0.00242008 0)
(-0.254134 -0.00738975 0)
(-0.252825 -0.0125309 0)
(-0.2511 -0.0178718 0)
(-0.248959 -0.023445 0)
(-0.246369 -0.0292709 0)
(-0.243295 -0.035372 0)
(-0.239706 -0.0417356 0)
(-0.235485 -0.0482554 0)
(-0.230518 -0.0549022 0)
(-0.224683 -0.0615889 0)
(-0.217764 -0.0681444 0)
(-0.209671 -0.0743922 0)
(-0.200267 -0.0801199 0)
(-0.189678 -0.0852348 0)
(-0.177849 -0.0894248 0)
(-0.164783 -0.0923969 0)
(-0.150631 -0.0938837 0)
(-0.13551 -0.0936166 0)
(-0.119682 -0.0914118 0)
(-0.103427 -0.0871273 0)
(-0.0870136 -0.0806841 0)
(-0.0709575 -0.0722713 0)
(-0.0558201 -0.0622659 0)
(-0.0419373 -0.0510042 0)
(-0.0296382 -0.0389575 0)
(-0.019169 -0.0266376 0)
(-0.0106566 -0.014556 0)
(-0.00410335 -0.00318082 0)
(0.000605448 0.00709466 0)
(0.00366355 0.0159335 0)
(0.00524834 0.0229745 0)
(0.00546464 0.0277518 0)
(0.00439822 0.0296391 0)
(0.00242051 0.0273443 0)
(6.24244e-05 0.015415 0)
(0.00125135 -0.0138352 0)
(0.00365172 -0.0219535 0)
(0.00412436 -0.0199028 0)
(0.00343355 -0.0149317 0)
(0.00179101 -0.00911013 0)
(-0.000651055 -0.00317271 0)
(-0.0038885 0.00259233 0)
(-0.00797475 0.0080614 0)
(-0.0130026 0.0132264 0)
(-0.019082 0.018174 0)
(-0.0263204 0.0230597 0)
(-0.0348036 0.0280647 0)
(-0.0445788 0.0333453 0)
(-0.0556372 0.0389865 0)
(-0.0678901 0.0449789 0)
(-0.0811873 0.0512104 0)
(-0.0952282 0.0574476 0)
(-0.109649 0.0634277 0)
(-0.124039 0.0687733 0)
(-0.13792 0.0731796 0)
(-0.150858 0.0764165 0)
(-0.162733 0.0784363 0)
(-0.17352 0.0793089 0)
(-0.18328 0.0791938 0)
(-0.192095 0.0782173 0)
(-0.200052 0.0765261 0)
(-0.207246 0.0742446 0)
(-0.21374 0.0714817 0)
(-0.219595 0.068326 0)
(-0.224856 0.0648527 0)
(-0.229565 0.0611223 0)
(-0.233756 0.0571846 0)
(-0.237459 0.0530826 0)
(-0.240697 0.0488575 0)
(-0.243483 0.044547 0)
(-0.245888 0.0401207 0)
(-0.247961 0.0356005 0)
(-0.2497 0.0310086 0)
(-0.251126 0.0263412 0)
(-0.252197 0.0216852 0)
(-0.252951 0.0169264 0)
(-0.253385 0.0120884 0)
(-0.253515 0.00714749 0)
(-0.253349 0.00209132 0)
(-0.252897 -0.00309661 0)
(-0.252165 -0.00843368 0)
(-0.251144 -0.0139487 0)
(-0.249826 -0.019664 0)
(-0.248195 -0.0255991 0)
(-0.246228 -0.0317647 0)
(-0.243893 -0.0381574 0)
(-0.241142 -0.0448158 0)
(-0.237969 -0.0518305 0)
(-0.234323 -0.0591301 0)
(-0.230136 -0.0666731 0)
(-0.225311 -0.0744007 0)
(-0.21971 -0.0820662 0)
(-0.213014 -0.0893793 0)
(-0.204826 -0.0959637 0)
(-0.194949 -0.101417 0)
(-0.183468 -0.105593 0)
(-0.170599 -0.108263 0)
(-0.156318 -0.109015 0)
(-0.140876 -0.107583 0)
(-0.124541 -0.103781 0)
(-0.107614 -0.0974351 0)
(-0.09047 -0.0885994 0)
(-0.0737514 -0.0776021 0)
(-0.0580978 -0.0649772 0)
(-0.0438846 -0.051232 0)
(-0.0314852 -0.0369777 0)
(-0.0211381 -0.0228562 0)
(-0.0129394 -0.0094798 0)
(-0.00683072 0.00263252 0)
(-0.00260292 0.0130854 0)
(2.58394e-05 0.0215443 0)
(0.00128817 0.0276023 0)
(0.00138836 0.030579 0)
(0.000643476 0.028812 0)
(-0.000275394 0.0160411 0)
(0.00119609 -0.0160916 0)
(0.00235127 -0.0227681 0)
(0.00156639 -0.0191811 0)
(-0.00031405 -0.0131491 0)
(-0.00305026 -0.00650563 0)
(-0.00656806 0.000225878 0)
(-0.0109057 0.00683202 0)
(-0.0161488 0.0132294 0)
(-0.0224016 0.0194282 0)
(-0.0297653 0.0255154 0)
(-0.0383223 0.0316274 0)
(-0.0481194 0.0379059 0)
(-0.059148 0.0444463 0)
(-0.0713299 0.0512665 0)
(-0.084506 0.0582648 0)
(-0.0983545 0.0652053 0)
(-0.112523 0.0717832 0)
(-0.126546 0.0776216 0)
(-0.139904 0.0823744 0)
(-0.152328 0.0858393 0)
(-0.163674 0.0879832 0)
(-0.17395 0.0889302 0)
(-0.18321 0.0887978 0)
(-0.191553 0.0877582 0)
(-0.199062 0.085946 0)
(-0.205824 0.0835033 0)
(-0.211905 0.0805374 0)
(-0.217356 0.0771451 0)
(-0.222222 0.0734053 0)
(-0.22654 0.0693863 0)
(-0.230347 0.065145 0)
(-0.233673 0.0607302 0)
(-0.236544 0.0561843 0)
(-0.239036 0.051512 0)
(-0.241173 0.0467484 0)
(-0.242957 0.0419504 0)
(-0.244373 0.037119 0)
(-0.245438 0.0322425 0)
(-0.246192 0.027318 0)
(-0.246661 0.0223484 0)
(-0.24689 0.0173121 0)
(-0.246895 0.0122134 0)
(-0.246702 0.0070319 0)
(-0.246327 0.00175002 0)
(-0.245788 -0.00365781 0)
(-0.245076 -0.0092175 0)
(-0.244192 -0.0149621 0)
(-0.243141 -0.0209241 0)
(-0.241919 -0.0271368 0)
(-0.240521 -0.0336281 0)
(-0.238927 -0.0404166 0)
(-0.237109 -0.0475084 0)
(-0.23503 -0.0548978 0)
(-0.232632 -0.0625643 0)
(-0.229835 -0.0704576 0)
(-0.226528 -0.0784838 0)
(-0.22261 -0.0867359 0)
(-0.218055 -0.0951157 0)
(-0.21264 -0.103355 0)
(-0.206059 -0.110894 0)
(-0.197685 -0.117127 0)
(-0.187014 -0.121308 0)
(-0.174447 -0.123488 0)
(-0.160145 -0.123298 0)
(-0.144415 -0.120507 0)
(-0.127465 -0.114778 0)
(-0.109776 -0.106125 0)
(-0.0917914 -0.0946242 0)
(-0.0743206 -0.0808408 0)
(-0.0580984 -0.0655217 0)
(-0.0435795 -0.0493267 0)
(-0.031152 -0.033034 0)
(-0.0210436 -0.0174205 0)
(-0.0132934 -0.0031822 0)
(-0.00775099 0.00913258 0)
(-0.00408903 0.0191271 0)
(-0.00192026 0.026455 0)
(-0.000881594 0.0303481 0)
(-0.000560913 0.0290386 0)
(-0.000361843 0.0158492 0)
(0.00099363 -0.0174488 0)
(0.000763476 -0.0222523 0)
(-0.00131274 -0.0171964 0)
(-0.00433182 -0.0102479 0)
(-0.00815425 -0.0028164 0)
(-0.0127527 0.00471868 0)
(-0.0181929 0.012205 0)
(-0.0245762 0.0195822 0)
(-0.0320011 0.0268599 0)
(-0.0405459 0.0341075 0)
(-0.0502553 0.0414261 0)
(-0.0611225 0.0489015 0)
(-0.0730865 0.0565648 0)
(-0.0859968 0.0643402 0)
(-0.0995298 0.0719935 0)
(-0.113321 0.079194 0)
(-0.126917 0.0855689 0)
(-0.139818 0.0907372 0)
(-0.151785 0.0945294 0)
(-0.162695 0.0969309 0)
(-0.172526 0.0980218 0)
(-0.181361 0.0979663 0)
(-0.189279 0.0969248 0)
(-0.196376 0.0950605 0)
(-0.20272 0.0925042 0)
(-0.208377 0.0893801 0)
(-0.213394 0.0857838 0)
(-0.217813 0.0818038 0)
(-0.221675 0.0775139 0)
(-0.225015 0.0729795 0)
(-0.227871 0.0682557 0)
(-0.230281 0.0633898 0)
(-0.232287 0.058419 0)
(-0.233889 0.0533899 0)
(-0.235133 0.0483064 0)
(-0.236044 0.0431863 0)
(-0.236667 0.0380354 0)
(-0.237061 0.0328645 0)
(-0.237252 0.027681 0)
(-0.237248 0.0224844 0)
(-0.237081 0.0172569 0)
(-0.236767 0.0119891 0)
(-0.236324 0.00665872 0)
(-0.235767 0.00124329 0)
(-0.235109 -0.00428544 0)
(-0.234356 -0.00995693 0)
(-0.233523 -0.0158036 0)
(-0.232621 -0.0218592 0)
(-0.231658 -0.0281596 0)
(-0.230639 -0.0347399 0)
(-0.229562 -0.0416337 0)
(-0.228416 -0.0488729 0)
(-0.227186 -0.0564817 0)
(-0.225838 -0.0644659 0)
(-0.224313 -0.0728068 0)
(-0.22252 -0.0814428 0)
(-0.220347 -0.0902627 0)
(-0.217652 -0.0991188 0)
(-0.214224 -0.107806 0)
(-0.209926 -0.116475 0)
(-0.204589 -0.124674 0)
(-0.197712 -0.131585 0)
(-0.188411 -0.136218 0)
(-0.176259 -0.137739 0)
(-0.16209 -0.1366 0)
(-0.145948 -0.132149 0)
(-0.128324 -0.124284 0)
(-0.109745 -0.11304 0)
(-0.0908041 -0.0986426 0)
(-0.0725243 -0.0819278 0)
(-0.0557578 -0.0638844 0)
(-0.0410205 -0.0453527 0)
(-0.0287115 -0.0272939 0)
(-0.0190178 -0.010612 0)
(-0.0118977 0.00392233 0)
(-0.00706011 0.0157459 0)
(-0.00399363 0.0244614 0)
(-0.0022359 0.0291741 0)
(-0.00113576 0.0283584 0)
(-0.000308674 0.0152302 0)
(0.000724713 -0.0178512 0)
(-0.00101627 -0.0203834 0)
(-0.00432096 -0.0140296 0)
(-0.00843808 -0.00623604 0)
(-0.0133338 0.00195185 0)
(-0.018992 0.0102937 0)
(-0.0254989 0.0186813 0)
(-0.0329567 0.027057 0)
(-0.0414458 0.0354115 0)
(-0.0510106 0.0437807 0)
(-0.0616478 0.0522162 0)
(-0.0733073 0.0607449 0)
(-0.0858617 0.0693148 0)
(-0.099012 0.0776977 0)
(-0.112376 0.0855621 0)
(-0.125529 0.0925327 0)
(-0.13803 0.098234 0)
(-0.149606 0.10247 0)
(-0.160141 0.105225 0)
(-0.169602 0.106564 0)
(-0.178059 0.106661 0)
(-0.185602 0.105694 0)
(-0.192305 0.103827 0)
(-0.198244 0.101207 0)
(-0.203468 0.0979541 0)
(-0.208029 0.0941799 0)
(-0.211966 0.0899754 0)
(-0.215322 0.0854268 0)
(-0.218139 0.0806074 0)
(-0.220459 0.0755831 0)
(-0.222328 0.0704098 0)
(-0.223787 0.0651338 0)
(-0.224883 0.0597914 0)
(-0.225654 0.0544135 0)
(-0.226149 0.0490197 0)
(-0.226406 0.0436305 0)
(-0.226463 0.0382557 0)
(-0.226352 0.0328969 0)
(-0.226096 0.027551 0)
(-0.225715 0.0222122 0)
(-0.225228 0.0168641 0)
(-0.224651 0.0114909 0)
(-0.223999 0.00607029 0)
(-0.223287 0.000578355 0)
(-0.222527 -0.00501251 0)
(-0.221732 -0.0107319 0)
(-0.220917 -0.0166129 0)
(-0.220096 -0.0226899 0)
(-0.219285 -0.0289991 0)
(-0.218495 -0.0355771 0)
(-0.217738 -0.0424612 0)
(-0.217019 -0.0496887 0)
(-0.216341 -0.0572932 0)
(-0.215695 -0.0652999 0)
(-0.215054 -0.0737222 0)
(-0.214366 -0.0825559 0)
(-0.213552 -0.0917687 0)
(-0.212488 -0.101261 0)
(-0.210992 -0.110846 0)
(-0.208848 -0.120238 0)
(-0.205767 -0.129122 0)
(-0.201472 -0.137554 0)
(-0.195709 -0.144895 0)
(-0.18771 -0.149888 0)
(-0.176235 -0.151047 0)
(-0.162077 -0.148686 0)
(-0.145465 -0.142409 0)
(-0.127038 -0.132166 0)
(-0.107423 -0.118038 0)
(-0.0874705 -0.10053 0)
(-0.0683967 -0.0807772 0)
(-0.0511895 -0.06005 0)
(-0.0364185 -0.0394013 0)
(-0.0244616 -0.0199857 0)
(-0.0154192 -0.00282632 0)
(-0.00912115 0.0112525 0)
(-0.00504209 0.02166 0)
(-0.00266374 0.0273672 0)
(-0.00110418 0.0271733 0)
(-0.000118571 0.0144974 0)
(0.00020848 -0.0172034 0)
(-0.00290032 -0.0172299 0)
(-0.00733214 -0.00969222 0)
(-0.012499 -0.00114607 0)
(-0.018423 0.00776291 0)
(-0.0250863 0.0169026 0)
(-0.0325837 0.026187 0)
(-0.0410073 0.0355415 0)
(-0.0504091 0.0449223 0)
(-0.060792 0.0543194 0)
(-0.0721139 0.0637291 0)
(-0.0842702 0.0731124 0)
(-0.0970003 0.0822561 0)
(-0.109933 0.0908335 0)
(-0.122663 0.0984693 0)
(-0.134805 0.104808 0)
(-0.146058 0.109613 0)
(-0.156274 0.112823 0)
(-0.16543 0.114518 0)
(-0.173565 0.114855 0)
(-0.18077 0.114032 0)
(-0.187118 0.112221 0)
(-0.192671 0.109576 0)
(-0.197482 0.10623 0)
(-0.201597 0.102298 0)
(-0.205062 0.0978863 0)
(-0.207924 0.0930889 0)
(-0.210236 0.087993 0)
(-0.21205 0.0826743 0)
(-0.213422 0.0772 0)
(-0.214406 0.0716257 0)
(-0.215054 0.0659968 0)
(-0.215418 0.0603483 0)
(-0.215545 0.0547089 0)
(-0.215476 0.0490981 0)
(-0.215245 0.0435293 0)
(-0.214881 0.0380052 0)
(-0.214408 0.032522 0)
(-0.213844 0.0270728 0)
(-0.213205 0.0216467 0)
(-0.212506 0.0162267 0)
(-0.211759 0.010795 0)
(-0.210976 0.00532921 0)
(-0.210169 -0.000194706 0)
(-0.209349 -0.0058034 0)
(-0.208528 -0.0115265 0)
(-0.207723 -0.0173959 0)
(-0.206949 -0.0234456 0)
(-0.206222 -0.0297112 0)
(-0.205561 -0.0362303 0)
(-0.204983 -0.0430416 0)
(-0.204505 -0.0501845 0)
(-0.204142 -0.057697 0)
(-0.203902 -0.0656123 0)
(-0.203782 -0.0739567 0)
(-0.203766 -0.0827466 0)
(-0.203815 -0.0919821 0)
(-0.203856 -0.101633 0)
(-0.203764 -0.111625 0)
(-0.203355 -0.121809 0)
(-0.202367 -0.13188 0)
(-0.200472 -0.141388 0)
(-0.19724 -0.149851 0)
(-0.192321 -0.157275 0)
(-0.185131 -0.162307 0)
(-0.174365 -0.163158 0)
(-0.160104 -0.159453 0)
(-0.142945 -0.151194 0)
(-0.123542 -0.138226 0)
(-0.10281 -0.120944 0)
(-0.0818458 -0.100119 0)
(-0.0620914 -0.0772728 0)
(-0.0446717 -0.0540037 0)
(-0.0301691 -0.0316156 0)
(-0.0188814 -0.0114431 0)
(-0.0107864 0.0053743 0)
(-0.00546385 0.0179574 0)
(-0.00239205 0.0251313 0)
(-0.000627941 0.0258822 0)
(0.00014209 0.0140425 0)
(-0.000326532 -0.0153604 0)
(-0.00476201 -0.0128162 0)
(-0.0102319 -0.00426082 0)
(-0.0163827 0.00495813 0)
(-0.0232648 0.0145492 0)
(-0.0308494 0.0244621 0)
(-0.0392293 0.0346106 0)
(-0.048478 0.0448869 0)
(-0.0586141 0.055201 0)
(-0.0696022 0.0654886 0)
(-0.0813564 0.0756957 0)
(-0.0936577 0.0856221 0)
(-0.106169 0.0949604 0)
(-0.118512 0.103336 0)
(-0.130329 0.110402 0)
(-0.141323 0.115894 0)
(-0.151291 0.119682 0)
(-0.160198 0.121839 0)
(-0.168077 0.122517 0)
(-0.174996 0.121914 0)
(-0.181033 0.120223 0)
(-0.186244 0.117603 0)
(-0.190681 0.1142 0)
(-0.194393 0.110143 0)
(-0.197431 0.105548 0)
(-0.199852 0.100525 0)
(-0.201716 0.0951717 0)
(-0.203089 0.0895787 0)
(-0.204036 0.0838233 0)
(-0.204621 0.0779716 0)
(-0.204901 0.0720765 0)
(-0.204934 0.0661796 0)
(-0.204765 0.0603117 0)
(-0.204438 0.0544949 0)
(-0.203984 0.0487418 0)
(-0.203432 0.0430576 0)
(-0.202801 0.0374405 0)
(-0.202109 0.0318831 0)
(-0.201369 0.0263744 0)
(-0.20059 0.0209008 0)
(-0.199782 0.0154446 0)
(-0.198954 0.0099865 0)
(-0.198112 0.0045045 0)
(-0.197267 -0.00102496 0)
(-0.196426 -0.00662705 0)
(-0.195602 -0.0123305 0)
(-0.194807 -0.018165 0)
(-0.194058 -0.0241624 0)
(-0.193374 -0.030357 0)
(-0.192773 -0.0367848 0)
(-0.19228 -0.0434842 0)
(-0.191916 -0.0504952 0)
(-0.191706 -0.0578583 0)
(-0.191668 -0.065613 0)
(-0.191817 -0.0737954 0)
(-0.192158 -0.0824348 0)
(-0.192678 -0.0915487 0)
(-0.193345 -0.101134 0)
(-0.19409 -0.11116 0)
(-0.194797 -0.121556 0)
(-0.19528 -0.132181 0)
(-0.195262 -0.14278 0)
(-0.19436 -0.152878 0)
(-0.192102 -0.161793 0)
(-0.187873 -0.168968 0)
(-0.181173 -0.173808 0)
(-0.170724 -0.173982 0)
(-0.156255 -0.168895 0)
(-0.138347 -0.158286 0)
(-0.117841 -0.142259 0)
(-0.0959545 -0.121509 0)
(-0.0740754 -0.0971717 0)
(-0.0539051 -0.0712579 0)
(-0.0366552 -0.0457685 0)
(-0.0228579 -0.0222343 0)
(-0.0126685 -0.00218203 0)
(-0.00583284 0.0131747 0)
(-0.00191073 0.0224693 0)
(4.28133e-05 0.0246925 0)
(0.000413638 0.0140788 0)
(-0.000871036 -0.0124129 0)
(-0.00651597 -0.00726054 0)
(-0.0129252 0.00218062 0)
(-0.019975 0.0119968 0)
(-0.0277244 0.0222215 0)
(-0.0361216 0.0328624 0)
(-0.0452523 0.0438149 0)
(-0.0551665 0.0549246 0)
(-0.0658477 0.0660452 0)
(-0.077224 0.0770657 0)
(-0.089109 0.0877797 0)
(-0.101219 0.0979103 0)
(-0.113213 0.107091 0)
(-0.124747 0.114965 0)
(-0.135529 0.121247 0)
(-0.145325 0.125748 0)
(-0.154054 0.128483 0)
(-0.161741 0.12961 0)
(-0.168443 0.129322 0)
(-0.174228 0.127821 0)
(-0.179158 0.125289 0)
(-0.183283 0.12188 0)
(-0.186656 0.117739 0)
(-0.189336 0.112996 0)
(-0.191386 0.107777 0)
(-0.19288 0.102195 0)
(-0.193891 0.0963532 0)
(-0.194494 0.0903412 0)
(-0.19476 0.0842343 0)
(-0.194752 0.0780936 0)
(-0.194529 0.0719659 0)
(-0.19414 0.0658853 0)
(-0.193625 0.0598752 0)
(-0.193016 0.0539495 0)
(-0.192339 0.0481134 0)
(-0.191612 0.042366 0)
(-0.190849 0.0367004 0)
(-0.190059 0.0311062 0)
(-0.18925 0.0255705 0)
(-0.188426 0.0200767 0)
(-0.187592 0.0146059 0)
(-0.186751 0.00913941 0)
(-0.185908 0.00365576 0)
(-0.185067 -0.00186774 0)
(-0.184237 -0.00745483 0)
(-0.183425 -0.0131314 0)
(-0.182645 -0.0189248 0)
(-0.181911 -0.024864 0)
(-0.181241 -0.0309801 0)
(-0.180657 -0.0373067 0)
(-0.180184 -0.04388 0)
(-0.179848 -0.0507387 0)
(-0.179679 -0.0579235 0)
(-0.179705 -0.0654768 0)
(-0.179951 -0.0734411 0)
(-0.180437 -0.0818566 0)
(-0.181172 -0.0907566 0)
(-0.182147 -0.100162 0)
(-0.183329 -0.110072 0)
(-0.184649 -0.120452 0)
(-0.185988 -0.13122 0)
(-0.187158 -0.142225 0)
(-0.187874 -0.153212 0)
(-0.187725 -0.163744 0)
(-0.186167 -0.173053 0)
(-0.182502 -0.180193 0)
(-0.176013 -0.184514 0)
(-0.165503 -0.183721 0)
(-0.150556 -0.176847 0)
(-0.131674 -0.163457 0)
(-0.10997 -0.14395 0)
(-0.0869687 -0.119368 0)
(-0.0644198 -0.0913629 0)
(-0.0442841 -0.0626065 0)
(-0.02778 -0.0354278 0)
(-0.0152659 -0.0116485 0)
(-0.00668093 0.00709732 0)
(-0.00169317 0.0192391 0)
(0.000596227 0.0235803 0)
(0.000608277 0.0145145 0)
(-0.00139263 -0.00841381 0)
(-0.00810258 -0.000676389 0)
(-0.0153417 0.00953188 0)
(-0.0231902 0.0198703 0)
(-0.0316941 0.0306697 0)
(-0.0407769 0.0419753 0)
(-0.0505122 0.0536478 0)
(-0.0609228 0.0654744 0)
(-0.0719575 0.0772602 0)
(-0.083455 0.0887475 0)
(-0.0951912 0.0996768 0)
(-0.106874 0.109707 0)
(-0.118165 0.118457 0)
(-0.128782 0.125621 0)
(-0.138471 0.130955 0)
(-0.147101 0.134407 0)
(-0.15467 0.136098 0)
(-0.161229 0.136231 0)
(-0.166838 0.135012 0)
(-0.171559 0.132641 0)
(-0.175448 0.129289 0)
(-0.17856 0.125116 0)
(-0.18096 0.120271 0)
(-0.182723 0.114895 0)
(-0.183928 0.109117 0)
(-0.184659 0.103055 0)
(-0.184999 0.0968118 0)
(-0.185023 0.0904725 0)
(-0.184801 0.0841056 0)
(-0.184393 0.0777637 0)
(-0.183849 0.0714846 0)
(-0.183208 0.0652934 0)
(-0.182503 0.0592047 0)
(-0.181757 0.0532245 0)
(-0.180986 0.0473518 0)
(-0.180201 0.0415799 0)
(-0.179409 0.0358983 0)
(-0.178612 0.0302932 0)
(-0.177813 0.0247494 0)
(-0.177012 0.0192507 0)
(-0.17621 0.0137768 0)
(-0.175405 0.00830821 0)
(-0.174599 0.00282649 0)
(-0.173794 -0.00269032 0)
(-0.172996 -0.00826397 0)
(-0.172212 -0.0139173 0)
(-0.171451 -0.0196746 0)
(-0.170727 -0.0255615 0)
(-0.170058 -0.0316054 0)
(-0.169464 -0.0378363 0)
(-0.168971 -0.0442869 0)
(-0.168608 -0.0509929 0)
(-0.168406 -0.0579935 0)
(-0.1684 -0.0653311 0)
(-0.168623 -0.073051 0)
(-0.169106 -0.0811997 0)
(-0.169874 -0.0898224 0)
(-0.17094 -0.0989584 0)
(-0.172295 -0.108635 0)
(-0.173907 -0.118855 0)