/*--------------------------------*- C++ -*----------------------------------*\
  =========                 |
  \\      /  F ield         | OpenFOAM: The Open Source CFD Toolbox
   \\    /   O peration     | Website:  https://openfoam.org
    \\  /    A nd           | Version:  13
     \\/     M anipulation  |
\*---------------------------------------------------------------------------*/
FoamFile
{
    format      ascii;
    class       volScalarField;
    location    "5.6";
    object      epsilon;
}
// * * * * * * * * * * * * * * * * * * * * * * * * * * * * * * * * * * * * * //

dimensions      [0 2 -3 0 0 0 0];

internalField   nonuniform List<scalar> 
6400
(
2.46155e-05
0.000126351
0.00030583
0.000493748
0.000637155
0.00071899
0.000749831
0.000753698
0.000758189
0.00078577
0.000853342
0.000986959
0.00120038
0.00149864
0.00186846
0.00229023
0.00274328
0.00321738
0.00369299
0.0041549
0.00461435
0.00510778
0.00568619
0.00638891
0.00720009
0.00804205
0.00887615
0.00970265
0.0105435
0.0114206
0.0123295
0.013233
0.0141216
0.0149879
0.0158589
0.0167391
0.0176492
0.0185958
0.019592
0.0206429
0.0217556
0.0229382
0.0241983
0.0255507
0.0270028
0.0285925
0.0303925
0.03256
0.0350635
0.0374593
0.0399286
0.0422941
0.044572
0.046653
0.0484847
0.0499706
0.0508837
0.0512993
0.051408
0.0506861
0.049162
0.0468583
0.043803
0.0400682
0.0357908
0.0311333
0.0263656
0.0216769
0.0172513
0.013231
0.010007
0.00729609
0.00509697
0.00340789
0.00218921
0.00135706
0.000813747
0.000464335
0.000218309
4.63542e-05
0.000119351
0.000118613
0.0001939
0.000281864
0.000348778
0.000389889
0.000410494
0.000419969
0.000430083
0.000453056
0.000501761
0.000594636
0.000747084
0.000971134
0.00127115
0.00164886
0.00210639
0.00264966
0.00328402
0.00401709
0.00485638
0.00583151
0.00699165
0.00836739
0.00995541
0.0117658
0.0136834
0.0155591
0.0172921
0.0187918
0.0199477
0.0208483
0.0214757
0.0219072
0.0221866
0.0223652
0.0224863
0.0225823
0.0226795
0.0227955
0.0229521
0.0231589
0.0234271
0.0237261
0.0240709
0.0244834
0.0249871
0.0255588
0.026216
0.0269112
0.02765
0.0283954
0.029125
0.029801
0.0303805
0.0307563
0.0309045
0.0308894
0.0305863
0.0299274
0.0288864
0.0274724
0.0256532
0.0234984
0.0210842
0.0185077
0.0158872
0.0133416
0.0109615
0.00882419
0.00703023
0.00549607
0.00418351
0.00306959
0.00215068
0.0014123
0.000861756
0.000483056
0.000250067
0.000244972
0.000261732
0.000215757
0.000288989
0.0003653
0.000412056
0.000435887
0.000448634
0.000462594
0.000491131
0.000550294
0.000662035
0.000852308
0.00114695
0.0015652
0.00211913
0.00282139
0.00368396
0.00472086
0.00594163
0.0073522
0.00895771
0.0107344
0.0126086
0.0144493
0.0160902
0.0173185
0.0180661
0.0184971
0.0187143
0.0188529
0.0189505
0.0189285
0.0186581
0.0183828
0.0180907
0.0178284
0.0176108
0.0174632
0.0173959
0.0173798
0.0174548
0.0176172
0.0178595
0.0182169
0.018681
0.019241
0.0198793
0.0205942
0.0213818
0.0222304
0.0231286
0.0240585
0.0249982
0.0259177
0.0267787
0.0275356
0.0281448
0.0284698
0.0285611
0.028349
0.0277208
0.026656
0.0251108
0.0231868
0.0209565
0.0185193
0.0159971
0.0135032
0.0111466
0.00901404
0.00716787
0.00561296
0.00432896
0.00327802
0.00242217
0.00173515
0.00117777
0.000736437
0.000456054
0.000651948
0.000455405
0.00037352
0.000458795
0.000533823
0.000573111
0.000593064
0.000611938
0.000648489
0.000723408
0.000865161
0.00111027
0.00149845
0.00206367
0.00282759
0.0038013
0.0049896
0.00639427
0.00799867
0.00975547
0.0115806
0.0133519
0.0149318
0.0161806
0.0169008
0.0172135
0.0172988
0.0173022
0.017006
0.0165184
0.0159629
0.0153252
0.0148195
0.0144177
0.0140907
0.0138332
0.0136633
0.0135829
0.0135595
0.0136149
0.013759
0.0139796
0.0142799
0.0146587
0.0151193
0.0156579
0.0162748
0.0169702
0.0177441
0.0185956
0.0195217
0.0205159
0.0215672
0.0226596
0.0237693
0.0248629
0.0258974
0.0268165
0.0275561
0.0279619
0.0280902
0.0278539
0.0271784
0.0260892
0.0244367
0.0223172
0.0198772
0.0172433
0.0145589
0.0119739
0.00961511
0.00756759
0.00586479
0.00449468
0.0034139
0.00256868
0.00190765
0.00137862
0.000950508
0.000679126
0.00107761
0.000731456
0.000594395
0.000681265
0.000755382
0.00079725
0.000828962
0.000875439
0.000965032
0.00113282
0.00142379
0.00188945
0.00257648
0.00351377
0.00470745
0.00614422
0.00779217
0.00959278
0.0114465
0.0132063
0.0147123
0.0157716
0.0162638
0.016418
0.0164057
0.016053
0.0154193
0.0145887
0.0138109
0.0131614
0.0125756
0.012076
0.0116897
0.0113843
0.011157
0.0110061
0.0109338
0.0109101
0.0109325
0.0110342
0.0111857
0.0113961
0.0116624
0.0119871
0.012372
0.0128199
0.0133353
0.0139226
0.014587
0.0153332
0.0161656
0.0170868
0.0180965
0.0191888
0.0203531
0.0215706
0.0228141
0.0240353
0.0251754
0.0261628
0.0268435
0.0271263
0.0271277
0.0265183
0.0254978
0.0237722
0.0215106
0.0188701
0.0160158
0.0131477
0.0104609
0.00810256
0.00615203
0.00461646
0.00344878
0.00257324
0.00191684
0.0014188
0.00103794
0.000824186
0.00136597
0.00112638
0.000886814
0.000960742
0.0010377
0.00109548
0.0011588
0.00126139
0.00144536
0.00176305
0.00227511
0.00303921
0.00409203
0.00543564
0.00703501
0.00882062
0.0106873
0.0124914
0.0140584
0.015162
0.0156629
0.0157963
0.0157131
0.0152314
0.0143626
0.0134032
0.0125358
0.0117542
0.0110888
0.0105315
0.0100607
0.00968052
0.0093794
0.0091418
0.0089628
0.00883487
0.00875674
0.00872062
0.00871119
0.00874444
0.00881458
0.00891989
0.00906257
0.00924255
0.00946441
0.00973138
0.0100502
0.0104276
0.0108735
0.0113985
0.0120148
0.0127354
0.0135734
0.0145385
0.0156367
0.0168658
0.0182134
0.0196602
0.0211585
0.0226523
0.02405
0.0252402
0.0259596
0.0262158
0.0259529
0.0251584
0.0233949
0.0209985
0.0181058
0.0149629
0.0118582
0.00904176
0.00668423
0.00484899
0.00350354
0.00254675
0.0018717
0.00138737
0.00103503
0.000880162
0.00146657
0.00167621
0.00125699
0.00130827
0.00139752
0.00148826
0.00160736
0.00180052
0.00212595
0.00265101
0.00344165
0.00454259
0.00595664
0.00763414
0.0094743
0.0113317
0.0130257
0.0143697
0.015058
0.0152756
0.0152482
0.0147772
0.0138407
0.0127699
0.011792
0.0109015
0.0101422
0.00948955
0.00894343
0.00848407
0.00809993
0.00778206
0.00751823
0.00729977
0.00712094
0.0069762
0.00686191
0.00677395
0.00671034
0.00667812
0.00666555
0.00666535
0.00670021
0.00675543
0.0068414
0.00695681
0.00710862
0.00730122
0.00754291
0.00784396
0.00821765
0.00868001
0.00925233
0.00996004
0.0108288
0.0118797
0.0131294
0.0145985
0.0162706
0.0180973
0.0200213
0.021943
0.0237203
0.0251099
0.0257625
0.0258832
0.025347
0.0236104
0.0209821
0.0177074
0.0141686
0.0107481
0.00776856
0.00541749
0.003719
0.002576
0.00181806
0.00131895
0.000998824
0.000872117
0.00142256
0.00241488
0.00170953
0.00173653
0.00185133
0.00199544
0.00219727
0.00251668
0.00302584
0.00379719
0.00488339
0.0062929
0.00797239
0.009804
0.0116165
0.0132073
0.014293
0.0147553
0.0148471
0.0145489
0.0137351
0.0125893
0.0114835
0.0104761
0.0096043
0.00885208
0.0082173
0.00767574
0.0072179
0.00682721
0.00649467
0.00621065
0.00596742
0.00575947
0.00558256
0.00543321
0.00530812
0.00520474
0.00512208
0.00505919
0.0050141
0.00499181
0.00498429
0.00499224
0.00502728
0.00508213
0.00516325
0.0052725
0.00541534
0.00559608
0.00582146
0.00610052
0.00644554
0.0068736
0.00740998
0.00809582
0.00898162
0.0101158
0.0115574
0.0133159
0.0153847
0.0177065
0.0201494
0.0225692
0.0246921
0.0259457
0.0263787
0.0261506
0.0243978
0.0213813
0.0176021
0.013555
0.00975841
0.00661537
0.00430304
0.00277683
0.00184302
0.00127178
0.000941704
0.000838017
0.00132256
0.00336731
0.00224781
0.00225486
0.00241493
0.00263165
0.00294134
0.0034155
0.00413197
0.0051521
0.00649413
0.00811067
0.00988061
0.0116198
0.0131088
0.0140065
0.014334
0.0143633
0.0138393
0.0127736
0.0115675
0.0104309
0.00942458
0.00855593
0.00781828
0.00719
0.00665656
0.00619991
0.00581009
0.00547557
0.00518952
0.0049449
0.00473677
0.00456094
0.00441353
0.00429141
0.00419222
0.00411375
0.00405431
0.004012
0.00398964
0.00398098
0.00398051
0.00400229
0.00403777
0.00409059
0.00416112
0.00425115
0.00436284
0.004499
0.00466348
0.00486125
0.0050987
0.00538454
0.00573063
0.00615405
0.00668082
0.00734921
0.00822427
0.00942579
0.0110678
0.0132039
0.0157817
0.0187079
0.0217562
0.0246314
0.0265756
0.0273642
0.0274172
0.0255376
0.0220298
0.0176112
0.0129678
0.00878837
0.00553657
0.00333198
0.00201671
0.00129152
0.00090427
0.00078707
0.00121511
0.00454509
0.00287853
0.00287493
0.00309463
0.00340129
0.00383646
0.00447725
0.0053945
0.00662061
0.00812247
0.00978837
0.0114356
0.0128392
0.0136388
0.0139066
0.0138394
0.0131441
0.0119658
0.010749
0.00958785
0.00857872
0.00771561
0.00698417
0.00636493
0.00583847
0.00539097
0.00501017
0.00468783
0.00441587
0.00418854
0.00400007
0.00384586
0.00372146
0.00362312
0.00354727
0.00349098
0.00345155
0.00342947
0.00342012
0.00341858
0.00343134
0.00345461
0.00349059
0.00353725
0.00359654
0.00366846
0.00375459
0.00385623
0.00397537
0.00411432
0.00427602
0.00446427
0.00468415
0.0049426
0.00524811
0.00561144
0.00605167
0.00659881
0.0073035
0.00824912
0.00958837
0.0115812
0.0142778
0.0175816
0.0212542
0.0249189
0.0275966
0.0287572
0.028951
0.026861
0.0227068
0.0175146
0.0122424
0.00775028
0.00450105
0.00249387
0.00142389
0.00091597
0.000747756
0.00113537
0.00596135
0.00361426
0.00360187
0.00388952
0.0042961
0.00486068
0.00565662
0.00673371
0.00808116
0.00960752
0.0111436
0.012469
0.0132259
0.013478
0.0133378
0.0125621
0.01135
0.0100933
0.00892862
0.00790602
0.00704494
0.00631764
0.00570559
0.0051896
0.00475517
0.00439142
0.00408913
0.00384076
0.00363906
0.00347777
0.0033508
0.00325284
0.00317897
0.00312503
0.00308754
0.00306497
0.00305456
0.00305161
0.00305718
0.00307255
0.00309646
0.00312882
0.00317041
0.00322146
0.00328324
0.00335662
0.00344309
0.00354403
0.00366107
0.00379589
0.00395028
0.00412618
0.00432575
0.00455164
0.00480753
0.0050992
0.00543605
0.00583406
0.00631643
0.00692001
0.00771795
0.00884182
0.0105366
0.0131831
0.016772
0.0210554
0.0255509
0.0289505
0.0304077
0.030649
0.0281559
0.0231457
0.0170787
0.011241
0.00659111
0.00350398
0.0017919
0.00100365
0.000750746
0.00112839
0.0077015
0.00448384
0.00443366
0.00478844
0.00529391
0.00597467
0.00688939
0.00805534
0.00941226
0.0108159
0.0120603
0.0127992
0.0130506
0.0128919
0.0120772
0.0108884
0.00960408
0.00841865
0.00738721
0.00651684
0.00579213
0.00518543
0.00468037
0.00426125
0.00391685
0.00363732
0.0034137
0.00323767
0.00310132
0.00299756
0.00291993
0.00286301
0.00282227
0.00279415
0.00277655
0.00276809
0.00276519
0.00276637
0.00277624
0.00279195
0.00281469
0.00284488
0.00288355
0.00293171
0.00299066
0.00306176
0.00314662
0.00324684
0.0033642
0.00350049
0.00365749
0.00383691
0.00404022
0.00426863
0.00452301
0.00480427
0.0051141
0.00545671
0.0058422
0.00629168
0.00684431
0.00755413
0.00854424
0.0100418
0.0125024
0.0162943
0.021154
0.0265278
0.0305913
0.0322388
0.0323924
0.0291391
0.023035
0.016104
0.00986697
0.00531048
0.00257708
0.00125564
0.000802756
0.0011916
0.00964883
0.00545099
0.00535148
0.00576872
0.00636078
0.00712749
0.00810386
0.00926899
0.0105165
0.0116658
0.012391
0.0126444
0.0124975
0.0117074
0.0105538
0.00926548
0.0080499
0.00699869
0.00611588
0.00538518
0.00478226
0.00428536
0.00388037
0.00355375
0.00329465
0.00309242
0.00293716
0.00281966
0.00273169
0.00266626
0.00261758
0.00258121
0.00255382
0.00253316
0.00251788
0.00250705
0.00250133
0.00249929
0.00250157
0.00251062
0.00252617
0.00254938
0.0025813
0.00262322
0.00267645
0.00274252
0.00282309
0.00291996
0.00303512
0.00317066
0.00332878
0.00351167
0.00372131
0.00395927
0.00422642
0.00452269
0.00484698
0.00519755
0.0055735
0.00597821
0.00642587
0.00695253
0.00761923
0.00853129
0.00991778
0.0122319
0.0161702
0.0215851
0.0278714
0.0324758
0.0341924
0.0339954
0.029417
0.0221236
0.0144161
0.00811731
0.00397047
0.00180305
0.000971436
0.00141143
0.0117454
0.00649368
0.00633199
0.00679997
0.00745541
0.00826415
0.00923244
0.0103027
0.0113344
0.0120349
0.0122859
0.0121797
0.0114555
0.0103412
0.00906005
0.00781559
0.00673016
0.00582592
0.00508259
0.00447634
0.0039841
0.00358844
0.00327555
0.00303193
0.00284559
0.00270488
0.00259946
0.0025203
0.00246003
0.00241287
0.00237461
0.00234238
0.00231437
0.0022897
0.00226807
0.00224964
0.0022349
0.00222524
0.00222111
0.00222057
0.00222838
0.00224444
0.00226939
0.00230464
0.00235137
0.00241106
0.00248532
0.00257603
0.0026853
0.00281552
0.00296933
0.00314954
0.00335903
0.00360046
0.00387595
0.00418659
0.0045319
0.00490934
0.00531432
0.00574132
0.00618718
0.00665843
0.00718498
0.0078368
0.00871337
0.0100495
0.0123252
0.0164385
0.0224374
0.0296352
0.0345371
0.0361688
0.0350735
0.0287511
0.0201116
0.0120053
0.00611261
0.0027646
0.00134825
0.00189389
0.0139234
0.00758548
0.0073468
0.00784676
0.00853349
0.0093318
0.0102181
0.0111047
0.0117551
0.0119976
0.011945
0.0113063
0.0102493
0.00897985
0.00770849
0.006578
0.00563761
0.00487235
0.00425439
0.00375967
0.00336772
0.0030623
0.00282851
0.00265205
0.00252008
0.00242103
0.00234534
0.00228542
0.00223567
0.00219222
0.00215265
0.0021157
0.00208091
0.00204839
0.00201859
0.00199217
0.00196989
0.00195255
0.00194215
0.00193799
0.00193792
0.00194882
0.00196815
0.00199759
0.00203812
0.00209103
0.00215785
0.00224038
0.00234075
0.00246148
0.00260549
0.00277612
0.00297703
0.00321207
0.00348496
0.00379878
0.00415531
0.00455408
0.0049915
0.00546035
0.00595054
0.00645245
0.00696506
0.00751218
0.00816899
0.00904375
0.010387
0.0127503
0.0171694
0.0238649
0.0319628
0.0366393
0.037882
0.0350848
0.026632
0.0169699
0.00908072
0.00419751
0.00197013
0.00259595
0.0161135
0.00869704
0.00836452
0.00887185
0.00955199
0.0102842
0.0110164
0.0115916
0.0118221
0.0117886
0.0112558
0.0102693
0.00902352
0.00772542
0.00654159
0.00554852
0.00474706
0.00410721
0.00360085
0.00320514
0.00290064
0.00267041
0.00249843
0.00237019
0.00227326
0.00219746
0.0021351
0.00208073
0.00203084
0.00198348
0.0019378
0.00189374
0.00185169
0.00181231
0.00177635
0.00174457
0.0017177
0.0016964
0.00168167
0.00167459
0.00167251
0.00167855
0.00169425
0.00171896
0.00175403
0.00180041
0.00185951
0.00193296
0.0020228
0.0021315
0.00226205
0.00241801
0.00260352
0.0028233
0.0030824
0.00338593
0.00373833
0.00414245
0.00459824
0.00510124
0.00564155
0.0062041
0.00677225
0.00733703
0.00791759
0.00859825
0.00949657
0.0109067
0.0134978
0.0184559
0.0261024
0.0347086
0.038652
0.0391742
0.0333877
0.02295
0.0129533
0.00614841
0.00284026
0.00346665
0.0182654
0.00979851
0.00935343
0.0098392
0.0104729
0.011086
0.0115781
0.0117885
0.0117354
0.0113083
0.0103957
0.00918721
0.00786855
0.00662367
0.00556163
0.00470539
0.00402976
0.0035011
0.00309258
0.00278178
0.00254897
0.00237637
0.00224789
0.00214996
0.00207185
0.00200564
0.00194598
0.00188967
0.00183509
0.00178177
0.00172992
0.00168017
0.00163327
0.00159001
0.00155111
0.00151718
0.00148875
0.00146626
0.00145007
0.001442
0.00143921
0.00144252
0.00145571
0.00147678
0.00150719
0.00154767
0.00159944
0.00166394
0.00174301
0.00183896
0.00195462
0.00209351
0.00225988
0.00245881
0.00269619
0.00297854
0.00331262
0.00370463
0.00415888
0.00467599
0.00525068
0.00586994
0.00651284
0.0071545
0.00777759
0.0083993
0.00911737
0.0100625
0.0116086
0.0145915
0.0203672
0.0293327
0.0377018
0.0406659
0.0393327
0.029718
0.0178368
0.00870642
0.0039864
0.00445285
0.0203453
0.0108622
0.0102833
0.0107173
0.0112678
0.011697
0.011879
0.0118136
0.0114581
0.0106289
0.0094674
0.00813979
0.00683176
0.00568452
0.00475232
0.00402223
0.00345791
0.00302614
0.00270078
0.00245912
0.00228104
0.00214883
0.00204759
0.00196582
0.0018952
0.00183036
0.00176822
0.00170743
0.00164778
0.0015897
0.00153395
0.00148136
0.0014327
0.00138862
0.00134964
0.00131614
0.00128838
0.00126657
0.00125087
0.00124288
0.00124001
0.00124211
0.00125345
0.00127172
0.00129823
0.00133356
0.00137875
0.00143506
0.00150409
0.0015879
0.00168905
0.00181081
0.00195722
0.0021333
0.00234516
0.00260001
0.00290609
0.00327214
0.00370646
0.00421517
0.00479972
0.00545374
0.00616021
0.00689084
0.00761092
0.00829498
0.00896361
0.00972418
0.0107476
0.0125327
0.0161503
0.0230362
0.0335653
0.040746
0.042346
0.0366864
0.023804
0.0120207
0.00545755
0.00551071
0.0222724
0.0118603
0.0111287
0.0114837
0.0119086
0.0120992
0.0120575
0.0116972
0.0109651
0.00986371
0.00854005
0.00717452
0.00593009
0.00489874
0.00409096
0.00347315
0.00300555
0.00265604
0.00239847
0.00220991
0.00207057
0.00196404
0.00187765
0.00180248
0.00173285
0.00166569
0.00159976
0.00153501
0.00147203
0.00141167
0.00135479
0.00130214
0.00125431
0.0012117
0.00117456
0.00114305
0.00111721
0.00109708
0.00108268
0.00107532
0.00107267
0.00107432
0.00108421
0.00110025
0.00112347
0.0011544
0.0011939
0.00124305
0.00130322
0.00137621
0.00146426
0.00157027
0.00169791
0.00185183
0.00203789
0.00226334
0.00253694
0.0028689
0.0032703
0.00375197
0.00432213
0.00498304
0.00572647
0.00652963
0.00735404
0.00815269
0.00889394
0.00961154
0.0104202
0.011575
0.0137682
0.0184609
0.0270232
0.0383242
0.0432384
0.0425171
0.0306862
0.0162556
0.00728501
0.0065973
0.0239737
0.0127667
0.0118695
0.0121207
0.0123581
0.0123705
0.0120459
0.0114112
0.0103722
0.00907041
0.00765922
0.00631403
0.00516199
0.00424883
0.00355419
0.00303422
0.00264897
0.00236703
0.00216219
0.002012
0.00189803
0.00180612
0.0017263
0.00165235
0.00158095
0.00151082
0.00144199
0.00137514
0.00131117
0.00125099
0.0011953
0.00114464
0.00109932
0.00105949
0.00102518
0.000996342
0.000972898
0.000954762
0.000941849
0.000935274
0.000932923
0.000934409
0.000943097
0.00095726
0.000977698
0.00100488
0.00103952
0.00108256
0.00113516
0.00119886
0.00127561
0.00136789
0.00147894
0.0016129
0.0017751
0.00197235
0.00221324
0.00250835
0.0028702
0.0033127
0.0038496
0.00449151
0.00524117
0.0060872
0.00699816
0.00792104
0.0087926
0.00957705
0.0103389
0.011207
0.0125956
0.0154904
0.0217715
0.0327649
0.0428171
0.0453356
0.037963
0.021548
0.00952233
0.00774914
0.0254063
0.0135613
0.0124862
0.0126015
0.0126905
0.0124975
0.0119349
0.0109893
0.00972697
0.00829079
0.00685118
0.00556412
0.00451629
0.00371503
0.0031203
0.00268408
0.00236722
0.00213879
0.00197308
0.00184898
0.00175031
0.00166559
0.00158765
0.00151264
0.00143908
0.00136695
0.00129697
0.00123009
0.00116723
0.00110909
0.00105614
0.00100865
0.000966662
0.000930134
0.000898929
0.000872879
0.000851813
0.000835585
0.000824064
0.0008182
0.000816118
0.000817466
0.000825101
0.00083764
0.000855688
0.000879669
0.000910202
0.000948077
0.000994308
0.00105019
0.0011174
0.00119806
0.00129496
0.00141171
0.001553
0.00172496
0.00193554
0.00219494
0.00251591
0.00291382
0.00340594
0.00400945
0.00473742
0.00559223
0.0065569
0.00758697
0.00860922
0.00954048
0.0103469
0.0111221
0.012116
0.0139241
0.0180573
0.0265547
0.0398541
0.0461561
0.0444599
0.0279532
0.0122478
0.0089291
0.0265497
0.0142366
0.0129735
0.0129434
0.0128892
0.0124786
0.0116873
0.0104997
0.00906707
0.00755267
0.00612795
0.00492053
0.00397793
0.00327824
0.00276999
0.00240416
0.00214258
0.00195505
0.00181708
0.00170971
0.00161942
0.00153755
0.00145937
0.00138295
0.0013081
0.0012355
0.00116614
0.00110095
0.00104066
0.000985708
0.000936296
0.000892433
0.000853995
0.00082078
0.000792552
0.000769075
0.000750137
0.000735565
0.000725217
0.000719907
0.00071802
0.000719172
0.000725854
0.000736955
0.000752935
0.00077418
0.000801225
0.000834753
0.000875637
0.00092499
0.000984235
0.0010552
0.00114027
0.00124252
0.00136604
0.00151619
0.00170009
0.00192709
0.00220937
0.00256241
0.00300508
0.00355875
0.00424454
0.00507773
0.00605857
0.00716023
0.00831791
0.00942988
0.0103901
0.0111961
0.0119928
0.0132161
0.0158282
0.0221055
0.0340152
0.045768
0.0483025
0.0354274
0.01568
0.0102968
0.0273965
0.0147979
0.0133279
0.0131592
0.0129539
0.0123774
0.0113464
0.00997261
0.00841983
0.00687232
0.00549185
0.00437377
0.00353114
0.00292125
0.00248668
0.00217888
0.00196082
0.00180353
0.00168443
0.00158716
0.00150099
0.00141982
0.00134094
0.00126377
0.0011889
0.0011173
0.00104997
0.000987627
0.000930739
0.000879484
0.000833831
0.000793605
0.000758551
0.000728381
0.000702805
0.00068156
0.000664422
0.000651213
0.000641799
0.000636878
0.00063511
0.000635999
0.000641808
0.000651624
0.000665802
0.000684694
0.000708768
0.000738622
0.000775013
0.000818905
0.00087152
0.00093443
0.00100966
0.00109986
0.00120853
0.0013403
0.0015014
0.00170017
0.00194775
0.00225888
0.00265248
0.00315184
0.00378326
0.00457216
0.00553505
0.0066666
0.00792362
0.00921232
0.0103969
0.0113624
0.0120841
0.012991
0.0146635
0.0188345
0.0282865
0.0432752
0.0498308
0.0434101
0.0201191
0.0121092
0.0279604
0.0152415
0.0135622
0.0132562
0.0129152
0.0121632
0.0109514
0.00943356
0.00780389
0.00625746
0.00493925
0.00391225
0.00316111
0.00262918
0.00225648
0.00199563
0.00181104
0.00167545
0.00156872
0.00147722
0.00139287
0.00131169
0.00123249
0.00115557
0.00108188
0.00101243
0.000948027
0.00088915
0.000835991
0.000788504
0.000746484
0.000709634
0.000677623
0.000650118
0.000626813
0.000607439
0.000591779
0.000579666
0.000570974
0.000566303
0.000564591
0.000565173
0.00057018
0.000578845
0.000591446
0.000608301
0.000629828
0.000656554
0.000689147
0.000728448
0.00077552
0.000831717
0.000898785
0.000978993
0.00107533
0.0011918
0.00133376
0.00150852
0.00172602
0.00199975
0.00234775
0.00279348
0.00336581
0.00409702
0.00501682
0.00614035
0.00744964
0.008872
0.0102693
0.0114663
0.012357
0.0129856
0.0141802
0.0168577
0.0239244
0.0382985
0.050038
0.0504143
0.0258235
0.0145071
0.028244
0.0155724
0.0136872
0.0132443
0.0127952
0.0118773
0.0105238
0.00890155
0.00723077
0.00570992
0.00446336
0.00352415
0.00285469
0.00238949
0.00206805
0.00184458
0.0016852
0.00156483
0.00146596
0.00137766
0.00129409
0.00121299
0.00113419
0.00105848
0.000986896
0.00092032
0.00085931
0.000804094
0.000754637
0.000710721
0.000672022
0.000638174
0.000608806
0.000583574
0.000562172
0.000544345
0.000529887
0.000518646
0.000510506
0.000505982
0.000504279
0.000504547
0.000508815
0.000516449
0.000527662
0.000542744
0.000562069
0.000586111
0.000615464
0.000650873
0.000693272
0.000743844
0.000804102
0.000876005
0.000962125
0.00106589
0.00119192
0.00134655
0.0015385
0.00177981
0.00208709
0.00248278
0.00299625
0.00366352
0.00452381
0.00561024
0.00693189
0.00844751
0.0100375
0.0114997
0.0126526
0.0133501
0.014063
0.0158635
0.0207392
0.0324806
0.0492649
0.0543982
0.0334258
0.0174129
0.0282301
0.0157885
0.013714
0.0131695
0.0125811
0.011543
0.010082
0.00839014
0.00670662
0.00522768
0.00405598
0.00319839
0.00260058
0.00219187
0.00191243
0.00171828
0.00157759
0.00146771
0.00137378
0.00128727
0.00120423
0.00112364
0.00104596
0.000972203
0.000903322
0.000839982
0.000782491
0.000730857
0.00068487
0.000644195
0.000608435
0.00057719
0.000550078
0.00052676
0.000506945
0.000490394
0.000476915
0.00046637
0.000458657
0.000454199
0.000452464
0.000452456
0.000456044
0.000462753
0.00047274
0.000486267
0.000503674
0.00052539
0.000551952
0.000584026
0.000622447
0.000668259
0.000722792
0.000787752
0.000865365
0.000958586
0.0010714
0.00120927
0.00137977
0.00159353
0.00186544
0.0022163
0.00267451
0.00327724
0.0040694
0.0050975
0.00639455
0.00795325
0.00969001
0.0114169
0.0128609
0.013747
0.0142854
0.0154594
0.0186814
0.0276938
0.0459432
0.056055
0.0426505
0.0207341
0.0280796
0.0159261
0.0136796
0.0130068
0.0123097
0.0111769
0.00963987
0.00790827
0.00623368
0.00480657
0.0037087
0.00292512
0.00238934
0.00202801
0.00178261
0.00161123
0.00148425
0.00138156
0.00129076
0.0012054
0.00112301
0.00104343
0.000967463
0.000896143
0.000830257
0.000770234
0.000716161
0.000667867
0.00062502
0.000587208
0.000554
0.000524983
0.000499783
0.000478075
0.000459586
0.000444093
0.000431424
0.000421449
0.000414083
0.000409628
0.000407779
0.000407611
0.000410559
0.000416439
0.000425339
0.000437495
0.000453217
0.000472898
0.000497029
0.000526215
0.000561209
0.00060295
0.000652619
0.000711722
0.000782207
0.000866641
0.00096847
0.00109241
0.00124503
0.0014356
0.00167731
0.00198899
0.00239722
0.00293848
0.00366021
0.00461802
0.0058645
0.00742461
0.00925552
0.0111989
0.0129604
0.0141836
0.0147513
0.0153836
0.017593
0.0244616
0.0408199
0.0563179
0.0519557
0.0240035
0.0277436
0.0160071
0.0135855
0.0127817
0.0119959
0.010793
0.00920792
0.00746132
0.00581152
0.00444126
0.00341352
0.00269581
0.00221319
0.00189127
0.00167328
0.00151943
0.00140247
0.00130471
0.001216
0.00113159
0.00105012
0.000971972
0.000898121
0.000829487
0.000766659
0.000709848
0.000658959
0.000613686
0.000573617
0.000538297
0.000507283
0.000480166
0.000456586
0.000436237
0.000418864
0.000404262
0.00039227
0.000382771
0.000375686
0.000371211
0.000369247
0.000368938
0.000371321
0.000376457
0.000384391
0.000395331
0.000409562
0.000427448
0.00044944
0.000476096
0.000508105
0.000546322
0.000591811
0.000645921
0.000710377
0.000787432
0.00088009
0.000992443
0.00113018
0.00130136
0.00151758
0.00179562
0.00215978
0.00264467
0.00329781
0.00417985
0.00535798
0.00688593
0.00876468
0.0108857
0.0129799
0.014576
0.0153155
0.0157298
0.0170977
0.0218255
0.0356539
0.0555549
0.0592605
0.0264602
0.0272239
0.0160074
0.0134251
0.012513
0.0116533
0.0104025
0.00879359
0.00705196
0.00543805
0.00412611
0.00316318
0.00250327
0.0020658
0.00177645
0.00158039
0.00144001
0.00133037
0.00123608
0.00114889
0.00106543
0.000985154
0.000908755
0.000837225
0.000771334
0.000711469
0.000657654
0.000609649
0.000567056
0.000529413
0.000496246
0.000467112
0.000441615
0.000419414
0.000400221
0.000383798
0.000369954
0.000358541
0.000349448
0.000342603
0.000338104
0.000336029
0.000335591
0.000337482
0.000341955
0.000349028
0.000358886
0.000371791
0.000388081
0.000408176
0.000432595
0.000461975
0.000497104
0.000538959
0.000588761
0.000648061
0.000718863
0.000803811
0.000906481
0.00103182
0.00118684
0.00138168
0.00163116
0.00195716
0.00239173
0.00298077
0.00378664
0.00488593
0.00635502
0.0082345
0.0104691
0.0128381
0.0148937
0.0158924
0.0162814
0.0169767
0.0202372
0.0309833
0.0532371
0.0628821
0.0275194
0.0265459
0.0159798
0.01323
0.0122143
0.0112939
0.0100144
0.00840189
0.00668091
0.00511016
0.00385554
0.00295129
0.00234149
0.00194208
0.00167952
0.00150092
0.00137087
0.00126663
0.00117485
0.00108891
0.00100651
0.000927627
0.000853152
0.000784001
0.000720778
0.000663683
0.000612589
0.00056715
0.000526906
0.000491365
0.000460051
0.00043253
0.000408421
0.000387401
0.0003692
0.000353596
0.000340409
0.000329499
0.000320762
0.000314127
0.000309612
0.000307434
0.000306877
0.000308344
0.000312228
0.000318533
0.000327425
0.000339146
0.000354011
0.000372412
0.000394836
0.000421879
0.000454276
0.000492933
0.000538974
0.000593814
0.000659258
0.000737665
0.000832191
0.000947167
0.00108871
0.00126567
0.00149108
0.00178444
0.00217495
0.00270583
0.0034388
0.00445573
0.00585035
0.00769882
0.00999905
0.0125828
0.0150435
0.0164899
0.0169798
0.017275
0.0194471
0.0279401
0.0491995
0.0641491
0.0276802
0.0257466
0.0159117
0.0130101
0.0118969
0.0109274
0.00963534
0.00803583
0.00634754
0.00482431
0.00362436
0.00277234
0.00220552
0.00183797
0.0015973
0.00143259
0.00131049
0.00121029
0.00112043
0.00103561
0.000954345
0.000876998
0.000804503
0.000737677
0.000676957
0.000622389
0.000573724
0.000530539
0.000492337
0.000458613
0.000428893
0.000402758
0.000379844
0.000359844
0.000342503
0.000327611
0.000314999
0.000304533
0.000296112
0.000289666
0.000285157
0.00028288
0.000282213
0.000283319
0.000286681
0.000292303
0.000300332
0.000310993
0.000324579
0.000341461
0.000362095
0.000387046
0.000417004
0.000452818
0.00049554
0.000546474
0.000607276
0.000680077
0.000767694
0.000873958
0.00100423
0.00116626
0.00137147
0.00163715
0.00198957
0.00246867
0.00313376
0.0040683
0.00537753
0.00716711
0.00948796
0.0122437
0.0150871
0.0170658
0.0177207
0.0178685
0.0191156
0.0255046
0.0448993
0.0641552
0.0271443
0.0248614
0.0158144
0.0127752
0.0115706
0.0105618
0.00927034
0.00769699
0.00605031
0.00457671
0.00342786
0.00262167
0.00209131
0.00175022
0.00152736
0.00137367
0.00125771
0.00116059
0.00107227
0.000988525
0.00090847
0.000832702
0.000762153
0.00069752
0.000639091
0.000586783
0.000540257
0.000499038
0.000462602
0.000430444
0.000402098
0.000377159
0.000355278
0.000336165
0.000319575
0.000305309
0.000293204
0.000283132
0.000274993
0.000268716
0.000264256
0.000261875
0.000261103
0.000261902
0.000264804
0.000269818
0.000277076
0.000286787
0.000299226
0.000314741
0.000333765
0.000356832
0.000384598
0.000417866
0.000457628
0.000505107
0.00056184
0.000629781
0.000711481
0.000810364
0.000931176
0.00108071
0.00126903
0.00151135
0.00183119
0.00226497
0.00286856
0.00372441
0.00494446
0.00665682
0.00895765
0.0118174
0.0149712
0.0175548
0.0185271
0.0186179
0.019059
0.0237918
0.0408786
0.0621292
0.0263171
0.0239173
0.015703
0.0125339
0.0112433
0.0102033
0.00892288
0.00738583
0.00578716
0.0043637
0.00326183
0.00249539
0.00199557
0.00167624
0.00146777
0.00132281
0.00121163
0.00111693
0.00102991
0.000947213
0.000868391
0.000794183
0.00072548
0.000662862
0.000606488
0.000556174
0.000511513
0.000471994
0.000437082
0.000406273
0.000379112
0.000355207
0.000334225
0.000315885
0.000299954
0.000286241
0.000274588
0.000264869
0.000256986
0.000250865
0.000246463
0.000243988
0.000243119
0.000243658
0.000246156
0.000250629
0.0002572
0.000266061
0.00027747
0.000291755
0.000309327
0.000330694
0.000356481
0.000387455
0.000424557
0.00046895
0.000522077
0.000585758
0.000662337
0.000754914
0.000867729
0.0010068
0.00118097
0.00140368
0.00169582
0.00209031
0.00263897
0.00342131
0.00455199
0.00617609
0.00843047
0.0113476
0.0147143
0.0178908
0.0193503
0.0195267
0.0194952
0.0226244
0.0372898
0.0592601
0.025254
0.0229231
0.0155948
0.0122961
0.0109223
0.00985705
0.00859535
0.00710214
0.0055556
0.00418184
0.00312268
0.00239021
0.00191564
0.00161398
0.00141704
0.00127899
0.00117156
0.00107878
0.00099291
0.000911236
0.000833632
0.000760914
0.000693914
0.000633106
0.000578546
0.000529969
0.00048692
0.000448864
0.000415263
0.000385614
0.000359476
0.000336468
0.000316266
0.000298603
0.000283253
0.000270029
0.000258778
0.000249376
0.000241724
0.000235749
0.000231404
0.000228847
0.000227886
0.000228207
0.000230352
0.000234346
0.000240305
0.000248405
0.00025889
0.00027207
0.000288333
0.000308164
0.000332161
0.000361059
0.00039576
0.000437375
0.000487278
0.000547185
0.000619282
0.000706418
0.000812427
0.000942682
0.00110501
0.00131128
0.00158001
0.00194079
0.00244111
0.00315625
0.00420024
0.00572912
0.00791477
0.0108565
0.0144154
0.0180475
0.0201292