/*--------------------------------*- C++ -*----------------------------------*\
  =========                 |
  \\      /  F ield         | OpenFOAM: The Open Source CFD Toolbox
   \\    /   O peration     | Website:  https://openfoam.org
    \\  /    A nd           | Version:  13
     \\/     M anipulation  |
\*---------------------------------------------------------------------------*/
FoamFile
{
    format      ascii;
    class       surfaceScalarField;
    location    "5.6";
    object      phi;
}
// * * * * * * * * * * * * * * * * * * * * * * * * * * * * * * * * * * * * * //

dimensions      [0 3 -1 0 0 0 0];

internalField   nonuniform List<scalar> 
12640
(
1.60088e-09
-1.60087e-09
1.4512e-08
-1.29111e-08
3.72403e-08
-2.27283e-08
6.35834e-08
-2.63432e-08
8.75041e-08
-2.39207e-08
1.05531e-07
-1.80267e-08
1.16342e-07
-1.08114e-08
1.20718e-07
-4.37577e-09
1.2082e-07
-1.01951e-10
1.18887e-07
1.9331e-09
1.16816e-07
2.0708e-09
1.1585e-07
9.65805e-10
1.16404e-07
-5.5374e-10
1.18179e-07
-1.77499e-09
1.20389e-07
-2.20966e-09
1.22142e-07
-1.75392e-09
1.22604e-07
-4.61283e-10
1.21267e-07
1.33683e-09
1.17386e-07
3.88054e-09
1.10078e-07
7.30869e-09
9.87218e-08
1.13559e-08
8.27883e-08
1.59336e-08
6.18184e-08
2.09699e-08
3.56291e-08
2.61893e-08
4.20374e-09
3.14253e-08
-3.2606e-08
3.68097e-08
-7.58857e-08
4.32797e-08
-1.27777e-07
5.18913e-08
-1.90992e-07
6.32147e-08
-2.67894e-07
7.69026e-08
-3.58078e-07
9.0184e-08
-4.58494e-07
1.00416e-07
-5.65858e-07
1.07364e-07
-6.76899e-07
1.11041e-07
-7.8871e-07
1.11811e-07
-8.98719e-07
1.10009e-07
-1.00478e-06
1.06063e-07
-1.10515e-06
1.00365e-07
-1.1984e-06
9.32565e-08
-1.28345e-06
8.50446e-08
-1.35938e-06
7.59332e-08
-1.42547e-06
6.60914e-08
-1.48109e-06
5.56136e-08
-1.52564e-06
4.45486e-08
-1.55852e-06
3.28834e-08
-1.57915e-06
2.06356e-08
-1.58779e-06
8.63183e-09
-1.58353e-06
-4.25997e-09
-1.56512e-06
-1.84088e-08
-1.53323e-06
-3.18832e-08
-1.48672e-06
-4.65176e-08
-1.42589e-06
-6.08237e-08
-1.35063e-06
-7.52623e-08
-1.26145e-06
-8.91795e-08
-1.15892e-06
-1.0253e-07
-1.04382e-06
-1.15103e-07
-9.1737e-07
-1.26448e-07
-7.81237e-07
-1.36133e-07
-6.37579e-07
-1.43658e-07
-4.89179e-07
-1.48399e-07
-3.39368e-07
-1.49811e-07
-1.91909e-07
-1.47459e-07
-5.08179e-08
-1.41091e-07
7.99801e-08
-1.30798e-07
1.96324e-07
-1.16344e-07
2.93848e-07
-9.75234e-08
3.69245e-07
-7.5397e-08
4.19797e-07
-5.0553e-08
4.43946e-07
-2.41481e-08
4.40821e-07
3.12503e-09
4.12771e-07
2.80495e-08
3.62227e-07
5.05444e-08
2.94916e-07
6.73104e-08
2.19846e-07
7.50702e-08
1.48356e-07
7.14898e-08
8.78553e-08
6.0501e-08
4.24662e-08
4.53891e-08
1.31308e-08
2.93354e-08
1.06633e-10
1.30242e-08
1.06632e-10
9.99259e-09
-1.15935e-08
4.11809e-08
-4.40994e-08
8.47439e-08
-6.62913e-08
1.29607e-07
-7.12061e-08
1.68336e-07
-6.265e-08
1.97134e-07
-4.68246e-08
2.15266e-07
-2.89436e-08
2.23661e-07
-1.27706e-08
2.24066e-07
-5.07126e-10
2.18755e-07
7.24452e-09
2.0993e-07
1.08957e-08
1.99082e-07
1.18139e-08
1.86667e-07
1.18611e-08
1.72154e-07
1.27381e-08
1.54496e-07
1.54483e-08
1.32547e-07
2.01951e-08
1.05424e-07
2.66618e-08
7.20028e-08
3.47578e-08
3.10869e-08
4.47964e-08
-1.87283e-08
5.71238e-08
-7.93205e-08
7.19481e-08
-1.52527e-07
8.91401e-08
-2.39604e-07
1.08047e-07
-3.4137e-07
1.27955e-07
-4.58382e-07
1.48437e-07
-5.90488e-07
1.68916e-07
-7.35651e-07
1.88443e-07
-8.9001e-07
2.06249e-07
-1.04854e-06
2.21743e-07
-1.20559e-06
2.33951e-07
-1.35742e-06
2.42018e-07
-1.50272e-06
2.45716e-07
-1.64016e-06
2.44803e-07
-1.76845e-06
2.39335e-07
-1.88657e-06
2.29925e-07
-1.99381e-06
2.17254e-07
-2.08968e-06
2.01931e-07
-2.17386e-06
1.84543e-07
-2.24612e-06
1.65514e-07
-2.30631e-06
1.45236e-07
-2.35432e-06
1.23943e-07
-2.39003e-06
1.01803e-07
-2.41333e-06
7.89165e-08
-2.42413e-06
5.53446e-08
-2.42238e-06
3.11309e-08
-2.40764e-06
5.90013e-09
-2.37984e-06
-1.91648e-08
-2.33876e-06
-4.53474e-08
-2.28462e-06
-7.25465e-08
-2.21654e-06
-9.99642e-08
-2.13503e-06
-1.28025e-07
-2.03967e-06
-1.56184e-07
-1.93059e-06
-1.84343e-07
-1.80776e-06
-2.12014e-07
-1.67153e-06
-2.38754e-07
-1.52289e-06
-2.63741e-07
-1.36308e-06
-2.86258e-07
-1.19373e-06
-3.0549e-07
-1.0171e-06
-3.2028e-07
-8.35765e-07
-3.29739e-07
-6.52655e-07
-3.32921e-07
-4.71142e-07
-3.28972e-07
-2.94907e-07
-3.17326e-07
-1.27817e-07
-2.97888e-07
2.6396e-08
-2.70557e-07
1.64613e-07
-2.35741e-07
2.8306e-07
-1.93844e-07
3.78964e-07
-1.46456e-07
4.49831e-07
-9.50156e-08
4.9452e-07
-4.15636e-08
5.12068e-07
1.05009e-08
5.02121e-07
6.04916e-08
4.66857e-07
1.02574e-07
4.0791e-07
1.34018e-07
3.28065e-07
1.51335e-07
2.3723e-07
1.51335e-07
1.47725e-07
1.34895e-07
7.20296e-08
1.05031e-07
2.05512e-08
6.45025e-08
2.06579e-08
1.88411e-08
-3.04345e-08
6.30819e-08
-8.83403e-08
1.13551e-07
-1.16761e-07
1.58579e-07
-1.16234e-07
1.93534e-07
-9.76049e-08
2.173e-07
-7.05912e-08
2.30447e-07
-4.20905e-08
2.33919e-07
-1.62429e-08
2.28842e-07
4.57034e-09
2.16595e-07
1.94911e-08
1.98597e-07
2.88935e-08
1.75435e-07
3.49769e-08
1.46921e-07
4.03747e-08
1.12286e-07
4.73726e-08
7.03863e-08
5.73484e-08
1.98538e-08
7.07275e-08
-4.09705e-08
8.74862e-08
-1.13865e-07
1.07652e-07
-2.00333e-07
1.31265e-07
-3.01617e-07
1.58407e-07
-4.18289e-07
1.8862e-07
-5.50064e-07
2.20915e-07
-6.95937e-07
2.5392e-07
-8.537e-07
2.85718e-07
-1.02017e-06
3.14907e-07
-1.19128e-06
3.40023e-07
-1.36285e-06
3.60013e-07
-1.53101e-06
3.74413e-07
-1.69219e-06
3.82919e-07
-1.84369e-06
3.85457e-07
-1.98391e-06
3.82231e-07
-2.11175e-06
3.73561e-07
-2.22707e-06
3.60121e-07
-2.33025e-06
3.42513e-07
-2.42159e-06
3.21266e-07
-2.50146e-06
2.97122e-07
-2.57016e-06
2.70637e-07
-2.62798e-06
2.4236e-07
-2.67509e-06
2.12629e-07
-2.71164e-06
1.81786e-07
-2.73772e-06
1.50018e-07
-2.75332e-06
1.17406e-07
-2.75841e-06
8.40068e-08
-2.75286e-06
4.97943e-08
-2.73644e-06
1.47107e-08
-2.70928e-06
-2.12577e-08
-2.67042e-06
-5.80255e-08
-2.61989e-06
-9.58836e-08
-2.55761e-06
-1.3482e-07
-2.48297e-06
-1.74603e-07
-2.39584e-06
-2.15158e-07
-2.29596e-06
-2.56061e-07
-2.18329e-06
-2.97021e-07
-2.05783e-06
-3.37469e-07
-1.91992e-06
-3.76667e-07
-1.7701e-06
-4.13562e-07
-1.6093e-06
-4.47051e-07
-1.43887e-06
-4.75928e-07
-1.26052e-06
-4.98628e-07
-1.07663e-06
-5.13628e-07
-8.89907e-07
-5.19644e-07
-7.03558e-07
-5.15321e-07
-5.21191e-07
-4.99693e-07
-3.46513e-07
-4.72566e-07
-1.82925e-07
-4.34145e-07
-3.36979e-08
-3.84968e-07
9.83964e-08
-3.25938e-07
2.10702e-07
-2.58762e-07
3.01428e-07
-1.85742e-07
3.69659e-07
-1.09794e-07
4.14172e-07
-3.40123e-08
4.35246e-07
3.9418e-08
4.3126e-07
1.0656e-07
4.03475e-07
1.61803e-07
3.5313e-07
2.01679e-07
2.83406e-07
2.2106e-07
2.00593e-07
2.17707e-07
1.15101e-07
1.90523e-07
4.06207e-08
1.38983e-07
6.12786e-08
2.62388e-08
-5.66734e-08
7.70593e-08
-1.39161e-07
1.2581e-07
-1.65511e-07
1.63676e-07
-1.54099e-07
1.89091e-07
-1.2302e-07
2.03087e-07
-8.45874e-08
2.06807e-07
-4.58105e-08
2.01336e-07
-1.07715e-08
1.87448e-07
1.84583e-08
1.65657e-07
4.12815e-08
1.35724e-07
5.88269e-08
9.71676e-08
7.3533e-08
4.92415e-08
8.83008e-08
-8.97069e-09
1.05585e-07
-7.85177e-08
1.26895e-07
-1.60679e-07
1.52888e-07
-2.56901e-07
1.83709e-07
-3.6847e-07
2.19222e-07
-4.96014e-07
2.58809e-07
-6.39185e-07
3.01578e-07
-7.96391e-07
3.45826e-07
-9.646e-07
3.89124e-07
-1.14018e-06
4.29497e-07
-1.31893e-06
4.64475e-07
-1.49683e-06
4.928e-07
-1.67002e-06
5.13217e-07
-1.835e-06
5.24993e-07
-1.98895e-06
5.28367e-07
-2.1304e-06
5.24371e-07
-2.25884e-06
5.13889e-07
-2.37438e-06
4.9777e-07
-2.47759e-06
4.76781e-07
-2.56909e-06
4.51613e-07
-2.64957e-06
4.22994e-07
-2.71975e-06
3.91445e-07
-2.78021e-06
3.57582e-07
-2.8314e-06
3.21835e-07
-2.87367e-06
2.84627e-07
-2.90724e-06
2.46193e-07
-2.9322e-06
2.06748e-07
-2.9486e-06
1.66424e-07
-2.95641e-06
1.25208e-07
-2.95548e-06
8.30775e-08
-2.9456e-06
3.99144e-08
-2.92651e-06
-4.37373e-09
-2.89793e-06
-4.98395e-08
-2.85937e-06
-9.65812e-08
-2.81053e-06
-1.44731e-07
-2.75106e-06
-1.94288e-07
-2.68043e-06
-2.45233e-07
-2.59822e-06
-2.97366e-07
-2.50408e-06
-3.50202e-07
-2.39777e-06
-4.03331e-07
-2.2791e-06
-4.56139e-07
-2.14802e-06
-5.07742e-07
-2.00469e-06
-5.56898e-07
-1.84976e-06
-6.01976e-07
-1.68422e-06
-6.41471e-07
-1.50937e-06
-6.73477e-07
-1.32715e-06
-6.95845e-07
-1.13996e-06
-7.06841e-07
-9.50696e-07
-7.04582e-07
-7.62849e-07
-6.8754e-07
-5.80534e-07
-6.54882e-07
-4.07727e-07
-6.06952e-07
-2.47778e-07
-5.44917e-07
-1.03722e-07
-4.69994e-07
2.19294e-08
-3.84414e-07
1.27398e-07
-2.91211e-07
2.11403e-07
-1.93799e-07
2.73334e-07
-9.5944e-08
3.14051e-07
-1.29847e-09
3.33452e-07
8.71595e-08
3.31017e-07
1.64237e-07
3.06851e-07
2.25846e-07
2.61451e-07
2.6646e-07
1.98586e-07
2.80572e-07
1.23959e-07
2.65149e-07
4.80243e-08
2.14917e-07
1.09303e-07
3.20407e-08
-8.87141e-08
8.2832e-08
-1.89952e-07
1.23607e-07
-2.06286e-07
1.50549e-07
-1.81041e-07
1.64155e-07
-1.36626e-07
1.66533e-07
-8.69655e-08
1.59021e-07
-3.82986e-08
1.42371e-07
5.8782e-09
1.16732e-07
4.40973e-08
8.17074e-08
7.63061e-08
3.63622e-08
1.04172e-07
-2.04486e-08
1.30344e-07
-8.98488e-08
1.57701e-07
-1.72874e-07
1.8861e-07
-2.705e-07
2.24522e-07
-3.83579e-07
2.65968e-07
-5.126e-07
3.1273e-07
-6.57427e-07
3.64048e-07
-8.16768e-07
4.1815e-07
-9.87756e-07
4.72567e-07
-1.16676e-06
5.24831e-07
-1.34931e-06
5.71672e-07
-1.5312e-06
6.11384e-07
-1.70826e-06
6.41537e-07
-1.87614e-06
6.60681e-07
-2.03206e-06
6.6914e-07
-2.17494e-06
6.67872e-07
-2.30475e-06
6.58179e-07
-2.4219e-06
6.41518e-07
-2.52708e-06
6.19064e-07
-2.62111e-06
5.91804e-07
-2.70484e-06
5.60513e-07
-2.77902e-06
5.25788e-07
-2.84429e-06
4.88267e-07
-2.90128e-06
4.48438e-07
-2.95046e-06
4.06758e-07
-2.99219e-06
3.63566e-07
-3.02674e-06
3.19177e-07
-3.05428e-06
2.73729e-07
-3.07476e-06
2.27235e-07
-3.08825e-06
1.79912e-07
-3.09465e-06
1.3161e-07
-3.09384e-06
8.22586e-08
-3.08557e-06
3.16448e-08
-3.06955e-06
-2.03891e-08
-3.04539e-06
-7.39975e-08
-3.0126e-06
-1.29376e-07
-2.97073e-06
-1.86596e-07
-2.91939e-06
-2.45627e-07
-2.85807e-06
-3.0656e-07
-2.78607e-06
-3.69363e-07
-2.70276e-06
-4.33514e-07
-2.60771e-06
-4.98377e-07
-2.5005e-06
-5.63354e-07
-2.38071e-06
-6.27529e-07
-2.24799e-06
-6.89621e-07
-2.10268e-06
-7.47283e-07
-1.94535e-06
-7.98798e-07
-1.7768e-06
-8.42029e-07
-1.59858e-06
-8.74064e-07
-1.41272e-06
-8.92707e-07
-1.22181e-06
-8.95493e-07
-1.02891e-06
-8.80435e-07
-8.37813e-07
-8.45978e-07
-6.53183e-07
-7.91582e-07
-4.79674e-07
-7.18425e-07
-3.20564e-07
-6.29105e-07
-1.78875e-07
-5.26102e-07
-5.70829e-08
-4.13003e-07
4.33517e-08
-2.94234e-07
1.21856e-07
-1.74448e-07
1.78633e-07
-5.80753e-08
2.14934e-07
5.08585e-08
2.31064e-07
1.48108e-07
2.27536e-07
2.29373e-07
2.04697e-07
2.89299e-07
1.63489e-07
3.21781e-07
1.06955e-07
3.21683e-07
4.2804e-08
2.79068e-07
1.52107e-07
3.55888e-08
-1.24303e-07
8.00602e-08
-2.34424e-07
1.08792e-07
-2.35018e-07
1.2227e-07
-1.94518e-07
1.23028e-07
-1.37384e-07
1.13026e-07
-7.69636e-08
9.32514e-08
-1.8524e-08
6.3847e-08
3.52826e-08
2.44025e-08
8.35418e-08
-2.61784e-08
1.26887e-07
-8.92409e-08
1.67235e-07
-1.66133e-07
2.07236e-07
-2.58001e-07
2.49569e-07
-3.65681e-07
2.96289e-07
-4.89626e-07
3.48467e-07
-6.29681e-07
4.06023e-07
-7.84907e-07
4.67956e-07
-9.53191e-07
5.32332e-07
-1.13126e-06
5.96221e-07
-1.31465e-06
6.55959e-07
-1.49892e-06
7.09093e-07
-1.67931e-06
7.52067e-07
-1.85058e-06
7.82647e-07
-2.00948e-06
8.00444e-07
-2.15496e-06
8.06162e-07
-2.28715e-06
8.01324e-07
-2.40678e-06
7.87503e-07
-2.51488e-06
7.66284e-07
-2.61235e-06
7.38982e-07
-2.70001e-06
7.06724e-07
-2.77862e-06
6.70411e-07
-2.84883e-06
6.30728e-07
-2.91132e-06
5.88276e-07
-2.96662e-06
5.43573e-07
-3.0152e-06
4.97019e-07
-3.05736e-06
4.4891e-07
-3.09336e-06
3.99568e-07
-3.12342e-06
3.49237e-07
-3.14771e-06
2.98023e-07
-3.16604e-06
2.45556e-07
-3.1786e-06
1.92476e-07
-3.18532e-06
1.38333e-07
-3.18614e-06
8.30764e-08
-3.18091e-06
2.64147e-08
-3.16953e-06
-3.1772e-08
-3.15173e-06
-9.17892e-08
-3.12711e-06
-1.53995e-07
-3.09513e-06
-2.18582e-07
-3.05512e-06
-2.85639e-07
-3.00644e-06
-3.55242e-07
-2.94824e-06
-4.27556e-07
-2.87956e-06
-5.02196e-07
-2.7995e-06
-5.78439e-07
-2.70728e-06
-6.55569e-07
-2.60249e-06
-7.32325e-07
-2.48457e-06
-8.07541e-07
-2.35293e-06
-8.78914e-07
-2.20762e-06
-9.44109e-07
-2.04872e-06
-1.00093e-06
-1.87747e-06
-1.04532e-06
-1.69547e-06
-1.07471e-06
-1.50487e-06
-1.08609e-06
-1.30863e-06
-1.07668e-06
-1.11017e-06
-1.04443e-06
-9.13701e-07
-9.88056e-07
-7.24733e-07
-9.07393e-07
-5.48148e-07
-8.0569e-07
-3.87671e-07
-6.8658e-07
-2.46591e-07
-5.54082e-07
-1.2721e-07
-4.13614e-07
-3.06645e-08
-2.70994e-07
4.31457e-08
-1.31886e-07
9.54099e-08
-1.40571e-09
1.27587e-07
1.15931e-07
1.40964e-07
2.15996e-07
1.36271e-07
2.93992e-07
1.14066e-07
3.43986e-07
7.66884e-08
3.59061e-07
3.04457e-08
3.25311e-07
1.82553e-07
3.58987e-08
-1.60202e-07
6.85669e-08
-2.67092e-07
8.30383e-08
-2.4949e-07
8.21479e-08
-1.93628e-07
6.94953e-08
-1.24732e-07
4.65155e-08
-5.39837e-08
1.35507e-08
1.44409e-08
-2.98238e-08
7.86571e-08
-8.45986e-08
1.38317e-07
-1.52127e-07
1.94416e-07
-2.33849e-07
2.48956e-07
-3.31009e-07
3.04396e-07
-4.44431e-07
3.62992e-07
-5.74355e-07
4.26213e-07
-7.20274e-07
4.94385e-07
-8.80801e-07
5.66551e-07
-1.05329e-06
6.40447e-07
-1.2338e-06
7.12841e-07
-1.41773e-06
7.80147e-07
-1.60015e-06
8.38379e-07
-1.77511e-06
8.84057e-07
-1.93845e-06
9.15406e-07
-2.08828e-06
9.32473e-07
-2.22455e-06
9.36717e-07
-2.34805e-06
9.29661e-07
-2.4598e-06
9.13081e-07
-2.5609e-06
8.88596e-07
-2.6523e-06
8.57691e-07
-2.73485e-06
8.21526e-07
-2.80923e-06
7.81102e-07
-2.87603e-06
7.37216e-07
-2.9358e-06
6.90499e-07
-2.98903e-06
6.41504e-07
-3.03611e-06
5.90657e-07
-3.07743e-06
5.38338e-07
-3.11311e-06
4.84588e-07
-3.14336e-06
4.29822e-07
-3.16842e-06
3.74295e-07
-3.18851e-06
3.18106e-07
-3.20409e-06
2.61143e-07
-3.21484e-06
2.03226e-07
-3.22073e-06
1.44222e-07
-3.2216e-06
8.3949e-08
-3.2173e-06
2.21096e-08
-3.20792e-06
-4.11548e-08
-3.19343e-06
-1.06278e-07
-3.1738e-06
-1.73622e-07
-3.14895e-06
-2.4343e-07
-3.11859e-06
-3.16002e-07
-3.08233e-06
-3.91498e-07
-3.03978e-06
-4.70112e-07
-2.98991e-06
-5.52069e-07
-2.93122e-06
-6.37128e-07
-2.86213e-06
-7.24652e-07
-2.78054e-06
-8.1392e-07
-2.6845e-06
-9.03575e-07
-2.57284e-06
-9.9058e-07
-2.44531e-06
-1.07164e-06
-2.30217e-06
-1.14408e-06
-2.14376e-06
-1.20373e-06
-1.97071e-06
-1.24776e-06
-1.78488e-06
-1.27192e-06
-1.5889e-06
-1.27265e-06
-1.38608e-06
-1.24726e-06
-1.18016e-06
-1.19398e-06
-9.76347e-07
-1.11121e-06
-7.81227e-07
-1.00081e-06
-6.00199e-07
-8.67608e-07
-4.3738e-07
-7.16901e-07
-2.9624e-07
-5.54755e-07
-1.78969e-07
-3.88266e-07
-8.62165e-08
-2.24638e-07
-1.70931e-08
-7.05291e-08
3.03222e-08
6.85153e-08
5.83944e-08
1.87924e-07
6.88924e-08
2.83494e-07
6.30004e-08
3.49878e-07
4.30668e-08
3.78995e-07
1.55336e-08
3.52844e-07
1.98086e-07
3.17154e-08
-1.91917e-07
4.98241e-08
-2.85201e-07
4.88371e-08
-2.48503e-07
3.32366e-08
-1.78027e-07
6.8859e-09
-9.83809e-08
-2.95561e-08
-1.75418e-08
-7.64268e-08
6.13116e-08
-1.34625e-07
1.36855e-07
-2.05414e-07
2.09105e-07
-2.90173e-07
2.79175e-07
-3.90147e-07
3.4893e-07
-5.06184e-07
4.20432e-07
-6.3848e-07
4.95288e-07
-7.86429e-07
5.74162e-07
-9.48428e-07
6.56385e-07
-1.12147e-06
7.39594e-07
-1.30131e-06
8.20287e-07
-1.48306e-06
8.94593e-07
-1.66082e-06
9.57901e-07
-1.82922e-06
1.00678e-06
-1.98489e-06
1.03973e-06
-2.12699e-06
1.0575e-06
-2.25586e-06
1.06134e-06
-2.3724e-06
1.05325e-06
-2.47769e-06
1.03495e-06
-2.57286e-06
1.00826e-06
-2.65889e-06
9.7462e-07
-2.73653e-06
9.3533e-07
-2.80641e-06
8.91412e-07
-2.86908e-06
8.43765e-07
-2.92497e-06
7.93112e-07
-2.97452e-06
7.40047e-07
-3.01804e-06
6.85029e-07
-3.05577e-06
6.28384e-07
-3.08821e-06
5.70774e-07
-3.1161e-06
5.1248e-07
-3.13983e-06
4.53555e-07
-3.15947e-06
3.93931e-07
-3.17473e-06
3.33372e-07
-3.18597e-06
2.72381e-07
-3.19309e-06
2.1034e-07
-3.19628e-06
1.47417e-07
-3.19568e-06
8.33487e-08
-3.19133e-06
1.77583e-08
-3.18346e-06
-4.90226e-08
-3.172e-06
-1.17741e-07
-3.15684e-06
-1.88784e-07
-3.1378e-06
-2.62471e-07
-3.11461e-06
-3.39184e-07
-3.08691e-06
-4.19202e-07
-3.05437e-06
-5.02653e-07
-3.01666e-06
-5.89781e-07
-2.97319e-06
-6.80591e-07
-2.92319e-06
-7.74652e-07
-2.86576e-06
-8.7135e-07
-2.79951e-06
-9.69827e-07
-2.72084e-06
-1.06925e-06
-2.62534e-06
-1.16714e-06
-2.50975e-06
-1.25967e-06
-2.37337e-06
-1.3401e-06
-2.21755e-06
-1.40358e-06
-2.04461e-06
-1.44485e-06
-1.85561e-06
-1.46166e-06
-1.65413e-06
-1.44873e-06
-1.44361e-06
-1.4045e-06
-1.22887e-06
-1.32594e-06
-1.0163e-06
-1.21338e-06
-8.13816e-07
-1.0701e-06
-6.27626e-07
-9.0309e-07
-4.62262e-07
-7.20119e-07
-3.21363e-07
-5.29164e-07
-2.06881e-07
-3.3912e-07
-1.18819e-07
-1.58591e-07
-5.54803e-08
5.17656e-09
-1.34832e-08
1.45927e-07
1.0156e-08
2.59855e-07
1.79368e-08
3.42097e-07
1.32974e-08
3.83634e-07
2.55555e-09
3.63586e-07
2.00642e-07
2.34076e-08
-2.15325e-07
2.54195e-08
-2.87212e-07
8.11244e-09
-2.31196e-07
-2.17115e-08
-1.48203e-07
-6.17854e-08
-5.8307e-08
-1.12011e-07
3.26838e-08
-1.7316e-07
1.22461e-07
-2.46411e-07
2.10106e-07
-3.3305e-07
2.95744e-07
-4.3425e-07
3.80375e-07
-5.50838e-07
4.65518e-07
-6.83025e-07
5.5262e-07
-8.30258e-07
6.42521e-07
-9.90971e-07
7.34875e-07
-1.162e-06
8.27418e-07
-1.33894e-06
9.16534e-07
-1.51662e-06
9.97964e-07
-1.68887e-06
1.06684e-06
-1.85083e-06
1.11986e-06
-2e-06
1.15595e-06
-2.1357e-06
1.17543e-06
-2.25835e-06
1.18015e-06
-2.36895e-06
1.17194e-06
-2.4686e-06
1.15291e-06
-2.55838e-06
1.12473e-06
-2.6392e-06
1.08908e-06
-2.71177e-06
1.04719e-06
-2.77668e-06
1.00024e-06
-2.83443e-06
9.49159e-07
-2.88545e-06
8.94791e-07
-2.93016e-06
8.37821e-07
-2.96899e-06
7.78875e-07
-3.00255e-06
7.18588e-07
-3.03148e-06
6.57319e-07
-3.05584e-06
5.95127e-07
-3.07566e-06
5.32307e-07
-3.091e-06
4.68894e-07
-3.10206e-06
4.04989e-07
-3.10945e-06
3.40761e-07
-3.11344e-06
2.76376e-07
-3.11453e-06
2.11427e-07
-3.11298e-06
1.4587e-07
-3.10905e-06
7.94183e-08
-3.10298e-06
1.1689e-08
-3.09477e-06
-5.7241e-08
-3.08439e-06
-1.28119e-07
-3.07189e-06
-2.01278e-07
-3.05727e-06
-2.77099e-07
-3.04045e-06
-3.55998e-07
-3.02131e-06
-4.38343e-07
-2.99951e-06
-5.24451e-07
-2.97464e-06
-6.14657e-07
-2.94606e-06
-7.09166e-07
-2.91281e-06
-8.07902e-07
-2.87371e-06
-9.10452e-07
-2.82779e-06
-1.01575e-06
-2.77377e-06
-1.12327e-06
-2.71005e-06
-1.23085e-06
-2.63367e-06
-1.33605e-06
-2.53728e-06
-1.4365e-06
-2.41504e-06
-1.52581e-06
-2.26634e-06
-1.59355e-06
-2.09433e-06
-1.63368e-06
-1.90318e-06
-1.63988e-06
-1.69553e-06
-1.61215e-06
-1.47626e-06
-1.54521e-06
-1.25132e-06
-1.43832e-06
-1.02873e-06
-1.29269e-06
-8.18091e-07
-1.11373e-06
-6.26617e-07
-9.11592e-07
-4.59303e-07
-6.96479e-07
-3.19839e-07
-4.78584e-07
-2.09731e-07
-2.68699e-07
-1.27962e-07
-7.65924e-08
-7.16346e-08
8.95995e-08
-3.59947e-08
2.24215e-07
-1.67072e-08
3.22809e-07
-8.3407e-09
3.75268e-07
-5.47941e-09
3.60725e-07
1.95162e-07
1.19399e-08
-2.27264e-07
-3.34988e-09
-2.71923e-07
-3.59682e-08
-1.98577e-07
-7.99612e-08
-1.0421e-07
-1.33788e-07
-4.4807e-09
-1.978e-07
9.66962e-08
-2.73112e-07
1.97772e-07
-3.60955e-07
2.97949e-07
-4.62436e-07
3.97226e-07
-5.78339e-07
4.96278e-07
-7.08899e-07
5.96077e-07
-8.53671e-07
6.97392e-07
-1.01127e-06
8.00118e-07
-1.17861e-06
9.02219e-07
-1.35121e-06
1.00002e-06
-1.52376e-06
1.08908e-06
-1.69047e-06
1.16468e-06
-1.8468e-06
1.22317e-06
-1.99047e-06
1.26353e-06
-2.12071e-06
1.28619e-06
-2.23805e-06
1.29277e-06
-2.34342e-06
1.28552e-06
-2.43794e-06
1.26646e-06
-2.52258e-06
1.23754e-06
-2.59818e-06
1.20034e-06
-2.6654e-06
1.15629e-06
-2.72479e-06
1.10658e-06
-2.77685e-06
1.0523e-06
-2.82206e-06
9.9437e-07
-2.8609e-06
9.33626e-07
-2.89386e-06
8.70777e-07
-2.92141e-06
8.06428e-07
-2.9438e-06
7.40976e-07
-2.96135e-06
6.74872e-07
-2.97452e-06
6.08298e-07
-2.98381e-06
5.41594e-07
-2.98981e-06
4.74898e-07
-2.99308e-06
4.08257e-07
-2.99395e-06
3.41636e-07
-2.99257e-06
2.74987e-07
-2.98924e-06
2.08102e-07
-2.98419e-06
1.40819e-07
-2.97762e-06
7.28502e-08
-2.96973e-06
3.79281e-09
-2.96059e-06
-6.63754e-08
-2.95036e-06
-1.38346e-07
-2.93921e-06
-2.12433e-07
-2.92724e-06
-2.89064e-07
-2.91456e-06
-3.68683e-07
-2.90118e-06
-4.51726e-07
-2.887e-06
-5.38623e-07
-2.87186e-06
-6.29802e-07
-2.85542e-06
-7.25605e-07
-2.83711e-06
-8.26207e-07
-2.81604e-06
-9.31522e-07
-2.79063e-06
-1.04116e-06
-2.75933e-06
-1.15457e-06
-2.71995e-06
-1.27024e-06
-2.67067e-06
-1.38533e-06
-2.60895e-06
-1.49822e-06
-2.53088e-06
-1.60388e-06
-2.42619e-06
-1.69824e-06
-2.28866e-06
-1.77121e-06
-2.1195e-06
-1.80904e-06
-1.92605e-06
-1.8056e-06
-1.71136e-06
-1.7599e-06
-1.48206e-06
-1.66762e-06
-1.24539e-06
-1.52936e-06
-1.01178e-06
-1.34734e-06
-7.92792e-07
-1.13058e-06
-5.96742e-07
-8.92529e-07
-4.2899e-07
-6.46336e-07
-2.93e-07
-4.04689e-07
-1.89379e-07
-1.80213e-07
-1.16009e-07
1.62289e-08
-6.77461e-08
1.75952e-07
-3.84705e-08
2.93534e-07
-2.03088e-08
3.57106e-07
-8.78583e-09
3.49202e-07
1.86376e-07
-1.57219e-09
-2.25692e-07
-3.34219e-08
-2.40073e-07
-8.133e-08
-1.50669e-07
-1.39275e-07
-4.62652e-08
-2.06525e-07
6.27691e-08
-2.83957e-07
1.74129e-07
-3.72769e-07
2.86584e-07
-4.74084e-07
3.99264e-07
-5.88681e-07
5.11823e-07
-7.16823e-07
6.2442e-07
-8.58176e-07
7.3743e-07
-1.01159e-06
8.50804e-07
-1.17425e-06
9.62783e-07
-1.34177e-06
1.06974e-06
-1.50893e-06
1.16718e-06
-1.6704e-06
1.25055e-06
-1.8218e-06
1.31608e-06
-1.96076e-06
1.36213e-06
-2.08645e-06
1.38922e-06
-2.19916e-06
1.3989e-06
-2.2999e-06
1.39351e-06
-2.38965e-06
1.37527e-06
-2.46933e-06
1.34615e-06
-2.53968e-06
1.30789e-06
-2.60132e-06
1.26197e-06
-2.65477e-06
1.20975e-06
-2.70057e-06
1.15238e-06
-2.73924e-06
1.09097e-06
-2.77133e-06
1.02646e-06
-2.79741e-06
9.59706e-07
-2.81804e-06
8.9141e-07
-2.83376e-06
8.22151e-07
-2.84516e-06
7.5237e-07
-2.85276e-06
6.82475e-07
-2.85717e-06
6.12705e-07
-2.85886e-06
5.43287e-07
-2.85825e-06
4.74289e-07
-2.85568e-06
4.05687e-07
-2.85145e-06
3.37401e-07
-2.84577e-06
2.69312e-07
-2.83888e-06
2.01213e-07
-2.83096e-06
1.32891e-07
-2.82216e-06
6.40583e-08
-2.81276e-06
-5.6093e-09
-2.80277e-06
-7.63637e-08
-2.79245e-06
-1.4867e-07
-2.78197e-06
-2.2291e-07
-2.77152e-06
-2.99514e-07
-2.76128e-06
-3.78931e-07
-2.75138e-06
-4.61623e-07
-2.74193e-06
-5.48068e-07
-2.73299e-06
-6.38742e-07
-2.72452e-06
-7.34079e-07
-2.7163e-06
-8.34424e-07
-2.70784e-06
-9.39984e-07
-2.6982e-06
-1.0508e-06
-2.68615e-06
-1.16662e-06
-2.66981e-06
-1.28658e-06
-2.646e-06
-1.40914e-06
-2.61208e-06
-1.53214e-06
-2.56476e-06
-1.6512e-06
-2.50012e-06
-1.76288e-06
-2.41154e-06
-1.85979e-06
-2.2855e-06
-1.93508e-06
-2.12077e-06
-1.97033e-06
-1.92384e-06
-1.95683e-06
-1.70097e-06
-1.89048e-06
-1.45982e-06
-1.77051e-06
-1.21031e-06
-1.59686e-06
-9.65389e-07
-1.3755e-06
-7.38852e-07
-1.11907e-06
-5.40081e-07
-8.45108e-07
-3.745e-07
-5.7027e-07
-2.44884e-07
-3.0983e-07
-1.5046e-07
-7.81942e-08
-8.71276e-08
1.12619e-07
-4.75909e-08
2.53997e-07
-2.28794e-08
3.32394e-07
-7.53422e-09
3.33857e-07
1.78842e-07
-1.59282e-08
-2.09764e-07
-6.42602e-08
-1.91741e-07
-1.26459e-07
-8.84701e-08
-1.97649e-07
2.49243e-08
-2.77694e-07
1.42814e-07
-3.67688e-07
2.64123e-07
-4.68814e-07
3.8771e-07
-5.81939e-07
5.12389e-07
-7.07411e-07
6.37294e-07
-8.44995e-07
7.62004e-07
-9.93767e-07
8.86202e-07
-1.15129e-06
1.00833e-06
-1.31347e-06
1.12496e-06
-1.47535e-06
1.23162e-06
-1.63198e-06
1.32381e-06
-1.77917e-06
1.39774e-06
-1.91419e-06
1.45109e-06
-2.03604e-06
1.48398e-06
-2.14487e-06
1.49806e-06
-2.24153e-06
1.49556e-06
-2.32698e-06
1.47895e-06
-2.40202e-06
1.45031e-06
-2.46734e-06
1.41147e-06
-2.52354e-06
1.36409e-06
-2.57118e-06
1.30961e-06
-2.61084e-06
1.24941e-06
-2.64318e-06
1.18472e-06
-2.66886e-06
1.11665e-06
-2.6886e-06
1.0462e-06
-2.70309e-06
9.74206e-07
-2.71305e-06
9.01365e-07
-2.71912e-06
8.28222e-07
-2.72195e-06
7.55195e-07
-2.72207e-06
6.82603e-07
-2.72e-06
6.10635e-07
-2.71612e-06
5.394e-07
-2.71073e-06
4.68896e-07
-2.70409e-06
3.99049e-07
-2.69643e-06
3.29738e-07
-2.68792e-06
2.60802e-07
-2.67872e-06
1.92021e-07
-2.66899e-06
1.23158e-07
-2.65886e-06
5.39316e-08
-2.64852e-06
-1.59555e-08
-2.63806e-06
-8.68239e-08
-2.62768e-06
-1.59049e-07
-2.61757e-06
-2.33015e-07
-2.60795e-06
-3.09135e-07
-2.59904e-06
-3.87844e-07
-2.59106e-06
-4.69601e-07
-2.58424e-06
-5.54892e-07
-2.57877e-06
-6.4421e-07
-2.57481e-06
-7.38041e-07
-2.5724e-06
-8.36831e-07
-2.57142e-06
-9.40968e-07
-2.57149e-06
-1.05073e-06
-2.57193e-06
-1.16618e-06
-2.57147e-06
-1.28704e-06
-2.56804e-06
-1.41256e-06
-2.55893e-06
-1.54126e-06
-2.53966e-06
-1.67047e-06
-2.50614e-06
-1.79639e-06
-2.45356e-06
-1.91237e-06
-2.37568e-06
-2.01296e-06
-2.25932e-06
-2.08669e-06
-2.09787e-06
-2.11828e-06
-1.89659e-06
-2.09176e-06
-1.66364e-06
-2.00345e-06
-1.40926e-06
-1.85125e-06
-1.14637e-06
-1.63838e-06
-8.90909e-07
-1.37453e-06
-6.59028e-07
-1.07699e-06
-4.60896e-07
-7.68401e-07
-3.0132e-07
-4.69406e-07
-1.81802e-07
-1.97713e-07
-9.96362e-08
3.04536e-08
-4.80402e-08
2.02401e-07
-1.82622e-08
3.02616e-07
-3.03133e-09
3.18626e-07
1.75811e-07
-3.05737e-08
-1.7919e-07
-9.41491e-08
-1.28165e-07
-1.69729e-07
-1.28903e-08
-2.53249e-07
1.08445e-07
-3.45104e-07
2.34669e-07
-4.4644e-07
3.6546e-07
-5.583e-07
4.9957e-07
-6.8122e-07
6.3531e-07
-8.15114e-07
7.71187e-07
-9.5925e-07
9.0614e-07
-1.11157e-06
1.03852e-06
-1.26843e-06
1.16519e-06
-1.42529e-06
1.28182e-06
-1.57755e-06
1.38387e-06
-1.72116e-06
1.46743e-06
-1.85307e-06
1.52966e-06
-1.97188e-06
1.5699e-06
-2.07761e-06
1.5897e-06
-2.17089e-06
1.59134e-06
-2.25262e-06
1.57729e-06
-2.32357e-06
1.5499e-06
-2.38438e-06
1.51112e-06
-2.43567e-06
1.46276e-06
-2.47805e-06
1.40647e-06
-2.51221e-06
1.34378e-06
-2.53892e-06
1.27613e-06
-2.55901e-06
1.2048e-06
-2.57331e-06
1.13095e-06
-2.58267e-06
1.05555e-06
-2.58787e-06
9.79406e-07
-2.58964e-06
9.03138e-07
-2.58864e-06
8.27219e-07
-2.58542e-06
7.51981e-07
-2.58046e-06
6.7764e-07
-2.57412e-06
6.04297e-07
-2.56669e-06
5.31973e-07
-2.5584e-06
4.60601e-07
-2.54941e-06
3.90063e-07
-2.53988e-06
3.20205e-07
-2.52991e-06
2.50836e-07
-2.51961e-06
1.8172e-07
-2.50907e-06
1.1262e-07
-2.4984e-06
4.32619e-08
-2.48772e-06
-2.66435e-08
-2.47713e-06
-9.74089e-08
-2.46681e-06
-1.69371e-07
-2.45694e-06
-2.42887e-07
-2.44773e-06
-3.18339e-07
-2.43944e-06
-3.96133e-07
-2.43234e-06
-4.76704e-07
-2.42672e-06
-5.60516e-07
-2.42287e-06
-6.4806e-07
-2.42107e-06
-7.39838e-07
-2.42155e-06
-8.36356e-07
-2.42441e-06
-9.38104e-07
-2.42963e-06
-1.04551e-06
-2.43692e-06
-1.15889e-06
-2.44562e-06
-1.27833e-06
-2.45458e-06
-1.40361e-06
-2.46186e-06
-1.53397e-06
-2.46444e-06
-1.66789e-06
-2.45817e-06
-1.80267e-06
-2.43666e-06
-1.93388e-06
-2.39453e-06
-2.05509e-06
-2.32394e-06
-2.15728e-06
-2.21305e-06
-2.22917e-06
-2.05182e-06
-2.25299e-06
-1.84427e-06
-2.211e-06
-1.5993e-06
-2.09621e-06
-1.33069e-06
-1.907e-06
-1.05481e-06
-1.6504e-06
-7.91114e-07
-1.34068e-06
-5.58079e-07
-1.00144e-06
-3.65623e-07
-6.61862e-07
-2.1741e-07
-3.45926e-07
-1.12847e-07
-7.41089e-08
-4.66186e-08
1.36173e-07
-1.09286e-08
2.66926e-07
2.92291e-09
3.04774e-07
1.78734e-07
-4.46096e-08
-1.34581e-07
-1.22056e-07
-5.07193e-08
-2.09744e-07
7.47975e-08
-3.04514e-07
2.03216e-07
-4.06898e-07
3.37052e-07
-5.18055e-07
4.76617e-07
-6.38813e-07
6.20328e-07
-7.69348e-07
7.65845e-07
-9.09148e-07
9.10988e-07
-1.05648e-06
1.05348e-06
-1.20825e-06
1.19029e-06
-1.36047e-06
1.31741e-06
-1.50885e-06
1.43019e-06
-1.64946e-06
1.52449e-06
-1.77906e-06
1.59702e-06
-1.89573e-06
1.64633e-06
-1.99919e-06
1.67336e-06
-2.08994e-06
1.68045e-06
-2.16873e-06
1.67014e-06
-2.23635e-06
1.64491e-06
-2.29342e-06
1.60697e-06
-2.34059e-06
1.55829e-06
-2.37857e-06
1.50073e-06
-2.40814e-06
1.43603e-06
-2.43019e-06
1.36584e-06
-2.44569e-06
1.29163e-06
-2.45561e-06
1.21471e-06
-2.46087e-06
1.13622e-06
-2.46235e-06
1.05704e-06
-2.46083e-06
9.77884e-07
-2.45697e-06
8.99278e-07
-2.45133e-06
8.21579e-07
-2.44436e-06
7.45012e-07
-2.43641e-06
6.69688e-07
-2.42774e-06
5.95624e-07
-2.41853e-06
5.22763e-07
-2.40891e-06
4.50988e-07
-2.39899e-06
3.80143e-07
-2.38884e-06
3.10048e-07
-2.37849e-06
2.40495e-07
-2.36801e-06
1.71236e-07
-2.35743e-06
1.02039e-07
-2.34682e-06
3.26484e-08
-2.33624e-06
-3.7216e-08
-2.32581e-06
-1.07838e-07
-2.31566e-06
-1.79522e-07
-2.30596e-06
-2.52587e-07
-2.29693e-06
-3.27376e-07
-2.28881e-06
-4.04254e-07
-2.28189e-06
-4.83615e-07
-2.27652e-06
-5.65889e-07
-2.27305e-06
-6.51536e-07
-2.27183e-06
-7.41053e-07
-2.27322e-06
-8.34965e-07
-2.27751e-06
-9.33815e-07
-2.28489e-06
-1.03814e-06
-2.29535e-06
-1.14842e-06
-2.30865e-06
-1.26503e-06
-2.32413e-06
-1.38813e-06
-2.3406e-06
-1.5175e-06
-2.35612e-06
-1.65238e-06
-2.36766e-06
-1.79113e-06
-2.37065e-06
-1.93089e-06
-2.35886e-06
-2.06688e-06
-2.32436e-06
-2.19178e-06
-2.25883e-06
-2.2947e-06
-2.14868e-06
-2.36314e-06
-1.98428e-06
-2.3754e-06
-1.76708e-06
-2.31341e-06
-1.50816e-06
-2.16592e-06
-1.22496e-06
-1.93361e-06
-9.37889e-07
-1.62775e-06
-6.70518e-07
-1.26881e-06
-4.42829e-07
-8.89551e-07
-2.63225e-07
-5.2553e-07
-1.33354e-07
-2.03981e-07
-4.96889e-08
5.25078e-08
-5.81685e-09
2.23054e-07
7.82789e-09
2.91129e-07
1.86562e-07
-5.74568e-08
-7.71239e-08
-1.47092e-07
3.89155e-08
-2.45598e-07
1.73304e-07
-3.50215e-07
3.07833e-07
-4.61614e-07
4.4845e-07
-5.80867e-07
5.9587e-07
-7.0855e-07
7.4801e-07
-8.44452e-07
9.01748e-07
-9.87212e-07
1.05375e-06
-1.13425e-06
1.20051e-06
-1.28226e-06
1.3383e-06
-1.42723e-06
1.46239e-06
-1.56539e-06
1.56835e-06
-1.69337e-06
1.65246e-06
-1.80881e-06
1.71247e-06
-1.91096e-06
1.74847e-06
-2.00011e-06
1.76251e-06
-2.07692e-06
1.75727e-06
-2.14213e-06
1.73535e-06
-2.19641e-06
1.69919e-06
-2.24046e-06
1.65101e-06
-2.27504e-06
1.59287e-06
-2.30105e-06
1.52674e-06
-2.31951e-06
1.45449e-06
-2.33148e-06
1.37781e-06
-2.33804e-06
1.29819e-06
-2.34023e-06
1.2169e-06
-2.33896e-06
1.13495e-06
-2.33506e-06
1.05313e-06
-2.3292e-06
9.72028e-07
-2.32195e-06
8.92026e-07
-2.31374e-06
8.13367e-07
-2.30489e-06
7.36165e-07
-2.29564e-06
6.60438e-07
-2.28614e-06
5.86126e-07
-2.27649e-06
5.13112e-07
-2.26674e-06
4.41239e-07
-2.25692e-06
3.70319e-07
-2.24703e-06
3.00153e-07
-2.23706e-06
2.30532e-07
-2.22703e-06
1.61202e-07
-2.21692e-06
9.19332e-08
-2.20678e-06
2.25028e-08
-2.19664e-06
-4.73578e-08
-2.18657e-06
-1.179e-07
-2.1767e-06
-1.89391e-07
-2.16718e-06
-2.62112e-07
-2.15819e-06
-3.36361e-07
-2.14999e-06
-4.12455e-07
-2.14287e-06
-4.9074e-07
-2.13716e-06
-5.71595e-07
-2.13326e-06
-6.55439e-07
-2.13158e-06
-7.42735e-07
-2.13255e-06
-8.33994e-07
-2.13659e-06
-9.29776e-07
-2.14405e-06
-1.03067e-06
-2.15518e-06
-1.13729e-06
-2.17003e-06