/*--------------------------------*- C++ -*----------------------------------*\
  =========                 |
  \\      /  F ield         | OpenFOAM: The Open Source CFD Toolbox
   \\    /   O peration     | Website:  https://openfoam.org
    \\  /    A nd           | Version:  13
     \\/     M anipulation  |
\*---------------------------------------------------------------------------*/
FoamFile
{
    format      ascii;
    class       volVectorField;
    location    "5.6";
    object      U;
}
// * * * * * * * * * * * * * * * * * * * * * * * * * * * * * * * * * * * * * //

dimensions      [0 1 -1 0 0 0 0];

internalField   nonuniform List<vector> 
6400
(
(-0.000116443 7.63099e-05 0)
(0.00042254 -0.000162678 0)
(0.00197485 -0.000404772 0)
(0.00403321 -0.000512581 0)
(0.00609158 -0.000452948 0)
(0.00781738 -0.000303839 0)
(0.00897844 -0.000124656 0)
(0.00957048 1.12556e-05 0)
(0.00971257 6.35038e-05 0)
(0.00962429 4.44027e-05 0)
(0.00943789 -2.73722e-05 0)
(0.0093025 -0.000127901 0)
(0.00928786 -0.000231731 0)
(0.00938919 -0.00031702 0)
(0.00956245 -0.000387178 0)
(0.00973231 -0.000440044 0)
(0.00982886 -0.000475233 0)
(0.00979946 -0.000481762 0)
(0.00961208 -0.000467741 0)
(0.00917611 -0.00043174 0)
(0.00844685 -0.000384334 0)
(0.00737546 -0.000335756 0)
(0.00591315 -0.000290645 0)
(0.00403521 -0.000269131 0)
(0.00170934 -0.000306975 0)
(-0.0010539 -0.00041017 0)
(-0.00423085 -0.000480434 0)
(-0.00805802 -0.000356313 0)
(-0.0126556 7.44902e-05 0)
(-0.0180052 0.000844405 0)
(-0.0248032 0.00181753 0)
(-0.0325018 0.00268983 0)
(-0.0408887 0.0034104 0)
(-0.0496987 0.00396391 0)
(-0.0586845 0.00435056 0)
(-0.0676147 0.00457913 0)
(-0.0763043 0.00466972 0)
(-0.0845935 0.00464362 0)
(-0.0923625 0.00452149 0)
(-0.0995098 0.00432126 0)
(-0.105957 0.00405557 0)
(-0.111637 0.00373353 0)
(-0.116497 0.0033589 0)
(-0.120503 0.00293341 0)
(-0.123624 0.00246277 0)
(-0.125802 0.00197153 0)
(-0.126832 0.00154037 0)
(-0.127109 0.00106829 0)
(-0.126168 0.000323389 0)
(-0.124134 -0.000226083 0)
(-0.120985 -0.000919116 0)
(-0.116664 -0.00154802 0)
(-0.111202 -0.00220551 0)
(-0.10458 -0.00282281 0)
(-0.0968658 -0.00342918 0)
(-0.0881762 -0.0040249 0)
(-0.0784794 -0.00455969 0)
(-0.06795 -0.00501816 0)
(-0.0567533 -0.00538848 0)
(-0.0450658 -0.00561789 0)
(-0.0331349 -0.00568294 0)
(-0.021234 -0.00556029 0)
(-0.00964945 -0.00524412 0)
(0.00127749 -0.00474905 0)
(0.0111887 -0.0040604 0)
(0.0197747 -0.00315677 0)
(0.0267522 -0.00212373 0)
(0.0318405 -0.000988363 0)
(0.0350241 0.00016323 0)
(0.0357246 0.00145127 0)
(0.0346634 0.00207696 0)
(0.0315958 0.00267957 0)
(0.0266207 0.00294329 0)
(0.0207378 0.00270811 0)
(0.0146761 0.0020708 0)
(0.00925311 0.00126359 0)
(0.0049491 0.000579374 0)
(0.00194077 0.000152331 0)
(0.000243692 -0.000147715 0)
(-0.000216597 -0.000333161 0)
(1.5167e-05 -0.000364757 0)
(0.00170887 -0.00198613 0)
(0.00496099 -0.00334593 0)
(0.0086313 -0.0038243 0)
(0.0120439 -0.00348225 0)
(0.0147834 -0.0026673 0)
(0.0166713 -0.00166441 0)
(0.0177192 -0.000741754 0)
(0.0180515 -8.29913e-05 0)
(0.0178178 0.000274534 0)
(0.0172241 0.000376697 0)
(0.0164152 0.000299588 0)
(0.0154837 0.000158487 0)
(0.0144201 6.14696e-05 0)
(0.0131568 6.94108e-05 0)
(0.0115931 0.000196046 0)
(0.00963728 0.000421879 0)
(0.00723786 0.000724822 0)
(0.00428606 0.00112326 0)
(0.000681805 0.00163119 0)
(-0.00367918 0.00225345 0)
(-0.00899114 0.00300447 0)
(-0.0153887 0.00386335 0)
(-0.0229244 0.00480583 0)
(-0.0316456 0.00584661 0)
(-0.0416316 0.00699758 0)
(-0.0528435 0.00828096 0)
(-0.0649507 0.00969199 0)
(-0.0776197 0.011196 0)
(-0.090364 0.0126561 0)
(-0.102632 0.013792 0)
(-0.114553 0.0145389 0)
(-0.125902 0.0148973 0)
(-0.136562 0.0148811 0)
(-0.146445 0.0145527 0)
(-0.155475 0.0139598 0)
(-0.163611 0.0131554 0)
(-0.170816 0.0121837 0)
(-0.177075 0.0110812 0)
(-0.182372 0.00987805 0)
(-0.186696 0.00859298 0)
(-0.190041 0.00724188 0)
(-0.192398 0.00583236 0)
(-0.193759 0.00437328 0)
(-0.194119 0.00287164 0)
(-0.193454 0.00133153 0)
(-0.191738 -0.000242105 0)
(-0.189 -0.00188116 0)
(-0.18517 -0.00360208 0)
(-0.180272 -0.00534563 0)
(-0.174288 -0.00713467 0)
(-0.167201 -0.00892729 0)
(-0.159016 -0.010717 0)
(-0.149726 -0.0124673 0)
(-0.139355 -0.0141488 0)
(-0.127924 -0.0157085 0)
(-0.11557 -0.0171122 0)
(-0.102374 -0.0183117 0)
(-0.0884948 -0.0192259 0)
(-0.0741513 -0.0198005 0)
(-0.0595389 -0.0199729 0)
(-0.0449142 -0.0196926 0)
(-0.0305613 -0.0189251 0)
(-0.0167811 -0.0176622 0)
(-0.00386279 -0.0158899 0)
(0.00789352 -0.0136182 0)
(0.0182026 -0.0109064 0)
(0.0268276 -0.00784533 0)
(0.0335805 -0.00452154 0)
(0.0382451 -0.00111238 0)
(0.0408243 0.00212295 0)
(0.0411649 0.0051134 0)
(0.0393462 0.00761178 0)
(0.0355447 0.00935187 0)
(0.0299409 0.00967636 0)
(0.0228595 0.00886966 0)
(0.0152973 0.0071382 0)
(0.00837275 0.00489761 0)
(0.0031615 0.00244102 0)
(0.000244917 0.000371626 0)
(0.000188153 -0.00154214 0)
(0.00301404 -0.00510984 0)
(0.00712406 -0.00728937 0)
(0.0110266 -0.00761142 0)
(0.0142624 -0.006603 0)
(0.0166133 -0.00489344 0)
(0.0180918 -0.0030295 0)
(0.0187569 -0.00133891 0)
(0.0186825 -1.11656e-07 0)
(0.017958 0.000906166 0)
(0.0167321 0.0014011 0)
(0.0150791 0.00162833 0)
(0.0130165 0.00177376 0)
(0.0105069 0.00200624 0)
(0.00746996 0.00243018 0)
(0.00380121 0.00307382 0)
(-0.000611978 0.00392171 0)
(-0.00593012 0.00498221 0)
(-0.0122734 0.00627635 0)
(-0.0197605 0.00784042 0)
(-0.0284788 0.00968678 0)
(-0.0384249 0.0117686 0)
(-0.0495582 0.0140023 0)
(-0.0617659 0.0162732 0)
(-0.0748124 0.0184599 0)
(-0.0884112 0.0204688 0)
(-0.102209 0.0222121 0)
(-0.115899 0.0236294 0)
(-0.129154 0.0246549 0)
(-0.141704 0.0252709 0)
(-0.153378 0.025468 0)
(-0.164104 0.0252368 0)
(-0.173813 0.0246276 0)
(-0.182552 0.0236685 0)
(-0.190328 0.0224007 0)
(-0.197171 0.0208893 0)
(-0.203108 0.0191801 0)
(-0.208165 0.0173189 0)
(-0.212357 0.0153344 0)
(-0.215698 0.0132594 0)
(-0.218199 0.0111105 0)
(-0.219863 0.00889673 0)
(-0.220688 0.00662689 0)
(-0.220668 0.00430026 0)
(-0.219794 0.00191567 0)
(-0.218052 -0.00052949 0)
(-0.215403 -0.00304375 0)
(-0.211834 -0.00563386 0)
(-0.207323 -0.00828862 0)
(-0.201845 -0.0109872 0)
(-0.195373 -0.0137374 0)
(-0.187888 -0.0165025 0)
(-0.179381 -0.019265 0)
(-0.169848 -0.0219828 0)
(-0.159302 -0.0246069 0)
(-0.147773 -0.027065 0)
(-0.135329 -0.0292854 0)
(-0.12206 -0.0311824 0)
(-0.108074 -0.0326516 0)
(-0.0935469 -0.0336028 0)
(-0.0786859 -0.0339447 0)
(-0.0637164 -0.0335926 0)
(-0.0489124 -0.0324842 0)
(-0.0345792 -0.0306206 0)
(-0.0210001 -0.0279968 0)
(-0.00842793 -0.0246404 0)
(0.00288363 -0.0206076 0)
(0.0127042 -0.0160192 0)
(0.0208721 -0.0110262 0)
(0.0272606 -0.0058202 0)
(0.0318004 -0.000629962 0)
(0.0345086 0.00433308 0)
(0.0352518 0.00872245 0)
(0.0339274 0.0121858 0)
(0.0307634 0.0146274 0)
(0.0259443 0.015356 0)
(0.0195733 0.0144559 0)
(0.0125302 0.0119824 0)
(0.00588678 0.00804878 0)
(0.000790468 0.00308518 0)
(0.000389212 -0.00338488 0)
(0.00403911 -0.00906419 0)
(0.00830123 -0.011418 0)
(0.0117745 -0.0110214 0)
(0.0143047 -0.00906405 0)
(0.0158751 -0.0064537 0)
(0.0165777 -0.00375422 0)
(0.0165019 -0.0013062 0)
(0.015723 0.000695486 0)
(0.0143034 0.0021768 0)
(0.0122388 0.00321531 0)
(0.00950713 0.0039949 0)
(0.0060596 0.00474097 0)
(0.00182855 0.00564998 0)
(-0.00326031 0.00683997 0)
(-0.00929665 0.00835727 0)
(-0.0163991 0.010216 0)
(-0.0246872 0.0124187 0)
(-0.034243 0.0149571 0)
(-0.0450875 0.0178052 0)
(-0.057147 0.02088 0)
(-0.0702392 0.0240426 0)
(-0.0840837 0.0271212 0)
(-0.0983326 0.0299512 0)
(-0.11269 0.032441 0)
(-0.126817 0.0344151 0)
(-0.14043 0.0357634 0)
(-0.153239 0.0364886 0)
(-0.165069 0.0366577 0)
(-0.17587 0.0363145 0)
(-0.185611 0.0355241 0)
(-0.194345 0.0343228 0)
(-0.202109 0.0327485 0)
(-0.208977 0.030867 0)
(-0.214988 0.0287231 0)
(-0.220203 0.0263718 0)
(-0.224662 0.0238513 0)
(-0.228396 0.0212018 0)
(-0.231424 0.0184481 0)
(-0.233761 0.0156101 0)
(-0.235414 0.0127014 0)
(-0.236382 0.0097261 0)
(-0.236657 0.00668453 0)
(-0.236227 0.00357186 0)
(-0.235073 0.000383916 0)
(-0.23317 -0.00288422 0)
(-0.230486 -0.0062353 0)
(-0.226995 -0.00968579 0)
(-0.222666 -0.0132323 0)
(-0.217465 -0.0168637 0)
(-0.211354 -0.0205667 0)
(-0.2043 -0.0243088 0)
(-0.196283 -0.0280618 0)
(-0.187281 -0.0317782 0)
(-0.177285 -0.0353909 0)
(-0.166298 -0.0388053 0)
(-0.154352 -0.0419145 0)
(-0.141516 -0.0446109 0)
(-0.127879 -0.0467578 0)
(-0.113562 -0.0482047 0)
(-0.0987487 -0.048835 0)
(-0.0836517 -0.0485207 0)
(-0.068511 -0.0471691 0)
(-0.0536318 -0.044736 0)
(-0.0393693 -0.041262 0)
(-0.02601 -0.0368182 0)
(-0.0137901 -0.0314697 0)
(-0.00294315 -0.0253775 0)
(0.00634736 -0.0187548 0)
(0.0139557 -0.0118471 0)
(0.0198155 -0.00491636 0)
(0.0239379 0.00181549 0)
(0.0263592 0.00803641 0)
(0.0271102 0.0133428 0)
(0.0260554 0.0173674 0)
(0.0232051 0.0198152 0)
(0.0187516 0.020239 0)
(0.013069 0.0184654 0)
(0.00681789 0.0142695 0)
(0.00105319 0.00682833 0)
(0.000645378 -0.0057624 0)
(0.00471756 -0.0132922 0)
(0.00852689 -0.0151389 0)
(0.0111792 -0.0136844 0)
(0.0127869 -0.0106676 0)
(0.0134142 -0.00713216 0)
(0.0132034 -0.00362495 0)
(0.0122396 -0.00045339 0)
(0.0105594 0.00222694 0)
(0.00815199 0.0044005 0)
(0.0049566 0.00617786 0)
(0.000887831 0.00776596 0)
(-0.00414375 0.00940126 0)
(-0.0102229 0.0112817 0)
(-0.0174294 0.0135322 0)
(-0.0258384 0.0162089 0)
(-0.0355118 0.01932 0)
(-0.0464763 0.0228338 0)
(-0.0586793 0.0266578 0)
(-0.0719624 0.0306642 0)
(-0.0860561 0.0346399 0)
(-0.100605 0.0383748 0)
(-0.115265 0.0417536 0)
(-0.129727 0.0444939 0)
(-0.143616 0.0464608 0)
(-0.156606 0.0476534 0)
(-0.168581 0.0480958 0)
(-0.179479 0.0478386 0)
(-0.189346 0.0469831 0)
(-0.198219 0.0456255 0)
(-0.20616 0.043847 0)
(-0.213257 0.0417195 0)
(-0.219555 0.0392923 0)
(-0.225119 0.0366175 0)
(-0.229996 0.0337352 0)
(-0.234235 0.0306863 0)
(-0.237865 0.0275026 0)
(-0.240912 0.024214 0)
(-0.243392 0.0208333 0)
(-0.245311 0.0173744 0)
(-0.24667 0.0138476 0)
(-0.247467 0.0102455 0)
(-0.247691 0.00656391 0)
(-0.247329 0.0027911 0)
(-0.246363 -0.00108253 0)
(-0.244764 -0.00506647 0)
(-0.242492 -0.00916669 0)
(-0.239512 -0.0133925 0)
(-0.235786 -0.0177444 0)
(-0.231282 -0.0222251 0)
(-0.225961 -0.0268251 0)
(-0.219754 -0.0315027 0)
(-0.212626 -0.036223 0)
(-0.204537 -0.0409347 0)
(-0.195452 -0.0455585 0)
(-0.185355 -0.0499831 0)
(-0.174226 -0.054064 0)
(-0.162109 -0.0576737 0)
(-0.149059 -0.0606398 0)
(-0.135163 -0.0627658 0)
(-0.120568 -0.0638963 0)
(-0.105458 -0.0638566 0)
(-0.0900683 -0.0625034 0)
(-0.074644 -0.0597539 0)
(-0.0595171 -0.055601 0)
(-0.0451283 -0.0501616 0)
(-0.0317675 -0.0435698 0)
(-0.0196689 -0.0360258 0)
(-0.0090732 -0.0277881 0)
(-0.000143163 -0.0191671 0)
(0.00703567 -0.0104921 0)
(0.0124551 -0.00206293 0)
(0.0161821 0.00580303 0)
(0.0182968 0.012781 0)
(0.0188179 0.0185072 0)
(0.0177544 0.0225297 0)
(0.0151234 0.0243912 0)
(0.011123 0.0237542 0)
(0.00610349 0.0199661 0)
(0.000903987 0.010541 0)
(0.000936369 -0.0085303 0)
(0.00495214 -0.0172318 0)
(0.00786893 -0.0179558 0)
(0.00943867 -0.0153464 0)
(0.01001 -0.0112578 0)
(0.00962823 -0.00683729 0)
(0.00843873 -0.00254851 0)
(0.00648592 0.00136255 0)
(0.00375533 0.00479714 0)
(0.000181459 0.0077888 0)
(-0.00433847 0.0104827 0)
(-0.00991549 0.0130955 0)
(-0.0166488 0.0158542 0)
(-0.0246173 0.0189406 0)
(-0.0338755 0.022462 0)
(-0.044441 0.0264446 0)
(-0.0562765 0.0308409 0)
(-0.0692688 0.0355623 0)
(-0.0832125 0.0403917 0)
(-0.0977613 0.0450768 0)
(-0.112555 0.0494647 0)
(-0.127262 0.0532006 0)
(-0.141436 0.0560938 0)
(-0.154689 0.0580671 0)
(-0.166872 0.0590777 0)
(-0.177969 0.0592014 0)
(-0.188024 0.0585584 0)
(-0.197114 0.0572832 0)
(-0.20532 0.0554877 0)
(-0.212704 0.0532636 0)
(-0.219337 0.0506868 0)
(-0.225275 0.0478163 0)
(-0.230568 0.0447028 0)
(-0.23527 0.0413892 0)
(-0.239416 0.0379088 0)
(-0.243039 0.0342929 0)
(-0.24616 0.0305676 0)
(-0.2488 0.0267543 0)
(-0.25097 0.022863 0)
(-0.252673 0.0188993 0)
(-0.253908 0.0148673 0)
(-0.254681 0.0107502 0)
(-0.254982 0.00654069 0)
(-0.254805 0.00221955 0)
(-0.254144 -0.0022337 0)
(-0.252981 -0.00683866 0)
(-0.251291 -0.0116044 0)
(-0.249039 -0.0165392 0)
(-0.246166 -0.0216352 0)
(-0.242628 -0.0268987 0)
(-0.238361 -0.032324 0)
(-0.233308 -0.0378784 0)
(-0.227371 -0.0435043 0)
(-0.220483 -0.0491421 0)
(-0.212579 -0.0547132 0)
(-0.203707 -0.0601705 0)
(-0.193731 -0.0652985 0)
(-0.182638 -0.069929 0)
(-0.170471 -0.0738699 0)
(-0.157248 -0.0768629 0)
(-0.143093 -0.0787176 0)
(-0.128157 -0.0792072 0)
(-0.11264 -0.0781543 0)
(-0.0968121 -0.0754041 0)
(-0.0809314 -0.0708864 0)
(-0.0653947 -0.0646483 0)
(-0.0507054 -0.056974 0)
(-0.0371466 -0.0480645 0)
(-0.025012 -0.0382376 0)
(-0.0145383 -0.0278855 0)
(-0.00586859 -0.0174238 0)
(0.000954124 -0.00724758 0)
(0.00598798 0.00228771 0)
(0.00935435 0.0108477 0)
(0.0111732 0.0180973 0)
(0.0115193 0.0236164 0)
(0.0104115 0.0269172 0)
(0.00793949 0.0275048 0)
(0.0044695 0.0244345 0)
(0.000529105 0.0135704 0)
(0.00118339 -0.0114602 0)
(0.00467006 -0.0203789 0)
(0.00632809 -0.0197056 0)
(0.0068147 -0.0158551 0)
(0.00625601 -0.0107793 0)
(0.00482859 -0.00552033 0)
(0.00260416 -0.000448397 0)
(-0.000424711 0.00425657 0)
(-0.00432011 0.0085502 0)
(-0.00918211 0.0125023 0)
(-0.0151271 0.0162743 0)
(-0.0222639 0.0200752 0)
(-0.0306762 0.0241069 0)
(-0.0404101 0.0285158 0)
(-0.0514611 0.0333623 0)
(-0.0637476 0.0386085 0)
(-0.0771393 0.0441352 0)
(-0.0913578 0.049707 0)
(-0.106018 0.0551019 0)
(-0.120794 0.0599696 0)
(-0.135221 0.0640318 0)
(-0.148826 0.0670794 0)
(-0.161365 0.0690066 0)
(-0.172796 0.0698614 0)
(-0.183174 0.0697694 0)
(-0.192561 0.0688732 0)
(-0.201054 0.0673043 0)
(-0.208735 0.0651865 0)
(-0.215677 0.0626194 0)
(-0.221938 0.059688 0)
(-0.227572 0.0564587 0)
(-0.232623 0.0529815 0)
(-0.237132 0.0493016 0)
(-0.241138 0.0454563 0)
(-0.244667 0.0414783 0)
(-0.247741 0.037397 0)
(-0.250375 0.033238 0)
(-0.252582 0.0290157 0)
(-0.254368 0.0247399 0)
(-0.25581 0.0203096 0)
(-0.25686 0.0158404 0)
(-0.257527 0.0112832 0)
(-0.257798 0.00663864 0)
(-0.257665 0.00188654 0)
(-0.257112 -0.00299151 0)
(-0.256155 -0.00801821 0)
(-0.25479 -0.0132183 0)
(-0.253007 -0.0186204 0)
(-0.250807 -0.0242587 0)
(-0.248147 -0.0301497 0)
(-0.245004 -0.0363246 0)
(-0.24133 -0.0427334 0)
(-0.237005 -0.0493006 0)
(-0.23192 -0.0559874 0)
(-0.225947 -0.0627019 0)
(-0.218855 -0.06926 0)
(-0.21057 -0.0754812 0)
(-0.200954 -0.0811613 0)
(-0.190164 -0.0862139 0)
(-0.178104 -0.0902921 0)
(-0.16482 -0.093128 0)
(-0.150448 -0.0944426 0)
(-0.135134 -0.0939831 0)
(-0.119134 -0.0915641 0)
(-0.102739 -0.0870655 0)
(-0.086223 -0.0804151 0)
(-0.0701328 -0.0718326 0)
(-0.0550083 -0.0616978 0)
(-0.0411611 -0.050341 0)
(-0.0289252 -0.0382349 0)
(-0.018537 -0.0258956 0)
(-0.0101158 -0.0138346 0)
(-0.00365365 -0.00251162 0)
(0.000974071 0.00768819 0)
(0.00396377 0.0164361 0)
(0.00548871 0.0233717 0)
(0.00564848 0.0280339 0)
(0.00452445 0.0298043 0)
(0.0024939 0.0274198 0)
(7.6009e-05 0.0154421 0)
(0.00129799 -0.0142287 0)
(0.00374217 -0.0224319 0)
(0.00420349 -0.0202743 0)
(0.00348068 -0.0151653 0)
(0.00179117 -0.00920808 0)
(-0.000710175 -0.00314157 0)
(-0.00401953 0.0027418 0)
(-0.00819129 0.00831668 0)
(-0.0133193 0.0135754 0)
(-0.0195142 0.0186069 0)
(-0.0268835 0.0235705 0)
(-0.0355129 0.0286514 0)
(-0.0454479 0.0340089 0)
(-0.0566783 0.0397285 0)
(-0.0691136 0.0458041 0)
(-0.0825938 0.0521095 0)
(-0.0968035 0.0584021 0)
(-0.111378 0.0644121 0)
(-0.125888 0.0697624 0)
(-0.139852 0.0741446 0)
(-0.152851 0.0773277 0)
(-0.164767 0.0792794 0)
(-0.175592 0.0800835 0)
(-0.185388 0.0798975 0)
(-0.194239 0.0788512 0)
(-0.202234 0.0770931 0)
(-0.209465 0.0747457 0)
(-0.215996 0.0719191 0)
(-0.221885 0.0686999 0)
(-0.227175 0.0651634 0)
(-0.231908 0.0613696 0)
(-0.236117 0.0573678 0)
(-0.239833 0.0532019 0)
(-0.243077 0.0489143 0)
(-0.245861 0.0445431 0)
(-0.248262 0.0400527 0)
(-0.250327 0.0354694 0)
(-0.252055 0.030815 0)
(-0.253464 0.0260863 0)
(-0.254517 0.0213686 0)
(-0.255248 0.0165487 0)
(-0.255656 0.0116499 0)
(-0.255756 0.00664836 0)
(-0.255555 0.00153178 0)
(-0.255064 -0.00371613 0)
(-0.25429 -0.00911366 0)
(-0.253225 -0.0146897 0)
(-0.251858 -0.0204655 0)
(-0.250173 -0.0264605 0)
(-0.248148 -0.0326827 0)
(-0.245748 -0.0391269 0)
(-0.24293 -0.0458679 0)
(-0.239688 -0.0529497 0)
(-0.235965 -0.0603124 0)
(-0.231693 -0.0679117 0)
(-0.226771 -0.0756916 0)
(-0.221046 -0.0833627 0)
(-0.214183 -0.090657 0)
(-0.205778 -0.0971741 0)
(-0.19566 -0.102518 0)
(-0.183941 -0.106564 0)
(-0.170814 -0.109049 0)
(-0.156294 -0.109592 0)
(-0.140623 -0.107918 0)
(-0.124095 -0.103862 0)
(-0.107006 -0.097266 0)
(-0.0897512 -0.0881935 0)
(-0.072996 -0.0770234 0)
(-0.0573515 -0.0642728 0)
(-0.0431828 -0.0504424 0)
(-0.0308536 -0.0361508 0)
(-0.0205955 -0.0220416 0)
(-0.0124933 -0.00872088 0)
(-0.0064757 0.00330469 0)
(-0.00232518 0.0136519 0)
(0.000242252 0.0219981 0)
(0.00145246 0.0279385 0)
(0.00149836 0.0308001 0)
(0.000701964 0.0289413 0)
(-0.000269714 0.016111 0)
(0.00123613 -0.0165484 0)
(0.00239782 -0.0232443 0)
(0.00157863 -0.0195179 0)
(-0.000352636 -0.013334 0)
(-0.00315192 -0.00654194 0)
(-0.00674457 0.000330998 0)
(-0.0111696 0.00706862 0)
(-0.0165137 0.0135858 0)
(-0.0228815 0.0198929 0)
(-0.0303745 0.026079 0)
(-0.0390747 0.0322838 0)
(-0.0490274 0.0386518 0)
(-0.0602207 0.04528 0)
(-0.0725806 0.0521889 0)
(-0.0859353 0.0592684 0)
(-0.0999426 0.0662725 0)
(-0.114253 0.0728813 0)
(-0.128395 0.0787233 0)
(-0.141835 0.0834467 0)
(-0.154321 0.0868609 0)
(-0.165717 0.0889395 0)
(-0.176037 0.0898161 0)
(-0.185343 0.0896137 0)
(-0.193731 0.0885035 0)
(-0.201287 0.0866228 0)
(-0.208093 0.0841125 0)
(-0.214216 0.0810787 0)
(-0.219703 0.0776187 0)
(-0.224599 0.0738101 0)
(-0.228939 0.0697218 0)
(-0.232761 0.0654106 0)
(-0.236094 0.0609262 0)
(-0.238963 0.056312 0)
(-0.241454 0.0515677 0)
(-0.243587 0.0467332 0)
(-0.245361 0.0418682 0)
(-0.246763 0.0369707 0)
(-0.247811 0.032028 0)
(-0.248537 0.0270392 0)
(-0.248979 0.0220059 0)
(-0.249178 0.0169068 0)
(-0.249153 0.0117459 0)
(-0.248929 0.00650254 0)
(-0.248523 0.00115848 0)
(-0.247955 -0.00431243 0)
(-0.247208 -0.00993594 0)
(-0.246292 -0.0157459 0)
(-0.245206 -0.0217748 0)
(-0.243949 -0.0280562 0)
(-0.242513 -0.0346167 0)
(-0.240879 -0.0414734 0)
(-0.239017 -0.0486312 0)
(-0.23689 -0.0560833 0)
(-0.234436 -0.0638084 0)
(-0.231574 -0.0717514 0)
(-0.228184 -0.079814 0)
(-0.224187 -0.0881344 0)
(-0.219536 -0.0965407 0)
(-0.214 -0.104787 0)
(-0.207251 -0.112266 0)
(-0.198627 -0.118364 0)
(-0.187672 -0.122352 0)
(-0.174837 -0.124328 0)
(-0.160253 -0.123871 0)
(-0.144267 -0.120792 0)
(-0.127101 -0.114778 0)
(-0.109223 -0.105831 0)
(-0.0911192 -0.0940832 0)
(-0.0736096 -0.0801207 0)
(-0.0574054 -0.0646834 0)
(-0.0429397 -0.0484241 0)
(-0.0305945 -0.0321261 0)
(-0.0205857 -0.0165632 0)
(-0.012939 -0.00241931 0)
(-0.00748926 0.00977297 0)
(-0.00389971 0.0196399 0)
(-0.00178813 0.0268409 0)
(-0.000798272 0.030624 0)
(-0.000525286 0.0292142 0)
(-0.000362731 0.0159361 0)
(0.0010207 -0.0179315 0)
(0.000762128 -0.022698 0)
(-0.00136941 -0.0174788 0)
(-0.00445586 -0.0103667 0)
(-0.0083569 -0.00277575 0)
(-0.013045 0.00491275 0)
(-0.0185868 0.0125435 0)
(-0.0250845 0.0200539 0)
(-0.0326367 0.0274533 0)
(-0.0413209 0.0348128 0)
(-0.0511805 0.0422358 0)
(-0.0622056 0.0498097 0)
(-0.0743386 0.0575702 0)
(-0.0874225 0.0654352 0)
(-0.101115 0.0731555 0)
(-0.11504 0.0803942 0)
(-0.128748 0.086778 0)
(-0.141739 0.0919229 0)
(-0.153773 0.095666 0)
(-0.164739 0.0980058 0)
(-0.174622 0.099027 0)
(-0.18351 0.0989016 0)
(-0.191481 0.0977903 0)
(-0.19863 0.0958555 0)
(-0.205022 0.0932287 0)
(-0.210723 0.0900325 0)
(-0.215776 0.0863621 0)
(-0.220223 0.0823067 0)
(-0.224103 0.0779396 0)
(-0.227454 0.0733273 0)
(-0.230313 0.0685252 0)
(-0.232719 0.0635815 0)
(-0.234718 0.0585336 0)
(-0.236304 0.0534319 0)
(-0.237526 0.048276 0)
(-0.238412 0.0430851 0)
(-0.239006 0.0378643 0)
(-0.239368 0.0326251 0)
(-0.239534 0.0273752 0)
(-0.239504 0.0221146 0)
(-0.239311 0.0168241 0)
(-0.23897 0.0114945 0)
(-0.238502 0.00610303 0)
(-0.23792 0.000626312 0)
(-0.237236 -0.00496536 0)
(-0.236457 -0.0107001 0)
(-0.235599 -0.016611 0)
(-0.234671 -0.0227322 0)
(-0.233683 -0.0290999 0)
(-0.23264 -0.0357492 0)
(-0.231537 -0.0427141 0)
(-0.230367 -0.0500267 0)
(-0.229111 -0.0577089 0)
(-0.227734 -0.0657658 0)
(-0.226174 -0.0741749 0)
(-0.224336 -0.0828692 0)
(-0.222107 -0.0917332 0)
(-0.219339 -0.100618 0)
(-0.215811 -0.10931 0)
(-0.211415 -0.118004 0)
(-0.205941 -0.126165 0)
(-0.198866 -0.132954 0)
(-0.189256 -0.137357 0)
(-0.176793 -0.138615 0)
(-0.162302 -0.137149 0)
(-0.145886 -0.132383 0)
(-0.128009 -0.124181 0)
(-0.109225 -0.112619 0)
(-0.0901591 -0.0979566 0)
(-0.071845 -0.0810657 0)
(-0.0551056 -0.0629212 0)
(-0.0404366 -0.044356 0)
(-0.028226 -0.0263326 0)
(-0.0186445 -0.00974304 0)
(-0.011634 0.00465793 0)
(-0.00688824 0.0163308 0)
(-0.0038943 0.0249021 0)
(-0.00218509 0.0294989 0)
(-0.00112442 0.028571 0)
(-0.000316219 0.0153325 0)
(0.000737833 -0.0183352 0)
(-0.00106506 -0.0207724 0)
(-0.00444308 -0.0142398 0)
(-0.00864354 -0.00627325 0)
(-0.0136324 0.00208409 0)
(-0.0193935 0.0105905 0)
(-0.0260146 0.0191344 0)
(-0.0335979 0.0276553 0)
(-0.042223 0.0361428 0)
(-0.051933 0.0446337 0)
(-0.0627219 0.053181 0)
(-0.0745436 0.0618178 0)
(-0.0872661 0.0704884 0)
(-0.100574 0.0789496 0)
(-0.114074 0.0868603 0)
(-0.127337 0.0938442 0)
(-0.139933 0.0995322 0)
(-0.151583 0.103727 0)
(-0.162178 0.106421 0)
(-0.171699 0.107695 0)
(-0.180213 0.107722 0)
(-0.187814 0.106686 0)
(-0.194572 0.104747 0)
(-0.20056 0.102052 0)
(-0.205826 0.0987217 0)
(-0.210418 0.0948668 0)
(-0.214376 0.0905791 0)
(-0.217743 0.0859452 0)
(-0.22056 0.0810397 0)
(-0.222874 0.0759298 0)
(-0.224729 0.0706719 0)
(-0.22617 0.0653132 0)
(-0.227244 0.0598901 0)
(-0.227991 0.0544343 0)
(-0.228461 0.0489649 0)
(-0.228694 0.0435031 0)
(-0.228728 0.0380584 0)
(-0.228595 0.0326328 0)
(-0.228318 0.0272218 0)
(-0.227916 0.0218192 0)
(-0.22741 0.0164085 0)
(-0.226812 0.0109735 0)
(-0.226141 0.00549132 0)
(-0.225409 -6.22171e-05 0)
(-0.224629 -0.00571504 0)
(-0.223813 -0.0114972 0)
(-0.222977 -0.0174419 0)
(-0.222136 -0.0235837 0)
(-0.221304 -0.0299589 0)
(-0.220495 -0.0366043 0)
(-0.219718 -0.0435575 0)
(-0.218982 -0.0508558 0)
(-0.218287 -0.0585324 0)
(-0.217625 -0.0666121 0)
(-0.216968 -0.0751071 0)
(-0.216261 -0.0840124 0)
(-0.215422 -0.0932925 0)
(-0.214321 -0.102839 0)
(-0.212771 -0.112455 0)
(-0.210547 -0.121848 0)
(-0.207352 -0.130702 0)
(-0.202936 -0.13912 0)
(-0.196995 -0.146351 0)
(-0.188717 -0.151119 0)
(-0.176868 -0.151911 0)
(-0.162375 -0.149216 0)
(-0.145448 -0.142564 0)
(-0.126748 -0.131949 0)
(-0.106918 -0.117477 0)
(-0.0868377 -0.0996956 0)
(-0.0677378 -0.0797776 0)
(-0.0505733 -0.0589758 0)
(-0.0358905 -0.0383362 0)
(-0.0240476 -0.0190006 0)
(-0.0151291 -0.00197785 0)
(-0.00894793 0.0119309 0)
(-0.00495994 0.0221711 0)
(-0.002641 0.0277328 0)
(-0.00111428 0.0274067 0)
(-0.000130866 0.0145915 0)
(0.00019828 -0.017655 0)
(-0.00299437 -0.0175398 0)
(-0.00751456 -0.00981352 0)
(-0.0127791 -0.00108705 0)
(-0.0188096 0.00800007 0)
(-0.0255877 0.0173141 0)
(-0.0332095 0.0267652 0)
(-0.0417667 0.0362747 0)
(-0.0513102 0.0457969 0)
(-0.0618405 0.0553217 0)
(-0.0733192 0.064853 0)
(-0.0856394 0.0743505 0)
(-0.0985262 0.0835864 0)
(-0.111597 0.0922217 0)
(-0.12444 0.0998805 0)
(-0.136678 0.106215 0)
(-0.148014 0.110989 0)
(-0.158296 0.114144 0)
(-0.167515 0.115776 0)
(-0.175713 0.116046 0)
(-0.182978 0.115153 0)
(-0.189382 0.113268 0)
(-0.194982 0.110544 0)
(-0.19983 0.107114 0)
(-0.20397 0.103094 0)
(-0.207449 0.0985907 0)
(-0.210314 0.0936992 0)
(-0.212619 0.0885086 0)
(-0.214419 0.0830961 0)
(-0.215773 0.0775303 0)
(-0.216735 0.0718675 0)
(-0.217362 0.0661535 0)
(-0.217705 0.0604235 0)
(-0.217812 0.0547065 0)
(-0.217726 0.0490214 0)
(-0.217479 0.0433817 0)
(-0.217102 0.0377896 0)
(-0.216616 0.0322407 0)
(-0.21604 0.0267271 0)
(-0.215389 0.0212376 0)
(-0.214678 0.015755 0)
(-0.213917 0.0102609 0)
(-0.21312 0.00473253 0)
(-0.212298 -0.000853973 0)
(-0.211462 -0.00652449 0)
(-0.210624 -0.0123107 0)
(-0.209801 -0.0182441 0)
(-0.209007 -0.0243586 0)
(-0.208261 -0.0306901 0)
(-0.207581 -0.0372759 0)
(-0.206984 -0.0441552 0)
(-0.206488 -0.0513673 0)
(-0.206109 -0.0589497 0)
(-0.205854 -0.0669356 0)
(-0.205722 -0.0753506 0)
(-0.205695 -0.084211 0)
(-0.205733 -0.093516 0)
(-0.20576 -0.103233 0)
(-0.205646 -0.113283 0)
(-0.205201 -0.123509 0)
(-0.204151 -0.13359 0)
(-0.202159 -0.143064 0)
(-0.198786 -0.151453 0)
(-0.193702 -0.158803 0)
(-0.186268 -0.1636 0)
(-0.175089 -0.164043 0)
(-0.16046 -0.159941 0)
(-0.142947 -0.151252 0)
(-0.123255 -0.137881 0)
(-0.102301 -0.120234 0)
(-0.0812154 -0.0991349 0)
(-0.06145 -0.0761429 0)
(-0.0440954 -0.0528424 0)
(-0.0297014 -0.0305119 0)
(-0.0185412 -0.0104715 0)
(-0.010579 0.00616747 0)
(-0.00536845 0.0185557 0)
(-0.00237477 0.0255444 0)
(-0.000646254 0.0261304 0)
(0.000127899 0.0141203 0)
(-0.00035566 -0.015749 0)
(-0.00489528 -0.0130277 0)
(-0.0104671 -0.00427849 0)
(-0.0167289 0.00512625 0)
(-0.0237293 0.0149027 0)
(-0.0314388 0.0249982 0)
(-0.0399514 0.0353216 0)
(-0.04934 0.0457604 0)
(-0.0596206 0.0562217 0)
(-0.0707619 0.0666459 0)
(-0.0826765 0.0769815 0)
(-0.0951335 0.0870155 0)
(-0.107783 0.096427 0)
(-0.120243 0.104839 0)
(-0.132162 0.111912 0)
(-0.143244 0.117384 0)
(-0.153287 0.121129 0)
(-0.162261 0.123226 0)
(-0.170206 0.12384 0)
(-0.177187 0.123167 0)
(-0.183279 0.121399 0)
(-0.188535 0.118696 0)
(-0.193005 0.115204 0)
(-0.196737 0.11105 0)
(-0.199782 0.106355 0)
(-0.202199 0.101229 0)
(-0.204052 0.0957724 0)
(-0.205408 0.0900785 0)
(-0.206336 0.0842258 0)
(-0.206902 0.0782811 0)
(-0.207165 0.072298 0)
(-0.207183 0.0663177 0)
(-0.207003 0.0603708 0)
(-0.206667 0.054479 0)
(-0.206209 0.0486542 0)
(-0.205652 0.0429011 0)
(-0.205019 0.0372171 0)
(-0.204325 0.0315945 0)
(-0.203582 0.0260213 0)
(-0.202799 0.0204837 0)
(-0.201986 0.0149638 0)
(-0.201151 0.00944206 0)
(-0.2003 0.00389622 0)
(-0.199443 -0.00169726 0)
(-0.198589 -0.00736357 0)
(-0.197749 -0.0131317 0)
(-0.196937 -0.0190314 0)
(-0.196169 -0.0250948 0)
(-0.195464 -0.0313557 0)
(-0.194843 -0.0378505 0)
(-0.194328 -0.0446174 0)
(-0.193943 -0.0516964 0)
(-0.193712 -0.0591279 0)
(-0.193656 -0.066951 0)
(-0.193789 -0.0752016 0)
(-0.194115 -0.0839089 0)
(-0.194624 -0.0930892 0)
(-0.19528 -0.102739 0)
(-0.196015 -0.112825 0)
(-0.196709 -0.123275 0)
(-0.197167 -0.13394 0)
(-0.197102 -0.144554 0)
(-0.196119 -0.154613 0)
(-0.193731 -0.163415 0)
(-0.189318 -0.170519 0)
(-0.182369 -0.17512 0)
(-0.171515 -0.174873 0)
(-0.156635 -0.169317 0)
(-0.138345 -0.158231 0)
(-0.117537 -0.141767 0)
(-0.0954306 -0.120639 0)
(-0.0734432 -0.0960383 0)
(-0.0532868 -0.0700182 0)
(-0.0361264 -0.0445499 0)
(-0.0224531 -0.0211315 0)
(-0.0124032 -0.00126072 0)
(-0.00569433 0.0138796 0)
(-0.00186879 0.0229473 0)
(3.4691e-05 0.0249619 0)
(0.000403432 0.0141415 0)
(-0.000917177 -0.0127144 0)
(-0.0066822 -0.00735731 0)
(-0.0132048 0.00227991 0)
(-0.0203773 0.0122855 0)
(-0.0282551 0.0227011 0)
(-0.0367858 0.0335311 0)
(-0.0460561 0.0446648 0)
(-0.0561149 0.0559424 0)
(-0.0669464 0.0672168 0)
(-0.0784792 0.0783816 0)
(-0.0905196 0.0892192 0)
(-0.102769 0.0994414 0)
(-0.114886 0.108676 0)
(-0.126528 0.116572 0)
(-0.137404 0.122848 0)
(-0.147282 0.127316 0)
(-0.156083 0.13 0)
(-0.163838 0.131065 0)
(-0.170603 0.130707 0)
(-0.176443 0.129129 0)
(-0.181417 0.12651 0)
(-0.185571 0.123005 0)
(-0.18896 0.11876 0)
(-0.191642 0.113909 0)
(-0.193686 0.108578 0)
(-0.195166 0.102886 0)
(-0.196161 0.0969369 0)
(-0.196748 0.090823 0)
(-0.197 0.08462 0)
(-0.196983 0.0783891 0)
(-0.196754 0.0721768 0)
(-0.196364 0.0660167 0)
(-0.195851 0.0599312 0)
(-0.195248 0.0539334 0)
(-0.194578 0.0480277 0)
(-0.19386 0.0422123 0)
(-0.193104 0.0364798 0)
(-0.192321 0.0308196 0)
(-0.191517 0.0252182 0)
(-0.190696 0.0196584 0)
(-0.189862 0.0141216 0)
(-0.189018 0.00858908 0)
(-0.188169 0.00303901 0)
(-0.18732 -0.00255116 0)
(-0.186477 -0.00820521 0)
(-0.18565 -0.0139491 0)
(-0.184852 -0.0198099 0)
(-0.184098 -0.0258169 0)
(-0.183407 -0.0320009 0)
(-0.182799 -0.0383955 0)
(-0.182301 -0.0450368 0)
(-0.18194 -0.0519632 0)
(-0.181746 -0.0592155 0)
(-0.181747 -0.0668357 0)
(-0.18197 -0.0748662 0)
(-0.182435 -0.0833469 0)
(-0.183151 -0.0923109 0)
(-0.184111 -0.101778 0)
(-0.185279 -0.111748 0)
(-0.186588 -0.122183 0)
(-0.187913 -0.133 0)
(-0.189062 -0.144043 0)
(-0.189736 -0.155049 0)
(-0.189513 -0.165559 0)
(-0.187836 -0.174767 0)
(-0.183983 -0.181741 0)
(-0.177237 -0.185829 0)
(-0.166325 -0.184584 0)
(-0.150934 -0.177184 0)
(-0.131647 -0.163265 0)
(-0.109633 -0.143294 0)
(-0.0864202 -0.118331 0)
(-0.0637913 -0.0900934 0)
(-0.0436981 -0.0612932 0)
(-0.0273108 -0.0341951 0)
(-0.0149357 -0.0105938 0)
(-0.00648328 0.00792009 0)
(-0.0016057 0.019798 0)
(0.000614458 0.0238844 0)
(0.000601556 0.0145717 0)
(-0.00145312 -0.00860746 0)
(-0.00829544 -0.000644701 0)
(-0.0156578 0.00975967 0)
(-0.0236389 0.0202896 0)
(-0.0322797 0.0312838 0)
(-0.0415029 0.0427838 0)
(-0.051384 0.0546422 0)
(-0.0619436 0.0666434 0)
(-0.0731324 0.0785883 0)
(-0.0847844 0.0902167 0)
(-0.0966646 0.101258 0)
(-0.108475 0.111362 0)
(-0.11988 0.120153 0)
(-0.130598 0.127326 0)
(-0.140375 0.132641 0)
(-0.149084 0.136051 0)
(-0.156723 0.137685 0)
(-0.163347 0.137749 0)
(-0.169012 0.136453 0)
(-0.173776 0.133991 0)
(-0.177693 0.130539 0)
(-0.180818 0.126255 0)
(-0.18322 0.121294 0)
(-0.184975 0.115799 0)
(-0.186167 0.109904 0)
(-0.186885 0.103731 0)
(-0.187213 0.0973816 0)
(-0.187231 0.0909437 0)
(-0.187008 0.0844854 0)
(-0.186604 0.0780584 0)
(-0.186069 0.0716995 0)
(-0.185443 0.0654329 0)
(-0.184755 0.0592718 0)
(-0.184027 0.0532214 0)
(-0.183275 0.0472796 0)
(-0.182507 0.0414393 0)
(-0.181731 0.0356894 0)
(-0.180947 0.0300159 0)
(-0.180158 0.0244037 0)
(-0.179365 0.0188362 0)
(-0.178564 0.0132925 0)
(-0.177758 0.0077544 0)
(-0.176947 0.00220289 0)
(-0.176135 -0.0033841 0)
(-0.175324 -0.00902795 0)
(-0.174524 -0.0147517 0)
(-0.173745 -0.0205793 0)
(-0.173 -0.0265364 0)
(-0.172307 -0.0326504 0)
(-0.171688 -0.0389511 0)
(-0.171168 -0.0454708 0)
(-0.170776 -0.0522453 0)
(-0.170545 -0.0593134 0)
(-0.170508 -0.0667173 0)
(-0.170702 -0.0745019 0)
(-0.171157 -0.0827136 0)
(-0.171899 -0.0913972 0)
(-0.172941 -0.100592 0)
(-0.174276 -0.110325 0)
(-0.17587 -0.120598 0)