/*--------------------------------*- C++ -*----------------------------------*\
  =========                 |
  \\      /  F ield         | OpenFOAM: The Open Source CFD Toolbox
   \\    /   O peration     | Website:  https://openfoam.org
    \\  /    A nd           | Version:  13
     \\/     M anipulation  |
\*---------------------------------------------------------------------------*/
FoamFile
{
    format      ascii;
    class       volScalarField;
    location    "3.4";
    object      epsilon;
}
// * * * * * * * * * * * * * * * * * * * * * * * * * * * * * * * * * * * * * //

dimensions      [0 2 -3 0 0 0 0];

internalField   nonuniform List<scalar> 
6400
(
2.09464e-05
0.000106278
0.000249486
0.000399568
0.000520674
0.00060156
0.000649052
0.000679015
0.000708849
0.000754777
0.000829472
0.00094252
0.00110133
0.00130939
0.00156056
0.00184638
0.00216047
0.00249535
0.00283943
0.00318503
0.00353437
0.00390778
0.004337
0.0048497
0.00545012
0.00610478
0.00676018
0.00742238
0.0080984
0.00880351
0.00954369
0.0103047
0.0110507
0.0117854
0.0125039
0.0132257
0.013955
0.0147069
0.0154881
0.0163093
0.0171752
0.0180924
0.019069
0.0201104
0.0212164
0.0223901
0.0236489
0.025046
0.0266854
0.0287294
0.0306615
0.0326676
0.0346001
0.0364579
0.0381588
0.0396431
0.040834
0.041527
0.0418282
0.0418633
0.0411333
0.039729
0.0376491
0.0349441
0.0316949
0.0280186
0.0240898
0.0201295
0.0163061
0.0127237
0.00957835
0.00706254
0.00500179
0.00338753
0.00219814
0.00136702
0.000812591
0.0004521
0.000205775
4.33071e-05
0.000101737
9.68761e-05
0.000153026
0.000220102
0.000275242
0.00031518
0.000343168
0.000365357
0.000389201
0.000423372
0.00047625
0.000556015
0.000670813
0.000827601
0.00103036
0.00128263
0.00158879
0.00195372
0.00238212
0.0028809
0.00346157
0.00413209
0.00492018
0.00585165
0.00692739
0.00812906
0.009473
0.0108587
0.0122205
0.0134985
0.0146185
0.0155342
0.0162667
0.0168177
0.0172259
0.0175203
0.0177321
0.0178915
0.0180222
0.0181433
0.0182715
0.0184263
0.018616
0.0188248
0.0190493
0.0193012
0.0196133
0.0199937
0.0204303
0.0209349
0.0214753
0.0220393
0.0226135
0.0231657
0.0236734
0.0240986
0.0243575
0.0244512
0.0243929
0.0241099
0.0235179
0.0226259
0.0214134
0.01989
0.018104
0.0161164
0.0140187
0.0119063
0.00987217
0.00798744
0.00632963
0.00494102
0.00376474
0.00277286
0.00195428
0.00130082
0.000802488
0.000448559
0.000228984
0.000225929
0.00022243
0.000169709
0.000214895
0.000267812
0.000307039
0.000335748
0.000360737
0.000389553
0.000430817
0.000495117
0.000594126
0.000741528
0.000951143
0.00123515
0.00160391
0.00206905
0.00264076
0.00332891
0.00414061
0.00508012
0.00614857
0.00734397
0.00863524
0.00995613
0.0112123
0.012295
0.013086
0.013631
0.0139954
0.0142421
0.0144515
0.0145688
0.0145896
0.0144552
0.0143076
0.0141434
0.0139926
0.0138659
0.01379
0.0137605
0.0137594
0.0138334
0.0139541
0.0141559
0.0144415
0.0148096
0.015239
0.0157336
0.0162855
0.0168927
0.0175469
0.0182373
0.0189529
0.0196745
0.0203802
0.0210372
0.0216082
0.0220527
0.0222695
0.0223162
0.0220956
0.0215375
0.020617
0.0193436
0.0177694
0.0159578
0.0139907
0.0119692
0.00998732
0.00813083
0.00647008
0.00504717
0.00386403
0.00289998
0.00212539
0.00150684
0.0010154
0.000633191
0.000395113
0.000582394
0.000381147
0.00028466
0.000331343
0.000381872
0.000418249
0.000448789
0.000483943
0.000535064
0.000615354
0.000740902
0.00093199
0.00120983
0.001594
0.00210022
0.00274003
0.00352087
0.00444625
0.00550816
0.00668214
0.00792339
0.00916822
0.0103367
0.0113415
0.0121002
0.0125626
0.0127886
0.0128816
0.0129017
0.0127441
0.0124433
0.0120964
0.0116964
0.0113952
0.0111587
0.0109572
0.0108076
0.0107256
0.0106947
0.0106954
0.0107783
0.0109074
0.011102
0.0113525
0.0116666
0.0120404
0.0124739
0.0129653
0.0135168
0.0141268
0.0147947
0.0155176
0.0162896
0.0171032
0.0179448
0.0187959
0.0196295
0.0204111
0.0210985
0.0216399
0.0219138
0.0219865
0.0217476
0.0211869
0.0202411
0.0188425
0.0171192
0.0151427
0.0130258
0.0108871
0.00884386
0.00699419
0.00540302
0.00409371
0.00305506
0.00225025
0.00163331
0.0011562
0.000786845
0.000568263
0.000931629
0.00059695
0.000440155
0.000483776
0.000535477
0.000578416
0.000623392
0.00068465
0.000779157
0.000927678
0.0011553
0.00148977
0.00195695
0.00257572
0.00335505
0.00429316
0.00537547
0.00657015
0.00782137
0.00904891
0.0101547
0.0110499
0.0116368
0.0119142
0.0120097
0.012015
0.0117601
0.011307
0.0108082
0.0103325
0.00993687
0.00957079
0.00926827
0.00903986
0.00886597
0.00874898
0.00869305
0.00867543
0.00869559
0.00877243
0.00889319
0.00905642
0.00926457
0.00951566
0.00981208
0.0101541
0.0105441
0.0109846
0.0114788
0.0120292
0.0126385
0.013309
0.0140411
0.0148332
0.0156807
0.0165749
0.0175009
0.0184325
0.0193365
0.0201688
0.0208698
0.0213182
0.0214892
0.0213673
0.0208468
0.0199388
0.0184702
0.016601
0.0144524
0.0121604
0.00987887
0.00775587
0.00590495
0.0043862
0.00320339
0.00231777
0.00166912
0.00119387
0.000849987
0.000677067
0.00115588
0.000893903
0.000641704
0.000674647
0.000732
0.000792148
0.000865965
0.00097247
0.00113613
0.00138663
0.00175704
0.00227867
0.00297341
0.00384707
0.00488584
0.00605487
0.00729646
0.00852866
0.00964856
0.0105544
0.01112
0.0113688
0.0114378
0.0113174
0.0109349
0.0103614
0.00976829
0.00925164
0.00877194
0.00836871
0.00803387
0.00775672
0.00754333
0.00738344
0.00726977
0.00720667
0.00718002
0.00717502
0.00720809
0.00727482
0.00736886
0.00749197
0.00764339
0.00782365
0.00803422
0.00827705
0.00855528
0.00887283
0.00923455
0.00964624
0.0101144
0.0106461
0.0112487
0.0119281
0.012689
0.0135331
0.014458
0.0154566
0.0165089
0.0175898
0.0186488
0.0196198
0.0204218
0.0208399
0.0209548
0.0206303
0.0198348
0.0183063
0.0162977
0.013942
0.0114241
0.00895654
0.00673212
0.00488146
0.00345104
0.00241197
0.00168689
0.00118776
0.000854445
0.000721541
0.00123574
0.0012955
0.000894386
0.000911797
0.000981207
0.00107114
0.00118988
0.00136289
0.00162293
0.00200709
0.00255108
0.00328006
0.00419864
0.00528426
0.00648507
0.00772173
0.00889277
0.00988514
0.0105669
0.0108787
0.0109683
0.010856
0.0104374
0.00981338
0.00916684
0.00857102
0.00803514
0.00758248
0.00719399
0.00687781
0.00661911
0.00641284
0.00625328
0.00613214
0.00604493
0.00598708
0.00595826
0.00594784
0.0059518
0.00598268
0.00602878
0.00609301
0.00617448
0.00627448
0.00639422
0.00653581
0.00670204
0.00689648
0.00712383
0.00738993
0.00770187
0.00806815
0.00849921
0.00900836
0.00960879
0.0103144
0.0111377
0.0120894
0.0131693
0.0143662
0.0156637
0.0170138
0.0183487
0.0195607
0.0204315
0.0208023
0.0208241
0.020114
0.0185321
0.0163223
0.0136687
0.0108395
0.00812995
0.00578723
0.00395013
0.00263144
0.00175096
0.00118842
0.000842643
0.000720563
0.00121199
0.0018232
0.00120169
0.00120161
0.00129482
0.00142699
0.00160687
0.0018666
0.00224555
0.00278291
0.0035074
0.00442529
0.00551057
0.0067014
0.00790357
0.00900134
0.0098761
0.0103548
0.0105251
0.0105308
0.010189
0.00956575
0.00886908
0.00820925
0.00760906
0.00709127
0.00665057
0.00628445
0.00597937
0.00573103
0.00552783
0.00536457
0.0052344
0.00513199
0.00505353
0.00499523
0.00495459
0.0049313
0.00492165
0.00492049
0.00493516
0.00496147
0.00500041
0.00505234
0.00511847
0.00520026
0.00529988
0.00541984
0.00556351
0.00573502
0.0059395
0.00618339
0.0064748
0.00682482
0.0072468
0.00775826
0.00838072
0.00913725
0.0100571
0.0111605
0.0124604
0.0139445
0.0155769
0.0172892
0.018951
0.0203702
0.0211367
0.0213907
0.0208247
0.01913
0.0166143
0.0135508
0.0103268
0.00734263
0.00489725
0.0031119
0.00193908
0.0012323
0.000839973
0.000707933
0.00115688
0.00249262
0.00156675
0.00155149
0.00168111
0.00186697
0.002122
0.00248305
0.0029915
0.00368019
0.00455958
0.00560577
0.00675467
0.00790557
0.00893487
0.00970346
0.0100717
0.0101831
0.0100387
0.00953288
0.00881835
0.00810892
0.00743531
0.00684669
0.00634051
0.00591637
0.00556246
0.00526964
0.00502713
0.00482808
0.00466442
0.00453133
0.00442362
0.0043377
0.0042705
0.00421948
0.00418281
0.00416005
0.00414949
0.00414665
0.00415507
0.00417459
0.00420416
0.00424441
0.00429602
0.00436
0.00443777
0.00453097
0.0046418
0.00477291
0.00492758
0.00510984
0.00532461
0.0055771
0.00587521
0.00622912
0.00665428
0.00717498
0.00782287
0.00864025
0.00968024
0.0109848
0.0125777
0.0144448
0.0165142
0.0186524
0.0206055
0.0218334
0.0223186
0.0218753
0.01997
0.0170193
0.0134347
0.0097628
0.00652132
0.00403608
0.00236768
0.00138028
0.000870049
0.000702281
0.00112343
0.00331253
0.00199455
0.0019697
0.00214208
0.00239167
0.00273058
0.00319711
0.00382802
0.00464041
0.00561713
0.00669869
0.00778527
0.00875083
0.00943399
0.00974159
0.00982128
0.00956319
0.0089607
0.00822606
0.00748906
0.00682179
0.006236
0.00574308
0.00532964
0.00498713
0.00470313
0.00446857
0.0042751
0.00411663
0.00398751
0.00388375
0.00380154
0.00373809
0.0036909
0.00365781
0.00363931
0.00363157
0.00363032
0.00364029
0.00365938
0.00368722
0.00372371
0.00376924
0.00382433
0.00388976
0.00396657
0.00405589
0.00415927
0.00427844
0.00441548
0.00457281
0.00475333
0.00496065
0.00519941
0.00547577
0.00579695
0.00617318
0.00661992
0.00716259
0.00784473
0.0087461
0.00996359
0.0115827
0.0136099
0.0160091
0.0186298
0.0211491
0.0228417
0.0235331
0.0231351
0.0208763
0.0173415
0.0131429
0.00902613
0.00561333
0.00319727
0.00172407
0.000976075
0.000721572
0.00113812
0.0043101
0.00249718
0.00245795
0.00267659
0.00299419
0.00341706
0.00397958
0.00470647
0.00559156
0.00658587
0.00759721
0.00850291
0.00913331
0.00940696
0.00946192
0.00913266
0.00849193
0.00775014
0.00700466
0.00633147
0.00575293
0.00526499
0.00486129
0.00452678
0.00425154
0.0040251
0.00384
0.00368981
0.00356949
0.00347464
0.00340173
0.00334756
0.00330943
0.00328623
0.0032756
0.00327273
0.00327799
0.00329235
0.00331431
0.00334331
0.00337938
0.00342267
0.00347366
0.00353301
0.00360156
0.00368038
0.00377066
0.00387382
0.0039914
0.00412506
0.0042766
0.00444789
0.00464097
0.0048581
0.00510196
0.00537619
0.00568636
0.00604126
0.00645384
0.00694155
0.00753899
0.00830973
0.00937599
0.0109341
0.0130727
0.0157668
0.0188695
0.0219881
0.0241055
0.0249498
0.0244469
0.0216382
0.0173574
0.0124985
0.00802807
0.00460296
0.00239493
0.00122555
0.000794011
0.00122316
0.00550508
0.00308156
0.00301244
0.00327603
0.00365935
0.00415621
0.00479118
0.00557098
0.00646267
0.00738799
0.00823327
0.00883111
0.00908714
0.00912659
0.00877905
0.00813176
0.00737979
0.00663089
0.00595147
0.0053713
0.00488726
0.00448747
0.00415993
0.00389157
0.00367339
0.00349703
0.00335633
0.00324586
0.0031611
0.00309805
0.00305322
0.00302343
0.00300853
0.00300283
0.0030024
0.00301122
0.00302583
0.00304657
0.00307261
0.00310409
0.00314131
0.00318481
0.00323534
0.00329384
0.00336144
0.00343941
0.00352918
0.00363233
0.00375052
0.00388549
0.00403897
0.00421266
0.0044081
0.00462664
0.00486934
0.00513716
0.00543126
0.00575388
0.00611013
0.00651082
0.00697458
0.0075253
0.00822158
0.00917936
0.010622
0.0128295
0.0157929
0.0193951
0.0231313
0.025566
0.0264631
0.0256162
0.0220016
0.0168285
0.0113606
0.00673663
0.00352178
0.00171359
0.000971142
0.00144722
0.00683987
0.00372931
0.00362142
0.0039253
0.00436521
0.00491634
0.00558865
0.00636779
0.00719571
0.00797371
0.0085455
0.0087924
0.00882943
0.00849382
0.00786465
0.00711068
0.00635375
0.00566617
0.0050784
0.00459181
0.00419311
0.00386844
0.00360554
0.00339375
0.00322518
0.0030928
0.00299098
0.00291462
0.0028593
0.00282098
0.0027964
0.00278424
0.00277958
0.00277897
0.00278454
0.00279512
0.00280938
0.00282767
0.00284992
0.0028767
0.00290866
0.00294668
0.00299179
0.00304518
0.0031082
0.0031823
0.00326911
0.00337041
0.00348806
0.00362404
0.00378037
0.003959
0.00416171
0.00438992
0.00464449
0.00492553
0.00523232
0.00556358
0.00591818
0.00629711
0.00670722
0.00716635
0.00769733
0.00835177
0.00924619
0.0106097
0.0128641
0.0161231
0.0202513
0.0246073
0.0271425
0.0279388
0.0263924
0.0216771
0.015545
0.00967221
0.00521246
0.00251483
0.00132107
0.00188162
0.00827854
0.00442664
0.00426965
0.00460461
0.0050855
0.0056633
0.00633039
0.00705163
0.00774957
0.00829105
0.00853514
0.00858054
0.00827581
0.00767951
0.00693362
0.0061671
0.00546502
0.00486393
0.00436794
0.00396511
0.00363981
0.00337882
0.00317116
0.00300781
0.00288151
0.00278577
0.00271505
0.00266433
0.00262917
0.00260583
0.00259137
0.00258376
0.00258025
0.00257924
0.00258119
0.00258617
0.00259353
0.00260387
0.00261785
0.00263618
0.00265986
0.00268989
0.00272745
0.00277383
0.00283043
0.00289878
0.00298059
0.00307774
0.00319229
0.00332647
0.00348269
0.00366339
0.00387098
0.0041076
0.00437482
0.00467333
0.00500247
0.00535999
0.00574203
0.00614382
0.00656159
0.00699753
0.00746779
0.00799752
0.00863475
0.00950507
0.0108679
0.0131939
0.0168046
0.0215318
0.0263943
0.0287362
0.0292515
0.0264699
0.0203616
0.0134059
0.00753318
0.00368513
0.00185823
0.00249493
0.0097772
0.00515637
0.00493854
0.00529124
0.00579237
0.0063645
0.00698156
0.00759107
0.00809569
0.00833879
0.00838805
0.00812687
0.00756979
0.00684115
0.00606609
0.00534335
0.00472107
0.00420844
0.00379489
0.00346409
0.00320112
0.00299403
0.00283295
0.00270966
0.00261709
0.00254896
0.00249974
0.00246458
0.00243948
0.00242136
0.00240782
0.00239717
0.00238811
0.00238038
0.00237424
0.00237041
0.00236889
0.00236927
0.00237419
0.0023836
0.00239899
0.00242115
0.00245127
0.00249056
0.00254035
0.00260211
0.00267751
0.00276845
0.00287708
0.00300584
0.00315744
0.00333488
0.00354129
0.00377979
0.0040532
0.00436359
0.00471173
0.00509643
0.00551392
0.00595761
0.00641865
0.00688795
0.00736192
0.00785493
0.00839538
0.00903317
0.00991077
0.0113216
0.0138217
0.0178975
0.0233668
0.0283733
0.0303578
0.0302394
0.0254063
0.0178679
0.0105313
0.00526637
0.00260029
0.00325419
0.0112831
0.00589839
0.00560769
0.00596164
0.00645952
0.006993
0.00751949
0.00797533
0.00821263
0.00825762
0.00804801
0.0075326
0.0068279
0.00604776
0.00529964
0.00464736
0.00410918
0.00367727
0.00333477
0.00306505
0.0028545
0.00269215
0.00256877
0.00247645
0.00240824
0.00235805
0.00232067
0.00229189
0.00226853
0.0022483
0.00222967
0.0022118
0.00219442
0.00217784
0.00216258
0.00214924
0.00213837
0.00213195
0.00212965
0.00213106
0.00213978
0.00215563
0.00217955
0.00221263
0.00225603
0.0023111
0.00237938
0.00246267
0.00256312
0.00268325
0.00282599
0.00299471
0.00319317
0.00342546
0.0036957
0.00400771
0.00436439
0.00476687
0.00521355
0.005699
0.00621344
0.00674316
0.00727296
0.00779298
0.00831674
0.00887505
0.00952787
0.0104401
0.0119645
0.0147673
0.0194139
0.0256966
0.0305074
0.0319938
0.0300533
0.0228834
0.014253
0.00732309
0.00356497
0.00411112
0.0127521
0.00663262
0.00625703
0.00659394
0.00706479
0.00752972
0.00793228
0.00815407
0.00819451
0.0080343
0.00756701
0.00689084
0.00611036
0.00533485
0.00464385
0.00406968
0.00361006
0.00324835
0.00296604
0.00274745
0.00258003
0.0024534
0.00235867
0.00228814
0.00223517
0.00219419
0.00216076
0.00213161
0.00210456
0.00207822
0.00205197
0.00202574
0.00199992
0.00197513
0.00195212
0.00193166
0.00191457
0.00190174
0.00189489
0.00189255
0.00189564
0.00190717
0.00192641
0.00195447
0.0019923
0.00204103
0.00210206
0.00217706
0.00226804
0.00237748
0.00250836
0.00266422
0.00284923
0.00306815
0.00332623
0.00362891
0.00398134
0.00438759
0.0048494
0.0053648
0.00592642
0.00652042
0.00712677
0.00772235
0.00829014
0.00884525
0.00942523
0.0101031
0.0110932
0.0128301
0.0161624
0.0215814
0.0286678
0.0324668
0.0331094
0.0280667
0.0187165
0.00993498
0.00477915
0.00502027
0.0141457
0.00734056
0.00686797
0.00716929
0.00759112
0.0079627
0.00817734
0.00822319
0.00808149
0.00766901
0.00702869
0.00625321
0.00545135
0.00471465
0.00409297
0.00359434
0.00320413
0.00290213
0.00267012
0.00249346
0.0023603
0.00226065
0.00218592
0.00212886
0.00208346
0.00204504
0.00201022
0.00197679
0.00194354
0.00190997
0.00187617
0.00184265
0.00181011
0.00177936
0.00175119
0.00172638
0.00170565
0.00168964
0.00167995
0.00167594
0.0016757
0.00168435
0.00170029
0.00172443
0.00175752
0.00180053
0.00185466
0.0019214
0.0020026
0.00210058
0.00221819
0.00235895
0.00252715
0.00272788
0.00296709
0.00325145
0.00358803
0.00398367
0.00444389
0.00497131
0.00556351
0.0062107
0.00689377
0.00758436
0.00824874
0.0088608
0.00943073
0.0100261
0.0107636
0.0118876
0.0139965
0.0181559
0.0247557
0.0317295
0.0343541
0.0327348
0.0238055
0.0131992
0.00626548
0.00595331
0.0154481
0.00800729
0.00742531
0.00767338
0.00802863
0.00825915
0.00832071
0.00818797
0.00783832
0.00723816
0.00647629
0.00565203
0.00486591
0.00418555
0.0036346
0.00320436
0.00287379
0.00262183
0.00243113
0.00228787
0.0021807
0.00210002
0.0020378
0.00198751
0.00194411
0.00190404
0.00186501
0.00182585
0.00178619
0.00174623
0.00170654
0.00166791
0.00163116
0.00159709
0.00156643
0.00153982
0.00151778
0.00150079
0.00148981
0.00148481
0.00148376
0.00149028
0.00150393
0.00152497
0.00155407
0.00159203
0.00163986
0.00169887
0.00177071
0.00185748
0.0019618
0.002087
0.00223723
0.00241758
0.00263425
0.00289458
0.00320693
0.00358034
0.00402369
0.0045443
0.00514572
0.00582479
0.00656834
0.00735041
0.00813211
0.00886764
0.00952885
0.010099
0.010696
0.0115182
0.0128672
0.0155898
0.0208642
0.028914
0.034575
0.0356858
0.0291887
0.0172115
0.00805376
0.00692093
0.0166166
0.00861858
0.00791697
0.00809636
0.00835404
0.0084527
0.00836528
0.00806835
0.00751585
0.00677734
0.00593947
0.00510449
0.00435672
0.00373907
0.00325459
0.00288416
0.00260398
0.00239335
0.0022358
0.00211819
0.00202966
0.00196122
0.00190563
0.00185738
0.00181257
0.00176878
0.00172476
0.00168019
0.00163533
0.00159082
0.00154748
0.00150615
0.00146761
0.00143254
0.00140149
0.0013749
0.00135311
0.00133639
0.00132534
0.0013202
0.00131893
0.00132413
0.00133603
0.00135455
0.00138023
0.00141375
0.00145597
0.00150802
0.00157135
0.00164779
0.00173972
0.00185016
0.00198293
0.00214289
0.00233609
0.00257002
0.00285363
0.00319736
0.0036126
0.00411068
0.00470097
0.00538785
0.00616662
0.00701883
0.00790832
0.00878084
0.00957288
0.0102805
0.0108304
0.0114408
0.0123941
0.0141404
0.0179335
0.0248251
0.0334426
0.0369153
0.0342656
0.0220193
0.0102201
0.00792345
0.01762
0.00916348
0.00833432
0.00843123
0.00857331
0.00856873
0.0083274
0.0078512
0.00715162
0.0063134
0.00543657
0.00461719
0.0039195
0.00336421
0.00293946
0.00262028
0.00238211
0.00220502
0.00207339
0.00197468
0.00189868
0.00183725
0.00178418
0.00173511
0.0016873
0.00163936
0.00159092
0.00154224
0.001494
0.00144704
0.00140219
0.00136023
0.00132179
0.00128735
0.00125727
0.0012318
0.0012111
0.00119528
0.00118476
0.00117979
0.00117849
0.00118278
0.00119321
0.00120954
0.00123222
0.00126183
0.0012991
0.00134502
0.00140082
0.00146813
0.00154901
0.00164615
0.00176299
0.00190397
0.00207474
0.0022825
0.00253623
0.00284691
0.00322743
0.00369204
0.00425498
0.00492787
0.00571558
0.0066106
0.00758676
0.00859424
0.00956038
0.0104049
0.0110912
0.0116137
0.0122748
0.0134613
0.0159238
0.0213121
0.0304048
0.0371676
0.0380994
0.0275585
0.012921
0.00908709
0.0184347
0.00963273
0.00866965
0.0086682
0.00871757
0.00858688
0.0082185
0.00758399
0.00676833
0.00586466
0.00497714
0.00418996
0.00354671
0.0030498
0.00267734
0.00240147
0.00219788
0.00204753
0.00193556
0.00185016
0.00178196
0.00172386
0.00167079
0.00161955
0.00156846
0.00151699
0.00146537
0.00141425
0.00136447
0.0013169
0.00127226
0.00123116
0.00119404
0.00116119
0.00113277
0.00110889
0.00108959
0.00107486
0.00106494
0.0010602
0.00105887
0.00106235
0.00107141
0.00108575
0.00110574
0.00113188
0.0011648
0.00120536
0.00125463
0.00131401
0.00138531
0.00147087
0.00157372
0.00169781
0.00184828
0.00203177
0.00225684
0.00253435
0.00287771
0.00330285
0.00382751
0.00446927
0.00524195
0.00614974
0.00717938
0.00829161
0.00941514
0.0104504
0.0113399
0.0119473
0.0124275
0.0132476
0.0148704
0.0187149
0.0264382
0.0364156
0.0400253
0.0335447
0.0163676
0.0106018
0.0190478
0.0100295
0.00891794
0.00882288
0.00878458
0.00854696
0.00803767
0.00728509
0.0063836
0.00544262
0.00456466
0.00381891
0.0032298
0.00278563
0.00245821
0.00221856
0.00204307
0.00191361
0.00181613
0.00173967
0.00167588
0.00161877
0.00156445
0.00151078
0.00145695
0.00140305
0.00134969
0.0012977
0.00124793
0.00120112
0.00115784
0.0011185
0.00108333
0.00105246
0.00102592
0.0010037
0.00098574
0.000972003
0.000962541
0.000957896
0.000956477
0.000959094
0.00096682
0.000979292
0.000996829
0.00101986
0.00104896
0.00108485
0.00112848
0.00118107
0.00124417
0.00131982
0.00141066
0.00152016
0.00165287
0.00181478
0.00201376
0.00226008
0.00256694
0.00295082
0.00343149
0.0040309
0.00477047
0.0056659
0.00671886
0.00790631
0.00916935
0.0104073
0.0114896
0.0123158
0.0128116
0.0132659
0.0144138
0.0169503
0.0230352
0.033903
0.0407545
0.0392063
0.0207178
0.0125504
0.0194659
0.0103514
0.00909117
0.00890205
0.0087742
0.00844328
0.00781667
0.00697026
0.00600969
0.00505361
0.00419874
0.00349839
0.00296045
0.0025629
0.00227384
0.00206419
0.00191126
0.00179782
0.00171072
0.00163998
0.00157835
0.00152098
0.00146506
0.00140934
0.00135367
0.00129856
0.00124478
0.0011932
0.00114454
0.00109937
0.00105808
0.00102089
0.000987864
0.000959007
0.00093425
0.000913504
0.000896679
0.000883693
0.000874496
0.000869746
0.000868133
0.000869814
0.000876206
0.000886913
0.0009022
0.000922453
0.000948174
0.000980008
0.00101878
0.00106555
0.00112168
0.00118892
0.00126957
0.00136666
0.00148416
0.00162737
0.00180339
0.00202162
0.00229452
0.0026383
0.00307339
0.00362433
0.00431814
0.00518021
0.00622666
0.0074526
0.00881728
0.0102298
0.0115444
0.0126444
0.0133003
0.0136849
0.0143071
0.0160584
0.0205562
0.030091
0.0408845
0.043316
0.0262422
0.0148037
0.0196968
0.0105993
0.00919253
0.00890733
0.00871742
0.00828206
0.00756805
0.00665184
0.00565478
0.00470025
0.00387672
0.00322225
0.00273119
0.00237423
0.00211756
0.00193258
0.00179755
0.00169621
0.00161637
0.00154911
0.0014883
0.00143018
0.00137285
0.00131578
0.00125926
0.00120402
0.00115087
0.00110057
0.00105369
0.00101063
0.000971567
0.000936575
0.000905613
0.00087858
0.000855353
0.000835805
0.000819825
0.000807325
0.000798253
0.000793173
0.000791263
0.000791964
0.000797034
0.000806074
0.0008193
0.000837057
0.000859795
0.000888089
0.000922667
0.000964457
0.00101465
0.00107477
0.00114682
0.00123341
0.00133802
0.00146529
0.0016215
0.00181512
0.00205758
0.00236421
0.00275515
0.00325596
0.00389721
0.00471184
0.00572886
0.00696202
0.0083934
0.00995439
0.0115104
0.0128644
0.0137721
0.0142069
0.0145582
0.0156807
0.0187529
0.0266102
0.0396921
0.0454878
0.0329682
0.0173566
0.0197173
0.010776
0.00923554
0.00887375
0.00859815
0.00808517
0.00730337
0.00633883
0.00532373
0.00438269
0.00359483
0.00298454
0.00253552
0.00221357
0.00198409
0.00181925
0.0016983
0.00160598
0.00153113
0.0014659
0.00140524
0.00134635
0.00128809
0.00123043
0.00117394
0.00111941
0.0010676
0.00101912
0.00097435
0.000933513
0.000896655
0.000863719
0.000834583
0.000809094
0.000787099
0.000768458
0.000753061
0.000740831
0.00073173
0.000726156
0.000723816
0.000723629
0.00072738
0.00073486
0.000746207
0.000761727
0.000781827
0.000807024
0.000837966
0.000875476
0.0009206
0.000974677
0.00103945
0.00111718
0.00121092
0.0013247
0.00146403
0.00163644
0.00185224
0.00212554
0.0024755
0.00292749
0.00351372
0.0042722
0.00524229
0.00645465
0.00791421
0.00957715
0.0113266
0.0129598
0.0142294
0.0148155
0.0150751
0.0156132
0.0177575
0.0239189
0.0368918
0.0463492
0.0401678
0.0200745
0.0196267
0.0108952
0.00922754
0.00878861
0.00843701
0.00786283
0.00703176
0.00603753
0.00501901
0.00409956
0.00334893
0.00277986
0.002368
0.00207603
0.00186926
0.00172076
0.00161082
0.00152519
0.00145373
0.00138967
0.00132893
0.00126952
0.00121088
0.00115333
0.00109756
0.00104432
0.000994272
0.000947835
0.000905246
0.000866565
0.000831728
0.000800597
0.000773
0.000748759
0.000727713
0.000709727
0.000694703
0.000682581
0.000673345
0.00066712
0.000664123
0.000663372
0.000665818
0.000671852
0.000681498
0.00069502
0.000712787
0.000735266
0.000763043
0.000796852
0.000837623
0.000886539
0.000945127
0.00101538
0.00109993
0.00120232
0.00132737
0.00148169
0.00167447
0.00191851
0.00223157
0.00263795
0.00317003
0.00386864
0.00478077
0.00595174
0.00740937
0.00913926
0.0110546
0.0129706
0.0146142
0.0154371
0.0157493
0.015982
0.0173052
0.0218465
0.0335884
0.046479
0.0466925
0.0225608
0.0194149
0.0109756
0.00918968
0.00865755
0.00824535
0.00762398
0.00676027
0.00575206
0.00474139
0.00384865
0.00313491
0.00260348
0.00222412
0.00195766
0.00176978
0.00163451
0.00153316
0.00145247
0.00138336
0.00132001
0.00125921
0.00119963
0.00114114
0.00108424
0.00102965
0.000978062
0.00092995
0.000885597
0.00084509
0.000808375
0.000775309
0.000745704
0.000719362
0.0006961
0.000675763
0.000658229
0.000643415
0.000631273
0.000621794
0.000614993
0.000611287
0.000610019
0.000611285
0.000616003
0.000624121
0.000635865
0.000651569
0.000671657
0.000696664
0.000727252
0.000764256
0.000808734
0.000862037
0.000925922
0.0010027
0.00109547
0.00120844
0.00134742
0.00152053
0.00173923
0.00201969
0.00238467
0.00286556
0.0035041
0.00435205
0.00546619
0.0068946
0.00865169
0.0106833
0.0128311
0.0148186
0.0160583
0.016477
0.0165719
0.0171878
0.0203614
0.0300536
0.046281
0.0514034
0.024436
0.0190879
0.0110198
0.0091105
0.00849748
0.00803216
0.00737614
0.00649421
0.00548491
0.00449048
0.00362732
0.00294894
0.00245132
0.00210015
0.00185533
0.00168312
0.00155853
0.00146387
0.00138688
0.00131943
0.00125659
0.00119589
0.0011365
0.00107857
0.00102272
0.000969607
0.000919802
0.000873647
0.000831278
0.000792669
0.000757683
0.000726124
0.000697778
0.000672441
0.000649937
0.000630122
0.000612892
0.000598178
0.000585944
0.000576185
0.000568918
0.000564497
0.000562727
0.00056299
0.000566526
0.000573284
0.000583454
0.000597334
0.000615315
0.000637884
0.000665649
0.000699367
0.000739994
0.000788742
0.000847173
0.000917332
0.00100194
0.00110469
0.00123068
0.00138707
0.00158402
0.00183611
0.00216425
0.00259815
0.00317895
0.00396083
0.00500883
0.00638853
0.00814266
0.0102529
0.012593
0.0148923
0.0166276
0.0172775
0.0173596
0.0174927
0.0196246
0.027374
0.0443942
0.0538809
0.025288
0.0186587
0.0110225
0.00900363
0.00831609
0.00780514
0.0071254
0.00623737
0.00523732
0.00426519
0.00343285
0.00278756
0.00231997
0.00199308
0.00176652
0.00160726
0.0014913
0.00140189
0.0013277
0.0012615
0.00119914
0.00113873
0.00107983
0.00102278
0.000968196
0.000916688
0.000868683
0.000824393
0.000783839
0.000746907
0.000713405
0.000683106
0.000655788
0.000631253
0.000609336
0.000589911
0.00057289
0.00055822
0.000545877
0.000535866
0.000528219
0.00052313
0.00052077
0.000520351
0.00052281
0.00052837
0.000537153
0.000549426
0.000565546
0.000585962
0.000611234
0.000642061
0.000679315
0.000724099
0.000777818
0.000842298
0.000919951
0.00101403
0.00112902
0.00127121
0.00144961
0.00167723
0.00197306
0.00236469
0.00289162
0.00360838
0.00458515
0.00590125
0.00762512
0.00977588
0.012271
0.0148781
0.0170947
0.0180825
0.0182282
0.0181036
0.0193158
0.0255275
0.0417898
0.0548924
0.0255329
0.018146
0.0110109
0.00888024
0.00812091
0.00757078
0.00687656
0.00599236
0.00500961
0.004064
0.00326258
0.00264775
0.00220653
0.00190043
0.0016892
0.00154064
0.00143165
0.00134638
0.00127437
0.00120918
0.00114733
0.0010874
0.00102923
0.000973242
0.000920049
0.000870157
0.000823874
0.000781297
0.000742357
0.000706879
0.000674634
0.000645383
0.000618907
0.000595017
0.000573566
0.000554446
0.000537584
0.00052294
0.000510502
0.000500282
0.000492316
0.000486667
0.000483707
0.000482818
0.000484354
0.00048887
0.000496442
0.000507302
0.000521777
0.000540285
0.000563346
0.000591609
0.000625883
0.000667182
0.000716789
0.000776355
0.000848037
0.000934726
0.00104038
0.00117054
0.00133316
0.00153982
0.00180759
0.00216178
0.00263957
0.00329432
0.00419864
0.00544198
0.00711506
0.00927265
0.0118732
0.0147119
0.0173974
0.0188737
0.0191945
0.0188785
0.0192554
0.0239499
0.0391065
0.0550742
0.0254962
0.0175721
0.0109824
0.00874692
0.00791849
0.00733453
0.0066333
0.00576083
0.00480151
0.00388515
0.00311401
0.00252687
0.0021086
0.00182016
0.00162176
0.00148201
0.00137866
0.00129669
0.00122642
0.00116211
0.00110083
0.00104153
0.000984234
0.000929418
0.000877637
0.0008293
0.000784609
0.000743568
0.00070604
0.000671808
0.000640625
0.000612249
0.000586469
0.000563113
0.000542049
0.000523185
0.000506464
0.000491855
0.000479354
0.000468973
0.000460744
0.000454713
0.000451217
0.000449938
0.000450719
0.000454345
0.000460867
0.00047049
0.000483513
0.000500326
0.000521416
0.000547392
0.000579011
0.000617219
0.000663204
0.000718477
0.000784993
0.000865343
0.000963044
0.001083
0.00123223
0.00142101
0.00166461
0.001986
0.00241969
0.00301675
0.00384994
0.00501522
0.00662181
0.00875963
0.0114364
0.0144931
0.0175377
0.019607
0.0202159
0.0198268
0.0196642
0.0229
0.0364301
0.0540434
0.0251414
0.0169564
0.0109399
0.00860846
0.0077141
0.00710076
0.00639841
0.00554371
0.00461231
0.00372686
0.00298487
0.00242263
0.00202417
0.00175063
0.00156288
0.00143035
0.00133157
0.00125226
0.00118342
0.00111992
0.00105928
0.00100072
0.000944383
0.000890764
0.000840351
0.000793463
0.00075021
0.000710525
0.000674221
0.000641055
0.000610771
0.000583135
0.000557945
0.000535045
0.00051432
0.000495693
0.000479117
0.00046457
0.000452051
0.000441573
0.000433165
0.000426865
0.000422933
0.000421323
0.000421511
0.000424388
0.000430008
0.000438554
0.0004503
0.000465608
0.000484936
0.000508862
0.000538101
0.000573547
0.000616312
0.0006678
0.000729808
0.000804684
0.000895582
0.00100686
0.00114474
0.00131832
0.00154121
0.00183413
0.00222874
0.00277315
0.00353855
0.00462412
0.0061529
0.00824539
0.0109579
0.0141883
0.0175822
0.020259
0.0212148
0.0209102
0.0203046
0.0223216
0.0339792
0.0524226
0.0245976
0.0163126
0.0108982
0.0084715
0.00751255
0.00687301
0.00617391
0.00534142
0.00444109
0.00358729
0.00287307
0.00233312
0.0019516
0.00169047
0.00151148
0.00138484
0.00128976
0.00121261
0.001145
0.00108227
0.00102231
0.000964548
0.000909205
0.000856759
0.000807633
0.000762065
0.000720091
0.000681591
0.000646344
0.000614092
0.00058458
0.000557578
0.000532903
0.000510411
0.000490002
0.00047161
0.000455198
0.000440749
0.000428264
0.000417757
0.00040925
0.000402782
0.000398514
0.000396583
0.000396368
0.000398615
0.000403468
0.000411081
0.000421706
0.000435678
0.000453433
0.000475517
0.000502614
0.000535575
0.000575457
0.000623582
0.000681624
0.000751739
0.000836786
0.00094067
0.00106892
0.0012296
0.00143484
0.0017032
0.00206353
0.00256058
0.00326269
0.00426966
0.00571427