/*--------------------------------*- C++ -*----------------------------------*\
  =========                 |
  \\      /  F ield         | OpenFOAM: The Open Source CFD Toolbox
   \\    /   O peration     | Website:  https://openfoam.org
    \\  /    A nd           | Version:  13
     \\/     M anipulation  |
\*---------------------------------------------------------------------------*/
FoamFile
{
    format      ascii;
    class       volScalarField;
    location    "3.4";
    object      p;
}
// * * * * * * * * * * * * * * * * * * * * * * * * * * * * * * * * * * * * * //

dimensions      [0 2 -2 0 0 0 0];

internalField   nonuniform List<scalar> 
6400
(
1.12501e-08
1.39322e-05
1.83698e-05
4.90005e-06
-2.9874e-05
-8.26779e-05
-0.000147373
-0.000217857
-0.000289571
-0.000360657
-0.000431058
-0.000502851
-0.00057944
-0.000663917
-0.00075982
-0.000870142
-0.0009972
-0.0011426
-0.00130767
-0.0014935
-0.00170038
-0.00192896
-0.00218092
-0.00245891
-0.00276695
-0.00310832
-0.00348069
-0.00387963
-0.00429574
-0.00470971
-0.00510933
-0.00549256
-0.00585585
-0.00619439
-0.00650335
-0.00677736
-0.00701009
-0.00719403
-0.00732089
-0.00738192
-0.00736829
-0.00727122
-0.00708267
-0.00679603
-0.00640711
-0.00591478
-0.00531902
-0.00461165
-0.00378633
-0.00286401
-0.00185842
-0.000776393
0.000363234
0.00154041
0.00272859
0.00389848
0.00501532
0.00604106
0.00693838
0.00767248
0.00821325
0.00854094
0.00864837
0.0085421
0.0082421
0.00778303
0.00721671
0.00659735
0.00597823
0.00540901
0.00491673
0.00453182
0.00426299
0.00408673
0.0039861
0.00394268
0.00393753
0.00395423
0.00398124
0.00400468
-1.09678e-05
3.1313e-06
4.74378e-06
-1.17723e-05
-4.81171e-05
-0.000100586
-0.00016244
-0.000228107
-0.00029401
-0.000359017
-0.000423784
-0.000490568
-0.000562499
-0.000642675
-0.000733819
-0.000838729
-0.000960101
-0.00109968
-0.00125843
-0.00143705
-0.00163516
-0.00185296
-0.00209235
-0.00235514
-0.00264308
-0.00295942
-0.00330833
-0.00369066
-0.00410157
-0.00452942
-0.00495596
-0.0053671
-0.00575718
-0.00612244
-0.00645775
-0.00675693
-0.0070133
-0.00721923
-0.00736658
-0.00744691
-0.00745209
-0.00737414
-0.00720582
-0.00694096
-0.00657502
-0.00610547
-0.00553029
-0.00484792
-0.0040626
-0.00318257
-0.00221124
-0.00116602
-6.23709e-05
0.00107845
0.00223156
0.00336733
0.00445213
0.00545115
0.00633005
0.00705593
0.00760022
0.00794263
0.00807565
0.00800512
0.00775096
0.00734763
0.00683211
0.00627052
0.00570552
0.00518477
0.00474464
0.0044029
0.00416642
0.00402408
0.00395748
0.00394722
0.0039649
0.00399009
0.00401593
0.00403868
-2.04358e-05
-5.10649e-06
-6.96806e-06
-2.90555e-05
-7.01722e-05
-0.000124114
-0.00018345
-0.000242809
-0.000299945
-0.000355562
-0.000411297
-0.000469834
-0.000534328
-0.000607324
-0.000690918
-0.00078695
-0.000896903
-0.0010227
-0.0011661
-0.00132903
-0.00151396
-0.00172271
-0.00195771
-0.00222263
-0.00252038
-0.00285295
-0.00322077
-0.00362168
-0.00405053
-0.00449852
-0.00495264
-0.00539941
-0.00582827
-0.00623081
-0.00660062
-0.0069312
-0.00721554
-0.00744634
-0.00761615
-0.00771715
-0.00774187
-0.00768346
-0.00753557
-0.00729272
-0.00695091
-0.00650819
-0.00596353
-0.00531267
-0.00456021
-0.00371545
-0.00278381
-0.00177811
-0.000713553
0.00039032
0.00151001
0.00261786
0.00368269
0.00467076
0.00554754
0.00628184
0.00684609
0.0072196
0.00739323
0.00737187
0.00717346
0.00682969
0.00638124
0.0058793
0.00537244
0.00490458
0.00450868
0.00420699
0.00401073
0.00390899
0.00387651
0.00389304
0.00393403
0.00397734
0.00401654
0.00404859
-2.21218e-05
-7.44091e-06
-1.4052e-05
-4.30549e-05
-9.05289e-05
-0.000146585
-0.000203735
-0.000257483
-0.000306545
-0.000351535
-0.000395837
-0.000443146
-0.000496909
-0.000559866
-0.000633719
-0.000719743
-0.000819458
-0.000934954
-0.00106902
-0.00122495
-0.00140712
-0.00162055
-0.00186991
-0.00215938
-0.00249024
-0.00286285
-0.00327596
-0.0037248
-0.0042005
-0.0046913
-0.00518556
-0.00567158
-0.00613817
-0.0065757
-0.00697654
-0.0073338
-0.00764073
-0.00789073
-0.00807679
-0.00819205
-0.00822983
-0.00818421
-0.0080497
-0.00782159
-0.00749651
-0.00707244
-0.00654797
-0.00592221
-0.00519785
-0.00438052
-0.0034769
-0.00249812
-0.00145829
-0.000375149
0.000729863
0.00183081
0.00289748
0.00389717
0.00479602
0.00556167
0.00616639
0.00658769
0.00681393
0.00684747
0.00670457
0.00641364
0.00601462
0.00555575
0.00508672
0.00464993
0.00428216
0.00400387
0.00382552
0.00374142
0.00373618
0.00377943
0.00384426
0.00391145
0.00397022
0.0040118
-1.0853e-05
-8.07713e-07
-1.4021e-05
-5.03139e-05
-0.000104083
-0.000162384
-0.000217543
-0.000265839
-0.00030687
-0.000342566
-0.000376865
-0.000413984
-0.0004578
-0.00051118
-0.000576283
-0.000655057
-0.000750073
-0.000864826
-0.0010042
-0.00117365
-0.0013789
-0.00162554
-0.00191657
-0.00225476
-0.00264153
-0.00307435
-0.00354743
-0.00405274
-0.00457917
-0.005114
-0.00564561
-0.00616297
-0.00665668
-0.0071186
-0.00754054
-0.00791555
-0.00823738
-0.0084998
-0.00869627
-0.00882067
-0.00886722
-0.00883107
-0.00870764
-0.00849284
-0.00818344
-0.00777745
-0.00727378
-0.00667224
-0.00597434
-0.00518366
-0.00430617
-0.00335168
-0.00233349
-0.00126689
-0.000170522
0.000931274
0.00200888
0.00303158
0.00396691
0.00478117
0.00544559
0.00593576
0.00623604
0.00634253
0.0062687
0.0060421
0.00569966
0.00528608
0.00485128
0.00444069
0.00409098
0.00382603
0.00365636
0.00357927
0.00358028
0.00363505
0.00371578
0.00380115
0.00387546
0.00392329
1.93538e-05
2.05976e-05
-1.06484e-06
-4.65201e-05
-0.000106148
-0.000165805
-0.000218864
-0.000262521
-0.000297032
-0.000325296
-0.000352305
-0.000382511
-0.000420118
-0.000468559
-0.000530982
-0.000610999
-0.000713338
-0.000843619
-0.00100822
-0.00121438
-0.00146639
-0.00176851
-0.0021241
-0.00253276
-0.00299076
-0.00349035
-0.00402236
-0.00457775
-0.00514635
-0.00571705
-0.00627878
-0.00682095
-0.00733509
-0.00781379
-0.00824988
-0.0086369
-0.00896858
-0.00923918
-0.00944311
-0.00957437
-0.00962827
-0.00960179
-0.00949095
-0.00929222
-0.00900263
-0.00862044
-0.00814424
-0.00757363
-0.00690955
-0.00615368
-0.00531022
-0.00438748
-0.0033973
-0.002352
-0.0012679
-0.000169069
0.000918321
0.0019662
0.00294422
0.00381755
0.00455624
0.00513412
0.00553146
0.00573972
0.00576307
0.00562569
0.00536351
0.00501775
0.00463504
0.00426205
0.00393718
0.00368692
0.00352405
0.0034481
0.00344718
0.00350031
0.0035826
0.00367088
0.00374896
0.00379752
7.52074e-05
6.48289e-05
3.1917e-05
-2.52579e-05
-8.93744e-05
-0.000149979
-0.000201368
-0.00024164
-0.00027227
-0.000297114
-0.000321355
-0.000350148
-0.000388267
-0.000440204
-0.000510807
-0.000606123
-0.000732922
-0.000898679
-0.00110987
-0.00137245
-0.00169187
-0.00206967
-0.002504
-0.00298834
-0.00351461
-0.00407468
-0.00465968
-0.00525964
-0.00586435
-0.00646399
-0.00704897
-0.00760996
-0.00813922
-0.00862988
-0.00907569
-0.00947057
-0.00980802
-0.0100828
-0.0102904
-0.0104271
-0.0104909
-0.0104777
-0.0103834
-0.0102051
-0.00994053
-0.00958787
-0.00914457
-0.00861008
-0.00798529
-0.00727283
-0.00647697
-0.00560306
-0.00465658
-0.00364891
-0.00259545
-0.00151271
-0.000421364
0.000650749
0.00167096
0.00260751
0.00343116
0.00411347
0.00462979
0.00496804
0.00512447
0.00511279
0.00496334
0.00471539
0.00441208
0.00409847
0.00381415
0.00358801
0.00343569
0.00335956
0.00335219
0.00339478
0.00346638
0.00354491
0.00361347
0.00365476
0.000162827
0.000138265
9.02795e-05
2.22439e-05
-4.67723e-05
-0.000108816
-0.000159792
-0.000199301
-0.000229981
-0.000256552
-0.000284677
-0.000320142
-0.000368702
-0.000436402
-0.000530164
-0.000658182
-0.000829138
-0.00104957
-0.00132679
-0.00166579
-0.00206763
-0.00252717
-0.00303817
-0.00359311
-0.00418284
-0.00479796
-0.00542918
-0.00606687
-0.00670164
-0.00732463
-0.00792738
-0.00850195
-0.00904139
-0.00953934
-0.00998995
-0.0103873
-0.0107265
-0.0110038
-0.0112162
-0.0113624
-0.011439
-0.0114403
-0.0113635
-0.011206
-0.0109659
-0.0106423
-0.0102337
-0.00973962
-0.00916115
-0.00850075
-0.00776172
-0.00694655
-0.00605737
-0.00510289
-0.00409517
-0.00304784
-0.00197885
-0.000908654
0.000137665
0.0011353
0.00204851
0.00284477
0.00349814
0.00399083
0.00431209
0.00446366
0.00446563
0.00435071
0.00415825
0.00393046
0.00370736
0.00351987
0.00338675
0.00331423
0.00329757
0.00332395
0.00337667
0.00343652
0.00348405
0.00351114
0.000284914
0.000245481
0.000179742
0.000100317
2.57417e-05
-3.88844e-05
-9.17147e-05
-0.000134127
-0.000170089
-0.000205198
-0.000245769
-0.000298418
-0.000370164
-0.000468646
-0.000602806
-0.000782568
-0.00101601
-0.00130991
-0.00166978
-0.00209485
-0.00258006
-0.00311905
-0.00370333
-0.00432333
-0.00496926
-0.00563175
-0.0063017
-0.0069703
-0.00762904
-0.00826995
-0.00888552
-0.00946884
-0.0100137
-0.0105141
-0.010965
-0.0113627
-0.0117049
-0.0119879
-0.012208
-0.0123621
-0.0124462
-0.0124584
-0.0123969
-0.0122597
-0.0120453
-0.0117528
-0.0113818
-0.0109317
-0.0104027
-0.00979562
-0.00911185
-0.00835367
-0.00752619
-0.0066354
-0.0056897
-0.00469914
-0.00367351
-0.00262455
-0.00157271
-0.000544162
0.000435563
0.00133962
0.00213555
0.00279513
0.00330309
0.00364947
0.00383987
0.00389511
0.00384822
0.00373585
0.0035968
0.00346496
0.0033624
0.00329953
0.00327605
0.00328449
0.00331232
0.00334584
0.00336696
0.00337703
0.000445381
0.00038854
0.000302661
0.000210712
0.000128787
5.96462e-05
1.82549e-06
-4.82464e-05
-9.59897e-05
-0.000147949
-0.000211229
-0.000293427
-0.000402752
-0.000548449
-0.000740813
-0.000989862
-0.00130286
-0.00168359
-0.00213168
-0.00264321
-0.00321047
-0.00382436
-0.00447474
-0.00515179
-0.00584593
-0.0065482
-0.00724995
-0.0079431
-0.00861999
-0.00927348
-0.00989698
-0.0104845
-0.0110308
-0.011531
-0.0119811
-0.012378
-0.0127185
-0.0129998
-0.0132194
-0.0133751
-0.0134643
-0.0134857
-0.0134382
-0.0133204
-0.0131314
-0.0128704
-0.0125369
-0.0121308
-0.0116521
-0.0111014
-0.0104791
-0.00978661
-0.00902691
-0.00820353
-0.00732103
-0.0063852
-0.00540522
-0.00439577
-0.00336933
-0.00233789
-0.00131823
-0.000340195
0.000573592
0.00139576
0.00209352
0.00265051
0.00305826
0.00331909
0.00345297
0.00348909
0.00346044
0.00340254
0.00334304
0.00329753
0.00327199
0.00326262
0.00326411
0.00326679
0.0032613
0.00325524
0.000642682
0.000565774
0.000457557
0.00034968
0.000258928
0.00018273
0.000115896
5.24149e-05
-1.46858e-05
-9.29647e-05
-0.000190371
-0.000315368
-0.000477294
-0.000686409
-0.000953199
-0.00128619
-0.00168897
-0.00216089
-0.00269851
-0.00329406
-0.00393738
-0.0046185
-0.00532696
-0.0060531
-0.00678776
-0.0075224
-0.00824899
-0.00896011
-0.00964885
-0.0103089
-0.0109346
-0.0115208
-0.0120633
-0.012558
-0.0130019
-0.0133922
-0.0137265
-0.0140027
-0.0142191
-0.0143743
-0.0144668
-0.0144955
-0.0144597
-0.0143587
-0.0141922
-0.0139592
-0.0136598
-0.013294
-0.0128621
-0.0123642
-0.0118008
-0.0111728
-0.0104817
-0.00972933
-0.00891799
-0.00805063
-0.0071321
-0.00616974
-0.00517186
-0.0041518
-0.00312687
-0.00210877
-0.00111126
-0.000165631
0.000703056
0.00146607
0.00210046
0.0025922
0.00293998
0.00315886
0.00327253
0.00331149
0.003309
0.00328871
0.00326449
0.00324047
0.00321685
0.00318951
0.0031601
0.00314012
0.000867946
0.000770732
0.000636249
0.00051038
0.000408742
0.000322392
0.000241792
0.000158386
6.36104e-05
-5.10953e-05
-0.000194371
-0.000375391
-0.000604228
-0.00089108
-0.00124475
-0.00166992
-0.00216644
-0.00273026
-0.00335379
-0.00402687
-0.00473872
-0.00547894
-0.00623733
-0.00700456
-0.00777189
-0.00853132
-0.00927542
-0.00999746
-0.0106913
-0.0113516
-0.0119735
-0.0125529
-0.0130865
-0.013571
-0.0140042
-0.014384
-0.0147088
-0.0149773
-0.0151882
-0.0153407
-0.015434
-0.0154675
-0.0154407
-0.0153535
-0.015206
-0.0149972
-0.0147279
-0.014398
-0.0140079
-0.0135579
-0.0130482
-0.0124795
-0.0118523
-0.0111676
-0.0104263
-0.00962965
-0.00877976
-0.00787946
-0.0069325
-0.00594515
-0.00492623
-0.00388739
-0.002848
-0.00181882
-0.000819164
0.000119775
0.000966401
0.00169296
0.00227679
0.00270981
0.0030002
0.00316734
0.00324142
0.00325696
0.00323891
0.00320268
0.0031561
0.00310234
0.00305381
0.00302259
0.00111167
0.000992528
0.000828934
0.0006827
0.000567687
0.000467399
0.000367717
0.000257452
0.000126459
-3.46914e-05
-0.000235076
-0.000484356
-0.000792204
-0.00116718
-0.00161479
-0.00213561
-0.0027255
-0.00337678
-0.00407951
-0.00482241
-0.00559451
-0.00638543
-0.00718535
-0.00798537
-0.00877726
-0.00955359
-0.0103076
-0.0110334
-0.0117258
-0.0123802
-0.012993
-0.0135608
-0.0140811
-0.0145517
-0.014971
-0.0153377
-0.0156507
-0.0159094
-0.0161129
-0.016261
-0.0163531
-0.0163892
-0.0163691
-0.0162929
-0.0161609
-0.0159729
-0.0157295
-0.0154309
-0.0150775
-0.0146697
-0.0142079
-0.0136922
-0.0131231
-0.0125005
-0.0118246
-0.0110954
-0.010313
-0.00947784
-0.00859072
-0.00765337
-0.0066685
-0.00564089
-0.00457982
-0.00349917
-0.0024155
-0.00134475
-0.000321943
0.000619246
0.00144118
0.00210962
0.00260792
0.00293884
0.00311991
0.00318778
0.00318438
0.00313858
0.00307139
0.00299514
0.00293218
0.00289314
0.00136006
0.00121725
0.00102265
0.000853711
0.000722403
0.000604046
0.000479747
0.000335664
0.000160124
-5.66687e-05
-0.000324064
-0.000651416
-0.0010467
-0.00151576
-0.00205974
-0.00267483
-0.00335332
-0.00408517
-0.004859
-0.00566314
-0.00648672
-0.00731957
-0.00815236
-0.00897667
-0.0097849
-0.0105703
-0.011327
-0.0120498
-0.0127348
-0.0133782
-0.0139773
-0.0145297
-0.0150336
-0.0154877
-0.0158912
-0.0162432
-0.0165432
-0.0167909
-0.016986
-0.0171285
-0.0172183
-0.0172555
-0.0172402
-0.0171728
-0.0170537
-0.0168831
-0.0166616
-0.0163897
-0.016068
-0.0156967
-0.0152764
-0.0148073
-0.0142894
-0.0137224
-0.0131059
-0.0124389
-0.0117204
-0.0109491
-0.0101234
-0.00924229
-0.00830484
-0.00731148
-0.00626441
-0.00516847
-0.00403379
-0.00287932
-0.00172534
-0.000607839
0.000429719
0.00133635
0.00206583
0.00259347
0.002919
0.00306802
0.00309289
0.00304392
0.00295785
0.0028619
0.00278718
0.00274102
0.00159646
0.00143018
0.00120191
0.00100839
0.000857847
0.000717207
0.000562726
0.000378006
0.000150764
-0.000129061
-0.000471312
-0.00088326
-0.00137059
-0.00193494
-0.00257294
-0.0032771
-0.00403703
-0.00484102
-0.00567695
-0.00653319
-0.00739909
-0.00826489
-0.00912178
-0.00996198
-0.0107786
-0.0115657
-0.0123185
-0.0130327
-0.0137054
-0.0143337
-0.0149158
-0.0154503
-0.0159361
-0.0163725
-0.0167593
-0.017096
-0.0173827
-0.0176192
-0.0178057
-0.0179422
-0.0180291
-0.0180664
-0.0180548
-0.0179944
-0.017886
-0.0177299
-0.0175269
-0.0172776
-0.0169825
-0.0166424
-0.0162576
-0.0158284
-0.0153547
-0.0148363
-0.0142722
-0.0136611
-0.0130011
-0.0122898
-0.0115243
-0.0107012
-0.00981716
-0.00886907
-0.00785499
-0.00677473
-0.0056309
-0.00443209
-0.00319521
-0.00194936
-0.000737409
0.000384783
0.00135089
0.00210258
0.0026092
0.00287831
0.00295711
0.00291635
0.00281507
0.00270047
0.00261277
0.00255756
0.001803
0.00161174
0.0013505
0.00113117
0.000958644
0.00079153
0.000601524
0.000370924
8.68664e-05
-0.000262235
-0.000683998
-0.00118365
-0.00176333
-0.00241986
-0.00314623
-0.00393184
-0.00476434
-0.00563101
-0.00651947
-0.00741832
-0.00831726
-0.00920705
-0.0100795
-0.0109277
-0.0117455
-0.012528
-0.0132713
-0.0139725
-0.0146292
-0.0152397
-0.0158029
-0.0163183
-0.0167853
-0.0172039
-0.0175741
-0.0178959
-0.0181696
-0.0183954
-0.0185736
-0.0187045
-0.0187883
-0.0188255
-0.0188166
-0.0187621
-0.0186625
-0.0185186
-0.0183311
-0.0181007
-0.0178281
-0.0175141
-0.0171591
-0.0167636
-0.0163275
-0.0158505
-0.0153317
-0.0147694
-0.0141616
-0.0135051
-0.012796
-0.0120298
-0.0112012
-0.0103047
-0.00933494
-0.0082878
-0.00716122
-0.00595639
-0.00468162
-0.00335774
-0.00202125
-0.000725734
0.000456584
0.00144138
0.00216152
0.00259355
0.00276436
0.00275112
0.00264331
0.00250975
0.00240339
0.00233634
0.0019622
0.0017467
0.00145315
0.00120729
0.00101017
0.000812712
0.000583375
0.000303427
-4.20028e-05
-0.000463345
-0.000966149
-0.00155315
-0.00222132
-0.00296403
-0.00377075
-0.00462851
-0.00552366
-0.00644297
-0.00737411
-0.00830603
-0.0092289
-0.0101341
-0.0110143
-0.0118633
-0.012676
-0.0134488
-0.0141786
-0.0148634
-0.0155018
-0.016093
-0.0166367
-0.0171328
-0.0175813
-0.0179827
-0.0183372
-0.0186452
-0.018907
-0.0191231
-0.0192938
-0.0194196
-0.0195008
-0.0195378
-0.0195312
-0.0194817
-0.0193897
-0.019256
-0.0190815
-0.0188669
-0.018613
-0.0183207
-0.0179905
-0.017623
-0.0172183
-0.0167761
-0.0162956
-0.0157752
-0.0152127
-0.0146048
-0.0139471
-0.0132343
-0.0124602
-0.0116175
-0.0106988
-0.00969649
-0.00860484
-0.00742012
-0.00614341
-0.00478585
-0.00337434
-0.00195573
-0.00059872
0.000604322
0.00155449
0.00218582
0.00249354
0.00254112
0.00243949
0.00228762
0.00215443
0.00207401
0.002057
0.00181988
0.00149592
0.00122343
0.000999523
0.000768876
0.000498188
0.00016633
-0.000242628
-0.000736527
-0.00131917
-0.00198895
-0.00273928
-0.00355986
-0.00443727
-0.00535687
-0.00630423
-0.00726596
-0.00822999
-0.00918569
-0.0101238
-0.0110366
-0.0119174
-0.0127613
-0.0135641
-0.0143231
-0.0150365
-0.0157029
-0.016322
-0.0168936
-0.0174179
-0.0178954
-0.0183266
-0.0187121
-0.0190523
-0.0193479
-0.0195993
-0.0198069
-0.0199712
-0.0200928
-0.0201718
-0.0202089
-0.0202046
-0.0201594
-0.0200739
-0.019949
-0.0197855
-0.0195841
-0.0193458
-0.0190714
-0.0187616
-0.0184172
-0.0180383
-0.0176248
-0.0171762
-0.016691
-0.0161671
-0.0156013
-0.0149891
-0.014325
-0.0136022
-0.0128126
-0.0119472
-0.0109965
-0.00995142
-0.00880474
-0.00755204
-0.00619608
-0.00475318
-0.00325943
-0.00177666
-0.000393447
0.000779573
0.00163685
0.00212276
0.00226978
0.00219659
0.00203017
0.00186295
0.00176847
0.00207544
0.00181924
0.00146767
0.00116902
0.000916871
0.000652137
0.000338744
-4.68833e-05
-0.000518273
-0.00108237
-0.00174038
-0.00248638
-0.00331043
-0.00419899
-0.00513649
-0.00610715
-0.0070962
-0.00809031
-0.00907778
-0.0100485
-0.0109941
-0.0119074
-0.0127831
-0.013617
-0.0144061
-0.0151488
-0.0158439
-0.0164912
-0.0170908
-0.0176433
-0.0181492
-0.0186095
-0.0190248
-0.019396
-0.0197237
-0.0200085
-0.020251
-0.0204517
-0.0206109
-0.0207292
-0.0208068
-0.0208444
-0.0208423
-0.0208011
-0.0207215
-0.0206041
-0.0204499
-0.0202596
-0.0200342
-0.0197746
-0.0194816
-0.019156
-0.0187981
-0.0184081
-0.0179856
-0.0175294
-0.0170378
-0.0165077
-0.0159349
-0.0153141
-0.0146382
-0.0138989
-0.0130863
-0.0121898
-0.011198
-0.0101007
-0.00888984
-0.00756137
-0.00612203
-0.0045961
-0.00303395
-0.00151762
-0.000153352
0.00092984
0.00162699
0.00191998
0.00190523
0.00173149
0.00152747
0.00141967
0.00200807
0.00173614
0.00136057
0.00103699
0.000756606
0.000457153
0.000100282
-0.000337241
-0.000868264
-0.00149853
-0.00222504
-0.00303889
-0.00392681
-0.00487263
-0.00585925
-0.00687024
-0.00789072
-0.00890762
-0.00990974
-0.0108877
-0.0118337
-0.0127418
-0.0136076
-0.0144278
-0.0152008
-0.0159254
-0.0166017
-0.0172298
-0.0178106
-0.0183451
-0.0188341
-0.0192788
-0.0196801
-0.0200389
-0.0203559
-0.0206318
-0.0208671
-0.0210622
-0.0212176
-0.0213335
-0.0214105
-0.0214489
-0.0214492
-0.0214119
-0.0213375
-0.0212268
-0.0210806
-0.0208998
-0.0206852
-0.0204377
-0.0201584
-0.019848
-0.0195071
-0.0191361
-0.0187346
-0.0183021
-0.0178369
-0.0173365
-0.0167972
-0.0162139
-0.0155798
-0.0148867
-0.0141246
-0.0132819
-0.0123462
-0.0113049
-0.010147
-0.0088642
-0.00745434
-0.00593063
-0.00433045
-0.00272822
-0.0012193
6.99203e-05
0.000995018
0.00147296
0.00154866
0.00138331
0.00115032
0.00102832
0.00184956
0.00156579
0.00117047
0.000824169
0.000516259
0.000182304
-0.000216943
-0.000703241
-0.0012895
-0.0019793
-0.00276634
-0.00363854
-0.00457977
-0.00557189
-0.00659679
-0.00763773
-0.00867996
-0.00971081
-0.0107196
-0.0116978
-0.0126385
-0.0135367
-0.014389
-0.0151932
-0.0159484
-0.0166544
-0.0173118
-0.0179215
-0.0184847
-0.0190026
-0.0194765
-0.0199075
-0.0202968
-0.0206451
-0.0209533
-0.0212219
-0.0214515
-0.0216424
-0.0217951
-0.0219098
-0.0219868
-0.0220266
-0.0220294
-0.0219958
-0.0219263
-0.0218215
-0.0216823
-0.0215095
-0.0213039
-0.0210666
-0.0207985
-0.0205005
-0.0201732
-0.0198173
-0.0194327
-0.0190191
-0.0185754
-0.0180993
-0.0175879
-0.0170365
-0.0164389
-0.0157872
-0.0150716
-0.0142806
-0.0134009
-0.0124186
-0.01132
-0.0100944
-0.00873321
-0.00723853
-0.0056336
-0.00398384
-0.00237933
-0.000925991
0.000216035
0.000904822
0.00111351
0.000978989
0.00073452
0.000592931
0.00159875
0.0013073
0.00089704
0.000530791
0.000196516
-0.00017069
-0.000608989
-0.00113984
-0.00177593
-0.00251762
-0.00335615
-0.00427655
-0.00526037
-0.00628804
-0.00734086
-0.00840206
-0.00945718
-0.010494
-0.0115027
-0.0124753
-0.013406
-0.0142907
-0.015127
-0.0159136
-0.0166504
-0.0173379
-0.0179771
-0.0185695
-0.0191166
-0.0196197
-0.0200802
-0.0204995
-0.0208786
-0.0212183
-0.0215194
-0.0217824
-0.0220077
-0.0221958
-0.0223469
-0.0224611
-0.0225388
-0.0225803
-0.0225858
-0.0225559
-0.0224909
-0.0223916
-0.0222585
-0.0220926
-0.0218947
-0.0216658
-0.0214069
-0.0211189
-0.0208026
-0.0204587
-0.0200876
-0.0196891
-0.0192624
-0.0188061
-0.0183175
-0.0177927
-0.0172262
-0.0166109
-0.0159374
-0.0151945
-0.0143688
-0.0134455
-0.0124095
-0.0112472
-0.00994768
-0.00850416
-0.00692358
-0.00524958
-0.00359531
-0.00202913
-0.000699594
0.000206834
0.000583985
0.0005104
0.000274294
0.00010676
0.00125828
0.000963621
0.000543309
0.000160019
-0.000198445
-0.000596198
-0.0010698
-0.00164034
-0.00231925
-0.00310468
-0.00398529
-0.0049437
-0.00595966
-0.0070127
-0.00808385
-0.00915652
-0.0102166
-0.0112526
-0.0122553
-0.0132176
-0.0141347
-0.0150034
-0.0158221
-0.0165904
-0.0173088
-0.0179783
-0.0186005
-0.0191771
-0.0197096
-0.0201997
-0.0206488
-0.0210582
-0.0214289
-0.0217617
-0.0220573
-0.0223161
-0.0225386
-0.0227249
-0.0228752
-0.0229898
-0.0230687
-0.0231123
-0.0231207
-0.0230944
-0.0230337
-0.0229393
-0.0228117
-0.0226519
-0.0224605
-0.0222387
-0.0219874
-0.0217075
-0.0214001
-0.0210658
-0.0207052
-0.0203186
-0.0199055
-0.0194649
-0.0189948
-0.018492
-0.0179518
-0.0173678
-0.0167315
-0.0160323
-0.0152572
-0.0143912
-0.0134181
-0.012322
-0.0110902
-0.00971128
-0.00818109
-0.00651554
-0.00482974
-0.00320116
-0.00172873
-0.000619165
-5.19253e-05
-2.59044e-05
-0.000240077
-0.000439391
0.000834041
0.000541039
0.000115286
-0.000281892
-0.00066193
-0.00108634
-0.00159076
-0.0021956
-0.00291015
-0.00373083
-0.00464412
-0.00563067
-0.00666898
-0.00773805
-0.00881891
-0.00989527
-0.0109536
-0.0119829
-0.0129748
-0.0139233
-0.0148242
-0.0156752
-0.0164755
-0.0172255
-0.0179259
-0.0185786
-0.019185
-0.0197472
-0.020267
-0.0207459
-0.0211853
-0.0215865
-0.0219505
-0.0222779
-0.0225694
-0.0228253
-0.0230459
-0.0232314
-0.0233818
-0.0234973
-0.023578
-0.0236239
-0.0236354
-0.0236126
-0.0235561
-0.0234662
-0.0233436
-0.0231891
-0.0230034
-0.0227876
-0.0225426
-0.0222694
-0.021969
-0.0216424
-0.0212902
-0.0209129
-0.0205105
-0.0200823
-0.0196271
-0.0191422
-0.0186239
-0.0180665
-0.0174627
-0.0168025
-0.0160738
-0.0152619
-0.0143501
-0.0133211
-0.0121597
-0.0108527
-0.00938918
-0.00777233
-0.00606146
-0.00440856
-0.00284802
-0.00157055
-0.000807211
-0.000640741
-0.000816798
-0.00105621
0.00033571
4.7654e-05
-0.000378691
-0.000786091
-0.00118435
-0.00163169
-0.00216243
-0.00279537
-0.00353832
-0.00438593
-0.00532288
-0.0063284
-0.00738015
-0.00845691
-0.00953992
-0.0106133
-0.0116641
-0.0126822
-0.0136598
-0.0145916
-0.0154746
-0.0163071
-0.0170889
-0.0178208
-0.0185043
-0.0191411
-0.0197333
-0.0202828
-0.0207914
-0.0212607
-0.0216921
-0.0220867
-0.0224454
-0.0227688
-0.0230574
-0.0233115
-0.0235312
-0.0237166
-0.0238678
-0.0239847
-0.0240675
-0.024116
-0.0241306
-0.0241114
-0.0240588
-0.0239732
-0.0238551
-0.0237053
-0.0235246
-0.0233139
-0.0230741
-0.0228064
-0.0225118
-0.0221913
-0.0218457
-0.0214757
-0.0210817
-0.0206634
-0.02022
-0.0197496
-0.0192493
-0.0187144
-0.0181384
-0.0175126
-0.0168257
-0.0160638
-0.0152103
-0.0142472
-0.0131572
-0.0119266
-0.0105409
-0.0089904
-0.00728706
-0.00562424
-0.00402799
-0.0026288
-0.0016856
-0.0013589
-0.00147146
-0.0017603
-0.000224955
-0.000506161
-0.000928318
-0.00134221
-0.00175535
-0.00222183
-0.00277399
-0.00342897
-0.00419318
-0.00505979
-0.00601208
-0.00702827
-0.00808558
-0.00916281
-0.0102416
-0.0113065
-0.0123452
-0.0133483
-0.0143089
-0.0152225
-0.0160865
-0.0169002
-0.0176637
-0.0183784
-0.019046
-0.0196684
-0.0202478
-0.0207861
-0.0212851
-0.0217463
-0.0221711
-0.0225605
-0.0229151
-0.0232357
-0.0235224
-0.0237755
-0.0239951
-0.0241811
-0.0243336
-0.0244524
-0.0245375
-0.0245889
-0.0246066
-0.0245909
-0.0245421
-0.0244604
-0.0243465
-0.024201
-0.0240246
-0.0238183
-0.0235831
-0.0233199
-0.02303
-0.0227143
-0.022374
-0.0220098
-0.0216223
-0.0212117
-0.0207777
-0.020319
-0.0198334
-0.0193173
-0.0187651
-0.0181693
-0.0175196
-0.0168031
-0.0160039
-0.0151041
-0.0140847
-0.0129299
-0.0116243
-0.0101522
-0.00851153
-0.00683121
-0.00523545
-0.00376551
-0.0026745
-0.00219064
-0.00222171
-0.00256701
-0.000836118
-0.00110802
-0.00152229
-0.00193942
-0.00236413
-0.00284583
-0.0034143
-0.00408545
-0.00486422
-0.00574255
-0.0067027
-0.00772229
-0.00877838
-0.00985003
-0.0109193
-0.0119713
-0.0129945
-0.01398
-0.0149218
-0.015816
-0.0166608
-0.0174558
-0.0182017
-0.0189001
-0.019553
-0.0201623
-0.0207303
-0.0212589
-0.0217497
-0.0222042
-0.0226237
-0.023009
-0.0233607
-0.0236793
-0.023965
-0.0242179
-0.0244379
-0.0246251
-0.0247793
-0.0249002
-0.0249879
-0.0250422
-0.0250632
-0.025051
-0.0250057
-0.0249278
-0.0248177
-0.0246761
-0.0245036
-0.0243011
-0.0240697
-0.0238104
-0.0235243
-0.0232126
-0.0228764
-0.0225167
-0.0221343
-0.0217298
-0.0213033
-0.020854
-0.0203804
-0.0198799
-0.0193479
-0.0187779
-0.0181611
-0.0174855
-0.0167363
-0.0158959
-0.0149447
-0.0138651
-0.0126419
-0.0112568
-0.00970151
-0.00801964
-0.00644749
-0.0049609
-0.00376362
-0.00312919
-0.00307293
-0.00347294
-0.00148524
-0.00174556
-0.00214907
-0.00256649
-0.00299935
-0.0034921
-0.00407215
-0.00475403
-0.00554129
-0.00642486
-0.00738638
-0.00840318
-0.00945243
-0.0105135
-0.0115691
-0.0126049
-0.0136099
-0.0145762
-0.0154981
-0.0163725
-0.0171982
-0.017975
-0.0187043
-0.0193875
-0.0200269
-0.0206245
-0.0211825
-0.0217026
-0.0221865
-0.0226355
-0.0230507
-0.0234329
-0.0237825
-0.0240999
-0.0243853
-0.0246385
-0.0248596
-0.0250483
-0.0252045
-0.0253278
-0.0254182
-0.0254755
-0.0254997
-0.0254909
-0.0254491
-0.0253748
-0.0252682
-0.0251301
-0.0249611
-0.0247621
-0.024534
-0.0242779
-0.023995
-0.0236865
-0.0233536
-0.0229974
-0.0226191
-0.0222193
-0.0217986
-0.0213569
-0.0208932
-0.0204055
-0.0198905
-0.0193429
-0.0187547
-0.0181156
-0.0174117
-0.0166263
-0.0157401
-0.0147342
-0.0135942
-0.0123023
-0.0108388
-0.00919236
-0.00763361
-0.00617783
-0.00492441
-0.00415973
-0.00402123
-0.00446817
-0.00215936
-0.00240664
-0.00279692
-0.00321149
-0.0036492
-0.00414927
-0.00473667
-0.00542442
-0.00621482
-0.00709808
-0.00805551
-0.00906443
-0.0101023
-0.011149
-0.0121878
-0.0132049
-0.0141902
-0.015136
-0.0160377
-0.0168924
-0.0176994
-0.018459
-0.0191726
-0.0198419
-0.020469
-0.0210562
-0.0216053
-0.0221181
-0.0225962
-0.0230407
-0.0234526
-0.0238325
-0.0241808
-0.0244977
-0.0247832
-0.0250373
-0.0252597
-0.0254503
-0.0256086
-0.0257345
-0.0258277
-0.0258881
-0.0259155
-0.0259099
-0.0258715
-0.0258004
-0.0256972
-0.0255624
-0.0253965
-0.0252005
-0.0249753
-0.024722
-0.0244418
-0.0241359
-0.0238056
-0.0234523
-0.0230771
-0.0226811
-0.022265
-0.0218293
-0.0213736
-0.0208967
-0.020396
-0.0198674
-0.0193042
-0.0186974
-0.0180343
-0.0172994
-0.016474
-0.0155383
-0.0144763
-0.0132715
-0.0119024
-0.0103574
-0.00879454
-0.00738013
-0.00611357
-0.00525462
-0.00505481
-0.00552496
-0.00284598
-0.00307903
-0.00345397
-0.00386303
-0.00430261
-0.00480668
-0.00539765
-0.00608706
-0.00687607
-0.00775439
-0.00870328
-0.0097003
-0.0107233
-0.0117528
-0.0127725
-0.0137695
-0.014734
-0.0156591
-0.0165405
-0.0173761
-0.0181652
-0.0189086
-0.0196076
-0.0202641
-0.0208803
-0.0214581
-0.0219995
-0.0225061
-0.0229794
-0.0234202
-0.0238295
-0.0242078
-0.0245553
-0.0248722
-0.0251583
-0.0254135
-0.0256376
-0.0258302
-0.0259909
-0.0261194
-0.0262155
-0.0262788
-0.0263093
-0.0263069
-0.0262717
-0.0262038
-0.0261037
-0.0259719
-0.0258089
-0.0256156
-0.025393
-0.0251421
-0.0248641
-0.0245604
-0.0242322
-0.0238811
-0.0235084
-0.0231153
-0.022703
-0.0222721
-0.0218229
-0.0213548
-0.0208662
-0.0203538
-0.0198123
-0.0192338
-0.0186072
-0.0179181
-0.0171489
-0.0162798
-0.0152928
-0.0141721
-0.0128966
-0.0114596
-0.00991755
-0.00855262
-0.00730074
-0.00638252
-0.00613912
-0.00658374
-0.0035332
-0.00375099
-0.00410899
-0.00451041
-0.00494928
-0.00545443
-0.00604575
-0.00673327
-0.00751716
-0.00838682
-0.0093237
-0.0103058
-0.0113115
-0.0123218
-0.0133211
-0.014297
-0.0152404
-0.0161449
-0.0170067
-0.0178239
-0.0185961
-0.0193243
-0.0200099
-0.0206548
-0.0212611
-0.0218308
-0.0223655
-0.0228668
-0.023336
-0.0237739
-0.0241813
-0.0245585
-0.0249057
-0.0252229
-0.0255099
-0.0257666
-0.0259924
-0.0261871
-0.0263503
-0.0264815
-0.0265803
-0.0266466
-0.0266801
-0.0266808
-0.0266486
-0.0265837
-0.0264865
-0.0263574
-0.026197
-0.0260062
-0.0257859
-0.0255371
-0.025261
-0.0249591
-0.0246328
-0.0242834
-0.0239126
-0.0235219
-0.0231124
-0.0226854
-0.0222416
-0.0217808
-0.0213022
-0.0208036
-0.0202808
-0.0197271
-0.0191329
-0.0184851
-0.0177672
-0.0169601
-0.016045
-0.0150084
-0.0138321
-0.0124965
-0.0109933
-0.00966297
-0.00845818
-0.00751306
-0.00722184
-0.00758716
-0.00421018
-0.00441186
-0.0047517
-0.0051438
-0.00557979
-0.00608356
-0.00667253
-0.00735532
-0.00813119
-0.00898931
-0.00991159
-0.0108766
-0.0118633
-0.0128533
-0.0138315
-0.0147863
-0.0157088
-0.0165932
-0.0174361
-0.0182358
-0.0189924
-0.0197065
-0.0203799
-0.0210144
-0.021612
-0.0221744
-0.0227033
-0.0232002
-0.023666
-0.0241016
-0.0245075
-0.024884
-0.0252313
-0.0255491
-0.0258373
-0.0260955
-0.0263232
-0.0265202
-0.0266857
-0.0268195
-0.0269212
-0.0269903
-0.0270267
-0.0270302
-0.0270009
-0.0269388
-0.0268443
-0.0267177
-0.0265598
-0.0263712
-0.0261529
-0.0259059
-0.0256316
-0.0253312
-0.0250063
-0.0246584
-0.0242891
-0.0239001
-0.023493
-0.0230691
-0.0226295
-0.0221748
-0.0217047
-0.0212178
-0.020711
-0.0201789
-0.0196133
-0.0190025
-0.0183312
-0.0175811
-0.016733
-0.0157738
-0.0146878
-0.0134529
-0.012044
-0.0107205
-0.00955988
-0.0086136
-0.00826403
-0.00854059
-0.0048666
-0.0050519
-0.00537287
-0.00575437
-0.00618573
-0.00668611
-0.00727057
-0.00794645
-0.00871227
-0.00955655
-0.0104625