/*--------------------------------*- C++ -*----------------------------------*\
  =========                 |
  \\      /  F ield         | OpenFOAM: The Open Source CFD Toolbox
   \\    /   O peration     | Website:  https://openfoam.org
    \\  /    A nd           | Version:  13
     \\/     M anipulation  |
\*---------------------------------------------------------------------------*/
FoamFile
{
    format      ascii;
    class       surfaceScalarField;
    location    "3.4";
    object      phi;
}
// * * * * * * * * * * * * * * * * * * * * * * * * * * * * * * * * * * * * * //

dimensions      [0 3 -1 0 0 0 0];

internalField   nonuniform List<scalar> 
12640
(
2.07726e-09
-2.07747e-09
1.3275e-08
-1.11978e-08
3.17491e-08
-1.84741e-08
5.27237e-08
-2.09746e-08
7.17816e-08
-1.90579e-08
8.64432e-08
-1.46616e-08
9.57665e-08
-9.32327e-09
1.00319e-07
-4.5522e-09
1.01537e-07
-1.21808e-09
1.00976e-07
5.60389e-10
9.99313e-08
1.04505e-09
9.92394e-08
6.91902e-10
9.92012e-08
3.82082e-11
9.98066e-08
-6.05425e-10
1.00597e-07
-7.89951e-10
1.00988e-07
-3.91078e-10
1.00479e-07
5.08193e-10
9.85656e-08
1.91378e-09
9.45814e-08
3.98424e-09
8.78512e-08
6.73022e-09
7.78661e-08
9.98505e-09
6.41797e-08
1.36864e-08
4.64859e-08
1.76937e-08
2.46601e-08
2.18259e-08
-1.27231e-09
2.59324e-08
-3.15036e-08
3.02313e-08
-6.67759e-08
3.52722e-08
-1.08308e-07
4.15323e-08
-1.57866e-07
4.95579e-08
-2.17253e-07
5.93871e-08
-2.86865e-07
6.96116e-08
-3.65408e-07
7.85429e-08
-4.50866e-07
8.54589e-08
-5.4122e-07
9.03534e-08
-6.3435e-07
9.31303e-08
-7.28252e-07
9.39023e-08
-8.21071e-07
9.28184e-08
-9.11163e-07
9.00925e-08
-9.97107e-07
8.59439e-08
-1.0777e-06
8.05901e-08
-1.15194e-06
7.42377e-08
-1.21895e-06
6.70127e-08
-1.27799e-06
5.90408e-08
-1.32838e-06
5.03882e-08
-1.36946e-06
4.10847e-08
-1.40057e-06
3.11134e-08
-1.42097e-06
2.03934e-08
-1.43084e-06
9.87037e-09
-1.42976e-06
-1.08094e-09
-1.41596e-06
-1.37994e-08
-1.39016e-06
-2.58012e-08
-1.3511e-06
-3.90608e-08
-1.29897e-06
-5.21287e-08
-1.23356e-06
-6.54097e-08
-1.15522e-06
-7.83408e-08
-1.06448e-06
-9.07331e-08
-9.62277e-07
-1.02207e-07
-8.49635e-07
-1.12642e-07
-7.27942e-07
-1.21693e-07
-5.99148e-07
-1.28793e-07
-4.65789e-07
-1.33359e-07
-3.30981e-07
-1.34808e-07
-1.98227e-07
-1.32755e-07
-7.13193e-08
-1.26908e-07
4.58699e-08
-1.17189e-07
1.49615e-07
-1.03746e-07
2.35443e-07
-8.58275e-08
3.00511e-07
-6.50683e-08
3.42322e-07
-4.18109e-08
3.59623e-07
-1.7301e-08
3.52071e-07
7.55255e-09
3.22805e-07
2.92656e-08
2.75038e-07
4.77672e-08
2.15307e-07
5.97303e-08
1.5354e-07
6.17677e-08
9.72678e-08
5.62718e-08
5.18143e-08
4.54536e-08
1.98686e-08
3.19457e-08
3.0344e-09
1.68342e-08
3.0344e-09
9.32611e-09
-1.14036e-08
3.55199e-08
-3.73916e-08
7.08443e-08
-5.37985e-08
1.06818e-07
-5.69479e-08
1.37848e-07
-5.00882e-08
1.61112e-07
-3.79255e-08
1.76104e-07
-2.43155e-08
1.83527e-07
-1.19748e-08
1.84675e-07
-2.36666e-09
1.81088e-07
4.14783e-09
1.74254e-07
7.87893e-09
1.65168e-07
9.77725e-09
1.54241e-07
1.09651e-08
1.41139e-07
1.2497e-08
1.25217e-07
1.51319e-08
1.05724e-07
1.91019e-08
8.18735e-08
2.43589e-08
5.27607e-08
3.10266e-08
1.74161e-08
3.93288e-08
-2.53072e-08
4.94535e-08
-7.68796e-08
6.15575e-08
-1.38571e-07
7.53773e-08
-2.11243e-07
9.03659e-08
-2.95598e-07
1.06181e-07
-3.9214e-07
1.22474e-07
-5.00853e-07
1.38944e-07
-6.20577e-07
1.54996e-07
-7.48896e-07
1.69851e-07
-8.82539e-07
1.83201e-07
-1.01757e-06
1.9442e-07
-1.15077e-06
2.02806e-07
-1.28045e-06
2.08222e-07
-1.40522e-06
2.10233e-07
-1.5237e-06
2.08837e-07
-1.63472e-06
2.04143e-07
-1.73734e-06
1.96525e-07
-1.83092e-06
1.86401e-07
-1.91498e-06
1.74147e-07
-1.98916e-06
1.60132e-07
-2.05321e-06
1.44637e-07
-2.10691e-06
1.27938e-07
-2.15008e-06
1.10178e-07
-2.18253e-06
9.14986e-08
-2.20413e-06
7.19816e-08
-2.2147e-06
5.16606e-08
-2.21414e-06
3.05506e-08
-2.20219e-06
8.44409e-09
-2.17845e-06
-1.38664e-08
-2.14256e-06
-3.69776e-08
-2.09492e-06
-6.14354e-08
-2.03458e-06
-8.61443e-08
-1.96205e-06
-1.11591e-07
-1.87688e-06
-1.37297e-07
-1.77918e-06
-1.63107e-07
-1.66896e-06
-1.88566e-07
-1.5465e-06
-2.13191e-07
-1.41236e-06
-2.36347e-07
-1.26767e-06
-2.57328e-07
-1.11406e-06
-2.75306e-07
-9.53578e-07
-2.89277e-07
-7.88567e-07
-2.9837e-07
-6.21773e-07
-3.01602e-07
-4.56335e-07
-2.98192e-07
-2.95661e-07
-2.87582e-07
-1.4343e-07
-2.6942e-07
-3.51241e-09
-2.43663e-07
1.21601e-07
-2.10941e-07
2.27768e-07
-1.71235e-07
3.12342e-07
-1.26385e-07
3.72977e-07
-7.79362e-08
4.0882e-07
-2.82902e-08
4.18416e-07
1.96689e-08
4.02544e-07
6.36397e-08
3.6339e-07
9.88846e-08
3.02571e-07
1.22587e-07
2.27088e-07
1.31755e-07
1.47469e-07
1.25072e-07
7.56102e-08
1.03805e-07
2.31839e-08
6.92605e-08
2.62183e-08
1.62385e-08
-2.76421e-08
5.22286e-08
-7.33817e-08
9.25846e-08
-9.41544e-08
1.28382e-07
-9.27457e-08
1.56175e-07
-7.78809e-08
1.75135e-07
-5.68856e-08
1.85688e-07
-3.48678e-08
1.8849e-07
-1.47773e-08
1.84395e-07
1.72798e-09
1.74289e-07
1.4254e-08
1.59109e-07
2.30589e-08
1.39266e-07
2.96203e-08
1.14619e-07
3.56123e-08
8.45524e-08
4.25636e-08
4.82015e-08
5.14828e-08
4.47677e-09
6.28266e-08
-4.79557e-08
7.67914e-08
-1.10386e-07
9.34566e-08
-1.83933e-07
1.12876e-07
-2.6947e-07
1.3499e-07
-3.67414e-07
1.59501e-07
-4.77668e-07
1.85632e-07
-5.99683e-07
2.12381e-07
-7.32191e-07
2.38689e-07
-8.72975e-07
2.63258e-07
-1.01913e-06
2.85101e-07
-1.16743e-06
3.03297e-07
-1.31484e-06
3.17256e-07
-1.45848e-06
3.26846e-07
-1.59593e-06
3.31863e-07
-1.72541e-06
3.32286e-07
-1.84555e-06
3.28365e-07
-1.95563e-06
3.20318e-07
-2.05548e-06
3.08679e-07
-2.14519e-06
2.93862e-07
-2.2249e-06
2.76231e-07
-2.29478e-06
2.56284e-07
-2.35503e-06
2.34392e-07
-2.4058e-06
2.109e-07
-2.4472e-06
1.86042e-07
-2.47934e-06
1.60076e-07
-2.50226e-06
1.33103e-07
-2.51596e-06
1.05193e-07
-2.52036e-06
7.63787e-08
-2.51531e-06
4.66167e-08
-2.50062e-06
1.58553e-08
-2.4763e-06
-1.58708e-08
-2.44165e-06
-4.85166e-08
-2.39634e-06
-8.22924e-08
-2.34049e-06
-1.1728e-07
-2.2735e-06
-1.53142e-07
-2.19521e-06
-1.89878e-07
-2.10537e-06
-2.27136e-07
-2.00386e-06
-2.64619e-07
-1.89065e-06
-3.01774e-07
-1.76596e-06
-3.37881e-07
-1.63029e-06
-3.72018e-07
-1.48442e-06
-4.03191e-07
-1.32957e-06
-4.30163e-07
-1.16735e-06
-4.51493e-07
-9.99942e-07
-4.6578e-07
-8.29854e-07
-4.7169e-07
-6.60103e-07
-4.67943e-07
-4.9399e-07
-4.53695e-07
-3.34909e-07
-4.28501e-07
-1.85978e-07
-3.92595e-07
-5.07134e-08
-3.46206e-07
6.83276e-08
-2.90276e-07
1.68649e-07
-2.26706e-07
2.48397e-07
-1.57685e-07
3.06461e-07
-8.63534e-08
3.41858e-07
-1.57284e-08
3.54017e-07
5.14802e-08
3.42422e-07
1.1048e-07
3.0817e-07
1.56839e-07
2.54039e-07
1.85886e-07
1.84645e-07
1.94466e-07
1.08779e-07
1.7967e-07
3.93635e-08
1.38677e-07
6.55818e-08
2.14284e-08
-4.90705e-08
6.15594e-08
-1.13513e-07
9.98028e-08
-1.32398e-07
1.29364e-07
-1.22307e-07
1.49131e-07
-9.76475e-08
1.59877e-07
-6.7631e-08
1.62389e-07
-3.73799e-08
1.57375e-07
-9.76375e-09
1.45275e-07
1.38277e-08
1.26416e-07
3.3113e-08
1.00564e-07
4.89117e-08
6.73476e-08
6.28363e-08
2.61679e-08
7.6792e-08
-2.3723e-08
9.24545e-08
-8.32163e-08
1.10976e-07
-1.5339e-07
1.33001e-07
-2.35323e-07
1.58724e-07
-3.29884e-07
1.88018e-07
-4.37547e-07
2.2054e-07
-5.58072e-07
2.55515e-07
-6.90397e-07
2.91826e-07
-8.32642e-07
3.27877e-07
-9.82075e-07
3.61814e-07
-1.13563e-06
3.9224e-07
-1.29006e-06
4.17696e-07
-1.44235e-06
4.37383e-07
-1.58968e-06
4.50634e-07
-1.72961e-06
4.57179e-07
-1.8602e-06
4.57436e-07
-1.98048e-06
4.52145e-07
-2.09015e-06
4.41961e-07
-2.18926e-06
4.27468e-07
-2.27815e-06
4.09215e-07
-2.35723e-06
3.87753e-07
-2.42697e-06
3.63601e-07
-2.48787e-06
3.37134e-07
-2.54035e-06
3.08763e-07
-2.58473e-06
2.7877e-07
-2.62125e-06
2.47428e-07
-2.65011e-06
2.14901e-07
-2.67138e-06
1.81339e-07
-2.68508e-06
1.46806e-07
-2.69117e-06
1.1128e-07
-2.68951e-06
7.47214e-08
-2.67991e-06
3.70176e-08
-2.66213e-06
-1.91849e-09
-2.63591e-06
-4.20997e-08
-2.6008e-06
-8.3627e-08
-2.55645e-06
-1.26635e-07
-2.50259e-06
-1.71142e-07
-2.43871e-06
-2.17021e-07
-2.36448e-06
-2.64111e-07
-2.27955e-06
-3.12068e-07
-2.18362e-06
-3.60551e-07
-2.07644e-06
-4.08951e-07
-1.95793e-06
-4.56391e-07
-1.8283e-06
-5.01645e-07
-1.68801e-06
-5.43482e-07
-1.53781e-06
-5.8036e-07
-1.37899e-06
-6.10317e-07
-1.21327e-06
-6.31497e-07
-1.0429e-06
-6.42062e-07
-8.70654e-07
-6.40191e-07
-6.99917e-07
-6.24433e-07
-5.3443e-07
-5.93987e-07
-3.77752e-07
-5.49273e-07
-2.33005e-07
-4.90953e-07
-1.03177e-07
-4.20104e-07
9.18605e-09
-3.39069e-07
1.02436e-07
-2.50934e-07
1.75125e-07
-1.59043e-07
2.2666e-07
-6.7264e-08
2.5745e-07
2.06901e-08
2.67182e-07
1.00748e-07
2.55825e-07
1.68196e-07
2.23749e-07
2.17963e-07
1.73765e-07
2.4445e-07
1.10428e-07
2.43007e-07
4.32266e-08
2.05878e-07
1.08808e-07
2.48976e-08
-7.3968e-08
6.38919e-08
-1.52507e-07
9.51724e-08
-1.63678e-07
1.15587e-07
-1.42722e-07
1.25535e-07
-1.07595e-07
1.26529e-07
-6.86255e-08
1.19461e-07
-3.03117e-08
1.04747e-07
4.95014e-09
8.23522e-08
3.62227e-08
5.1919e-08
6.35462e-08
1.27003e-08
8.81304e-08
-3.61806e-08
1.11717e-07
-9.56177e-08
1.36229e-07
-1.66475e-07
1.63312e-07
-2.49561e-07
1.94062e-07
-3.45539e-07
2.28979e-07
-4.54791e-07
2.67976e-07
-5.77117e-07
3.10343e-07
-7.11574e-07
3.54997e-07
-8.56286e-07
4.00228e-07
-1.00843e-06
4.43973e-07
-1.16489e-06
4.84333e-07
-1.32226e-06
5.19189e-07
-1.47733e-06
5.47308e-07
-1.62697e-06
5.6733e-07
-1.76825e-06
5.7867e-07
-1.8995e-06
5.81886e-07
-2.02014e-06
5.77818e-07
-2.13014e-06
5.67435e-07
-2.22978e-06
5.51779e-07
-2.3195e-06
5.31681e-07
-2.39994e-06
5.0791e-07
-2.47172e-06
4.81e-07
-2.5354e-06
4.51429e-07
-2.59146e-06
4.19661e-07
-2.64036e-06
3.86032e-07
-2.68244e-06
3.50847e-07
-2.71801e-06
3.14341e-07
-2.74727e-06
2.76688e-07
-2.77031e-06
2.37941e-07
-2.78715e-06
1.98172e-07
-2.79778e-06
1.57441e-07
-2.80214e-06
1.15639e-07
-2.80008e-06
7.26641e-08
-2.79141e-06
2.83397e-08
-2.77584e-06
-1.74883e-08
-2.75299e-06
-6.49428e-08
-2.72248e-06
-1.14145e-07
-2.68394e-06
-1.65165e-07
-2.637e-06
-2.18087e-07
-2.58106e-06
-2.72963e-07
-2.51557e-06
-3.29598e-07
-2.44012e-06
-3.8752e-07
-2.35425e-06
-4.4642e-07
-2.25747e-06
-5.0573e-07
-2.1493e-06
-5.6456e-07
-2.02964e-06
-6.21308e-07
-1.8986e-06
-6.74519e-07
-1.75642e-06
-7.22539e-07
-1.60394e-06
-7.62799e-07
-1.44239e-06
-7.93041e-07
-1.27366e-06
-8.10793e-07
-1.1001e-06
-8.13749e-07
-9.24728e-07
-7.99809e-07
-7.51326e-07
-7.67388e-07
-5.84448e-07
-7.16152e-07
-4.27902e-07
-6.47499e-07
-2.8488e-07
-5.63125e-07
-1.58329e-07
-4.65621e-07
-5.0655e-08
-3.58609e-07
3.67137e-08
-2.46411e-07
1.03124e-07
-1.33675e-07
1.48806e-07
-2.49911e-08
1.74414e-07
7.51396e-08
1.80544e-07
1.62066e-07
1.67797e-07
2.3071e-07
1.37108e-07
2.75139e-07
9.10099e-08
2.89105e-07
3.65636e-08
2.60324e-07
1.45372e-07
2.64459e-08
-1.00414e-07
5.96656e-08
-1.85727e-07
8.08969e-08
-1.8491e-07
9.01558e-08
-1.51981e-07
8.93218e-08
-1.06761e-07
7.97662e-08
-5.90699e-08
6.2101e-08
-1.26465e-08
3.62976e-08
3.07536e-08
1.91344e-09
7.06068e-08
-4.19803e-08
1.0744e-07
-9.63827e-08
1.42533e-07
-1.62352e-07
1.77686e-07
-2.40803e-07
2.14681e-07
-3.32405e-07
2.54913e-07
-4.375e-07
2.99157e-07
-5.55982e-07
3.47461e-07
-6.87123e-07
3.99117e-07
-8.29356e-07
4.52576e-07
-9.80163e-07
5.05803e-07
-1.13658e-06
5.56645e-07
-1.29503e-06
6.02423e-07
-1.45196e-06
6.41262e-07
-1.60371e-06
6.70943e-07
-1.74686e-06
6.90459e-07
-1.87957e-06
7.00035e-07
-2.00135e-06
7.00456e-07
-2.11242e-06
6.92953e-07
-2.21331e-06
6.78703e-07
-2.30471e-06
6.58839e-07
-2.38728e-06
6.34349e-07
-2.46165e-06
6.06048e-07
-2.52841e-06
5.74667e-07
-2.5881e-06
5.40693e-07
-2.64124e-06
5.04572e-07
-2.68825e-06
4.66669e-07
-2.72946e-06
4.27244e-07
-2.76514e-06
3.86521e-07
-2.7955e-06
3.44703e-07
-2.82073e-06
3.01915e-07
-2.84084e-06
2.58052e-07
-2.85579e-06
2.13122e-07
-2.86565e-06
1.67301e-07
-2.87035e-06
1.20338e-07
-2.86979e-06
7.21071e-08
-2.86385e-06
2.23968e-08
-2.85237e-06
-2.89634e-08
-2.83507e-06
-8.22463e-08
-2.8115e-06
-1.37715e-07
-2.78115e-06
-1.95514e-07
-2.74353e-06
-2.55705e-07
-2.69809e-06
-3.184e-07
-2.64406e-06
-3.83636e-07
-2.58076e-06
-4.5081e-07
-2.50762e-06
-5.19564e-07
-2.42415e-06
-5.89201e-07
-2.32966e-06
-6.59048e-07
-2.22327e-06
-7.27699e-07
-2.10483e-06
-7.92956e-07
-1.97396e-06
-8.53413e-07
-1.83097e-06
-9.0579e-07
-1.67657e-06
-9.47443e-07
-1.51194e-06
-9.75417e-07
-1.33926e-06
-9.86434e-07
-1.1612e-06
-9.77863e-07
-9.81089e-07
-9.47504e-07
-8.03327e-07
-8.93914e-07
-6.33127e-07
-8.17699e-07
-4.74692e-07
-7.2156e-07
-3.31555e-07
-6.08757e-07
-2.0681e-07
-4.83354e-07
-1.02645e-07
-3.50577e-07
-2.0137e-08
-2.16183e-07
4.07813e-08
-8.59094e-08
8.10613e-08
3.48596e-08
1.02097e-07
1.4103e-07
1.0507e-07
2.27737e-07
9.10116e-08
2.89197e-07
6.22933e-08
3.17823e-07
2.4797e-08
2.9782e-07
1.70169e-07
2.56085e-08
-1.26022e-07
4.91315e-08
-2.0925e-07
5.85236e-08
-1.94302e-07
5.57549e-08
-1.49212e-07
4.3496e-08
-9.45023e-08
2.27399e-08
-3.83138e-08
-6.38589e-09
1.64792e-08
-4.43309e-08
6.86986e-08
-9.19548e-08
1.18231e-07
-1.50333e-07
1.65818e-07
-2.20605e-07
2.12804e-07
-3.0372e-07
2.60802e-07
-4.00308e-07
3.11268e-07
-5.10538e-07
3.65143e-07
-6.33977e-07
4.22596e-07
-7.69524e-07
4.83008e-07
-9.1526e-07
5.44853e-07
-1.06842e-06
6.05732e-07
-1.22554e-06
6.62924e-07
-1.38293e-06
7.14036e-07
-1.5365e-06
7.55992e-07
-1.68214e-06
7.86907e-07
-1.81752e-06
8.06324e-07
-1.9418e-06
8.14735e-07
-2.05515e-06
8.13387e-07
-2.15825e-06
8.03551e-07
-2.25181e-06
7.86519e-07
-2.33662e-06
7.6351e-07
-2.41343e-06
7.35651e-07
-2.4829e-06
7.0382e-07
-2.54562e-06
6.68763e-07
-2.60205e-06
6.31097e-07
-2.65263e-06
5.91272e-07
-2.69774e-06
5.49682e-07
-2.73771e-06
5.06648e-07
-2.77285e-06
4.6238e-07
-2.80327e-06
4.16941e-07
-2.8291e-06
3.70538e-07
-2.85051e-06
3.23321e-07
-2.86778e-06
2.75328e-07
-2.88107e-06
2.26412e-07
-2.89016e-06
1.76386e-07
-2.89496e-06
1.25139e-07
-2.89534e-06
7.24837e-08
-2.89112e-06
1.81837e-08
-2.88231e-06
-3.77736e-08
-2.86884e-06
-9.57205e-08
-2.85061e-06
-1.5594e-07
-2.82745e-06
-2.1868e-07
-2.799e-06
-2.84152e-07
-2.7649e-06
-3.525e-07
-2.72459e-06
-4.2395e-07
-2.67688e-06
-4.98518e-07
-2.62059e-06
-5.75857e-07
-2.55436e-06
-6.55426e-07
-2.47718e-06
-7.36228e-07
-2.38785e-06
-8.17035e-07
-2.28588e-06
-8.94925e-07
-2.17096e-06
-9.68336e-07
-2.04216e-06
-1.03458e-06
-1.89959e-06
-1.09001e-06
-1.74368e-06
-1.13133e-06
-1.57593e-06
-1.15418e-06
-1.39844e-06
-1.15535e-06
-1.21438e-06
-1.13156e-06
-1.02777e-06
-1.08053e-06
-8.44045e-07
-1.00142e-06
-6.69057e-07
-8.96548e-07
-5.07576e-07
-7.70238e-07
-3.63498e-07
-6.27432e-07
-2.40029e-07
-4.74045e-07
-1.39157e-07
-3.17055e-07
-6.14161e-08
-1.6365e-07
-5.93798e-09
-2.06186e-08
2.90258e-08
1.06066e-07
4.56975e-08
2.11065e-07
4.61033e-08
2.88792e-07
3.28481e-08
3.31079e-07
1.18343e-08
3.18834e-07
1.82003e-07
2.17475e-08
-1.4777e-07
3.33852e-08
-2.20887e-07
2.98082e-08
-1.90725e-07
1.46224e-08
-1.34027e-07
-9.39202e-09
-7.04878e-08
-4.18179e-08
-5.88797e-09
-8.2996e-08
5.76574e-08
-1.33723e-07
1.19426e-07
-1.95054e-07
1.79561e-07
-2.68089e-07
2.38854e-07
-3.53791e-07
2.98506e-07
-4.5278e-07
3.59791e-07
-5.65168e-07
4.23656e-07
-6.90392e-07
4.90367e-07
-8.27196e-07
5.59401e-07
-9.73469e-07
6.29281e-07
-1.12618e-06
6.97564e-07
-1.28167e-06
7.61224e-07
-1.4359e-06
8.17149e-07
-1.58413e-06
8.6227e-07
-1.72309e-06
8.94951e-07
-1.85121e-06
9.15027e-07
-1.96826e-06
9.23372e-07
-2.07467e-06
9.21148e-07
-2.17119e-06
9.09906e-07
-2.25864e-06
8.91006e-07
-2.33789e-06
8.65766e-07
-2.4097e-06
8.3532e-07
-2.47472e-06
8.00665e-07
-2.53347e-06
7.62576e-07
-2.58643e-06
7.21717e-07
-2.63394e-06
6.78615e-07
-2.67635e-06
6.3368e-07
-2.71392e-06
5.87251e-07
-2.74689e-06
5.39619e-07
-2.77558e-06
4.91063e-07
-2.80041e-06
4.41775e-07
-2.82163e-06
3.91761e-07
-2.83923e-06
3.40917e-07
-2.85317e-06
2.89266e-07
-2.86356e-06
2.36809e-07
-2.87043e-06
1.83251e-07
-2.87384e-06
1.2855e-07
-2.87385e-06
7.24952e-08
-2.87044e-06
1.47755e-08
-2.8637e-06
-4.45193e-08
-2.85351e-06
-1.05911e-07
-2.83973e-06
-1.69721e-07
-2.82215e-06
-2.36256e-07
-2.80049e-06
-3.05815e-07
-2.77438e-06
-3.7861e-07
-2.74358e-06
-4.54747e-07
-2.70757e-06
-5.34533e-07
-2.66575e-06
-6.17668e-07
-2.61739e-06
-7.03788e-07
-2.56139e-06
-7.9223e-07
-2.49598e-06
-8.82445e-07
-2.41779e-06
-9.73112e-07
-2.32507e-06
-1.06106e-06
-2.2166e-06
-1.14305e-06
-2.09224e-06
-1.21438e-06
-1.95182e-06
-1.27175e-06
-1.79558e-06
-1.31042e-06
-1.6249e-06
-1.32603e-06
-1.4421e-06
-1.31436e-06
-1.25089e-06
-1.27173e-06
-1.05634e-06
-1.19597e-06
-8.65268e-07
-1.08762e-06
-6.84565e-07
-9.50942e-07
-5.1958e-07
-7.92416e-07
-3.74554e-07
-6.19072e-07
-2.52761e-07
-4.38848e-07
-1.55864e-07
-2.60547e-07
-8.36837e-08
-9.27987e-08
-3.43152e-08
5.66978e-08
-4.71352e-09
1.81463e-07
8.18394e-09
2.75894e-07
8.50405e-09
3.30758e-07
1.7511e-09
3.25587e-07
1.83754e-07
1.50317e-08
-1.62802e-07
1.33491e-08
-2.19205e-07
-3.77922e-09
-1.73596e-07
-3.11093e-08
-1.06697e-07
-6.69816e-08
-3.46155e-08
-1.11316e-07
3.84465e-08
-1.64784e-07
1.11126e-07
-2.28385e-07
1.83027e-07
-3.03182e-07
2.54358e-07
-3.90103e-07
3.25775e-07
-4.8976e-07
3.98163e-07
-6.02264e-07
4.72294e-07
-7.27046e-07
5.48439e-07
-8.62859e-07
6.2618e-07
-1.00756e-06
7.04102e-07
-1.158e-06
7.79718e-07
-1.31026e-06
8.49825e-07
-1.45986e-06
9.10821e-07
-1.60246e-06
9.5975e-07
-1.73525e-06
9.9506e-07
-1.85718e-06
1.01689e-06
-1.96815e-06
1.026e-06
-2.06865e-06
1.02387e-06
-2.15953e-06
1.01202e-06
-2.24166e-06
9.92038e-07
-2.31589e-06
9.65241e-07
-2.38299e-06
9.32865e-07
-2.44359e-06
8.95915e-07
-2.49819e-06
8.55263e-07
-2.54722e-06
8.11609e-07
-2.59106e-06
7.65557e-07
-2.63004e-06
7.17592e-07
-2.66447e-06
6.6811e-07
-2.69466e-06
6.17444e-07
-2.7209e-06
5.65856e-07
-2.7433e-06
5.13466e-07
-2.76199e-06
4.60467e-07
-2.77711e-06
4.06881e-07
-2.78887e-06
3.52679e-07
-2.7975e-06
2.97892e-07
-2.80316e-06
2.42467e-07
-2.80611e-06
1.86203e-07
-2.80653e-06
1.28968e-07
-2.80457e-06
7.05394e-08
-2.80039e-06
1.05886e-08
-2.79399e-06
-5.09209e-08
-2.78533e-06
-1.14563e-07
-2.77441e-06
-1.80644e-07
-2.76116e-06
-2.49507e-07
-2.74547e-06
-3.21502e-07
-2.72715e-06
-3.96933e-07
-2.70582e-06
-4.76078e-07
-2.68112e-06
-5.5923e-07
-2.65238e-06
-6.4641e-07
-2.6187e-06
-7.37472e-07
-2.579e-06
-8.31928e-07
-2.53251e-06
-9.28933e-07
-2.47788e-06
-1.02774e-06
-2.41294e-06
-1.126e-06
-2.33408e-06
-1.22191e-06
-2.23703e-06
-1.31143e-06
-2.12004e-06
-1.38873e-06
-1.98337e-06
-1.4471e-06
-1.82773e-06
-1.48166e-06
-1.65412e-06
-1.48798e-06
-1.46542e-06
-1.46043e-06
-1.26591e-06
-1.39548e-06
-1.06211e-06
-1.29142e-06
-8.6263e-07
-1.15042e-06
-6.75737e-07
-9.7931e-07
-5.07438e-07
-7.8737e-07
-3.6225e-07
-5.84035e-07
-2.43387e-07
-3.7941e-07
-1.51888e-07
-1.84298e-07
-8.65523e-08
-8.63794e-09
-4.40099e-08
1.38921e-07
-1.98444e-08
2.51729e-07
-8.04212e-09
3.18956e-07
-3.82611e-09
3.21371e-07
1.79928e-07
6.04644e-09
-1.68848e-07
-9.63518e-09
-2.03523e-07
-3.97953e-08
-1.43436e-07
-7.93616e-08
-6.71302e-08
-1.27058e-07
1.30807e-08
-1.83224e-07
9.46122e-08
-2.48778e-07
1.7668e-07
-3.2476e-07
2.59008e-07
-4.1208e-07
3.41679e-07
-5.11347e-07
4.25042e-07
-6.22695e-07
5.09511e-07
-7.45622e-07
5.95221e-07
-8.78962e-07
6.81779e-07
-1.02065e-06
7.67863e-07
-1.16756e-06
8.51015e-07
-1.31565e-06
9.27815e-07
-1.46026e-06
9.94433e-07
-1.59752e-06
1.04807e-06
-1.72497e-06
1.08721e-06
-1.84162e-06
1.11171e-06
-1.94737e-06
1.12263e-06
-2.04277e-06
1.1214e-06
-2.12866e-06
1.10977e-06
-2.20597e-06
1.08933e-06
-2.27551e-06
1.06158e-06
-2.33799e-06
1.02773e-06
-2.39403e-06
9.88898e-07
-2.4441e-06
9.45986e-07
-2.48862e-06
8.99786e-07
-2.52796e-06
8.50952e-07
-2.56246e-06
8.00052e-07
-2.59242e-06
7.47552e-07
-2.61814e-06
6.93838e-07
-2.63992e-06
6.39223e-07
-2.658e-06
5.83936e-07
-2.67266e-06
5.28126e-07
-2.68414e-06
4.71943e-07
-2.69269e-06
4.15432e-07
-2.69861e-06
3.58594e-07
-2.70213e-06
3.01412e-07
-2.70345e-06
2.43787e-07
-2.70279e-06
1.85553e-07
-2.70036e-06
1.26529e-07
-2.69629e-06
6.64768e-08
-2.69075e-06
5.04504e-09
-2.68382e-06
-5.78495e-08
-2.67561e-06
-1.22772e-07
-2.66623e-06
-1.9003e-07
-2.65573e-06
-2.60007e-07
-2.64413e-06
-3.33095e-07
-2.63139e-06
-4.09679e-07
-2.61732e-06
-4.9014e-07
-2.60173e-06
-5.74823e-07
-2.58419e-06
-6.63946e-07
-2.56409e-06
-7.57574e-07
-2.54049e-06
-8.55531e-07
-2.51203e-06
-9.57389e-07
-2.47737e-06
-1.06241e-06
-2.43448e-06
-1.16889e-06
-2.38168e-06
-1.27471e-06
-2.31589e-06
-1.37722e-06
-2.23236e-06
-1.47227e-06
-2.12539e-06
-1.55407e-06
-1.9937e-06
-1.61336e-06
-1.83888e-06
-1.6428e-06
-1.66183e-06
-1.63748e-06
-1.46596e-06
-1.59136e-06
-1.25688e-06
-1.5005e-06
-1.04276e-06
-1.36454e-06
-8.34311e-07
-1.18776e-06
-6.41473e-07
-9.80209e-07
-4.70897e-07
-7.54611e-07
-3.27269e-07
-5.23039e-07
-2.13461e-07
-2.98106e-07
-1.29289e-07
-9.28101e-08
-7.21226e-08
8.17545e-08
-3.68033e-08
2.16409e-07
-1.62241e-08
2.98377e-07
-5.30883e-09
3.10456e-07
1.74619e-07
-4.3389e-09
-1.64509e-07
-3.39584e-08
-1.73904e-07
-7.69457e-08
-1.00449e-07
-1.28361e-07
-1.57144e-08
-1.87515e-07
7.22345e-08
-2.5508e-07
1.62177e-07
-3.32056e-07
2.53657e-07
-4.19387e-07
3.46339e-07
-5.17712e-07
4.40004e-07
-6.27217e-07
5.34547e-07
-7.47492e-07
6.29786e-07
-8.77503e-07
7.25232e-07
-1.01533e-06
8.19607e-07
-1.15798e-06
9.10513e-07
-1.30146e-06
9.9449e-07
-1.44125e-06
1.06761e-06
-1.57375e-06
1.12693e-06
-1.69664e-06
1.17096e-06
-1.80876e-06
1.19934e-06
-1.91005e-06
1.21299e-06
-2.00101e-06
1.2136e-06
-2.08252e-06
1.2029e-06
-2.15543e-06
1.18268e-06
-2.22055e-06
1.15446e-06
-2.27856e-06
1.11958e-06
-2.33003e-06
1.0792e-06
-2.37544e-06
1.0343e-06
-2.41521e-06
9.85757e-07
-2.44972e-06
9.34304e-07
-2.47936e-06
8.80584e-07
-2.50446e-06
8.25153e-07
-2.52538e-06
7.6847e-07
-2.54246e-06
7.10918e-07
-2.55603e-06
6.52796e-07
-2.56641e-06
5.94319e-07
-2.57394e-06
5.35649e-07
-2.57889e-06
4.769e-07
-2.58157e-06
4.18109e-07
-2.58224e-06
3.59265e-07
-2.58113e-06
3.00306e-07
-2.57846e-06
2.41113e-07
-2.57442e-06
1.81516e-07
-2.56921e-06
1.21313e-07
-2.56299e-06
6.02582e-08
-2.55596e-06
-1.98464e-09
-2.54824e-06
-6.55707e-08
-2.54e-06
-1.31008e-07
-2.53141e-06
-1.98623e-07
-2.5226e-06
-2.68819e-07
-2.51367e-06
-3.42017e-07
-2.50471e-06
-4.18648e-07
-2.4957e-06
-4.9915e-07
-2.48659e-06
-5.83933e-07
-2.47719e-06
-6.7334e-07
-2.46715e-06
-7.67616e-07
-2.45583e-06
-8.66849e-07
-2.44229e-06
-9.70931e-07
-2.4253e-06
-1.0794e-06
-2.40298e-06
-1.19121e-06
-2.37286e-06
-1.30482e-06
-2.33231e-06
-1.41778e-06
-2.27855e-06
-1.52602e-06
-2.2068e-06
-1.62582e-06
-2.10995e-06
-1.7102e-06
-1.98371e-06
-1.76903e-06
-1.82898e-06
-1.79221e-06
-1.64709e-06
-1.77325e-06
-1.4425e-06
-1.70508e-06
-1.22251e-06
-1.58454e-06
-9.97371e-07
-1.4129e-06
-7.80275e-07
-1.1973e-06
-5.82824e-07
-9.52062e-07
-4.12172e-07
-6.93691e-07
-2.72999e-07
-4.37279e-07
-1.67054e-07
-1.98755e-07
-9.2723e-08
7.42391e-09
-4.51578e-08
1.68844e-07
-1.74669e-08
2.70686e-07
-3.43968e-09
2.96428e-07
1.7118e-07
-1.56813e-08
-1.48828e-07
-5.88131e-08
-1.30772e-07
-1.13841e-07
-4.54213e-08
-1.76445e-07
4.68902e-08
-2.46414e-07
1.42203e-07
-3.24566e-07
2.40329e-07
-4.1188e-07
3.40971e-07
-5.09092e-07
4.43551e-07
-6.16487e-07
5.47399e-07
-7.33776e-07
6.51836e-07
-8.60083e-07
7.56093e-07
-9.93672e-07
8.58821e-07
-1.13177e-06
9.57702e-07
-1.27059e-06
1.04934e-06
-1.40591e-06
1.12981e-06
-1.53425e-06
1.19594e-06
-1.65328e-06
1.24596e-06
-1.76168e-06
1.27936e-06
-1.85922e-06
1.29687e-06
-1.94643e-06
1.30021e-06
-2.02411e-06
1.29127e-06
-2.09311e-06
1.2719e-06
-2.15418e-06
1.24376e-06
-2.208e-06
1.20827e-06
-2.25512e-06
1.1667e-06
-2.29602e-06
1.1201e-06
-2.33116e-06
1.06944e-06
-2.36097e-06
1.01556e-06
-2.38585e-06
9.59188e-07
-2.40623e-06
9.00965e-07
-2.42252e-06
8.41442e-07
-2.43512e-06
7.81072e-07
-2.44442e-06
7.20221e-07
-2.45079e-06
6.59164e-07
-2.45458e-06
5.98105e-07
-2.45612e-06
5.37187e-07
-2.4557e-06
4.76484e-07
-2.4536e-06
4.16004e-07
-2.45004e-06
3.5571e-07
-2.44525e-06
2.95511e-07
-2.4394e-06
2.35269e-07
-2.43269e-06
1.74806e-07
-2.42529e-06
1.13911e-07
-2.41736e-06
5.23305e-08
-2.40913e-06
-1.0217e-08
-2.40069e-06
-7.4013e-08
-2.39226e-06
-1.39434e-07
-2.38403e-06
-2.0685e-07
-2.37619e-06
-2.76664e-07
-2.3689e-06
-3.49306e-07
-2.36232e-06
-4.25227e-07
-2.35658e-06
-5.04896e-07
-2.35173e-06
-5.88777e-07
-2.34777e-06
-6.77302e-07
-2.34454e-06
-7.70848e-07
-2.3417e-06
-8.69691e-07
-2.33867e-06
-9.73954e-07
-2.33458e-06
-1.08349e-06
-2.32802e-06
-1.19778e-06
-2.31703e-06
-1.31581e-06
-2.29905e-06
-1.43576e-06
-2.2703e-06
-1.55478e-06
-2.22725e-06
-1.66887e-06
-2.16513e-06
-1.77233e-06
-2.07618e-06
-1.85798e-06
-1.95419e-06
-1.9142e-06
-1.79805e-06
-1.92939e-06
-1.60942e-06
-1.89371e-06
-1.39436e-06
-1.79959e-06
-1.1623e-06
-1.64496e-06
-9.26243e-07
-1.43336e-06
-7.02104e-07
-1.1762e-06
-5.02876e-07
-8.92919e-07
-3.35981e-07
-6.04174e-07
-2.05405e-07
-3.29331e-07
-1.11198e-07
-8.67826e-08
-4.9718e-08
1.07364e-07
-1.49429e-08
2.35911e-07
1.94004e-10
2.81292e-07
1.71374e-07
-2.71352e-08
-1.21693e-07
-8.28917e-08
-7.50154e-08
-1.49117e-07
2.08035e-08
-2.22103e-07
1.19877e-07
-3.01964e-07
2.22064e-07
-3.89586e-07
3.27951e-07
-4.85831e-07
4.37215e-07
-5.91152e-07
5.48872e-07
-7.05436e-07
6.61682e-07
-8.27993e-07
7.74393e-07
-9.57295e-07
8.85395e-07
-1.09085e-06
9.92379e-07
-1.22524e-06
1.09209e-06
-1.35653e-06
1.18063e-06
-1.48132e-06
1.2546e-06
-1.59716e-06
1.31178e-06
-1.70258e-06
1.35138e-06
-1.79716e-06
1.37394e-06
-1.88131e-06
1.38103e-06
-1.9558e-06
1.3747e-06
-2.02144e-06
1.35691e-06
-2.07897e-06
1.32943e-06
-2.12906e-06
1.29384e-06
-2.17225e-06
1.25147e-06
-2.20907e-06
1.20351e-06
-2.24e-06
1.15103e-06
-2.26552e-06
1.09496e-06
-2.2861e-06
1.03615e-06
-2.30223e-06
9.75321e-07
-2.3144e-06
9.13126e-07
-2.32304e-06
8.50091e-07
-2.32861e-06
7.86642e-07
-2.33151e-06
7.23117e-07
-2.33211e-06
6.59762e-07
-2.33075e-06
5.96745e-07
-2.32773e-06
5.34169e-07
-2.32331e-06
4.72067e-07
-2.31772e-06
4.10414e-07
-2.31116e-06
3.49143e-07
-2.30379e-06
2.88139e-07
-2.29577e-06
2.2725e-07
-2.28725e-06
1.66291e-07
-2.27839e-06
1.05046e-07
-2.26933e-06
4.32696e-08
-2.26024e-06
-1.9306e-08
-2.25127e-06
-8.29788e-08
-2.24262e-06
-1.48085e-07
-2.23449e-06
-2.14984e-07
-2.22708e-06
-2.84068e-07
-2.22063e-06
-3.5576e-07
-2.21534e-06
-4.30513e-07
-2.21143e-06
-5.08806e-07
-2.20907e-06
-5.91134e-07
-2.20839e-06
-6.7799e-07
-2.20939e-06
-7.69847e-07
-2.21195e-06
-8.67122e-07
-2.21578e-06
-9.70125e-07
-2.22029e-06
-1.07898e-06
-2.22452e-06
-1.19355e-06
-2.22706e-06
-1.31327e-06
-2.22583e-06
-1.43698e-06
-2.21788e-06
-1.56273e-06
-2.19937e-06
-1.68738e-06
-2.16543e-06
-1.80627e-06
-2.11076e-06
-1.91265e-06
-2.02674e-06
-1.99822e-06
-1.90639e-06
-2.04974e-06
-1.74633e-06
-2.05377e-06
-1.5486e-06
-1.99732e-06
-1.32127e-06
-1.87229e-06
-1.07655e-06
-1.67807e-06
-8.30981e-07
-1.42177e-06
-6.03222e-07
-1.12068e-06
-4.07037e-07
-8.00359e-07
-2.49508e-07
-4.8686e-07
-1.33115e-07
-2.03175e-07
-5.57337e-08
2.99821e-08
-1.26309e-08
1.92808e-07
3.9587e-09
2.64702e-07
1.75333e-07
-3.81384e-08
-8.35544e-08
-1.05376e-07
-7.77796e-09
-1.81698e-07
9.71259e-08
-2.6404e-07
2.02219e-07
-3.52642e-07
3.10665e-07
-4.48376e-07
4.23686e-07
-5.5192e-07
5.4076e-07
-6.63405e-07
6.60357e-07
-7.82381e-07
7.80658e-07
-9.07563e-07
8.99575e-07
-1.03678e-06
1.01461e-06
-1.16707e-06
1.12266e-06
-1.29478e-06
1.2198e-06
-1.4166e-06
1.30245e-06
-1.52994e-06
1.36795e-06
-1.63313e-06
1.41496e-06
-1.72553e-06
1.44378e-06
-1.80738e-06
1.45579e-06
-1.87939e-06
1.45303e-06
-1.94233e-06
1.43765e-06
-1.99696e-06
1.41153e-06
-2.04392e-06
1.37639e-06
-2.08379e-06
1.33371e-06
-2.11712e-06
1.2848e-06
-2.14445e-06
1.23084e-06
-2.1663e-06
1.17288e-06
-2.18323e-06
1.11189e-06
-2.19578e-06
1.04869e-06
-2.20448e-06
9.84024e-07
-2.20985e-06
9.18499e-07
-2.21237e-06
8.5261e-07
-2.21247e-06
7.86745e-07
-2.21056e-06
7.21198e-07
-2.20696e-06
6.56165e-07
-2.20198e-06
5.91766e-07
-2.19587e-06
5.28057e-07
-2.18883e-06
4.65029e-07
-2.18104e-06
4.02625e-07
-2.17265e-06
3.40748e-07
-2.16377e-06
2.79261e-07
-2.15452e-06
2.18002e-07
-2.14501e-06
1.56783e-07
-2.13536e-06
9.5391e-08
-2.12568e-06
3.35902e-08
-2.11611e-06
-2.88755e-08
-2.1068e-06
-9.22873e-08
-2.09793e-06
-1.56954e-07
-2.08971e-06
-2.2321e-07
-2.08235e-06
-2.91424e-07
-2.07612e-06
-3.61995e-07
-2.07127e-06
-4.35363e-07
-2.06807e-06
-5.11998e-07
-2.0668e-06
-5.92407e-07
-2.06767e-06
-6.77117e-07
-2.07085e-06
-7.66665e-07
-2.07641e-06
-8.61571e-07
-2.08423e-06
-9.62298e-07
-2.09402e-06
-1.0692e-06
-2.10515e-06
-1.18242e-06
-2.1166e-06
-1.30182e-06
-2.12681e-06
-1.42677e-06
-2.13353e-06
-1.556e-06
-2.13361e-06
-1.6873e-06
-2.12276e-06
-1.81712e-06
-2.09538e-06
-1.94003e-06
-2.0452e-06
-2.04841e-06
-1.96325e-06
-2.13169e-06
-1.84109e-06
-2.17593e-06
-1.67394e-06
-2.16447e-06
-1.46454e-06
-2.08169e-06
-1.22347e-06
-1.91914e-06
-9.66723e-07
-1.67852e-06
-7.1487e-07
-1.37253e-06
-4.89096e-07
-1.02613e-06
-3.02978e-07
-6.72977e-07
-1.62192e-07
-3.43962e-07
-6.69095e-08
-6.53001e-08
-1.34828e-08
1.39381e-07
6.30437e-09
2.44915e-07
1.81637e-07
-4.83187e-08
-3.52357e-08
-1.25458e-07
6.93611e-08
-2.10755e-07
1.82423e-07
-3.01223e-07
2.92686e-07
-3.97222e-07
4.06665e-07
-4.99533e-07
5.25997e-07
-6.08612e-07
6.49838e-07
-7.2434e-07
7.76086e-07
-8.45746e-07
9.02064e-07
-9.70949e-07
1.02478e-06
-1.09745e-06
1.14112e-06
-1.22197e-06
1.24718e-06
-1.34133e-06
1.33915e-06
-1.45282e-06
1.41395e-06
-1.55451e-06
1.46964e-06
-1.64554e-06
1.50599e-06
-1.72591e-06
1.52415e-06
-1.79621e-06
1.52609e-06
-1.85722e-06
1.51404e-06
-1.90966e-06
1.49008e-06
-1.9542e-06
1.45608e-06
-1.99147e-06
1.41366e-06
-2.02204e-06
1.36428e-06
-2.04648e-06
1.30925e-06
-2.06541e-06
1.24976e-06
-2.07941e-06
1.18689e-06
-2.0891e-06
1.12158e-06
-2.09507e-06
1.05466e-06
-2.09789e-06
9.86843e-07
-2.09807e-06
9.1868e-07
-2.09608e-06
8.50618e-07
-2.09233e-06
7.82992e-07
-2.08716e-06
7.16031e-07
-2.08087e-06
6.49876e-07
-2.0737e-06
5.84594e-07
-2.06583e-06
5.20188e-07
-2.05741e-06
4.5661e-07
-2.04856e-06
3.9377e-07
-2.03936e-06
3.31548e-07
-2.02989e-06
2.69789e-07
-2.02021e-06
2.08322e-07
-2.01038e-06
1.46963e-07
-2.0005e-06
8.55034e-08
-1.99063e-06
2.37245e-08
-1.98089e-06
-3.86141e-08
-1.97141e-06
-1.01766e-07
-1.96236e-06
-1.66008e-07
-1.95393e-06
-2.31644e-07
-1.94634e-06
-2.99006e-07
-1.93988e-06
-3.6846e-07
-1.93483e-06
-4.40415e-07
-1.9315e-06
-5.15321e-07
-1.93024e-06
-5.93672e-07
-1.93135e-06
-6.76008e-07
-1.93511e-06
-7.62902e-07
-1.94173e-06
-8.54947e-07
-1.95131e-06
-9.52723e-07
-1.96375e-06
-1.05676e-06