# vtk DataFile Version 2.0
tracks
ASCII
DATASET POLYDATA
POINTS 12025 float
-0.0206 0.000999965 1e-05 -0.02058 0.000999968 1e-05 -0.02056 0.000999972 1e-05 -0.02054 0.000999979
1e-05 -0.02052 0.000999988 1e-05 -0.0205 0.001 1e-05 -0.0202034 0.00100017 1e-05
-0.0199069 0.00100063 1e-05 -0.0196103 0.00100136 1e-05 -0.0193137 0.00100236 1e-05 -0.0190172
0.00100362 1e-05 -0.0187132 0.00100514 1e-05 -0.0184093 0.00100675 1e-05 -0.0181054 0.00100844
1e-05 -0.0178015 0.00101021 1e-05 -0.0174976 0.00101205 1e-05 -0.0172058 0.00101389 1e-05
-0.016914 0.00101574 1e-05 -0.0166222 0.00101762 1e-05 -0.0163305 0.00101953 1e-05 -0.0160387
0.00102146 1e-05 -0.0158796 0.00102253 1e-05 -0.0157206 0.00102361 1e-05 -0.0155615 0.0010247
1e-05 -0.0154025 0.0010258 1e-05 -0.015257 0.00102682 1e-05 -0.0151332 0.00102769 1e-05
-0.0150094 0.00102856 1e-05 -0.0148857 0.00102945 1e-05 -0.0147619 0.00103034 1e-05 -0.0146381
0.00103123 1e-05 -0.0143692 0.00103319 1e-05 -0.0141002 0.00103516 1e-05 -0.0138313 0.00103715
1e-05 -0.0135624 0.00103916 1e-05 -0.0132934 0.00104118 1e-05 -0.0130353 0.00104314 1e-05
-0.0127771 0.00104509 1e-05 -0.0125189 0.00104705 1e-05 -0.0122607 0.001049 1e-05 -0.0120025
0.00105094 1e-05 -0.0117547 0.00105281 1e-05 -0.0115068 0.00105466 1e-05 -0.0112589 0.0010565
1e-05 -0.0110111 0.00105831 1e-05 -0.0107632 0.00106012 1e-05 -0.0105252 0.00106184 1e-05
-0.0102873 0.00106353 1e-05 -0.0100493 0.00106521 1e-05 -0.00981133 0.00106688 1e-05 -0.00957337
0.00106852 1e-05 -0.00934491 0.0010701 1e-05 -0.00911645 0.00107165 1e-05 -0.00888799 0.00107319
1e-05 -0.00865954 0.00107472 1e-05 -0.00843108 0.00107623 1e-05 -0.00821175 0.00107768 1e-05
-0.00799242 0.00107911 1e-05 -0.00777309 0.00108052 1e-05 -0.00755376 0.00108192 1e-05 -0.00733443
0.00108331 1e-05 -0.00712387 0.00108463 1e-05 -0.0069133 0.00108593 1e-05 -0.00670273 0.00108722
1e-05 -0.00649216 0.00108849 1e-05 -0.0062816 0.00108974 1e-05 -0.00607944 0.00109094 1e-05
-0.00587729 0.00109212 1e-05 -0.00567514 0.00109329 1e-05 -0.00547298 0.00109444 1e-05 -0.00527083
0.00109558 1e-05 -0.00507675 0.00109668 1e-05 -0.00488267 0.00109776 1e-05 -0.0046886 0.00109884
1e-05 -0.00449452 0.00109991 1e-05 -0.00430044 0.00110097 1e-05 -0.00411412 0.00110198 1e-05
-0.0039278 0.00110299 1e-05 -0.00374147 0.00110398 1e-05 -0.00355515 0.00110497 1e-05 -0.00336883
0.00110595 1e-05 -0.00318995 0.00110688 1e-05 -0.00301107 0.0011078 1e-05 -0.00283219 0.00110871
1e-05 -0.00265331 0.00110961 1e-05 -0.00247443 0.0011105 1e-05 -0.0023027 0.00111134 1e-05
-0.00213097 0.00111218 1e-05 -0.00195924 0.00111299 1e-05 -0.0017875 0.0011138 1e-05 -0.00161577
0.00111459 1e-05 -0.0014509 0.00111535 1e-05 -0.00128603 0.00111609 1e-05 -0.00112116 0.00111682
1e-05 -0.000956289 0.00111754 1e-05 -0.000791418 0.00111825 1e-05 -0.000633135 0.00111892 1e-05
-0.000474851 0.00111959 1e-05 -0.000316567 0.00112025 1e-05 -0.000158284 0.0011209 1e-05 0
0.00112155 1e-05 0.000105677 0.00112197 1e-05 0.000211355 0.00112239 1e-05 0.000317032 0.00112281
1e-05 0.00042271 0.00112323 1e-05 0.000528387 0.00112364 1e-05 0.000634886 0.00112404 1e-05
0.000741385 0.00112445 1e-05 0.000847885 0.00112485 1e-05 0.000954384 0.00112524 1e-05 0.00106088
0.00112564 1e-05 0.00116821 0.00112602 1e-05 0.00127554 0.00112641 1e-05 0.00138286 0.00112678
1e-05 0.00149019 0.00112715 1e-05 0.00159752 0.00112751 1e-05 0.00170568 0.00112787 1e-05
0.00181384 0.00112822 1e-05 0.001922 0.00112856 1e-05 0.00203016 0.0011289 1e-05 0.00213833
0.00112922 1e-05 0.00224733 0.00112954 1e-05 0.00235633 0.00112985 1e-05 0.00246533 0.00113015
1e-05 0.00257434 0.00113045 1e-05 0.00268334 0.00113073 1e-05 0.00279319 0.00113101 1e-05
0.00290304 0.00113129 1e-05 0.00301289 0.00113155 1e-05 0.00312274 0.00113181 1e-05 0.00323259
0.00113206 1e-05 0.00334329 0.00113231 1e-05 0.003454 0.00113255 1e-05 0.0035647 0.00113278
1e-05 0.0036754 0.00113301 1e-05 0.00378611 0.00113323 1e-05 0.00389767 0.00113345 1e-05
0.00400924 0.00113366 1e-05 0.0041208 0.00113387 1e-05 0.00423237 0.00113407 1e-05 0.00434393
0.00113426 1e-05 0.00445636 0.00113445 1e-05 0.00456879 0.00113463 1e-05 0.00468123 0.00113481
1e-05 0.00479366 0.00113499 1e-05 0.00490609 0.00113516 1e-05 0.0050194 0.00113532 1e-05
0.0051327 0.00113548 1e-05 0.00524601 0.00113564 1e-05 0.00535931 0.00113579 1e-05 0.00547262
0.00113593 1e-05 0.00558681 0.00113607 1e-05 0.005701 0.00113621 1e-05 0.00581518 0.00113634
1e-05 0.00592937 0.00113647 1e-05 0.00604356 0.00113659 1e-05 0.00615863 0.0011367 1e-05
0.00627371 0.00113682 1e-05 0.00638878 0.00113693 1e-05 0.00650386 0.00113703 1e-05 0.00661893
0.00113713 1e-05 0.0067349 0.00113723 1e-05 0.00685087 0.00113732 1e-05 0.00696684 0.0011374
1e-05 0.00708281 0.00113748 1e-05 0.00719878 0.00113756 1e-05 0.00731565 0.00113763 1e-05
0.00743252 0.00113769 1e-05 0.00754939 0.00113775 1e-05 0.00766626 0.00113781 1e-05 0.00778313
0.00113786 1e-05 0.00790091 0.0011379 1e-05 0.00801869 0.00113794 1e-05 0.00813647 0.00113797
1e-05 0.00825425 0.001138 1e-05 0.00837203 0.00113802 1e-05 0.00849073 0.00113803 1e-05
0.00860942 0.00113804 1e-05 0.00872812 0.00113805 1e-05 0.00884682 0.00113804 1e-05 0.00896551
0.00113803 1e-05 0.00908513 0.00113801 1e-05 0.00920475 0.00113799 1e-05 0.00932437 0.00113795
1e-05 0.00944398 0.00113791 1e-05 0.0095636 0.00113786 1e-05 0.00958858 0.00113785 1e-05
0.00961355 0.00113784 1e-05 0.00963853 0.00113783 1e-05 0.0096635 0.00113781 1e-05 0.00968821
0.0011378 1e-05 0.00978384 0.00113775 1e-05 0.00987946 0.00113769 1e-05 0.00997509 0.00113763
1e-05 0.0100707 0.00113756 1e-05 0.0101663 0.00113749 1e-05 0.0102878 0.00113738 1e-05
0.0104093 0.00113727 1e-05 0.0105308 0.00113715 1e-05 0.0106523 0.00113702 1e-05 0.0107738
0.00113689 1e-05 0.0108962 0.00113673 1e-05 0.0110186 0.00113657 1e-05 0.0111411 0.0011364
1e-05 0.0112635 0.00113622 1e-05 0.0113859 0.00113603 1e-05 0.0115093 0.00113582 1e-05
0.0116327 0.00113561 1e-05 0.0117561 0.00113538 1e-05 0.0118795 0.00113515 1e-05 0.0120028
0.0011349 1e-05 0.0121272 0.00113463 1e-05 0.0122515 0.00113436 1e-05 0.0123759 0.00113407
1e-05 0.0125002 0.00113377 1e-05 0.0126245 0.00113347 1e-05 0.0127498 0.00113313 1e-05
0.0128752 0.00113279 1e-05 0.0130005 0.00113244 1e-05 0.0131258 0.00113208 1e-05 0.0132511
0.0011317 1e-05 0.0133774 0.0011313 1e-05 0.0135036 0.00113089 1e-05 0.0136299 0.00113047
1e-05 0.0137562 0.00113004 1e-05 0.0138825 0.00112959 1e-05 0.0140098 0.00112911 1e-05
0.014137 0.00112863 1e-05 0.0142643 0.00112814 1e-05 0.0143915 0.00112763 1e-05 0.0145188
0.00112711 1e-05 0.0146471 0.00112655 1e-05 0.0147753 0.001126 1e-05 0.0149036 0.00112543
1e-05 0.0150318 0.00112484 1e-05 0.0151601 0.00112424 1e-05 0.0152893 0.00112361 1e-05
0.0154186 0.00112298 1e-05 0.0155478 0.00112233 1e-05 0.0156771 0.00112166 1e-05 0.0158063
0.00112098 1e-05 0.0159366 0.00112028 1e-05 0.0160668 0.00111956 1e-05 0.0161971 0.00111883
1e-05 0.0163273 0.00111808 1e-05 0.0164576 0.00111732 1e-05 0.0165889 0.00111654 1e-05
0.0167201 0.00111574 1e-05 0.0168514 0.00111492 1e-05 0.0169827 0.00111409 1e-05 0.0171139
0.00111325 1e-05 0.0172462 0.00111239 1e-05 0.0173785 0.00111151 1e-05 0.0175108 0.00111061
1e-05 0.0176431 0.0011097 1e-05 0.0177754 0.00110877 1e-05 0.0179087 0.00110784 1e-05
0.018042 0.00110688 1e-05 0.0181753 0.0011059 1e-05 0.0183087 0.0011049 1e-05 0.018442
0.0011039 1e-05 0.0185763 0.00110289 1e-05 0.0187107 0.00110185 1e-05 0.018845 0.00110079
1e-05 0.0189794 0.00109972 1e-05 0.0191137 0.00109864 1e-05 0.0192491 0.00109756 1e-05
0.0193845 0.00109645 1e-05 0.0195199 0.00109531 1e-05 0.0196553 0.00109416 1e-05 0.0197907
0.00109302 1e-05 0.0199272 0.00109188 1e-05 0.0200636 0.0010907 1e-05 0.0202001 0.00108949
1e-05 0.0203365 0.00108827 1e-05 0.020473 0.00108706 1e-05 0.0206105 0.00108586 1e-05
0.020748 0.00108462 1e-05 0.0208855 0.00108335 1e-05 0.021023 0.00108207 1e-05 0.0211606
0.0010808 1e-05 0.0212991 0.00107955 1e-05 0.0214377 0.00107827 1e-05 0.0215763 0.00107694
1e-05 0.0217149 0.0010756 1e-05 0.0218535 0.0010743 1e-05 0.0219931 0.00107301 1e-05
0.0221328 0.00107168 1e-05 0.0222724 0.00107031 1e-05 0.0224121 0.00106893 1e-05 0.0225517
0.00106759 1e-05 0.0226925 0.00106627 1e-05 0.0228332 0.00106491 1e-05 0.022974 0.0010635
1e-05 0.0231147 0.0010621 1e-05 0.0232555 0.00106073 1e-05 0.0233973 0.00105939 1e-05
0.0235391 0.00105801 1e-05 0.023681 0.00105659 1e-05 0.0238228 0.00105517 1e-05 0.0239647
0.00105379 1e-05 0.0241076 0.00105244 1e-05 0.0242505 0.00105105 1e-05 0.0243935 0.00104962
1e-05 0.0245364 0.00104819 1e-05 0.0246794 0.00104681 1e-05 0.0248234 0.00104546 1e-05
0.0249675 0.00104408 1e-05 0.0251115 0.00104265 1e-05 0.0252556 0.00104122 1e-05 0.0253996
0.00103985 1e-05 0.0255448 0.00103852 1e-05 0.02569 0.00103714 1e-05 0.0258351 0.00103573
1e-05 0.0259803 0.00103433 1e-05 0.0261255 0.00103297 1e-05 0.0262718 0.00103166 1e-05
0.0264181 0.00103031 1e-05 0.0265644 0.00102892 1e-05 0.0267107 0.00102755 1e-05 0.026857
0.00102622 1e-05 0.0270044 0.00102494 1e-05 0.0271519 0.00102361 1e-05 0.0272993 0.00102227
1e-05 0.0274468 0.00102094 1e-05 0.0275942 0.00101964 1e-05 0.0277428 0.00101839 1e-05
0.0278914 0.0010171 1e-05 0.0280399 0.00101579 1e-05 0.0281885 0.0010145 1e-05 0.0283371
0.00101324 1e-05 0.0284869 0.00101203 1e-05 0.0286366 0.00101077 1e-05 0.0287863 0.00100951
1e-05 0.0289361 0.00100826 1e-05 0.0290858 0.00100704 1e-05 0.0292367 0.00100586 1e-05
0.0293876 0.00100465 1e-05 0.0295385 0.00100343 1e-05 0.0296894 0.00100222 1e-05 0.0298403
0.00100103 1e-05 0.0299924 0.000999887 1e-05 0.0301445 0.000998703 1e-05 0.0302966 0.000997523
1e-05 0.0304486 0.000996353 1e-05 0.0306007 0.000995195 1e-05 0.030754 0.000994075 1e-05
0.0309072 0.000992917 1e-05 0.0310605 0.000991767 1e-05 0.0312138 0.000990625 1e-05 0.031367
0.00098949 1e-05 0.0315215 0.000988387 1e-05 0.0316759 0.000987251 1e-05 0.0318304 0.000986119
1e-05 0.0319848 0.000984993 1e-05 0.0321393 0.000983871 1e-05 0.0322949 0.000982772 1e-05
0.0324506 0.000981643 1e-05 0.0326062 0.000980516 1e-05 0.0327619 0.000979391 1e-05 0.0329175
[...]
POINT_DATA 12025
FIELD attributes 4
age 1 12025 float
-9.99938e-06 -7.99942e-06 -5.9995e-06 -3.99963e-06 -1.99979e-06 0 2.96537e-05 5.92923e-05 8.89154e-05 0.000118523 0.000148116
0.000178406 0.000208687 0.000238945 0.000269179 0.000299392 0.000328359 0.00035732 0.000386263 0.000415188 0.000444094
0.000459837 0.000475577 0.000491313 0.000507043 0.000521426 0.000533662 0.000545894 0.000558123 0.000570349 0.000582572
0.000609119 0.000635652 0.00066217 0.000688673 0.000715161 0.000740573 0.000765978 0.00079137 0.00081675 0.000842116
0.000866449 0.000890782 0.000915105 0.000939419 0.000963722 0.000987035 0.00101035 0.00103366 0.00105697 0.00108027
0.00110262 0.00112497 0.00114733 0.00116968 0.00119202 0.00121346 0.0012349 0.00125634 0.00127778 0.00129922
0.00131978 0.00134036 0.00136093 0.00138151 0.00140208 0.00142182 0.00144157 0.00146131 0.00148106 0.00150082
0.00151977 0.00153873 0.00155769 0.00157665 0.00159561 0.00161381 0.00163202 0.00165023 0.00166843 0.00168665
0.00170413 0.00172161 0.00173909 0.00175658 0.00177407 0.00179086 0.00180765 0.00182445 0.00184124 0.00185804
0.00187418 0.00189031 0.00190644 0.00192257 0.00193871 0.00195422 0.00196971 0.00198521 0.00200071 0.00201621
0.00202657 0.00203693 0.00204728 0.00205763 0.00206798 0.00207843 0.00208887 0.0020993 0.00210974 0.00212019
0.00213072 0.00214124 0.00215177 0.00216229 0.00217282 0.00218345 0.00219406 0.00220467 0.00221529 0.0022259
0.00223662 0.00224732 0.00225802 0.00226873 0.00227943 0.00229024 0.00230103 0.00231183 0.00232262 0.00233342
0.00234433 0.00235521 0.0023661 0.00237699 0.00238789 0.00239889 0.00240987 0.00242085 0.00243184 0.00244284
0.00245393 0.00246501 0.0024761 0.00248719 0.00249828 0.00250948 0.00252066 0.00253185 0.00254304 0.00255424
0.00256554 0.00257683 0.00258812 0.00259942 0.00261072 0.00262213 0.00263353 0.00264493 0.00265634 0.00266775
0.00267927 0.00269078 0.00270229 0.00271381 0.00272534 0.00273697 0.0027486 0.00276023 0.00277187 0.00278351
0.00279526 0.00280701 0.00281876 0.00283052 0.00284229 0.00285417 0.00286604 0.00287792 0.00288981 0.00290171
0.00291371 0.00292572 0.00293773 0.00294975 0.00296179 0.0029643 0.00296682 0.00296933 0.00297185 0.00297433
0.00298397 0.00299361 0.00300325 0.00301291 0.00302256 0.00303485 0.00304714 0.00305944 0.00307175 0.00308407
0.00309652 0.00310897 0.00312142 0.00313388 0.00314636 0.00315898 0.00317158 0.00318419 0.00319681 0.00320945
0.00322224 0.00323501 0.00324779 0.00326058 0.00327338 0.00328636 0.00329929 0.00331225 0.00332521 0.00333819
0.00335135 0.00336447 0.0033776 0.00339075 0.00340392 0.00341727 0.00343058 0.0034439 0.00345724 0.00347059
0.00348414 0.00349764 0.00351116 0.0035247 0.00353825 0.00355201 0.00356571 0.00357943 0.00359317 0.00360693
0.0036209 0.00363482 0.00364875 0.00366271 0.00367669 0.00369087 0.00370502 0.00371917 0.00373334 0.00374756
0.00376196 0.00377634 0.00379072 0.00380513 0.00381957 0.00383421 0.00384882 0.00386344 0.00387808 0.00389277
0.00390764 0.0039225 0.00393736 0.00395224 0.00396718 0.00398229 0.0039974 0.00401251 0.00402765 0.00404283
0.00405819 0.00407355 0.00408892 0.00410432 0.00411977 0.00413538 0.004151 0.00416664 0.0041823 0.004198
0.00421388 0.00422976 0.00424567 0.00426161 0.00427758 0.00429372 0.00430987 0.00432606 0.00434227 0.00435851
0.00437492 0.00439135 0.00440781 0.0044243 0.00444082 0.0044575 0.00447421 0.00449095 0.00450772 0.00452452
0.00454147 0.00455846 0.00457549 0.00459254 0.00460962 0.00462685 0.00464412 0.00466143 0.00467877 0.00469613
0.00471364 0.00473119 0.00474879 0.00476641 0.00478405 0.00480184 0.00481968 0.00483756 0.00485546 0.00487338
0.00489145 0.00490957 0.00492772 0.0049459 0.0049641 0.00498245 0.00500085 0.00501928 0.00503774 0.00505621
0.00507484 0.00509351 0.00511222 0.00513095 0.0051497 0.00516859 0.00518754 0.00520652 0.00522551 0.00524453
0.0052637 0.00528291 0.00530215 0.00532141 0.00534069 0.00536012 0.0053796 0.0053991 0.00541862 0.00543816
0.00545785 0.00547759 0.00549734 0.00551711 0.0055369 0.00555685 0.00557683 0.00559684 0.00561686 0.00563689
0.00565709 0.00567732 0.00569757 0.00571783 0.00573811 0.00575856 0.00577903 0.00579952 0.00582002 0.00584054
0.00586123 0.00588194 0.00590267 0.00592341 0.00594416 0.00596508 0.00598603 0.00600699 0.00602796 0.00604895
0.00607011 0.00609129 0.00611248 0.00613369 0.00615491 0.00615593 0.00615696 0.00615799 0.00615902 0.00616004
0.00618041 0.0062008 0.0062212 0.00624161 0.00626203 0.00628366 0.0063053 0.00632696 0.00634863 0.00637032
0.00639218 0.00641406 0.00643595 0.00645786 0.00647978 0.00650187 0.00652399 0.00654612 0.00656826 0.00659042
0.00661275 0.00663511 0.00665748 0.00667986 0.00670226 0.00672484 0.00674743 0.00677005 0.00679268 0.00681533
0.00683814 0.00686099 0.00688385 0.00690673 0.00692963 0.0069527 0.00697579 0.00699891 0.00702205 0.0070452
0.00706852 0.00709188 0.00711526 0.00713866 0.00716207 0.00718565 0.00720927 0.00723292 0.00725659 0.00728026
0.00730412 0.00732801 0.00735193 0.00737588 0.00739983 0.00742396 0.00744813 0.00747233 0.00749656 0.00752079
0.00754521 0.00756966 0.00759415 0.00761866 0.00764318 0.00766788 0.00769263 0.00771741 0.00774222 0.00776703
0.00779203 0.00781708 0.00784216 0.00786726 0.00789237 0.00791768 0.00794303 0.00796842 0.00799383 0.00801924
0.00804486 0.00807052 0.00809622 0.00812194 0.00814766 0.0081736 0.00819958 0.00822559 0.00825162 0.00827766
0.00830392 0.00833022 0.00835655 0.0083829 0.00840927 0.00843585 0.00846248 0.00848913 0.0085158 0.0085425
0.00856941 0.00859637 0.00862335 0.00865035 0.00867737 0.00870462 0.00873191 0.00875922 0.00878655 0.00881391
0.0088415 0.00886912 0.00889677 0.00892443 0.00895213 0.00898006 0.00900802 0.009036 0.00906401 0.00909205
0.00909988 0.00910771 0.00911555 0.00912338 0.00913118 0.00915165 0.00917215 0.00919265 0.00921317 0.0092337
0.00926233 0.00929097 0.00931965 0.00934835 0.00937708 0.00940604 0.00943504 0.00946407 0.00949312 0.0095222
0.00955152 0.00958087 0.00961025 0.00963966 0.00966909 0.00969876 0.00972847 0.00975821 0.00978797 0.00981776
0.00984779 0.00987785 0.00990795 0.00993808 0.00996822 0.00999861 0.010029 0.0100595 0.01009 0.0101205
0.0101512 0.010182 0.0102129 0.0102437 0.0102746 0.0103057 0.0103368 0.010368 0.0103993 0.0104305
0.010462 0.0104935 0.0105251 0.0105567 0.0105883 0.0106201 0.010652 0.010684 0.0107159 0.0107479
0.0107801 0.0108124 0.0108447 0.0108771 0.0109094 0.010942 0.0109747 0.0110074 0.0110401 0.0110729
0.0111059 0.0111389 0.011172 0.0112051 0.0112382 0.0112716 0.0113051 0.0113385 0.011372 0.0114056
0.0114393 0.0114732 0.0115071 0.0115409 0.0115749 0.0116091 0.0116433 0.0116776 0.0117119 0.0117462
0.0117784 0.0118106 0.0118428 0.011875 0.0119048 0.0119078 0.0119107 0.0119137 0.0119167 0.0119196
0.0119547 0.0119897 0.0120248 0.01206 0.0120951 0.0121306 0.0121661 0.0122017 0.0122372 0.0122729
0.0123088 0.0123447 0.0123807 0.0124168 0.0124529 0.0124892 0.0125257 0.0125621 0.0125986 0.0126352
0.012672 0.0127089 0.0127458 0.0127828 0.0128198 0.0128572 0.0128945 0.012932 0.0129695 0.013007
0.0130448 0.0130827 0.0131206 0.0131586 0.0131966 0.0132349 0.0132733 0.0133118 0.0133502 0.0133888
0.0134276 0.0134666 0.0135055 0.0135445 0.0135836 0.013623 0.0136625 0.013702 0.0137416 0.0137812
0.0138085 0.0138358 0.0138631 0.0138905 0.0139165 0.0139295 0.0139425 0.0139556 0.0139686 0.0139816
0.0140221 0.0140627 0.0141034 0.0141441 0.0141848 0.0142259 0.0142671 0.0143083 0.0143496 0.014391
0.0144327 0.0144744 0.0145163 0.0145582 0.0146001 0.0146424 0.0146848 0.0147273 0.0147698 0.0148124
0.0148553 0.0148983 0.0149414 0.0149846 0.0150278 0.0150714 0.0151151 0.0151589 0.0152027 0.0152465
0.0152908 0.0153352 0.0153796 0.0154241 0.0154687 0.01551 0.0155513 0.0155928 0.0156342 0.0156738
0.0156779 0.015682 0.0156861 0.0156902 0.0156943 0.01574 0.0157858 0.0158316 0.0158775 0.0159235
0.0159699 0.0160164 0.0160629 0.0161096 0.0161563 0.0162035 0.0162507 0.016298 0.0163454 0.0163928
0.0164408 0.0164888 0.0165368 0.016585 0.0166333 0.016682 0.0167308 0.0167796 0.0168286 0.0168777
0.0169272 0.0169768 0.0170265 0.0170763 0.0171262 0.0171766 0.0172271 0.0172777 0.0173283 0.0173791
0.0173816 0.0173841 0.0173866 0.0173891 0.0173916 0.0174404 0.0174893 0.0175382 0.0175873 0.0176364
0.0176886 0.0177409 0.0177932 0.0178457 0.0178983 0.0179514 0.0180047 0.018058 0.0181114 0.018165
0.0182191 0.0182733 0.0183276 0.0183821 0.0184367 0.0184918 0.0185471 0.0186024 0.0186579 0.0187136
0.0187698 0.0188261 0.0188826 0.0189392 0.018996 0.0190279 0.0190598 0.0190918 0.0191239 0.0191553
0.019181 0.0192068 0.0192326 0.0192584 0.0192842 0.0193427 0.0194014 0.0194602 0.0195191 0.0195782
0.019638 0.0196979 0.0197579 0.0198181 0.0198784 0.0199395 0.0200006 0.0200619 0.0201234 0.0201851
0.0202475 0.02031 0.0203727 0.0204356 0.0204986 0.0205624 0.0206263 0.0206905 0.0207548 0.0208193
0.0208514 0.0208835 0.0209156 0.0209478 0.0209794 0.021013 0.0210466 0.0210803 0.021114 0.0211478
0.0212146 0.0212816 0.0213488 0.0214162 0.0214839 0.0215523 0.0216209 0.0216897 0.0217588 0.0218281
0.0218982 0.0219686 0.0220391 0.02211 0.0221811 0.022253 0.0223251 0.0223975 0.0224702 0.0225432
0.0226056 0.0226682 0.0227311 0.0227941 0.0228547 0.0228667 0.0228788 0.0228909 0.022903 0.0229151
0.0229909 0.023067 0.0231433 0.02322 0.023297 0.0233749 0.0234531 0.0235315 0.0236103 0.0236895
0.0237696 0.02385 0.0239307 0.0240118 0.0240932 0.0241756 0.0242584 0.0243415 0.024425 0.0245089
0.024563 0.0246172 0.0246716 0.0247262 0.0247791 0.0248107 0.0248423 0.024874 0.0249057 0.0249375
0.025025 0.0251129 0.0252011 0.0252898 0.025379 0.0254692 0.0255598 0.0256508 0.0257423 0.0258343
0.0259274 0.0260209 0.0261149 0.0262094 0.0263044 0.0263963 0.0264886 0.0265814 0.0266746 0.0267637
0.026769 0.0267743 0.0267796 0.0267849 0.0267903 0.0268897 0.0269896 0.02709 0.0271909 0.0272925
0.0273953 0.0274986 0.0276025 0.0277069 0.027812 0.0279184 0.0280253 0.0281329 0.028241 0.0283498
0.0284452 0.028541 0.0286373 0.028734 0.0288272 0.0288432 0.0288593 0.0288753 0.0288914 0.0289074
0.0290217 0.0291365 0.029252 0.0293681 0.029485 0.0296033 0.0297223 0.0298421 0.0299625 0.0300837
0.0302063 0.0303298 0.0304539 0.0305788 0.0307045 0.0307624 0.0308205 0.0308788 0.0309372 0.0309946
0.0310652 0.0311359 0.0312068 0.031278 0.0313494 0.0314814 0.0316142 0.0317477 0.0318821 0.0320172
0.0321539 0.0322916 0.0324301 0.0325693 0.0327094 0.032826 0.0329432 0.0330609 0.0331792 0.0332953
0.0333216 0.033348 0.0333744 0.0334008 0.0334272 0.0335742 0.0337219 0.0338705 0.0340198 0.03417
0.034322 0.0344748 0.0346285 0.0347831 0.0349384 0.0350956 0.0352537 0.0354126 0.0355723 0.0357329
0.0357376 0.0357424 0.0357472 0.0357519 0.0357567 0.0359146 0.0360733 0.0362328 0.0363931 0.0365541
0.0367219 0.0368907 0.0370604 0.0372309 0.0374022 0.0375755 0.0377497 0.0379248 0.0381007 0.0382773
0.0382888 0.0383003 0.0383118 0.0383233 0.0383348 0.0385024 0.0386707 0.0388398 0.0390096 0.03918
0.0393641 0.0395492 0.0397351 0.0399219 0.0401093 0.0402988 0.0404892 0.0406804 0.0408724 0.041065
0.041072 0.0410789 0.0410859 0.0410928 0.0410998 0.0412879 0.0414766 0.0416661 0.0418563 0.0420469
0.0422468 0.0424475 0.042649 0.0428512 0.0430537 0.0432585 0.0434641 0.0436703 0.0438771 0.0440844
0.0440872 0.0440901 0.0440929 0.0440958 0.0440986 0.0443054 0.0445127 0.0447206 0.044929 0.0451377
0.0453514 0.0455658 0.0457808 0.0459962 0.0462117 0.0464294 0.0466476 0.0468663 0.0470853 0.0473044
0.047326 0.0473476 0.0473692 0.0473909 0.0474127 0.0476124 0.0478124 0.0480127 0.0482131 0.0484135
0.0486375 0.0488617 0.0490863 0.049311 0.0495355 0.049762 0.049989 0.0502161 0.050443 0.0506693
0.0507397 0.0508101 0.0508805 0.050951 0.051023 0.0511712 0.0513193 0.0514675 0.0516157 0.0517636
0.0519905 0.0522171 0.0524434 0.0526695 0.0528946 0.053045 0.0531952 0.0533453 0.0534952 0.0536555
0.0537362 0.0538168 0.0538974 0.0539779 0.0540583 0.0542985 0.0545381 0.0547772 0.0550156 0.0552527
0.055491 0.0557286 0.0559654 0.0562013 0.0564706 0.0564708 0.056471 0.0564712 0.0564714 0.0564715
0.0567216 0.0569705 0.0572182 0.0574648 0.0577095 0.0579626 0.0582143 0.0584647 0.0587136 0.0589604
0.0590768 0.0591927 0.0593084 0.0594236 0.0595494 0.0596836 0.0598174 0.0599506 0.0600834 0.0602155
0.0604711 0.0607248 0.0609765 0.0612263 0.0614737 0.0617287 0.0619817 0.0622324 0.062481 0.0627271
0.0627842 0.0628412 0.0628981 0.0629548 0.0630147 0.0632084 0.0634006 0.0635914 0.0637809 0.0639689
0.06422 0.0644686 0.0647147 0.0649584 0.0651995 0.0654474 0.0656928 0.0659355 0.0661757 0.0664134
0.0665428 0.0666716 0.0667995 0.0669267 0.0670735 0.0671808 0.0672875 0.0673937 0.0674994 0.0676046
0.0678447 0.0680821 0.0683167 0.0685487 0.0687782 0.0690138 0.0692467 0.0694769 0.0697044 0.0699294
0.0701604 0.0703887 0.0706142 0.0708371 0.0710575 0.0712696 0.0714793 0.0716867 0.0718917 0.0721614
0.0721615 0.0721616 0.0721617 0.0721618 0.0721618 0.0723832 0.0726018 0.0728178 0.0730312 0.0732421
0.0734587 0.0736726 0.0738839 0.0740926 0.0742988 0.0745105 0.0747193 0.0749254 0.0751291 0.0753307
0.0755377 0.0757423 0.0759445 0.076144 0.0763408 0.0765423 0.0767408 0.0769366 0.0771304 0.0773223
0.0775201 0.0777161 0.0779089 0.0780984 0.0782848 0.0784189 0.0785511 0.0786825 0.078813 0.0788857
0.0789508 0.0790155 0.0790799 0.079144 0.0792078 -1.00001e-05 -8.00006e-06 -6.00005e-06 -4.00004e-06 -2.00002e-06
0 2.9657e-05 5.9315e-05 8.89713e-05 0.000118625 0.000148274 0.00017865 0.000209021 0.000239386 0.000269744
0.000300095 0.000329226 0.00035835 0.000387467 0.000416578 0.00044568 0.000473613 0.000501539 0.000529458 0.00055737
0.000585277 0.000612061 0.00063884 0.000665614 0.000692382 0.000719144 0.000744831 0.000770512 0.000796189 0.00082186
0.000847526 0.000872162 0.000896792 0.000921418 0.00094604 0.000970657 0.000994286 0.00101791 0.00104153 0.00106515
0.00108876 0.00111143 0.00113409 0.00115675 0.0011794 0.00120206 0.0012238 0.00124554 0.00126728 0.00128901
0.00131075 0.00133161 0.00135246 0.00137332 0.00139417 0.00141502 0.00143504 0.00145505 0.00147506 0.00149507
0.00151508 0.00153428 0.00155348 0.00157268 0.00159188 0.00161108 0.00162951 0.00164793 0.00166636 0.00168478
0.0017032 0.00172088 0.00173856 0.00175624 0.00177392 0.00179159 0.00180856 0.00182553 0.00184249 0.00185946
0.00187642 0.0018927 0.00190898 0.00192526 0.00194154 0.00195782 0.00197345 0.00198907 0.0020047 0.00202032
0.00203594 0.00204637 0.0020568 0.00206723 0.00207765 0.00208808 0.00209859 0.00210909 0.0021196 0.00213011
0.00214061 0.0021512 0.00216179 0.00217237 0.00218296 0.00219354 0.00220421 0.00221488 0.00222554 0.00223621
0.00224687 0.00225762 0.00226837 0.00227912 0.00228986 0.00230061 0.00231144 0.00232227 0.00233309 0.00234392
0.00235475 0.00236566 0.00237657 0.00238748 0.00239839 0.0024093 0.0024203 0.00243129 0.00244229 0.00245328
0.00246428 0.00247535 0.00248643 0.00249751 0.00250859 0.00251966 0.00253083 0.00254199 0.00255315 0.00256432
0.00257548 0.00258673 0.00259797 0.00260922 0.00262047 0.00263172 0.00264305 0.00265439 0.00266572 0.00267706
0.00268839 0.00269981 0.00271123 0.00272265 0.00273408 0.0027455 0.00275701 0.00276852 0.00278002 0.00279153
0.00280304 0.00281464 0.00282624 0.00283783 0.00284943 0.00286103 0.00287271 0.0028844 0.00289609 0.00290777
0.00291946 0.00293124 0.00294301 0.00295479 0.00296656 0.00297834 0.00299021 0.00300207 0.00301394 0.00302581
0.00303767 0.00304963 0.00306159 0.00307355 0.00308551 0.00309746 0.00310951 0.00312156 0.00313362 0.00314567
0.00315772 0.00316986 0.003182 0.00319414 0.00320629 0.00321843 0.00323067 0.00324291 0.00325514 0.00326738
0.00327962 0.00329195 0.00330428 0.00331661 0.00332894 0.00334127 0.0033537 0.00336613 0.00337856 0.00339098
0.00340341 0.00341594 0.00342846 0.00344098 0.00345351 0.00346603 0.00347865 0.00349128 0.0035039 0.00351652
0.00352914 0.00354186 0.00355458 0.0035673 0.00358002 0.00359274 0.00360556 0.00361838 0.0036312 0.00364402
0.00365684 0.00366698 0.00367711 0.00368724 0.00369737 0.00370747 0.00371027 0.00371306 0.00371586 0.00371865
0.00372144 0.00373447 0.00374749 0.00376051 0.00377353 0.00378656 0.00379968 0.0038128 0.00382593 0.00383905
0.00385218 0.00386541 0.00387863 0.00389186 0.00390509 0.00391832 0.00393165 0.00394498 0.00395831 0.00397165
0.00398498 0.00399842 0.00401185 0.00402529 0.00403873 0.00405216 0.00406571 0.00407925 0.00409279 0.00410634
0.00411988 0.00413353 0.00414718 0.00416083 0.00417448 0.00418813 0.00420188 0.00421564 0.00422939 0.00424315
0.00425691 0.00427077 0.00428463 0.0042985 0.00431236 0.00432623 0.0043402 0.00435417 0.00436814 0.00438211
0.00439608 0.00441016 0.00442424 0.00443832 0.0044524 0.00446648 0.00448067 0.00449485 0.00450904 0.00452323
0.00453741 0.00455171 0.00456601 0.0045803 0.0045946 0.00460889 0.0046233 0.0046377 0.0046521 0.00466651
0.00468091 0.00469542 0.00470994 0.00472445 0.00473896 0.00475347 0.00476809 0.00478271 0.00479733 0.00481195
0.00482657 0.0048413 0.00485603 0.00487076 0.00488549 0.00490021 0.00491505 0.00492989 0.00494473 0.00495957
0.0049744 0.00498935 0.0050043 0.00501924 0.00503419 0.00504913 0.00506419 0.00507924 0.0050943 0.00510935
0.00512441 0.00513957 0.00515474 0.0051699 0.00518507 0.00520023 0.00521551 0.00523078 0.00524606 0.00526133
0.0052766 0.00529199 0.00530738 0.00532277 0.00533815 0.00535354 0.00536904 0.00538454 0.00540004 0.00541553
0.00543103 0.00544664 0.00546226 0.00547787 0.00549348 0.00550909 0.00552482 0.00554055 0.00555627 0.005572
0.00558772 0.00560357 0.00561942 0.00563526 0.0056511 0.00566694 0.00568291 0.00569887 0.00571483 0.0057308
0.00574676 0.00576284 0.00577892 0.00579501 0.00581109 0.00582717 0.00584338 0.00585958 0.00587579 0.005892
0.0059082 0.00592193 0.00593566 0.00594938 0.00596311 0.00597639 0.00597908 0.00598177 0.00598447 0.00598716
0.00598985 0.00600631 0.00602277 0.00603923 0.00605568 0.00607214 0.00608873 0.00610532 0.00612191 0.0061385
0.00615508 0.00617181 0.00618853 0.00620525 0.00622197 0.00623869 0.00625555 0.0062724 0.00628926 0.00630611
0.00632297 0.00633997 0.00635696 0.00637396 0.00639095 0.00640794 0.00642509 0.00644222 0.00645935 0.00647649
0.00649362 0.00651092 0.00652819 0.00654547 0.00656274 0.00658003 0.00659747 0.0066149 0.00663232 0.00664974
0.00666717 0.00668477 0.00670235 0.00671991 0.00673748 0.00675507 0.00677283 0.00679056 0.00680828 0.00682599
0.00684374 0.00686166 0.00687955 0.00689742 0.00691529 0.00693319 0.00695127 0.00696933 0.00698736 0.00700539
0.00702346 0.00704171 0.00705993 0.00707812 0.00709632 0.00711455 0.00713297 0.00715135 0.00716971 0.00718808
0.00720648 0.00722507 0.00724363 0.00726216 0.00728069 0.00729927 0.00731803 0.00733677 0.00735547 0.00737419
0.00739294 0.00741188 0.00743079 0.00744969 0.00746859 0.00748752 0.00750664 0.00752573 0.00754481 0.0075639
0.00758302 0.00760233 0.0076216 0.00764087 0.00766016 0.00767945 0.00769895 0.00771841 0.00773788 0.00775736
0.00777686 0.00779654 0.00781621 0.00783588 0.00785556 0.00787525 0.00789514 0.007915 0.00793488 0.00795476
0.00797466 0.00799474 0.00801482 0.0080349 0.008055 0.00807511 0.00808701 0.00809892 0.00811082 0.00812273
0.00813445 0.00814288 0.00815132 0.00815975 0.00816818 0.00817662 0.00819712 0.00821762 0.00823814 0.00825867
0.00827921 0.00829994 0.00832067 0.00834141 0.00836216 0.00838293 0.0084039 0.00842485 0.00844582 0.0084668
0.0084878 0.00850901 0.00853019 0.00855139 0.00857261 0.00859383 0.0086153 0.00863672 0.00865816 0.00867961
0.00870109 0.0087228 0.00874448 0.00876616 0.00878785 0.00880958 0.00883155 0.00885349 0.00887541 0.00889734
0.00891933 0.00894156 0.00896376 0.00898594 0.00900813 0.00903038 0.00905288 0.00907534 0.00909778 0.00912024
0.00914276 0.00916553 0.00918827 0.00921098 0.00923371 0.00925651 0.00927955 0.00930256 0.00932555 0.00934856
0.00937164 0.00939496 0.00941825 0.00944154 0.00946484 0.0094882 0.00951181 0.00953539 0.00955898 0.00958259
0.00960623 0.00963013 0.00965401 0.0096779 0.00970182 0.00972576 0.00974996 0.00977414 0.00979835 0.00982258
0.00984684 0.00987133 0.00989583 0.00992036 0.00994491 0.0099695 0.00998424 0.009999 0.0100138 0.0100285
0.0100428 0.010053 0.0100632 0.0100734 0.0100836 0.0100938 0.0101189 0.0101441 0.0101693 0.0101945