/*--------------------------------*- C++ -*----------------------------------*\
  =========                 |
  \\      /  F ield         | OpenFOAM: The Open Source CFD Toolbox
   \\    /   O peration     | Website:  https://openfoam.org
    \\  /    A nd           | Version:  13
     \\/     M anipulation  |
\*---------------------------------------------------------------------------*/
FoamFile
{
    format      ascii;
    class       volScalarField;
    location    "10";
    object      k;
}
// * * * * * * * * * * * * * * * * * * * * * * * * * * * * * * * * * * * * * //

dimensions      [0 2 -2 0 0 0 0];

internalField   nonuniform List<scalar> 
1600
(
2.49128e-06
8.26592e-06
1.58876e-05
1.56968e-05
1.42346e-05
1.45451e-05
1.88251e-05
3.21598e-05
4.85106e-05
7.27633e-05
0.000109228
0.000133276
0.000145222
0.000161928
0.000187876
0.000220568
0.000250086
0.000284286
0.000316818
0.000354489
0.000392588
0.000436569
0.000483799
0.000539291
0.000602866
0.000658456
0.000715584
0.000763623
0.000805365
0.000827479
0.000836175
0.000818105
0.000753293
0.000642799
0.000485756
0.000291706
0.000143847
6.12876e-05
1.9828e-05
4.16817e-06
1.19852e-05
5.27011e-05
9.96711e-05
0.000105351
0.000101874
0.0001089
0.000154813
0.000265233
0.000371626
0.000522571
0.000730586
0.000824869
0.000842026
0.000843002
0.000843249
0.000884907
0.000904499
0.00095064
0.000983537
0.00103578
0.00108333
0.00114264
0.00119928
0.00125829
0.0013125
0.00138198
0.00144797
0.00151927
0.00157841
0.0016127
0.00162462
0.00158689
0.00147641
0.00127788
0.00101007
0.000629438
0.000289687
0.000122578
4.37441e-05
7.06909e-06
3.60424e-05
0.000137676
0.00021287
0.000225816
0.000245694
0.00032367
0.000537901
0.000867367
0.00111737
0.00120008
0.00112754
0.00101555
0.000962491
0.000944331
0.000939881
0.000946195
0.000956337
0.000975635
0.000995736
0.00102455
0.00104987
0.00107897
0.00110873
0.00114327
0.00117984
0.00121999
0.00126079
0.0013033
0.00134428
0.00138288
0.00140409
0.00141224
0.00139392
0.00128142
0.0010912
0.000708376
0.000267781
0.000100572
3.92402e-05
5.78771e-06
8.19803e-05
0.000281362
0.000384
0.000426399
0.000532302
0.000781071
0.00113625
0.00131232
0.00133181
0.0011786
0.00106372
0.000979718
0.000943463
0.000929019
0.000924019
0.000923842
0.000928265
0.000937851
0.000948136
0.000962378
0.000978625
0.000999736
0.00102098
0.00104531
0.00107019
0.00109694
0.00112446
0.00115269
0.00117964
0.00120449
0.00122197
0.00123016
0.00123196
0.00121054
0.00114864
0.000969208
0.000424505
0.000103207
2.88107e-05
3.92979e-06
0.000153129
0.000488196
0.000627438
0.00072555
0.000933999
0.00124131
0.00138795
0.00139214
0.00125048
0.00105765
0.000963302
0.000917471
0.000895458
0.000884714
0.000880486
0.000880163
0.000891241
0.000902888
0.000918983
0.000935848
0.000954195
0.000972781
0.000991897
0.0010122
0.00103393
0.00105782
0.00108386
0.00111157
0.00113885
0.00116098
0.00117598
0.00118334
0.00118581
0.00117869
0.00115012
0.00107859
0.000814528
0.000223865
3.85744e-05
4.41227e-06
0.000253985
0.000741747
0.000918789
0.00105734
0.00128065
0.0014048
0.00141279
0.00129456
0.00105593
0.000940043
0.000885514
0.0008596
0.000848391
0.000845111
0.000848073
0.00086009
0.000874827
0.000890187
0.000906431
0.000922518
0.000939275
0.00095619
0.00097439
0.000994196
0.00101658
0.00104205
0.00107104
0.00110341
0.00113824
0.00117313
0.00119146
0.00119596
0.00119326
0.00117938
0.00115118
0.00110041
0.000962991
0.000464239
8.23552e-05
8.0342e-06
0.000379376
0.00100259
0.00120899
0.00132659
0.00141318
0.00142359
0.0013256
0.00107649
0.000926641
0.000860768
0.000831302
0.000819494
0.000816439
0.000820429
0.000831586
0.00084401
0.000855991
0.000867271
0.000878271
0.000888721
0.000900049
0.000913332
0.000929848
0.000950362
0.000975656
0.00100666
0.00104376
0.00108693
0.00113502
0.00118522
0.00123714
0.0012733
0.00128126
0.0012709
0.00122655
0.00114146
0.00101421
0.000729981
0.000167145
1.80226e-05
0.00051304
0.00125949
0.00143692
0.00147196
0.00146028
0.00135907
0.00113124
0.000932047
0.000845803
0.000809321
0.000795074
0.000791203
0.000792648
0.000800886
0.000808244
0.000814101
0.000817836
0.000820403
0.000822766
0.000826435
0.000832444
0.0008422
0.000856628
0.000876751
0.000903572
0.000938198
0.000981576
0.00103446
0.00109679
0.00116669
0.00123894
0.00130569
0.00134754
0.00135514
0.00134203
0.00126685
0.00110265
0.000833365
0.000285839
4.49589e-05
0.000626305
0.00146566
0.00160233
0.00156284
0.00142426
0.00121429
0.000965963
0.000845727
0.000794874
0.000774758
0.000768076
0.000766851
0.000769392
0.000771171
0.000771256
0.000767253
0.000761843
0.000756068
0.000752205
0.000750714
0.000751636
0.000758707
0.000771066
0.000790252
0.000817057
0.000852718
0.00089855
0.000956103
0.00102681
0.00111122
0.00120716
0.00130659
0.00138756
0.00142411
0.00142713
0.00138866
0.00125539
0.000984176
0.0005207
0.000122767
0.000709531
0.0016042
0.0017065
0.0015609
0.0013346
0.00105546
0.000870786
0.000792297
0.000760157
0.000747538
0.000742764
0.000740817
0.000738521
0.000732336
0.000722741
0.000710261
0.000697589
0.00068592
0.000676938
0.000672497
0.000671157
0.000675369
0.000686509
0.000704502
0.000730554
0.000765689
0.00081137
0.000869448
0.00094225
0.00103225
0.00114094
0.00126604
0.00139637
0.00148395
0.00150899
0.00149179
0.00137769
0.0011051
0.000634485
0.000219533
0.000769067
0.00169598
0.00176956
0.00153195
0.00121353
0.000941371
0.000810836
0.000755454
0.000732196
0.000721957
0.000716822
0.000710612
0.000700878
0.0006864
0.00066902
0.000650402
0.000632802
0.000617406
0.000605499
0.000599058
0.000596687
0.000598587
0.000608777
0.000625556
0.00065056
0.000684614
0.00072919
0.000786148
0.000858085
0.000948364
0.00106065
0.00119693
0.0013527
0.00150792
0.00158688
0.00159829
0.00152588
0.00126712
0.00078038
0.000312691
0.000800958
0.00172965
0.00177072
0.00146884
0.00110137
0.000869772
0.000768977
0.00072585
0.000706699
0.000697254
0.000688781
0.000676497
0.000659462
0.000638302
0.000615479
0.000592863
0.00057224
0.000554643
0.000541029
0.000533158
0.000530057
0.00053021
0.000539227
0.000554776
0.000578505
0.000611236
0.000654373
0.000709706
0.000779824
0.000868457
0.000980697
0.00112221
0.00129574
0.00149239
0.00163816
0.00168054
0.00164197
0.00139892
0.000899945
0.000387429
0.00079984
0.00172556
0.00175362
0.00139295
0.00100942
0.00081892
0.000736301
0.000700073
0.000683093
0.000672195
0.000659019
0.000640721
0.000617757
0.000591858
0.000565531
0.000540483
0.00051809
0.00049919
0.000484489
0.000475257
0.000471235
0.000470647
0.000477975
0.000492276
0.000514567
0.000545816
0.000587362
0.000640899
0.000708816
0.00079466
0.000903753
0.00104339
0.00122099
0.00143686
0.00166013
0.00176516
0.00176601
0.001552
0.00102083
0.000457167
0.000789863
0.0017048
0.00171273
0.0013114
0.000945781
0.000780456
0.000708996
0.000676711
0.000660711
0.000646988
0.000629042
0.000605685
0.000578388
0.000549367
0.000520901
0.000494429
0.000471007
0.000451292
0.000435815
0.000425435
0.00042061
0.000419492
0.000425152
0.000438118
0.000458875
0.00048851
0.000528369
0.000580129
0.000646057
0.000729492
0.00083569
0.000972806
0.00115176
0.0013814
0.00165264
0.00183526
0.00186803
0.00169008
0.00114118
0.000521465
0.000766077
0.00165957
0.00165118
0.00123893
0.000898435
0.000749443
0.000685204
0.000655787
0.000639455
0.00062253
0.00060042
0.000573191
0.00054293
0.00051196
0.000482252
0.000454997
0.000431013
0.000410825
0.000394851
0.000383612
0.000378141
0.000376585
0.000380804
0.00039237
0.000411513
0.000439369
0.000477343
0.000527148
0.000590983
0.000671923
0.000774783
0.000907516
0.00108243
0.00131401
0.00160628
0.00187983
0.00196991
0.00183327
0.00126217
0.000584146
0.000725365
0.0016019
0.00158247
0.00117824
0.000861478
0.000723816
0.000664521
0.000637086
0.000619656
0.00059976
0.000574333
0.000544329
0.000512148
0.000480037
0.000449684
0.000422081
0.000397882
0.000377516
0.000361319
0.000349587
0.000343607
0.000341707
0.000344777
0.000354947
0.000372426
0.000398366
0.000434258
0.000481932
0.00054365
0.00062238
0.000722588
0.000851847
0.0010231
0.00125474
0.00155923
0.00189849
0.00205617
0.00196928
0.00138645
0.000644883
0.000678855
0.00153601
0.00151169
0.00112852
0.000832309
0.000702482
0.000646679
0.000620514
0.000601736
0.000579388
0.000551502
0.000519628
0.000486291
0.000453601
0.000423019
0.000395391
0.000371258
0.000350971
0.000334795
0.00032295
0.000316566
0.000314402
0.000316613
0.000325463
0.000341274
0.000365205
0.000398835
0.000444145
0.000503541
0.000579987
0.000677594
0.000803195
0.000969416
0.00119768
0.00151195
0.00190162
0.00213772
0.00210272
0.00151088
0.000705121
0.000623233
0.00147187
0.00144389
0.0010886
0.000809762
0.000685158
0.000631547
0.00060603
0.000585991
0.000561815
0.000532255
0.000499234
0.000465302
0.000432436
0.000401931
0.000374529
0.000350687
0.000330696
0.000314754
0.000303016
0.000296347
0.000293968
0.000295566
0.000303227
0.000317431
0.000339347
0.000370628
0.000413409
0.000470338
0.000544538
0.000639977
0.000762766
0.000924451
0.00114696
0.00146186
0.00188006
0.0022086
0.00223119
0.00164369
0.000764783
0.000569027
0.00140503
0.00138074
0.00105777
0.000793269
0.000671073
0.000618827
0.000593589
0.000572583
0.000547203
0.000516654
0.000483071
0.000448972
0.000416227
0.000386022
0.000359028
0.00033564
0.000316092
0.000300525
0.000289026
0.000282156
0.000279564
0.00028072
0.000287355
0.000300073
0.000320063
0.000349014
0.000389184
0.000443497
0.000515351
0.000608761
0.000729239
0.000887058
0.00110369
0.00141579
0.00185108
0.00227058
0.00235589
0.00177742
0.000823925
0.000505064
0.00134834
0.0013244
0.00103436
0.000782205
0.000661023
0.00060859
0.000583095
0.000561445
0.000535478
0.000504566
0.000470894
0.000436956
0.000404571
0.000374838
0.000348377
0.000325539
0.000306515
0.000291392
0.000280205
0.000273208
0.000270361
0.000271178
0.000276913
0.000288306
0.000306549
0.000333316
0.000370912
0.000422565
0.000492028
0.000583581
0.000702326
0.000857084
0.00106787
0.00137447
0.00181938
0.00231498
0.00247833
0.00191966
0.000882904
0.000452789
0.001287
0.00127609
0.00101799
0.000777887
0.000653284
0.000600399
0.000574464
0.000552523
0.000526505
0.000495747
0.000462439
0.000428984
0.000397099
0.00036791
0.000342046
0.000319819
0.000301362
0.000286705
0.000275836
0.000268816
0.000265718
0.000266535
0.000271664
0.000281978
0.000298575
0.000323046
0.000358027
0.000407083
0.000474127
0.000563915
0.000681389
0.00083393
0.00103943
0.00133938
0.00179025
0.00234783
0.00259837
0.00206434
0.000941032
0.000407961
0.00122368
0.00123021
0.00101067
0.000779806
0.000651978
0.000594662
0.000567455
0.00054543
0.000519896
0.00048987
0.000457216
0.000424359
0.000393334
0.000365093
0.000340071
0.000318527
0.000300566
0.000286199
0.00027542
0.000268271
0.000264889
0.000265511
0.000270025
0.000279669
0.000295177
0.000318088
0.000350878
0.000396997
0.000461347
0.000549474
0.000666092
0.000817217
0.00101798
0.00130988
0.00176371
0.00236785
0.00271606
0.00221689
0.00099886
0.000368064
0.00116142
0.00118944
0.0010114
0.000786297
0.000654117
0.000591855
0.000562417
0.000540253
0.000515502
0.000486466
0.000455175
0.00042383
0.000393654
0.00036585
0.000341184
0.000319955
0.000302267
0.000288132
0.000277539
0.000270521
0.000267207
0.000267665
0.000271393
0.000279972
0.000294572
0.000316534
0.000348086
0.000392229
0.000454465
0.000540752
0.000656857
0.000807652
0.00100387
0.00128626
0.0017389
0.002382
0.00283159
0.00237331
0.00105536
0.000331594
0.00110118
0.00115285
0.00101481
0.000800405
0.000660511
0.000592735
0.000558954
0.000536363
0.000512686
0.000485492
0.000455689
0.000425126
0.000395737
0.000368676
0.000344641
0.000323996
0.000306805
0.00029306
0.000282738
0.000275845
0.000272533
0.000272956
0.000276259
0.000284117
0.000297762
0.000318237
0.000347934
0.000390834
0.000451864
0.000536928
0.000652752
0.0008036
0.000997141
0.00126849
0.00171506
0.00238942
0.00294368
0.00253604
0.00111092
0.000297319
0.00104256
0.00112136
0.00102275
0.000819445
0.000673738
0.000596514
0.000559158
0.000534436
0.000511589
0.000486014
0.00045755
0.000428472
0.000400436
0.000374546
0.000351426
0.000331403
0.00031465
0.000301201
0.000291041
0.00028418
0.000280829
0.00028126
0.000284339
0.000291739
0.000304836
0.000324504
0.000352941
0.000393663
0.000452217
0.000536222
0.000651906
0.000802941
0.000995091
0.00125764
0.00169373
0.00239283
0.00305301
0.0027032
0.0011645
0.000264688
0.000985759
0.0010938
0.00102888
0.000849576
0.000694856
0.000605142
0.000561341
0.00053488
0.000512059
0.000487598
0.000461335
0.000434143
0.000407587
0.000382852
0.000360641
0.000341328
0.000325099
0.000312019
0.000302098
0.000295349
0.000292063
0.000292553
0.000295561
0.000302726
0.00031548
0.000334602
0.000362225
0.000401875
0.000459159
0.000541799
0.000657418
0.000809369
0.000998974
0.00125284
0.0016745
0.0023938
0.00315669
0.00287481
0.00121625
0.000232713
0.000928033
0.00106999
0.00103052
0.000885247
0.000725522
0.000622464
0.00056753
0.000537133
0.000513711
0.000490707
0.000466384
0.000441204
0.000416391
0.00039306
0.00037196
0.000353522
0.000337966
0.000325393
0.00031585
0.00030934
0.000306285
0.000306893
0.000309963
0.000317107
0.000329712
0.000348527
0.000375633
0.000414503
0.000470786
0.000552631
0.000668181
0.000820842
0.00100925
0.0012518
0.00165705
0.00239159
0.00325674
0.0030479
0.00126526
0.000201231
0.000869485
0.00104523
0.00102852
0.00092417
0.000763604
0.000648601
0.000580636
0.000542946
0.000517417
0.000495074
0.000472475
0.000449337
0.000426452
0.000404771
0.00038503
0.000367695
0.00035303
0.000341167
0.000332207
0.0003261
0.00032352
0.000324317
0.000327582
0.000334923
0.000347562
0.000366301
0.000393191
0.000431699
0.000487441
0.000568718
0.000684062
0.000837045
0.00102394
0.00125622
0.00164077
0.00237943
0.00335177
0.00322049
0.00131166
0.000169055
0.000804627
0.00102317
0.00102251
0.000959193
0.000812637
0.000685954
0.000603765
0.000555191
0.000524881
0.000501437
0.000479758
0.000458379
0.000437443
0.000417594
0.00039946
0.000383496
0.00036999
0.00035909
0.000350976
0.000345466
0.000343679
0.000344745
0.000348342
0.000356107
0.000368962
0.000387845
0.000414805
0.000453335
0.000508946
0.000589908
0.000704737
0.000857226
0.00104199
0.00126389
0.0016267
0.00236007
0.003439
0.00338684
0.00135478
0.000139684
0.000743695
0.000997225
0.00101456
0.000978331
0.000867139
0.000735972
0.000639871
0.000578274
0.000539512
0.000512205
0.000489678
0.000469071
0.000449632
0.000431496
0.000415045
0.000400631
0.000388518
0.000378828
0.000371824
0.000367133
0.000366453
0.000367874
0.000371958
0.000380393
0.000393645
0.000412892
0.000440195
0.000479111
0.000534937
0.000615704
0.000729455
0.000880215
0.00106166
0.0012729
0.00161362
0.00233143
0.00351272
0.00354099
0.00139511
0.000115609
0.000679821
0.000980056
0.00100701
0.000987245
0.000916679
0.000795148
0.000690862
0.000615823
0.000565601
0.000531056
0.000504966
0.000483265
0.000464163
0.000447098
0.000432036
0.000419097
0.00040843
0.000400107
0.000394311
0.000390868
0.000391144
0.00039315
0.00039803
0.000407288
0.000421105
0.000440936
0.000468837
0.000508442
0.000564669
0.000645125
0.000756886
0.000904222
0.00108064
0.00128094
0.00160002
0.00229947
0.00357091
0.0036745
0.00143271
9.38595e-05
0.000595908
0.000972531
0.00100637
0.000993959
0.000951287
0.000857486
0.000756559
0.000672853
0.000610481
0.000565439
0.00053208
0.000506089
0.000484894
0.000467184
0.000452357
0.00044017
0.000430473
0.000423341
0.000418467
0.000416608
0.000417425
0.000420199
0.000426179
0.000436204
0.000450735
0.000471357
0.000500047
0.000540507
0.000597029
0.00067668
0.000785147
0.000927069
0.00109674
0.00128697
0.00158931
0.0022692
0.00361166
0.00377547
0.00146909
7.36675e-05
0.000493036
0.0009524
0.00100775
0.001002
0.000977782
0.000917298
0.000830677
0.000748358
0.000678677
0.000623245
0.000580056
0.000546282
0.000519561
0.000498264
0.000481299
0.00046807
0.000457947
0.000451038
0.000446331
0.000445418
0.000446574
0.000449887
0.000456687
0.000467392
0.000482619
0.000504078
0.000533527
0.000574697
0.000630963
0.000708875
0.000812512
0.000947175
0.0011091
0.00129202
0.00158499
0.0022553
0.00363857
0.00382502
0.00150627
6.33689e-05
0.000407062
0.000901079
0.00100274
0.00100666
0.000999107
0.000972693
0.000914734
0.000843202
0.000774505
0.000713267
0.000661059
0.000617694
0.000582246
0.00055371
0.000531036
0.000513541
0.000500285
0.000491154
0.000485028
0.000482773
0.000483627
0.000486613
0.000493041
0.000503855
0.000519305
0.000541204
0.000570924
0.00061218
0.000667239
0.000742316
0.000840109
0.000966998
0.00112293
0.00130598
0.00159735
0.00225427
0.0036633
0.00384366
0.00152744
6.58735e-05
0.000377149
0.00079864
0.000976851
0.00101289
0.00102302
0.00101893
0.000999695
0.000956513
0.000898869
0.000839995
0.000784083
0.000733462
0.000689165
0.000651518
0.000620244
0.00059497
0.000575045
0.000559983
0.000549342
0.00054234
0.000540073
0.000541307
0.000545482
0.000554492
0.000569023
0.000590494
0.000619756
0.000660467
0.000713919
0.000786304
0.0008799
0.00100248
0.00116052
0.00135826
0.00167578
0.00233627
0.00370538
0.00382828
0.00153516
9.418e-05
0.000403126
0.000705982
0.000919683
0.00102469
0.00107266
0.00109634
0.00109787
0.00108688
0.00105795
0.00101117
0.000959315
0.000906965
0.000856879
0.000811044
0.000770229
0.000734876
0.000704926
0.000680461
0.000660928
0.000646886
0.000637095
0.000633849
0.000635712
0.000641699
0.000654341
0.000675614
0.000705448
0.000747538
0.000802932
0.000878141
0.00097688
0.00110821
0.00128812
0.00152389
0.00190368
0.00255596
0.0037656
0.00372113
0.00152302
0.000152841
0.000505813
0.000725091
0.000943033
0.00108875
0.00119039
0.00125532
0.00128681
0.00129473
0.00128587
0.0012609
0.00121664
0.00116474
0.00110976
0.00105529
0.00100382
0.000957039
0.000916057
0.000881324
0.000853523
0.000834182
0.000820831
0.000816507
0.000819067
0.000827161
0.000844219
0.000872483
0.000912314
0.000968273
0.00104156
0.00114056
0.00127036
0.00144235
0.00167753
0.00198235
0.00244123
0.00305622
0.00388568
0.00361679
0.00147615
0.000252139
0.000707594
0.00090777
0.00114991
0.00134311
0.00149502
0.00159662
0.00164881
0.00165568
0.00164624
0.00162186
0.00157888
0.0015291
0.00147582
0.00142531
0.00137769
0.00133688
0.00130345
0.00127884
0.00126075
0.00125373
0.00125675
0.00126703
0.00128915
0.00132507
0.00137368
0.00144021
0.00152076
0.00162735
0.00175664
0.00193008
0.00213375
0.00239977
0.00271351
0.00310881
0.00359919
0.00401996
0.00414721
0.00348597
0.00138698
0.000411401
0.00115764
0.00159187
0.00199107
0.00223853
0.00239137
0.0024752
0.00250459
0.00249501
0.00247154
0.00244065
0.00240379
0.00236924
0.00233438
0.00231234
0.0022913
0.00228856
0.00229399
0.00230855
0.00233819
0.0023803
0.00243716
0.00250856
0.00259543
0.00270132
0.00282252
0.00297143
0.00313015
0.00333538
0.00352743
0.00379701
0.00401839
0.00436164
0.00458283
0.00499022
0.00507878
0.00493269
0.00434019
0.0030515
0.00120636
0.000279013
0.000426619
0.000555348
0.000683237
0.000802106
0.000909344
0.00100163
0.00107525
0.0011277
0.0011604
0.00118091
0.00118663
0.00118416
0.0011767
0.00116387
0.00114686
0.00112844
0.0011102
0.00109164
0.00107408
0.00105797
0.00104324
0.00103131
0.00102058
0.00101407
0.00100824
0.00100824
0.00100989
0.00101528
0.0010222
0.00103773
0.00105204
0.00108636
0.00111297
0.0011736
0.0012124
0.00127845
0.00128375
0.00124033
0.00103533
)
;

boundaryField
{
    movingWall
    {
        type            kqRWallFunction;
        value           nonuniform List<scalar> 
40
(
0.000279013
0.000426619
0.000555348
0.000683237
0.000802106
0.000909344
0.00100163
0.00107525
0.0011277
0.0011604
0.00118091
0.00118663
0.00118416
0.0011767
0.00116387
0.00114686
0.00112844
0.0011102
0.00109164
0.00107408
0.00105797
0.00104324
0.00103131
0.00102058
0.00101407
0.00100824
0.00100824
0.00100989
0.00101528
0.0010222
0.00103773
0.00105204
0.00108636
0.00111297
0.0011736
0.0012124
0.00127845
0.00128375
0.00124033
0.00103533
)
;
    }
    fixedWalls
    {
        type            kqRWallFunction;
        value           nonuniform List<scalar> 
120
(
2.49128e-06
1.19852e-05
3.60424e-05
8.19803e-05
0.000153129
0.000253985
0.000379376
0.00051304
0.000626305
0.000709531
0.000769067
0.000800958
0.00079984
0.000789863
0.000766077
0.000725365
0.000678855
0.000623233
0.000569027
0.000505064
0.000452789
0.000407961
0.000368064
0.000331594
0.000297319
0.000264688
0.000232713
0.000201231
0.000169055
0.000139684
0.000115609
9.38595e-05
7.36675e-05
6.33689e-05
6.58735e-05
9.418e-05
0.000152841
0.000252139
0.000411401
0.000279013
4.16817e-06
7.06909e-06
5.78771e-06
3.92979e-06
4.41227e-06
8.0342e-06
1.80226e-05
4.49589e-05
0.000122767
0.000219533
0.000312691
0.000387429
0.000457167
0.000521465
0.000584146
0.000644883
0.000705121
0.000764783
0.000823925
0.000882904
0.000941032
0.00099886
0.00105536
0.00111092
0.0011645
0.00121625
0.00126526
0.00131166
0.00135478
0.00139511
0.00143271
0.00146909
0.00150627
0.00152744
0.00153516
0.00152302
0.00147615
0.00138698
0.00120636
0.00103533
2.49128e-06
8.26592e-06
1.58876e-05
1.56968e-05
1.42346e-05
1.45451e-05
1.88251e-05
3.21598e-05
4.85106e-05
7.27633e-05
0.000109228
0.000133276
0.000145222
0.000161928
0.000187876
0.000220568
0.000250086
0.000284286
0.000316818
0.000354489
0.000392588
0.000436569
0.000483799
0.000539291
0.000602866
0.000658456
0.000715584
0.000763623
0.000805365
0.000827479
0.000836175
0.000818105
0.000753293
0.000642799
0.000485756
0.000291706
0.000143847
6.12876e-05
1.9828e-05
4.16817e-06
)
;
    }
    frontAndBack
    {
        type            empty;
    }
}


// ************************************************************************* //
