/*--------------------------------*- C++ -*----------------------------------*\
  =========                 |
  \\      /  F ield         | OpenFOAM: The Open Source CFD Toolbox
   \\    /   O peration     | Website:  https://openfoam.org
    \\  /    A nd           | Version:  13
     \\/     M anipulation  |
\*---------------------------------------------------------------------------*/
FoamFile
{
    format      ascii;
    class       volScalarField;
    location    "10";
    object      nut;
}
// * * * * * * * * * * * * * * * * * * * * * * * * * * * * * * * * * * * * * //

dimensions      [0 2 -1 0 0 0 0];

internalField   nonuniform List<scalar> 
1600
(
1.75209e-08
5.81305e-08
1.11727e-07
1.10384e-07
1.00101e-07
1.02284e-07
1.32383e-07
2.26155e-07
3.41135e-07
5.11698e-07
7.68104e-07
9.37194e-07
1.0212e-06
1.13871e-06
1.3212e-06
1.55111e-06
1.75867e-06
1.99917e-06
2.22793e-06
2.49283e-06
2.76074e-06
3.07001e-06
3.40212e-06
3.79234e-06
4.23936e-06
4.63025e-06
5.03194e-06
5.36972e-06
5.66322e-06
5.81871e-06
5.87985e-06
5.75276e-06
5.29702e-06
4.52007e-06
3.41578e-06
2.05129e-06
1.01156e-06
4.30994e-07
1.3944e-07
2.93131e-08
8.42901e-08
1.30458e-06
3.85939e-06
4.54473e-06
4.42895e-06
4.23224e-06
4.84071e-06
6.56812e-06
7.20219e-06
8.49202e-06
9.74516e-06
1.05781e-05
1.09625e-05
1.18399e-05
1.26369e-05
1.43308e-05
1.53999e-05
1.71594e-05
1.83965e-05
1.99591e-05
2.1221e-05
2.26157e-05
2.38302e-05
2.48446e-05
2.53993e-05
2.62368e-05
2.67565e-05
2.72417e-05
2.73774e-05
2.70356e-05
2.67675e-05
2.54374e-05
2.36058e-05
2.03658e-05
1.70261e-05
1.13048e-05
5.59472e-06
2.25518e-06
7.81803e-07
4.97133e-08
2.53477e-07
3.52057e-06
8.41503e-06
1.00313e-05
1.05506e-05
1.0977e-05
1.38505e-05
1.7544e-05
1.84281e-05
1.85703e-05
1.7043e-05
1.62062e-05
1.59263e-05
1.74584e-05
1.89279e-05
2.08028e-05
2.27214e-05
2.47935e-05
2.66039e-05
2.8541e-05
3.00883e-05
3.1394e-05
3.20858e-05
3.26546e-05
3.29742e-05
3.31475e-05
3.30305e-05
3.26572e-05
3.19172e-05
3.07318e-05
2.88003e-05
2.68579e-05
2.52703e-05
2.15977e-05
1.79428e-05
1.11305e-05
4.90016e-06
2.44244e-06
9.99224e-07
4.0702e-08
5.76535e-07
7.61074e-06
1.44565e-05
1.67403e-05
1.78642e-05
1.97527e-05
2.22363e-05
2.25336e-05
2.2051e-05
1.91022e-05
1.83076e-05
1.98004e-05
2.17972e-05
2.46245e-05
2.66653e-05
2.92497e-05
3.10902e-05
3.28772e-05
3.41264e-05
3.53066e-05
3.61305e-05
3.67982e-05
3.71642e-05
3.73802e-05
3.73583e-05
3.71265e-05
3.66337e-05
3.58532e-05
3.46995e-05
3.31662e-05
3.10839e-05
2.84373e-05
2.52001e-05
2.18761e-05
1.89647e-05
1.46254e-05
5.52188e-06
1.8951e-06
6.87444e-07
2.76358e-08
1.07688e-06
1.3576e-05
2.13275e-05
2.27584e-05
2.37419e-05
2.54798e-05
2.55654e-05
2.48319e-05
2.19645e-05
2.09904e-05
2.29952e-05
2.53225e-05
2.819e-05
3.09218e-05
3.30464e-05
3.48567e-05
3.6631e-05
3.79442e-05
3.93283e-05
4.01002e-05
4.08191e-05
4.12249e-05
4.1485e-05
4.15355e-05
4.14372e-05
4.11479e-05
4.06378e-05
3.98356e-05
3.8653e-05
3.68649e-05
3.45093e-05
3.17367e-05
2.87167e-05
2.50502e-05
2.03398e-05
1.67894e-05
1.07268e-05
2.87639e-06
6.76089e-07
3.10279e-08
1.78612e-06
1.98876e-05
2.72241e-05
2.76554e-05
2.81526e-05
2.76383e-05
2.68225e-05
2.44211e-05
2.29192e-05
2.50997e-05
2.75005e-05
3.05324e-05
3.34637e-05
3.58013e-05
3.75232e-05
3.9313e-05
4.08775e-05
4.21683e-05
4.30869e-05
4.37919e-05
4.43465e-05
4.46705e-05
4.48393e-05
4.48173e-05
4.46666e-05
4.43555e-05
4.38907e-05
4.32353e-05
4.23336e-05
4.10811e-05
3.85134e-05
3.51115e-05
3.16639e-05
2.79346e-05
2.36231e-05
1.87388e-05
1.36084e-05
4.57539e-06
1.01987e-06
5.64962e-08
2.66788e-06
2.47768e-05
3.18397e-05
3.1008e-05
2.96299e-05
2.87578e-05
2.65237e-05
2.43736e-05
2.63768e-05
2.91183e-05
3.19877e-05
3.52364e-05
3.75584e-05
3.94512e-05
4.13037e-05
4.28867e-05
4.42139e-05
4.531e-05
4.60928e-05
4.66893e-05
4.70777e-05
4.73227e-05
4.74548e-05
4.7472e-05
4.73647e-05
4.71409e-05
4.67887e-05
4.6284e-05
4.55704e-05
4.4549e-05
4.34033e-05
4.12228e-05
3.75818e-05
3.34428e-05
2.83315e-05
2.20387e-05
1.61453e-05
8.5112e-06
1.64643e-06
1.26732e-07
3.6078e-06
2.90496e-05
3.47284e-05
3.3026e-05
3.14564e-05
2.85831e-05
2.6145e-05
2.71347e-05
3.00061e-05
3.2984e-05
3.60671e-05
3.87622e-05
4.06046e-05
4.26001e-05
4.4202e-05
4.55828e-05
4.66813e-05
4.7556e-05
4.81465e-05
4.86925e-05
4.91613e-05
4.94336e-05
4.96116e-05
4.96693e-05
4.96036e-05
4.94302e-05
4.91457e-05
4.87554e-05
4.82347e-05
4.75116e-05
4.64216e-05
4.48463e-05
4.20999e-05
3.81686e-05
3.41807e-05
2.78792e-05
1.94958e-05
1.08282e-05
2.18538e-06
3.16142e-07
4.40428e-06
3.18864e-05
3.71405e-05
3.5095e-05
3.1351e-05
2.82597e-05
2.74252e-05
3.02448e-05
3.34983e-05
3.64105e-05
3.92694e-05
4.13734e-05
4.31791e-05
4.48554e-05
4.63528e-05
4.74972e-05
4.84632e-05
4.92668e-05
5.00351e-05
5.05384e-05
5.09085e-05
5.14683e-05
5.16264e-05
5.17599e-05
5.16979e-05
5.151e-05
5.11818e-05
5.07501e-05
5.02427e-05
4.96704e-05
4.89653e-05
4.78964e-05
4.57013e-05
4.18822e-05
3.773e-05
3.33963e-05
2.53328e-05
1.50062e-05
4.74451e-06
8.63273e-07
4.98953e-06
3.35776e-05
3.88456e-05
3.54185e-05
3.10915e-05
2.83127e-05
3.00553e-05
3.33426e-05
3.65149e-05
3.91181e-05
4.1555e-05
4.33809e-05
4.51359e-05
4.66614e-05
4.79523e-05
4.9025e-05
5.00002e-05
5.08816e-05
5.17032e-05
5.2409e-05
5.28028e-05
5.35265e-05
5.38036e-05
5.39965e-05
5.39736e-05
5.37611e-05
5.33514e-05
5.27722e-05
5.2078e-05
5.1344e-05
5.06294e-05
4.98953e-05
4.88744e-05
4.5594e-05
4.07814e-05
3.66235e-05
2.98083e-05
1.85987e-05
6.31361e-06
1.5437e-06
5.40818e-06
3.48216e-05
4.04638e-05
3.56349e-05
3.08105e-05
2.99494e-05
3.27155e-05
3.60353e-05
3.88262e-05
4.10776e-05
4.32943e-05
4.49872e-05
4.66496e-05
4.80364e-05
4.92638e-05
5.03806e-05
5.14479e-05
5.24568e-05
5.33992e-05
5.43378e-05
5.49141e-05
5.55198e-05
5.61007e-05
5.63159e-05
5.63824e-05
5.6193e-05
5.576e-05
5.50763e-05
5.41849e-05
5.31732e-05
5.21639e-05
5.12446e-05
5.03299e-05
4.89589e-05
4.44498e-05
4.00195e-05
3.46763e-05
2.34077e-05
9.00071e-06
2.19876e-06
5.63244e-06
3.51299e-05
4.09128e-05
3.58517e-05
3.11449e-05
3.19832e-05
3.50468e-05
3.81218e-05
4.04827e-05
4.26184e-05
4.46468e-05
4.62512e-05
4.78314e-05
4.91666e-05
5.04387e-05
5.16636e-05
5.28642e-05
5.40165e-05
5.50933e-05
5.62129e-05
5.69427e-05
5.74037e-05
5.82273e-05
5.84718e-05
5.86317e-05
5.85212e-05
5.81496e-05
5.74728e-05
5.64919e-05
5.52694e-05
5.3958e-05
5.27686e-05
5.18413e-05
5.10068e-05
4.72358e-05
4.21209e-05
3.79548e-05
2.71109e-05
1.1329e-05
2.72429e-06
5.62458e-06
3.50731e-05
4.13198e-05
3.59232e-05
3.20288e-05
3.38029e-05
3.69017e-05
3.96915e-05
4.17431e-05
4.38187e-05
4.56933e-05
4.72526e-05
4.87943e-05
5.0161e-05
5.15359e-05
5.28936e-05
5.42319e-05
5.55107e-05
5.66913e-05
5.78688e-05
5.86358e-05
5.90841e-05
5.9958e-05
6.02294e-05
6.04535e-05
6.04514e-05
6.02169e-05
5.96746e-05
5.87613e-05
5.74623e-05
5.58756e-05
5.42415e-05
5.28609e-05
5.18318e-05
5.01468e-05
4.45728e-05
4.09481e-05
3.11518e-05
1.39686e-05
3.21466e-06
5.55443e-06
3.47949e-05
4.16388e-05
3.59551e-05
3.32779e-05
3.53327e-05
3.83144e-05
4.07936e-05
4.27257e-05
4.47405e-05
4.65083e-05
4.80614e-05
4.96107e-05
5.10602e-05
5.25558e-05
5.4042e-05
5.54964e-05
5.68635e-05
5.80956e-05
5.92498e-05
6.00007e-05
6.04325e-05
6.12346e-05
6.14876e-05
6.17221e-05
6.18114e-05
6.17432e-05
6.1428e-05
6.0746e-05
5.95897e-05
5.79541e-05
5.60377e-05
5.4259e-05
5.30555e-05
5.24222e-05
4.73273e-05
4.27897e-05
3.4272e-05
1.63836e-05
3.66677e-06
5.38717e-06
3.41861e-05
4.14319e-05
3.61838e-05
3.43193e-05
3.65091e-05
3.93397e-05
4.16058e-05
4.34864e-05
4.5442e-05
4.71486e-05
4.87229e-05
5.0312e-05
5.18634e-05
5.34738e-05
5.50717e-05
5.66166e-05
5.80422e-05
5.92934e-05
6.03794e-05
6.10804e-05
6.14714e-05
6.21248e-05
6.23002e-05
6.24781e-05
6.26047e-05
6.26801e-05
6.26216e-05
6.22736e-05
6.14369e-05
5.99594e-05
5.78853e-05
5.55804e-05
5.36426e-05
5.24872e-05
4.94686e-05
4.45526e-05
3.72718e-05
1.87795e-05
4.10752e-06
5.10089e-06
3.33267e-05
4.09849e-05
3.64787e-05
3.51268e-05
3.73656e-05
4.00712e-05
4.22087e-05
4.40646e-05
4.59697e-05
4.76497e-05
4.92585e-05
5.09015e-05
5.25522e-05
5.42623e-05
5.59546e-05
5.75742e-05
5.90477e-05
6.03122e-05
6.13209e-05
6.19554e-05
6.22896e-05
6.27531e-05
6.27987e-05
6.28514e-05
6.2937e-05
6.30852e-05
6.32405e-05
6.32437e-05
6.28369e-05
6.17399e-05
5.98245e-05
5.73429e-05
5.49644e-05
5.32614e-05
5.12552e-05
4.58155e-05
3.96094e-05
2.10438e-05
4.53459e-06
4.77385e-06
3.2275e-05
4.03541e-05
3.67423e-05
3.57086e-05
3.79523e-05
4.05797e-05
4.26495e-05
4.44937e-05
4.63562e-05
4.80297e-05
4.96742e-05
5.13701e-05
5.31047e-05
5.48966e-05
5.66696e-05
5.83578e-05
5.98807e-05
6.11632e-05
6.2143e-05
6.26962e-05
6.29654e-05
6.32289e-05
6.31153e-05
6.29937e-05
6.29668e-05
6.31085e-05
6.34052e-05
6.37219e-05
6.37722e-05
6.31597e-05
6.15432e-05
5.89581e-05
5.61117e-05
5.4061e-05
5.28557e-05
4.71707e-05
4.15627e-05
2.32195e-05
4.95815e-06
4.38272e-06
3.12093e-05
3.95917e-05
3.6923e-05
3.61153e-05
3.83283e-05
4.09086e-05
4.29511e-05
4.47888e-05
4.6619e-05
4.82948e-05
4.99644e-05
5.16993e-05
5.34967e-05
5.53528e-05
5.71946e-05
5.89487e-05
6.05283e-05
6.18459e-05
6.28257e-05
6.33143e-05
6.35183e-05
6.35967e-05
6.33192e-05
6.30002e-05
6.28089e-05
6.28706e-05
6.32205e-05
6.37737e-05
6.42567e-05
6.42088e-05
6.31039e-05
6.06826e-05
5.74498e-05
5.47323e-05
5.34755e-05
4.85247e-05
4.31682e-05
2.53117e-05
5.37766e-06
4.00156e-06
2.99825e-05
3.87334e-05
3.70159e-05
3.6346e-05
3.85109e-05
4.10848e-05
4.31365e-05
4.49758e-05
4.67725e-05
4.84429e-05
5.01269e-05
5.18871e-05
5.37209e-05
5.56144e-05
5.75031e-05
5.9312e-05
6.09465e-05
6.23054e-05
6.32989e-05
6.37544e-05
6.38989e-05
6.38313e-05
6.34101e-05
6.29007e-05
6.25267e-05
6.24681e-05
6.28012e-05
6.35091e-05
6.43576e-05
6.4861e-05
6.4352e-05
6.22779e-05
5.88425e-05
5.54464e-05
5.36882e-05
4.99494e-05
4.45369e-05
2.72431e-05
5.79351e-06
3.55177e-06
2.90187e-05
3.77845e-05
3.69804e-05
3.64919e-05
3.85663e-05
4.11221e-05
4.31993e-05
4.50341e-05
4.68083e-05
4.84798e-05
5.01485e-05
5.18864e-05
5.37181e-05
5.56281e-05
5.75538e-05
5.94024e-05
6.10701e-05
6.24515e-05
6.34515e-05
6.39051e-05
6.39811e-05
6.37173e-05
6.31369e-05
6.25125e-05
6.20759e-05
6.19437e-05
6.22164e-05
6.30115e-05
6.41548e-05
6.51735e-05
6.53149e-05
6.37607e-05
6.03265e-05
5.62957e-05
5.37388e-05
5.1055e-05
4.57396e-05
2.91304e-05
6.20822e-06
3.18417e-06
2.76249e-05
3.68607e-05
3.68762e-05
3.64946e-05
3.84429e-05
4.10258e-05
4.31581e-05
4.50186e-05
4.67556e-05
4.83772e-05
5.00343e-05
5.17946e-05
5.36289e-05
5.55103e-05
5.73558e-05
5.91243e-05
6.07497e-05
6.21272e-05
6.31436e-05
6.36746e-05
6.37436e-05
6.33626e-05
6.27343e-05
6.19971e-05
6.13658e-05
6.1051e-05
6.13383e-05
6.23515e-05
6.37244e-05
6.5194e-05
6.59712e-05
6.5025e-05
6.17793e-05
5.72815e-05
5.4045e-05
5.18649e-05
4.68241e-05
3.08445e-05
6.61694e-06
2.86893e-06
2.60399e-05
3.54018e-05
3.68784e-05
3.64665e-05
3.82014e-05
4.07922e-05
4.29785e-05
4.48216e-05
4.65517e-05
4.82148e-05
4.97869e-05
5.13196e-05
5.29776e-05
5.47476e-05
5.66075e-05
5.84427e-05
6.01217e-05
6.15249e-05
6.2539e-05
6.30789e-05
6.31656e-05
6.28973e-05
6.23546e-05
6.16172e-05
6.08527e-05
6.03811e-05
6.05344e-05
6.13607e-05
6.29617e-05
6.49738e-05
6.63729e-05
6.60757e-05
6.31496e-05
5.82775e-05
5.44682e-05
5.24009e-05
4.78427e-05
3.24956e-05
7.02355e-06
2.58837e-06
2.43353e-05
3.37921e-05
3.68277e-05
3.64166e-05
3.79723e-05
4.03182e-05
4.26974e-05
4.46446e-05
4.63223e-05
4.77672e-05
4.92652e-05
5.09333e-05
5.26165e-05
5.4321e-05
5.6058e-05
5.77577e-05
5.93183e-05
6.06304e-05
6.1592e-05
6.2125e-05
6.21705e-05
6.19196e-05
6.1425e-05
6.07435e-05
6.0186e-05
5.99194e-05
6.00438e-05
6.06758e-05
6.23279e-05
6.45163e-05
6.64786e-05
6.6958e-05
6.44426e-05
5.92305e-05
5.4896e-05
5.28279e-05
4.87159e-05
3.40535e-05
7.42082e-06
2.3319e-06
2.25338e-05
3.18434e-05
3.6626e-05
3.63812e-05
3.7622e-05
3.99903e-05
4.20977e-05
4.40824e-05
4.57791e-05
4.73716e-05
4.89113e-05
5.04334e-05
5.19719e-05
5.35232e-05
5.50707e-05
5.65913e-05
5.80014e-05
5.92058e-05
6.01155e-05
6.06634e-05
6.07799e-05
6.05896e-05
6.01831e-05
5.95908e-05
5.90473e-05
5.87578e-05
5.90069e-05
6.01296e-05
6.19374e-05
6.4195e-05
6.64934e-05
6.74798e-05
6.55477e-05
6.00403e-05
5.52287e-05
5.3069e-05
4.95136e-05
3.55528e-05
7.81149e-06
2.09087e-06
2.06752e-05
2.99781e-05
3.62076e-05
3.61715e-05
3.71611e-05
3.94675e-05
4.17373e-05
4.35826e-05
4.53227e-05
4.6919e-05
4.82873e-05
4.96271e-05
5.10172e-05
5.24517e-05
5.388e-05
5.52505e-05
5.65134e-05
5.75979e-05
5.84333e-05
5.89698e-05
5.91459e-05
5.90232e-05
5.87357e-05
5.83038e-05
5.79068e-05
5.77413e-05
5.80287e-05
5.90109e-05
6.0933e-05
6.37522e-05
6.64562e-05
6.77384e-05
6.62077e-05
6.08141e-05
5.54385e-05
5.31617e-05
5.02653e-05
3.6953e-05
8.18819e-06
1.86139e-06
1.87966e-05
2.81368e-05
3.51866e-05
3.6362e-05
3.68023e-05
3.8658e-05
4.11297e-05
4.31245e-05
4.48063e-05
4.62162e-05
4.75556e-05
4.88121e-05
5.00591e-05
5.13217e-05
5.25761e-05
5.37807e-05
5.48899e-05
5.58492e-05
5.66049e-05
5.71227e-05
5.73792e-05
5.73295e-05
5.71759e-05
5.69393e-05
5.67279e-05
5.67331e-05
5.71626e-05
5.82708e-05
6.02722e-05
6.31267e-05
6.61923e-05
6.81202e-05
6.6945e-05
6.13027e-05
5.54709e-05
5.31296e-05
5.0906e-05
3.82766e-05
8.55208e-06
1.63653e-06
1.68937e-05
2.63011e-05
3.35104e-05
3.63894e-05
3.6628e-05
3.80309e-05
4.02333e-05
4.23966e-05
4.40801e-05
4.54952e-05
4.67597e-05
4.79217e-05
4.90374e-05
5.01391e-05
5.1223e-05
5.2263e-05
5.32236e-05
5.40645e-05
5.47469e-05
5.52409e-05
5.5593e-05
5.56169e-05
5.56002e-05
5.55733e-05
5.55638e-05
5.5761e-05
5.63484e-05
5.75678e-05
5.96523e-05
6.26489e-05
6.58925e-05
6.80415e-05
6.73721e-05
6.15455e-05
5.5341e-05
5.29841e-05
5.14332e-05
3.94858e-05
8.89666e-06
1.41513e-06
1.50111e-05
2.43463e-05
3.15837e-05
3.62599e-05
3.63936e-05
3.74055e-05
3.92635e-05
4.13943e-05
4.31877e-05
4.46617e-05
4.58974e-05
4.6985e-05
4.79893e-05
4.89505e-05
4.98809e-05
5.07706e-05
5.15976e-05
5.23344e-05
5.29587e-05
5.34277e-05
5.38857e-05
5.39799e-05
5.40946e-05
5.42766e-05
5.44696e-05
5.48656e-05
5.56221e-05
5.69677e-05
5.91136e-05
6.21519e-05
6.54687e-05
6.77643e-05
6.72803e-05
6.17773e-05
5.48825e-05
5.24694e-05
5.18592e-05
4.06011e-05
9.22291e-06
1.18885e-06
1.3144e-05
2.28173e-05
2.91612e-05
3.54831e-05
3.65117e-05
3.70202e-05
3.8453e-05
4.03383e-05
4.21786e-05
4.37038e-05
4.49449e-05
4.5991e-05
4.69159e-05
4.77701e-05
4.8579e-05
4.93474e-05
5.00675e-05
5.07219e-05
5.13094e-05
5.17578e-05
5.23267e-05
5.24851e-05
5.272e-05
5.30989e-05
5.34821e-05
5.40685e-05
5.49864e-05
5.64523e-05
5.86292e-05
6.16402e-05
6.48779e-05
6.71366e-05
6.66783e-05
6.13662e-05
5.4186e-05
5.17344e-05
5.21644e-05
4.15735e-05
9.52616e-06
9.82289e-07
1.15575e-05
2.14259e-05
2.6778e-05
3.34271e-05
3.64817e-05
3.68715e-05
3.78332e-05
3.94081e-05
4.11512e-05
4.26971e-05
4.39613e-05
4.4994e-05
4.58689e-05
4.66458e-05
4.73627e-05
4.80378e-05
4.86768e-05
4.927e-05
4.98361e-05
5.02787e-05
5.09453e-05
5.11596e-05
5.15028e-05
5.20599e-05
5.26082e-05
5.33624e-05
5.44139e-05
5.59744e-05
5.81251e-05
6.10113e-05
6.39899e-05
6.60424e-05
6.54021e-05
6.044e-05
5.33269e-05
5.05457e-05
5.23044e-05
4.24025e-05
9.80969e-06
8.12972e-07
1.02834e-05
2.04875e-05
2.47769e-05
3.10353e-05
3.58426e-05
3.68032e-05
3.75252e-05
3.86853e-05
4.01673e-05
4.16335e-05
4.28974e-05
4.39361e-05
4.47973e-05
4.55386e-05
4.62054e-05
4.68262e-05
4.74154e-05
4.79813e-05
4.85193e-05
4.90392e-05
4.96824e-05
4.99811e-05
5.04559e-05
5.11411e-05
5.18141e-05
5.26973e-05
5.38288e-05
5.54291e-05
5.74561e-05
6.00943e-05
6.26012e-05
6.42692e-05
6.3252e-05
5.86341e-05
5.17706e-05
4.91822e-05
5.22183e-05
4.29802e-05
1.00741e-05
6.60014e-07
9.14529e-06
1.98157e-05
2.33388e-05
2.87625e-05
3.40836e-05
3.64381e-05
3.74502e-05
3.84174e-05
3.96036e-05
4.08757e-05
4.20507e-05
4.30487e-05
4.38776e-05
4.45806e-05
4.52014e-05
4.57794e-05
4.63188e-05
4.68816e-05
4.73491e-05
4.80273e-05
4.85207e-05
4.89168e-05
4.95418e-05
5.02667e-05
5.10076e-05
5.19593e-05
5.30793e-05
5.46226e-05
5.63709e-05
5.86038e-05
6.04048e-05
6.15334e-05
6.00162e-05
5.58783e-05
4.97783e-05
4.76752e-05
5.18482e-05
4.31668e-05
1.03298e-05
5.18019e-07
8.32475e-06
1.93213e-05
2.28515e-05
2.69978e-05
3.21555e-05
3.57147e-05
3.72357e-05
3.83141e-05
3.93385e-05
4.03956e-05
4.14161e-05
4.23244e-05
4.30986e-05
4.37607e-05
4.43381e-05
4.48862e-05
4.53748e-05
4.59433e-05
4.63346e-05
4.71095e-05
4.74961e-05
4.79286e-05
4.86085e-05
4.93163e-05
5.00253e-05
5.09386e-05
5.18931e-05
5.32228e-05
5.44718e-05
5.61186e-05
5.69993e-05
5.75042e-05
5.5508e-05
5.20384e-05
4.71718e-05
4.62952e-05
5.11532e-05
4.26615e-05
1.05913e-05
4.45602e-07
8.13356e-06
1.86179e-05
2.30069e-05
2.53339e-05
3.01635e-05
3.46209e-05
3.72597e-05
3.86706e-05
3.97566e-05
4.07035e-05
4.15607e-05
4.23235e-05
4.29759e-05
4.35366e-05
4.40103e-05
4.44623e-05
4.4844e-05
4.53116e-05
4.56306e-05
4.62304e-05
4.66149e-05
4.69436e-05
4.74583e-05
4.80487e-05
4.85526e-05
4.92466e-05
4.98056e-05
5.07043e-05
5.12047e-05
5.21146e-05
5.19842e-05
5.19406e-05
4.97391e-05
4.7297e-05
4.3897e-05
4.4334e-05
5.01884e-05
4.20986e-05
1.07401e-05
4.63224e-07
9.01176e-06
1.78315e-05
2.30743e-05
2.55727e-05
2.87409e-05
3.28468e-05
3.66038e-05
3.90536e-05
4.04171e-05
4.14081e-05
4.21705e-05
4.2771e-05
4.32572e-05
4.36509e-05
4.39805e-05
4.42882e-05
4.45589e-05
4.48238e-05
4.50283e-05
4.51968e-05
4.54734e-05
4.55447e-05
4.56707e-05
4.59146e-05
4.5983e-05
4.62195e-05
4.61432e-05
4.64044e-05
4.60356e-05
4.62242e-05
4.53116e-05
4.50648e-05
4.32588e-05
4.22359e-05
4.10934e-05
4.32493e-05
4.90157e-05
4.13815e-05
1.07943e-05
6.62289e-07
1.15688e-05
1.85078e-05
2.35731e-05
2.65159e-05
2.96116e-05
3.29037e-05
3.62845e-05
3.95149e-05
4.19768e-05
4.3319e-05
4.42117e-05
4.48153e-05
4.51754e-05
4.54471e-05
4.54625e-05
4.52953e-05
4.49893e-05
4.46399e-05
4.42052e-05
4.38004e-05
4.33207e-05
4.27908e-05
4.25227e-05
4.21524e-05
4.15689e-05
4.11961e-05
4.0481e-05
4.01383e-05
3.9238e-05
3.9089e-05
3.81232e-05
3.83017e-05
3.76208e-05
3.8315e-05
3.97803e-05
4.30287e-05
4.71589e-05
3.90955e-05
1.0709e-05
1.07481e-06
1.55696e-05
2.09788e-05
2.52313e-05
2.85297e-05
3.1861e-05
3.53204e-05
3.81784e-05
4.10849e-05
4.37643e-05
4.58867e-05
4.68884e-05
4.72701e-05
4.71474e-05
4.66313e-05
4.58769e-05
4.49272e-05
4.38424e-05
4.26846e-05
4.14508e-05
4.05286e-05
3.92204e-05
3.84046e-05
3.76615e-05
3.66232e-05
3.56891e-05
3.50673e-05
3.43404e-05
3.4002e-05
3.35089e-05
3.3754e-05
3.36623e-05
3.48234e-05
3.55203e-05
3.80267e-05
4.02516e-05
4.47283e-05
4.49029e-05
3.71179e-05
1.03797e-05
1.77307e-06
2.00279e-05
2.36227e-05
2.79924e-05
3.17522e-05
3.50851e-05
3.81495e-05
4.04486e-05
4.15969e-05
4.29677e-05
4.40346e-05
4.43157e-05
4.41696e-05
4.3627e-05
4.2888e-05
4.19013e-05
4.08327e-05
3.97663e-05
3.86291e-05
3.73898e-05
3.64624e-05
3.55802e-05
3.4569e-05
3.38455e-05
3.32784e-05
3.29702e-05
3.28343e-05
3.29593e-05
3.34291e-05
3.39758e-05
3.50447e-05
3.60343e-05
3.80512e-05
3.95937e-05
4.2721e-05
4.47534e-05
4.69361e-05
4.29484e-05
3.34875e-05
9.75345e-06
2.89291e-06
2.34542e-05
2.64654e-05
3.10821e-05
3.44043e-05
3.68549e-05
3.87096e-05
3.9825e-05
4.01619e-05
4.05664e-05
4.08239e-05
4.08388e-05
4.0742e-05
4.03577e-05
4.0138e-05
3.94357e-05
3.91366e-05
3.88076e-05
3.83261e-05
3.80244e-05
3.77388e-05
3.76734e-05
3.76538e-05
3.78645e-05
3.81161e-05
3.86298e-05
3.91934e-05
3.99841e-05
4.0933e-05
4.18898e-05
4.33444e-05
4.43316e-05
4.63213e-05
4.68519e-05
4.94608e-05
4.81919e-05
4.64899e-05
4.04432e-05
2.53293e-05
8.48365e-06
1.96198e-06
2.9999e-06
3.90508e-06
4.80435e-06
5.64021e-06
6.39429e-06
7.04323e-06
7.56094e-06
7.92977e-06
8.15975e-06
8.30397e-06
8.3442e-06
8.32678e-06
8.27436e-06
8.18411e-06
8.06452e-06
7.93498e-06
7.80667e-06
7.67619e-06
7.55265e-06
7.43935e-06
7.33572e-06
7.25183e-06
7.17635e-06
7.13048e-06
7.08947e-06
7.08945e-06
7.10108e-06
7.13897e-06
7.18647e-06
7.29822e-06
7.39602e-06
7.63984e-06
7.82493e-06
8.25252e-06
8.52509e-06
8.98893e-06
9.02666e-06
8.72111e-06
7.2795e-06
)
;

boundaryField
{
    movingWall
    {
        type            nutkWallFunction;
        Cmu             0.09;
        kappa           0.41;
        E               9.8;
        value           uniform 0;
    }
    fixedWalls
    {
        type            nutkWallFunction;
        Cmu             0.09;
        kappa           0.41;
        E               9.8;
        value           uniform 0;
    }
    frontAndBack
    {
        type            empty;
    }
}


// ************************************************************************* //
