/*--------------------------------*- C++ -*----------------------------------*\
  =========                 |
  \\      /  F ield         | OpenFOAM: The Open Source CFD Toolbox
   \\    /   O peration     | Website:  https://openfoam.org
    \\  /    A nd           | Version:  13
     \\/     M anipulation  |
\*---------------------------------------------------------------------------*/
FoamFile
{
    format      ascii;
    class       volVectorField;
    location    "10";
    object      U;
}
// * * * * * * * * * * * * * * * * * * * * * * * * * * * * * * * * * * * * * //

dimensions      [0 1 -1 0 0 0 0];

internalField   nonuniform List<vector> 
1600
(
(0.00137244 -0.00116511 0)
(0.00689293 -0.00178971 0)
(0.0120065 -0.00144619 0)
(0.0150301 -0.000175366 0)
(0.0151907 0.000415698 0)
(0.014523 0.000177229 0)
(0.0136509 -0.000702508 0)
(0.0134783 -0.00131494 0)
(0.0130886 -0.00128754 0)
(0.0117424 -0.00101194 0)
(0.00868637 -0.00105546 0)
(0.000858037 -0.000297797 0)
(-0.0104779 0.00225069 0)
(-0.0232132 0.00908825 0)
(-0.0514947 0.0148098 0)
(-0.0768087 0.0142142 0)
(-0.0998173 0.0129957 0)
(-0.119319 0.0111279 0)
(-0.13555 0.0093376 0)
(-0.148677 0.0075196 0)
(-0.158731 0.00581431 0)
(-0.165972 0.00414317 0)
(-0.169912 0.00263663 0)
(-0.171389 0.00112493 0)
(-0.169965 -0.00132337 0)
(-0.164893 -0.00292988 0)
(-0.156787 -0.00527833 0)
(-0.144614 -0.00711037 0)
(-0.129004 -0.00944338 0)
(-0.109787 -0.0117049 0)
(-0.0871454 -0.013938 0)
(-0.0618147 -0.0153524 0)
(-0.0351134 -0.0156453 0)
(-0.00789031 -0.0141507 0)
(0.0141512 -0.0118615 0)
(0.0304747 -0.00456036 0)
(0.0321187 0.00334561 0)
(0.0255818 0.00550647 0)
(0.0123781 0.00468209 0)
(0.00257953 0.00319216 0)
(0.00243074 -0.00682991 0)
(0.0116175 -0.00994042 0)
(0.0173557 -0.00708349 0)
(0.0205542 -0.00258623 0)
(0.0206367 0.000750399 0)
(0.0182778 0.00188615 0)
(0.0143197 0.00161165 0)
(0.00888289 0.00179535 0)
(0.000353074 0.00338714 0)
(-0.0126279 0.00675616 0)
(-0.0315496 0.0128991 0)
(-0.0599259 0.0222127 0)
(-0.0921214 0.031146 0)
(-0.119577 0.0368393 0)
(-0.142029 0.0360798 0)
(-0.161505 0.033222 0)
(-0.177686 0.0290232 0)
(-0.191123 0.024483 0)
(-0.201831 0.0199207 0)
(-0.210043 0.0154769 0)
(-0.215791 0.0111817 0)
(-0.219207 0.00696084 0)
(-0.220291 0.00277592 0)
(-0.219111 -0.00156579 0)
(-0.215352 -0.00625215 0)
(-0.209115 -0.011102 0)
(-0.200073 -0.0162737 0)
(-0.188011 -0.0216996 0)
(-0.17259 -0.0273635 0)
(-0.153229 -0.032819 0)
(-0.1309 -0.0380066 0)
(-0.105582 -0.0418596 0)
(-0.077969 -0.0428077 0)
(-0.0494408 -0.0396976 0)
(-0.0218719 -0.0310635 0)
(0.00144437 -0.0147457 0)
(0.0172971 0.00362817 0)
(0.0175154 0.0118064 0)
(0.0105053 0.0144556 0)
(0.0016454 0.0111955 0)
(0.00382947 -0.0157132 0)
(0.0124492 -0.0175842 0)
(0.0156867 -0.0113293 0)
(0.0163488 -0.00307126 0)
(0.0140181 0.00284435 0)
(0.00871163 0.00594795 0)
(-0.000548709 0.00826159 0)
(-0.014834 0.0131251 0)
(-0.0359507 0.0222484 0)
(-0.0641009 0.0343452 0)
(-0.0951469 0.0458028 0)
(-0.123473 0.0526868 0)
(-0.147472 0.0556292 0)
(-0.16634 0.0551051 0)
(-0.181936 0.0515181 0)
(-0.194515 0.0464104 0)
(-0.204811 0.0402185 0)
(-0.213076 0.0337986 0)
(-0.219606 0.0273332 0)
(-0.224461 0.0210381 0)
(-0.22787 0.0145721 0)
(-0.229616 0.00847558 0)
(-0.229746 0.00228466 0)
(-0.228132 -0.00394277 0)
(-0.224847 -0.0104713 0)
(-0.219777 -0.0174347 0)
(-0.2128 -0.0251065 0)
(-0.203679 -0.033482 0)
(-0.192283 -0.0426271 0)
(-0.178195 -0.051909 0)
(-0.160916 -0.0606962 0)
(-0.140256 -0.0676537 0)
(-0.116144 -0.0704726 0)
(-0.0899991 -0.0681876 0)
(-0.0618345 -0.0572685 0)
(-0.0333277 -0.03621 0)
(-0.00640129 -0.00610684 0)
(0.0016704 0.0120465 0)
(0.00190236 0.0190407 0)
(-0.000279403 0.0149763 0)
(0.00430083 -0.0247297 0)
(0.0087836 -0.0221327 0)
(0.00882699 -0.0114411 0)
(0.00548488 -5.05966e-05 0)
(-0.000954344 0.00879871 0)
(-0.0119544 0.0163923 0)
(-0.0290363 0.025304 0)
(-0.0524083 0.0372585 0)
(-0.080607 0.0511924 0)
(-0.110457 0.0636173 0)
(-0.136953 0.0715015 0)
(-0.157434 0.0741435 0)
(-0.173558 0.0731366 0)
(-0.185844 0.0690753 0)
(-0.195917 0.0631314 0)
(-0.203775 0.0560778 0)
(-0.210214 0.0483959 0)
(-0.215362 0.04039 0)
(-0.219778 0.0322133 0)
(-0.223047 0.0242356 0)
(-0.225195 0.016652 0)
(-0.226072 0.00899327 0)
(-0.225784 0.00135276 0)
(-0.224308 -0.00645175 0)
(-0.221664 -0.0144955 0)
(-0.217719 -0.0229929 0)
(-0.212423 -0.0320889 0)
(-0.205648 -0.0419065 0)
(-0.197251 -0.0525467 0)
(-0.187208 -0.0642252 0)
(-0.175331 -0.0763359 0)
(-0.161344 -0.0879523 0)
(-0.144492 -0.0964416 0)
(-0.122562 -0.0975588 0)
(-0.0961312 -0.0882698 0)
(-0.0653944 -0.0655232 0)
(-0.0293153 -0.0269453 0)
(-0.00750599 0.00486471 0)
(-0.0025208 0.0168342 0)
(-0.000364696 0.0144194 0)
(0.00252676 -0.0291923 0)
(0.00281168 -0.021767 0)
(-0.00179772 -0.0068164 0)
(-0.00943671 0.00761975 0)
(-0.0210634 0.020864 0)
(-0.0379429 0.0341122 0)
(-0.0606403 0.0489455 0)
(-0.0875144 0.0648789 0)
(-0.115108 0.078843 0)
(-0.139402 0.0877679 0)
(-0.157689 0.0906181 0)
(-0.171555 0.0893277 0)
(-0.182215 0.08505 0)
(-0.190256 0.0785344 0)
(-0.196714 0.0707431 0)
(-0.201836 0.0620023 0)
(-0.206207 0.0529097 0)
(-0.209528 0.0438469 0)
(-0.211718 0.0350054 0)
(-0.212865 0.0262568 0)
(-0.213336 0.017665 0)
(-0.213063 0.00911429 0)
(-0.212175 0.000563374 0)
(-0.210647 -0.00819152 0)
(-0.208314 -0.0172319 0)
(-0.205246 -0.0268048 0)
(-0.201394 -0.0370696 0)
(-0.196745 -0.0481888 0)
(-0.191208 -0.0602072 0)
(-0.184659 -0.0730292 0)
(-0.176857 -0.0863463 0)
(-0.16741 -0.099421 0)
(-0.156118 -0.111687 0)
(-0.141759 -0.119699 0)
(-0.121492 -0.117879 0)
(-0.0931947 -0.100272 0)
(-0.0569592 -0.0637387 0)
(-0.0170881 -0.013024 0)
(-0.00233551 0.0113204 0)
(0.000669365 0.0133062 0)
(-0.000638054 -0.0296793 0)
(-0.0051549 -0.0162772 0)
(-0.0139137 0.00192339 0)
(-0.0258451 0.0201613 0)
(-0.0420729 0.0380941 0)
(-0.0630467 0.0563184 0)
(-0.0877654 0.0745693 0)
(-0.113209 0.0905606 0)
(-0.135755 0.101308 0)
(-0.152659 0.105151 0)
(-0.164909 0.103904 0)
(-0.174278 0.0995122 0)
(-0.18114 0.0927079 0)
(-0.186275 0.0843888 0)
(-0.190153 0.075141 0)
(-0.192826 0.0654728 0)
(-0.194584 0.0556601 0)
(-0.195578 0.0458472 0)
(-0.196068 0.0362012 0)
(-0.196232 0.0267717 0)
(-0.195876 0.0175787 0)
(-0.195101 0.00849184 0)
(-0.193888 -0.000574061 0)
(-0.192194 -0.00979489 0)
(-0.189988 -0.0193064 0)
(-0.18738 -0.0293213 0)
(-0.184375 -0.0400279 0)
(-0.181029 -0.0516301 0)
(-0.177352 -0.0642889 0)
(-0.173326 -0.0780591 0)
(-0.168823 -0.0927487 0)
(-0.163509 -0.107755 0)
(-0.156707 -0.121818 0)
(-0.147275 -0.133098 0)
(-0.133719 -0.138903 0)
(-0.112868 -0.131899 0)
(-0.0821079 -0.104705 0)
(-0.0380664 -0.0509019 0)
(-0.00482829 -0.00145155 0)
(0.00165698 0.0126111 0)
(-0.00398951 -0.0239048 0)
(-0.0130296 -0.00673561 0)
(-0.0254788 0.0146961 0)
(-0.0411238 0.0366646 0)
(-0.0606333 0.0586363 0)
(-0.0831132 0.0797811 0)
(-0.106549 0.0983665 0)
(-0.127835 0.111687 0)
(-0.143992 0.117623 0)
(-0.155167 0.117148 0)
(-0.163392 0.112953 0)
(-0.169264 0.106111 0)
(-0.173256 0.0974785 0)
(-0.175956 0.0878073 0)
(-0.177615 0.0775191 0)
(-0.178526 0.0670068 0)
(-0.178951 0.0565161 0)
(-0.179013 0.0462113 0)
(-0.178801 0.036179 0)
(-0.178298 0.026393 0)
(-0.177478 0.0168151 0)
(-0.176362 0.00734423 0)
(-0.174929 -0.00210712 0)
(-0.173162 -0.0116535 0)
(-0.171069 -0.021482 0)
(-0.168711 -0.0317422 0)
(-0.166149 -0.0426123 0)
(-0.163465 -0.054274 0)
(-0.160737 -0.0669096 0)
(-0.158024 -0.0806628 0)
(-0.155324 -0.0955651 0)
(-0.152469 -0.111376 0)
(-0.148932 -0.127349 0)
(-0.143612 -0.141815 0)
(-0.134769 -0.152015 0)
(-0.12034 -0.153876 0)
(-0.0977465 -0.139483 0)
(-0.0633788 -0.0981339 0)
(-0.0144919 -0.0233523 0)
(0.00274317 0.0114732 0)
(-0.00700665 -0.0139866 0)
(-0.0194967 0.00700538 0)
(-0.0348053 0.0308422 0)
(-0.0533669 0.0558359 0)
(-0.0742046 0.0801326 0)
(-0.0959724 0.101768 0)
(-0.116387 0.118382 0)
(-0.132518 0.127506 0)
(-0.143345 0.128809 0)
(-0.150828 0.125258 0)
(-0.156087 0.11869 0)
(-0.159422 0.109953 0)
(-0.161425 0.0999464 0)
(-0.162483 0.0892366 0)
(-0.162881 0.0782199 0)
(-0.162894 0.0672216 0)
(-0.162662 0.0564078 0)
(-0.162249 0.0458715 0)
(-0.161667 0.0356222 0)
(-0.160894 0.0256113 0)
(-0.15991 0.0157798 0)
(-0.158694 0.00603987 0)
(-0.157228 -0.00369281 0)
(-0.155496 -0.0135278 0)
(-0.153515 -0.023603 0)
(-0.151328 -0.0340556 0)
(-0.149006 -0.0450391 0)
(-0.146648 -0.0567185 0)
(-0.144369 -0.0692696 0)
(-0.142276 -0.0828558 0)
(-0.140431 -0.0975805 0)
(-0.138774 -0.113393 0)
(-0.136968 -0.129917 0)
(-0.134158 -0.146198 0)
(-0.128839 -0.160197 0)
(-0.119017 -0.168123 0)
(-0.102616 -0.16384 0)
(-0.0767616 -0.136793 0)
(-0.0332337 -0.0668159 0)
(0.000713273 0.000829729 0)
(-0.00873665 -0.000188577 0)
(-0.0241814 0.0239477 0)
(-0.0414372 0.049238 0)
(-0.0612745 0.0757638 0)
(-0.0819312 0.100626 0)
(-0.101792 0.121038 0)
(-0.118518 0.134284 0)
(-0.129783 0.138597 0)
(-0.137134 0.136446 0)
(-0.142122 0.130502 0)
(-0.14526 0.122026 0)
(-0.146943 0.111888 0)
(-0.147713 0.100899 0)
(-0.14786 0.0895216 0)
(-0.147658 0.0781094 0)
(-0.14728 0.0668811 0)
(-0.146795 0.055924 0)
(-0.146227 0.045267 0)
(-0.14556 0.0348796 0)
(-0.144763 0.0247078 0)
(-0.143803 0.0146862 0)
(-0.142641 0.00472817 0)
(-0.141252 -0.00524296 0)
(-0.139616 -0.0153215 0)
(-0.137745 -0.0256117 0)
(-0.135673 -0.0362207 0)
(-0.133463 -0.0472719 0)
(-0.131215 -0.0589047 0)
(-0.129057 -0.071285 0)
(-0.12713 -0.0846006 0)
(-0.125554 -0.0990356 0)
(-0.124361 -0.114695 0)
(-0.12337 -0.131471 0)
(-0.12198 -0.148809 0)
(-0.118909 -0.165305 0)
(-0.112325 -0.177929 0)
(-0.10046 -0.180956 0)
(-0.0811654 -0.165745 0)
(-0.0506796 -0.114662 0)
(-0.00662756 -0.0147118 0)
(-0.00977838 0.0159393 0)
(-0.026864 0.0424839 0)
(-0.0449237 0.0684539 0)
(-0.0649493 0.0953288 0)
(-0.0844855 0.119541 0)
(-0.101993 0.137468 0)
(-0.114277 0.145936 0)
(-0.122429 0.146465 0)
(-0.127526 0.141643 0)
(-0.130807 0.133764 0)
(-0.132566 0.123809 0)
(-0.13329 0.112672 0)
(-0.13341 0.101039 0)
(-0.133162 0.0892886 0)
(-0.132762 0.0776951 0)
(-0.132299 0.0663776 0)
(-0.131808 0.0553657 0)
(-0.131283 0.0446446 0)
(-0.130691 0.0341632 0)
(-0.129994 0.0238591 0)
(-0.129147 0.0136653 0)
(-0.128115 0.00350288 0)
(-0.126861 -0.00670131 0)
(-0.125369 -0.0170209 0)
(-0.123638 -0.027539 0)
(-0.121692 -0.0383345 0)
(-0.119577 -0.0494974 0)
(-0.117375 -0.0611318 0)
(-0.115201 -0.0733705 0)
(-0.1132 -0.0863879 0)
(-0.111521 -0.100403 0)
(-0.110268 -0.115649 0)
(-0.10941 -0.132271 0)
(-0.108604 -0.150138 0)
(-0.106844 -0.168442 0)
(-0.102312 -0.184772 0)
(-0.0934093 -0.193644 0)
(-0.0784406 -0.187564 0)
(-0.0552542 -0.150649 0)
(-0.0159648 -0.0418811 0)
(-0.0102253 0.0332144 0)
(-0.0277751 0.0617121 0)
(-0.0456086 0.0875678 0)
(-0.0649193 0.113895 0)
(-0.0829122 0.136399 0)
(-0.0971728 0.150412 0)
(-0.106145 0.154697 0)
(-0.112421 0.152192 0)
(-0.11595 0.14521 0)
(-0.118151 0.135768 0)
(-0.119099 0.124697 0)
(-0.119355 0.112873 0)
(-0.119221 0.100845 0)
(-0.118894 0.0889105 0)
(-0.11852 0.0772537 0)
(-0.118141 0.0659183 0)
(-0.117764 0.0548925 0)
(-0.117367 0.0441314 0)
(-0.11691 0.0335714 0)
(-0.116351 0.0231453 0)
(-0.115646 0.0127865 0)
(-0.114762 0.0024265 0)
(-0.113666 -0.00800318 0)
(-0.112341 -0.0185614 0)
(-0.11078 -0.0293134 0)
(-0.108993 -0.0403191 0)
(-0.107009 -0.0516413 0)
(-0.104886 -0.0633528 0)
(-0.10271 -0.0755517 0)
(-0.100607 -0.0883832 0)
(-0.0987246 -0.102064 0)
(-0.0972027 -0.116889 0)
(-0.096106 -0.133178 0)
(-0.0953061 -0.151112 0)
(-0.0941439 -0.170461 0)
(-0.0909258 -0.189813 0)
(-0.0841028 -0.203463 0)
(-0.0718972 -0.204907 0)
(-0.0516736 -0.180698 0)
(-0.0194685 -0.0927418 0)
(-0.00996684 0.050405 0)
(-0.0270749 0.0805897 0)
(-0.04401 0.105771 0)
(-0.0619531 0.130824 0)
(-0.0780975 0.150967 0)
(-0.0888848 0.160484 0)
(-0.0962166 0.161579 0)
(-0.100868 0.156464 0)
(-0.103446 0.147741 0)
(-0.104985 0.137042 0)
(-0.105528 0.125147 0)
(-0.105628 0.112859 0)
(-0.105474 0.100599 0)
(-0.105233 0.0885874 0)
(-0.104991 0.0769227 0)
(-0.10476 0.0655963 0)
(-0.104533 0.0545648 0)
(-0.104278 0.0437639 0)
(-0.103956 0.0331237 0)
(-0.103529 0.0225763 0)
(-0.10296 0.0120581 0)
(-0.102218 0.0015085 0)
(-0.101281 -0.00913383 0)
(-0.100131 -0.0199207 0)
(-0.0987575 -0.0309042 0)
(-0.0971609 -0.0421315 0)
(-0.0953525 -0.0536462 0)
(-0.0933639 -0.0654951 0)
(-0.0912521 -0.0777427 0)
(-0.089109 -0.0904975 0)
(-0.0870625 -0.103951 0)
(-0.0852602 -0.118417 0)
(-0.0838227 -0.134323 0)
(-0.0827539 -0.152093 0)
(-0.0817284 -0.171898 0)
(-0.0794414 -0.193128 0)
(-0.0735881 -0.211902 0)
(-0.0639418 -0.218509 0)
(-0.0464963 -0.20391 0)
(-0.0164575 -0.127268 0)
(-0.00920897 0.066895 0)
(-0.0251572 0.0985149 0)
(-0.0407179 0.122662 0)
(-0.057128 0.146097 0)
(-0.0707022 0.162824 0)
(-0.0789961 0.168652 0)
(-0.08514 0.167005 0)
(-0.0886391 0.15977 0)
(-0.0906631 0.149633 0)
(-0.0918209 0.137939 0)
(-0.0922182 0.12544 0)
(-0.0923322 0.11284 0)
(-0.0922768 0.100447 0)
(-0.0921859 0.0884062 0)
(-0.0921011 0.0767497 0)
(-0.0920224 0.0654303 0)
(-0.0919326 0.0543824 0)
(-0.0917991 0.0435305 0)
(-0.0915893 0.0328033 0)
(-0.0912725 0.0221349 0)
(-0.0908211 0.0114661 0)
(-0.0902115 0.000741366 0)
(-0.0894284 -0.0100945 0)
(-0.0884559 -0.0210904 0)
(-0.0872812 -0.0322915 0)
(-0.0858985 -0.043738 0)
(-0.0843054 -0.0554626 0)
(-0.0825118 -0.0674947 0)
(-0.0805454 -0.0798719 0)
(-0.0784634 -0.0926663 0)
(-0.0763613 -0.106031 0)
(-0.0743721 -0.12026 0)
(-0.0726387 -0.135837 0)
(-0.0712432 -0.153378 0)
(-0.0700653 -0.173374 0)
(-0.0682351 -0.195805 0)
(-0.0632918 -0.218797 0)
(-0.0555345 -0.230331 0)
(-0.0406952 -0.224964 0)
(-0.0146456 -0.161366 0)
(-0.00804566 0.0818875 0)
(-0.0224473 0.114916 0)
(-0.0363096 0.137838 0)
(-0.0509389 0.159339 0)
(-0.0617429 0.172338 0)
(-0.068409 0.175418 0)
(-0.0735983 0.171384 0)
(-0.0762822 0.162434 0)
(-0.0779874 0.151149 0)
(-0.0789404 0.138674 0)
(-0.0793347 0.125733 0)
(-0.0795375 0.112916 0)
(-0.0796194 0.100439 0)
(-0.0796815 0.0883836 0)
(-0.0797387 0.0767282 0)
(-0.0797851 0.0653999 0)
(-0.079801 0.0543182 0)
(-0.0797594 0.0434032 0)
(-0.0796359 0.0325846 0)
(-0.079409 0.0218001 0)
(-0.0790601 0.0109944 0)
(-0.0785733 0.000115231 0)
(-0.0779384 -0.0108894 0)
(-0.0771427 -0.0220674 0)
(-0.0761736 -0.0334624 0)
(-0.0750202 -0.0451123 0)
(-0.0736708 -0.0570453 0)
(-0.0721186 -0.0692806 0)
(-0.0703678 -0.0818367 0)
(-0.0684451 -0.0947545 0)
(-0.0664127 -0.108144 0)
(-0.0643785 -0.122259 0)
(-0.0624867 -0.137587 0)
(-0.0608651 -0.154862 0)
(-0.059508 -0.174858 0)
(-0.057946 -0.198037 0)
(-0.0542248 -0.223508 0)
(-0.0468278 -0.240867 0)
(-0.035467 -0.241016 0)
(-0.0120414 -0.187197 0)
(-0.00678292 0.0951279 0)
(-0.0192096 0.12943 0)
(-0.0311685 0.151006 0)
(-0.0437489 0.170365 0)
(-0.0520794 0.180119 0)
(-0.0578914 0.181051 0)
(-0.0619724 0.174971 0)
(-0.0641328 0.164654 0)
(-0.0656253 0.152444 0)
(-0.0664753 0.139362 0)
(-0.0669245 0.126092 0)
(-0.067231 0.113115 0)
(-0.0674422 0.100574 0)
(-0.0676295 0.0884978 0)
(-0.0677943 0.0768267 0)
(-0.0679297 0.0654704 0)
(-0.0680185 0.0543397 0)
(-0.0680419 0.0433542 0)
(-0.0679842 0.0324458 0)
(-0.0678325 0.0215558 0)
(-0.0675761 0.0106314 0)
(-0.0672061 -0.000377727 0)
(-0.0667161 -0.0115222 0)
(-0.0660965 -0.0228513 0)
(-0.0653362 -0.0344104 0)
(-0.0644218 -0.0462393 0)
(-0.0633356 -0.0583665 0)
(-0.0620593 -0.0708076 0)
(-0.0605793 -0.0835687 0)
(-0.0588977 -0.0966654 0)
(-0.0570477 -0.110167 0)
(-0.0551093 -0.124277 0)
(-0.0532144 -0.139451 0)
(-0.0515139 -0.156485 0)
(-0.0500678 -0.176401 0)
(-0.0486333 -0.200024 0)
(-0.0458094 -0.227246 0)
(-0.0392024 -0.250436 0)
(-0.0309475 -0.255792 0)
(-0.0105774 -0.211416 0)
(-0.00522769 0.105942 0)
(-0.0156335 0.141752 0)
(-0.0256565 0.162153 0)
(-0.0360805 0.179306 0)
(-0.0424184 0.186485 0)
(-0.0473769 0.185618 0)
(-0.0505401 0.177931 0)
(-0.0523415 0.166542 0)
(-0.053665 0.153601 0)
(-0.0544605 0.14005 0)
(-0.0549698 0.126529 0)
(-0.0553623 0.113423 0)
(-0.0556713 0.100822 0)
(-0.0559444 0.0887116 0)
(-0.0561786 0.0770072 0)
(-0.0563685 0.0656075 0)
(-0.0565028 0.054419 0)
(-0.0565711 0.0433623 0)
(-0.0565654 0.032372 0)
(-0.0564802 0.0213917 0)
(-0.0563113 0.0103705 0)
(-0.0560548 -0.000741502 0)
(-0.0557076 -0.0119951 0)
(-0.0552637 -0.0234419 0)
(-0.0547134 -0.0351316 0)
(-0.0540431 -0.047108 0)
(-0.0532326 -0.0594045 0)
(-0.0522565 -0.0720377 0)
(-0.0510888 -0.0850078 0)
(-0.049713 -0.0983112 0)
(-0.048138 -0.11198 0)
(-0.0464187 -0.126164 0)
(-0.0446715 -0.141265 0)
(-0.0430636 -0.158089 0)
(-0.0417151 -0.177836 0)
(-0.0404766 -0.20164 0)
(-0.038382 -0.229832 0)
(-0.0332959 -0.257686 0)
(-0.0260643 -0.267758 0)
(-0.00890637 -0.230436 0)
(-0.0038507 0.114635 0)
(-0.0119306 0.151897 0)
(-0.0200538 0.171311 0)
(-0.0282667 0.186302 0)
(-0.0329372 0.19156 0)
(-0.0370411 0.189265 0)
(-0.039442 0.180362 0)
(-0.0409551 0.168158 0)
(-0.0421215 0.154653 0)
(-0.0428742 0.140745 0)
(-0.0434212 0.127025 0)
(-0.0438669 0.113807 0)
(-0.0442341 0.101142 0)
(-0.0445531 0.0889854 0)
(-0.0448216 0.0772346 0)
(-0.0450376 0.0657827 0)
(-0.0451966 0.0545349 0)
(-0.0452957 0.0434132 0)
(-0.0453336 0.0323541 0)
(-0.0453105 0.0213029 0)
(-0.045227 0.0102091 0)
(-0.0450831 -0.000977537 0)
(-0.0448782 -0.012309 0)
(-0.0446094 -0.0238398 0)
(-0.0442692 -0.0356243 0)
(-0.0438454 -0.0477128 0)
(-0.043318 -0.0601455 0)
(-0.0426587 -0.0729449 0)
(-0.0418341 -0.0861103 0)
(-0.0408144 -0.0996249 0)
(-0.0395893 -0.113489 0)
(-0.03819 -0.127797 0)
(-0.0367128 -0.142885 0)
(-0.0353242 -0.159531 0)
(-0.0341837 -0.179062 0)
(-0.0332173 -0.202943 0)
(-0.0317516 -0.231957 0)
(-0.0279614 -0.263527 0)
(-0.0227394 -0.278479 0)
(-0.00777918 -0.248153 0)
(-0.00210628 0.120533 0)
(-0.00816046 0.159699 0)
(-0.0143713 0.178391 0)
(-0.0204972 0.19156 0)
(-0.0237489 0.195439 0)
(-0.0269786 0.192089 0)
(-0.0287225 0.182329 0)
(-0.0299625 0.169531 0)
(-0.030966 0.155604 0)
(-0.0316646 0.141426 0)
(-0.0322156 0.127548 0)
(-0.0326776 0.11423 0)
(-0.033064 0.101497 0)
(-0.0333939 0.0892837 0)
(-0.0336674 0.0774796 0)
(-0.0338873 0.065974 0)
(-0.0340555 0.0546722 0)
(-0.0341755 0.0434974 0)
(-0.0342516 0.032387 0)
(-0.0342883 0.021287 0)
(-0.0342896 0.0101463 0)
(-0.0342585 -0.00108625 0)
(-0.0341965 -0.0124643 0)
(-0.0341029 -0.0240452 0)
(-0.0339729 -0.0358883 0)
(-0.0337968 -0.0480506 0)
(-0.0335565 -0.0605808 0)
(-0.0332246 -0.0735102 0)
(-0.0327649 -0.0868422 0)
(-0.0321396 -0.100553 0)
(-0.0313242 -0.114616 0)
(-0.0303308 -0.129075 0)
(-0.0292368 -0.144193 0)
(-0.0281988 -0.160685 0)
(-0.0273943 -0.179936 0)
(-0.0268152 -0.20375 0)
(-0.0260355 -0.233477 0)
(-0.0235206 -0.267275 0)
(-0.019489 -0.286952 0)
(-0.00658727 -0.262518 0)
(-0.000895935 0.124427 0)
(-0.00445482 0.165279 0)
(-0.00873433 0.183441 0)
(-0.0128591 0.1952 0)
(-0.0149316 0.198266 0)
(-0.0171981 0.194136 0)
(-0.0183613 0.183839 0)
(-0.01932 0.170655 0)
(-0.0201457 0.156437 0)
(-0.0207666 0.142065 0)
(-0.021286 0.128062 0)
(-0.021729 0.114653 0)
(-0.0221004 0.10185 0)
(-0.0224119 0.0895769 0)
(-0.0226672 0.0777188 0)
(-0.0228737 0.0661646 0)
(-0.0230392 0.0548199 0)
(-0.0231725 0.0436083 0)
(-0.0232824 0.0324675 0)
(-0.0233769 0.0213427 0)
(-0.0234627 0.0101822 0)
(-0.0235448 -0.00106711 0)
(-0.0236266 -0.0124605 0)
(-0.0237091 -0.024058 0)
(-0.0237903 -0.0359232 0)
(-0.0238632 -0.0481197 0)
(-0.0239131 -0.0607053 0)
(-0.0239157 -0.0737213 0)
(-0.0238361 -0.0871793 0)
(-0.0236328 -0.101054 0)
(-0.0232723 -0.115298 0)
(-0.0227501 -0.12991 0)
(-0.0221239 -0.145079 0)
(-0.0215342 -0.161441 0)
(-0.0211668 -0.180391 0)
(-0.0210828 -0.204019 0)
(-0.021033 -0.234215 0)
(-0.0196739 -0.270118 0)
(-0.0171519 -0.294311 0)
(-0.00572222 -0.275904 0)
(0.00102564 0.125393 0)
(-0.000752323 0.168603 0)
(-0.00312607 0.186532 0)
(-0.00541745 0.197383 0)
(-0.00639753 0.199995 0)
(-0.00769746 0.195448 0)
(-0.0083137 0.18492 0)
(-0.00896836 0.171528 0)
(-0.00959544 0.157133 0)
(-0.0101101 0.142633 0)
(-0.0105645 0.128534 0)
(-0.0109581 0.115044 0)
(-0.0112866 0.102173 0)
(-0.0115565 0.0898411 0)
(-0.011775 0.0779339 0)
(-0.0119538 0.066341 0)
(-0.0121062 0.0549686 0)
(-0.0122457 0.04374 0)
(-0.0123849 0.0325921 0)
(-0.0125346 0.0214689 0)
(-0.0127037 0.0103167 0)
(-0.0128993 -0.000919048 0)
(-0.0131258 -0.0122961 0)
(-0.0133864 -0.0238766 0)
(-0.0136807 -0.035728 0)
(-0.0140045 -0.0479193 0)
(-0.0143472 -0.0605159 0)
(-0.0146898 -0.0735703 0)
(-0.0150012 -0.0871049 0)
(-0.015241 -0.101098 0)
(-0.0153713 -0.115489 0)
(-0.0153741 -0.130237 0)
(-0.0152881 -0.145458 0)
(-0.0152344 -0.161701 0)
(-0.0153978 -0.18033 0)
(-0.0159035 -0.203669 0)
(-0.0166049 -0.234095 0)
(-0.0162849 -0.271479 0)
(-0.0149911 -0.299912 0)
(-0.00483706 -0.28698 0)
(0.00224907 0.124078 0)
(0.00280041 0.169714 0)
(0.00235963 0.187785 0)
(0.00178798 0.198223 0)
(0.0019025 0.200716 0)
(0.00158872 0.196015 0)
(0.00149385 0.185504 0)
(0.00116006 0.172106 0)
(0.000755451 0.157658 0)
(0.000374984 0.143098 0)
(1.33389e-05 0.128934 0)
(-0.000305094 0.115376 0)
(-0.000566972 0.102442 0)
(-0.000776304 0.0900572 0)
(-0.000942637 0.0781099 0)
(-0.00108186 0.066492 0)
(-0.00121177 0.05511 0)
(-0.00135007 0.0438866 0)
(-0.0015128 0.0327571 0)
(-0.00171359 0.0216632 0)
(-0.0019636 0.0105492 0)
(-0.00227151 -0.000641528 0)
(-0.00264364 -0.011969 0)
(-0.00308416 -0.0234977 0)
(-0.00359435 -0.0352981 0)
(-0.00417238 -0.0474438 0)
(-0.00481205 -0.0600077 0)
(-0.00549946 -0.0730516 0)
(-0.00620877 -0.0866081 0)
(-0.00690733 -0.100662 0)
(-0.00755638 -0.11515 0)
(-0.00812639 -0.129998 0)
(-0.00863852 -0.145257 0)
(-0.00919245 -0.161383 0)
(-0.00996458 -0.179686 0)
(-0.0111341 -0.202657 0)
(-0.0126518 -0.233192 0)
(-0.0133039 -0.271959 0)
(-0.0133761 -0.304567 0)
(-0.00415603 -0.297332 0)
(0.00356403 0.120628 0)
(0.00633142 0.168708 0)
(0.00772845 0.187371 0)
(0.00877161 0.197726 0)
(0.0100369 0.200261 0)
(0.0106449 0.195921 0)
(0.0110971 0.185662 0)
(0.011129 0.172391 0)
(0.0109733 0.157994 0)
(0.0107544 0.143432 0)
(0.0105122 0.129235 0)
(0.0102909 0.115627 0)
(0.0101132 0.102641 0)
(0.00997944 0.09021 0)
(0.00987822 0.0782337 0)
(0.00978995 0.0666063 0)
(0.00969255 0.055235 0)
(0.00956428 0.0440409 0)
(0.00938561 0.0329566 0)
(0.00914002 0.0219215 0)
(0.00881407 0.0108771 0)
(0.00839693 -0.00023592 0)
(0.00788071 -0.0114794 0)
(0.00726013 -0.0229204 0)
(0.00653193 -0.0346316 0)
(0.00569496 -0.0466899 0)
(0.00475223 -0.0591739 0)
(0.00371404 -0.0721538 0)
(0.00259762 -0.0856747 0)
(0.0014269 -0.0997311 0)
(0.000238138 -0.114254 0)
(-0.000935019 -0.129149 0)
(-0.00209747 -0.144415 0)
(-0.00332401 -0.160414 0)
(-0.00477456 -0.178377 0)
(-0.00666227 -0.200909 0)
(-0.00904293 -0.231399 0)
(-0.0105459 -0.2712 0)
(-0.011912 -0.307836 0)
(-0.00344556 -0.306014 0)
(0.00501369 0.114463 0)
(0.00987548 0.165561 0)
(0.0130037 0.185295 0)
(0.0155479 0.195918 0)
(0.0179521 0.198783 0)
(0.0195098 0.195063 0)
(0.0205632 0.185346 0)
(0.0209916 0.172347 0)
(0.0211119 0.158111 0)
(0.0210843 0.143615 0)
(0.0209869 0.129419 0)
(0.020883 0.115778 0)
(0.0208066 0.102749 0)
(0.020763 0.0902853 0)
(0.0207398 0.0782935 0)
(0.0207144 0.0666738 0)
(0.0206608 0.055334 0)
(0.020553 0.0441936 0)
(0.020368 0.0331825 0)
(0.0200862 0.0222369 0)
(0.0196915 0.0112951 0)
(0.019171 0.000295052 0)
(0.0185146 -0.010828 0)
(0.0177153 -0.0221435 0)
(0.0167677 -0.033726 0)
(0.0156685 -0.0456556 0)
(0.0144183 -0.0580135 0)
(0.0130215 -0.0708751 0)
(0.0114848 -0.084295 0)
(0.00982985 -0.0982816 0)
(0.00808413 -0.11277 0)
(0.00627532 -0.127652 0)
(0.00441397 -0.142882 0)
(0.00245605 -0.15873 0)
(0.000260694 -0.176338 0)
(-0.00241111 -0.198389 0)
(-0.00573699 -0.22879 0)
(-0.0080074 -0.26953 0)
(-0.0107745 -0.310273 0)
(-0.00283809 -0.314131 0)
(0.00643691 0.106031 0)
(0.0133693 0.16036 0)
(0.0181868 0.181643 0)
(0.0221473 0.192858 0)
(0.025809 0.196177 0)
(0.028057 0.193392 0)
(0.0298499 0.184592 0)
(0.0307563 0.171965 0)
(0.0311996 0.157981 0)
(0.0314033 0.143614 0)
(0.0314822 0.129459 0)
(0.031522 0.115809 0)
(0.0315682 0.102754 0)
(0.0316314 0.0902695 0)
(0.0317003 0.0782765 0)
(0.0317506 0.0666819 0)
(0.0317529 0.0553949 0)
(0.0316776 0.0443337 0)
(0.0314978 0.0334247 0)
(0.0311904 0.0226005 0)
(0.0307363 0.0117959 0)
(0.0301199 0.000945807 0)
(0.0293287 -0.010018 0)
(0.0283538 -0.0211668 0)
(0.0271876 -0.032577 0)
(0.0258245 -0.044331 0)
(0.024261 -0.0565135 0)
(0.0224951 -0.0692047 0)
(0.0205305 -0.0824633 0)
(0.0183776 -0.096304 0)
(0.0160491 -0.110674 0)
(0.0135742 -0.125467 0)
(0.0109709 -0.140606 0)
(0.00822806 -0.156274 0)
(0.0052269 -0.173502 0)
(0.00171134 -0.19502 0)
(-0.002635 -0.225265 0)
(-0.00557932 -0.266885 0)
(-0.00994311 -0.311319 0)
(-0.0019628 -0.321082 0)
(0.00776578 0.0952835 0)
(0.0167545 0.153089 0)
(0.0232307 0.176431 0)
(0.0285353 0.188561 0)
(0.0332289 0.192816 0)
(0.0364983 0.190747 0)
(0.0389561 0.183171 0)
(0.0404364 0.171163 0)
(0.0412558 0.15755 0)
(0.0417374 0.143387 0)
(0.0420354 0.129323 0)
(0.0422531 0.115696 0)
(0.0424486 0.102635 0)
(0.0426402 0.0901458 0)
(0.0428194 0.078168 0)
(0.0429614 0.0666171 0)
(0.0430346 0.0554051 0)
(0.043006 0.0444489 0)
(0.042845 0.0336716 0)
(0.0425249 0.0230016 0)
(0.0420229 0.0123702 0)
(0.0413206 0.00170856 0)
(0.0404025 -0.00905475 0)
(0.0392569 -0.0199935 0)
(0.0378739 -0.0311855 0)
(0.0362448 -0.0427148 0)
(0.0343627 -0.054667 0)
(0.0322215 -0.0671241 0)
(0.0298159 -0.0801522 0)
(0.0271417 -0.0937744 0)
(0.0242069 -0.107944 0)
(0.0210338 -0.12256 0)
(0.0176415 -0.137532 0)
(0.0140577 -0.152982 0)
(0.0101939 -0.169817 0)
(0.00576129 -0.190777 0)
(0.000318243 -0.220844 0)
(-0.00322527 -0.263423 0)
(-0.00913198 -0.3115 0)
(-0.00124518 -0.327646 0)
(0.008935 0.0823368 0)
(0.0199207 0.143858 0)
(0.0280263 0.169749 0)
(0.0346201 0.183109 0)
(0.0402742 0.188441 0)
(0.0446446 0.187298 0)
(0.0477827 0.181008 0)
(0.0499623 0.169879 0)
(0.0512565 0.156763 0)
(0.0520882 0.142887 0)
(0.0526644 0.128968 0)
(0.0531089 0.115402 0)
(0.0534931 0.102364 0)
(0.0538445 0.0898925 0)
(0.0541594 0.0779496 0)
(0.0544145 0.0664629 0)
(0.0545775 0.0553489 0)
(0.0546131 0.044524 0)
(0.0544872 0.0339085 0)
(0.0541695 0.0234268 0)
(0.0536336 0.0130059 0)
(0.0528579 0.00257342 0)
(0.0518233 -0.0079458 0)
(0.0505147 -0.0186277 0)
(0.0489191 -0.029552 0)
(0.0470243 -0.0408037 0)
(0.0448187 -0.052469 0)
(0.0422904 -0.06463 0)
(0.0394258 -0.0773515 0)
(0.036212 -0.0906642 0)
(0.0326421 -0.104539 0)
(0.0287281 -0.118888 0)
(0.0244985 -0.133615 0)
(0.0200156 -0.148789 0)
(0.0152156 -0.165207 0)
(0.00978798 -0.185599 0)
(0.00320487 -0.215456 0)
(-0.000861803 -0.259009 0)
(-0.00852625 -0.31043 0)
(-0.000307613 -0.333376 0)
(0.0097636 0.0672271 0)
(0.0227019 0.132597 0)
(0.0323475 0.161545 0)
(0.0402109 0.176501 0)
(0.0468669 0.183026 0)
(0.052221 0.183101 0)
(0.056272 0.177944 0)
(0.0592209 0.167966 0)
(0.0611258 0.15552 0)
(0.0624174 0.142032 0)
(0.0633595 0.12833 0)
(0.0641037 0.114877 0)
(0.0647358 0.1019 0)
(0.065294 0.0894764 0)
(0.0657819 0.0775944 0)
(0.0661806 0.0661967 0)
(0.0664588 0.0552064 0)
(0.0665804 0.0445411 0)
(0.0665092 0.0341189 0)
(0.0662121 0.0238605 0)
(0.0656585 0.013689 0)
(0.0648239 0.00352822 0)
(0.0636851 -0.00670099 0)
(0.062223 -0.0170763 0)
(0.0604207 -0.0276789 0)
(0.0582613 -0.0385947 0)
(0.0557274 -0.0499088 0)
(0.0528003 -0.061702 0)
(0.0494579 -0.0740386 0)
(0.0456753 -0.0869534 0)
(0.0414325 -0.100428 0)
(0.0367371 -0.114399 0)
(0.0316134 -0.128789 0)
(0.0261589 -0.143632 0)
(0.0203301 -0.159598 0)
(0.0138244 -0.1794 0)
(0.00607144 -0.209039 0)
(0.00153012 -0.253727 0)
(-0.00815934 -0.308637 0)
(0.000592978 -0.33888 0)
(0.00996786 0.0504654 0)
(0.0247333 0.119531 0)
(0.035909 0.151887 0)
(0.0450677 0.168761 0)
(0.0527723 0.176568 0)
(0.0591264 0.1779 0)
(0.0641833 0.173998 0)
(0.068034 0.165284 0)
(0.0707217 0.153685 0)
(0.0726331 0.140714 0)
(0.0740724 0.127318 0)
(0.0752229 0.114045 0)
(0.0761896 0.101183 0)
(0.0770241 0.0888498 0)
(0.0777405 0.0770644 0)
(0.0783267 0.0657875 0)
(0.0787556 0.0549518 0)
(0.0789926 0.0444778 0)
(0.0790009 0.034283 0)
(0.0787458 0.0242848 0)
(0.0781934 0.0144037 0)
(0.0773161 0.00455918 0)
(0.0760869 -0.0053314 0)
(0.0744814 -0.0153468 0)
(0.0724783 -0.0255694 0)
(0.0700547 -0.036085 0)
(0.0671859 -0.0469766 0)
(0.0638449 -0.0583225 0)
(0.0599997 -0.0701838 0)
(0.0556141 -0.0825988 0)
(0.0506559 -0.0955633 0)
(0.0451263 -0.109044 0)
(0.0390488 -0.122985 0)
(0.032546 -0.137424 0)
(0.025604 -0.152903 0)
(0.0179441 -0.172072 0)
(0.00894066 -0.201436 0)
(0.00395719 -0.247338 0)
(-0.0080194 -0.305888 0)
(0.00175453 -0.343746 0)
(0.00862587 0.0324851 0)
(0.0255265 0.104448 0)
(0.0382745 0.140527 0)
(0.0488424 0.1598 0)
(0.0577003 0.169098 0)
(0.0650989 0.171646 0)
(0.0712461 0.169018 0)
(0.0761586 0.161641 0)
(0.0798307 0.151057 0)
(0.0825718 0.138759 0)
(0.084692 0.125792 0)
(0.086402 0.112795 0)
(0.0878287 0.100122 0)
(0.0890412 0.0879404 0)
(0.0900672 0.0763024 0)
(0.0909052 0.0651903 0)
(0.0915356 0.0545491 0)
(0.0919283 0.0443048 0)
(0.0920485 0.0343762 0)
(0.0918622 0.024679 0)
(0.0913329 0.0151322 0)
(0.0904311 0.00565145 0)
(0.0891254 -0.00384826 0)
(0.087386 -0.0134463 0)
(0.0851867 -0.0232251 0)
(0.0824972 -0.0332696 0)
(0.0792839 -0.043659 0)
(0.0755097 -0.0544682 0)
(0.0711316 -0.0657542 0)
(0.0661029 -0.0775597 0)
(0.0603802 -0.0898938 0)
(0.0539611 -0.10276 0)
(0.0468666 -0.116137 0)
(0.039241 -0.13008 0)
(0.0310871 -0.145035 0)
(0.0221939 -0.16356 0)
(0.0118962 -0.192624 0)
(0.00640704 -0.239753 0)
(-0.00823898 -0.302455 0)
(0.00308438 -0.348251 0)
(0.00449123 0.0165247 0)
(0.0241742 0.0878976 0)
(0.0389822 0.127432 0)
(0.0511679 0.149459 0)
(0.0613144 0.160546 0)
(0.0698266 0.164293 0)
(0.0771342 0.162863 0)
(0.0832812 0.156838 0)
(0.0881699 0.14741 0)
(0.0919952 0.135957 0)
(0.095034 0.12357 0)
(0.0975089 0.110973 0)
(0.0995681 0.0985914 0)
(0.1013 0.0866467 0)
(0.102751 0.0752274 0)
(0.103932 0.0643411 0)
(0.104836 0.053948 0)
(0.105441 0.0439825 0)
(0.105718 0.0343673 0)
(0.105634 0.0250178 0)
(0.105155 0.0158543 0)
(0.104249 0.00678889 0)
(0.102881 -0.00226328 0)
(0.101016 -0.0113805 0)
(0.0986219 -0.0206451 0)
(0.095661 -0.0301398 0)
(0.0920891 -0.0399379 0)
(0.0878573 -0.0501105 0)
(0.0829116 -0.0607102 0)
(0.0771951 -0.0717864 0)
(0.0706564 -0.0833629 0)
(0.0632915 -0.0954871 0)
(0.0551177 -0.108172 0)
(0.046298 -0.121521 0)
(0.0368368 -0.135904 0)
(0.0266797 -0.153789 0)
(0.015056 -0.18253 0)