/*--------------------------------*- C++ -*----------------------------------*\
  =========                 |
  \\      /  F ield         | OpenFOAM: The Open Source CFD Toolbox
   \\    /   O peration     | Website:  https://openfoam.org
    \\  /    A nd           | Version:  13
     \\/     M anipulation  |
\*---------------------------------------------------------------------------*/
FoamFile
{
    format      ascii;
    class       volScalarField;
    location    "10";
    object      epsilon;
}
// * * * * * * * * * * * * * * * * * * * * * * * * * * * * * * * * * * * * * //

dimensions      [0 2 -3 0 0 0 0];

internalField   nonuniform List<scalar> 
6400
(
2.8985e-05
0.000148875
0.00036219
0.000583301
0.000749395
0.000842051
0.000875109
0.000877755
0.000883038
0.000915773
0.000995705
0.00115247
0.00139989
0.00174246
0.00216171
0.00263395
0.00313457
0.00365402
0.00416711
0.00466255
0.00516213
0.00570925
0.00636145
0.00714978
0.00803725
0.00892707
0.00981312
0.0106932
0.011596
0.012545
0.0135261
0.0145077
0.0154741
0.0164296
0.0173967
0.018382
0.0194043
0.0204701
0.0215916
0.0227718
0.0240194
0.0253436
0.0267522
0.0282598
0.0298826
0.0316778
0.0337572
0.0363571
0.0388866
0.0414902
0.0440189
0.0464732
0.048765
0.0508352
0.0526054
0.0539682
0.0546406
0.0549025
0.0547039
0.0535913
0.0516733
0.0489681
0.0454994
0.0414186
0.0367986
0.0318815
0.0269008
0.0220415
0.01748
0.0134463
0.0101475
0.00737989
0.00514524
0.00344094
0.00221411
0.0013773
0.000830862
0.000478221
0.000226505
4.83078e-05
0.000139999
0.000140944
0.000231131
0.00033484
0.000412315
0.000458995
0.000481824
0.000492135
0.000504114
0.000531599
0.000589773
0.000699865
0.00087888
0.0011397
0.00148592
0.00191824
0.00243826
0.00305247
0.00376654
0.00459076
0.00553265
0.00663557
0.00795049
0.00949938
0.0112696
0.0132925
0.0153622
0.0173456
0.0191358
0.0206366
0.0217701
0.0226375
0.0232239
0.0236246
0.0238786
0.0240453
0.0241648
0.0242714
0.0243869
0.0245328
0.0247311
0.024986
0.0252922
0.02563
0.0260263
0.0265194
0.0270896
0.0277444
0.0284659
0.0292245
0.0300167
0.0307973
0.0315477
0.0322165
0.0327605
0.0330397
0.0331202
0.0329663
0.0325205
0.0316496
0.0304116
0.0287609
0.0267134
0.0243449
0.0217436
0.0190176
0.0162823
0.0136501
0.0112082
0.0090546
0.00722795
0.00565873
0.00431037
0.003166
0.0022202
0.00145575
0.000889092
0.000500103
0.00026032
0.000255555
0.000306075
0.00025709
0.000344882
0.000433434
0.000486358
0.000512861
0.000527261
0.000544053
0.000578776
0.000650272
0.000783667
0.00100849
0.0013529
0.00183698
0.00247329
0.0032735
0.00424985
0.00541644
0.00678291
0.00835597
0.010142
0.0121007
0.014141
0.0161013
0.0177926
0.0189712
0.0196786
0.0200608
0.0202506
0.0203917
0.020459
0.0203587
0.020046
0.0197532
0.019449
0.0191882
0.0189799
0.0188648
0.0188216
0.0188285
0.0189626
0.0191677
0.0194846
0.0199226
0.0204724
0.021108
0.0218274
0.0226246
0.0234938
0.0244188
0.025389
0.0263791
0.0273657
0.0283111
0.0291749
0.0299071
0.0304116
0.030619
0.0306215
0.0302126
0.0293479
0.0280245
0.026234
0.0240763
0.021642
0.0190334
0.0163774
0.0137887
0.0113714
0.00920712
0.00734061
0.00577002
0.00446924
0.0033995
0.00252263
0.00181572
0.00123566
0.000774305
0.000480344
0.000684949
0.000531923
0.000443698
0.000543659
0.000628644
0.000672161
0.0006944
0.000716755
0.000760958
0.000851029
0.00101981
0.00130861
0.00176118
0.00241329
0.00328615
0.00438873
0.00572461
0.00729149
0.00906615
0.0109907
0.0129671
0.0148567
0.0165114
0.0177752
0.0184392
0.0187141
0.0187777
0.0187044
0.0183382
0.0177727
0.0171687
0.0165144
0.0160066
0.0156175
0.0152882
0.0150442
0.0149028
0.0148443
0.0148377
0.0149459
0.0151288
0.0154064
0.0157634
0.0162107
0.0167425
0.0173586
0.018057
0.0188392
0.0197034
0.0206475
0.0216653
0.0227488
0.0238828
0.025047
0.0262111
0.0273363
0.0283709
0.0292554
0.0298771
0.0301486
0.0301692
0.0296885
0.028788
0.0274287
0.0254516
0.0230821
0.0204159
0.0176038
0.0147989
0.0121442
0.0097535
0.00769677
0.00599401
0.00462333
0.00353754
0.00268138
0.00200582
0.00145808
0.00100961
0.000722426
0.0011439
0.000854526
0.000702794
0.000801746
0.000884053
0.000930166
0.000966274
0.00102123
0.00112766
0.00132575
0.00166634
0.00220621
0.00299488
0.00406036
0.00540471
0.00700845
0.00883101
0.0108011
0.0128027
0.0146703
0.0162343
0.0172667
0.0177232
0.0178498
0.017789
0.0173509
0.0165993
0.0157257
0.0149162
0.0142611
0.0136546
0.0131555
0.012769
0.012469
0.0122469
0.0121148
0.0120557
0.0120413
0.012096
0.012226
0.0124118
0.0126632
0.0129753
0.0133531
0.0137972
0.0143122
0.0149014
0.0155697
0.0163219
0.0171625
0.0180944
0.0191183
0.0202305
0.0214228
0.0226801
0.023979
0.0252767
0.0265203
0.0276428
0.0285639
0.0290803
0.0292471
0.0289455
0.0281054
0.0267685
0.0246971
0.0221254
0.0192295
0.0162001
0.0132336
0.0105076
0.00814994
0.00621918
0.00470563
0.00355193
0.00267806
0.00201585
0.00150621
0.00111005
0.000883725
0.00146384
0.00131588
0.00104291
0.00112431
0.00120861
0.00127259
0.00134505
0.00146475
0.00167966
0.00204878
0.00263911
0.00351212
0.00470366
0.0062097
0.0079848
0.00994575
0.0119704
0.0138966
0.0155378
0.0166287
0.0170961
0.0172034
0.0170466
0.0164793
0.015489
0.0144806
0.0135885
0.0127773
0.0120954
0.0115248
0.0110399
0.0106521
0.0103413
0.0100974
0.0099127
0.00978198
0.00970335
0.00966848
0.00966148
0.00970519
0.00978675
0.00990908
0.0100738
0.0102826
0.01054
0.0108512
0.0112231
0.0116646
0.012186
0.012799
0.0135161
0.0143494
0.0153103
0.0164065
0.017639
0.0190012
0.0204775
0.0220287
0.0236072
0.0251367
0.0265116
0.027572
0.0280701
0.0281638
0.027572
0.0263776
0.0242056
0.0214292
0.018261
0.0149543
0.0117777
0.00896082
0.00664485
0.00486377
0.00356206
0.00262816
0.00196211
0.0014727
0.00110934
0.000949668
0.00158454
0.00195681
0.00147042
0.00152369
0.00162084
0.0017217
0.0018574
0.00207997
0.00245485
0.0030565
0.00395567
0.00519684
0.00677595
0.00863022
0.0106413
0.0126442
0.0144391
0.0158048
0.0164661
0.0166556
0.0165798
0.0160187
0.0149581
0.0138297
0.0128056
0.0118821
0.0110954
0.0104149
0.00984502
0.00936032
0.00895095
0.00860871
0.00831952
0.00807693
0.00787421
0.00770709
0.00757189
0.00746495
0.00738542
0.00734005
0.00732042
0.00731717
0.00734976
0.00741127
0.00750857
0.00764253
0.00782065
0.00804952
0.00833882
0.00870016
0.00915167
0.00971265
0.0104064
0.0112578
0.0122868
0.0135188
0.0149735
0.0166433
0.0184938
0.0204744
0.0225094
0.024477
0.0262068
0.0273258
0.0277585
0.027659
0.0265617
0.0242751
0.021211
0.0176509
0.0139559
0.0104986
0.00756908
0.00530703
0.003697
0.00261412
0.00188197
0.00139409
0.00107178
0.000942607
0.00154032
0.00281499
0.0019902
0.00201383
0.00213843
0.00229857
0.00252697
0.00289096
0.00347036
0.00434336
0.00556349
0.00713283
0.00898407
0.0109797
0.0129268
0.0146038
0.0156873
0.0161219
0.0161902
0.0158096
0.0148671
0.0136372
0.0124893
0.0114324
0.0105222
0.00973335
0.0090619
0.00848234
0.00798592
0.00755475
0.00718158
0.00685691
0.00657338
0.00632649
0.00611212
0.00592772
0.00577096
0.00563923
0.00553144
0.00544713
0.0053841
0.00534886
0.00533494
0.00533415
0.00537042
0.00542928
0.00552041
0.00564507
0.00581019
0.00602198
0.00628808
0.00662057
0.00703594
0.00755883
0.00822848
0.00908586
0.0101841
0.0115805
0.0132989
0.0153385
0.0176733
0.0201883
0.0227749
0.0252032
0.0271326
0.0280606
0.0283098
0.0273787
0.0249095
0.0214252
0.0173295
0.0131388
0.00935477
0.00632276
0.00414938
0.00273938
0.00187044
0.00132399
0.00100503
0.000907075
0.00143286
0.00391651
0.00260583
0.00260441
0.0027783
0.0030182
0.00336599
0.00390082
0.00470718
0.0058488
0.00733904
0.00911735
0.0110428
0.0129087
0.0144756
0.0153644
0.0156617
0.015657
0.0150235
0.0138553
0.0125779
0.011382
0.0103311
0.00941306
0.0086304
0.00795407
0.00737103
0.00686287
0.00642073
0.00603369
0.00569637
0.00540226
0.00514729
0.00492793
0.0047409
0.00458323
0.00445246
0.00434674
0.00426419
0.00420325
0.00416448
0.00414657
0.00414155
0.00415512
0.00419253
0.00424742
0.00432482
0.00442438
0.0045496
0.00470323
0.00488987
0.00511575
0.00538924
0.0057218
0.00612898
0.00663499
0.00727587
0.00811021
0.00924155
0.0107923
0.0128317
0.0153378
0.0182699
0.0214333
0.024603
0.0273565
0.0288994
0.0294571
0.0287051
0.0259455
0.0218892
0.0171231
0.0123661
0.00826319
0.00518723
0.00316624
0.00197959
0.00131662
0.000951276
0.000848366
0.00130935
0.00527108
0.00332535
0.00330854
0.00354576
0.00388381
0.00436871
0.00508457
0.00610636
0.00746396
0.00911318
0.0109236
0.0126899
0.0141663
0.0149663
0.0152214
0.015083
0.0142901
0.0130143
0.0117204
0.0104993
0.00943473
0.00851892
0.00773071
0.00705472
0.00646814
0.00595988
0.00551814
0.00513643
0.00480774
0.00452745
0.00429033
0.00409233
0.00392919
0.00379712
0.0036926
0.00361234
0.00355359
0.00351427
0.00349502
0.00348831
0.00349177
0.00351431
0.00354864
0.0035981
0.00366061
0.00373824
0.00383134
0.00394183
0.00407152
0.00422319
0.00440034
0.00460772
0.00485185
0.0051419
0.00548733
0.00590599
0.00642553
0.00708976
0.00797012
0.0091928
0.0110065
0.0135213
0.0167033
0.0204161
0.0243288
0.0279461
0.0301545
0.0309985
0.0303664
0.0271677
0.0223726
0.0168257
0.0114926
0.00715145
0.00413963
0.00234371
0.00139842
0.000941978
0.000796013
0.00120558
0.00690417
0.00416537
0.00413077
0.00443911
0.00488465
0.00550872
0.00638974
0.00757787
0.00905454
0.0107121
0.0123601
0.0137572
0.0145201
0.0147637
0.0145572
0.0136674
0.0123737
0.0110343
0.00980389
0.00872044
0.0077979
0.0070075
0.00632917
0.00574626
0.00524412
0.0048147
0.00444978
0.00414346
0.00388917
0.00368123
0.00351358
0.00338086
0.00327786
0.00320001
0.00314336
0.00310464
0.00308379
0.00307517
0.00307399
0.00308702
0.00310967
0.00314388
0.00318782
0.00324313
0.00330968
0.00338893
0.00348177
0.00358968
0.00371414
0.00385692
0.00401994
0.00420549
0.00441634
0.00465624
0.0049307
0.00524819
0.00562252
0.00607667
0.00664256
0.00738029
0.0083966
0.00987842
0.0122087
0.0155153
0.0196844
0.0243374
0.0288834
0.0317399
0.0328224
0.0321721
0.0283303
0.0226194
0.0162263
0.0103975
0.00598227
0.00317428
0.0016759
0.000993853
0.000776132
0.00116313
0.00888789
0.00515032
0.00506666
0.00544442
0.00599475
0.00674116
0.00774452
0.00901836
0.0104902
0.0119967
0.0133115
0.0140609
0.0143055
0.0140787
0.0131591
0.0118883
0.0105237
0.00926427
0.00816638
0.00722809
0.00643323
0.00575443
0.00517643
0.00468603
0.00427337
0.00393087
0.00365038
0.00342438
0.00324498
0.00310491
0.00299724
0.00291603
0.00285609
0.00281334
0.00278445
0.00276899
0.00276252
0.00276135
0.00277027
0.00278788
0.00281333
0.00284769
0.00289109
0.00294475
0.00300947
0.00308665
0.00317759
0.00328384
0.00340703
0.0035489
0.00371123
0.00389575
0.00410415
0.00433801
0.00459899
0.00488939
0.00521321
0.00557857
0.006002
0.00651469
0.00717165
0.008061
0.0093641
0.0114143
0.0147197
0.0192538
0.0246498
0.0301613
0.0335807
0.0348116
0.0339018
0.0291512
0.0223453
0.015129
0.00901407
0.00475842
0.00231613
0.0011796
0.000805007
0.00119841
0.0110883
0.00623993
0.00609472
0.00653582
0.00717587
0.00800951
0.00907069
0.0103311
0.0116695
0.0128859
0.0136259
0.0138743
0.0136657
0.0127835
0.0115381
0.0101686
0.00887484
0.0077499
0.00679416
0.00598767
0.00530779
0.00473433
0.00425553
0.00386019
0.0035389
0.00328219
0.00308023
0.00292371
0.0028038
0.00271285
0.00264431
0.00259299
0.0025549
0.00252713
0.00250769
0.00249615
0.00249087
0.00248956
0.00249585
0.00250943
0.00253019
0.00255919
0.00259719
0.00264534
0.00270477
0.00277689
0.00286317
0.00296533
0.00308519
0.00322478
0.00338619
0.00357155
0.00378283
0.00402171
0.00428936
0.00458627
0.00491243
0.00526806
0.00565569
0.00608456
0.00657872
0.00719061
0.00800953
0.00919831
0.0110839
0.0143147
0.0191795
0.0253245
0.0318127
0.0355959
0.0368129
0.0352985
0.0292883
0.0212504
0.0134157
0.00735064
0.00353516
0.0016199
0.000925927
0.00135967
0.0134427
0.00740914
0.00718841
0.00767916
0.00838236
0.00925392
0.0102961
0.0114413
0.0125334
0.0132516
0.0134989
0.0133405
0.0125314
0.011323
0.00995357
0.00862774
0.00746263
0.00648002
0.00565685
0.0049697
0.00439829
0.00392748
0.0035459
0.00324159
0.0030032
0.00281911
0.00267837
0.00257124
0.00248941
0.00242627
0.00237675
0.00233724
0.00230528
0.00227935
0.00225865
0.00224292
0.00223272
0.00222817
0.00222735
0.00223434
0.00224885
0.00227137
0.00230296
0.00234462
0.00239751
0.00246298
0.00254254
0.00263794
0.00275117
0.0028845
0.00304042
0.00322162
0.00343082
0.00367064
0.00394322
0.00424984
0.00459049
0.00496365
0.00536654
0.00579685
0.00625693
0.00676277
0.00736041
0.00814838
0.00928395
0.0111121
0.0143163
0.0195259
0.0264659
0.0338913
0.0376606
0.0386882
0.0360237
0.028318
0.0191429
0.0110867
0.00550846
0.00246731
0.00122762
0.00176008
0.0158741
0.00862791
0.00831591
0.00883526
0.00956583
0.0104178
0.0113611
0.0122973
0.0129646
0.0132029
0.0131083
0.0123881
0.0112378
0.00987462
0.00851569
0.0073012
0.00627715
0.00542828
0.00472648
0.0041503
0.00368227
0.00330833
0.00301513
0.00278881
0.00261622
0.00248503
0.00238467
0.00230654
0.00224404
0.00219241
0.00214842
0.00211009
0.00207633
0.00204669
0.00202119
0.00200009
0.00198382
0.00197389
0.00196977
0.00196945
0.00197876
0.00199572
0.00202152
0.00205704
0.00210331
0.00216156
0.00223324
0.00232004
0.00242401
0.0025475
0.00269327
0.00286446
0.00306451
0.00329704
0.00356558
0.0038731
0.00422146
0.0046106
0.00503789
0.005498
0.00598419
0.0064926
0.00703184
0.0076419
0.00842532
0.00955357
0.0113937
0.0147137
0.0204085
0.0283113
0.036194
0.0397156
0.0402859
0.0355249
0.0259503
0.0159977
0.00833797
0.00379495
0.00178808
0.00241945
0.0183139
0.00986473
0.00944287
0.00996364
0.0106801
0.0114523
0.0122197
0.0128056
0.0130295
0.0129624
0.0123513
0.0112735
0.00993015
0.00853798
0.00726457
0.00618355
0.00529443
0.00456809
0.00397821
0.00350522
0.00313206
0.00284316
0.00262286
0.00245608
0.00232945
0.0022316
0.00215369
0.00208918
0.00203359
0.00198408
0.00193905
0.00189775
0.00186002
0.00182604
0.00179619
0.00177093
0.00175075
0.00173616
0.00172886
0.00172635
0.00173017
0.00174336
0.00176429
0.00179447
0.00183456
0.00188571
0.0019492
0.00202665
0.00211997
0.00223152
0.0023641
0.00252104
0.00270621
0.00292398
0.00317906
0.00347619
0.00381955
0.00421192
0.00465353
0.00514089
0.00566607
0.00621769
0.0067855
0.00737145
0.0080119
0.00881689
0.00997646
0.0119002
0.0154775
0.0218397
0.0309419
0.0388676
0.0417671
0.0412363
0.0333382
0.0220531
0.0121034
0.00565434
0.00260495
0.00327757
0.0207067
0.0110869
0.0105351
0.0110257
0.011685
0.0123208
0.0128165
0.0130183
0.012927
0.0124283
0.0114252
0.0101166
0.00869767
0.00735682
0.00620189
0.00525416
0.00448891
0.00387456
0.00338706
0.00300676
0.00271528
0.00249503
0.00232928
0.00220329
0.00210502
0.00202524
0.00195744
0.00189732
0.00184233
0.00179114
0.00174327
0.00169875
0.00165784
0.00162097
0.00158858
0.00156107
0.00153883
0.00152221
0.00151287
0.0015092
0.00150941
0.00151966
0.00153678
0.00156239
0.00159696
0.00164152
0.00169718
0.00176541
0.00184796
0.00194702
0.00206529
0.00220604
0.00237323
0.00257155
0.00280644
0.00308388
0.0034101
0.00379081
0.00423008
0.00472873
0.00528247
0.00588057
0.00650634
0.00714225
0.00778323
0.00846524
0.00931514
0.010545
0.0126491
0.0166975
0.0239247
0.0343776
0.0418013
0.0437998
0.0404254
0.0291273
0.0169267
0.00811749
0.00370294
0.0042805
0.0230081
0.0122625
0.0115589
0.0119873
0.0125504
0.0129756
0.0131439
0.013035
0.0126162
0.0116953
0.010431
0.00899749
0.00758644
0.0063404
0.00531227
0.00448904
0.00383616
0.00332316
0.00292654
0.00262522
0.00239922
0.00223007
0.00210159
0.00200077
0.00191792
0.00184631
0.00178171
0.00172173
0.00166524
0.00161191
0.00156188
0.00151549
0.00147315
0.00143525
0.00140213
0.00137409
0.00135137
0.00133419
0.00132355
0.00131883
0.00131792
0.00132519
0.00133943
0.00136111
0.00139088
0.00142953
0.00147809
0.00153781
0.00161027
0.00169744
0.00180177
0.00192633
0.00207489
0.0022521
0.00246358
0.00271594
0.00301666
0.00337373
0.00379471
0.00428525
0.00484691
0.00547447
0.0061537
0.00686158
0.00757214
0.00827324
0.00900509
0.00992138
0.0112709
0.0137093
0.0185605
0.0270292
0.0386518
0.0443424
0.0450441
0.0367833
0.0229365
0.0113414
0.00513043
0.00537945
0.0251288
0.013362
0.0124875
0.0128251
0.0132418
0.0134167
0.0133322
0.0129062
0.0120824
0.0108744
0.00943911
0.00796324
0.00661289
0.00548007
0.00457481
0.0038648
0.00331281
0.00288932
0.00256996
0.00233213
0.00215519
0.00202134
0.00191627
0.00182949
0.0017539
0.00168512
0.00162077
0.00155982
0.00150202
0.00144757
0.00139683
0.00135018
0.00130798
0.0012705
0.00123794
0.00121044
0.00118811
0.00117106
0.00115979
0.00115448
0.00115301
0.00115788
0.00116973
0.00118807
0.00121368
0.00124719
0.00128948
0.00134166
0.0014051
0.00148155
0.00157318
0.00168274
0.00181369
0.00197036
0.00215815
0.00238372
0.00265505
0.00298137
0.00337273
0.00383889
0.00438738
0.00502043
0.00573127
0.00650082
0.00729777
0.00808643
0.00885005
0.00964321
0.0106395
0.0121856
0.0152143
0.0213336
0.0317627
0.04287
0.0467536
0.0439815
0.0301057
0.0155103
0.0069425
0.00654119
0.0269938
0.0143576
0.0132988
0.0135181
0.0137341
0.0137106
0.0133181
0.012594
0.011445
0.010025
0.00849554
0.00703629
0.00577573
0.00475955
0.00396803
0.00335945
0.0028964
0.00254935
0.00229267
0.00210314
0.00196081
0.00184977
0.00175831
0.00167862
0.00160596
0.00153781
0.0014731
0.00141161
0.00135355
0.00129928
0.00124917
0.00120352
0.00116254
0.00112635
0.00109503
0.0010686
0.00104707
0.00103047
0.00101895
0.00101328
0.00101142
0.00101437
0.00102415
0.00103965
0.00106166
0.00109071
0.00112757
0.00117321
0.00122881
0.00129589
0.00137637
0.00147266
0.00158782
0.00172577
0.00189146
0.00209117
0.00233274
0.00262578
0.00298158
0.00341266
0.00393137
0.00454734
0.00526323
0.00606947
0.0069396
0.0078305
0.00869471
0.0095159
0.0103792
0.011482
0.0133526
0.0172612
0.0251181
0.0380698
0.0468607
0.0483251
0.038045
0.0208036
0.00918408
0.00775129
0.0285619
0.0152283
0.013973
0.0140411
0.0141
0.0138469
0.013197
0.0121399
0.0107531
0.00918983
0.00762682
0.00622263
0.00506458
0.00416044
0.00347168
0.0029526
0.00256604
0.00228189
0.00207388
0.00191936
0.00180022
0.00170311
0.00161908
0.00154273
0.00147118
0.00140324
0.00133862
0.00127753
0.0012203
0.00116729
0.00111875
0.00107484
0.00103564
0.00100115
0.000971333
0.000946145
0.000925536
0.000909477
0.000897962
0.000891949
0.000889757
0.000891143
0.000899102
0.00091216
0.000931068
0.000956282
0.000988478
0.00102849
0.00107735
0.0011364
0.00120728
0.0012921
0.00139355
0.00151507
0.00166109
0.0018373
0.00205103
0.00231155
0.00263041
0.0030214
0.00350001
0.00408165
0.00477813
0.00559189
0.00650855
0.00749048
0.00847802
0.0094104
0.0102811
0.0112184
0.0124935
0.0149352
0.0203922
0.0308617
0.0445794
0.0498822
0.0457744
0.0273323
0.0119241
0.00900906
0.0298107
0.0159718
0.0145017
0.014416
0.0143148
0.0138264
0.0129293
0.0116144
0.0100459
0.00839737
0.00684522
0.00551852
0.00446531
0.00366476
0.00306724
0.00262573
0.00230315
0.00206902
0.00189739
0.00176726
0.00166302
0.0015741
0.00149403
0.00141934
0.00134851
0.00128116
0.0012174
0.00115758
0.00110202
0.00105093
0.00100446
0.000962633
0.000925405
0.000892699
0.000864415
0.000840456
0.000820738
0.000805206
0.000793838
0.000787447
0.000784953
0.000785104
0.000791407
0.000802382
0.000818615
0.00084053
0.000868717
0.000903905
0.000947011
0.000999184
0.00106187
0.0011369
0.00122662
0.00133403
0.00146301
0.00161862
0.00180747
0.00203815
0.00232172
0.00267212
0.00310625
0.00364318
0.00430183
0.00509601
0.00602641
0.00707017
0.00817247
0.00925158
0.010237
0.0111534
0.0121627
0.0137629
0.0172591
0.0250569
0.0392484
0.0499424
0.051236
0.0351053
0.0153209
0.0103701
0.0307372
0.0165863
0.0148878
0.0146522
0.0143855
0.0137173
0.0125633
0.011049
0.0093514
0.00766435
0.00615348
0.00491509
0.00396298
0.0032559
0.0027382
0.00236261
0.00209217
0.00189662
0.00175135
0.00163771
0.00154284
0.0014587
0.00138089
0.00130738
0.00123752
0.00117133
0.00110913
0.0010512
0.000997771
0.00094894
0.000904714
0.000865021
0.000829748
0.000798757
0.000771915
0.000749099
0.000730211
0.000715187
0.000704001
0.000697171
0.000694211
0.00069375
0.000698416
0.000707615
0.000721545
0.000740623
0.000765365
0.000796417
0.000834588
0.000880889
0.000936589
0.00100329
0.00108303
0.00117842
0.00129285
0.00143076
0.001598
0.00180228
0.00205383
0.00236595
0.00275565
0.0032437
0.00385358
0.00460805
0.00552219
0.00659185
0.00777948
0.00900403
0.0101547
0.0111581
0.0120869
0.0132647
0.0154928
0.02091
0.0323266
0.0480544
0.053659
0.0438281
0.0196962
0.0120922
0.0313558
0.0170708
0.0151434
0.0147588
0.0143439
0.0134869
0.0121393
0.0104705
0.00868903
0.00699896
0.00554845
0.00440133
0.00354327
0.00291913
0.00247023
0.00214957
0.00192062
0.00175413
0.00162755
0.00152489
0.00143589
0.00135473
0.00127854
0.00120627
0.00113777
0.00107328
0.00101308
0.000957383
0.000906285
0.000859778
0.00081777
0.000780124
0.000746676
0.000717263
0.00069173
0.000669946
0.000651807
0.000637242
0.000626214
0.000618982
0.000615606
0.000614756
0.000617995
0.000625662
0.000637613
0.000654247
0.000676021
0.000703512
0.000737439
0.000778701
0.000828421
0.000888008
0.000959249
0.00104443
0.00114651
0.00126936
0.0014181
0.00159957
0.00182295
0.00210053
0.00244855
0.00288797
0.00344453
0.00414701
0.00502224
0.00608464
0.00731981
0.00866511
0.0100012
0.0111826
0.0121701
0.0131293
0.0146509
0.0181835
0.0267845
0.043363
0.0542571
0.0521688
0.0253683
0.0144238
0.0316717
0.017432
0.0152798
0.0147462
0.0142147
0.0131794
0.0116801
0.00989881
0.00807083
0.0064034
0.00502375
0.00396583
0.0031932
0.00264163
0.00225119
0.00197551
0.00177897
0.001634
0.00152051
0.00142515
0.00133999
0.00126093
0.00118623
0.00111545
0.0010487
0.000986233
0.000928271
0.000874915
0.000826154
0.000781889
0.000741967
0.000706207
0.000674421
0.00064643
0.000622074
0.000601219
0.000583758
0.000569617
0.000558755
0.000551224
0.000547507
0.000546338
0.000548394
0.000554736
0.00056499
0.000579516
0.000598725
0.000623135
0.000653392
0.000690304
0.000734872
0.000788353
0.000852329
0.000928812
0.0010204
0.00113046
0.00126349
0.00142549
0.00162459
0.00187184
0.00218228
0.00257604
0.00307924
0.00372387
0.00454495
0.00557255
0.00681628
0.00824212
0.00974862
0.0111686
0.0123329
0.0132048
0.0143412
0.0166489
0.0228676
0.0367139
0.053784
0.0576996
0.0328311
0.0173762
0.0316577
0.0176666
0.0153089
0.0146654
0.0139836
0.0128195
0.011205
0.00934803
0.00750341
0.00587607
0.00457152
0.0035977
0.00290134
0.0024125
0.0020711
0.00183173
0.00166015
0.00153096
0.00142663
0.00133624
0.00125379
0.00117649
0.00110336
0.00103431
0.000969535
0.000909255
0.000853589
0.000802536
0.000756002
0.000713825
0.000675814
0.000641762
0.000611472
0.00058476
0.000561466
0.000541455
0.00052462
0.000510883
0.000500198
0.000492551
0.000488512
0.000487076
0.000488173
0.000493372
0.00050217
0.000514876
0.000531861
0.000553593
0.000580658
0.000613787
0.000653887
0.000702087
0.000759805
0.000828833
0.000911463
0.00101067
0.00113038
0.00127585
0.00145423
0.00167536
0.00195281
0.00230531
0.00275819
0.00334444
0.00410397
0.00507857
0.00629888
0.00776047
0.009391
0.0110274
0.0124482
0.0134965
0.0142959
0.0159248
0.0200791
0.0309034
0.0508969
0.0601484
0.0425117
0.0208289
0.0314964
0.0178152
0.015271
0.014489
0.0136902
0.0124249
0.0107287
0.0088277
0.00698939
0.00541306
0.00418354
0.00328704
0.00265786
0.00222269
0.00192196
0.00171156
0.00155906
0.0014414
0.00134354
0.00125668
0.00117636
0.00110072
0.00102928
0.000962118
0.000899428
0.000841354
0.000787921
0.000739047
0.000694575
0.000654305
0.000618021
0.000585509
0.000556567
0.000531013
0.000508688
0.000489458
0.000473217
0.000459883
0.000449405
0.000441759
0.00043744
0.000435784
0.000436133
0.000440344
0.000447894
0.000459028
0.00047408
0.000493476
0.000517751
0.000547571
0.000583765
0.000627362
0.000679647
0.000742233
0.000817172
0.000907106
0.00101549
0.00114695
0.00130776
0.00150659
0.00175555
0.00207168
0.00247872
0.00300904
0.00370468
0.0046152
0.00578864
0.00725019
0.00896583
0.0107977
0.0124891
0.013808
0.0146101
0.0156875
0.0184508
0.0267671
0.0454135
0.0607331
0.0529788
0.0244617
0.0311336
0.0179005
0.0151674
0.0142442
0.0133504
0.0120103
0.0102623
0.00834364
0.00652866
0.00500927
0.00385186
0.00302512
0.00245445
0.00206478
0.00179747
0.00161001
0.00147202
0.00136284
0.00126966
0.00118547
0.00110698
0.00103299
0.000963322
0.000898104
0.000837495
0.000781554
0.000730224
0.000683362
0.00064077
0.000602224
0.000567499
0.000536376
0.000508657
0.000484161
0.000462733
0.00044424
0.000428575
0.000415654
0.00040542
0.000397844
0.000393296
0.000391417
0.000391275
0.00039461
0.00040109
0.000410866
0.000424236
0.000441589
0.000463414
0.000490326
0.000523086
0.000562641
0.00061017
0.000667144
0.000735422
0.000817376
0.000916088
0.00103564
0.00118156
0.00136147
0.00158611
0.00187074
0.00223716
0.00271609
0.00334952
0.00419115
0.00530136
0.00673048
0.00848426
0.0104713
0.012457
0.0140775
0.0150134
0.0156874
0.0176416
0.0235493
0.0395881
0.0598972
0.0619348
0.0274586
0.0305659
0.0178988
0.0149911
0.0139515
0.0129789
0.0115878
0.00981392
0.00789889
0.00611934
0.00465914
0.00356912
0.0028044
0.00228421
0.00193278
0.00169274
0.00152335
0.00139642
0.00129353
0.00120386
0.00112181
0.00104499
0.000972661
0.00090478
0.00084149
0.000782884
0.000728946
0.000679557
0.000634529
0.000593639
0.00055665
0.000523332
0.00049347
0.000466868
0.000443349
0.00042276
0.000404968
0.000389865
0.000377363
0.0003674
0.000359937
0.000355192
0.000353074
0.000352693
0.000355267
0.000360829
0.000369433
0.00038134
0.000396904
0.000416575
0.000440922
0.000470649
0.000506635
0.000549972
0.000602017
0.000664475
0.000739506
0.00082989
0.000939271
0.00107254
0.00123643
0.00144041
0.00169807
0.00202908
0.00246197
0.00303723
0.00380987
0.00484811
0.00622196
0.00797288
0.0100583
0.0122826
0.0142715
0.0155292
0.016157
0.0173417
0.0213676
0.0339184
0.0577783
0.0665768
0.0288639
0.0298228
0.0178654
0.0147764
0.0136255
0.0125884
0.011167
0.00938894
0.00749446
0.00575851
0.00435712
0.00332875
0.00261847
0.00214144
0.00182192
0.00160401
0.00144885
0.00133036
0.00123222
0.00114527
0.00106504
0.000989805
0.000919103
0.000852975
0.000791533
0.000734808
0.000682718
0.000635098
0.00059173
0.000552375
0.000516792
0.000484751
0.000456039
0.000430463
0.000407851
0.00038805
0.000370928
0.000356372
0.000344288
0.000334608
0.000327283
0.000322411
0.000320117
0.000319564
0.000321521
0.000326299
0.000333891
0.000344526
0.000358524
0.000376301
0.000398382
0.000425425
0.000458248
0.00049787
0.000545557
0.000602892
0.000671866
0.000755019
0.000855645
0.000978123
0.00112842
0.00131491
0.00154962
0.00185019
0.00224263
0.00276507
0.00347176
0.00443503
0.00573947
0.00745822
0.0095996
0.012022
0.0143538
0.0159666
0.0166718
0.0173183
0.0201769
0.0299912
0.0535199
0.0682719
0.0291165
0.0289463
0.0177857
0.0145337
0.0132786
0.0121895
0.0107552
0.00899078
0.0071299
0.00544265
0.00409794
0.00312502
0.00246196
0.00202151
0.00172845
0.00152841
0.00138443
0.00127245
0.00117796
0.00109319
0.00101458
0.000940841
0.000871712
0.000807259
0.000747551
0.000692559
0.000642154
0.000596136
0.000554265
0.000516296
0.000481984
0.000451104
0.000423444
0.000398816
0.000377049
0.000357989
0.000341502
0.000327472
0.000315801
0.00030641
0.000299246
0.000294314
0.000291891
0.000291204
0.000292669
0.000296778
0.0003035
0.00031303
0.00032566
0.000341773
0.000361854
0.000386519
0.000416534
0.000452854
0.00049667
0.000549466
0.000613099
0.000689922
0.000782954
0.000896159
0.00103488
0.00120655
0.00142184
0.00169642
0.00205381
0.00252922
0.00317468
0.00406345
0.00528928
0.00695026
0.00910266
0.0116756
0.0143661
0.0164426
0.0173556
0.0177985
0.0196104
0.0271588
0.0484074
0.0683507
0.0285299
0.0279711
0.0176741
0.0142741
0.0129213
0.0117909
0.0103578
0.00862128
0.00680382
0.00516809
0.00387678
0.00295295
0.00233039
0.00192065
0.00164937
0.00146372
0.00132855
0.00122161
0.00112999
0.00104705
0.000969887
0.000897561
0.000829924
0.000767037
0.000708928
0.000655517
0.000606636
0.00056206
0.000521538
0.000484819
0.00045166
0.000421838
0.000395143
0.00037139
0.000350407
0.00033204
0.000316153
0.000302625
0.000291352
0.00028225
0.000275257
0.000270337
0.000267808
0.000267012
0.000268089
0.000271631
0.000277605
0.000286177
0.000297614
0.000312266
0.000330586
0.000353148
0.00038067
0.000414054
0.000454423
0.000503179
0.000562073
0.000633312
0.000719701
0.000824879
0.000953685
0.00111277
0.00131162
0.00156418
0.0018915
0.00232578
0.00291591
0.00373398
0.00487874
0.00646677
0.00859402
0.0112518
0.0142106
0.0168219
0.017997
0.0183836
0.0194239
0.0249905
0.0437684
0.066011
0.0274962
0.0269313
0.0175473
0.0140068
0.0125623
0.0113993
0.00997874
0.00828112
0.00651423
0.00493112
0.00368931
0.00280835
0.00222008
0.00183586
0.00158236
0.00140824
0.00128
0.00117703
0.00108771
0.00100631
0.000930472
0.000859467
0.000793219
0.000731777
0.000675123
0.00062314
0.000575629
0.000532349
0.000493041
0.00045745
0.000425337
0.000396478
0.000370667
0.000347719
0.000327461
0.000309739
0.000294412
0.000281356
0.000270462
0.000261641
0.000254823
0.000249965
0.000247345
0.000246458
0.00024723
0.000250293
0.000255624
0.000263368
0.000273766
0.000287142
0.000303915
0.000324621
0.000349936
0.000380709
0.000418007
0.00046316
0.000517833
0.000584116
0.000664649
0.00076282
0.000883074
0.00103143
0.00121637
0.0014503
0.00175203
0.00215067
0.00269154
0.00344387
0.00450805
0.0060141
0.00809324
0.0107971
0.0139562
0.0170578
0.0187226
0.0191688
0.0195382
0.0235223
0.0396326
0.0627771
0.0262921
0.0258248
0.0174222
0.0137425
0.0122094
0.0110203
0.00962068
0.00797017
0.00625887
0.00472817
0.00353169
0.00268772
0.00212801
0.00176471
0.00152558
0.00136065
0.00123787
0.00113802
0.00105058
0.000970533
0.00089589
0.000826106
0.000761135
0.000701005
0.000645663
0.000594961
0.000548678
0.000506558
0.000468339
0.000433766
0.000402598
0.000374615
0.00034961
0.000327398
0.000307806
0.000290678
0.000275869
0.000263251
0.000252712
0.000244158
0.000237516
0.000232737
0.000230043
0.000229077
0.00022961
0.00023227
0.000237048
0.000244077
0.000253574
0.000265837
0.000281255
0.00030033
0.000323696
0.000352156
0.000386721
0.000428659
0.000479563
0.000541428
0.000616767
0.000708778
0.000821599
0.000960751
0.00113389
0.0013521
0.00163217
0.00200029
0.00249798
0.00319063
0.00417738
0.00559612
0.0076064
0.0103206
0.0136579
0.0171499
0.0194205
0.0200277
0.0201408
0.0226784
0.0360182
0.0588424
0.025031
0.024729