/*--------------------------------*- C++ -*----------------------------------*\
  =========                 |
  \\      /  F ield         | OpenFOAM: The Open Source CFD Toolbox
   \\    /   O peration     | Website:  https://openfoam.org
    \\  /    A nd           | Version:  13
     \\/     M anipulation  |
\*---------------------------------------------------------------------------*/
FoamFile
{
    format      ascii;
    class       volScalarField;
    location    "10";
    object      k;
}
// * * * * * * * * * * * * * * * * * * * * * * * * * * * * * * * * * * * * * //

dimensions      [0 2 -2 0 0 0 0];

internalField   nonuniform List<scalar> 
6400
(
5.66118e-07
2.90774e-06
7.07411e-06
1.13927e-05
1.46368e-05
1.64465e-05
1.70922e-05
1.71439e-05
1.72472e-05
1.78866e-05
1.94478e-05
2.25097e-05
2.73423e-05
3.40331e-05
4.22215e-05
5.14451e-05
6.12228e-05
7.13682e-05
8.13894e-05
9.10659e-05
0.000100823
0.000111509
0.000124247
0.000139645
0.000156978
0.000174358
0.000191664
0.000208853
0.000226487
0.000245022
0.000264184
0.000283358
0.000302231
0.000320895
0.000339785
0.000359028
0.000378996
0.000399812
0.000421716
0.000444768
0.000469135
0.000494999
0.000522511
0.000551958
0.000583653
0.000618717
0.000659331
0.000710111
0.000759517
0.000810368
0.000859756
0.000907692
0.000952454
0.000992887
0.00102746
0.00105408
0.00106721
0.00107232
0.00106844
0.00104671
0.00100925
0.000956409
0.000888659
0.000808954
0.000718719
0.000622683
0.000525403
0.000430495
0.000341404
0.000262622
0.000198192
0.000144137
0.000100492
6.72052e-05
4.3244e-05
2.69002e-05
1.62277e-05
9.34029e-06
4.42397e-06
9.43529e-07
2.73438e-06
2.29699e-05
5.57703e-05
8.71181e-05
0.000110214
0.000123914
0.000130391
0.000132998
0.000135415
0.000140791
0.000152709
0.000175265
0.000209557
0.000254863
0.000308971
0.000369084
0.000432713
0.000497359
0.000561202
0.000623683
0.000687123
0.000756069
0.000836115
0.00092947
0.00103173
0.00113372
0.00123301
0.00132744
0.00141811
0.00150597
0.00158923
0.00166699
0.00173778
0.00180269
0.00186397
0.00192257
0.00198042
0.0020384
0.00209782
0.00215921
0.00222329
0.00229072
0.00236156
0.00243589
0.00251309
0.0025931
0.00267386
0.00275254
0.00283775
0.00292451
0.0030137
0.00310156
0.00318654
0.0032648
0.00333294
0.00338689
0.00341406
0.00342203
0.00340784
0.00335927
0.00327269
0.00314782
0.002983
0.00278232
0.0025503
0.00229593
0.00203035
0.00176162
0.0014975
0.0012415
0.000998462
0.000777832
0.000585779
0.000425503
0.000297058
0.000198634
0.000127136
7.68142e-05
3.73372e-05
4.99138e-06
5.97812e-06
4.97935e-05
0.000115785
0.000170939
0.000208354
0.000230346
0.000242437
0.00025075
0.000261463
0.000280658
0.000314297
0.000367258
0.000441184
0.000534086
0.000641725
0.000759737
0.000884737
0.00101395
0.00114478
0.0012751
0.0014033
0.00152869
0.00164906
0.00175894
0.00185336
0.0019286
0.0019821
0.0020197
0.00204909
0.00207737
0.00210841
0.00214142
0.00217683
0.0022124
0.00225156
0.00229356
0.00234006
0.00239099
0.00244742
0.00250925
0.00257633
0.00264929
0.00272748
0.00281115
0.00290015
0.00299438
0.00309317
0.00319771
0.00330777
0.00342149
0.00353798
0.00365483
0.00376979
0.00387939
0.00397978
0.00406608
0.00413309
0.00416758
0.00417691
0.00415474
0.00408712
0.00397385
0.0038107
0.00360021
0.00334468
0.00305269
0.00274028
0.00241628
0.00209105
0.00177487
0.00147648
0.00120246
0.000957595
0.000744387
0.00056348
0.000414166
0.00029317
0.000192927
9.82625e-05
1.33781e-05
1.03893e-05
8.37046e-05
0.000181869
0.000255408
0.000303407
0.000333081
0.000353121
0.000372229
0.000398978
0.000441752
0.000508004
0.000602253
0.000724108
0.000868554
0.00102847
0.00119711
0.00136856
0.00153712
0.00169665
0.00184132
0.00196552
0.00206737
0.00214427
0.00218927
0.00220843
0.00221297
0.00220881
0.00220671
0.00220653
0.00221284
0.00222424
0.00223918
0.00225923
0.00228415
0.00231442
0.00234976
0.00239082
0.00243745
0.00248962
0.00254772
0.00261164
0.0026817
0.00275771
0.00283968
0.00292714
0.00302068
0.00312097
0.00322774
0.00334052
0.00345838
0.00358031
0.00370456
0.00382897
0.00395057
0.00406571
0.00416978
0.00425762
0.00432018
0.00434867
0.004352
0.00431057
0.00422376
0.00409481
0.003915
0.00368204
0.00339798
0.00307971
0.00273824
0.00238896
0.00204588
0.00172084
0.00142228
0.00115513
0.000921302
0.000720796
0.000551913
0.000410306
0.000286293
0.000156266
2.23421e-05
1.66903e-05
0.000129127
0.000260274
0.000351427
0.000410177
0.000448992
0.000480064
0.000515025
0.000565029
0.000640266
0.000748034
0.000890118
0.00106165
0.00125299
0.00145307
0.00165148
0.00183873
0.00200586
0.00214372
0.00224821
0.00230854
0.0023318
0.00233365
0.00230353
0.0022733
0.00224628
0.00222431
0.00220974
0.00220301
0.00220127
0.00220377
0.0022113
0.00222351
0.00223992
0.00226046
0.00228515
0.00231381
0.00234616
0.00238226
0.00242232
0.00246639
0.00251498
0.00256877
0.00262865
0.00269556
0.00276935
0.00284988
0.00293761
0.00303271
0.0031352
0.00324485
0.00336108
0.00348285
0.00360858
0.00373607
0.00386157
0.0039804
0.00408682
0.00417411
0.00422561
0.0042429
0.00421604
0.00413222
0.00399245
0.00380618
0.0035612
0.0032604
0.00292172
0.00256266
0.00220164
0.00185556
0.00153735
0.00125439
0.0010089
0.000799896
0.000624221
0.000476047
0.000343153
0.000195874
2.85911e-05
2.57014e-05
0.000189445
0.00035558
0.000465163
0.000536118
0.000586415
0.000632163
0.000688187
0.000767863
0.00088158
0.00103391
0.00122136
0.00143304
0.001654
0.0018688
0.00206333
0.00222536
0.00234767
0.00241302
0.00243451
0.00242154
0.00237624
0.00233113
0.00228747
0.00224702
0.00221186
0.00218324
0.00216087
0.00214321
0.0021288
0.00211764
0.00211006
0.00210629
0.00210488
0.00210497
0.0021087
0.00211456
0.00212329
0.00213492
0.00214998
0.00216868
0.00219171
0.00221912
0.0022513
0.00228886
0.00233225
0.00238237
0.00244011
0.0025065
0.00258258
0.00266928
0.00276742
0.00287742
0.002999
0.00313102
0.00327224
0.00341909
0.00356728
0.00371009
0.00383847
0.00394206
0.00399304
0.00400483
0.0039531
0.00383579
0.00365619
0.00339758
0.00307856
0.0027177
0.00233848
0.00196528
0.00161881
0.0013124
0.00105086
0.000832605
0.000652299
0.000501725
0.000366302
0.000213727
3.09486e-05
3.82198e-05
0.000266599
0.000470125
0.000599471
0.000684354
0.000748642
0.000812589
0.000893916
0.00100687
0.0011596
0.00135133
0.00157171
0.00180356
0.00202721
0.00222421
0.00237944
0.00247326
0.00250833
0.00250596
0.00245629
0.0024023
0.00233938
0.00227879
0.00221853
0.00216465
0.00211819
0.00207767
0.00204112
0.00200776
0.00197787
0.00195179
0.00192872
0.00190774
0.00188873
0.00187182
0.00185744
0.00184526
0.00183578
0.00182912
0.00182592
0.00182491
0.00182682
0.00183279
0.00184231
0.00185636
0.001875
0.00189932
0.00192998
0.00196813
0.00201553
0.00207394
0.00214542
0.00223223
0.00233639
0.00245837
0.00260015
0.00276126
0.00293818
0.00312541
0.00331596
0.00350076
0.00366367
0.00377748
0.00382396
0.00381795
0.00372333
0.00354718
0.00327191
0.00292286
0.00252727
0.00211799
0.00172718
0.0013794
0.00108669
0.000848882
0.00065845
0.000502709
0.000365012
0.000212733
3.00848e-05
5.49815e-05
0.000361617
0.000604522
0.000754978
0.000855404
0.000935769
0.00102028
0.00112854
0.00127363
0.001459
0.00167687
0.00190988
0.00213555
0.00233131
0.00247884
0.00255171
0.00257071
0.00253945
0.00248345
0.00240755
0.0023242
0.00223676
0.00215903
0.00208853
0.00202844
0.00197301
0.00192218
0.00187459
0.00183035
0.00178937
0.00175151
0.00171646
0.00168415
0.00165479
0.00162852
0.00160544
0.00158536
0.00156833
0.00155434
0.00154342
0.00153541
0.00153136
0.0015299
0.00153083
0.00153657
0.0015456
0.00155918
0.00157747
0.00160129
0.00163103
0.00166775
0.00171267
0.00176767
0.00183564
0.00192163
0.00202991
0.00216569
0.00233294
0.00252967
0.00274925
0.00298578
0.00322441
0.0034502
0.00363469
0.00372561
0.00374631
0.00368101
0.00350356
0.00319766
0.00280379
0.00236047
0.00191249
0.00150102
0.00115331
0.000877328
0.000664524
0.000497819
0.000356382
0.000205996
2.79861e-05
7.6496e-05
0.000474252
0.00075808
0.000930717
0.00104779
0.00114516
0.00125032
0.00138331
0.00155391
0.00175926
0.00198435
0.00220612
0.00239937
0.00253679
0.00259787
0.00260648
0.00256201
0.00249347
0.00239678
0.00228598
0.00218268
0.0020913
0.00200949
0.00193526
0.00186802
0.00180471
0.0017458
0.00169069
0.00163981
0.00159313
0.00155077
0.00151273
0.00147911
0.00144986
0.00142481
0.00140376
0.00138652
0.00137288
0.00136257
0.0013554
0.00135187
0.00135063
0.00135123
0.00135564
0.00136273
0.00137266
0.00138564
0.00140178
0.00142135
0.00144464
0.0014722
0.00150461
0.0015427
0.00158759
0.00164096
0.00170522
0.00178475
0.001887
0.0020266
0.00221609
0.00245402
0.00272231
0.00301238
0.00329736
0.00354934
0.00368943
0.00373214
0.00369186
0.00350603
0.0031567
0.00270558
0.00220561
0.00171578
0.00128612
0.000943099
0.000686785
0.0004973
0.000342904
0.000192236
2.55736e-05
0.000102953
0.000602701
0.000928728
0.00112433
0.00125821
0.00137167
0.00149459
0.00164589
0.0018306
0.00203907
0.00225022
0.00243779
0.00256863
0.00262315
0.00262698
0.00258012
0.00249415
0.00237358
0.00224601
0.00213012
0.0020256
0.00193235
0.00184737
0.00176916
0.00169684
0.00162947
0.00156776
0.00151169
0.0014617
0.00141779
0.00137995
0.00134796
0.00132152
0.00130018
0.00128346
0.00127085
0.00126179
0.00125614
0.0012535
0.0012527
0.00125406
0.00125779
0.00126336
0.00127111
0.00128068
0.00129224
0.00130588
0.00132174
0.00134006
0.001361
0.00138482
0.00141181
0.00144235
0.00147692
0.00151605
0.00156061
0.00161241
0.00167448
0.00175243
0.00185577
0.00200227
0.00222605
0.00251728
0.00284486
0.00319042
0.00350726
0.0036974
0.00376045
0.00373408
0.00352823
0.00312323
0.00260534
0.00204526
0.00151743
0.00107777
0.000746608
0.000511704
0.000336809
0.000179287
2.35469e-05
0.00013485
0.00074307
0.00111329
0.00133212
0.00148164
0.0016081
0.00174286
0.00190254
0.00208686
0.00228019
0.00245754
0.00258334
0.00263479
0.00263666
0.00258955
0.00248942
0.00235165
0.00221255
0.00208247
0.00196678
0.00186252
0.0017682
0.00168161
0.00160218
0.00152977
0.00146455
0.00140714
0.00135754
0.00131577
0.00128139
0.00125386
0.00123243
0.00121633
0.00120474
0.00119691
0.00119266
0.00119087
0.00119055
0.00119263
0.00119623
0.00120148
0.00120821
0.0012164
0.00122612
0.00123734
0.00125022
0.00126486
0.00128138
0.00129991
0.00132056
0.00134345
0.00136873
0.00139656
0.00142715
0.00146089
0.00149799
0.00153868
0.00158382
0.00163528
0.00169713
0.00177796
0.00189355
0.00207031
0.0023564
0.00271871
0.00311583
0.00349622
0.00373393
0.00381337
0.00378706
0.00354434
0.00307108
0.00247994
0.00186314
0.00130876
0.000871863
0.000559657
0.000345446
0.000174867
2.27174e-05
0.000173594
0.000890913
0.001308
0.00154927
0.00171173
0.00184605
0.00198428
0.00214025
0.00230878
0.00246996
0.00258974
0.00263982
0.0026416
0.00259522
0.00248682
0.00233804
0.00218674
0.00204485
0.00191706
0.00180331
0.00170038
0.00160716
0.00152265
0.00144712
0.00138085
0.00132411
0.00127689
0.00123865
0.00120864
0.00118579
0.00116904
0.00115727
0.0011495
0.00114523
0.00114337
0.00114292
0.00114418
0.0011469
0.00115093
0.00115607
0.00116243
0.00117
0.00117891
0.00118924
0.00120115
0.00121479
0.00123032
0.00124787
0.0012676
0.0012896
0.00131394
0.00134064
0.00136965
0.00140082
0.00143402
0.00146915
0.00150632
0.00154602
0.00158833
0.00163398
0.00168602
0.00175151
0.00184536
0.00199448
0.00224459
0.00262951
0.00306755
0.00351205
0.00378681
0.00387511
0.00383139
0.00352933
0.00297418
0.00230848
0.00164752
0.00108478
0.000664842
0.000380041
0.000181332
2.34063e-05
0.000216573
0.00104632
0.00150867
0.00177021
0.00194155
0.00207702
0.00220894
0.00234852
0.00248691
0.00259683
0.00264507
0.00264752
0.00260197
0.00249126
0.00233577
0.00217263
0.00201869
0.00187963
0.00175592
0.00164553
0.00154635
0.00145806
0.00138054
0.00131421
0.00125901
0.00121453
0.00117983
0.00115363
0.00113454
0.00112112
0.00111212
0.00110642
0.00110349
0.00110224
0.00110193
0.00110275
0.00110477
0.00110768
0.00111153
0.00111637
0.00112235
0.00112958
0.00113824
0.00114847
0.00116047
0.00117441
0.00119048
0.00120886
0.00122971
0.0012532
0.00127942
0.00130843
0.00134018
0.00137447
0.00141098
0.00144921
0.00148856
0.00152852
0.001569
0.00161069
0.00165359
0.0016995
0.00175486
0.00183313
0.00196016
0.00218178
0.00257081
0.00305008
0.00355133
0.00384593
0.00393041
0.00384849
0.00345635
0.0028072
0.00207667
0.00139195
0.00084453
0.000460329
0.000205728
2.65558e-05
0.000262557
0.00120552
0.00171026
0.00198899
0.00216427
0.00229339
0.00240892
0.00252027
0.00261405
0.00265748
0.00265992
0.00261392
0.00250511
0.00234622
0.00217316
0.0020065
0.00185576
0.00172204
0.00160384
0.00149924
0.00140732
0.00132821
0.00126187
0.00120806
0.00116585
0.00113388
0.00111045
0.0010938
0.00108232
0.00107459
0.00106952
0.00106629
0.00106435
0.00106333
0.00106294
0.00106306
0.00106419
0.00106604
0.00106886
0.00107274
0.00107786
0.00108439
0.00109249
0.00110235
0.00111413
0.00112804
0.00114427
0.00116301
0.00118448
0.00120888
0.00123641
0.00126721
0.00130136
0.0013388
0.00137928
0.00142232
0.00146712
0.00151259
0.00155754
0.00160107
0.0016433
0.00168523
0.00172739
0.00177561
0.00184311
0.00195675
0.00216656
0.0025477
0.00306569
0.00361339
0.00389991
0.0039654
0.00381931
0.00329514
0.00255521
0.0017758
0.00109872
0.000597195
0.00026001
3.43759e-05
0.000310045
0.00136432
0.00190758
0.00219986
0.00237367
0.00248902
0.00257901
0.00265113
0.00268466
0.00268474
0.0026354
0.00253054
0.00237099
0.00219009
0.00201085
0.00184709
0.00170252
0.00157584
0.00146521
0.00136945
0.00128821
0.00122136
0.00116815
0.00112734
0.00109704
0.00107523
0.00105985
0.00104912
0.00104158
0.00103612
0.001032
0.00102873
0.00102605
0.00102385
0.00102215
0.00102126
0.00102097
0.00102144
0.00102315
0.00102607
0.00103036
0.00103621
0.00104376
0.00105318
0.00106463
0.00107828
0.00109434
0.001113
0.00113451
0.00115911
0.00118705
0.00121861
0.00125401
0.00129339
0.00133675
0.00138386
0.00143411
0.00148644
0.0015393
0.00159072
0.00163881
0.00168269
0.00172331
0.00176269
0.0018063
0.00186681
0.00197344
0.00217826
0.00256423
0.00312263
0.00368479
0.00394323
0.00397088
0.00370842
0.00303468
0.00220432
0.00141157
0.000783411
0.00034407
4.7254e-05
0.000357698
0.00151861
0.0020959
0.00239776
0.00256461
0.0026596
0.00271433
0.00273624
0.00272724
0.00267156
0.0025702
0.00241175
0.00222508
0.00203384
0.0018558
0.00169849
0.00156196
0.00144412
0.00134347
0.0012592
0.00119077
0.00113715
0.00109661
0.00106694
0.00104572
0.00103068
0.00101989
0.00101184
0.00100546
0.00100005
0.000995194
0.000990728
0.000986625
0.000982959
0.000979867
0.000977523
0.000976235
0.000975783
0.000976357
0.000978572
0.000982224
0.000987525
0.000994602
0.00100359
0.00101465
0.00102792
0.0010436
0.00106188
0.001083
0.00110722
0.00113485
0.00116621
0.00120166
0.00124152
0.00128605
0.00133536
0.00138927
0.00144713
0.0015077
0.00156892
0.00162801
0.00168189
0.00172833
0.00176773
0.00180152
0.00184279
0.00189956
0.0020048
0.00221249
0.00261693
0.00321919
0.00376379
0.0039791
0.00392052
0.00346557
0.00264593
0.0017627
0.00100761
0.000450207
6.40139e-05
0.000404433
0.00166412
0.00227146
0.00257944
0.00273245
0.00279699
0.00281284
0.00279126
0.002727
0.00262762
0.00247043
0.00227976
0.0020775
0.0018842
0.0017118
0.00156307
0.00143617
0.00132901
0.00124029
0.00116896
0.00111364
0.00107224
0.00104217
0.00102069
0.0010053
0.000993924
0.000984991
0.000977435
0.000970597
0.000964134
0.000957927
0.000952001
0.000946468
0.000941481
0.00093721
0.000933821
0.000931601
0.000930604
0.000930423
0.000932005
0.000935201
0.00094005
0.000946715
0.000955298
0.000965936
0.000978771
0.000993967
0.00101171
0.00103223
0.00105577
0.00108265
0.00111322
0.0011479
0.00118711
0.00123132
0.00128092
0.00133616
0.00139696
0.0014627
0.00153194
0.00160218
0.00166975
0.00173016
0.00178062
0.00181946
0.00184398
0.00188183
0.00194007
0.00204815
0.00226881
0.00270907
0.0033534
0.00383333
0.00397372
0.00377575
0.00307301
0.00213778
0.00126028
0.000572032
8.36021e-05
0.000449383
0.0017996
0.00243082
0.00273752
0.00287045
0.00290602
0.00288531
0.00281522
0.00270521
0.00254969
0.0023559
0.00214384
0.00193482
0.00174493
0.00158084
0.00144217
0.00132633
0.00123127
0.00115541
0.00109693
0.00105345
0.00102199
0.000999515
0.000983249
0.000970939
0.000960935
0.000952138
0.000943905
0.000935927
0.00092812
0.000920541
0.00091332
0.000906624
0.000900623
0.000895483
0.000891355
0.000888382
0.0008869
0.00088641
0.000887348
0.000890161
0.000894596
0.000900854
0.000909019
0.000919216
0.000931577
0.000946251
0.000963411
0.00098326
0.00100604
0.00103203
0.00106159
0.00109512
0.00113311
0.0011761
0.00122468
0.0012794
0.00134067
0.00140855
0.00148247
0.00156084
0.00164065
0.00171724
0.00178449
0.00183935
0.00187493
0.0018921
0.00192565
0.00198677
0.00210359
0.00235023
0.002849
0.00353219
0.00387178
0.00390278
0.00345825
0.00252696
0.00153714
0.000705409
0.000105066
0.000490801
0.00192147
0.00256891
0.00286935
0.00298006
0.0029914
0.00292783
0.00280965
0.00265428
0.00245579
0.00223489
0.00201033
0.00180094
0.00161794
0.00146384
0.00133637
0.00123258
0.00115018
0.0010869
0.00103997
0.00100611
0.000981917
0.000964318
0.000950836
0.000939674
0.000929664
0.000920141
0.0009108
0.000901572
0.000892528
0.00088381
0.000875583
0.000868018
0.000861272
0.000855486
0.000850788
0.000847288
0.000845342
0.000844597
0.00084493
0.000847318
0.000851323
0.000857133
0.000864838
0.000874556
0.000886413
0.000900548
0.000917122
0.00093632
0.000958359
0.0009835
0.00101206
0.00104442
0.00108105
0.0011225
0.00116943
0.00122257
0.00128263
0.00135021
0.00142554
0.00150809
0.00159609
0.00168597
0.00177189
0.00184581
0.00190308
0.00193019
0.00194311
0.00197334
0.00203982
0.00217342
0.00247013
0.00305166
0.00367785
0.00390899
0.00371877
0.00291049
0.00183493
0.000847998
0.000127756
0.000527228
0.00202677
0.00268362
0.00297491
0.00306637
0.00305069
0.00294529
0.00278634
0.00258318
0.00235299
0.00211341
0.00188331
0.00167795
0.00150402
0.00136097
0.00124539
0.00115401
0.00108394
0.00103199
0.000994553
0.000967857
0.000948458
0.000933578
0.000921207
0.000910047
0.000899364
0.000888828
0.000878364
0.000868043
0.000858006
0.000848417
0.00083944
0.000831225
0.000823906
0.000817602
0.00081242
0.000808457
0.000805987
0.000804913
0.000804758
0.000806565
0.000810088
0.000815385
0.000822573
0.000831762
0.000843077
0.000856655
0.000872647
0.000891226
0.000912589
0.00093697
0.00096465
0.000995971
0.00103136
0.00107133
0.00111652
0.00116771
0.00122577
0.00129161
0.00136602
0.0014494
0.00154124
0.00163951
0.00173988
0.00183506
0.00191476
0.0019682
0.00198665
0.00199497
0.00202488
0.00209975
0.00226182
0.00263818
0.00330513
0.00375226
0.00381682
0.00326801
0.00214856
0.000995455
0.000151391
0.000557856
0.00211432
0.00277456
0.00305499
0.00313056
0.00308472
0.00293982
0.00273948
0.00250125
0.00224678
0.00199559
0.00176512
0.00156671
0.00140317
0.00127176
0.00116831
0.00108899
0.00103011
0.000987678
0.000957506
0.000935729
0.000919169
0.000905512
0.000893254
0.000881538
0.000869971
0.000858447
0.000847023
0.000835833
0.000825036
0.000814787
0.000805229
0.000796487
0.000788673
0.000781889
0.000776229
0.000771785
0.000768669
0.000767129
0.000766654
0.000767725
0.000770693
0.000775413
0.00078202
0.000790626
0.000801358
0.000814352
0.000829756
0.000847734
0.000868471
0.00089218
0.000919111
0.000949566
0.000983916
0.00102263
0.00106628
0.00111561
0.00117151
0.00123503
0.00130729
0.0013893
0.00148161
0.00158368
0.00169302
0.00180417
0.00190773
0.00198996
0.00203169
0.00204278
0.00204681
0.00208029
0.00216897
0.00238069
0.00288519
0.0035504
0.00380979
0.00354254
0.00246769
0.00114456
0.000175956
0.000582247
0.00218414
0.00284282
0.00311148
0.00317237
0.00309692
0.00292017
0.00268059
0.00241339
0.00214123
0.00188406
0.00165696
0.00146735
0.0013149
0.0011953
0.00110364
0.00103544
0.000986189
0.000951275
0.000926323
0.000907664
0.000892563
0.000879213
0.000866564
0.00085411
0.000841686
0.000829321
0.000817134
0.000805272
0.000793883
0.000783101
0.000773045
0.000763821
0.000755524
0.000748243
0.000742064
0.000737073
0.000733351
0.000731213
0.000730388
0.000730687
0.000733011
0.000737098
0.000743072
0.000751047
0.000761153
0.000773529
0.000788324
0.000805699
0.000825832
0.000848922
0.000875199
0.00090493
0.000938442
0.00097614
0.00101854
0.00106629
0.00112024
0.00118143
0.00125111
0.00133065
0.0014213
0.00152373
0.00163727
0.00175877
0.00188141
0.00199365
0.00206847
0.00209451
0.00209791
0.00209671
0.0021405
0.00225323
0.0025592
0.00319725
0.00364088
0.00366628
0.00278824
0.00130601
0.000202539
0.000600342
0.00223693
0.0028898
0.00314623
0.00319361
0.00309121
0.00288235
0.00261331
0.00232338
0.00203918
0.00178038
0.0015592
0.00137949
0.00123837
0.00113029
0.00104967
0.00099125
0.000949884
0.000920632
0.000899221
0.00088237
0.000867847
0.000854313
0.000841084
0.000827902
0.000814744
0.000801703
0.000788914
0.000776515
0.000764633
0.000753379
0.000742855
0.000733151
0.000724354
0.000716548
0.000709818
0.000704252
0.000699937
0.000697078
0.000695758
0.000695482
0.000697015
0.000700433
0.000705735
0.000713041
0.000722485
0.000734209
0.000748365
0.000765115
0.000784637
0.000807124
0.000832791
0.000861886
0.0008947
0.000931586
0.000972991
0.00101949
0.00107182
0.00113097
0.00119817
0.0012749
0.00136283
0.00146344
0.00157741
0.00170356
0.00183734
0.00196922
0.00208344
0.00214468
0.00215713
0.00214903
0.0021428
0.00220276
0.00237538
0.00284728
0.00348631
0.00369082
0.00310565
0.00150466
0.000236173
0.000612425
0.00227374
0.00291656
0.00315948
0.00319368
0.00307253
0.00283477
0.00254127
0.0022341
0.00194252
0.00168532
0.00147173
0.00130242
0.00117247
0.00107532
0.00100463
0.000954498
0.000919338
0.000894172
0.000875032
0.000859111
0.000844656
0.000830722
0.000816895
0.000803075
0.000789315
0.000775732
0.000762452
0.000749595
0.000737266
0.000725562
0.00071457
0.000704375
0.000695059
0.000686708
0.000679408
0.000673249
0.000668324
0.000664731
0.000662779
0.000662094
0.000662782
0.0006655
0.000670111
0.000676725
0.000685479
0.000696519
0.000710001
0.000726093
0.000744975
0.00076684
0.0007919
0.000820391
0.00085258
0.000888785
0.000929396
0.000974909
0.00102597
0.00108346
0.0011485
0.00122258
0.00130751
0.00140528
0.00151765
0.00164526
0.00178622
0.00193422
0.00207659
0.00217777
0.00221499
0.00221664
0.0021957
0.00219241
0.00228576
0.0025672
0.00321428
0.00358716
0.00336512
0.00175781
0.00028171
0.000618593
0.00229487
0.00292415
0.00315659
0.00318301
0.00303876
0.00277987
0.00246723
0.00214763
0.0018524
0.00159911
0.00139409
0.00123525
0.00111602
0.0010289
0.000966888
0.00092356
0.000893134
0.000870813
0.000853046
0.000837505
0.000822859
0.000808464
0.000794093
0.000779739
0.000765488
0.000751454
0.000737749
0.000724473
0.000711717
0.000699566
0.000688102
0.000677408
0.000667567
0.000658667
0.000650796
0.000644044
0.000638505
0.000634271
0.000631629
0.000630526
0.000630461
0.000632439
0.000636353
0.000642267
0.000650314
0.000660646
0.000673422
0.000688817
0.000707016
0.000728219
0.00075264
0.000780512
0.000812094
0.000847679
0.000887616
0.00093234
0.000982413
0.00103858
0.00110187
0.00117364
0.00125568
0.00135018
0.0014595
0.00158552
0.00172838
0.00188453
0.00204424
0.00218957
0.00226845
0.00228359
0.00225849
0.00222934
0.00225571
0.00241552
0.00291794
0.00344042
0.00349065
0.00206219
0.000339374
0.000618321
0.00230307
0.00291951
0.00314261
0.00315768
0.00299596
0.00272033
0.00239335
0.00206544
0.00176944
0.00152163
0.00132564
0.00117701
0.0010678
0.000989669
0.000935045
0.000897161
0.000870255
0.000849851
0.000832853
0.000817376
0.000802427
0.000787586
0.000772745
0.000757946
0.000743282
0.000728854
0.00071476
0.000701084
0.000687908
0.000675313
0.000663381
0.000652194
0.00064184
0.000632409
0.000623991
0.000616679
0.00061057
0.000605763
0.00060238
0.000600704
0.000600224
0.000601411
0.000604633
0.00060985
0.000617187
0.000626793
0.000638837
0.000653497
0.000670967
0.000691456
0.000715186
0.000742395
0.000773341
0.000808308
0.000847623
0.000891672
0.000940947
0.000996094
0.001058
0.00112788
0.00120743
0.00129883
0.00140479
0.00152807
0.00167061
0.00183163
0.00200501
0.00217645
0.00230266
0.00234767
0.00234314
0.00228106
0.00225486
0.0023348
0.00266622
0.00330156
0.00352391
0.00240774
0.00040681
0.00061517
0.00230123
0.00290388
0.00311341
0.00311951
0.00294597
0.00265824
0.00232128
0.00198848
0.0016939
0.00145253
0.00126561
0.00112671
0.00102665
0.000956415
0.000907947
0.000874336
0.000849996
0.000830844
0.000814228
0.000798644
0.000783363
0.000768118
0.000752876
0.000737697
0.000722669
0.000707883
0.000693419
0.000679356
0.000665771
0.000652745
0.00064036
0.000628705
0.000617869
0.000607943
0.00059902
0.000591193
0.000584556
0.000579202
0.000575226
0.000572948
0.000572102
0.000572565
0.000575109
0.000579644
0.000586275
0.000595152
0.000606445
0.000620338
0.000637036
0.000656756
0.000679732
0.000706214
0.000736469
0.000770781
0.000809467
0.000852887
0.000901479
0.000955804
0.00101663
0.00108501
0.00116246
0.00125107
0.00135358
0.00147322
0.00161311
0.00177465
0.00195483
0.0021425
0.00231496
0.00240524
0.00242034
0.00237007
0.00230434
0.00230638
0.00248945
0.00307392
0.00344852
0.00275791
0.000477763
0.000608085
0.00229272
0.00287424
0.00307335
0.00307256
0.00289087
0.00259525
0.00225217
0.00191733
0.00162574
0.00139131
0.00121323
0.00108337
0.000991548
0.000928105
0.000884686
0.000854379
0.000831879
0.000813516
0.000797045
0.000781271
0.000765665
0.000750064
0.000734473
0.00071896
0.000703602
0.000688479
0.000673663
0.000659228
0.000645253
0.00063182
0.000619016
0.000606931
0.000595658
0.00058529
0.000575919
0.000567638
0.000560535
0.000554702
0.000550228
0.000547365
0.000546139
0.000546029
0.000547903
0.000551779
0.000557722
0.000565874
0.000576407
0.000589512
0.000605401
0.000624302
0.000646463
0.00067215
0.000701641
0.000735235
0.000773249
0.000816032
0.000863989
0.000917618
0.000977579
0.00104479
0.00112058
0.00120685
0.00130625
0.00142224
0.00155871
0.00171894
0.00190318
0.00210486
0.00230619
0.00244747
0.0024908
0.00246717
0.00235616
0.00230751
0.00240163
0.00285267
0.00330796
0.00304067
0.000536299
0.000596996
0.00227459
0.00283559
0.00302579
0.00301871
0.00283238
0.0025327
0.00218686
0.00185227
0.00156478
0.00133742
0.00116772
0.00104613
0.000961569
0.000903894
0.000864562
0.000836781
0.000815581
0.000797694
0.000781225
0.000765228
0.000749319
0.000733402
0.000717503
0.000701687
0.000686024
0.000670583
0.000655434
0.000640652
0.000626315
0.000612512
0.000599332
0.000586869
0.000575217
0.000564469
0.000554717
0.00054605
0.000538553
0.000532315
0.000527425
0.000524
0.000522313
0.000521864
0.000523091
0.000526337
0.000531615
0.000539058
0.000548835
0.000561142
0.000576196
0.000594238
0.000615531
0.000640356
0.00066901
0.00070181
0.000739085
0.000781188
0.000828508
0.0008815
0.000940743
0.00100703
0.00108151
0.00116586
0.00126254
0.00137496
0.0015074
0.00166428
0.00184821
0.00205622
0.00227467
0.00246666
0.00255418
0.00255961
0.00245944
0.00235379
0.002359
0.00267343
0.00317667
0.00317627
0.000563747
0.000582483
0.00224948
0.00278993
0.00297206
0.00295996
0.00277195
0.00247158
0.00212589
0.00179339
0.00151069
0.00129028
0.00112835
0.00101418
0.000935941
0.000883099
0.000847042
0.000821176
0.000800882
0.00078326
0.000766711
0.000750482
0.000734295
0.000718095
0.000701917
0.000685823
0.000669875
0.000654139
0.000638684
0.000623585
0.000608927
0.0005948
0.000581298
0.000568516
0.000556549
0.000545489
0.000535424
0.000526439
0.000518616
0.000512036
0.000506777
0.000502923
0.00050078
0.000500037
0.000500691
0.000503346
0.000507991
0.000514748
0.000523782
0.000535292
0.000549501
0.000566659
0.000587042
0.000610948
0.000638698
0.000670627
0.000707088
0.000748446
0.000795092
0.000847458
0.000906065
0.000971603
0.00104505
0.00112789
0.00122234
0.00133162
0.00146016
0.00161321
0.00179545
0.00200755
0.0022407
0.00246994
0.00260958
0.00264046
0.00256928
0.00240173
0.00234682
0.00250946
0.00306858
0.00321487
0.00056868
0.000565363
0.00221964
0.00273901
0.00291366
0.00289793
0.00271079
0.00241263
0.00206955
0.00174062
0.00146312
0.00124932
0.00109445
0.000986833
0.000914012
0.000865176
0.000831721
0.000807296
0.000787622
0.000770126
0.000753452
0.000736996
0.000720552
0.000704095
0.000687664
0.000671314
0.000655105
0.000639101
0.000623371
0.000607995
0.000593062
0.000578664
0.000564897
0.000551859
0.000539643
0.000528337
0.000518028
0.000508794
0.00050071
0.000493851
0.000488287
0.000484092
0.000481523
0.000480504
0.000480676
0.000482783
0.000486831
0.000492932
0.000501247
0.000511974
0.00052534
0.000541603
0.00056105
0.000583997
0.000610786
0.000641777
0.000677349
0.00071789
0.000763804
0.00081552
0.000873524
0.000938425
0.00101107
0.00109272
0.00118534
0.00129189
0.00141669
0.00156537
0.00174395
0.00195609
0.00219773
0.00245035
0.00264765
0.00271419
0.00268186
0.00249776
0.00237075
0.00242918
0.00289748
0.00318677
0.000557224
0.000546315
0.00218687
0.00268445
0.00285202
0.00283398
0.00264985
0.00235638
0.002018
0.00169378
0.00142167
0.001214
0.00106541
0.00096348
0.000895246
0.000849694
0.000818291
0.00079494
0.00077568
0.000758219
0.000741397
0.000724722
0.000708043
0.000691352
0.000674689
0.000658108
0.000641664
0.000625423
0.000609457
0.000593849
0.000578691
0.000564078
0.000550107
0.000536875
0.000524473
0.000512987
0.000502496
0.000493075
0.000484793
0.000477717
0.000471911
0.000467444
0.000464485
0.000463157
0.000462986
0.000464579
0.000468069
0.00047355
0.000481178
0.000491147
0.000503685
0.000519057
0.00053756
0.000559525
0.000585313
0.000615312
0.000649928
0.000689581
0.000734699
0.000785722
0.00084312
0.000907449
0.000979442
0.00106018
0.00115137
0.00125568
0.00137719
0.00152165
0.00169602
0.00190632
0.0021524
0.00241978
0.00266517
0.00277907
0.00278042
0.00261352
0.00241479
0.0023955
0.00274288
0.00311055
0.000537033
0.000526006
0.0021519
0.0026275
0.00278837
0.00276921
0.00258989
0.00230318
0.00197125
0.00165264
0.00138593
0.00118382
0.0010407
0.000943615
0.000879203
0.000836312
0.000806511
0.000783953
0.000764961
0.000747476
0.000730494
0.000713613
0.000696719
0.000679815
0.000662944
0.000646155
0.000629508
0.000613066
0.000596906
0.000581113
0.000565782
0.000551009
0.000536892
0.000523525
0.000510997
0.000499389
0.000488775
0.000479223
0.000470797
0.000463556
0.00045756
0.000452872
0.000449567