/*--------------------------------*- C++ -*----------------------------------*\
  =========                 |
  \\      /  F ield         | OpenFOAM: The Open Source CFD Toolbox
   \\    /   O peration     | Website:  https://openfoam.org
    \\  /    A nd           | Version:  13
     \\/     M anipulation  |
\*---------------------------------------------------------------------------*/
FoamFile
{
    format      ascii;
    class       volScalarField;
    location    "10";
    object      nut;
}
// * * * * * * * * * * * * * * * * * * * * * * * * * * * * * * * * * * * * * //

dimensions      [0 2 -1 0 0 0 0];

internalField   nonuniform List<scalar> 
6400
(
9.95136e-10
5.11131e-09
1.24351e-08
2.00265e-08
2.57291e-08
2.89103e-08
3.00453e-08
3.01363e-08
3.03178e-08
3.14419e-08
3.41865e-08
3.95688e-08
4.80638e-08
5.9825e-08
7.42188e-08
9.0432e-08
1.07619e-07
1.25453e-07
1.43068e-07
1.60078e-07
1.77229e-07
1.96012e-07
2.18404e-07
2.4547e-07
2.75939e-07
3.0649e-07
3.36912e-07
3.67128e-07
3.98126e-07
4.30708e-07
4.64391e-07
4.98096e-07
5.31273e-07
5.6408e-07
5.97286e-07
6.31113e-07
6.66213e-07
7.02804e-07
7.41309e-07
7.8183e-07
8.24664e-07
8.70128e-07
9.1849e-07
9.70254e-07
1.02597e-06
1.0876e-06
1.159e-06
1.24826e-06
1.33511e-06
1.4245e-06
1.51131e-06
1.59557e-06
1.67426e-06
1.74533e-06
1.8061e-06
1.85288e-06
1.87596e-06
1.88495e-06
1.87813e-06
1.83993e-06
1.77407e-06
1.68119e-06
1.56209e-06
1.42198e-06
1.26337e-06
1.09455e-06
9.23554e-07
7.56723e-07
6.00119e-07
4.61637e-07
3.48382e-07
2.53364e-07
1.76645e-07
1.18133e-07
7.60142e-08
4.72852e-08
2.85252e-08
1.64185e-08
7.77661e-09
1.65858e-09
4.80657e-09
3.3691e-07
1.21113e-06
2.03996e-06
2.65145e-06
3.01074e-06
3.17579e-06
3.2348e-06
3.27378e-06
3.35588e-06
3.55867e-06
3.9502e-06
4.49692e-06
5.1294e-06
5.78205e-06
6.39131e-06
6.91136e-06
7.29342e-06
7.52557e-06
7.62579e-06
7.68029e-06
7.75331e-06
7.91372e-06
8.18499e-06
8.50088e-06
8.70251e-06
8.90689e-06
9.14285e-06
9.45828e-06
9.8909e-06
1.04413e-05
1.10479e-05
1.1703e-05
1.238e-05
1.30952e-05
1.38349e-05
1.46075e-05
1.54073e-05
1.62413e-05
1.71035e-05
1.79883e-05
1.89012e-05
1.98451e-05
2.08357e-05
2.18397e-05
2.28201e-05
2.37529e-05
2.45772e-05
2.54604e-05
2.63393e-05
2.7232e-05
2.81119e-05
2.89676e-05
2.97767e-05
3.05174e-05
3.12471e-05
3.16732e-05
3.19698e-05
3.21399e-05
3.20896e-05
3.16966e-05
3.10069e-05
2.99793e-05
2.86186e-05
2.69211e-05
2.49462e-05
2.2786e-05
2.04612e-05
1.8007e-05
1.53202e-05
1.24134e-05
9.62267e-06
7.16465e-06
5.14681e-06
3.57712e-06
2.43928e-06
1.63618e-06
1.06186e-06
4.81969e-07
8.77403e-09
1.05086e-08
8.67965e-07
3.49848e-06
6.0674e-06
8.03323e-06
9.31113e-06
1.00326e-05
1.04012e-05
1.06305e-05
1.09019e-05
1.13446e-05
1.20368e-05
1.29484e-05
1.39753e-05
1.49853e-05
1.58693e-05
1.65767e-05
1.7083e-05
1.73889e-05
1.75118e-05
1.74752e-05
1.7381e-05
1.73076e-05
1.72935e-05
1.73749e-05
1.76453e-05
1.7968e-05
1.83007e-05
1.86607e-05
1.90466e-05
1.95554e-05
2.0272e-05
2.12746e-05
2.23014e-05
2.34593e-05
2.46733e-05
2.59658e-05
2.72739e-05
2.86419e-05
3.00964e-05
3.15027e-05
3.29557e-05
3.43617e-05
3.56996e-05
3.69755e-05
3.82303e-05
3.94501e-05
4.06762e-05
4.19141e-05
4.31469e-05
4.4372e-05
4.5574e-05
4.67379e-05
4.78424e-05
4.88597e-05
4.97531e-05
5.05538e-05
5.10527e-05
5.12774e-05
5.14212e-05
5.12271e-05
5.0714e-05
4.98181e-05
4.84516e-05
4.65216e-05
4.40646e-05
4.12657e-05
3.81077e-05
3.46064e-05
3.0793e-05
2.67279e-05
2.2553e-05
1.8466e-05
1.46699e-05
1.13278e-05
8.50241e-06
6.26011e-06
4.32629e-06
1.80911e-06
2.35165e-08
1.82628e-08
1.4212e-06
5.47563e-06
9.33911e-06
1.2326e-05
1.43792e-05
1.56573e-05
1.63871e-05
1.68343e-05
1.72218e-05
1.77487e-05
1.85352e-05
1.95542e-05
2.06608e-05
2.16915e-05
2.25301e-05
2.31182e-05
2.34549e-05
2.35724e-05
2.3532e-05
2.34031e-05
2.32966e-05
2.32801e-05
2.33938e-05
2.34553e-05
2.34721e-05
2.34756e-05
2.38988e-05
2.46553e-05
2.56688e-05
2.69615e-05
2.81917e-05
2.94138e-05
3.07141e-05
3.20448e-05
3.33443e-05
3.46559e-05
3.60371e-05
3.73239e-05
3.86136e-05
3.98444e-05
4.10596e-05
4.22221e-05
4.33474e-05
4.44237e-05
4.54786e-05
4.65328e-05
4.75882e-05
4.8641e-05
4.96849e-05
5.07137e-05
5.17165e-05
5.26806e-05
5.35891e-05
5.44223e-05
5.51563e-05
5.57661e-05
5.62223e-05
5.6453e-05
5.65011e-05
5.63278e-05
5.57738e-05
5.50179e-05
5.41989e-05
5.28622e-05
5.08998e-05
4.84901e-05
4.55992e-05
4.22951e-05
3.86228e-05
3.46268e-05
3.03737e-05
2.59748e-05
2.15946e-05
1.74385e-05
1.36676e-05
1.03915e-05
7.30648e-06
3.04214e-06
3.92738e-08
2.93392e-08
2.13526e-06
7.60443e-06
1.25729e-05
1.62789e-05
1.87767e-05
2.03104e-05
2.117e-05
2.16731e-05
2.21411e-05
2.28264e-05
2.38099e-05
2.49828e-05
2.61436e-05
2.7114e-05
2.77958e-05
2.81715e-05
2.82841e-05
2.81928e-05
2.8021e-05
2.77783e-05
2.7611e-05
2.74587e-05
2.6846e-05
2.68062e-05
2.73577e-05
2.83155e-05
2.94625e-05
3.06284e-05
3.19381e-05
3.32251e-05
3.4465e-05
3.56852e-05
3.68706e-05
3.79596e-05
3.89834e-05
4.00153e-05
4.09561e-05
4.17769e-05
4.25471e-05
4.32337e-05
4.38727e-05
4.44746e-05
4.50733e-05
4.56913e-05
4.63202e-05
4.69479e-05
4.75842e-05
4.82307e-05
4.88907e-05
4.9566e-05
5.02566e-05
5.09607e-05
5.16737e-05
5.23892e-05
5.30945e-05
5.37673e-05
5.43791e-05
5.48975e-05
5.52614e-05
5.53968e-05
5.52676e-05
5.46788e-05
5.35916e-05
5.27929e-05
5.15873e-05
4.97525e-05
4.74244e-05
4.46629e-05
4.15172e-05
3.80221e-05
3.42023e-05
3.00946e-05
2.57912e-05
2.15025e-05
1.73965e-05
1.35412e-05
9.54715e-06
3.90731e-06
5.02585e-08
4.51793e-08
3.09714e-06
1.01211e-05
1.61126e-05
2.0327e-05
2.30099e-05
2.45548e-05
2.53767e-05
2.59009e-05
2.65039e-05
2.73929e-05
2.85426e-05
2.97636e-05
3.08353e-05
3.16033e-05
3.20087e-05
3.20726e-05
3.19247e-05
3.15141e-05
3.12011e-05
3.06769e-05
2.98118e-05
2.96781e-05
3.0404e-05
3.13812e-05
3.24031e-05
3.35743e-05
3.47441e-05
3.58706e-05
3.69443e-05
3.78888e-05
3.87486e-05
3.95428e-05
4.02259e-05
4.07668e-05
4.1243e-05
4.1622e-05
4.19969e-05
4.2267e-05
4.25081e-05
4.27168e-05
4.29158e-05
4.31026e-05
4.3278e-05
4.34516e-05
4.36197e-05
4.37918e-05
4.39744e-05
4.41776e-05
4.44119e-05
4.46887e-05
4.50202e-05
4.54183e-05
4.58902e-05
4.64335e-05
4.70605e-05
4.77612e-05
4.85147e-05
4.92836e-05
5.00176e-05
5.07249e-05
5.11216e-05
5.12529e-05
5.10095e-05
5.02016e-05
4.97032e-05
4.84815e-05
4.67102e-05
4.44507e-05
4.17879e-05
3.87922e-05
3.54936e-05
3.18715e-05
2.79016e-05
2.37393e-05
1.9517e-05
1.53837e-05
1.08857e-05
4.32903e-06
5.44027e-08
6.71849e-08
4.35029e-06
1.30548e-05
1.99544e-05
2.4482e-05
2.71573e-05
2.85711e-05
2.92962e-05
2.98512e-05
3.05941e-05
3.16244e-05
3.28109e-05
3.39222e-05
3.47571e-05
3.5213e-05
3.52899e-05
3.48331e-05
3.43891e-05
3.39337e-05
3.27509e-05
3.24241e-05
3.29283e-05
3.37939e-05
3.45918e-05
3.54914e-05
3.63942e-05
3.73028e-05
3.80857e-05
3.87593e-05
3.93339e-05
3.98263e-05
4.02422e-05
4.05539e-05
4.07732e-05
4.09148e-05
4.10079e-05
4.10514e-05
4.10684e-05
4.10231e-05
4.09893e-05
4.09622e-05
4.0866e-05
4.07921e-05
4.0683e-05
4.05815e-05
4.04577e-05
4.03339e-05
4.02015e-05
4.00705e-05
3.99504e-05
3.98563e-05
3.98076e-05
3.98353e-05
3.99847e-05
4.02345e-05
4.06367e-05
4.12304e-05
4.20119e-05
4.29381e-05
4.3964e-05
4.50617e-05
4.60957e-05
4.69974e-05
4.74102e-05
4.74316e-05
4.6973e-05
4.66497e-05
4.54237e-05
4.35605e-05
4.11895e-05
3.84553e-05
3.54712e-05
3.2268e-05
2.87476e-05
2.48091e-05
2.07336e-05
1.63149e-05
1.11879e-05
4.32096e-06
5.28844e-08
9.66495e-08
5.91349e-06
1.63322e-05
2.39892e-05
2.86501e-05
3.11874e-05
3.24068e-05
3.30296e-05
3.36128e-05
3.44355e-05
3.54795e-05
3.65409e-05
3.73826e-05
3.78399e-05
3.78682e-05
3.73558e-05
3.68918e-05
3.58485e-05
3.51103e-05
3.50889e-05
3.56506e-05
3.60533e-05
3.66963e-05
3.73093e-05
3.80456e-05
3.86619e-05
3.92024e-05
3.96034e-05
3.9911e-05
4.01256e-05
4.02662e-05
4.03384e-05
4.035e-05
4.03215e-05
4.0266e-05
4.01961e-05
4.01125e-05
4.00202e-05
3.99178e-05
3.98197e-05
3.9667e-05
3.95612e-05
3.94916e-05
3.92723e-05
3.91385e-05
3.8946e-05
3.87586e-05
3.85457e-05
3.83214e-05
3.80757e-05
3.78101e-05
3.75205e-05
3.72042e-05
3.68551e-05
3.65776e-05
3.64142e-05
3.64507e-05
3.68328e-05
3.75479e-05
3.84905e-05
3.97429e-05
4.10852e-05
4.25083e-05
4.38213e-05
4.45185e-05
4.46182e-05
4.45414e-05
4.43502e-05
4.29519e-05
4.08268e-05
3.81664e-05
3.5189e-05
3.20707e-05
2.88502e-05
2.5288e-05
2.12481e-05
1.68462e-05
1.13735e-05
4.21035e-06
4.91951e-08
1.34469e-07
7.76811e-06
1.98593e-05
2.80607e-05
3.27373e-05
3.5064e-05
3.60688e-05
3.65863e-05
3.71561e-05
3.79546e-05
3.88695e-05
3.96665e-05
4.01379e-05
4.00105e-05
3.95334e-05
3.90404e-05
3.77309e-05
3.72461e-05
3.73149e-05
3.73921e-05
3.76707e-05
3.81003e-05
3.86086e-05
3.90563e-05
3.94836e-05
3.97677e-05
3.99692e-05
4.00671e-05
4.01094e-05
4.01003e-05
4.00647e-05
4.00118e-05
3.99557e-05
3.99058e-05
3.98643e-05
3.98314e-05
3.98042e-05
3.97804e-05
3.97534e-05
3.97026e-05
3.96662e-05
3.96415e-05
3.95472e-05
3.9451e-05
3.93492e-05
3.92102e-05
3.90563e-05
3.88711e-05
3.86586e-05
3.8412e-05
3.81301e-05
3.78061e-05
3.74343e-05
3.70109e-05
3.65256e-05
3.59684e-05
3.53479e-05
3.46771e-05
3.42503e-05
3.44454e-05
3.53375e-05
3.65074e-05
3.81042e-05
3.9773e-05
4.14455e-05
4.2391e-05
4.25568e-05
4.2734e-05
4.26395e-05
4.09712e-05
3.84753e-05
3.5405e-05
3.20641e-05
2.86992e-05
2.52822e-05
2.14442e-05
1.69052e-05
1.11245e-05
3.92039e-06
4.49544e-08
1.80975e-07
9.83124e-06
2.3463e-05
3.20862e-05
3.66853e-05
3.87605e-05
3.95399e-05
3.99265e-05
4.04072e-05
4.10617e-05
4.17186e-05
4.21481e-05
4.19169e-05
4.13785e-05
4.08037e-05
3.97226e-05
3.91787e-05
3.89609e-05
3.87369e-05
3.88949e-05
3.914e-05
3.94484e-05
3.97312e-05
3.99299e-05
4.00633e-05
4.00959e-05
4.00877e-05
4.0041e-05
3.99962e-05
3.99587e-05
3.99465e-05
3.99602e-05
4.00024e-05
4.00677e-05
4.01492e-05
4.02383e-05
4.0323e-05
4.04094e-05
4.04612e-05
4.04878e-05
4.05353e-05
4.05155e-05
4.04797e-05
4.04146e-05
4.03244e-05
4.02032e-05
4.00586e-05
3.98875e-05
3.96947e-05
3.94747e-05
3.9223e-05
3.89321e-05
3.85904e-05
3.81797e-05
3.76972e-05
3.71139e-05
3.64153e-05
3.55933e-05
3.46784e-05
3.37165e-05
3.27823e-05
3.29834e-05
3.41432e-05
3.56771e-05
3.76547e-05
3.96148e-05
4.08022e-05
4.10566e-05
4.13254e-05
4.12385e-05
3.92406e-05
3.63077e-05
3.27581e-05
2.89776e-05
2.52543e-05
2.14054e-05
1.68516e-05
1.08385e-05
3.6343e-06
4.13915e-08
2.37045e-07
1.19302e-05
2.70041e-05
3.59779e-05
4.04478e-05
4.22491e-05
4.27841e-05
4.29894e-05
4.32875e-05
4.36826e-05
4.39764e-05
4.3659e-05
4.30294e-05
4.23795e-05
4.14584e-05
4.0809e-05
4.02242e-05
3.99284e-05
3.98107e-05
3.99225e-05
4.00374e-05
4.01552e-05
4.0211e-05
4.02049e-05
4.01626e-05
4.00943e-05
4.00478e-05
4.003e-05
4.00634e-05
4.01434e-05
4.0271e-05
4.04336e-05
4.06214e-05
4.08206e-05
4.10176e-05
4.12351e-05
4.13891e-05
4.14827e-05
4.16437e-05
4.17189e-05
4.1779e-05
4.17891e-05
4.17739e-05
4.17196e-05
4.16328e-05
4.15102e-05
4.13552e-05
4.11665e-05
4.09458e-05
4.06927e-05
4.04082e-05
4.00926e-05
3.97464e-05
3.93684e-05
3.89556e-05
3.84813e-05
3.78972e-05
3.71527e-05
3.62318e-05
3.51235e-05
3.38832e-05
3.26669e-05
3.15969e-05
3.22093e-05
3.37946e-05
3.59017e-05
3.80883e-05
3.95339e-05
3.9874e-05
4.01207e-05
3.99082e-05
3.7527e-05
3.41118e-05
3.00471e-05
2.57689e-05
2.15523e-05
1.68205e-05
1.08064e-05
3.54585e-06
3.99331e-08
3.05152e-07
1.38701e-05
3.03906e-05
3.96774e-05
4.39888e-05
4.54981e-05
4.57566e-05
4.57135e-05
4.57327e-05
4.57677e-05
4.53448e-05
4.46046e-05
4.39008e-05
4.30557e-05
4.22965e-05
4.13836e-05
4.0895e-05
4.06214e-05
4.05028e-05
4.04909e-05
4.0449e-05
4.03977e-05
4.031e-05
4.02204e-05
4.01573e-05
4.0142e-05
4.01988e-05
4.03235e-05
4.05158e-05
4.0758e-05
4.10374e-05
4.13351e-05
4.16375e-05
4.19575e-05
4.22546e-05
4.24576e-05
4.26507e-05
4.28717e-05
4.30344e-05
4.31454e-05
4.32268e-05
4.32636e-05
4.32652e-05
4.32251e-05
4.31469e-05
4.30289e-05
4.28726e-05
4.26778e-05
4.24452e-05
4.21751e-05
4.18675e-05
4.1522e-05
4.11372e-05
4.07116e-05
4.0243e-05
3.97301e-05
3.91714e-05
3.8561e-05
3.78294e-05
3.68841e-05
3.56736e-05
3.42513e-05
3.27296e-05
3.13655e-05
3.0805e-05
3.23204e-05
3.43569e-05
3.68056e-05
3.84326e-05
3.88229e-05
3.89702e-05
3.84566e-05
3.56279e-05
3.17019e-05
2.7101e-05
2.22567e-05
1.71758e-05
1.10197e-05
3.67615e-06
4.11439e-08
3.807e-07
1.57903e-05
3.36107e-05
4.3151e-05
4.72788e-05
4.84751e-05
4.84139e-05
4.80488e-05
4.76991e-05
4.70993e-05
4.62118e-05
4.54685e-05
4.45876e-05
4.36948e-05
4.2557e-05
4.17783e-05
4.13258e-05
4.10292e-05
4.08427e-05
4.07003e-05
4.05458e-05
4.0414e-05
4.03076e-05
4.02683e-05
4.03121e-05
4.04477e-05
4.06725e-05
4.0968e-05
4.13177e-05
4.16989e-05
4.20951e-05
4.24896e-05
4.28949e-05
4.32679e-05
4.35791e-05
4.38457e-05
4.40997e-05
4.43552e-05
4.45516e-05
4.46973e-05
4.4807e-05
4.48721e-05
4.48957e-05
4.48749e-05
4.48106e-05
4.47019e-05
4.45492e-05
4.43527e-05
4.41131e-05
4.3831e-05
4.3507e-05
4.31409e-05
4.27318e-05
4.2277e-05
4.17728e-05
4.1214e-05
4.05954e-05
3.99147e-05
3.91744e-05
3.83743e-05
3.74075e-05
3.6151e-05
3.46036e-05
3.28791e-05
3.11985e-05
2.99282e-05
3.1013e-05
3.30615e-05
3.56799e-05
3.73976e-05
3.77674e-05
3.77631e-05
3.67099e-05
3.3375e-05
2.89309e-05
2.37227e-05
1.81578e-05
1.17731e-05
4.11387e-06
4.66797e-08
4.61532e-07
1.76533e-05
3.66213e-05
4.63656e-05
5.02919e-05
5.1153e-05
5.07244e-05
4.99642e-05
4.90683e-05
4.79638e-05
4.71717e-05
4.60951e-05
4.50709e-05
4.37542e-05
4.27017e-05
4.19974e-05
4.1533e-05
4.11862e-05
4.0925e-05
4.07057e-05
4.05269e-05
4.04259e-05
4.04149e-05
4.0519e-05
4.07329e-05
4.10455e-05
4.14353e-05
4.18773e-05
4.23503e-05
4.28341e-05
4.33151e-05
4.37816e-05
4.42268e-05
4.46448e-05
4.50206e-05
4.53464e-05
4.56502e-05
4.59028e-05
4.61636e-05
4.63533e-05
4.64951e-05
4.65933e-05
4.66435e-05
4.66451e-05
4.65969e-05
4.64979e-05
4.6348e-05
4.61472e-05
4.58966e-05
4.55975e-05
4.52516e-05
4.48608e-05
4.4426e-05
4.3947e-05
4.3421e-05
4.28418e-05
4.22e-05
4.14841e-05
4.06841e-05
3.97989e-05
3.88431e-05
3.77953e-05
3.64856e-05
3.4823e-05
3.29315e-05
3.10111e-05
2.95089e-05
2.99176e-05
3.19605e-05
3.46724e-05
3.63466e-05
3.65794e-05
3.64438e-05
3.45087e-05
3.06964e-05
2.55993e-05
1.97236e-05
1.30093e-05
4.95631e-06
6.04252e-08
5.45008e-07
1.94163e-05
3.93821e-05
4.9296e-05
5.30105e-05
5.35211e-05
5.269e-05
5.14391e-05
5.00336e-05
4.91334e-05
4.76858e-05
4.65224e-05
4.50216e-05
4.37165e-05
4.27348e-05
4.20557e-05
4.15591e-05
4.1172e-05
4.08796e-05
4.0668e-05
4.056e-05
4.05806e-05
4.07322e-05
4.10139e-05
4.14015e-05
4.18709e-05
4.23939e-05
4.29468e-05
4.35105e-05
4.40701e-05
4.46152e-05
4.51381e-05
4.56333e-05
4.60962e-05
4.65227e-05
4.69315e-05
4.72894e-05
4.75713e-05
4.78305e-05
4.81121e-05
4.82872e-05
4.84219e-05
4.85031e-05
4.85293e-05
4.84991e-05
4.84104e-05
4.82625e-05
4.8055e-05
4.77887e-05
4.74651e-05
4.70871e-05
4.66584e-05
4.61828e-05
4.5664e-05
4.51038e-05
4.45005e-05
4.38472e-05
4.31301e-05
4.23291e-05
4.14214e-05
4.03918e-05
3.92495e-05
3.80102e-05
3.65925e-05
3.48526e-05
3.28303e-05
3.07627e-05
2.90227e-05
2.89964e-05
3.09973e-05
3.37622e-05
3.52358e-05
3.5226e-05
3.48408e-05
3.19394e-05
2.73359e-05
2.15073e-05
1.45551e-05
5.95869e-06
8.3062e-08
6.28774e-07
2.10403e-05
4.18678e-05
5.19322e-05
5.54254e-05
5.55882e-05
5.42634e-05
5.262e-05
5.13761e-05
4.95548e-05
4.81353e-05
4.64353e-05
4.48722e-05
4.36036e-05
4.26671e-05
4.19886e-05
4.1473e-05
4.10878e-05
4.08327e-05
4.07115e-05
4.07442e-05
4.09335e-05
4.12641e-05
4.17137e-05
4.22491e-05
4.28425e-05
4.34678e-05
4.41056e-05
4.47415e-05
4.53651e-05
4.59694e-05
4.65492e-05
4.71008e-05
4.76214e-05
4.81088e-05
4.85619e-05
4.89923e-05
4.93583e-05
4.9625e-05
4.99228e-05
5.0185e-05
5.03445e-05
5.04628e-05
5.05151e-05
5.05057e-05
5.043e-05
5.02868e-05
5.00745e-05
4.97932e-05
4.94438e-05
4.90291e-05
4.85533e-05
4.80223e-05
4.74431e-05
4.6823e-05
4.61675e-05
4.5478e-05
4.47486e-05
4.3963e-05
4.30927e-05
4.20994e-05
4.09456e-05
3.96201e-05
3.81522e-05
3.64572e-05
3.46639e-05
3.25517e-05
3.0397e-05
2.84647e-05
2.82216e-05
3.01432e-05
3.28024e-05
3.41176e-05
3.35466e-05
3.24227e-05
2.85713e-05
2.31043e-05
1.616e-05
7.00272e-06
1.12522e-07
7.10926e-07
2.24804e-05
4.40769e-05
5.43109e-05
5.75067e-05
5.71461e-05
5.55602e-05
5.38629e-05
5.17746e-05
4.99985e-05
4.80757e-05
4.62367e-05
4.46603e-05
4.34315e-05
4.25229e-05
4.18498e-05
4.13538e-05
4.10278e-05
4.0876e-05
4.09019e-05
4.11072e-05
4.14717e-05
4.19656e-05
4.2556e-05
4.32096e-05
4.39007e-05
4.46085e-05
4.53187e-05
4.60208e-05
4.67076e-05
4.73742e-05
4.80163e-05
4.86307e-05
4.92141e-05
4.97632e-05
5.02746e-05
5.07588e-05
5.12033e-05
5.14993e-05
5.18002e-05
5.21489e-05
5.23357e-05
5.24891e-05
5.25692e-05
5.25829e-05
5.25242e-05
5.2391e-05
5.21808e-05
5.1892e-05
5.15241e-05
5.10786e-05
5.05586e-05
4.99699e-05
4.93207e-05
4.86216e-05
4.78841e-05
4.71188e-05
4.63317e-05
4.55201e-05
4.46666e-05
4.37351e-05
4.26704e-05
4.14073e-05
3.99531e-05
3.82798e-05
3.61507e-05
3.42148e-05
3.21242e-05
2.98473e-05
2.77451e-05
2.76081e-05
2.94399e-05
3.16377e-05
3.24463e-05
3.17392e-05
2.91789e-05
2.42994e-05
1.76099e-05
7.9531e-06
1.46954e-07
7.89939e-07
2.37694e-05
4.6008e-05
5.62644e-05
5.90861e-05
5.85751e-05
5.70038e-05
5.47213e-05
5.22057e-05
5.0027e-05
4.78884e-05
4.59731e-05
4.44105e-05
4.32195e-05
4.23387e-05
4.16989e-05
4.12717e-05
4.10577e-05
4.10542e-05
4.12514e-05
4.16291e-05
4.2152e-05
4.27832e-05
4.34882e-05
4.42381e-05
4.50118e-05
4.57936e-05
4.6573e-05
4.73424e-05
4.8096e-05
4.88292e-05
4.95376e-05
5.0217e-05
5.08631e-05
5.14718e-05
5.20389e-05
5.25614e-05
5.30607e-05
5.34283e-05
5.37331e-05
5.41117e-05
5.43522e-05
5.45297e-05
5.46381e-05
5.46751e-05
5.46368e-05
5.45197e-05
5.43203e-05
5.40356e-05
5.36633e-05
5.32022e-05
5.26534e-05
5.20203e-05
5.13096e-05
5.0532e-05
4.97015e-05
4.88348e-05
4.79486e-05
4.70553e-05
4.61569e-05
4.52368e-05
4.42522e-05
4.3129e-05
4.17681e-05
4.0212e-05
3.82416e-05
3.57801e-05
3.36377e-05
3.15194e-05
2.90502e-05
2.6784e-05
2.70267e-05
2.9051e-05
3.0426e-05
3.04335e-05
2.9262e-05
2.50561e-05
1.875e-05
8.72913e-06
1.84683e-07
8.62746e-07
2.48679e-05
4.75626e-05
5.77761e-05
6.03597e-05
6.00267e-05
5.78671e-05
5.50489e-05
5.24784e-05
4.99136e-05
4.76238e-05
4.56761e-05
4.41419e-05
4.29916e-05
4.21559e-05
4.15879e-05
4.12739e-05
4.12077e-05
4.13714e-05
4.1738e-05
4.22714e-05
4.29292e-05
4.36744e-05
4.44758e-05
4.53098e-05
4.61599e-05
4.70143e-05
4.78646e-05
4.87043e-05
4.95276e-05
5.03289e-05
5.11028e-05
5.18439e-05
5.2547e-05
5.32072e-05
5.38199e-05
5.43811e-05
5.49197e-05
5.53559e-05
5.56543e-05
5.60404e-05
5.63334e-05
5.65266e-05
5.6659e-05
5.67172e-05
5.67001e-05
5.66033e-05
5.64228e-05
5.61543e-05
5.57934e-05
5.53368e-05
5.4782e-05
5.4129e-05
5.33809e-05
5.25451e-05
5.16342e-05
5.06659e-05
4.96626e-05
4.86481e-05
4.76426e-05
4.66541e-05
4.56684e-05
4.46367e-05
4.34658e-05
4.20171e-05
4.03089e-05
3.78876e-05
3.52383e-05
3.294e-05
3.07313e-05
2.79432e-05
2.57406e-05
2.63875e-05
2.83973e-05
2.94142e-05
2.8299e-05
2.53236e-05
1.95371e-05
9.32216e-06
2.24568e-07
9.26777e-07
2.57496e-05
4.87385e-05
5.89216e-05
6.16158e-05
6.10918e-05
5.86217e-05
5.54814e-05
5.24731e-05
4.97047e-05
4.73174e-05
4.53672e-05
4.38724e-05
4.27743e-05
4.20109e-05
4.15516e-05
4.13815e-05
4.14784e-05
4.18075e-05
4.23283e-05
4.2996e-05
4.37685e-05
4.46117e-05
4.54992e-05
4.64124e-05
4.73382e-05
4.82667e-05
4.91902e-05
5.01016e-05
5.09941e-05
5.18607e-05
5.26948e-05
5.349e-05
5.42405e-05
5.49416e-05
5.55891e-05
5.61798e-05
5.67363e-05
5.72254e-05
5.75234e-05
5.78884e-05
5.82252e-05
5.84258e-05
5.85742e-05
5.86485e-05
5.86502e-05
5.85747e-05
5.84179e-05
5.81747e-05
5.78393e-05
5.74061e-05
5.68696e-05
5.62256e-05
5.54724e-05
5.46121e-05
5.36524e-05
5.26076e-05
5.14995e-05
5.03569e-05
4.92115e-05
4.80922e-05
4.70138e-05
4.59643e-05
4.48882e-05
4.36724e-05
4.21385e-05
4.00982e-05
3.73282e-05
3.45105e-05
3.21382e-05
2.97175e-05
2.66739e-05
2.49383e-05
2.58249e-05
2.70408e-05
2.71315e-05
2.52645e-05
1.9971e-05
9.71068e-06
2.66113e-07
9.80616e-07
2.642e-05
4.9584e-05
5.98219e-05
6.25555e-05
6.18471e-05
5.89399e-05
5.56369e-05
5.23626e-05
4.94374e-05
4.69938e-05
4.50629e-05
4.36191e-05
4.25915e-05
4.1929e-05
4.16055e-05
4.15934e-05
4.18522e-05
4.2334e-05
4.29901e-05
4.37741e-05
4.46469e-05
4.55788e-05
4.65483e-05
4.75399e-05
4.85424e-05
4.95463e-05
5.05432e-05
5.15245e-05
5.24818e-05
5.34069e-05
5.42919e-05
5.51303e-05
5.59162e-05
5.66454e-05
5.73145e-05
5.79218e-05
5.84695e-05
5.89823e-05
5.93063e-05
5.96187e-05
5.99871e-05
6.01866e-05
6.03403e-05
6.04232e-05
6.0438e-05
6.03809e-05
6.02483e-05
6.00348e-05
5.97342e-05
5.9339e-05
5.88413e-05
5.82331e-05
5.75077e-05
5.6661e-05
5.56936e-05
5.4613e-05
5.34357e-05
5.21883e-05
5.09067e-05
4.96323e-05
4.84031e-05
4.72408e-05
4.61325e-05
4.50105e-05
4.37285e-05
4.20373e-05
3.94776e-05
3.65299e-05
3.361e-05
3.1175e-05
2.83491e-05
2.5014e-05
2.42757e-05
2.54486e-05
2.61878e-05
2.46746e-05
2.00514e-05
9.88769e-06
3.09294e-07
1.02349e-06
2.68813e-05
5.01559e-05
6.0441e-05
6.32739e-05
6.243e-05
5.9359e-05
5.56812e-05
5.21807e-05
4.9139e-05
4.66706e-05
4.47758e-05
4.3397e-05
4.24605e-05
4.19223e-05
4.17491e-05
4.18954e-05
4.23056e-05
4.29238e-05
4.36987e-05
4.45856e-05
4.555e-05
4.65664e-05
4.76166e-05
4.86872e-05
4.97669e-05
5.08456e-05
5.1913e-05
5.29589e-05
5.39734e-05
5.4947e-05
5.58717e-05
5.67406e-05
5.75485e-05
5.82915e-05
5.89672e-05
5.95742e-05
6.01117e-05
6.06176e-05
6.09718e-05
6.12155e-05
6.15937e-05
6.17864e-05
6.19331e-05
6.2015e-05
6.20345e-05
6.19894e-05
6.1877e-05
6.16926e-05
6.143e-05
6.10811e-05
6.06362e-05
6.00844e-05
5.94145e-05
5.86165e-05
5.76833e-05
5.66136e-05
5.54148e-05
5.41062e-05
5.27201e-05
5.13018e-05
4.99036e-05
4.85744e-05
4.73426e-05
4.61957e-05
4.50587e-05
4.37709e-05
4.16224e-05
3.85684e-05
3.55149e-05
3.25303e-05
2.99615e-05
2.6475e-05
2.35246e-05
2.34408e-05
2.38883e-05
2.36113e-05
1.99311e-05
1.00196e-05
3.56021e-07
1.0553e-06
2.71519e-05
5.04832e-05
6.08025e-05
6.38093e-05
6.26946e-05
5.95155e-05
5.56292e-05
5.19525e-05
4.88291e-05
4.63603e-05
4.45161e-05
4.32172e-05
4.23906e-05
4.19913e-05
4.19714e-05
4.22681e-05
4.28158e-05
4.35554e-05
4.44363e-05
4.54176e-05
4.64689e-05
4.75681e-05
4.86989e-05
4.98482e-05
5.10039e-05
5.21539e-05
5.32863e-05
5.4389e-05
5.5451e-05
5.64623e-05
5.74148e-05
5.8302e-05
5.91192e-05
5.98637e-05
6.05338e-05
6.11294e-05
6.16511e-05
6.212e-05
6.24913e-05
6.27079e-05
6.30266e-05
6.3221e-05
6.33474e-05
6.34175e-05
6.34313e-05
6.3389e-05
6.32891e-05
6.31283e-05
6.29012e-05
6.25999e-05
6.22141e-05
6.17311e-05
6.11363e-05
6.04145e-05
5.95516e-05
5.8537e-05
5.73675e-05
5.60508e-05
5.46099e-05
5.30852e-05
5.1533e-05
5.00179e-05
4.85972e-05
4.72982e-05
4.60909e-05
4.48624e-05
4.33878e-05
4.0766e-05
3.75324e-05
3.43882e-05
3.11537e-05
2.8187e-05
2.42859e-05
2.25707e-05
2.27635e-05
2.28478e-05
1.98058e-05
1.03451e-05
4.15142e-07
1.07654e-06
2.72564e-05
5.05545e-05
6.08729e-05
6.39967e-05
6.29974e-05
5.95777e-05
5.55104e-05
5.16981e-05
4.8522e-05
4.60718e-05
4.42912e-05
4.30861e-05
4.23831e-05
4.21286e-05
4.22571e-05
4.26925e-05
4.33641e-05
4.4213e-05
4.51911e-05
4.62614e-05
4.7397e-05
4.85781e-05
4.97888e-05
5.10151e-05
5.22432e-05
5.34591e-05
5.46489e-05
5.57995e-05
5.68991e-05
5.79376e-05
5.89073e-05
5.98023e-05
6.06188e-05
6.1355e-05
6.20103e-05
6.25856e-05
6.3083e-05
6.35056e-05
6.38707e-05
6.40883e-05
6.43105e-05
6.44992e-05
6.45945e-05
6.46413e-05
6.46382e-05
6.45875e-05
6.44896e-05
6.4343e-05
6.41438e-05
6.38853e-05
6.35575e-05
6.3147e-05
6.26374e-05
6.20096e-05
6.12436e-05
6.03206e-05
5.9226e-05
5.79549e-05
5.65165e-05
5.494e-05
5.32769e-05
5.15988e-05
4.99861e-05
4.85079e-05
4.71929e-05
4.59996e-05
4.47888e-05
4.26793e-05
3.94859e-05
3.63362e-05
3.30482e-05
2.95271e-05
2.58598e-05
2.21451e-05
2.14432e-05
2.13445e-05
1.95359e-05
1.09622e-05
4.95185e-07
1.08738e-06
2.71901e-05
5.03645e-05
6.08134e-05
6.41475e-05
6.3058e-05
5.95449e-05
5.53448e-05
5.14331e-05
4.82281e-05
4.58113e-05
4.41055e-05
4.30057e-05
4.24339e-05
4.23229e-05
4.25907e-05
4.31524e-05
4.39363e-05
4.48852e-05
4.59544e-05
4.71103e-05
4.83285e-05
4.959e-05
5.08785e-05
5.21784e-05
5.34737e-05
5.47486e-05
5.59879e-05
5.71777e-05
5.83059e-05
5.93629e-05
6.03415e-05
6.12367e-05
6.20456e-05
6.2767e-05
6.34014e-05
6.39501e-05
6.44153e-05
6.47994e-05
6.51387e-05
6.5352e-05
6.54783e-05
6.56429e-05
6.56979e-05
6.57102e-05
6.56786e-05
6.56073e-05
6.5499e-05
6.53545e-05
6.5172e-05
6.49464e-05
6.46691e-05
6.43273e-05
6.39039e-05
6.33777e-05
6.27244e-05
6.19182e-05
6.09348e-05
5.97561e-05
5.83758e-05
5.68067e-05
5.50869e-05
5.32825e-05
5.14822e-05
4.97802e-05
4.82469e-05
4.68921e-05
4.56318e-05
4.42604e-05
4.14671e-05
3.80552e-05
3.47652e-05
3.11895e-05
2.75057e-05
2.29638e-05
2.0872e-05
1.98067e-05
1.90056e-05
1.16577e-05
5.96548e-07
1.0869e-06
2.7021e-05
5.01095e-05
6.06079e-05
6.4174e-05
6.30146e-05
5.94397e-05
5.51488e-05
5.11692e-05
4.79545e-05
4.55829e-05
4.39609e-05
4.29739e-05
4.25354e-05
4.2562e-05
4.29582e-05
4.3635e-05
4.45216e-05
4.55635e-05
4.67193e-05
4.79581e-05
4.92569e-05
5.05966e-05
5.19595e-05
5.3328e-05
5.46844e-05
5.60113e-05
5.72925e-05
5.85139e-05
5.96639e-05
6.07332e-05
6.17155e-05
6.26065e-05
6.34043e-05
6.41083e-05
6.47197e-05
6.52404e-05
6.56738e-05
6.60246e-05
6.63027e-05
6.64796e-05
6.65691e-05
6.66824e-05
6.66886e-05
6.66558e-05
6.65844e-05
6.64804e-05
6.63486e-05
6.61925e-05
6.60126e-05
6.58065e-05
6.55676e-05
6.52844e-05
6.49407e-05
6.45145e-05
6.3979e-05
6.33035e-05
6.24557e-05
6.14057e-05
6.01319e-05
5.86287e-05
5.69158e-05
5.50457e-05
5.31054e-05
5.12066e-05
4.94599e-05
4.79354e-05
4.66215e-05
4.53971e-05
4.32741e-05
3.98481e-05
3.66114e-05
3.27569e-05
2.87348e-05
2.44342e-05
2.07029e-05
1.92748e-05
1.8581e-05
1.22731e-05
7.15088e-07
1.08136e-06
2.67529e-05
4.96973e-05
6.0211e-05
6.39739e-05
6.28647e-05
5.92767e-05
5.49349e-05
5.0915e-05
4.77063e-05
4.53887e-05
4.38569e-05
4.29864e-05
4.26786e-05
4.28342e-05
4.33483e-05
4.41303e-05
4.51118e-05
4.62412e-05
4.74798e-05
4.87988e-05
5.01754e-05
5.15898e-05
5.30226e-05
5.44542e-05
5.58654e-05
5.72377e-05
5.85547e-05
5.98023e-05
6.09695e-05
6.20478e-05
6.30316e-05
6.39174e-05
6.47038e-05
6.53908e-05
6.59795e-05
6.64724e-05
6.68725e-05
6.71839e-05
6.74114e-05
6.7539e-05
6.75955e-05
6.76507e-05
6.76005e-05
6.75133e-05
6.73917e-05
6.72431e-05
6.70747e-05
6.68927e-05
6.67006e-05
6.64985e-05
6.62826e-05
6.60439e-05
6.57674e-05
6.54321e-05
6.50104e-05
6.44686e-05
6.37687e-05
6.28712e-05
6.17405e-05
6.03526e-05
5.87055e-05
5.68304e-05
5.48e-05
5.27266e-05
5.07437e-05
4.89658e-05
4.74362e-05
4.6078e-05
4.46683e-05
4.16898e-05
3.81824e-05
3.46028e-05
3.04637e-05
2.59471e-05
2.08376e-05
1.87259e-05
1.76231e-05
1.29211e-05
8.39812e-07
1.06891e-06
2.64289e-05
4.90203e-05
5.96803e-05
6.36428e-05
6.26249e-05
5.90686e-05
5.47129e-05
5.06771e-05
4.74867e-05
4.52293e-05
4.37911e-05
4.30372e-05
4.28545e-05
4.31296e-05
4.37515e-05
4.46304e-05
4.57002e-05
4.69122e-05
4.823e-05
4.96258e-05
5.10767e-05
5.25615e-05
5.4059e-05
5.55481e-05
5.70083e-05
5.84208e-05
5.97691e-05
6.10397e-05
6.22221e-05
6.33088e-05
6.42948e-05
6.51772e-05
6.59548e-05
6.66276e-05
6.71967e-05
6.76641e-05
6.80326e-05
6.83058e-05
6.84881e-05
6.85611e-05
6.85819e-05
6.8579e-05
6.84671e-05
6.83174e-05
6.81362e-05
6.79321e-05
6.77148e-05
6.7493e-05
6.72734e-05
6.70592e-05
6.68496e-05
6.66383e-05
6.6413e-05
6.61544e-05
6.58354e-05
6.54214e-05
6.48708e-05
6.41374e-05
6.31739e-05
6.19396e-05
6.04108e-05
5.85939e-05
5.65396e-05
5.43504e-05
5.21722e-05
5.01625e-05
4.84347e-05
4.69974e-05
4.57122e-05
4.32776e-05
3.96638e-05
3.64891e-05
3.18494e-05
2.71638e-05
2.20434e-05
1.85003e-05
1.64421e-05
1.34353e-05
9.42708e-07
1.04942e-06
2.60151e-05
4.82721e-05
5.90607e-05
6.319e-05
6.23081e-05
5.88257e-05
5.44904e-05
5.046e-05
4.72979e-05
4.51042e-05
4.37604e-05
4.312e-05
4.30548e-05
4.34398e-05
4.41604e-05
4.51285e-05
4.62808e-05
4.75707e-05
4.89638e-05
5.04325e-05
5.19534e-05
5.35036e-05
5.50606e-05
5.6602e-05
5.81065e-05
5.95554e-05
6.09324e-05
6.22249e-05
6.3423e-05
6.452e-05
6.55113e-05
6.63943e-05
6.71677e-05
6.78313e-05
6.83857e-05
6.88323e-05
6.91736e-05
6.94132e-05
6.95566e-05
6.9573e-05
6.95406e-05
6.94962e-05
6.93174e-05
6.90985e-05
6.88497e-05
6.85807e-05
6.83032e-05
6.8029e-05
6.77675e-05
6.75253e-05
6.7305e-05
6.71034e-05
6.69113e-05
6.67118e-05
6.64797e-05
6.6181e-05
6.57726e-05
6.52039e-05
6.44192e-05
6.33638e-05
6.19935e-05
6.02885e-05
5.82711e-05
5.60205e-05
5.36768e-05
5.14188e-05
4.94103e-05
4.77273e-05
4.62971e-05
4.45831e-05
4.11408e-05
3.79701e-05
3.3694e-05
2.87533e-05
2.34392e-05
1.89647e-05
1.57189e-05
1.36381e-05
9.90959e-07
1.0239e-06
2.54914e-05
4.74092e-05
5.83453e-05
6.26389e-05
6.19267e-05
5.85563e-05
5.42729e-05
5.02671e-05
4.71406e-05
4.50119e-05
4.37608e-05
4.32284e-05
4.32722e-05
4.37576e-05
4.45686e-05
4.5619e-05
4.6848e-05
4.82112e-05
4.9675e-05
5.12123e-05
5.27982e-05
5.44088e-05
5.60203e-05
5.76094e-05
5.91547e-05
6.06376e-05
6.20427e-05
6.33578e-05
6.4574e-05
6.5685e-05
6.66865e-05
6.75759e-05
6.83514e-05
6.90122e-05
6.95582e-05
6.999e-05
7.03093e-05
7.05191e-05
7.06243e-05
7.0605e-05
7.05063e-05
7.04189e-05
7.01735e-05
6.98812e-05
6.95585e-05
6.92165e-05
6.88693e-05
6.85312e-05
6.82149e-05
6.79303e-05
6.76831e-05
6.74739e-05
6.72966e-05
6.71376e-05
6.69741e-05
6.67738e-05
6.64941e-05
6.60823e-05
6.54773e-05
6.46137e-05
6.34299e-05
6.18816e-05
5.99605e-05
5.77159e-05
5.52703e-05
5.28116e-05
5.05493e-05
4.8634e-05
4.70712e-05
4.56709e-05
4.26988e-05
3.92996e-05
3.56356e-05
2.99767e-05
2.45666e-05
1.88977e-05
1.58344e-05
1.36247e-05
9.99631e-07
9.93811e-07
2.49307e-05
4.64571e-05
5.754e-05
6.2006e-05
6.14917e-05
5.82674e-05
5.40646e-05
5.01002e-05
4.70151e-05
4.49507e-05
4.3788e-05
4.33566e-05
4.35002e-05
4.40769e-05
4.49704e-05
4.60966e-05
4.73967e-05
4.8828e-05
5.03578e-05
5.19584e-05
5.36043e-05
5.52703e-05
5.69317e-05
5.85648e-05
6.01485e-05
6.16646e-05
6.30983e-05
6.44384e-05
6.56764e-05
6.68065e-05
6.78242e-05
6.87267e-05
6.95116e-05
7.01771e-05
7.07221e-05
7.11462e-05
7.145e-05
7.16358e-05
7.17075e-05
7.16618e-05
7.14917e-05
7.13573e-05
7.1051e-05
7.06828e-05
7.02812e-05
6.98601e-05
6.94355e-05
6.90242e-05
6.86419e-05
6.8302e-05
6.80135e-05
6.77807e-05
6.76008e-05
6.74637e-05
6.73498e-05
6.72293e-05
6.70611e-05
6.67924e-05
6.63593e-05
6.56894e-05
6.47074e-05
6.33471e-05
6.15697e-05
5.93893e-05
5.68976e-05
5.42727e-05
5.17507e-05
4.95472e-05