/*--------------------------------*- C++ -*----------------------------------*\
  =========                 |
  \\      /  F ield         | OpenFOAM: The Open Source CFD Toolbox
   \\    /   O peration     | Website:  https://openfoam.org
    \\  /    A nd           | Version:  13
     \\/     M anipulation  |
\*---------------------------------------------------------------------------*/
FoamFile
{
    format      ascii;
    class       volScalarField;
    location    "10";
    object      p;
}
// * * * * * * * * * * * * * * * * * * * * * * * * * * * * * * * * * * * * * //

dimensions      [0 2 -2 0 0 0 0];

internalField   nonuniform List<scalar> 
6400
(
1.47707e-08
2.02948e-05
2.93392e-05
1.3624e-05
-3.21123e-05
-0.000102523
-0.000187655
-0.000278152
-0.000367652
-0.000453025
-0.000535098
-0.000618254
-0.000707279
-0.000807481
-0.000924126
-0.00106135
-0.00122211
-0.00140802
-0.00162035
-0.00185974
-0.00212659
-0.00242243
-0.00275031
-0.0031149
-0.00352278
-0.00397836
-0.00447616
-0.00500656
-0.0055455
-0.00605891
-0.00654268
-0.0070049
-0.0074439
-0.00785698
-0.00823853
-0.00857945
-0.00886785
-0.00909007
-0.0092318
-0.00927884
-0.00921775
-0.0090372
-0.00872924
-0.00829024
-0.0077184
-0.00700454
-0.00613995
-0.00514618
-0.00404032
-0.0028295
-0.00153528
-0.000179694
0.00120723
0.00259191
0.00393244
0.00518314
0.00629995
0.00724122
0.00796807
0.00845048
0.0086717
0.00863152
0.00834559
0.00783574
0.00716649
0.00638888
0.00556896
0.0047695
0.00404642
0.00342883
0.00295062
0.00261978
0.0024057
0.00228378
0.00223237
0.00222845
0.00225305
0.00229109
0.00233204
0.00235968
-1.52921e-05
5.40243e-06
9.67047e-06
-1.1149e-05
-5.98185e-05
-0.00013018
-0.000211254
-0.000294327
-0.000374384
-0.000450155
-0.000523848
-0.000599686
-0.000682628
-0.000777491
-0.000888219
-0.00101842
-0.00117138
-0.00134958
-0.00155355
-0.00178344
-0.00203815
-0.00231846
-0.00262783
-0.00296869
-0.00334426
-0.00376217
-0.00422978
-0.00474501
-0.00529304
-0.00584877
-0.00638466
-0.00689216
-0.00737341
-0.00782532
-0.00824196
-0.00861422
-0.0089305
-0.00917777
-0.00934256
-0.00941197
-0.00937373
-0.00921766
-0.00893612
-0.0085236
-0.00797552
-0.00728812
-0.00646821
-0.00552389
-0.00445794
-0.0032896
-0.002037
-0.000724357
0.000619507
0.0019601
0.00325919
0.0044761
0.00556751
0.006492
0.00721427
0.00770507
0.00794724
0.00793949
0.0076964
0.00724633
0.00663674
0.00592419
0.00517003
0.0044333
0.00376676
0.00321111
0.00278248
0.00248752
0.00231155
0.00223115
0.00222227
0.0022555
0.00230033
0.00233994
0.00237295
0.00239898
-3.17358e-05
-8.82593e-06
-1.04162e-05
-4.06541e-05
-9.75079e-05
-0.000170444
-0.000247444
-0.000320208
-0.000386152
-0.000447067
-0.000506849
-0.000570624
-0.000643523
-0.000729334
-0.000830572
-0.000949072
-0.0010864
-0.00124482
-0.00142658
-0.00163451
-0.00187229
-0.00214304
-0.00245128
-0.00280207
-0.00319964
-0.00364658
-0.00414329
-0.00468541
-0.00526154
-0.00585369
-0.00644181
-0.00701018
-0.00754972
-0.00805391
-0.00851555
-0.00892525
-0.00927245
-0.00954582
-0.00973334
-0.00982334
-0.00980548
-0.0096708
-0.00941229
-0.009025
-0.00850594
-0.00785349
-0.00706673
-0.00615802
-0.0051339
-0.00400836
-0.00279886
-0.00152793
-0.00022294
0.00108391
0.0023565
0.003556
0.00464024
0.00556826
0.00630529
0.00682323
0.00710385
0.00714382
0.0069568
0.0065708
0.00602963
0.00538669
0.00469924
0.0040276
0.00341997
0.00291222
0.0025283
0.00227949
0.00215273
0.00211773
0.00214585
0.00221083
0.00228196
0.00234092
0.00238901
0.00242674
-4.05241e-05
-1.87469e-05
-2.80997e-05
-6.98365e-05
-0.000136999
-0.00021306
-0.000286212
-0.000349849
-0.000402692
-0.000447194
-0.00048975
-0.000537259
-0.000595333
-0.000667719
-0.000756085
-0.000861213
-0.000984526
-0.00112891
-0.00129833
-0.0014985
-0.00173669
-0.0020209
-0.00235845
-0.00275198
-0.00320379
-0.00371506
-0.00428156
-0.00489239
-0.00553151
-0.00618201
-0.00682725
-0.00745192
-0.00804381
-0.00859376
-0.0090931
-0.00953241
-0.00990243
-0.0101931
-0.0103941
-0.0104953
-0.0104881
-0.0103645
-0.0101181
-0.00974501
-0.00924329
-0.00861151
-0.00785149
-0.00696921
-0.00597258
-0.0048744
-0.003691
-0.00244328
-0.00115627
0.000140601
0.00141283
0.00262145
0.00372592
0.00468582
0.00546434
0.00603255
0.00637019
0.00647006
0.0063435
0.00601836
0.00553534
0.00494495
0.00430497
0.0036737
0.00310158
0.00262518
0.0022678
0.00203918
0.00193093
0.00192614
0.00199298
0.00209248
0.00219591
0.00228562
0.00235809
0.00240853
-3.47218e-05
-2.07762e-05
-4.05573e-05
-9.40991e-05
-0.000170948
-0.00024983
-0.000319124
-0.000373797
-0.000413953
-0.000444173
-0.000471898
-0.000504893
-0.00054921
-0.000608527
-0.000684966
-0.000780361
-0.000897917
-0.00104349
-0.00122433
-0.00144874
-0.00172666
-0.00206381
-0.00246494
-0.00293438
-0.00347136
-0.00406975
-0.00471908
-0.00540456
-0.0061085
-0.00681443
-0.00750686
-0.00817315
-0.0088025
-0.00938438
-0.00990947
-0.0103689
-0.0107536
-0.0110547
-0.0112636
-0.0113719
-0.0113719
-0.0112572
-0.0110216
-0.0106611
-0.0101761
-0.00956565
-0.00883035
-0.00797368
-0.00700281
-0.00592982
-0.00476997
-0.00354191
-0.00226718
-0.000971449
0.000311828
0.00154256
0.00268239
0.00369257
0.00453503
0.0051784
0.00559959
0.00578666
0.00574474
0.00549738
0.00508584
0.00455832
0.00396999
0.00337853
0.00283598
0.00238132
0.00204081
0.00182353
0.00172482
0.0017279
0.00180636
0.00192706
0.00205682
0.0021749
0.00227066
0.00233072
-5.35449e-06
-5.88272e-06
-3.83969e-05
-0.000106061
-0.000191137
-0.000271022
-0.000336116
-0.000382903
-0.000412824
-0.000432111
-0.000449394
-0.000472833
-0.000508635
-0.000561179
-0.000634313
-0.00073256
-0.000862599
-0.00103341
-0.00125605
-0.00153776
-0.00188624
-0.00230882
-0.00280705
-0.00337774
-0.00401194
-0.00469746
-0.00542203
-0.00617149
-0.00693016
-0.00768264
-0.00841458
-0.0091143
-0.00977138
-0.0103761
-0.0109198
-0.0113938
-0.011789
-0.0120977
-0.0123131
-0.0124283
-0.0124366
-0.0123334
-0.0121133
-0.0117714
-0.0113134
-0.0107338
-0.0100328
-0.00921295
-0.00827969
-0.00724375
-0.00611791
-0.00491695
-0.0036584
-0.00236505
-0.00107206
0.000182214
0.00136452
0.00243869
0.00336319
0.00410454
0.00463799
0.0049455
0.00502643
0.00489449
0.00458654
0.00415137
0.00364143
0.00311104
0.00261259
0.0021883
0.00186647
0.00165937
0.00156445
0.00156741
0.00164443
0.00176699
0.00190447
0.00203384
0.00213996
0.00220345
5.81303e-05
3.95933e-05
-9.60953e-06
-9.43703e-05
-0.000184698
-0.000264855
-0.000326622
-0.000367859
-0.000392018
-0.000406558
-0.000420626
-0.00044267
-0.000479554
-0.000537447
-0.000623279
-0.000744782
-0.000912443
-0.00113823
-0.00143056
-0.00179828
-0.00224802
-0.0027808
-0.00338791
-0.00405855
-0.0047826
-0.005548
-0.00634091
-0.00714722
-0.00795298
-0.00874464
-0.00950945
-0.0102365
-0.0109157
-0.0115384
-0.0120964
-0.012581
-0.012983
-0.0132969
-0.0135178
-0.0136406
-0.0136616
-0.0135756
-0.0133793
-0.0130706
-0.0126436
-0.0120992
-0.0114397
-0.0106684
-0.00979026
-0.00880992
-0.00773514
-0.00657751
-0.00535435
-0.00408936
-0.00280722
-0.00153559
-0.000305884
0.00084213
0.00186175
0.00272299
0.00339745
0.00385932
0.00410358
0.00413399
0.0039768
0.00367563
0.00328078
0.00284441
0.00241682
0.00204167
0.00175002
0.00155762
0.00146527
0.00146366
0.00153012
0.0016413
0.00176943
0.00189166
0.00199278
0.00205135
0.000166052
0.000126571
5.5066e-05
-4.36586e-05
-0.000139457
-0.000221037
-0.000281669
-0.00032185
-0.000346703
-0.000364765
-0.000385596
-0.000418085
-0.000470479
-0.00055182
-0.000672113
-0.000842952
-0.00107638
-0.00138418
-0.00177491
-0.00225492
-0.0028208
-0.0034642
-0.00417466
-0.00494043
-0.00574853
-0.00658599
-0.00743939
-0.00829566
-0.00914213
-0.0099667
-0.0107581
-0.0115063
-0.012202
-0.0128361
-0.0134003
-0.0138867
-0.0142916
-0.0146114
-0.0148412
-0.0149764
-0.0150131
-0.0149457
-0.0147719
-0.01449
-0.0140976
-0.0135938
-0.0129817
-0.0122652
-0.0114483
-0.0105329
-0.00952395
-0.00843154
-0.00727069
-0.00605932
-0.0048138
-0.00355185
-0.00230576
-0.00111126
1.26148e-06
0.00100016
0.00183446
0.00248042
0.00292589
0.00316381
0.00320759
0.00308893
0.00285287
0.0025491
0.00222515
0.00192498
0.0016819
0.00151528
0.00143036
0.00142063
0.00147059
0.00156203
0.00166788
0.00177008
0.00185157
0.00189557
0.000323877
0.000263301
0.00016667
5.395e-05
-4.84892e-05
-0.000132965
-0.00019651
-0.000241715
-0.000275574
-0.000307613
-0.000347871
-0.00040613
-0.000492722
-0.000619784
-0.000800694
-0.00104767
-0.00137364
-0.00179004
-0.00229983
-0.00289873
-0.00357957
-0.00433089
-0.00513954
-0.00599207
-0.00687526
-0.00777613
-0.00868213
-0.00958108
-0.0104613
-0.0113118
-0.0121224
-0.0128837
-0.0135867
-0.0142228
-0.0147863
-0.0152746
-0.015687
-0.0160167
-0.0162576
-0.0164047
-0.0164528
-0.0164006
-0.0162471
-0.0159915
-0.0156315
-0.0151693
-0.0146056
-0.0139422
-0.0131817
-0.012329
-0.0113895
-0.010371
-0.00928449
-0.00814314
-0.00695881
-0.00574208
-0.00451518
-0.00330291
-0.00212721
-0.00103219
-4.87073e-05
0.000801222
0.00147011
0.00194942
0.00223781
0.00235135
0.00232107
0.00219217
0.00200839
0.00181203
0.00163978
0.00151461
0.00144615
0.00143252
0.00146424
0.00152711
0.00160278
0.00167593
0.0017267
0.00175161
0.000539266
0.000455125
0.000330636
0.000202554
9.07822e-05
5.60561e-08
-7.14638e-05
-0.000129266
-0.000182206
-0.000240741
-0.000315587
-0.000417795
-0.00056028
-0.00075801
-0.00102492
-0.00137336
-0.0018153
-0.00235498
-0.00298835
-0.00370703
-0.00449952
-0.00535143
-0.00624922
-0.00717917
-0.00812837
-0.00908414
-0.0100346
-0.0109682
-0.0118743
-0.0127427
-0.0135641
-0.0143304
-0.0150347
-0.0156725
-0.0162394
-0.016731
-0.0171418
-0.0174669
-0.0177035
-0.0178495
-0.0179033
-0.0178637
-0.0177297
-0.0175009
-0.0171755
-0.0167553
-0.0162413
-0.0156352
-0.0149389
-0.0141559
-0.0132906
-0.0123484
-0.0113359
-0.0102606
-0.00913167
-0.00796559
-0.00677945
-0.0055883
-0.00440465
-0.00325185
-0.00215107
-0.001144
-0.000260108
0.000476688
0.00103653
0.00142291
0.00164603
0.00173618
0.00173271
0.00167312
0.0015953
0.00152903
0.0014892
0.00147934
0.00149457
0.00152746
0.00156813
0.00160454
0.00162137
0.00162719
0.000814449
0.000700901
0.000547109
0.000398297
0.000274938
0.000173486
8.75231e-05
8.11861e-06
-7.55039e-05
-0.000174734
-0.000301047
-0.000467358
-0.000688726
-0.000980596
-0.00135622
-0.00182612
-0.00239595
-0.00306398
-0.00382114
-0.00465474
-0.00555081
-0.00649458
-0.00747227
-0.00847034
-0.00947615
-0.0104775
-0.0114629
-0.0124217
-0.0133442
-0.0142215
-0.0150458
-0.0158103
-0.0165097
-0.0171398
-0.0176966
-0.0181769
-0.0185769
-0.0188937
-0.0191254
-0.0192708
-0.0193291
-0.0192995
-0.0191817
-0.0189753
-0.0186802
-0.0182974
-0.0178282
-0.0172744
-0.016638
-0.0159217
-0.0151291
-0.0142642
-0.0133314
-0.0123351
-0.011281
-0.0101776
-0.00903455
-0.00786356
-0.00668534
-0.00551614
-0.00436458
-0.00324981
-0.00219359
-0.00123738
-0.000403772
0.000272374
0.000784993
0.00113871
0.00135811
0.00147418
0.00151992
0.00153066
0.00153177
0.00153382
0.00153869
0.001544
0.00154861
0.00154549
0.00152996
0.00151911
0.00113717
0.000993469
0.000803931
0.000631465
0.000493219
0.000376486
0.000268713
0.000157645
3.07303e-05
-0.000124184
-0.000319767
-0.000570223
-0.000891254
-0.00129708
-0.00179819
-0.00240045
-0.00310349
-0.00389925
-0.00477455
-0.00571509
-0.0067057
-0.00773172
-0.00877927
-0.00983501
-0.0108865
-0.0119221
-0.0129311
-0.0139038
-0.0148316
-0.0157073
-0.0165246
-0.0172781
-0.0179639
-0.0185786
-0.0191194
-0.0195842
-0.0199708
-0.0202775
-0.0205029
-0.0206462
-0.0207071
-0.0206851
-0.0205804
-0.0203932
-0.0201239
-0.0197735
-0.0193435
-0.0188356
-0.0182519
-0.0175949
-0.0168673
-0.0160725
-0.0152136
-0.0142939
-0.0133173
-0.0122879
-0.0112101
-0.0100891
-0.00893333
-0.00775355
-0.00656824
-0.00539416
-0.00423656
-0.00311497
-0.00205681
-0.00110494
-0.000294328
0.000354643
0.000838812
0.00117297
0.00138103
0.00149423
0.00154945
0.00157111
0.00157102
0.00155365
0.00152511
0.00148534
0.00144272
0.00141768
0.001493
0.00131738
0.00108732
0.000888256
0.00073129
0.000593312
0.000455475
0.000302105
0.000119124
-0.000106536
-0.00038798
-0.000740327
-0.00117794
-0.00171186
-0.00234827
-0.00308733
-0.00392209
-0.00483974
-0.0058252
-0.00686317
-0.00793813
-0.00903547
-0.0101413
-0.0112426
-0.0123273
-0.0133847
-0.014405
-0.0153802
-0.0163031
-0.017168
-0.0179703
-0.0187063
-0.0193731
-0.0199685
-0.0204908
-0.0209386
-0.0213105
-0.0216058
-0.0218236
-0.0219636
-0.0220255
-0.0220094
-0.0219157
-0.0217448
-0.0214976
-0.0211752
-0.0207791
-0.020311
-0.0197731
-0.0191675
-0.0184967
-0.0177634
-0.01697
-0.016119
-0.0152127
-0.0142536
-0.0132435
-0.0121844
-0.0110785
-0.00992815
-0.00873874
-0.00752059
-0.00629321
-0.00506737
-0.00385324
-0.00268058
-0.00159772
-0.000649077
0.000129289
0.000722206
0.00113615
0.00139091
0.00152194
0.00157283
0.00157173
0.00153621
0.00148015
0.00141114
0.00134866
0.00131424
0.00186338
0.00165295
0.00138046
0.00115005
0.000969751
0.000804116
0.000627697
0.000421589
0.000170393
-0.00013913
-0.000521089
-0.000989529
-0.00155563
-0.00222609
-0.00300107
-0.00387453
-0.00483449
-0.00586537
-0.00695099
-0.00807538
-0.00922294
-0.0103791
-0.0115303
-0.0126639
-0.0137689
-0.0148358
-0.0158564
-0.0168242
-0.017734
-0.0185816
-0.0193639
-0.0200785
-0.0207237
-0.0212984
-0.0218013
-0.0222318
-0.0225891
-0.022873
-0.0230831
-0.0232193
-0.0232816
-0.0232704
-0.023186
-0.0230293
-0.0228011
-0.0225028
-0.0221357
-0.0217018
-0.0212029
-0.0206413
-0.0200191
-0.0193387
-0.018602
-0.0178108
-0.0169667
-0.0160706
-0.015123
-0.014124
-0.0130728
-0.0119686
-0.0108103
-0.00959819
-0.00833595
-0.00703437
-0.00571757
-0.00439434
-0.00309601
-0.00187966
-0.000803654
7.84173e-05
0.000739354
0.00118193
0.00142758
0.00152556
0.00153132
0.00148079
0.00140201
0.0013109
0.00123564
0.00119581
0.00222301
0.00197646
0.00165757
0.00139429
0.00118652
0.000986878
0.000763665
0.000495552
0.000166125
-0.000238828
-0.000732981
-0.00132718
-0.00202852
-0.00283711
-0.00374742
-0.00474818
-0.00582377
-0.00695699
-0.00813091
-0.00932915
-0.0105362
-0.0117376
-0.0129205
-0.0140735
-0.0151868
-0.0162525
-0.0172644
-0.0182177
-0.0191088
-0.0199351
-0.0206947
-0.0213866
-0.0220097
-0.0225635
-0.0230477
-0.0234618
-0.0238056
-0.024079
-0.0242822
-0.0244151
-0.0244778
-0.0244708
-0.0243948
-0.0242505
-0.0240388
-0.0237612
-0.023419
-0.0230141
-0.0225484
-0.0220238
-0.0214426
-0.0208067
-0.0201179
-0.0193777
-0.018587
-0.0177461
-0.0168546
-0.0159109
-0.0149128
-0.013857
-0.0127398
-0.0115573
-0.0103061
-0.00898582
-0.0076043
-0.00617991
-0.00473574
-0.00330855
-0.00196834
-0.000791022
0.000152073
0.000826391
0.00123668
0.00141866
0.00144512
0.0013855
0.00128647
0.00117682
0.00109371
0.00105003
0.00254411
0.00226199
0.00189658
0.00159825
0.0013587
0.00111867
0.000841562
0.000503974
8.79965e-05
-0.000421546
-0.00103509
-0.00175962
-0.00259591
-0.0035384
-0.0045763
-0.00569399
-0.00687338
-0.00809623
-0.00934509
-0.0106034
-0.0118559
-0.013089
-0.0142907
-0.0154513
-0.0165627
-0.017619
-0.0186157
-0.0195498
-0.0204191
-0.0212224
-0.0219589
-0.0226282
-0.0232301
-0.0237645
-0.0242314
-0.0246308
-0.0249628
-0.0252273
-0.0254246
-0.0255549
-0.0256184
-0.0256156
-0.0255471
-0.0254138
-0.0252167
-0.024957
-0.0246362
-0.024256
-0.0238182
-0.0233248
-0.0227777
-0.0221789
-0.0215299
-0.0208322
-0.0200863
-0.0192924
-0.0184493
-0.0175551
-0.0166063
-0.0155984
-0.0145256
-0.0133813
-0.0121588
-0.010853
-0.00946175
-0.00798933
-0.006452
-0.00488389
-0.00333683
-0.00189542
-0.000658261
0.000290498
0.000914287
0.00123152
0.00131049
0.00125268
0.00113508
0.00100801
0.000917727
0.000867636
0.00280692
0.00248539
0.00207416
0.00173913
0.0014635
0.00117773
0.000841746
0.000429335
-8.03081e-05
-0.000699428
-0.00143448
-0.00228757
-0.0032534
-0.00432137
-0.00547576
-0.00669763
-0.00796727
-0.0092657
-0.0105752
-0.0118793
-0.0131635
-0.0144154
-0.0156246
-0.016783
-0.0178849
-0.0189259
-0.0199034
-0.0208159
-0.0216624
-0.0224427
-0.0231568
-0.023805
-0.0243874
-0.0249044
-0.0253561
-0.0257429
-0.0260649
-0.0263221
-0.0265149
-0.0266435
-0.0267083
-0.0267097
-0.0266483
-0.026525
-0.0263407
-0.0260967
-0.0257943
-0.0254352
-0.025021
-0.0245537
-0.024035
-0.0234669
-0.0228507
-0.0221879
-0.021479
-0.020724
-0.0199217
-0.01907
-0.0181651
-0.0172018
-0.0161734
-0.0150717
-0.0138876
-0.0126121
-0.0112379
-0.00976204
-0.00818904
-0.00653873
-0.00485402
-0.00320696
-0.00170293
-0.000461498
0.000425024
0.000935144
0.00111643
0.00108155
0.000952632
0.000807217
0.000703652
0.00064134
0.00297488
0.00262188
0.00216829
0.00179617
0.0014812
0.00114665
0.000748226
0.000255849
-0.000349725
-0.00107794
-0.00193216
-0.00290756
-0.00399404
-0.00517587
-0.00643327
-0.00774495
-0.00909011
-0.0104493
-0.0118048
-0.0131409
-0.0144441
-0.0157035
-0.0169107
-0.0180597
-0.0191466
-0.0201688
-0.0211251
-0.0220152
-0.0228393
-0.0235978
-0.0242912
-0.0249203
-0.0254855
-0.0259874
-0.0264263
-0.0268025
-0.0271163
-0.0273679
-0.0275575
-0.0276853
-0.0277519
-0.0277576
-0.0277029
-0.0275888
-0.0274161
-0.0271859
-0.0268995
-0.0265585
-0.0261644
-0.025719
-0.025224
-0.0246812
-0.024092
-0.0234577
-0.0227789
-0.0220558
-0.0212872
-0.0204711
-0.0196038
-0.0186803
-0.0176934
-0.0166345
-0.0154931
-0.0142581
-0.0129182
-0.0114647
-0.00989447
-0.00821506
-0.00645412
-0.00467008
-0.00295699
-0.00144095
-0.000261956
0.000493502
0.000838162
0.000868279
0.000739273
0.000574782
0.000446893
0.000367213
0.00303557
0.00265406
0.00216169
0.0017528
0.00139712
0.00101205
0.000548498
-2.48653e-05
-0.000724936
-0.001559
-0.00252512
-0.00361353
-0.00480878
-0.00609054
-0.00743599
-0.00882219
-0.0102276
-0.0116328
-0.0130203
-0.0143755
-0.0156864
-0.0169442
-0.0181423
-0.0192767
-0.0203452
-0.0213468
-0.0222815
-0.0231498
-0.0239527
-0.0246912
-0.0253661
-0.0259784
-0.0265288
-0.0270178
-0.027446
-0.0278136
-0.028121
-0.0283683
-0.0285558
-0.0286838
-0.0287526
-0.0287626
-0.0287145
-0.0286088
-0.0284465
-0.0282286
-0.0279563
-0.027631
-0.0272541
-0.0268274
-0.0263523
-0.0258305
-0.0252635
-0.0246525
-0.0239982
-0.0233009
-0.0225597
-0.021773
-0.0209374
-0.0200481
-0.0190985
-0.0180798
-0.0169813
-0.0157908
-0.014495
-0.0130812
-0.0115401
-0.00986944
-0.00808237
-0.0062206
-0.00436566
-0.00262899
-0.00116274
-0.000116983
0.000447074
0.000593611
0.000490131
0.000307247
0.000142844
4.43763e-05
0.00297373
0.00256843
0.00204219
0.00159825
0.00120179
0.000764647
0.000235252
-0.000416052
-0.00120606
-0.00213908
-0.00320758
-0.00439699
-0.00568693
-0.00705335
-0.00847114
-0.00991631
-0.011367
-0.0128039
-0.0142105
-0.0155736
-0.0168832
-0.0181321
-0.019316
-0.0204325
-0.0214809
-0.0224614
-0.0233749
-0.0242228
-0.0250063
-0.0257268
-0.0263855
-0.0269833
-0.027521
-0.0279994
-0.0284188
-0.0287795
-0.029082
-0.0293263
-0.0295127
-0.0296414
-0.0297128
-0.0297273
-0.0296853
-0.0295876
-0.0294348
-0.029228
-0.0289682
-0.0286566
-0.0282947
-0.0278839
-0.0274257
-0.0269217
-0.0263731
-0.0257813
-0.025147
-0.0244706
-0.0237516
-0.0229888
-0.0221793
-0.0213191
-0.0204019
-0.0194197
-0.018362
-0.0172164
-0.0159685
-0.0146036
-0.0131081
-0.011473
-0.00969838
-0.00780724
-0.00586765
-0.00397666
-0.00226865
-0.000926233
-9.07748e-05
0.000235427
0.000194817
-4.11773e-06
-0.000212521
-0.000329263
0.00278045
0.00235704
0.00180291
0.00132668
0.000889654
0.000401102
-0.000190861
-0.000915755
-0.0017894
-0.00281164
-0.00397075
-0.0052473
-0.00661668
-0.00805191
-0.00952631
-0.0110152
-0.0124969
-0.0139525
-0.015367
-0.0167287
-0.0180296
-0.0192645
-0.0204308
-0.0215275
-0.0225553
-0.0235151
-0.0244087
-0.0252377
-0.0260038
-0.0267085
-0.027353
-0.0279385
-0.0284656
-0.0289351
-0.0293474
-0.0297028
-0.0300015
-0.0302438
-0.0304299
-0.0305599
-0.0306341
-0.030653
-0.030617
-0.0305266
-0.0303826
-0.0301858
-0.0299372
-0.0296379
-0.0292891
-0.0288922
-0.0284486
-0.0279596
-0.0274266
-0.0268508
-0.026233
-0.0255737
-0.0248728
-0.0241294
-0.0233414
-0.0225053
-0.0216159
-0.0206658
-0.0196455
-0.0185429
-0.0173435
-0.0160313
-0.0145905
-0.0130076
-0.0112739
-0.00939298
-0.00740891
-0.00542791
-0.00354513
-0.00193283
-0.000795997
-0.000236197
-0.000169651
-0.000367833
-0.000620265
-0.000753543
0.00245333
0.00201798
0.00144258
0.000937432
0.000461509
-7.60092e-05
-0.000725927
-0.00151792
-0.0024663
-0.00356681
-0.00480341
-0.00615236
-0.00758558
-0.00907396
-0.0105898
-0.0121082
-0.0136077
-0.0150708
-0.0164837
-0.0178366
-0.0191234
-0.0203407
-0.0214873
-0.0225636
-0.0235709
-0.024511
-0.0253861
-0.026198
-0.0269486
-0.0276395
-0.0282719
-0.0288468
-0.0293651
-0.0298273
-0.0302339
-0.0305851
-0.0308811
-0.0311221
-0.0313084
-0.03144
-0.0315173
-0.0315405
-0.0315102
-0.0314267
-0.0312908
-0.0311031
-0.0308646
-0.0305763
-0.0302393
-0.0298547
-0.0294238
-0.0289479
-0.0284282
-0.027866
-0.027262
-0.026617
-0.0259311
-0.0252037
-0.0244333
-0.0236172
-0.0227512
-0.021829
-0.0208421
-0.0197792
-0.0186265
-0.0173677
-0.0159852
-0.0144629
-0.0127871
-0.0109489
-0.00896191
-0.00692673
-0.0049378
-0.00311823
-0.00169272
-0.000855115
-0.000620566
-0.00079172
-0.001078
-0.00122756
0.00199576
0.0015549
0.000964947
0.000434675
-7.72216e-05
-0.00065915
-0.00136125
-0.00221308
-0.00322598
-0.00439258
-0.00569282
-0.00709923
-0.00858105
-0.0101076
-0.0116508
-0.0131857
-0.0146918
-0.0161527
-0.0175563
-0.0188949
-0.0201638
-0.0213612
-0.0224871
-0.0235429
-0.0245305
-0.0254522
-0.0263103
-0.0271069
-0.0278438
-0.0285226
-0.0291445
-0.0297105
-0.0302214
-0.0306776
-0.0310795
-0.0314274
-0.0317214
-0.0319618
-0.0321487
-0.0322822
-0.0323625
-0.03239
-0.032365
-0.032288
-0.0321595
-0.0319803
-0.031751
-0.0314726
-0.0311461
-0.0307725
-0.030353
-0.0298887
-0.0293808
-0.0288304
-0.0282384
-0.0276055
-0.0269322
-0.0262181
-0.0254625
-0.0246632
-0.023817
-0.0229187
-0.021961
-0.0209341
-0.019825
-0.0186179
-0.0172947
-0.0158369
-0.0142282
-0.0124537
-0.0105069
-0.00843621
-0.00639446
-0.00443987
-0.00276655
-0.00163654
-0.00118455
-0.00129279
-0.00158537
-0.00175627
0.00141618
0.000976261
0.00037799
-0.000172779
-0.000716536
-0.00133776
-0.00208551
-0.00298839
-0.00405516
-0.00527533
-0.00662537
-0.00807477
-0.00959077
-0.0111418
-0.0126995
-0.0142397
-0.0157427
-0.0171936
-0.0185822
-0.0199023
-0.0211507
-0.022327
-0.023432
-0.0244678
-0.0254368
-0.0263414
-0.027184
-0.0279668
-0.0286915
-0.0293598
-0.0299726
-0.030531
-0.0310356
-0.0314868
-0.0318849
-0.0322302
-0.0325229
-0.032763
-0.0329507
-0.0330862
-0.0331695
-0.0332011
-0.0331812
-0.0331102
-0.0329887
-0.0328172
-0.0325964
-0.0323271
-0.0320102
-0.0316466
-0.0312374
-0.0307835
-0.0302861
-0.0297462
-0.0291648
-0.0285426
-0.0278802
-0.0271777
-0.0264346
-0.0256496
-0.0248202
-0.0239425
-0.0230104
-0.0220154
-0.0209462
-0.0197878
-0.0185224
-0.0171301
-0.0155929
-0.0138938
-0.0120133
-0.00995086
-0.00786888
-0.00584605
-0.00399138
-0.00258951
-0.00188427
-0.00187063
-0.00214607
-0.00234977
0.000727135
0.000294547
-0.000305747
-0.000872142
-0.00144275
-0.00209778
-0.00288453
-0.00382948
-0.00493925
-0.00620062
-0.00758716
-0.00906602
-0.0106031
-0.0121663
-0.0137275
-0.0152634
-0.0167555
-0.0181905
-0.0195597
-0.0208585
-0.022085
-0.0232396
-0.024324
-0.0253406
-0.0262919
-0.0271807
-0.0280093
-0.0287797
-0.0294937
-0.0301526
-0.0307576
-0.0313093
-0.0318085
-0.0322554
-0.0326505
-0.0329937
-0.0332854
-0.0335255
-0.0337142
-0.0338516
-0.033938
-0.0339734
-0.0339583
-0.0338929
-0.0337778
-0.0336135
-0.0334005
-0.0331396
-0.0328315
-0.0324771
-0.0320773
-0.031633
-0.0311452
-0.0306149
-0.0300431
-0.0294305
-0.0287779
-0.0280856
-0.0273536
-0.026581
-0.0257663
-0.0249065
-0.0239968
-0.0230302
-0.0219968
-0.0208833
-0.0196728
-0.018345
-0.0168798
-0.0152589
-0.0134603
-0.0114649
-0.00934352
-0.00729272
-0.00533303
-0.00370826
-0.00273912
-0.00253971
-0.00277488
-0.00302416
-5.41608e-05
-0.000475253
-0.001071
-0.00164813
-0.0022411
-0.00292447
-0.00374273
-0.00472077
-0.00586298
-0.0071538
-0.00856453
-0.0100606
-0.0116071
-0.0131719
-0.0147274
-0.0162512
-0.0177262
-0.0191408
-0.0204877
-0.0217635
-0.0229674
-0.0241004
-0.0251647
-0.026163
-0.0270979
-0.0279721
-0.0287878
-0.029547
-0.0302513
-0.030902
-0.0315
-0.0320459
-0.0325404
-0.0329837
-0.0333761
-0.0337177
-0.0340086
-0.0342488
-0.0344386
-0.034578
-0.0346671
-0.0347062
-0.0346955
-0.0346354
-0.0345262
-0.0343685
-0.0341628
-0.0339096
-0.0336097
-0.0332638
-0.0328727
-0.0324373
-0.0319585
-0.0314372
-0.0308742
-0.0302706
-0.0296271
-0.0289442
-0.0282222
-0.0274608
-0.0266592
-0.0258152
-0.0249252
-0.0239838
-0.0229827
-0.0219102
-0.0207508
-0.0194851
-0.0180913
-0.0165501
-0.014841
-0.0129339
-0.0108193
-0.00874944
-0.00674945
-0.00496749
-0.00375404
-0.00333528
-0.00348993
-0.00380071
-0.000908556
-0.00131562
-0.00190177
-0.00248525
-0.00309567
-0.00380148
-0.00464394
-0.00564635
-0.00681104
-0.00812053
-0.00954442
-0.011047
-0.012593
-0.0141505
-0.0156927
-0.0171984
-0.018652
-0.020043
-0.0213657
-0.0226176
-0.0237987
-0.0249106
-0.0259556
-0.0269366
-0.0278562
-0.0287168
-0.0295208
-0.0302698
-0.0309654
-0.0316086
-0.0322003
-0.0327411
-0.0332314
-0.0336715
-0.0340615
-0.0344017
-0.034692
-0.0349324
-0.0351232
-0.0352644
-0.0353562
-0.0353986
-0.0353921
-0.0353368
-0.0352332
-0.0350816
-0.0348826
-0.0346366
-0.0343443
-0.0340064
-0.0336235
-0.0331964
-0.032726
-0.0322132
-0.0316588
-0.0310637
-0.0304287
-0.0297547
-0.029042
-0.0282911
-0.0275013
-0.0266716
-0.0257994
-0.0248806
-0.0239084
-0.022873
-0.0217606
-0.0205532
-0.019229
-0.0177662
-0.0161442
-0.0143323
-0.0123033
-0.010204
-0.00820333
-0.00633811
-0.0049248
-0.00427814
-0.00430884
-0.00470701
-0.0018176
-0.00220828
-0.00278084
-0.00336634
-0.00398924
-0.00471166
-0.00557159
-0.00659039
-0.00776856
-0.00908717
-0.0105146
-0.0120147
-0.0135518
-0.015095
-0.0166181
-0.0181013
-0.0195302
-0.0208957
-0.0221932
-0.023421
-0.0245797
-0.0256711
-0.0266977
-0.0276624
-0.0285676
-0.0294158
-0.0302089
-0.0309486
-0.0316361
-0.0322726
-0.0328586
-0.0333947
-0.0338813
-0.0343184
-0.0347064
-0.0350453
-0.035335
-0.0355757
-0.0357675
-0.0359104
-0.0360045
-0.0360501
-0.0360474
-0.0359966
-0.035898
-0.0357521
-0.0355592
-0.03532
-0.0350348
-0.0347043
-0.0343291
-0.03391
-0.0334476
-0.0329429
-0.0323966
-0.0318097
-0.0311831
-0.0305176
-0.029814
-0.0290728
-0.0282942
-0.0274777
-0.0266217
-0.0257233
-0.0247773
-0.0237756
-0.0227064
-0.0215535
-0.0202959
-0.01891
-0.0173743
-0.015663
-0.0137442
-0.011645
-0.00966781
-0.00778877
-0.00623685
-0.00536977
-0.0052578
-0.0057629
-0.00276256
-0.00313489
-0.00369042
-0.00427362
-0.00490438
-0.0056382
-0.00650955
-0.00753766
-0.00872147
-0.010041
-0.0114641
-0.012954
-0.0144759
-0.0159992
-0.017499
-0.0189566
-0.0203589
-0.021698
-0.02297
-0.024174
-0.0253108
-0.0263826
-0.0273918
-0.028341
-0.0292329
-0.0300694
-0.0308525
-0.0315836
-0.0322638
-0.032894
-0.0334748
-0.0340066
-0.0344897
-0.0349242
-0.0353102
-0.0356479
-0.0359371
-0.036178
-0.0363707
-0.0365151
-0.0366114
-0.0366599
-0.0366606
-0.0366138
-0.03652
-0.0363793
-0.0361921
-0.0359591
-0.0356805
-0.035357
-0.0349891
-0.0345775
-0.0341228
-0.0336259
-0.0330876
-0.0325087
-0.0318902
-0.0312331
-0.0305383
-0.0298066
-0.0290387
-0.0282346
-0.0273936
-0.0265139
-0.0255917
-0.0246207
-0.023591
-0.0224882
-0.0212931
-0.0199825
-0.0185348
-0.0169287
-0.0151226
-0.0130752
-0.0111037
-0.0092664
-0.0076456
-0.00659637
-0.00636318
-0.00695669
-0.00372527
-0.00407712
-0.00461271
-0.00519019
-0.00582472
-0.0065652
-0.00744263
-0.00847397
-0.0096568
-0.0109705
-0.0123827
-0.0138568
-0.0153585
-0.016858
-0.0183316
-0.0197617
-0.0211364
-0.0224488
-0.0236956
-0.0248764
-0.0259923
-0.0270454
-0.0280381
-0.028973
-0.0298523
-0.030678
-0.0314518
-0.0321748
-0.0328482
-0.0334726
-0.0340486
-0.0345764
-0.0350562
-0.0354883
-0.0358725
-0.036209
-0.0364978
-0.0367388
-0.0369322
-0.037078
-0.0371763
-0.0372272
-0.0372311
-0.0371881
-0.0370984
-0.0369625
-0.0367806
-0.0365533
-0.0362809
-0.0359639
-0.0356028
-0.0351984
-0.0347511
-0.0342617
-0.0337311
-0.0331601
-0.0325496
-0.0319008
-0.0312147
-0.0304924
-0.0297348
-0.0289426
-0.0281157
-0.0272534
-0.0263531
-0.02541
-0.0244163
-0.0233596
-0.0222226
-0.0209833
-0.0196185
-0.0181072
-0.0164147
-0.0144995
-0.0125165
-0.0107292
-0.00909752
-0.00792608
-0.00761986
-0.00825736
-0.00468796
-0.00501756
-0.00553087
-0.00609993
-0.00673478
-0.00747787
-0.00835682
-0.00938634
-0.0105628
-0.0118654
-0.0132616
-0.0147155
-0.0161935
-0.0176667
-0.0191124
-0.0205142
-0.0218612
-0.0231473
-0.0243697
-0.0255282
-0.0266242
-0.0276596
-0.0286368
-0.0295582
-0.0304259
-0.0312415
-0.0320066
-0.0327222
-0.0333892
-0.0340083
-0.0345797
-0.0351037
-0.0355805
-0.0360102
-0.0363927
-0.0367281
-0.0370163
-0.0372574
-0.0374514
-0.0375984
-0.0376984
-0.0377517
-0.0377583
-0.0377186
-0.0376328
-0.0375012
-0.0373242
-0.0371021
-0.0368354
-0.0365245
-0.0361699
-0.0357721
-0.0353319
-0.0348498
-0.0343266
-0.0337633
-0.0331608
-0.0325202
-0.0318427
-0.0311296
-0.0303822
-0.0296014
-0.028788
-0.0279419
-0.0270618
-0.0261445
-0.0251837
-0.0241692
-0.0230861
-0.0219137
-0.0206282
-0.0192077
-0.0176255
-0.0158477
-0.013894
-0.012155
-0.0105515
-0.00931658
-0.00896844
-0.00959188
-0.00563417
-0.00594025
-0.00642971
-0.00698808
-0.00762037
-0.00836273
-0.00923948
-0.0102632
-0.0114293
-0.0127164
-0.0140931
-0.0155239
-0.016976
-0.0184215
-0.0198387
-0.0212122
-0.022532
-0.0237926
-0.0249916
-0.026129
-0.0272062
-0.0282251
-0.0291879
-0.0300967
-0.0309535
-0.0317597
-0.0325167
-0.0332254
-0.0338865
-0.0345005
-0.0350676
-0.0355881
-0.0360621
-0.0364895
-0.0368704
-0.0372047
-0.0374924
-0.0377335
-0.037928
-0.0380759
-0.0381775
-0.0382327
-0.0382419
-0.0382051
-0.0381228
-0.0379951
-0.0378224
-0.0376051
-0.0373436
-0.0370382
-0.0366896
-0.0362982
-0.0358646
-0.0353895
-0.0348735
-0.0343177
-0.033723
-0.0330905
-0.0324216
-0.0317176
-0.0309801
-0.0302104
-0.0294099
-0.0285792
-0.0277179
-0.0268242
-0.0258934
-0.0249176
-0.0238836
-0.022773
-0.0215631
-0.0202325
-0.0187605
-0.0171045
-0.0152291
-0.0135143
-0.0119614
-0.0107098
-0.0103125
-0.0108411
-0.00654811
-0.00683084
-0.00729545
-0.00784136
-0.00846881
-0.00920777
-0.0100794
-0.0110943
-0.0122472
-0.0135159
-0.0148705
-0.0162765
-0.0177017
-0.0191191
-0.020508
-0.0218539
-0.0231475
-0.0243838
-0.0255607
-0.0266783
-0.027738
-0.0287415
-0.0296909
-0.030588
-0.0314347
-0.0322322
-0.0329817
-0.033684
-0.0343395
-0.0349488
-0.035512