/*--------------------------------*- C++ -*----------------------------------*\
  =========                 |
  \\      /  F ield         | OpenFOAM: The Open Source CFD Toolbox
   \\    /   O peration     | Website:  https://openfoam.org
    \\  /    A nd           | Version:  13
     \\/     M anipulation  |
\*---------------------------------------------------------------------------*/
FoamFile
{
    format      ascii;
    class       surfaceScalarField;
    location    "10";
    object      phi;
}
// * * * * * * * * * * * * * * * * * * * * * * * * * * * * * * * * * * * * * //

dimensions      [0 3 -1 0 0 0 0];

internalField   nonuniform List<scalar> 
12640
(
1.69349e-09
-1.69378e-09
1.56377e-08
-1.39442e-08
4.01478e-08
-2.45101e-08
6.83807e-08
-2.82329e-08
9.38022e-08
-2.54214e-08
1.12761e-07
-1.89593e-08
1.23899e-07
-1.1138e-08
1.28176e-07
-4.27607e-09
1.27958e-07
2.17512e-10
1.25648e-07
2.3101e-09
1.23262e-07
2.38626e-09
1.2209e-07
1.17215e-09
1.22527e-07
-4.37828e-10
1.24268e-07
-1.74088e-09
1.26439e-07
-2.17107e-09
1.28085e-07
-1.64579e-09
1.28307e-07
-2.21485e-10
1.26586e-07
1.72031e-09
1.22036e-07
4.55041e-09
1.13765e-07
8.27068e-09
1.01239e-07
1.25262e-08
8.38451e-08
1.73939e-08
6.11485e-08
2.26965e-08
3.29577e-08
2.81908e-08
-7.70221e-10
3.37279e-08
-4.02654e-08
3.94952e-08
-8.70297e-08
4.67643e-08
-1.43602e-07
5.65723e-08
-2.12946e-07
6.93436e-08
-2.97135e-07
8.41897e-08
-3.94916e-07
9.77807e-08
-5.02539e-07
1.07623e-07
-6.16379e-07
1.1384e-07
-7.32925e-07
1.16546e-07
-8.49139e-07
1.16213e-07
-9.6239e-07
1.13252e-07
-1.07055e-06
1.08157e-07
-1.17189e-06
1.01341e-07
-1.26507e-06
9.31784e-08
-1.34904e-06
8.39743e-08
-1.42296e-06
7.39163e-08
-1.48614e-06
6.31797e-08
-1.53797e-06
5.18317e-08
-1.57787e-06
3.99026e-08
-1.60523e-06
2.73584e-08
-1.62007e-06
1.48449e-08
-1.62234e-06
2.26463e-09
-1.61015e-06
-1.21847e-08
-1.58448e-06
-2.56734e-08
-1.54409e-06
-4.03878e-08
-1.48926e-06
-5.48369e-08
-1.41979e-06
-6.94652e-08
-1.3361e-06
-8.36917e-08
-1.23867e-06
-9.74326e-08
-1.12816e-06
-1.1051e-07
-1.00554e-06
-1.2262e-07
-8.72295e-07
-1.33242e-07
-7.30319e-07
-1.41976e-07
-5.82039e-07
-1.4828e-07
-4.30378e-07
-1.51661e-07
-2.78901e-07
-1.51478e-07
-1.3145e-07
-1.4745e-07
7.97508e-09
-1.39426e-07
1.36059e-07
-1.28084e-07
2.48005e-07
-1.11945e-07
3.40123e-07
-9.21187e-08
4.09278e-07
-6.91544e-08
4.53086e-07
-4.38082e-08
4.70355e-07
-1.72687e-08
4.59917e-07
1.04376e-08
4.24962e-07
3.49548e-08
3.68141e-07
5.68208e-08
2.95767e-07
7.23748e-08
2.1798e-07
7.77869e-08
1.45067e-07
7.29127e-08
8.43632e-08
6.07038e-08
3.95472e-08
4.4816e-08
1.11156e-08
2.84317e-08
-9.31668e-10
1.20472e-08
-9.31669e-10
1.07878e-08
-1.24816e-08
4.43091e-08
-4.74655e-08
9.06151e-08
-7.08161e-08
1.37746e-07
-7.53634e-08
1.77992e-07
-6.56679e-08
2.0755e-07
-4.85176e-08
2.25856e-07
-2.94436e-08
2.33953e-07
-1.23726e-08
2.33682e-07
4.8793e-10
2.27439e-07
8.55307e-09
2.17522e-07
1.23032e-08
2.05501e-07
1.31937e-08
1.91838e-07
1.32245e-08
1.75944e-07
1.41531e-08
1.56746e-07
1.70273e-08
1.331e-07
2.20005e-08
1.04074e-07
2.88046e-08
6.83716e-08
3.74223e-08
2.47469e-08
4.81751e-08
-2.83676e-08
6.13851e-08
-9.30688e-08
7.72274e-08
-1.71111e-07
9.5436e-08
-2.63674e-07
1.1526e-07
-3.7162e-07
1.36137e-07
-4.95502e-07
1.5761e-07
-6.34978e-07
1.78971e-07
-7.87354e-07
1.99141e-07
-9.48227e-07
2.17445e-07
-1.11199e-06
2.3311e-07
-1.27282e-06
2.45017e-07
-1.42735e-06
2.52309e-07
-1.57458e-06
2.54859e-07
-1.71312e-06
2.52378e-07
-1.84174e-06
2.45162e-07
-1.95946e-06
2.33933e-07
-2.06564e-06
2.19433e-07
-2.15982e-06
2.02336e-07
-2.24171e-06
1.83236e-07
-2.31111e-06
1.62573e-07
-2.36787e-06
1.40742e-07
-2.4119e-06
1.17939e-07
-2.44307e-06
9.43545e-08
-2.46131e-06
7.00732e-08
-2.46658e-06
4.5171e-08
-2.45888e-06
1.96565e-08
-2.43751e-06
-6.52168e-09
-2.40261e-06
-3.26409e-08
-2.35458e-06
-6.02125e-08
-2.29236e-06
-8.78972e-08
-2.21658e-06
-1.16162e-07
-2.12682e-06
-1.44595e-07
-2.02321e-06
-1.73077e-07
-1.90568e-06
-2.01228e-07
-1.77448e-06
-2.2863e-07
-1.63032e-06
-2.54669e-07
-1.47437e-06
-2.78575e-07
-1.30792e-06
-2.99683e-07
-1.13292e-06
-3.16976e-07
-9.51733e-07
-3.29471e-07
-7.67091e-07
-3.36303e-07
-5.82071e-07
-3.36498e-07
-4.00135e-07
-3.29387e-07
-2.24851e-07
-3.1471e-07
-6.04516e-08
-2.92483e-07
9.01676e-08
-2.62564e-07
2.23504e-07
-2.25455e-07
3.36254e-07
-1.81904e-07
4.25857e-07
-1.33411e-07
4.89933e-07
-8.13447e-08
5.2823e-07
-2.78597e-08
5.38903e-07
2.42817e-08
5.22818e-07
7.29063e-08
4.81984e-07
1.13209e-07
4.17185e-07
1.42585e-07
3.32356e-07
1.57742e-07
2.3798e-07
1.5508e-07
1.46532e-07
1.36264e-07
7.04421e-08
1.04522e-07
1.97578e-08
6.27316e-08
1.88261e-08
2.04331e-08
-3.29147e-08
6.76814e-08
-9.47138e-08
1.20549e-07
-1.23684e-07
1.66986e-07
-1.218e-07
2.02551e-07
-1.01232e-07
2.26317e-07
-7.22839e-08
2.39016e-07
-4.21431e-08
2.41653e-07
-1.50093e-08
2.35424e-07
6.71674e-09
2.2184e-07
2.21371e-08
2.02298e-07
3.18452e-08
1.77368e-07
3.81239e-08
1.46838e-07
4.37544e-08
1.09867e-07
5.1124e-08
6.52751e-08
6.16195e-08
1.16179e-08
7.56578e-08
-5.28596e-08
9.3282e-08
-1.29977e-07
1.1454e-07
-2.2128e-07
1.39479e-07
-3.27987e-07
1.68092e-07
-4.50538e-07
1.99778e-07
-5.88522e-07
2.3342e-07
-7.40839e-07
2.67577e-07
-9.04922e-07
3.00219e-07
-1.07721e-06
3.299e-07
-1.25336e-06
3.55117e-07
-1.42903e-06
3.7481e-07
-1.60017e-06
3.88591e-07
-1.76321e-06
3.96151e-07
-1.91563e-06
3.97436e-07
-2.05599e-06
3.92663e-07
-2.1834e-06
3.82274e-07
-2.29795e-06
3.66929e-07
-2.40008e-06
3.47293e-07
-2.49011e-06
3.23963e-07
-2.56841e-06
2.97724e-07
-2.63525e-06
2.69176e-07
-2.69088e-06
2.38869e-07
-2.73545e-06
2.07147e-07
-2.76908e-06
1.74372e-07
-2.79182e-06
1.40679e-07
-2.80365e-06
1.06177e-07
-2.80449e-06
7.09156e-08
-2.79422e-06
3.49047e-08
-2.77263e-06
-1.93185e-09
-2.73969e-06
-3.94642e-08
-2.69449e-06
-7.7846e-08
-2.63744e-06
-1.17254e-07
-2.56797e-06
-1.5737e-07
-2.48593e-06
-1.98207e-07
-2.39107e-06
-2.39455e-07
-2.28329e-06
-2.80854e-07
-2.16258e-06
-3.21937e-07
-2.02914e-06
-3.62066e-07
-1.88346e-06
-4.00351e-07
-1.7263e-06
-4.35735e-07
-1.55878e-06
-4.67209e-07
-1.38235e-06
-4.93406e-07
-1.19898e-06
-5.12835e-07
-1.01124e-06
-5.24044e-07
-8.22002e-07
-5.25739e-07
-6.34607e-07
-5.16781e-07
-4.5268e-07
-4.96637e-07
-2.7991e-07
-4.65253e-07
-1.1944e-07
-4.23035e-07
2.5701e-08
-3.70596e-07
1.52896e-07
-3.09099e-07
2.59698e-07
-2.40212e-07
3.44716e-07
-1.66363e-07
4.07145e-07
-9.0289e-08
4.46301e-07
-1.4874e-08
4.61554e-07
5.7653e-08
4.51943e-07
1.2282e-07
4.18599e-07
1.75929e-07
3.63633e-07
2.12709e-07
2.89716e-07
2.28996e-07
2.03643e-07
2.22337e-07
1.16073e-07
1.92092e-07
4.07191e-08
1.38085e-07
5.95452e-08
2.8419e-08
-6.13337e-08
8.21063e-08
-1.48401e-07
1.32402e-07
-1.7398e-07
1.7075e-07
-1.60148e-07
1.9597e-07
-1.26452e-07
2.09338e-07
-8.56525e-08
2.12094e-07
-4.48993e-08
2.05389e-07
-8.30363e-09
1.90013e-07
2.20921e-08
1.66427e-07
4.57239e-08
1.34398e-07
6.38741e-08
9.34053e-08
7.91164e-08
4.26631e-08
9.44966e-08
-1.87743e-08
1.12561e-07
-9.2019e-08
1.34864e-07
-1.78452e-07
1.62091e-07
-2.79535e-07
1.94366e-07
-3.96526e-07
2.3153e-07
-5.2994e-07
2.72892e-07
-6.79219e-07
3.17371e-07
-8.42459e-07
3.63018e-07
-1.01642e-06
4.07378e-07
-1.19715e-06
4.48309e-07
-1.3803e-06
4.83366e-07
-1.5617e-06
5.11299e-07
-1.73742e-06
5.30845e-07
-1.90401e-06
5.41395e-07
-2.05884e-06
5.43421e-07
-2.20064e-06
5.37952e-07
-2.32907e-06
5.25871e-07
-2.44442e-06
5.08008e-07
-2.54727e-06
4.85127e-07
-2.63829e-06
4.57949e-07
-2.71821e-06
4.27207e-07
-2.78771e-06
3.93467e-07
-2.84733e-06
3.57345e-07
-2.89746e-06
3.19308e-07
-2.93839e-06
2.79796e-07
-2.9703e-06
2.39053e-07
-2.99323e-06
1.97303e-07
-3.00717e-06
1.54625e-07
-3.01205e-06
1.11054e-07
-3.00767e-06
6.65395e-08
-2.9938e-06
2.10296e-08
-2.97022e-06
-2.55097e-08
-2.93654e-06
-7.31493e-08
-2.89235e-06
-1.22037e-07
-2.83737e-06
-1.72227e-07
-2.77116e-06
-2.23586e-07
-2.69338e-06
-2.75986e-07
-2.60368e-06
-3.29154e-07
-2.50179e-06
-3.82747e-07
-2.38748e-06
-4.36238e-07
-2.26067e-06
-4.88878e-07
-2.12145e-06
-5.39577e-07
-1.97029e-06
-5.86887e-07
-1.80801e-06
-6.29495e-07
-1.6357e-06
-6.65715e-07
-1.45496e-06
-6.93577e-07
-1.26787e-06
-7.11127e-07
-1.07702e-06
-7.16594e-07
-8.85522e-07
-7.08275e-07
-6.97107e-07
-6.85052e-07
-5.15913e-07
-6.46447e-07
-3.45612e-07
-5.93336e-07
-1.89278e-07
-5.2693e-07
-4.97713e-08
-4.48606e-07
7.0792e-08
-3.60776e-07
1.70819e-07
-2.6639e-07
2.49361e-07
-1.68831e-07
3.06143e-07
-7.16553e-08
3.4191e-07
2.18856e-08
3.56531e-07
1.08199e-07
3.49534e-07
1.82925e-07
3.20827e-07
2.41416e-07
2.71367e-07
2.78456e-07
2.04932e-07
2.88772e-07
1.27395e-07
2.69629e-07
4.93007e-08
2.1618e-07
1.08846e-07
3.45388e-08
-9.58726e-08
8.73986e-08
-2.01261e-07
1.28724e-07
-2.15305e-07
1.55341e-07
-1.86765e-07
1.68135e-07
-1.39246e-07
1.694e-07
-8.6917e-08
1.60528e-07
-3.60279e-08
1.42252e-07
9.97267e-09
1.14731e-07
4.96136e-08
7.74845e-08
8.297e-08
2.95277e-08
1.11831e-07
-3.03364e-08
1.38981e-07
-1.03269e-07
1.67429e-07
-1.9034e-07
1.99632e-07
-2.92556e-07
2.3708e-07
-4.10753e-07
2.80288e-07
-5.45328e-07
3.28941e-07
-6.95969e-07
3.82171e-07
-8.61106e-07
4.3803e-07
-1.03756e-06
4.93828e-07
-1.22145e-06
5.46907e-07
-1.40819e-06
5.94118e-07
-1.59345e-06
6.33566e-07
-1.773e-06
6.62914e-07
-1.94253e-06
6.80834e-07
-2.09959e-06
6.87899e-07
-2.24336e-06
6.85171e-07
-2.37392e-06
6.73974e-07
-2.49172e-06
6.55756e-07
-2.59749e-06
6.3164e-07
-2.69209e-06
6.02612e-07
-2.77635e-06
5.69389e-07
-2.851e-06
5.32598e-07
-2.91668e-06
4.9288e-07
-2.97395e-06
4.50742e-07
-3.02323e-06
4.06629e-07
-3.06483e-06
3.60904e-07
-3.09894e-06
3.13907e-07
-3.12567e-06
2.65783e-07
-3.14502e-06
2.16654e-07
-3.15689e-06
1.6649e-07
-3.16118e-06
1.15346e-07
-3.15769e-06
6.30479e-08
-3.14604e-06
9.38429e-09
-3.12609e-06
-4.54657e-08
-3.09737e-06
-1.01864e-07
-3.05949e-06
-1.59916e-07
-3.01202e-06
-2.19702e-07
-2.95436e-06
-2.81244e-07
-2.88604e-06
-3.4431e-07
-2.80654e-06
-4.08648e-07
-2.71541e-06
-4.73883e-07
-2.6122e-06
-5.3945e-07
-2.49648e-06
-6.04589e-07
-2.36788e-06
-6.68178e-07
-2.2266e-06
-7.28169e-07
-2.07304e-06
-7.83053e-07
-1.90783e-06
-8.30926e-07
-1.73219e-06
-8.69224e-07
-1.54781e-06
-8.95507e-07
-1.35687e-06
-9.0753e-07
-1.16225e-06
-9.02899e-07
-9.67148e-07
-8.80152e-07
-7.75711e-07
-8.37884e-07
-5.92682e-07
-7.76365e-07
-4.22178e-07
-6.97434e-07
-2.67252e-07
-6.03533e-07
-1.3058e-07
-4.97448e-07
-1.41837e-08
-3.82786e-07
8.08124e-08
-2.63827e-07
1.54054e-07
-1.44897e-07
2.06149e-07
-3.02094e-08
2.37995e-07
7.63536e-08
2.50115e-07
1.70805e-07
2.42744e-07
2.48787e-07
2.16228e-07
3.04972e-07
1.71573e-07
3.33427e-07
1.11878e-07
3.29324e-07
4.48761e-08
2.83182e-07
1.53722e-07
3.8039e-08
-1.33912e-07
8.34061e-08
-2.46628e-07
1.11822e-07
-2.43721e-07
1.2428e-07
-1.99224e-07
1.23748e-07
-1.38714e-07
1.12237e-07
-7.54068e-08
9.07316e-08
-1.45221e-08
5.93501e-08
4.13542e-08
1.76008e-08
9.13629e-08
-3.56745e-08
1.36245e-07
-1.01873e-07
1.78029e-07
-1.82391e-07
2.19499e-07
-2.78399e-07
2.63436e-07
-3.90719e-07
3.11952e-07
-5.19759e-07
3.6612e-07
-6.65243e-07
4.25771e-07
-8.26012e-07
4.89711e-07
-9.9964e-07
5.55798e-07
-1.18259e-06
6.20977e-07
-1.37023e-06
6.81473e-07
-1.55806e-06
7.34731e-07
-1.74113e-06
7.77189e-07
-1.91434e-06
8.06776e-07
-2.07474e-06
8.23314e-07
-2.22157e-06
8.2767e-07
-2.35513e-06
8.21452e-07
-2.47619e-06
8.06239e-07
-2.58579e-06
7.83567e-07
-2.68478e-06
7.54749e-07
-2.774e-06
7.20856e-07
-2.85417e-06
6.82785e-07
-2.92595e-06
6.41166e-07
-2.98994e-06
5.9659e-07
-3.04664e-06
5.49584e-07
-3.09646e-06
5.00557e-07
-3.13968e-06
4.49852e-07
-3.17646e-06
3.9768e-07
-3.20692e-06
3.44367e-07
-3.23116e-06
2.90023e-07
-3.24923e-06
2.34733e-07
-3.26099e-06
1.78243e-07
-3.26647e-06
1.20826e-07
-3.26567e-06
6.22482e-08
-3.25802e-06
1.7407e-09
-3.24396e-06
-5.9533e-08
-3.22257e-06
-1.23249e-07
-3.19347e-06
-1.89019e-07
-3.1562e-06
-2.56966e-07
-3.11011e-06
-3.27335e-07
-3.05453e-06
-3.99897e-07
-2.98865e-06
-4.74527e-07
-2.91164e-06
-5.50888e-07
-2.82281e-06
-6.28285e-07
-2.72173e-06
-7.05672e-07
-2.60779e-06
-7.82115e-07
-2.48032e-06
-8.55635e-07
-2.33924e-06
-9.24131e-07
-2.18457e-06
-9.85596e-07
-2.01706e-06
-1.03674e-06
-1.83808e-06
-1.07448e-06
-1.64922e-06
-1.09639e-06
-1.45314e-06
-1.09898e-06
-1.25284e-06
-1.08046e-06
-1.0521e-06
-1.03862e-06
-8.55558e-07
-9.72909e-07
-6.68573e-07
-8.84419e-07
-4.95531e-07
-7.76575e-07
-3.39762e-07
-6.53217e-07
-2.04041e-07
-5.18507e-07
-9.02874e-08
-3.77581e-07
7.79338e-10
-2.35964e-07
6.95728e-08
-9.90028e-08
1.17381e-07
2.85453e-08
1.4576e-07
1.42426e-07
1.55696e-07
2.3885e-07
1.47792e-07
3.12877e-07
1.22499e-07
3.5872e-07
8.20601e-08
3.69763e-07
3.27003e-08
3.32542e-07
1.86422e-07
3.7885e-08
-1.71797e-07
7.03102e-08
-2.79053e-07
8.36712e-08
-2.57082e-07
8.12384e-08
-1.96791e-07
6.68988e-08
-1.24374e-07
4.20456e-08
-5.05537e-08
6.98697e-09
2.05366e-08
-3.87624e-08
8.71035e-08
-9.62658e-08
1.48866e-07
-1.66936e-07
2.06916e-07
-2.52264e-07
2.63357e-07
-3.53511e-07
3.20746e-07
-4.71474e-07
3.814e-07
-6.06313e-07
4.46792e-07
-7.57405e-07
5.17212e-07
-9.23136e-07
5.91503e-07
-1.10056e-06
6.6713e-07
-1.28549e-06
7.40737e-07
-1.47326e-06
8.08742e-07
-1.65879e-06
8.67001e-07
-1.83611e-06
9.12053e-07
-2.00128e-06
9.42361e-07
-2.15282e-06
9.58314e-07
-2.29086e-06
9.61352e-07
-2.41631e-06
9.53126e-07
-2.53021e-06
9.35349e-07
-2.6336e-06
9.09629e-07
-2.72745e-06
8.77421e-07
-2.81255e-06
8.39842e-07
-2.88953e-06
7.97839e-07
-2.95893e-06
7.52183e-07
-3.02124e-06
7.03473e-07
-3.0769e-06
6.52251e-07
-3.12626e-06
5.98943e-07
-3.16962e-06
5.4392e-07
-3.20727e-06
4.87499e-07
-3.23916e-06
4.29569e-07
-3.26547e-06
3.70687e-07
-3.28636e-06
3.10906e-07
-3.30184e-06
2.50216e-07
-3.31215e-06
1.88553e-07
-3.31708e-06
1.25753e-07
-3.31643e-06
6.16022e-08
-3.31035e-06
-4.34448e-09
-3.2986e-06
-7.12777e-08
-3.28151e-06
-1.40342e-07
-3.25892e-06
-2.11605e-07
-3.23063e-06
-2.85257e-07
-3.19636e-06
-3.61607e-07
-3.15536e-06
-4.40896e-07
-3.10676e-06
-5.23131e-07
-3.04953e-06
-6.08118e-07
-2.98232e-06
-6.95496e-07
-2.90323e-06
-7.84761e-07
-2.81047e-06
-8.74867e-07
-2.70282e-06
-9.6329e-07
-2.57973e-06
-1.04722e-06
-2.44131e-06
-1.12402e-06
-2.28784e-06
-1.19022e-06
-2.11956e-06
-1.24276e-06
-1.93743e-06
-1.27851e-06
-1.74397e-06
-1.29244e-06
-1.54171e-06
-1.28271e-06
-1.33425e-06
-1.24608e-06
-1.12592e-06
-1.18124e-06
-9.22209e-07
-1.08813e-06
-7.29498e-07
-9.69285e-07
-5.52544e-07
-8.30171e-07
-3.94904e-07
-6.76146e-07
-2.59519e-07
-5.12967e-07
-1.48102e-07
-3.47381e-07
-6.0857e-08
-1.86248e-07
3.47011e-09
-3.57818e-08
4.68321e-08
9.90643e-08
7.15571e-08
2.14125e-07
7.92132e-08
3.05221e-07
7.0564e-08
3.67369e-07
4.79065e-08
3.92421e-07
1.7562e-08
3.62886e-07
2.03984e-07
3.29101e-08
-2.04707e-07
4.98443e-08
-2.95987e-07
4.69995e-08
-2.54237e-07
2.94604e-08
-1.79252e-07
1.04639e-09
-9.59603e-08
-3.76009e-08
-1.19064e-08
-8.6928e-08
6.98637e-08
-1.47889e-07
1.48065e-07
-2.21806e-07
2.22783e-07
-3.10102e-07
2.95212e-07
-4.1404e-07
3.67294e-07
-5.3444e-07
4.41146e-07
-6.71417e-07
5.18376e-07
-8.24244e-07
5.99619e-07
-9.91118e-07
6.84086e-07
-1.16875e-06
7.69135e-07
-1.35269e-06
8.51072e-07
-1.53799e-06
9.26035e-07
-1.71857e-06
9.89322e-07
-1.88921e-06
1.03764e-06
-2.04688e-06
1.06972e-06
-2.19105e-06
1.08653e-06
-2.32219e-06
1.08945e-06
-2.44128e-06
1.08045e-06
-2.54941e-06
1.06126e-06
-2.64769e-06
1.03362e-06
-2.73701e-06
9.98956e-07
-2.8181e-06
9.58509e-07
-2.8915e-06
9.13244e-07
-2.95768e-06
8.64013e-07
-3.017e-06
8.11509e-07
-3.06985e-06
7.56319e-07
-3.11652e-06
6.98927e-07
-3.15722e-06
6.39642e-07
-3.19215e-06
5.78842e-07
-3.2218e-06
5.17154e-07
-3.24695e-06
4.54721e-07
-3.26775e-06
3.91487e-07
-3.28419e-06
3.27347e-07
-3.29615e-06
2.6217e-07
-3.30376e-06
1.96166e-07
-3.30692e-06
1.28914e-07
-3.30571e-06
6.03909e-08
-3.30019e-06
-9.85926e-09
-3.29053e-06
-8.09452e-08
-3.27665e-06
-1.54223e-07
-3.25846e-06
-2.29788e-07
-3.23579e-06
-3.07931e-07
-3.20852e-06
-3.88874e-07
-3.1764e-06
-4.73021e-07
-3.13911e-06
-5.60418e-07
-3.09616e-06
-6.51069e-07
-3.04685e-06
-7.44805e-07
-2.99045e-06
-8.41163e-07
-2.92579e-06
-9.39524e-07
-2.8498e-06
-1.03928e-06
-2.7586e-06
-1.13842e-06
-2.64857e-06
-1.23405e-06
-2.51836e-06
-1.32042e-06
-2.36879e-06
-1.39233e-06
-2.20194e-06
-1.44536e-06
-2.01834e-06
-1.47603e-06
-1.82043e-06
-1.48063e-06
-1.61154e-06
-1.45497e-06
-1.39578e-06
-1.39701e-06
-1.17809e-06
-1.30581e-06
-9.65789e-07
-1.18159e-06
-7.6628e-07
-1.02968e-06
-5.84781e-07
-8.57645e-07
-4.25154e-07
-6.72593e-07
-2.90453e-07
-4.82083e-07
-1.82108e-07
-2.94593e-07
-9.96582e-08
-1.18231e-07
-4.08002e-08
4.02062e-08
-2.26659e-09
1.75592e-07
1.84594e-08
2.84495e-07
2.38285e-08
3.62e-07
1.67619e-08
3.99487e-07
3.74192e-09
3.75906e-07
2.07726e-07
2.35133e-08
-2.2822e-07
2.3569e-08
-2.96043e-07
3.93587e-09
-2.34604e-07
-2.81187e-08
-1.47197e-07
-7.05841e-08
-5.3495e-08
-1.23396e-07
4.09056e-08
-1.87369e-07
1.33837e-07
-2.63744e-07
2.2444e-07
-3.53852e-07
3.12891e-07
-4.58881e-07
4.00241e-07
-5.79637e-07
4.8805e-07
-7.16255e-07
5.77764e-07
-8.68087e-07
6.70208e-07
-1.0334e-06
7.64931e-07
-1.20874e-06
8.59423e-07
-1.38952e-06
9.49919e-07
-1.5705e-06
1.03205e-06
-1.74549e-06
1.10103e-06
-1.90979e-06
1.15362e-06
-2.06121e-06
1.18906e-06
-2.19934e-06
1.20786e-06
-2.32478e-06
1.21196e-06
-2.43852e-06
1.20319e-06
-2.54168e-06
1.1836e-06
-2.63526e-06
1.15484e-06
-2.72011e-06
1.11847e-06
-2.79687e-06
1.07572e-06
-2.86602e-06
1.02766e-06
-2.92797e-06
9.75195e-07
-2.98308e-06
9.19125e-07
-3.0317e-06
8.6012e-07
-3.07415e-06
7.98775e-07
-3.11089e-06
7.35668e-07
-3.14258e-06
6.71328e-07
-3.16974e-06
6.06003e-07
-3.19222e-06
5.39631e-07
-3.21012e-06
4.72619e-07
-3.22344e-06
4.04809e-07
-3.23242e-06
3.36325e-07
-3.2375e-06
2.67257e-07
-3.23904e-06
1.97703e-07
-3.23748e-06
1.27359e-07
-3.23313e-06
5.60396e-08
-3.22639e-06
-1.65986e-08
-3.21688e-06
-9.04596e-08
-3.20474e-06
-1.66365e-07
-3.19001e-06
-2.44518e-07
-3.17267e-06
-3.25264e-07
-3.15261e-06
-4.08933e-07
-3.12971e-06
-4.95928e-07
-3.10361e-06
-5.86519e-07
-3.07377e-06
-6.80906e-07
-3.03945e-06
-7.7912e-07
-2.99971e-06
-8.80909e-07
-2.95376e-06
-9.85474e-07
-2.90053e-06
-1.09251e-06
-2.83864e-06
-1.20031e-06
-2.76584e-06
-1.30685e-06
-2.67616e-06
-1.41011e-06
-2.56263e-06
-1.50586e-06
-2.42317e-06
-1.58482e-06
-2.25939e-06
-1.63982e-06
-2.07562e-06
-1.6644e-06
-1.87342e-06
-1.65717e-06
-1.65742e-06
-1.613e-06
-1.43195e-06
-1.53129e-06
-1.20351e-06
-1.41003e-06
-9.81367e-07
-1.25182e-06
-7.74376e-07
-1.06464e-06
-5.88345e-07
-8.58624e-07
-4.2741e-07
-6.43017e-07
-2.94639e-07
-4.27364e-07
-1.90931e-07
-2.21939e-07
-1.14823e-07
-3.59018e-08
-6.27356e-08
1.23504e-07
-3.004e-08
2.51799e-07
-1.29432e-08
3.44903e-07
-6.59087e-09
3.93135e-07
-5.21047e-09
3.74526e-07
2.02516e-07
1.10219e-08
-2.39242e-07
-6.7139e-09
-2.78307e-07
-4.20399e-08
-1.99278e-07
-8.87158e-08
-1.00521e-07
-1.45304e-07
3.09276e-09
-2.12237e-07
1.07839e-07
-2.90701e-07
2.12301e-07
-3.81969e-07
3.15709e-07
-4.87168e-07
4.18089e-07
-6.07063e-07
5.20136e-07
-7.41825e-07
6.22812e-07
-8.9094e-07
7.26879e-07
-1.05289e-06
8.32159e-07
-1.22436e-06
9.364e-07
-1.40065e-06
1.03571e-06
-1.57637e-06
1.12564e-06
-1.74583e-06
1.20151e-06
-1.90466e-06
1.25985e-06
-2.05086e-06
1.29982e-06
-2.18393e-06
1.32212e-06
-2.3045e-06
1.32843e-06
-2.41354e-06
1.321e-06
-2.51214e-06
1.30179e-06
-2.6012e-06
1.27267e-06
-2.68148e-06
1.23512e-06
-2.75352e-06
1.19052e-06
-2.8178e-06
1.13999e-06
-2.87469e-06
1.08456e-06
-2.92461e-06
1.02511e-06
-2.96796e-06
9.62476e-07
-3.00519e-06
8.97352e-07
-3.03678e-06
8.3036e-07
-3.06308e-06
7.61971e-07
-3.08431e-06
6.92558e-07
-3.10076e-06
6.22454e-07
-3.11291e-06
5.51779e-07
-3.12118e-06
4.80885e-07
-3.12614e-06
4.09778e-07
-3.12833e-06
3.38514e-07
-3.12809e-06
2.67011e-07
-3.12552e-06
1.9514e-07
-3.12085e-06
1.22684e-07
-3.11424e-06
4.94341e-08
-3.10595e-06
-2.48936e-08
-3.09589e-06
-1.00519e-07
-3.08433e-06
-1.77922e-07
-3.07142e-06
-2.57426e-07
-3.05727e-06
-3.3942e-07
-3.04191e-06
-4.2429e-07
-3.02538e-06
-5.12456e-07
-3.00761e-06
-6.04295e-07
-2.98837e-06
-7.00141e-07
-2.96728e-06
-8.0021e-07
-2.94368e-06
-9.04514e-07
-2.91631e-06
-1.01284e-06
-2.88394e-06
-1.12487e-06
-2.84472e-06
-1.23954e-06
-2.79687e-06
-1.3547e-06
-2.73825e-06
-1.46872e-06
-2.66617e-06
-1.57794e-06
-2.57261e-06
-1.67838e-06
-2.4483e-06
-1.76412e-06
-2.29192e-06
-1.82078e-06
-2.10772e-06
-1.84137e-06
-1.90135e-06
-1.81937e-06
-1.67702e-06
-1.75561e-06
-1.44041e-06
-1.64665e-06
-1.19997e-06
-1.49226e-06
-9.67159e-07
-1.29745e-06
-7.52606e-07
-1.07318e-06
-5.62815e-07
-8.32808e-07
-4.02123e-07
-5.88057e-07
-2.73342e-07
-3.5072e-07
-1.76415e-07
-1.32828e-07
-1.08448e-07
5.55368e-08
-6.39763e-08
2.07328e-07
-3.70926e-08
3.18019e-07
-2.03474e-08
3.7639e-07
-9.40426e-09
3.63582e-07
1.93111e-07
-3.24579e-09
-2.35996e-07
-3.82358e-08
-2.43317e-07
-8.91629e-08
-1.48351e-07
-1.50113e-07
-3.95707e-08
-2.20432e-07
7.3411e-08
-3.01092e-07
1.885e-07
-3.93329e-07
3.04538e-07
-4.98291e-07
4.2067e-07
-6.16748e-07
5.36546e-07
-7.48916e-07
6.52304e-07
-8.94412e-07
7.68308e-07
-1.05199e-06
8.8446e-07
-1.21865e-06
9.98815e-07
-1.38978e-06
1.10753e-06
-1.5601e-06
1.20604e-06
-1.72438e-06
1.28991e-06
-1.87847e-06
1.3556e-06
-2.02021e-06
1.40159e-06
-2.14904e-06
1.42865e-06
-2.26537e-06
1.43846e-06
-2.37024e-06
1.43329e-06
-2.46456e-06
1.41533e-06
-2.54919e-06
1.38642e-06
-2.62475e-06
1.34822e-06
-2.69174e-06
1.30211e-06
-2.7506e-06
1.24938e-06
-2.80174e-06
1.19113e-06
-2.84561e-06
1.12843e-06
-2.8827e-06
1.06221e-06
-2.91355e-06
9.93321e-07
-2.93869e-06
9.22494e-07
-2.95866e-06
8.50329e-07
-2.97398e-06
7.7729e-07
-2.98518e-06
7.03759e-07
-2.99276e-06
6.3004e-07
-2.9973e-06
5.56313e-07
-2.99917e-06
4.82757e-07
-2.99875e-06
4.09356e-07
-2.99631e-06
3.36071e-07
-2.99207e-06
2.62771e-07
-2.98621e-06
1.89288e-07
-2.97894e-06
1.15407e-07
-2.9704e-06
4.08968e-08
-2.96078e-06
-3.45134e-08
-2.95018e-06
-1.11119e-07
-2.93881e-06
-1.89292e-07
-2.92686e-06
-2.6938e-07
-2.9145e-06
-3.51775e-07
-2.90191e-06
-4.3688e-07
-2.88925e-06
-5.25116e-07
-2.87665e-06
-6.16901e-07
-2.86415e-06
-7.12638e-07
-2.85169e-06
-8.12664e-07
-2.83898e-06
-9.17227e-07
-2.82536e-06
-1.02646e-06
-2.80993e-06
-1.1403e-06
-2.79127e-06
-1.2582e-06
-2.76689e-06
-1.37907e-06
-2.73427e-06
-1.50134e-06
-2.6904e-06
-1.62182e-06
-2.63191e-06
-1.73687e-06
-2.5544e-06
-1.84164e-06
-2.44575e-06
-1.92943e-06
-2.29857e-06
-1.98855e-06
-2.11482e-06
-2.00312e-06
-1.90343e-06
-1.96699e-06
-1.66919e-06
-1.88089e-06
-1.42009e-06
-1.74135e-06
-1.16679e-06
-1.55075e-06
-9.23236e-07
-1.31673e-06
-7.02011e-07
-1.05403e-06
-5.10302e-07
-7.79766e-07
-3.52411e-07
-5.08611e-07
-2.30411e-07
-2.54829e-07
-1.42758e-07
-3.21153e-08
-8.44319e-08
1.49001e-07
-4.80063e-08
2.81594e-07
-2.44701e-08
3.52853e-07
-8.91961e-09
3.48032e-07
1.84192e-07
-1.85181e-08
-2.17478e-07
-7.02693e-08
-1.91566e-07
-1.35792e-07
-8.2828e-08
-2.10263e-07
3.49006e-08
-2.93658e-07
1.56806e-07
-3.87128e-07
2.81969e-07
-4.91885e-07
4.09295e-07
-6.08797e-07
5.37582e-07
-7.38179e-07
6.65929e-07
-8.79771e-07
7.93897e-07
-1.03259e-06
9.21123e-07
-1.19402e-06
1.04589e-06
-1.35977e-06
1.16457e-06
-1.52483e-06
1.27259e-06
-1.68438e-06
1.36558e-06
-1.83443e-06
1.43997e-06
-1.97247e-06
1.49364e-06
-2.09772e-06
1.52685e-06
-2.2105e-06
1.54144e-06
-2.31165e-06
1.53961e-06
-2.40207e-06
1.52371e-06
-2.48247e-06
1.49573e-06
-2.55342e-06
1.45737e-06
-2.61539e-06
1.41019e-06
-2.66883e-06
1.35555e-06
-2.71422e-06
1.29477e-06
-2.75212e-06
1.22903e-06
-2.78316e-06
1.15947e-06
-2.80803e-06
1.08707e-06
-2.8274e-06
1.0127e-06
-2.84197e-06
9.37061e-07
-2.85237e-06
8.60731e-07
-2.85922e-06
7.84139e-07
-2.86307e-06
7.07611e-07
-2.8644e-06
6.31369e-07
-2.86362e-06
5.55534e-07
-2.86103e-06
4.80159e-07
-2.85685e-06
4.05181e-07
-2.85128e-06
3.30501e-07
-2.84448e-06
2.55967e-07
-2.83658e-06
1.81395e-07
-2.82774e-06
1.06565e-07
-2.81809e-06
3.12395e-08
-2.80775e-06
-4.48497e-08
-2.79687e-06
-1.21996e-07
-2.78563e-06
-2.0053e-07
-2.77423e-06
-2.80787e-07
-2.76287e-06
-3.63137e-07
-2.75178e-06
-4.47966e-07
-2.74121e-06
-5.35683e-07
-2.7314e-06
-6.2671e-07
-2.72257e-06
-7.21467e-07
-2.71488e-06
-8.20361e-07
-2.70834e-06
-9.23764e-07
-2.70282e-06
-1.03199e-06
-2.69792e-06
-1.1452e-06
-2.69279e-06
-1.26332e-06
-2.68592e-06
-1.38594e-06
-2.67517e-06
-1.51209e-06
-2.65713e-06
-1.63986e-06
-2.6276e-06
-1.76639e-06
-2.58247e-06
-1.88677e-06
-2.51624e-06
-1.99566e-06
-2.42037e-06
-2.08443e-06
-2.28075e-06
-2.14274e-06
-2.09743e-06
-2.15031e-06
-1.87934e-06
-2.09899e-06
-1.63353e-06
-1.98715e-06
-1.37075e-06
-1.81354e-06
-1.10435e-06
-1.58313e-06
-8.5111e-07
-1.30727e-06
-6.25499e-07
-1.00538e-06
-4.35083e-07
-6.99026e-07
-2.83738e-07
-4.06174e-07
-1.71967e-07
-1.43886e-07
-9.61328e-08
7.31667e-08
-4.8728e-08
2.34189e-07
-2.0456e-08
3.24581e-07
-4.63299e-09
3.32209e-07
1.79559e-07
-3.37627e-08
-1.83715e-07
-1.0107e-07
-1.24258e-07
-1.80281e-07
-3.61781e-09
-2.67331e-07
1.21951e-07
-3.62764e-07
2.52239e-07
-4.67769e-07
3.86975e-07
-5.83402e-07
5.24927e-07
-7.1018e-07
6.6436e-07
-8.48001e-07
8.0375e-07
-9.96103e-07
9.41999e-07
-1.15228e-06
1.0773e-06
-1.31273e-06
1.20634e-06
-1.47284e-06
1.32468e-06
-1.62812e-06
1.42787e-06
-1.77474e-06
1.5122e-06
-1.90988e-06
1.5751e-06
-2.03231e-06
1.61607e-06
-2.14221e-06
1.63675e-06
-2.24026e-06
1.63949e-06
-2.32726e-06
1.62661e-06
-2.40388e-06
1.60034e-06
-2.47064e-06
1.56248e-06
-2.52801e-06
1.51474e-06
-2.57648e-06
1.45866e-06
-2.61665e-06
1.39573e-06
-2.64922e-06
1.32734e-06
-2.67497e-06
1.25478e-06
-2.69472e-06
1.17922e-06
-2.70931e-06
1.10165e-06
-2.71951e-06
1.02289e-06
-2.72604e-06
9.43594e-07
-2.72955e-06
8.64239e-07
-2.73058e-06
7.85173e-07
-2.72959e-06
7.06626e-07
-2.72695e-06
6.28722e-07
-2.72291e-06
5.515e-07
-2.71768e-06
4.7493e-07
-2.71141e-06
3.98908e-07
-2.70421e-06
3.23296e-07
-2.69616e-06
2.47925e-07
-2.68737e-06
1.72601e-07
-2.67791e-06
9.71072e-08
-2.66788e-06
2.12077e-08
-2.65738e-06
-5.53548e-08
-2.64652e-06
-1.3285e-07
-2.63548e-06
-2.11575e-07
-2.62443e-06
-2.91837e-07
-2.6136e-06
-3.73969e-07
-2.60324e-06
-4.58325e-07
-2.59364e-06
-5.45283e-07
-2.5851e-06
-6.35242e-07
-2.57795e-06
-7.28619e-07
-2.57247e-06
-8.25841e-07
-2.5689e-06
-9.27339e-07
-2.56736e-06
-1.03352e-06
-2.56784e-06
-1.14473e-06
-2.57e-06
-1.26116e-06
-2.57314e-06
-1.38281e-06
-2.57593e-06
-1.5093e-06
-2.57611e-06
-1.63968e-06
-2.57037e-06
-1.77214e-06
-2.55361e-06
-1.90352e-06
-2.52025e-06
-2.02902e-06
-2.46395e-06
-2.14073e-06
-2.37572e-06
-2.23097e-06
-2.24094e-06
-2.2851e-06
-2.05612e-06
-2.2838e-06
-1.82913e-06
-2.21415e-06
-1.57002e-06
-2.07265e-06
-1.29279e-06
-1.86035e-06
-1.01409e-06
-1.58598e-06
-7.53804e-07
-1.26566e-06
-5.27915e-07
-9.24915e-07
-3.43725e-07
-5.90364e-07
-2.03865e-07
-2.83746e-07
-1.0655e-07
-2.41479e-08
-4.55607e-08
1.73199e-07
-1.23693e-08
2.9139e-07
1.53978e-09
3.183e-07
1.81099e-07
-4.82913e-08
-1.35424e-07
-1.29756e-07
-4.27938e-08
-2.21203e-07
8.78288e-08
-3.19745e-07
2.20493e-07
-4.25894e-07
3.58388e-07
-5.40862e-07
5.01943e-07
-6.65481e-07
6.49546e-07
-7.99925e-07
7.98804e-07
-9.43652e-07
9.47476e-07
-1.09484e-06
1.09318e-06
-1.25024e-06
1.2327e-06
-1.40581e-06
1.36191e-06
-1.55734e-06
1.47621e-06
-1.70109e-06
1.57163e-06
-1.83405e-06
1.64516e-06
-1.9545e-06
1.69555e-06
-2.06229e-06
1.72386e-06
-2.15798e-06
1.73244e-06
-2.24226e-06
1.72376e-06
-2.31576e-06
1.70012e-06
-2.37901e-06
1.66358e-06
-2.43248e-06
1.61596e-06
-2.47677e-06
1.55903e-06
-2.51257e-06
1.49446e-06
-2.54072e-06
1.42388e-06
-2.56215e-06
1.34876e-06
-2.57781e-06
1.27044e-06
-2.58863e-06
1.19005e-06
-2.59549e-06
1.10851e-06
-2.59915e-06
1.02655e-06
-2.60027e-06
9.44708e-07
-2.59937e-06
8.63346e-07
-2.5969e-06
7.82702e-07
-2.59318e-06
7.02902e-07
-2.58844e-06
6.2398e-07
-2.58284e-06
5.45903e-07
-2.57649e-06
4.68577e-07
-2.56945e-06
3.91871e-07
-2.56178e-06
3.15625e-07
-2.5535e-06
2.39649e-07
-2.54466e-06
1.63752e-07
-2.53527e-06
8.77253e-08
-2.52541e-06
1.1347e-08
-2.51514e-06
-6.56304e-08
-2.50455e-06
-1.43438e-07
-2.49378e-06
-2.2234e-07
-2.48301e-06
-3.02606e-07
-2.47246e-06
-3.84528e-07
-2.46237e-06
-4.68415e-07
-2.45305e-06
-5.54601e-07
-2.44485e-06
-6.43445e-07
-2.43813e-06
-7.35337e-07
-2.43327e-06
-8.30696e-07
-2.43064e-06
-9.29967e-07
-2.43056e-06
-1.03361e-06
-2.43321e-06
-1.14207e-06
-2.43861e-06
-1.25575e-06
-2.44651e-06
-1.37491e-06
-2.45622e-06
-1.49959e-06
-2.46643e-06
-1.62947e-06
-2.47499e-06
-1.76358e-06
-2.47845e-06
-1.90006e-06
-2.47186e-06
-2.03562e-06
-2.44772e-06
-2.16488e-06
-2.39888e-06
-2.2798e-06
-2.3147e-06
-2.36928e-06
-2.18086e-06
-2.41764e-06
-1.99142e-06
-2.40359e-06
-1.75295e-06
-2.31112e-06
-1.47901e-06
-2.13429e-06
-1.18736e-06
-1.87763e-06
-8.98648e-07
-1.55437e-06
-6.36206e-07
-1.18736e-06
-4.16385e-07
-8.10185e-07
-2.45261e-07
-4.5487e-07
-1.23196e-07
-1.46213e-07
-4.56097e-08
9.56128e-08
-5.31658e-09
2.51097e-07
7.21902e-09
3.05764e-07
1.88318e-07
-6.15048e-08
-7.39192e-08
-1.55291e-07
5.09923e-08
-2.57783e-07
1.90321e-07
-3.66321e-07
3.29032e-07
-4.81616e-07
4.73684e-07
-6.04774e-07
6.25101e-07
-7.36388e-07
7.8116e-07
-8.76231e-07
9.38647e-07
-1.02286e-06
1.0941e-06
-1.17359e-06
1.24392e-06
-1.32507e-06
1.38418e-06
-1.47334e-06
1.51018e-06
-1.61476e-06
1.61763e-06
-1.74619e-06
1.70306e-06
-1.86551e-06
1.76447e-06
-1.97208e-06
1.80212e-06
-2.06626e-06
1.81804e-06
-2.14867e-06
1.81485e-06
-2.2199e-06
1.795e-06
-2.28051e-06
1.76072e-06
-2.33101e-06
1.71408e-06
-2.37206e-06
1.65701e-06
-2.40448e-06
1.59145e-06
-2.42922e-06
1.51921e-06
-2.44734e-06
1.442e-06
-2.45992e-06
1.36133e-06
-2.46797e-06
1.27849e-06
-2.47242e-06
1.1945e-06
-2.47408e-06
1.11017e-06
-2.47361e-06
1.02609e-06
-2.47155e-06
9.42642e-07
-2.46829e-06
8.60087e-07
-2.46413e-06
7.78546e-07
-2.45928e-06
6.98049e-07
-2.45386e-06
6.18557e-07
-2.44793e-06
5.39978e-07
-2.44153e-06
4.62176e-07
-2.43466e-06
3.84997e-07
-2.42731e-06
3.08273e-07
-2.41946e-06
2.31805e-07
-2.41111e-06
1.55399e-07
-2.40225e-06
7.88673e-08
-2.39292e-06
2.01427e-09
-2.38314e-06
-7.54091e-08
-2.373e-06
-1.53578e-07
-2.36261e-06
-2.3273e-07
-2.35212e-06
-3.13095e-07
-2.34173e-06
-3.94917e-07
-2.33169e-06
-4.78459e-07
-2.32229e-06
-5.64002e-07
-2.31387e-06
-6.51857e-07
-2.30684e-06
-7.42368e-07
-2.30162e-06
-8.3592e-07
-2.29865e-06
-9.3294e-07
-2.29836e-06
-1.0339e-06
-2.30113e-06
-1.1393e-06
-2.30723e-06
-1.24966e-06
-2.31669e-06