/*--------------------------------*- C++ -*----------------------------------*\
  =========                 |
  \\      /  F ield         | OpenFOAM: The Open Source CFD Toolbox
   \\    /   O peration     | Website:  https://openfoam.org
    \\  /    A nd           | Version:  13
     \\/     M anipulation  |
\*---------------------------------------------------------------------------*/
FoamFile
{
    format      ascii;
    class       volVectorField;
    location    "10";
    object      U;
}
// * * * * * * * * * * * * * * * * * * * * * * * * * * * * * * * * * * * * * //

dimensions      [0 1 -1 0 0 0 0];

internalField   nonuniform List<vector> 
6400
(
(-0.000128463 8.42186e-05 0)
(0.00045324 -0.000177379 0)
(0.0021314 -0.000444357 0)
(0.00434397 -0.000561935 0)
(0.00654056 -0.000494275 0)
(0.00836759 -0.000328347 0)
(0.00957738 -0.000129774 0)
(0.0101773 1.80878e-05 0)
(0.0102969 7.1424e-05 0)
(0.0101852 4.81944e-05 0)
(0.00996501 -3.32466e-05 0)
(0.00980995 -0.000142913 0)
(0.00978225 -0.000255808 0)
(0.00987885 -0.000347001 0)
(0.0100495 -0.000420046 0)
(0.0102137 -0.000472986 0)
(0.0102961 -0.000505695 0)
(0.010245 -0.000506227 0)
(0.0100162 -0.000485001 0)
(0.00951449 -0.000442393 0)
(0.008705 -0.000393143 0)
(0.00752594 -0.000343268 0)
(0.00593705 -0.000296305 0)
(0.00390903 -0.000279557 0)
(0.00140415 -0.000331204 0)
(-0.00154177 -0.000448886 0)
(-0.00497985 -0.000484463 0)
(-0.00913703 -0.000279993 0)
(-0.0141205 0.000277758 0)
(-0.0199949 0.00118384 0)
(-0.0274613 0.00224304 0)
(-0.0357439 0.00313501 0)
(-0.0446917 0.00384739 0)
(-0.0539891 0.00436878 0)
(-0.0633749 0.00470684 0)
(-0.0726116 0.00487791 0)
(-0.0815125 0.00490785 0)
(-0.0899224 0.00482077 0)
(-0.097725 0.0046396 0)
(-0.104822 0.00438228 0)
(-0.111139 0.0040607 0)
(-0.116614 0.00368319 0)
(-0.121204 0.00325179 0)
(-0.124889 0.00277092 0)
(-0.127646 0.00225639 0)
(-0.129229 0.0017852 0)
(-0.129858 0.00135457 0)
(-0.129606 0.000596018 0)
(-0.127952 4.8691e-05 0)
(-0.125367 -0.000654392 0)
(-0.121488 -0.00129182 0)
(-0.116525 -0.00196372 0)
(-0.110345 -0.00259929 0)
(-0.103066 -0.00322406 0)
(-0.0947276 -0.00383358 0)
(-0.0854019 -0.00441302 0)
(-0.0751315 -0.00491394 0)
(-0.0641085 -0.00533594 0)
(-0.0524891 -0.005644 0)
(-0.0404935 -0.00580813 0)
(-0.0283645 -0.00579052 0)
(-0.0163899 -0.00558256 0)
(-0.00480727 -0.00518213 0)
(0.0059282 -0.00465614 0)
(0.0154962 -0.00387356 0)
(0.0236994 -0.0029253 0)
(0.0302223 -0.00185457 0)
(0.0347905 -0.000698152 0)
(0.0374312 0.000464078 0)
(0.037539 0.00165465 0)
(0.0359798 0.00232747 0)
(0.0322723 0.00290292 0)
(0.0268738 0.00308389 0)
(0.0206702 0.00276957 0)
(0.0144358 0.00205578 0)
(0.00895983 0.00120495 0)
(0.00467818 0.000516995 0)
(0.00173949 0.00011271 0)
(0.000121242 -0.000176338 0)
(-0.000243731 -0.00035125 0)
(1.55985e-05 -0.000389843 0)
(0.00184699 -0.00214289 0)
(0.00532845 -0.0036007 0)
(0.00920324 -0.00408646 0)
(0.0127662 -0.00368857 0)
(0.0155977 -0.00279807 0)
(0.0175197 -0.0017154 0)
(0.0185635 -0.000734263 0)
(0.0188547 -4.08769e-05 0)
(0.0185588 0.000335581 0)
(0.0178766 0.000438186 0)
(0.0169785 0.00035206 0)
(0.0159501 0.000201506 0)
(0.0147824 0.000100137 0)
(0.0134023 0.000111267 0)
(0.0117065 0.000246956 0)
(0.00961107 0.000484949 0)
(0.00704516 0.000812915 0)
(0.00389546 0.00124608 0)
(5.48904e-05 0.00179438 0)
(-0.00458703 0.0024625 0)
(-0.0102756 0.00327053 0)
(-0.0170816 0.00417891 0)
(-0.0250798 0.00518314 0)
(-0.0343178 0.00630135 0)
(-0.0449033 0.00753904 0)
(-0.0567104 0.00892128 0)
(-0.0693833 0.0104473 0)
(-0.0825284 0.0120472 0)
(-0.0956032 0.0135362 0)
(-0.108114 0.0146231 0)
(-0.120246 0.0152824 0)
(-0.13171 0.0155232 0)
(-0.142431 0.0153765 0)
(-0.152309 0.0149134 0)
(-0.161281 0.0141867 0)
(-0.169305 0.013254 0)
(-0.17635 0.0121599 0)
(-0.182402 0.0109433 0)
(-0.187446 0.00963198 0)
(-0.191471 0.00824358 0)
(-0.194474 0.00679435 0)
(-0.196446 0.00529117 0)
(-0.197387 0.00374479 0)
(-0.197284 0.00216481 0)
(-0.196102 0.000565969 0)
(-0.19386 -0.00107601 0)
(-0.190543 -0.0028132 0)
(-0.186101 -0.00457383 0)
(-0.180595 -0.00637322 0)
(-0.173953 -0.00818436 0)
(-0.166217 -0.00999393 0)
(-0.157354 -0.0117772 0)
(-0.147399 -0.0135037 0)
(-0.136356 -0.0151387 0)
(-0.124326 -0.0166322 0)
(-0.111413 -0.0179486 0)
(-0.0977202 -0.0190228 0)
(-0.0834363 -0.0197893 0)
(-0.0687752 -0.0201975 0)
(-0.0539536 -0.0201804 0)
(-0.0392329 -0.0197011 0)
(-0.0248976 -0.0187385 0)
(-0.0112609 -0.0173109 0)
(0.00139305 -0.0153621 0)
(0.0128037 -0.0129534 0)
(0.0227019 -0.0101372 0)
(0.0308484 -0.00700704 0)
(0.0370758 -0.00364797 0)
(0.0412162 -0.000246831 0)
(0.0432531 0.00295576 0)
(0.043069 0.00589081 0)
(0.0407534 0.0082906 0)
(0.0365597 0.00974759 0)
(0.0304593 0.00995787 0)
(0.0230194 0.00898723 0)
(0.0152403 0.00712027 0)
(0.00822322 0.00479136 0)
(0.00305294 0.0023019 0)
(0.000222913 0.000254606 0)
(0.000208536 -0.00166474 0)
(0.00326504 -0.00549517 0)
(0.00760889 -0.00776239 0)
(0.0116563 -0.00802212 0)
(0.0149701 -0.00688974 0)
(0.0173426 -0.0050434 0)
(0.0188048 -0.00306478 0)
(0.0194181 -0.00128365 0)
(0.01926 0.00011696 0)
(0.0184368 0.00105522 0)
(0.0170945 0.00156603 0)
(0.0153091 0.00179764 0)
(0.0130955 0.00194885 0)
(0.010415 0.00219552 0)
(0.00717519 0.00264581 0)
(0.0032781 0.00332197 0)
(-0.00140704 0.00421736 0)
(-0.00703781 0.0053426 0)
(-0.0137423 0.00672238 0)
(-0.0216415 0.00839082 0)
(-0.0308185 0.010351 0)
(-0.0412415 0.012537 0)
(-0.0528927 0.0148685 0)
(-0.0656173 0.0172239 0)
(-0.0791553 0.0194748 0)
(-0.0931965 0.0215295 0)
(-0.107366 0.0232868 0)
(-0.121343 0.0246848 0)
(-0.134785 0.0256656 0)
(-0.147439 0.0262072 0)
(-0.159147 0.0263014 0)
(-0.169859 0.0259498 0)
(-0.179519 0.0251983 0)
(-0.188189 0.0240842 0)
(-0.195869 0.0226575 0)
(-0.202597 0.0209883 0)
(-0.208397 0.0191254 0)
(-0.213293 0.0171132 0)
(-0.217295 0.0149834 0)
(-0.220418 0.0127716 0)
(-0.222669 0.0104866 0)
(-0.224048 0.00814184 0)
(-0.224552 0.00574415 0)
(-0.224175 0.00329311 0)
(-0.222904 0.000791591 0)
(-0.220719 -0.00176515 0)
(-0.21759 -0.00439156 0)
(-0.213506 -0.00708263 0)
(-0.208441 -0.0098051 0)
(-0.202381 -0.0125764 0)
(-0.1953 -0.0153674 0)
(-0.187191 -0.0181623 0)
(-0.178043 -0.0209269 0)
(-0.167868 -0.023618 0)
(-0.156688 -0.0261753 0)
(-0.144552 -0.0285287 0)
(-0.131547 -0.0306095 0)
(-0.117766 -0.0323196 0)
(-0.103336 -0.0335691 0)
(-0.0884534 -0.0342641 0)
(-0.0733364 -0.0343161 0)
(-0.0582191 -0.0336532 0)
(-0.0433915 -0.0322502 0)
(-0.0291541 -0.0301109 0)
(-0.0157765 -0.0272322 0)
(-0.00349024 -0.0236553 0)
(0.00745749 -0.0194558 0)
(0.0168565 -0.0147527 0)
(0.0245717 -0.00969808 0)
(0.0304909 -0.00447533 0)
(0.0346019 0.000691794 0)
(0.0368603 0.00556613 0)
(0.0371322 0.00980168 0)
(0.0353312 0.0131734 0)
(0.0318065 0.0153528 0)
(0.0265947 0.0158353 0)
(0.0199138 0.0146969 0)
(0.0126564 0.012017 0)
(0.00591027 0.00792081 0)
(0.000787611 0.00291786 0)
(0.000437119 -0.00366422 0)
(0.00435702 -0.0097034 0)
(0.00879078 -0.0120561 0)
(0.0123325 -0.0115049 0)
(0.0148712 -0.00936123 0)
(0.0164074 -0.0065761 0)
(0.017046 -0.00372912 0)
(0.0168815 -0.00116539 0)
(0.0159952 0.000916906 0)
(0.0144433 0.00245132 0)
(0.0122233 0.00352519 0)
(0.00931081 0.00433267 0)
(0.0056537 0.00511115 0)
(0.00118076 0.00606475 0)
(-0.00418097 0.00731225 0)
(-0.0105353 0.00890476 0)
(-0.0180034 0.0108575 0)
(-0.0267037 0.013174 0)
(-0.0367139 0.0158434 0)
(-0.0480424 0.0188288 0)
(-0.0605953 0.0220314 0)
(-0.0741636 0.0253003 0)
(-0.0884507 0.0284559 0)
(-0.103082 0.0313295 0)
(-0.117759 0.0338243 0)
(-0.132132 0.0357512 0)
(-0.145907 0.0370215 0)
(-0.158809 0.0376585 0)
(-0.170682 0.0377234 0)
(-0.181494 0.0372665 0)
(-0.191224 0.0363438 0)
(-0.199934 0.0349945 0)
(-0.207667 0.033261 0)
(-0.214493 0.0312125 0)
(-0.220455 0.0288979 0)
(-0.225612 0.0263722 0)
(-0.229996 0.0236773 0)
(-0.233633 0.0208562 0)
(-0.236542 0.0179317 0)
(-0.238733 0.0149248 0)
(-0.240208 0.0118466 0)
(-0.240959 0.00870241 0)
(-0.24098 0.00549259 0)
(-0.240252 0.00221572 0)
(-0.238759 -0.00112829 0)
(-0.23647 -0.00454861 0)
(-0.233358 -0.00804975 0)
(-0.229395 -0.0116398 0)
(-0.224549 -0.0153007 0)
(-0.218791 -0.0190279 0)
(-0.212093 -0.0227993 0)
(-0.20443 -0.026591 0)
(-0.19578 -0.0303629 0)
(-0.186131 -0.0340572 0)
(-0.175481 -0.0375915 0)
(-0.163852 -0.0408691 0)
(-0.151298 -0.0437968 0)
(-0.137895 -0.0462557 0)
(-0.123747 -0.048105 0)
(-0.108997 -0.0492071 0)
(-0.0938447 -0.0494433 0)
(-0.0785046 -0.048706 0)
(-0.0632452 -0.0469298 0)
(-0.0483901 -0.0440927 0)
(-0.0342797 -0.040271 0)
(-0.0211629 -0.0355252 0)
(-0.00927111 -0.0299468 0)
(0.001181 -0.0236994 0)
(0.0100434 -0.0169959 0)
(0.0172133 -0.0100741 0)
(0.0226478 -0.00317886 0)
(0.0263616 0.00345939 0)
(0.0284087 0.00953341 0)
(0.0287751 0.0146405 0)
(0.0273416 0.0184353 0)
(0.0241558 0.020618 0)
(0.019383 0.0207553 0)
(0.0134362 0.0187053 0)
(0.00699556 0.0142747 0)
(0.00108813 0.0067289 0)
(0.000727324 -0.00623575 0)
(0.00504596 -0.0141423 0)
(0.00893382 -0.0158631 0)
(0.0115836 -0.0141716 0)
(0.0131438 -0.0109216 0)
(0.0136938 -0.00718209 0)
(0.013384 -0.00350557 0)
(0.0123012 -0.000199178 0)
(0.0104818 0.00258447 0)
(0.00791084 0.00483536 0)
(0.00452281 0.0066752 0)
(0.000228194 0.00832245 0)
(-0.00506603 0.0100248 0)
(-0.0114478 0.0119877 0)
(-0.0189988 0.0143405 0)
(-0.0277968 0.0171398 0)
(-0.0378996 0.0203902 0)
(-0.0493233 0.0240547 0)
(-0.0619976 0.0280299 0)
(-0.0757386 0.0321658 0)
(-0.0902476 0.036233 0)
(-0.105165 0.0400325 0)
(-0.120128 0.0434224 0)
(-0.134827 0.0461241 0)
(-0.148878 0.0480152 0)
(-0.161971 0.049114 0)
(-0.174024 0.0494433 0)
(-0.184985 0.0490647 0)
(-0.194906 0.0480828 0)
(-0.203828 0.0465912 0)
(-0.211816 0.0446724 0)
(-0.218957 0.0423921 0)
(-0.225296 0.0398025 0)
(-0.230895 0.0369552 0)
(-0.235802 0.0338931 0)
(-0.240059 0.0306576 0)
(-0.243687 0.027283 0)
(-0.246712 0.0237991 0)
(-0.249144 0.020221 0)
(-0.250986 0.0165627 0)
(-0.252236 0.0128277 0)
(-0.252884 0.00901714 0)
(-0.252916 0.00512351 0)
(-0.252312 0.0011413 0)
(-0.251057 -0.00293031 0)
(-0.249115 -0.00710776 0)
(-0.246454 -0.0113974 0)
(-0.243045 -0.0158063 0)
(-0.238845 -0.0203281 0)
(-0.233811 -0.0249501 0)
(-0.227905 -0.0296542 0)
(-0.221085 -0.0344118 0)
(-0.213313 -0.039177 0)
(-0.204552 -0.0438832 0)
(-0.194784 -0.048433 0)
(-0.183982 -0.0527004 0)
(-0.172179 -0.0565741 0)
(-0.159415 -0.0599021 0)
(-0.145762 -0.0625027 0)
(-0.131332 -0.0642054 0)
(-0.116288 -0.0648491 0)
(-0.100823 -0.0642678 0)
(-0.0851927 -0.0623583 0)
(-0.0696508 -0.0590637 0)
(-0.0545812 -0.0544287 0)
(-0.0403855 -0.0485919 0)
(-0.0273102 -0.0416905 0)
(-0.0155871 -0.0339383 0)
(-0.00541252 -0.0255946 0)
(0.0030773 -0.0169618 0)
(0.00982151 -0.00834721 0)
(0.0148394 -3.89459e-05 0)
(0.0182024 0.00766329 0)
(0.0199799 0.0144376 0)
(0.0201846 0.0199099 0)
(0.0188208 0.023641 0)
(0.0158973 0.025188 0)
(0.01163 0.024237 0)
(0.00638298 0.0201766 0)
(0.000965635 0.0105827 0)
(0.00104725 -0.00920979 0)
(0.00523092 -0.0182025 0)
(0.00813673 -0.0186776 0)
(0.00964569 -0.0157796 0)
(0.0101234 -0.0114254 0)
(0.00963024 -0.00678057 0)
(0.00831187 -0.00230459 0)
(0.00621177 0.00176053 0)
(0.00331088 0.00532217 0)
(-0.000461657 0.00842041 0)
(-0.00521372 0.0112108 0)
(-0.0110608 0.0139212 0)
(-0.0181046 0.0167882 0)
(-0.0264246 0.0199999 0)
(-0.0360735 0.0236661 0)
(-0.0470631 0.0278082 0)
(-0.0593424 0.0323674 0)
(-0.0727783 0.0372409 0)
(-0.0871368 0.0421942 0)
(-0.102048 0.0469699 0)
(-0.117161 0.0513957 0)
(-0.132122 0.0551205 0)
(-0.146471 0.0579545 0)
(-0.159858 0.0598399 0)
(-0.172147 0.0607399 0)
(-0.183351 0.0607464 0)
(-0.193521 0.0599877 0)
(-0.202726 0.0585927 0)
(-0.211053 0.0566732 0)
(-0.21856 0.0543163 0)
(-0.225318 0.0515985 0)
(-0.231383 0.0485741 0)
(-0.2368 0.0452943 0)
(-0.241617 0.0418034 0)
(-0.245872 0.0381347 0)
(-0.249589 0.0343188 0)
(-0.252783 0.0303809 0)
(-0.25547 0.026348 0)
(-0.257657 0.0222292 0)
(-0.259348 0.0180306 0)
(-0.260542 0.013751 0)
(-0.261233 0.00938774 0)
(-0.261416 0.00492563 0)
(-0.261075 0.00034689 0)
(-0.260223 -0.00437491 0)
(-0.258809 -0.00923576 0)
(-0.256795 -0.0142411 0)
(-0.254144 -0.0193957 0)
(-0.250818 -0.0247043 0)
(-0.246764 -0.0301537 0)
(-0.241919 -0.0357248 0)
(-0.236216 -0.0413799 0)
(-0.229584 -0.0470631 0)
(-0.221968 -0.052712 0)
(-0.213402 -0.0582868 0)
(-0.203753 -0.0636002 0)
(-0.193001 -0.0685047 0)
(-0.181167 -0.0728293 0)
(-0.168276 -0.076347 0)
(-0.154389 -0.0788503 0)
(-0.139658 -0.0801331 0)
(-0.124216 -0.0799771 0)
(-0.108322 -0.0782533 0)
(-0.0922261 -0.0748073 0)
(-0.0762351 -0.0696353 0)
(-0.0607898 -0.0628725 0)
(-0.0463243 -0.0547731 0)
(-0.0331015 -0.04558 0)
(-0.0213783 -0.0356093 0)
(-0.0113518 -0.0252369 0)
(-0.00313397 -0.0148529 0)
(0.00326297 -0.00482992 0)
(0.00791519 0.00449741 0)
(0.0109525 0.0128137 0)
(0.0124852 0.01979 0)
(0.0125668 0.0250018 0)
(0.0112024 0.0279744 0)
(0.00849353 0.0282428 0)
(0.00477691 0.0248808 0)
(0.000591231 0.0137828 0)
(0.00130229 -0.0123236 0)
(0.00485117 -0.0213642 0)
(0.0064297 -0.0203787 0)
(0.00680775 -0.0161766 0)
(0.00611889 -0.0108247 0)
(0.00455049 -0.00532748 0)
(0.00216833 -5.13329e-05 0)
(-0.00103781 0.00482974 0)
(-0.00513589 0.00927704 0)
(-0.0102318 0.0133683 0)
(-0.0164463 0.017274 0)
(-0.0238908 0.0212126 0)
(-0.0326489 0.0253928 0)
(-0.0427627 0.029964 0)
(-0.0542206 0.034984 0)
(-0.0669279 0.0404054 0)
(-0.0807323 0.0460871 0)
(-0.095327 0.0517785 0)
(-0.11032 0.0572576 0)
(-0.125377 0.0621537 0)
(-0.140025 0.0661902 0)
(-0.153784 0.0691659 0)
(-0.16646 0.0710012 0)
(-0.178027 0.0717505 0)
(-0.188552 0.0715559 0)
(-0.198106 0.0705555 0)
(-0.206776 0.0688803 0)
(-0.214646 0.066652 0)
(-0.22179 0.0639678 0)
(-0.228258 0.0609081 0)
(-0.234101 0.0575381 0)
(-0.239358 0.0539057 0)
(-0.244067 0.0500545 0)
(-0.248261 0.0460206 0)
(-0.251966 0.0418347 0)
(-0.255201 0.0375249 0)
(-0.257978 0.0331167 0)
(-0.260302 0.0286297 0)
(-0.262189 0.024067 0)
(-0.263638 0.0194317 0)
(-0.264672 0.0146694 0)
(-0.265282 0.00983677 0)
(-0.265457 0.0049056 0)
(-0.265191 -0.000138918 0)
(-0.264461 -0.00532753 0)
(-0.263309 -0.0106669 0)
(-0.261722 -0.0161893 0)
(-0.259691 -0.0219221 0)
(-0.257196 -0.0279022 0)
(-0.254199 -0.0340859 0)
(-0.250627 -0.0404619 0)
(-0.246407 -0.047011 0)
(-0.241452 -0.0536924 0)
(-0.235649 -0.0604297 0)
(-0.228787 -0.0670702 0)
(-0.220797 -0.0734594 0)
(-0.211537 -0.0794102 0)
(-0.201082 -0.0848125 0)
(-0.18944 -0.0894368 0)
(-0.176532 -0.0929635 0)
(-0.162525 -0.0951626 0)
(-0.147452 -0.0957247 0)
(-0.131595 -0.0944814 0)
(-0.115151 -0.0912315 0)
(-0.0984476 -0.0858982 0)
(-0.0818353 -0.0785207 0)
(-0.0658605 -0.0693831 0)
(-0.0509983 -0.0588525 0)
(-0.0375331 -0.0472842 0)
(-0.0257444 -0.0351266 0)
(-0.0158294 -0.0228708 0)
(-0.00787193 -0.0110001 0)
(-0.00183537 5.88552e-05 0)
(0.00243743 0.00995887 0)
(0.00514237 0.0183943 0)
(0.00642383 0.0249973 0)
(0.0063622 0.0293251 0)
(0.00501716 0.0307664 0)
(0.00278318 0.0281158 0)
(0.000120142 0.0158371 0)
(0.00139898 -0.0152243 0)
(0.00380513 -0.0233583 0)
(0.00413371 -0.0208191 0)
(0.00325753 -0.0153462 0)
(0.00141202 -0.00910284 0)
(-0.00125883 -0.0027853 0)
(-0.00475523 0.00332091 0)
(-0.0091346 0.00909597 0)
(-0.0144972 0.0145375 0)
(-0.0209581 0.019742 0)
(-0.0286275 0.024876 0)
(-0.037591 0.030131 0)
(-0.0478896 0.0356692 0)
(-0.0595043 0.0415736 0)
(-0.0723368 0.0478349 0)
(-0.0862024 0.0543027 0)
(-0.100758 0.0607173 0)
(-0.115643 0.0668023 0)
(-0.130413 0.0721764 0)
(-0.14457 0.0765314 0)
(-0.157733 0.0796458 0)
(-0.169804 0.0815089 0)
(-0.180803 0.082229 0)
(-0.19079 0.0819556 0)
(-0.199858 0.0808259 0)
(-0.208092 0.0789816 0)
(-0.21558 0.0765438 0)
(-0.222383 0.0736196 0)
(-0.228552 0.0702911 0)
(-0.234124 0.0666295 0)
(-0.239135 0.062692 0)
(-0.243614 0.0585255 0)
(-0.24759 0.054172 0)
(-0.25108 0.0496689 0)
(-0.2541 0.0450553 0)
(-0.256654 0.0403655 0)
(-0.258844 0.0355299 0)
(-0.260683 0.0306058 0)
(-0.262172 0.0256003 0)
(-0.263309 0.0205146 0)
(-0.264091 0.0153906 0)
(-0.264518 0.0101607 0)
(-0.264595 0.00482854 0)
(-0.264327 -0.000623039 0)
(-0.263708 -0.00620104 0)
(-0.262767 -0.0119274 0)
(-0.261484 -0.0178232 0)
(-0.259857 -0.023899 0)
(-0.257862 -0.0301597 0)
(-0.255485 -0.036688 0)
(-0.252709 -0.0434986 0)
(-0.249505 -0.0505863 0)
(-0.245828 -0.057933 0)
(-0.241619 -0.0655122 0)
(-0.236799 -0.0732899 0)
(-0.231233 -0.081025 0)
(-0.22463 -0.0884967 0)
(-0.216653 -0.095382 0)
(-0.20702 -0.101265 0)
(-0.195756 -0.105963 0)
(-0.183177 -0.109395 0)
(-0.169098 -0.111034 0)
(-0.153818 -0.110679 0)
(-0.137491 -0.10804 0)
(-0.120448 -0.102983 0)
(-0.103005 -0.0954661 0)
(-0.0856311 -0.0855989 0)
(-0.0690308 -0.073881 0)
(-0.0537013 -0.0608139 0)
(-0.0399639 -0.0468684 0)
(-0.0281228 -0.0326388 0)
(-0.0183689 -0.0187395 0)
(-0.0107472 -0.00573719 0)
(-0.00514213 0.0059145 0)
(-0.00131817 0.0158731 0)
(0.0010044 0.0238487 0)
(0.00202206 0.0294368 0)
(0.00187343 0.0319719 0)
(0.000895945 0.029843 0)
(-0.000267989 0.0166513 0)
(0.0012978 -0.0176066 0)
(0.00233488 -0.0240438 0)
(0.00134104 -0.0198868 0)
(-0.0007702 -0.0133499 0)
(-0.00375654 -0.00625902 0)
(-0.00754706 0.000879181 0)
(-0.0121873 0.0078596 0)
(-0.0177683 0.0146017 0)
(-0.0243993 0.0211207 0)
(-0.0321843 0.0275113 0)
(-0.0412054 0.033918 0)
(-0.051504 0.0404876 0)
(-0.0630588 0.0473151 0)
(-0.0757932 0.0544176 0)
(-0.089512 0.0616685 0)
(-0.103844 0.0688044 0)
(-0.118441 0.0754894 0)
(-0.132828 0.0813586 0)
(-0.146464 0.0860556 0)
(-0.159126 0.089412 0)
(-0.170705 0.0914244 0)
(-0.181233 0.0922351 0)
(-0.190776 0.0919724 0)
(-0.19943 0.0908033 0)
(-0.207279 0.0888639 0)
(-0.214401 0.0862883 0)
(-0.220854 0.08318 0)
(-0.226681 0.0796312 0)
(-0.231917 0.0757148 0)
(-0.236591 0.0714968 0)
(-0.240732 0.0670315 0)
(-0.244368 0.0623673 0)
(-0.247523 0.0575479 0)
(-0.250237 0.0525936 0)
(-0.252583 0.0475128 0)
(-0.254577 0.0423383 0)
(-0.256197 0.0371466 0)
(-0.25744 0.0319011 0)
(-0.258326 0.0265933 0)
(-0.258877 0.0212201 0)
(-0.259129 0.0157787 0)
(-0.259121 0.0102518 0)
(-0.258879 0.00463428 0)
(-0.25843 -0.00109304 0)
(-0.257785 -0.00694707 0)
(-0.256913 -0.0129577 0)
(-0.255839 -0.0191559 0)
(-0.254554 -0.0255686 0)
(-0.253059 -0.0322188 0)
(-0.251342 -0.0391233 0)
(-0.249386 -0.0462916 0)
(-0.247156 -0.0537283 0)
(-0.244605 -0.0614196 0)
(-0.241669 -0.0693241 0)
(-0.23825 -0.0773643 0)
(-0.234282 -0.0856705 0)
(-0.229725 -0.0941143 0)
(-0.22439 -0.102499 0)
(-0.218012 -0.110366 0)
(-0.210076 -0.117196 0)
(-0.199873 -0.122178 0)
(-0.187676 -0.125232 0)
(-0.173799 -0.126225 0)
(-0.158298 -0.124706 0)
(-0.1415 -0.120442 0)
(-0.123782 -0.113344 0)
(-0.105464 -0.10334 0)
(-0.0872262 -0.090758 0)
(-0.0699175 -0.0763091 0)
(-0.0540931 -0.0606558 0)
(-0.0401145 -0.0444036 0)
(-0.0283043 -0.0283052 0)
(-0.0188328 -0.0130962 0)
(-0.0116815 0.00059091 0)
(-0.00663341 0.0122929 0)
(-0.00332623 0.0217153 0)
(-0.00141133 0.028518 0)
(-0.000579547 0.03198 0)
(-0.000451808 0.0302682 0)
(-0.000390799 0.0165151 0)
(0.00104056 -0.0189252 0)
(0.000584569 -0.0233122 0)
(-0.00175427 -0.0176486 0)
(-0.00504659 -0.0101847 0)
(-0.0091639 -0.00228684 0)
(-0.0140783 0.00568178 0)
(-0.0198621 0.0135745 0)
(-0.0266223 0.0213332 0)
(-0.0344603 0.0289707 0)
(-0.0434537 0.0365607 0)
(-0.0536429 0.044208 0)
(-0.0650102 0.0519979 0)
(-0.0774951 0.0599652 0)
(-0.0909252 0.068014 0)
(-0.104934 0.0758738 0)
(-0.119132 0.0832008 0)
(-0.133073 0.0896201 0)
(-0.146273 0.0947553 0)
(-0.1585 0.0984593 0)
(-0.169675 0.100755 0)
(-0.179799 0.101736 0)
(-0.188963 0.101578 0)
(-0.197246 0.100438 0)
(-0.204736 0.0984735 0)
(-0.211495 0.0958108 0)
(-0.217578 0.0925657 0)
(-0.223022 0.088829 0)
(-0.22786 0.0846845 0)
(-0.232123 0.0802022 0)
(-0.235844 0.0754463 0)
(-0.239056 0.0704713 0)
(-0.241796 0.0653253 0)
(-0.244102 0.0600479 0)
(-0.246004 0.0546816 0)
(-0.247499 0.0492586 0)
(-0.24864 0.0437733 0)
(-0.24944 0.0382454 0)
(-0.249957 0.0326705 0)
(-0.250232 0.0270621 0)
(-0.250307 0.0214224 0)
(-0.250191 0.0157479 0)
(-0.249896 0.0100202 0)
(-0.249442 0.00422371 0)
(-0.248843 -0.00166519 0)
(-0.248104 -0.00766998 0)
(-0.247235 -0.0138231 0)
(-0.246254 -0.0201513 0)
(-0.245168 -0.0266872 0)
(-0.243985 -0.0334624 0)
(-0.242708 -0.0405101 0)
(-0.241336 -0.0478582 0)
(-0.23986 -0.0555304 0)
(-0.238256 -0.0635378 0)
(-0.236479 -0.0718688 0)
(-0.234456 -0.0804758 0)
(-0.232098 -0.089272 0)
(-0.229283 -0.0981415 0)
(-0.225831 -0.106913 0)
(-0.221594 -0.115692 0)
(-0.216461 -0.124184 0)
(-0.21 -0.131733 0)
(-0.201522 -0.137486 0)
(-0.190125 -0.14031 0)
(-0.17648 -0.140489 0)
(-0.160769 -0.137608 0)
(-0.143481 -0.131562 0)
(-0.124938 -0.122134 0)
(-0.105648 -0.109405 0)
(-0.0864611 -0.093912 0)
(-0.0683995 -0.07662 0)
(-0.05211 -0.0583886 0)
(-0.0379894 -0.0399793 0)
(-0.0263634 -0.0223144 0)
(-0.0173536 -0.00624113 0)
(-0.0108427 0.00756401 0)
(-0.0064645 0.0186651 0)
(-0.00371212 0.0267531 0)
(-0.00214073 0.0309969 0)
(-0.00116874 0.0297158 0)
(-0.000370734 0.0159176 0)
(0.000711089 -0.0192518 0)
(-0.00134217 -0.021164 0)
(-0.00495236 -0.0141802 0)
(-0.00938732 -0.00586311 0)
(-0.0146184 0.00280708 0)
(-0.0206308 0.0116064 0)
(-0.0275174 0.0204298 0)
(-0.0353835 0.0292192 0)
(-0.0443096 0.0379652 0)
(-0.0543366 0.0467044 0)
(-0.0654525 0.0554874 0)
(-0.0776096 0.0643477 0)
(-0.0906638 0.073219 0)
(-0.10428 0.0818381 0)
(-0.118052 0.0898508 0)
(-0.131547 0.0968832 0)
(-0.144359 0.102583 0)
(-0.156224 0.106764 0)
(-0.167049 0.109437 0)
(-0.17684 0.1107 0)
(-0.185665 0.110725 0)
(-0.193615 0.109693 0)
(-0.200757 0.107757 0)
(-0.207153 0.105058 0)
(-0.212845 0.101708 0)
(-0.21787 0.0978125 0)
(-0.22226 0.0934578 0)
(-0.226049 0.0887271 0)
(-0.229276 0.0836931 0)
(-0.231981 0.0784227 0)
(-0.234208 0.0729728 0)
(-0.235999 0.0673925 0)
(-0.237399 0.0617205 0)
(-0.238449 0.0559878 0)
(-0.239189 0.0502181 0)
(-0.239665 0.0444264 0)
(-0.239911 0.038631 0)
(-0.239962 0.0328348 0)
(-0.239841 0.0270378 0)
(-0.23957 0.0212317 0)
(-0.239162 0.0154054 0)
(-0.238633 0.0095413 0)
(-0.237997 0.00362146 0)
(-0.237267 -0.00237695 0)
(-0.236454 -0.00847734 0)
(-0.235571 -0.0147109 0)
(-0.234634 -0.0211056 0)
(-0.233657 -0.0276932 0)
(-0.232655 -0.0345062 0)
(-0.231641 -0.0415791 0)
(-0.230627 -0.0489449 0)
(-0.229623 -0.0566349 0)
(-0.228627 -0.064675 0)
(-0.227626 -0.0730826 0)
(-0.226584 -0.0818627 0)
(-0.225443 -0.0909985 0)
(-0.224107 -0.100415 0)
(-0.222428 -0.109966 0)
(-0.22022 -0.119421 0)
(-0.217235 -0.128511 0)
(-0.213167 -0.13718 0)
(-0.207872 -0.145158 0)
(-0.200701 -0.151327 0)
(-0.190542 -0.154394 0)
(-0.177106 -0.153575 0)
(-0.161246 -0.149314 0)
(-0.143321 -0.141224 0)
(-0.12383 -0.129214 0)
(-0.103483 -0.113537 0)
(-0.0833054 -0.0949578 0)
(-0.0645224 -0.074758 0)
(-0.0478805 -0.0540263 0)
(-0.0338037 -0.0337143 0)
(-0.022589 -0.0149174 0)
(-0.014267 0.00142183 0)
(-0.00856905 0.0146174 0)
(-0.0049038 0.0242366 0)
(-0.00274794 0.0293215 0)
(-0.00126458 0.0285605 0)
(-0.000202226 0.0150809 0)
(0.000116856 -0.0183785 0)
(-0.00335879 -0.0176663 0)
(-0.00813039 -0.00949933 0)
(-0.0136536 -0.000424227 0)
(-0.0199492 0.00898137 0)
(-0.0270001 0.0185993 0)
(-0.034906 0.0283441 0)
(-0.0437604 0.0381374 0)
(-0.053613 0.0479317 0)
(-0.0644601 0.0577137 0)
(-0.0762633 0.0674879 0)
(-0.0889058 0.0772056 0)
(-0.102096 0.0866204 0)
(-0.115437 0.0953792 0)
(-0.128518 0.103107 0)
(-0.140982 0.109475 0)
(-0.152551 0.114264 0)
(-0.163084 0.117425 0)
(-0.172595 0.119074 0)
(-0.181132 0.119376 0)
(-0.188777 0.118521 0)
(-0.195597 0.116675 0)
(-0.201639 0.113981 0)
(-0.206947 0.110563 0)
(-0.211552 0.10653 0)
(-0.215494 0.101985 0)
(-0.218811 0.097017 0)
(-0.221554 0.0917152 0)
(-0.223775 0.0861564 0)
(-0.225529 0.0804101 0)
(-0.226871 0.074534 0)
(-0.227856 0.068576 0)
(-0.228533 0.0625727 0)
(-0.22895 0.0565528 0)
(-0.229148 0.0505375 0)
(-0.229163 0.0445408 0)
(-0.229022 0.0385714 0)
(-0.228746 0.0326256 0)
(-0.228353 0.0266978 0)
(-0.227854 0.0207763 0)
(-0.227263 0.0148467 0)
(-0.22659 0.00889196 0)
(-0.225848 0.00289297 0)
(-0.225045 -0.00317216 0)
(-0.224192 -0.00932706 0)
(-0.223303 -0.0155998 0)
(-0.222393 -0.0220184 0)
(-0.221477 -0.0286135 0)
(-0.220574 -0.0354169 0)
(-0.219702 -0.0424625 0)
(-0.218882 -0.0497845 0)
(-0.218133 -0.0574164 0)
(-0.217469 -0.065389 0)
(-0.2169 -0.073729 0)
(-0.216422 -0.0824575 0)
(-0.216016 -0.0915843 0)
(-0.215634 -0.101096 0)
(-0.215186 -0.110945 0)
(-0.214526 -0.121024 0)
(-0.213441 -0.131098 0)
(-0.211643 -0.140796 0)
(-0.208756 -0.149681 0)
(-0.204376 -0.157691 0)
(-0.198135 -0.164069 0)
(-0.188979 -0.167169 0)
(-0.175814 -0.165499 0)
(-0.159704 -0.159694 0)
(-0.140982 -0.14929 0)
(-0.120434 -0.134437 0)
(-0.0989637 -0.115569 0)
(-0.0778322 -0.0937527 0)
(-0.0584629 -0.0706426 0)
(-0.0416973 -0.0475934 0)
(-0.0279573 -0.0257864 0)
(-0.0174578 -0.00648691 0)
(-0.0100833 0.00931687 0)
(-0.00529711 0.0209147 0)
(-0.00254734 0.0272269 0)
(-0.000831252 0.0272397 0)
(5.38919e-05 0.0144848 0)
(-0.000474788 -0.0162425 0)
(-0.00532382 -0.0128682 0)
(-0.0111677 -0.00369129 0)
(-0.0177107 0.00606203 0)
(-0.024996 0.0161618 0)
(-0.0329954 0.02657 0)
(-0.0418059 0.0371978 0)
(-0.0515007 0.0479301 0)
(-0.0620927 0.0586696 0)
(-0.0735516 0.0693575 0)
(-0.0857829 0.0799346 0)
(-0.098541 0.09017 0)
(-0.111464 0.0997303 0)
(-0.124172 0.108238 0)
(-0.136327 0.115369 0)
(-0.147652 0.120882 0)
(-0.157966 0.124666 0)
(-0.167249 0.126809 0)
(-0.175552 0.127487 0)
(-0.182937 0.126889 0)
(-0.18947 0.125196 0)
(-0.195194 0.122559 0)
(-0.200148 0.119112 0)
(-0.20437 0.114977 0)
(-0.207901 0.110266 0)
(-0.210794 0.105087 0)
(-0.213108 0.0995404 0)
(-0.214909 0.093718 0)
(-0.216264 0.0877001 0)
(-0.217239 0.0815551 0)
(-0.217893 0.0753382 0)
(-0.218282 0.0690926 0)
(-0.218452 0.0628498 0)
(-0.218446 0.056632 0)
(-0.218294 0.0504537 0)
(-0.218021 0.044321 0)
(-0.217647 0.0382345 0)
(-0.217184 0.0321872 0)
(-0.216643 0.0261696 0)
(-0.216031 0.0201688 0)
(-0.215355 0.0141691 0)
(-0.214623 0.00815322 0)
(-0.213841 0.00210194 0)
(-0.213017 -0.00400577 0)
(-0.21216 -0.0101925 0)
(-0.21128 -0.0164834 0)
(-0.210392 -0.0229045 0)
(-0.209511 -0.0294842 0)
(-0.208658 -0.0362522 0)
(-0.207853 -0.0432405 0)
(-0.207121 -0.0504824 0)
(-0.206488 -0.058012 0)
(-0.205977 -0.0658637 0)
(-0.205611 -0.0740702 0)
(-0.205406 -0.0826612 0)
(-0.205366 -0.0916584 0)
(-0.205482 -0.10107 0)
(-0.205713 -0.110885 0)
(-0.205982 -0.121063 0)
(-0.20615 -0.131512 0)
(-0.205995 -0.142046 0)
(-0.205199 -0.152305 0)
(-0.203342 -0.161708 0)
(-0.199864 -0.169633 0)
(-0.194268 -0.17593 0)
(-0.185676 -0.178771 0)
(-0.172709 -0.176245 0)
(-0.156141 -0.168623 0)
(-0.13647 -0.155615 0)
(-0.114757 -0.137588 0)
(-0.0921555 -0.115262 0)
(-0.0702138 -0.0900916 0)
(-0.0505375 -0.0641776 0)
(-0.0340247 -0.0391528 0)
(-0.021036 -0.016497 0)
(-0.0116397 0.00243836 0)
(-0.00544455 0.0166191 0)
(-0.00194434 0.0247893 0)
(-0.000127616 0.0260365 0)
(0.000353158 0.0143748 0)
(-0.00106978 -0.0129299 0)
(-0.00716432 -0.00688725 0)
(-0.0139719 0.00316371 0)
(-0.021442 0.0135137 0)
(-0.0296217 0.0242548 0)
(-0.0384559 0.035403 0)
(-0.0480336 0.046847 0)
(-0.0584033 0.0584214 0)
(-0.0695497 0.0699792 0)
(-0.0813966 0.0814077 0)
(-0.0937389 0.0924711 0)
(-0.106268 0.10287 0)
(-0.118642 0.11223 0)
(-0.130531 0.120214 0)
(-0.141661 0.126556 0)
(-0.151821 0.131092 0)
(-0.160945 0.133854 0)
(-0.16907 0.135013 0)
(-0.176255 0.134766 0)
(-0.182554 0.1333 0)
(-0.188013 0.130784 0)
(-0.19267 0.127361 0)
(-0.196566 0.123167 0)
(-0.199752 0.11833 0)
(-0.202289 0.112975 0)
(-0.204251 0.107216 0)
(-0.205713 0.101161 0)
(-0.206752 0.0949023 0)
(-0.207442 0.0885176 0)
(-0.207847 0.0820696 0)
(-0.208025 0.0756061 0)
(-0.208023 0.069162 0)
(-0.20788 0.0627604 0)
(-0.207627 0.0564155 0)
(-0.207284 0.0501334 0)
(-0.206868 0.0439141 0)
(-0.206388 0.0377524 0)
(-0.205851 0.0316387 0)
(-0.205262 0.0255608 0)
(-0.204623 0.0195044 0)
(-0.203937 0.0134542 0)
(-0.203207 0.00739257 0)
(-0.202435 0.00130115 0)
(-0.201628 -0.00483972 0)
(-0.200791 -0.0110507 0)
(-0.199933 -0.0173539 0)
(-0.199068 -0.0237729 0)
(-0.198209 -0.0303325 0)
(-0.197378 -0.0370594 0)
(-0.196595 -0.0439824 0)
(-0.195887 -0.0511321 0)
(-0.195283 -0.0585413 0)
(-0.194813 -0.0662447 0)
(-0.194507 -0.0742782 0)
(-0.194394 -0.0826774 0)
(-0.194494 -0.0914751 0)
(-0.194819 -0.100696 0)
(-0.195361 -0.110353 0)
(-0.196084 -0.120433 0)
(-0.196914 -0.130892 0)
(-0.197716 -0.141635 0)
(-0.198271 -0.152488 0)
(-0.198246 -0.163135 0)
(-0.197169 -0.172987 0)
(-0.194435 -0.18118 0)
(-0.189275 -0.187085 0)
(-0.180864 -0.189365 0)
(-0.16785 -0.185741 0)
(-0.150577 -0.175974 0)
(-0.129801 -0.159953 0)
(-0.106853 -0.138364 0)
(-0.0831968 -0.112278 0)
(-0.0607508 -0.0837088 0)
(-0.0412294 -0.0552679 0)
(-0.0255203 -0.0288846 0)
(-0.0138316 -0.00629435 0)
(-0.0059516 0.0111145 0)
(-0.00147735 0.0218854 0)
(0.00056244 0.0249889 0)
(0.000564397 0.0147186 0)
(-0.00163353 -0.00851219 0)
(-0.00881328 0.000154656 0)
(-0.0164735 0.0109592 0)
(-0.0247677 0.0218263 0)
(-0.0337222 0.0331448 0)
(-0.0432582 0.0449648 0)
(-0.0534527 0.057135 0)
(-0.0643277 0.0694382 0)
(-0.0758323 0.0816645 0)
(-0.0877888 0.0935438 0)
(-0.099956 0.104791 0)
(-0.112035 0.115053 0)
(-0.123698 0.123961 0)
(-0.134679 0.131228 0)
(-0.144744 0.136636 0)
(-0.153783 0.140154 0)
(-0.161801 0.141914 0)
(-0.168852 0.142122 0)
(-0.174985 0.140975 0)
(-0.180247 0.138654 0)
(-0.184678 0.135321 0)
(-0.188323 0.131125 0)
(-0.191241 0.126212 0)
(-0.193505 0.120722 0)
(-0.195195 0.11479 0)
(-0.196399 0.108538 0)
(-0.197202 0.10207 0)
(-0.197683 0.0954741 0)
(-0.197912 0.0888207 0)
(-0.197946 0.0821622 0)
(-0.197835 0.0755362 0)
(-0.197615 0.0689675 0)
(-0.197313 0.0624703 0)
(-0.196949 0.0560506 0)
(-0.196536 0.049708 0)
(-0.196081 0.0434369 0)
(-0.195588 0.037228 0)
(-0.195057 0.0310702 0)
(-0.194488 0.0249499 0)
(-0.19388 0.0188512 0)
(-0.193232 0.0127588 0)
(-0.192543 0.00665698 0)
(-0.191815 0.000527932 0)
(-0.191049 -0.00564563 0)
(-0.19025 -0.0118825 0)
(-0.189426 -0.0182018 0)
(-0.188587 -0.0246237 0)
(-0.187747 -0.0311695 0)
(-0.186924 -0.037862 0)
(-0.18614 -0.0447261 0)
(-0.18542 -0.0517888 0)
(-0.184795 -0.0590797 0)
(-0.184296 -0.0666314 0)
(-0.18396 -0.0744797 0)
(-0.183823 -0.0826627 0)
(-0.183917 -0.0912198 0)
(-0.184269 -0.100189 0)
(-0.184894 -0.109602 0)
(-0.185786 -0.119476 0)
(-0.186909 -0.129805 0)
(-0.188182 -0.140541 0)
(-0.189464 -0.151574 0)