/*--------------------------------*- C++ -*----------------------------------*\
  =========                 |
  \\      /  F ield         | OpenFOAM: The Open Source CFD Toolbox
   \\    /   O peration     | Website:  https://openfoam.org
    \\  /    A nd           | Version:  13
     \\/     M anipulation  |
\*---------------------------------------------------------------------------*/
FoamFile
{
    format      ascii;
    class       volScalarField;
    location    "9";
    object      epsilon;
}
// * * * * * * * * * * * * * * * * * * * * * * * * * * * * * * * * * * * * * //

dimensions      [0 2 -3 0 0 0 0];

internalField   nonuniform List<scalar> 
1600
(
3.01722e-05
0.000101369
0.00019608
0.000194346
0.000176684
0.000180573
0.000233541
0.000399216
0.000603579
0.000898885
0.00136156
0.00166863
0.00181633
0.00201642
0.00233282
0.0027374
0.00310616
0.0035332
0.00394079
0.00441176
0.00488964
0.0054401
0.0060327
0.00672735
0.00753473
0.00823652
0.00896192
0.00957199
0.0101035
0.0103879
0.0105003
0.0102821
0.00946052
0.00806073
0.00608341
0.00363545
0.0017831
0.000755618
0.00024321
5.09146e-05
0.000145492
0.000182567
0.000222473
0.000211659
0.000203394
0.000243062
0.000428543
0.000927507
0.00166631
0.00278649
0.00479023
0.00566429
0.00570602
0.00529725
0.00495895
0.00480844
0.0046745
0.00463261
0.00462499
0.00472559
0.0048627
0.00507659
0.00530804
0.00560403
0.00596344
0.00640107
0.0068913
0.00745481
0.00801212
0.00848037
0.00869748
0.00873498
0.00815426
0.00707587
0.00528097
0.00307822
0.001309
0.000578042
0.000211248
8.66783e-05
0.000438695
0.000463378
0.00046633
0.000440935
0.000496008
0.00082611
0.00180895
0.00372096
0.00592943
0.00681504
0.00658962
0.005616
0.00513304
0.00450088
0.0041065
0.0037859
0.00354106
0.00337732
0.00327905
0.00323616
0.0032235
0.00326101
0.00336858
0.00351825
0.00371072
0.00394593
0.0042289
0.00456954
0.00497218
0.00546134
0.0060126
0.00653013
0.00676784
0.00670849
0.00585011
0.00397194
0.00128401
0.000360257
0.000133007
7.09797e-05
0.00100286
0.000899604
0.00088534
0.000943011
0.00137565
0.00268095
0.00506262
0.00670994
0.00708119
0.00641125
0.00546644
0.00427356
0.00359538
0.00308004
0.00281512
0.00256572
0.00243936
0.00235615
0.00232109
0.00231205
0.00233778
0.00239529
0.00247405
0.00257789
0.00270371
0.00285784
0.00304345
0.00326766
0.00353599
0.00385656
0.00423382
0.00468597
0.00529244
0.0058961
0.00613184
0.00566115
0.00288269
0.000495497
0.000105371
4.84436e-05
0.00188253
0.00152381
0.00160506
0.00201205
0.0032004
0.0052887
0.0066222
0.00687278
0.00627786
0.0047116
0.00355127
0.00292311
0.00249904
0.00222457
0.00206491
0.0019598
0.00191471
0.00189897
0.00189958
0.00193432
0.0019758
0.00203364
0.00210069
0.00218407
0.0022835
0.0024062
0.0025574
0.00274407
0.00296902
0.00323572
0.0035466
0.00390312
0.00432615
0.00488917
0.00572456
0.00610225
0.00545072
0.00154198
0.000194244
5.49278e-05
0.00313355
0.00240708
0.00270307
0.00352955
0.00509946
0.00627338
0.00654699
0.00605023
0.00429691
0.00309904
0.00250361
0.00212703
0.00189075
0.00175909
0.00169394
0.00166579
0.00165898
0.00166878
0.0016938
0.00172734
0.00176775
0.00181835
0.00188002
0.001957
0.0020519
0.0021703
0.00231666
0.00249634
0.00271384
0.00297195
0.00327102
0.00361546
0.00398849
0.00440986
0.00495341
0.00568993
0.00599706
0.00415813
0.000589033
0.000101083
0.00470042
0.00353726
0.00401063
0.00496934
0.00591874
0.00619681
0.00583743
0.00419739
0.00286502
0.00223406
0.0018975
0.00167737
0.00156578
0.00151028
0.00148503
0.00147521
0.00147284
0.00147743
0.0014887
0.00150482
0.00152936
0.00156562
0.00161671
0.00168702
0.00178104
0.00190454
0.00206314
0.00226281
0.00250806
0.00280012
0.003134
0.00349726
0.00388415
0.00429061
0.0047058
0.00522569
0.00562074
0.00552006
0.00150304
0.000227551
0.00637254
0.00476932
0.0052039
0.00575886
0.00596026
0.00568939
0.00432025
0.00281772
0.00209424
0.00174329
0.00154255
0.00142627
0.00136968
0.00133656
0.00131333
0.00129321
0.00127466
0.00125898
0.00124957
0.00124604
0.00125017
0.00127141
0.00130916
0.00136874
0.00145498
0.00157409
0.00173379
0.00194296
0.00221082
0.00254392
0.00294082
0.00338487
0.00384157
0.0042815
0.00467778
0.00509887
0.00551476
0.00566396
0.00330904
0.00056912
0.00779792
0.00589198
0.00606185
0.00611326
0.00569319
0.00460185
0.00299442
0.0020778
0.00165693
0.00144943
0.0013262
0.00125831
0.00121639
0.00117826
0.00114078
0.00110188
0.00106406
0.00102997
0.00100255
0.000987303
0.000981788
0.000987676
0.00101607
0.00106365
0.00113794
0.00124407
0.00139115
0.00159049
0.00185646
0.0022045
0.00264591
0.00317647
0.00376026
0.00432175
0.00481575
0.00513083
0.00550999
0.00571184
0.00504778
0.00154979
0.00884397
0.0067121
0.00657666
0.00604621
0.00504712
0.00346373
0.00221658
0.00165345
0.00139075
0.00125904
0.00117475
0.00112168
0.00107307
0.0010211
0.00096735
0.000913177
0.000862669
0.000818593
0.00078357
0.000761723
0.000752263
0.000750952
0.000770837
0.000808494
0.000869394
0.00095888
0.00108558
0.00126173
0.00150443
0.00183604
0.00228175
0.00286039
0.00356317
0.00432238
0.00499666
0.00541644
0.005662
0.005824
0.00563109
0.0027679
0.00959319
0.00724112
0.00679504
0.00579399
0.00420825
0.00259783
0.00176409
0.00139141
0.00121499
0.00112075
0.00105148
0.000995675
0.000934696
0.000870143
0.00080529
0.000743364
0.000688164
0.000641731
0.000605656
0.000581979
0.000570951
0.000568112
0.00058096
0.000610872
0.00065967
0.000732966
0.00083824
0.000987221
0.00119731
0.00149373
0.00191034
0.00248537
0.00324402
0.00415723
0.00508013
0.00570321
0.00598325
0.00610073
0.00598793
0.00394282
0.00999664
0.0074706
0.00673094
0.00529516
0.00342222
0.00207461
0.00148077
0.00121508
0.001087
0.00100893
0.000941683
0.000877314
0.000806006
0.000733784
0.000664251
0.000600983
0.000546611
0.00050219
0.000468261
0.000445538
0.000434655
0.000431376
0.000439698
0.000463341
0.000502293
0.000561646
0.000647784
0.000771165
0.000948082
0.00120392
0.0015768
0.00211891
0.00288739
0.00390845
0.00509942
0.00600726
0.0063468
0.0064351
0.00633417
0.00488766
0.0099833
0.0074492
0.00653942
0.00474973
0.00278896
0.001739
0.00128961
0.00108651
0.000985914
0.000912527
0.00084197
0.000769491
0.000692165
0.000617182
0.000547838
0.000487097
0.00043633
0.000395738
0.000365106
0.000344352
0.000334237
0.000330946
0.000336425
0.000355153
0.000386475
0.000434629
0.000505015
0.000606533
0.000753506
0.000969333
0.00129191
0.00177959
0.00251135
0.00356368
0.00493917
0.00628008
0.00682113
0.00690868
0.00662368
0.0057708
0.00985885
0.00733109
0.00619005
0.00420021
0.00235465
0.00151077
0.00115205
0.000988095
0.000901745
0.000827915
0.000753061
0.000675184
0.000595766
0.000521523
0.000455158
0.000398668
0.000352427
0.000316022
0.000288783
0.000270177
0.000260996
0.000257878
0.000261583
0.000276558
0.000302102
0.000341626
0.000399718
0.000483887
0.000606443
0.000788173
0.0010647
0.00149592
0.00217429
0.00321352
0.00467406
0.00640411
0.00731728
0.00745933
0.00706878
0.00658596
0.00956092
0.00707291
0.005781
0.00372071
0.00205907
0.00134804
0.00104822
0.000910091
0.000830162
0.000754377
0.000676136
0.000595704
0.000516905
0.000445383
0.000383169
0.000331325
0.000289546
0.000257029
0.000232856
0.000216251
0.000207974
0.000205094
0.000207697
0.000219809
0.00024095
0.000273843
0.000322414
0.000392996
0.000496
0.000649278
0.000884625
0.0012594
0.00187302
0.00287491
0.00441313
0.00643186
0.00782854
0.00808309
0.00755672
0.00738145
0.00904924
0.00676034
0.00536617
0.00333479
0.00184884
0.00122852
0.000968084
0.000846896
0.000769424
0.000691828
0.000611624
0.000530811
0.000454162
0.000386191
0.000328305
0.000280826
0.000243019
0.000213851
0.000192286
0.000177461
0.000169954
0.000167315
0.00016924
0.00017916
0.000196913
0.000224708
0.000265965
0.000326148
0.000414176
0.000545352
0.000747424
0.00107271
0.00161919
0.00255393
0.00409432
0.00633717
0.00830534
0.00878751
0.00814761
0.00815306
0.00846381
0.00641829
0.00497171
0.00303504
0.00169702
0.00113922
0.00090548
0.000795322
0.000718611
0.000639976
0.000559135
0.000479321
0.000405485
0.000341179
0.000287287
0.000243604
0.000209142
0.000182743
0.00016332
0.000149986
0.000143099
0.000140669
0.00014218
0.000150416
0.00016552
0.000189335
0.000224876
0.000276957
0.000353351
0.000467265
0.00064273
0.000926467
0.00141189
0.00227576
0.00378872
0.00616369
0.00872918
0.00956038
0.00877723
0.00891894
0.00776496
0.00609475
0.00462158
0.00280902
0.00158788
0.00107308
0.000856821
0.000753522
0.000677059
0.000598206
0.000517741
0.000439697
0.000368802
0.000307869
0.000257404
0.000216859
0.000185104
0.000160918
0.000143199
0.000131053
0.000124619
0.000122341
0.000123595
0.000130544
0.000143573
0.000164272
0.00019533
0.000241089
0.000308497
0.000409193
0.000564082
0.000814154
0.0012451
0.00203384
0.00349233
0.00595103
0.00906514
0.0103732
0.00953826
0.00967804
0.00708278
0.00578051
0.00431868
0.0026448
0.00151375
0.0010244
0.000819282
0.000720011
0.000643845
0.000565618
0.000486306
0.000410324
0.000342164
0.000284152
0.000236509
0.000198467
0.00016882
0.000146337
0.000129922
0.000118684
0.000112529
0.000110319
0.000111383
0.000117355
0.000128769
0.000147039
0.000174561
0.000215328
0.000275681
0.000366149
0.000505261
0.000729044
0.00111488
0.0018342
0.00322667
0.00573779
0.00931434
0.0112182
0.0103707
0.0104312
0.00628042
0.00550005
0.00407238
0.00253124
0.00146578
0.00099252
0.000791733
0.000693985
0.000618379
0.000541306
0.000463554
0.00038984
0.000324222
0.000268613
0.000223108
0.000186888
0.000158782
0.000137552
0.000122094
0.000111514
0.000105492
0.000103275
0.000104325
0.000109631
0.00011975
0.000135965
0.000160655
0.000197496
0.000252294
0.000334827
0.000461919
0.000665455
0.00101434
0.00166997
0.00298765
0.00553176
0.00947146
0.0120946
0.0113209
0.0111827
0.00562587
0.00526337
0.00387489
0.00245853
0.00144899
0.000972032
0.000772453
0.000674349
0.00059926
0.000524093
0.000448624
0.00037694
0.000313166
0.000259337
0.000215528
0.000180921
0.000154096
0.00013378
0.00011892
0.000108694
0.000102613
0.000100252
0.000101439
0.000106273
0.000115561
0.000130492
0.00015305
0.000186516
0.000236508
0.000312854
0.000430851
0.000619294
0.000939416
0.00154018
0.00277953
0.00531541
0.00958656
0.0129872
0.0123764
0.011924
0.00506569
0.00504581
0.00375028
0.00242338
0.00145713
0.000974028
0.000761686
0.000660863
0.000586649
0.00051341
0.000439723
0.000370642
0.00030956
0.000257738
0.000215261
0.000181191
0.000154606
0.000134424
0.00011962
0.000109381
0.000103146
0.00010054
0.000101413
0.000105654
0.000114389
0.000128603
0.000149959
0.000181384
0.0002283
0.000299366
0.000409865
0.000587298
0.000885631
0.00144046
0.00260406
0.00510759
0.00964306
0.0138908
0.013556
0.012662
0.00456801
0.00486352
0.00367255
0.00243027
0.00148328
0.00098589
0.000763116
0.000653108
0.000577958
0.000507514
0.000438049
0.000371361
0.000311213
0.000259965
0.000217839
0.000184107
0.000157743
0.000137667
0.0001229
0.000112654
0.000106382
0.000103833
0.000104583
0.00010825
0.000116207
0.000129412
0.000149573
0.000179865
0.00022521
0.000293117
0.000399246
0.000569017
0.000851056
0.00136823
0.00246134
0.00491295
0.00966817
0.0148268
0.0148359
0.0133836
0.00411333
0.00472072
0.00366017
0.00246018
0.00153807
0.00101383
0.000771106
0.000654028
0.000576635
0.000507947
0.000440031
0.000375069
0.000316344
0.000266034
0.00022447
0.000191092
0.000164882
0.000144804
0.000129934
0.000119519
0.000113019
0.000110244
0.00011091
0.000114258
0.000121781
0.000134562
0.000153914
0.000182548
0.000225251
0.000291355
0.000395273
0.000560999
0.000834367
0.00132198
0.00235233
0.00473637
0.00967332
0.015769
0.0162325
0.0140937
0.00368683
0.00461153
0.00367812
0.00252772
0.00162123
0.00106701
0.000790358
0.000659603
0.000578837
0.000510796
0.000445363
0.000383268
0.000326743
0.000277516
0.000236305
0.000202865
0.000176391
0.000155952
0.000140688
0.00012988
0.000123
0.000119925
0.000120533
0.000123694
0.000130948
0.000143544
0.000162593
0.000190716
0.000232483
0.000295994
0.000396127
0.000559318
0.00082884
0.0012999
0.00227449
0.00458688
0.00966781
0.0167061
0.0177515
0.0147786
0.00328071
0.00453323
0.00372762
0.00263232
0.00173304
0.00114504
0.000829014
0.000673638
0.000585431
0.000517424
0.000455061
0.000395705
0.000341132
0.000293023
0.000252218
0.000218695
0.000191874
0.000170974
0.00015522
0.000143951
0.00013665
0.000133242
0.000133815
0.000136887
0.000144024
0.000156636
0.000175673
0.00020366
0.000245054
0.00030809
0.000407797
0.000569686
0.000834939
0.00129336
0.00223077
0.00446558
0.00965973
0.0176305
0.0193921
0.0154409
0.00288385
0.00447019
0.00381572
0.00277258
0.00187985
0.00125328
0.000889998
0.000702255
0.000599458
0.000528762
0.000467932
0.000411224
0.000358862
0.000312155
0.000271986
0.000238533
0.000211441
0.000190105
0.000173866
0.000162145
0.000154446
0.000150725
0.000151295
0.000154369
0.000161542
0.000174361
0.000193665
0.000221948
0.000263619
0.000326899
0.000426977
0.000590515
0.0008586
0.00130677
0.00221358
0.00436992
0.00965671
0.0185637
0.0211367
0.0160676
0.00249291
0.00441331
0.00393153
0.00293039
0.00205582
0.00139625
0.0009808
0.000751337
0.000625805
0.000546496
0.000484603
0.00042966
0.000379477
0.000334458
0.000295283
0.000262226
0.000235121
0.000213538
0.000196954
0.000184896
0.000176902
0.000172982
0.000173598
0.000176775
0.00018415
0.000197361
0.000217196
0.000246178
0.000288764
0.000353343
0.000455326
0.000622122
0.000895219
0.00134389
0.00221288
0.00430161
0.00962242
0.0194898
0.0229592
0.0166622
0.00209569
0.0043166
0.00401889
0.00313646
0.00226321
0.0015754
0.00110666
0.000827242
0.000669366
0.000574247
0.000506984
0.000451739
0.000403038
0.000359705
0.000321826
0.000289561
0.000262828
0.00024134
0.000224694
0.000212547
0.000204446
0.000200572
0.00020131
0.000204714
0.000212491
0.000226287
0.000246917
0.000277024
0.000321196
0.00038816
0.000493549
0.000665674
0.000946807
0.00140256
0.0022504
0.00427092
0.00958431
0.0203878
0.0248072
0.0172137
0.0017349
0.00419122
0.00406443
0.00336205
0.00249936
0.00179509
0.00127775
0.000942043
0.00074074
0.000619597
0.000539759
0.000479945
0.000430598
0.000388143
0.000351477
0.000320274
0.000294321
0.000273367
0.000257062
0.000245208
0.000237271
0.000233834
0.000234801
0.000238598
0.000247035
0.000261645
0.000283379
0.000315114
0.000361652
0.000432277
0.000542778
0.000722463
0.00101403
0.00148301
0.00231358
0.00426311
0.0095476
0.0211974
0.0265973
0.0177309
0.00143891
0.00393228
0.00410568
0.00358015
0.00274156
0.00204183
0.00149334
0.00110506
0.000852905
0.000694775
0.000592585
0.000521124
0.000466627
0.000422481
0.000385747
0.000355116
0.000329906
0.000309692
0.000294021
0.000282835
0.000275321
0.000272789
0.000274121
0.000278528
0.000287963
0.000303707
0.000326969
0.000361035
0.000410943
0.000486835
0.000604425
0.000794421
0.001099
0.00158827
0.00241221
0.00430362
0.00953216
0.0219268
0.028257
0.0182111
0.00117037
0.00339156
0.004176
0.00379473
0.00299921
0.00231335
0.00175422
0.00132659
0.00102267
0.000817646
0.000680996
0.000587386
0.000519957
0.000468873
0.000428774
0.000396786
0.000371278
0.000351352
0.000336149
0.000325759
0.000318712
0.000317492
0.000319325
0.000324578
0.000335407
0.000352788
0.000378253
0.000415759
0.000470461
0.000553846
0.000681011
0.000885125
0.00120605
0.00172439
0.00255449
0.00441064
0.00954972
0.0225658
0.0297029
0.018677
0.00092016
0.00254976
0.00410528
0.00388385
0.00324587
0.00259092
0.00204867
0.00160826
0.00126691
0.00101451
0.000833678
0.000705188
0.000612881
0.000545155
0.000494402
0.000455841
0.000426386
0.000404318
0.000387911
0.000377349
0.000370089
0.000369902
0.00037226
0.000378504
0.000391084
0.000410925
0.000439713
0.000482513
0.000544204
0.000638555
0.00077897
0.0010035
0.00134678
0.00190836
0.00276634
0.00462739
0.00970535
0.0231997
0.030841
0.0191513
0.000791289
0.00178161
0.00381063
0.00381761
0.00349055
0.00288404
0.00237761
0.00194977
0.0015933
0.00130565
0.00108068
0.00090891
0.000779478
0.000682495
0.000609824
0.000555489
0.000514866
0.000485216
0.000463527
0.000449758
0.000440337
0.000439347
0.000441941
0.000449087
0.000463651
0.000487347
0.000521382
0.000572792
0.000645359
0.000757109
0.000917759
0.00117535
0.00155455
0.00218743
0.0031155
0.00505641
0.010121
0.0239533
0.0315428
0.0194394
0.000819727
0.00138048
0.00312333
0.00360982
0.00349883
0.00317154
0.00275023
0.00237249
0.0020322
0.00173103
0.00147315
0.00125873
0.00108496
0.000946597
0.000838276
0.000754146
0.000689505
0.000640649
0.000604768
0.000580416
0.000564164
0.000557337
0.000559336
0.000566835
0.000583157
0.000613391
0.000656978
0.000724463
0.000817134
0.000961313
0.00115949
0.00148013
0.00192963
0.00269721
0.0037864
0.00596911
0.0111603
0.0250911
0.0318259
0.0195433
0.0011666
0.00122576
0.00235007
0.00312807
0.00345019
0.00338291
0.00317674
0.00288575
0.00259413
0.00231045
0.00204193
0.00179771
0.00158273
0.00139934
0.00124493
0.00112247
0.00102575
0.000950643
0.000893084
0.000851641
0.000824033
0.000809644
0.000811867
0.000822613
0.000846707
0.00089365
0.000961888
0.00106799
0.00120979
0.00142871
0.00171555
0.002179
0.0027924
0.00384962
0.0053007
0.00801176
0.0134739
0.0269474
0.0318187
0.0194137
0.00188811
0.00143057
0.00218387
0.00306981
0.00361833
0.00386988
0.00387894
0.00376879
0.00354199
0.0032767
0.00300221
0.00273268
0.00248191
0.00225699
0.0020619
0.00189508
0.00175909
0.00165187
0.00157216
0.00151941
0.00148765
0.00148991
0.00150794
0.00155123
0.00162963
0.0017461
0.00190028
0.002125
0.00242078
0.00284604
0.00339111
0.00422402
0.00526983
0.00700331
0.00915415
0.0131564
0.0186446
0.0301797
0.0316676
0.0188137
0.00312639
0.00218053
0.00304677
0.00412508
0.00495877
0.0055585
0.00582912
0.00586306
0.00574776
0.00550038
0.00520936
0.00490535
0.00461689
0.00435539
0.00413555
0.00395755
0.00382957
0.00374213
0.00371941
0.00373896
0.00379885
0.00392323
0.00411335
0.00435861
0.00469386
0.00510115
0.0056407
0.00627863
0.00709032
0.00812771
0.00951666
0.0113164
0.0135691
0.0166843
0.0203195
0.0260121
0.0309721
0.0360443
0.0326268
0.0176885
0.00514446
0.0050264
0.00845332
0.0112764
0.0128782
0.0137272
0.0140097
0.0139475
0.0137332
0.0133516
0.0129475
0.0125625
0.0122458
0.0120114
0.0118724
0.0118797
0.0119577
0.0121414
0.0124747
0.012923
0.0135165
0.0142145
0.0150938
0.0160865
0.0173383
0.0186915
0.0204458
0.0222418
0.0246975
0.0270037
0.0302442
0.0331106
0.0373336
0.0407043
0.045704
0.0484612
0.0473323
0.04201
0.0330589
0.0153838
0.00348799
0.00534609
0.00696494
0.00857723
0.0100695
0.011413
0.0125659
0.0134902
0.0141475
0.0145558
0.0148127
0.0148847
0.0148538
0.014761
0.0146016
0.0143908
0.0141631
0.0139422
0.0137112
0.0135026
0.0133027
0.0131341
0.0129865
0.0128729
0.0127927
0.0127462
0.0127539
0.0127868
0.0128768
0.0129781
0.0131954
0.0133873
0.0138312
0.0141782
0.0149585
0.0154581
0.0163038
0.0163726
0.0158189
0.0132074
)
;

boundaryField
{
    movingWall
    {
        type            epsilonWallFunction;
        value           nonuniform List<scalar> 
40
(
0.00348799
0.00534609
0.00696494
0.00857723
0.0100695
0.011413
0.0125659
0.0134902
0.0141475
0.0145558
0.0148127
0.0148847
0.0148538
0.014761
0.0146016
0.0143908
0.0141631
0.0139422
0.0137112
0.0135026
0.0133027
0.0131341
0.0129865
0.0128729
0.0127927
0.0127462
0.0127539
0.0127868
0.0128768
0.0129781
0.0131954
0.0133873
0.0138312
0.0141782
0.0149585
0.0154581
0.0163038
0.0163726
0.0158189
0.0132074
)
;
    }
    fixedWalls
    {
        type            epsilonWallFunction;
        value           nonuniform List<scalar> 
120
(
3.01722e-05
0.000145492
0.000438695
0.00100286
0.00188253
0.00313355
0.00470042
0.00637254
0.00779792
0.00884397
0.00959319
0.00999664
0.0099833
0.00985885
0.00956092
0.00904924
0.00846381
0.00776496
0.00708278
0.00628042
0.00562587
0.00506569
0.00456801
0.00411333
0.00368683
0.00328071
0.00288385
0.00249291
0.00209569
0.0017349
0.00143891
0.00117037
0.00092016
0.000791289
0.000819727
0.0011666
0.00188811
0.00312639
0.00514446
0.00348799
5.09146e-05
8.66783e-05
7.09797e-05
4.84436e-05
5.49278e-05
0.000101083
0.000227551
0.00056912
0.00154979
0.0027679
0.00394282
0.00488766
0.0057708
0.00658596
0.00738145
0.00815306
0.00891894
0.00967804
0.0104312
0.0111827
0.011924
0.012662
0.0133836
0.0140937
0.0147786
0.0154409
0.0160676
0.0166622
0.0172137
0.0177309
0.0182111
0.018677
0.0191513
0.0194394
0.0195433
0.0194137
0.0188137
0.0176885
0.0153838
0.0132074
3.01722e-05
0.000101369
0.00019608
0.000194346
0.000176684
0.000180573
0.000233541
0.000399216
0.000603579
0.000898885
0.00136156
0.00166863
0.00181633
0.00201642
0.00233282
0.0027374
0.00310616
0.0035332
0.00394079
0.00441176
0.00488964
0.0054401
0.0060327
0.00672735
0.00753473
0.00823652
0.00896192
0.00957199
0.0101035
0.0103879
0.0105003
0.0102821
0.00946052
0.00806073
0.00608341
0.00363545
0.0017831
0.000755618
0.00024321
5.09146e-05
)
;
    }
    frontAndBack
    {
        type            empty;
    }
}


// ************************************************************************* //
