/*--------------------------------*- C++ -*----------------------------------*\
  =========                 |
  \\      /  F ield         | OpenFOAM: The Open Source CFD Toolbox
   \\    /   O peration     | Website:  https://openfoam.org
    \\  /    A nd           | Version:  13
     \\/     M anipulation  |
\*---------------------------------------------------------------------------*/
FoamFile
{
    format      ascii;
    class       volScalarField;
    location    "9";
    object      k;
}
// * * * * * * * * * * * * * * * * * * * * * * * * * * * * * * * * * * * * * //

dimensions      [0 2 -2 0 0 0 0];

internalField   nonuniform List<scalar> 
1600
(
2.35793e-06
7.92132e-06
1.53217e-05
1.51859e-05
1.38057e-05
1.41096e-05
1.82489e-05
3.11949e-05
4.71632e-05
7.02429e-05
0.00010639
0.000130378
0.000141917
0.000157555
0.00018228
0.000213893
0.000242705
0.000276071
0.000307916
0.000344715
0.000382052
0.00042506
0.000471361
0.000525635
0.000588717
0.000643546
0.00070022
0.000747883
0.000789411
0.000811624
0.000820406
0.000803356
0.000739168
0.000629805
0.000475317
0.000284058
0.000139328
5.9044e-05
1.90051e-05
3.9787e-06
1.13699e-05
5.07411e-05
9.65517e-05
0.000102418
9.91763e-05
0.000105986
0.00015035
0.000258069
0.000362432
0.000507269
0.000715697
0.000811277
0.00082868
0.000829132
0.000828665
0.000867979
0.00088696
0.000931957
0.000964571
0.00101563
0.00106271
0.00112094
0.00117714
0.00123544
0.00128862
0.00135726
0.00142235
0.00149305
0.00155182
0.00158625
0.00159836
0.00156186
0.00145283
0.00125605
0.000991793
0.000615113
0.000281383
0.000118512
4.21118e-05
6.77336e-06
3.42829e-05
0.000132814
0.000206666
0.000219642
0.000238955
0.000314645
0.000522497
0.000845981
0.00109574
0.00117999
0.00111078
0.00099859
0.000945118
0.00092642
0.000921648
0.000927321
0.000937715
0.000956605
0.000976679
0.00100493
0.00103005
0.00105851
0.00108783
0.00112155
0.0011575
0.00119692
0.00123716
0.00127917
0.00131979
0.00135829
0.00137954
0.00138775
0.00137067
0.0012596
0.00107201
0.000692917
0.000260419
9.71901e-05
3.77716e-05
5.54665e-06
7.83694e-05
0.00027237
0.000373501
0.000415017
0.000517859
0.00076112
0.00111209
0.00128903
0.00131031
0.00116009
0.00104677
0.000961995
0.000925462
0.000910787
0.000905698
0.000905518
0.000910772
0.000920482
0.000931261
0.000945567
0.000961876
0.000982761
0.00100368
0.00102756
0.00105203
0.00107831
0.00110546
0.00113341
0.00116028
0.00118504
0.00120248
0.00121067
0.00121248
0.00119069
0.00112961
0.000951814
0.000415585
0.000100649
2.78779e-05
3.78552e-06
0.000147108
0.000474328
0.000611643
0.000707794
0.000911862
0.00121647
0.00136364
0.00136941
0.00123051
0.00103893
0.000944612
0.000898976
0.000877454
0.000867393
0.000863785
0.000864554
0.000876538
0.000888669
0.000905224
0.00092215
0.000940454
0.000958714
0.000977417
0.000997136
0.00101831
0.00104164
0.00106725
0.00109462
0.00112161
0.00114351
0.00115853
0.00116578
0.00116809
0.00116
0.00113135
0.00106006
0.000799509
0.000220065
3.77377e-05
4.29196e-06
0.000244863
0.000723232
0.000897764
0.00103446
0.00125514
0.00138031
0.00138948
0.00127326
0.00103674
0.000921568
0.000867871
0.000842812
0.000832397
0.000829625
0.000834392
0.000847059
0.000862601
0.00087817
0.0008946
0.000910699
0.000927221
0.000943702
0.000961323
0.00098039
0.00100212
0.00102701
0.00105561
0.00108781
0.0011227
0.00115816
0.00117712
0.00118197
0.00117932
0.0011649
0.00113467
0.00108232
0.000945623
0.000456165
8.10286e-05
7.89787e-06
0.000367293
0.000979493
0.00118351
0.00130085
0.00138821
0.00139966
0.00130342
0.00105685
0.000908385
0.000843696
0.000815319
0.000804407
0.000801909
0.000807776
0.000819877
0.000832907
0.000845293
0.000856895
0.000868074
0.000878077
0.000888639
0.00090108
0.000916685
0.000936351
0.000960819
0.000991104
0.00102769
0.00107061
0.00111876
0.00116935
0.00122159
0.00125862
0.00126701
0.00125745
0.00121314
0.00112639
0.000996961
0.000716935
0.000164553
1.77786e-05
0.000497946
0.00123227
0.00140863
0.00144438
0.00143556
0.00133593
0.00111064
0.000913688
0.000829007
0.000793861
0.000780686
0.000777496
0.000780815
0.000790341
0.00079841
0.000804773
0.000808783
0.000811013
0.00081275
0.000815537
0.000820877
0.000829746
0.000843285
0.000862482
0.000888412
0.000922232
0.000964974
0.00101748
0.00107976
0.00115001
0.00122299
0.00129042
0.00133342
0.0013412
0.00132858
0.00125371
0.00108865
0.000818881
0.000281717
4.44648e-05
0.000609313
0.00143539
0.00157122
0.00153504
0.00140004
0.00119258
0.000946952
0.000828749
0.000779566
0.000760867
0.000755324
0.000754836
0.000759485
0.000761772
0.000762102
0.000758338
0.000752635
0.000746403
0.000741955
0.000740145
0.000740203
0.000746626
0.00075816
0.00077648
0.000802369
0.000837117
0.00088211
0.000938989
0.00100931
0.00109375
0.00119021
0.00129066
0.00137287
0.00141042
0.00141351
0.00137503
0.00124142
0.00097078
0.000512902
0.000121084
0.000691044
0.0015721
0.00167412
0.00153338
0.00131146
0.00103402
0.000852902
0.000776585
0.000746189
0.000735056
0.000731496
0.000730435
0.000729489
0.000723331
0.000713886
0.000701323
0.000688382
0.000676471
0.000667162
0.00066242
0.000660859
0.000664441
0.000675011
0.000692239
0.000717414
0.000751554
0.000796185
0.000853239
0.000925178
0.00101466
0.00112338
0.00124922
0.001381
0.00147002
0.00149599
0.0014791
0.00136426
0.00109086
0.000624897
0.000216256
0.000749582
0.00166276
0.00173641
0.00150476
0.00119025
0.000921603
0.000794192
0.000741029
0.000719537
0.000710663
0.000706457
0.00070118
0.000692115
0.000677547
0.000660271
0.000641603
0.000624
0.000608665
0.000596815
0.000590375
0.000587981
0.00058962
0.000599428
0.000615606
0.000639807
0.000672845
0.000716219
0.000771847
0.000842438
0.000931544
0.0010431
0.00117943
0.00133625
0.00149354
0.00157398
0.00158582
0.00151329
0.00125365
0.000769568
0.000308052
0.000781103
0.00169634
0.00173783
0.00144228
0.00107789
0.000851184
0.000753514
0.000712577
0.000695031
0.000686626
0.000679079
0.000667495
0.000650758
0.000629589
0.000606971
0.000584554
0.000564272
0.000547081
0.000533865
0.000526295
0.000523327
0.000523571
0.00053238
0.000547489
0.000570517
0.00060227
0.000644149
0.000697969
0.000766388
0.000853298
0.000964066
0.00110476
0.00127852
0.00147668
0.00162491
0.00166841
0.00162963
0.00138557
0.000888239
0.000381872
0.000780061
0.00169246
0.00172089
0.00136569
0.000987416
0.000801493
0.000721853
0.000687641
0.000671976
0.000662082
0.000649714
0.000631894
0.000609126
0.000583404
0.000557491
0.000532959
0.000511233
0.000493039
0.000479002
0.000470365
0.00046668
0.000466251
0.000473612
0.00048759
0.000509291
0.000539636
0.000579944
0.000631899
0.000697916
0.000781648
0.000888661
0.00102668
0.00120371
0.00142052
0.00164659
0.00175335
0.00175441
0.00153914
0.00100858
0.000450871
0.000770337
0.00167215
0.00168038
0.00128423
0.000924854
0.000763961
0.000695323
0.00066489
0.00065002
0.000637246
0.000619967
0.000596973
0.000569933
0.000541319
0.000513515
0.000487858
0.000465373
0.0004466
0.000431987
0.000422393
0.000418018
0.000417121
0.000422969
0.000435708
0.000455975
0.000484801
0.000523496
0.000573696
0.000637648
0.000718733
0.000822385
0.000957162
0.00113466
0.00136448
0.00163779
0.00182333
0.00185668
0.0016774
0.00112844
0.000514558
0.000747058
0.00162773
0.00161957
0.00121222
0.000878383
0.000733718
0.00067214
0.000644344
0.00062912
0.00061306
0.00059151
0.000564628
0.000534759
0.000504425
0.000475612
0.000449413
0.000426565
0.000407479
0.00039249
0.000382137
0.000377178
0.000375878
0.000380363
0.000391776
0.000410513
0.000437662
0.000474577
0.000522911
0.000584801
0.000663302
0.000763326
0.000893151
0.00106577
0.00129662
0.00159038
0.00186713
0.00195882
0.00182095
0.00124896
0.000576709
0.000707079
0.00157103
0.00155168
0.00115216
0.000842147
0.000708681
0.000651917
0.000625988
0.000609632
0.000590519
0.000565592
0.000535977
0.000504339
0.000473058
0.000443788
0.000417413
0.000394481
0.000375312
0.000360166
0.000349302
0.00034388
0.000342249
0.000345603
0.000355671
0.000372807
0.00039813
0.000433079
0.000479405
0.000539272
0.000615572
0.000712788
0.000838733
0.001007
0.00123708
0.00154252
0.00188505
0.00204491
0.00195705
0.00137279
0.000636992
0.000661339
0.00150626
0.00148183
0.00110309
0.000813543
0.000687814
0.000634458
0.000609743
0.000592002
0.000570369
0.000542959
0.000511538
0.000478874
0.000447158
0.00041779
0.000391496
0.000368698
0.000349645
0.000334527
0.000323522
0.000317693
0.000315791
0.000318261
0.000327032
0.000342542
0.000365933
0.000398729
0.000442823
0.000500501
0.000574592
0.000669147
0.000791132
0.000953726
0.00117955
0.0014942
0.0018876
0.00212607
0.00209047
0.0014968
0.000696828
0.000606737
0.00144321
0.00141499
0.00106386
0.000791425
0.000670833
0.000619661
0.000595578
0.000576542
0.000553034
0.000523944
0.000491432
0.000458263
0.000426462
0.000397244
0.000371224
0.000348738
0.000329975
0.000315067
0.00030413
0.000297989
0.000295854
0.000297658
0.000305242
0.000319166
0.000340596
0.000371131
0.000412819
0.000468169
0.000540129
0.000632533
0.000751519
0.000909071
0.00112825
0.00144249
0.00186392
0.00219614
0.00221868
0.00162908
0.000756135
0.000553438
0.00137756
0.00135283
0.00103364
0.000775207
0.000657025
0.000607219
0.00058344
0.000563413
0.000538673
0.000508594
0.000475555
0.000442264
0.000410622
0.000381724
0.000356114
0.000334065
0.000315716
0.000301142
0.000290401
0.000284025
0.000281659
0.000282966
0.000289501
0.000301944
0.000321477
0.000349743
0.000388913
0.000441778
0.000511515
0.000601944
0.000718497
0.000871775
0.00108434
0.00139495
0.0018333
0.00225727
0.00234297
0.00176236
0.000814976
0.000490747
0.00132179
0.00129742
0.00101081
0.00076433
0.000647079
0.000597217
0.000573223
0.000552552
0.000527209
0.000496761
0.000463637
0.00043051
0.000399214
0.000370766
0.000345658
0.00032412
0.000306247
0.00029207
0.000281596
0.000275063
0.000272427
0.000273325
0.000278954
0.000290065
0.000307865
0.000333978
0.000370627
0.000420938
0.000488395
0.000577043
0.000691788
0.000841661
0.00104764
0.0013517
0.00179909
0.0023004
0.00246485
0.00190406
0.000873688
0.000439604
0.00126145
0.00124997
0.000994851
0.000759923
0.000639459
0.000589119
0.000564816
0.000543874
0.000518475
0.000488176
0.000455404
0.000422723
0.000391883
0.000363924
0.000339349
0.000318355
0.000300989
0.000287225
0.000277028
0.000270452
0.000267564
0.000268381
0.000273353
0.000283343
0.000299443
0.000323251
0.000357473
0.000405268
0.000470383
0.000557345
0.000670772
0.000818147
0.00101824
0.00131472
0.00176745
0.00233167
0.00258421
0.00204827
0.000931604
0.000395834
0.00119923
0.00120487
0.000987898
0.000761738
0.000637836
0.00058348
0.000557937
0.000536986
0.000512095
0.000482512
0.000450344
0.000418197
0.000388093
0.000360949
0.000337104
0.000316711
0.000299791
0.0002863
0.000276201
0.000269519
0.000266386
0.000267035
0.000271429
0.000280725
0.000295656
0.000317865
0.000349723
0.000394575
0.000457243
0.000542616
0.000655146
0.000800846
0.000995614
0.00128308
0.00173798
0.00234968
0.00270102
0.00220036
0.000989263
0.000356948
0.00113807
0.00116479
0.00098867
0.000767978
0.000639776
0.000580342
0.000552974
0.000531912
0.000507826
0.000479251
0.000448426
0.00041767
0.000388341
0.000361567
0.000338011
0.000317874
0.00030118
0.000287883
0.000277935
0.000271348
0.000268239
0.000268696
0.00027231
0.000280613
0.000294756
0.000316023
0.000346463
0.000389326
0.000449695
0.000533169
0.000645134
0.000790243
0.000979792
0.00125729
0.00171018
0.00236036
0.00281564
0.00235637
0.00104563
0.000321421
0.00107884
0.00112879
0.000992081
0.000781632
0.000645754
0.00058101
0.000549212
0.00052808
0.000505163
0.000478382
0.000448952
0.000418922
0.00039027
0.000364121
0.000341073
0.000321402
0.000305126
0.000292173
0.000282475
0.000276022
0.000272956
0.000273381
0.000276576
0.000284154
0.000297296
0.000317084
0.000345965
0.000387607
0.000446637
0.000528811
0.000640466
0.000785483
0.000971898
0.00123731
0.00168335
0.00236508
0.00292667
0.00251876
0.00110111
0.000288095
0.00102131
0.00109781
0.00100002
0.000800014
0.0006582
0.000584329
0.000549196
0.000525822
0.000503883
0.00047887
0.000450786
0.000422156
0.000394699
0.000369544
0.00034728
0.000328158
0.000312258
0.000299563
0.00029002
0.000283613
0.000280544
0.000280988
0.000283982
0.000291133
0.000303733
0.000322687
0.000350153
0.000389575
0.0004464
0.000527714
0.000639203
0.000784318
0.00096906
0.00122353
0.00165892
0.00236636
0.00303489
0.00268551
0.00115462
0.000256362
0.000965415
0.00107067
0.00100613
0.000829216
0.000678376
0.000592214
0.000550929
0.000526049
0.000504214
0.000480354
0.00045448
0.000427644
0.000401545
0.000377402
0.000355902
0.000337366
0.000321909
0.000309538
0.000300221
0.00029394
0.000290988
0.000291514
0.000294472
0.000301441
0.000313734
0.000332159
0.00035881
0.000397108
0.000452431
0.000532141
0.000643389
0.000789117
0.000970851
0.00121681
0.00163658
0.00236341
0.00313716
0.0028573
0.00120636
0.000225352
0.000908889
0.00104719
0.00100774
0.000864049
0.00070782
0.000608214
0.000556333
0.000527828
0.000505552
0.000483207
0.000459302
0.000434445
0.000409993
0.000387124
0.000366597
0.000348811
0.000333937
0.000322019
0.000313062
0.000307029
0.00030437
0.000305041
0.000308109
0.000315131
0.000327323
0.000345473
0.000371607
0.00040909
0.000463368
0.000542218
0.000653322
0.000799691
0.000980061
0.00121461
0.00161637
0.00235746
0.00323542
0.00302992
0.00125532
0.000194804
0.000851244
0.00102285
0.00100577
0.000901907
0.000744666
0.000633033
0.000568065
0.000532804
0.000508695
0.000487139
0.000465018
0.000442207
0.000419628
0.000398313
0.000379029
0.000362234
0.00034816
0.000336895
0.000328499
0.00032287
0.000320756
0.000321645
0.000324961
0.000332264
0.000344551
0.000362662
0.000388585
0.00042566
0.000479295
0.000557427
0.00066816
0.000814649
0.000993147
0.00121604
0.0015975
0.00234204
0.00332897
0.00320291
0.00130178
0.000163764
0.000788102
0.00100108
0.000999902
0.000936584
0.000791893
0.000668646
0.000589643
0.000543584
0.000515153
0.000492791
0.000471733
0.000450737
0.0004301
0.000410562
0.000392804
0.000377293
0.000364301
0.000353948
0.000346376
0.000341342
0.000340086
0.000341273
0.000344972
0.000352788
0.000365351
0.000383642
0.000409632
0.000446676
0.000500076
0.000577746
0.000687827
0.000833715
0.00101004
0.00122232
0.00158137
0.00231875
0.00341472
0.00336912
0.00134486
0.000135568
0.000728495
0.000975953
0.000991935
0.000955577
0.000845111
0.00071673
0.000623743
0.000564876
0.00052819
0.000502344
0.00048071
0.000460649
0.000441583
0.000423772
0.000407671
0.000393664
0.000382017
0.000372843
0.000366354
0.000362169
0.000362041
0.000363608
0.000367857
0.000376424
0.000389425
0.000408098
0.000434416
0.000471779
0.000525281
0.000602609
0.000711487
0.000855558
0.00102853
0.00122968
0.00156597
0.00228737
0.00348707
0.00352404
0.00138527
0.000112437
0.000665769
0.000959583
0.000984553
0.000964478
0.000893652
0.000774149
0.000672566
0.000600236
0.000552283
0.000519463
0.000494556
0.000473636
0.000455071
0.000438428
0.000423762
0.000411248
0.000401033
0.000393247
0.000387888
0.000385192
0.000385707
0.000388012
0.00039327
0.000402564
0.000416156
0.000435416
0.000462301
0.000500279
0.000554078
0.000630978
0.000737801
0.000878448
0.00104657
0.00123671
0.00155108
0.00225274
0.00354351
0.00365772
0.00142279
9.14507e-05
0.000583446
0.000952355
0.000983938
0.000971141
0.000928086
0.00083473
0.00073587
0.000654585
0.000594516
0.000551411
0.000519532
0.000494614
0.000474201
0.000457101
0.000442794
0.000431124
0.000421914
0.000415385
0.000410914
0.000409895
0.00041094
0.000414015
0.000420406
0.000430472
0.000444774
0.000464802
0.000492432
0.000531197
0.000585218
0.000661262
0.000764818
0.000900166
0.00106182
0.00124192
0.00153956
0.00222144
0.00358253
0.00375898
0.00145918
7.18978e-05
0.000482889
0.000932635
0.000985274
0.000979181
0.000954457
0.000893333
0.000807926
0.000727358
0.000659621
0.000606054
0.000564481
0.000532025
0.000506357
0.000485924
0.000469684
0.000457146
0.000447615
0.000441421
0.000437142
0.000437138
0.000438528
0.000442161
0.00044936
0.000460091
0.000475068
0.000495903
0.000524258
0.0005637
0.000617461
0.000691822
0.000790706
0.000919081
0.00107344
0.00124665
0.00153496
0.00220702
0.0036079
0.00380838
0.00149623
6.18271e-05
0.00039896
0.000882112
0.000980327
0.00098332
0.000975421
0.000948364
0.000889852
0.000819355
0.000752077
0.000692394
0.0006417
0.000599715
0.000565475
0.00053801
0.000516261
0.000499658
0.000487135
0.000478861
0.000473231
0.000471954
0.000473064
0.000476361
0.000483182
0.000494035
0.000509237
0.000530504
0.000559137
0.000598703
0.000651353
0.000723075
0.000816427
0.000937518
0.00108647
0.00126073
0.00154741
0.00220581
0.00363284
0.00382658
0.00151873
6.40509e-05
0.000369504
0.000781838
0.00095487
0.000989216
0.000998459
0.000993885
0.000973933
0.000929986
0.000872807
0.000814829
0.000760035
0.000710617
0.000667511
0.000631021
0.000600812
0.00057657
0.000557563
0.000543405
0.000533541
0.000527204
0.000525746
0.000527183
0.000531571
0.000540795
0.00055513
0.000576034
0.000604306
0.000643469
0.000694737
0.00076411
0.000853753
0.000971244
0.00112308
0.00131373
0.00162682
0.00228914
0.00367608
0.00380992
0.00152685
9.11587e-05
0.000393817
0.000690101
0.000898263
0.00100025
0.0010464
0.00106913
0.00106964
0.00105829
0.00102883
0.000982122
0.000930682
0.000878975
0.000829691
0.000784777
0.000744876
0.000710498
0.000681445
0.000657935
0.000639225
0.000626096
0.00061684
0.00061451
0.000616548
0.000622655
0.000635339
0.000656172
0.0006852
0.000725979
0.000779556
0.000852232
0.000947761
0.00107495
0.00125005
0.00148084
0.00185601
0.00251262
0.00374027
0.00370351
0.00151671
0.000147542
0.000492625
0.000707963
0.000920402
0.00106194
0.00116043
0.00122366
0.00125273
0.00125887
0.00124957
0.00122406
0.00117996
0.00112855
0.00107427
0.00102073
0.000970224
0.000924695
0.000884621
0.000851467
0.000825009
0.000807123
0.000794589
0.000791408
0.000794213
0.000802579
0.000819969
0.000848
0.000887328
0.000942389
0.00101448
0.00111169
0.00123946
0.0014088
0.00164152
0.00194375
0.00240196
0.00302134
0.00386374
0.00360129
0.00146988
0.000244301
0.000690307
0.000885998
0.00112238
0.00131035
0.00145839
0.00155771
0.00160857
0.00161409
0.00160458
0.00158009
0.00153745
0.00148832
0.001436
0.00138672
0.00134028
0.00130107
0.00126914
0.00124594
0.00122848
0.00122373
0.00122742
0.0012387
0.00126238
0.00129935
0.00134883
0.00141624
0.00149765
0.00160407
0.00173303
0.0019059
0.00210927
0.00237512
0.00268904
0.00308477
0.00357627
0.00400072
0.00413451
0.00347436
0.00138207
0.000401975
0.0011361
0.0015636
0.00195763
0.00220087
0.00235191
0.00243511
0.00246546
0.00245604
0.0024333
0.0024033
0.00236742
0.00233402
0.00230083
0.00228063
0.00226133
0.00226179
0.00226868
0.00228575
0.00231785
0.00236259
0.00242196
0.002496
0.00258538
0.00269401
0.00281748
0.00296911
0.00312934
0.00333753
0.00353208
0.00380243
0.00402548
0.00437
0.00459063
0.00499781
0.00508093
0.00493189
0.00433519
0.00304108
0.00120204
0.000272543
0.000417724
0.000544211
0.000670184
0.000786783
0.000891764
0.000981845
0.00105406
0.00110543
0.00113733
0.00115741
0.00116303
0.00116061
0.00115336
0.00114091
0.00112443
0.00110663
0.00108937
0.00107132
0.00105501
0.00103939
0.0010262
0.00101467
0.00100578
0.000999506
0.000995862
0.000996455
0.000999014
0.00100604
0.00101384
0.00103106
0.00104576
0.00108069
0.00110761
0.00116867
0.00120769
0.00127369
0.00127912
0.00123583
0.00103178
)
;

boundaryField
{
    movingWall
    {
        type            kqRWallFunction;
        value           nonuniform List<scalar> 
40
(
0.000272543
0.000417724
0.000544211
0.000670184
0.000786783
0.000891764
0.000981845
0.00105406
0.00110543
0.00113733
0.00115741
0.00116303
0.00116061
0.00115336
0.00114091
0.00112443
0.00110663
0.00108937
0.00107132
0.00105501
0.00103939
0.0010262
0.00101467
0.00100578
0.000999506
0.000995862
0.000996455
0.000999014
0.00100604
0.00101384
0.00103106
0.00104576
0.00108069
0.00110761
0.00116867
0.00120769
0.00127369
0.00127912
0.00123583
0.00103178
)
;
    }
    fixedWalls
    {
        type            kqRWallFunction;
        value           nonuniform List<scalar> 
120
(
2.35793e-06
1.13699e-05
3.42829e-05
7.83694e-05
0.000147108
0.000244863
0.000367293
0.000497946
0.000609313
0.000691044
0.000749582
0.000781103
0.000780061
0.000770337
0.000747058
0.000707079
0.000661339
0.000606737
0.000553438
0.000490747
0.000439604
0.000395834
0.000356948
0.000321421
0.000288095
0.000256362
0.000225352
0.000194804
0.000163764
0.000135568
0.000112437
9.14507e-05
7.18978e-05
6.18271e-05
6.40509e-05
9.11587e-05
0.000147542
0.000244301
0.000401975
0.000272543
3.9787e-06
6.77336e-06
5.54665e-06
3.78552e-06
4.29196e-06
7.89787e-06
1.77786e-05
4.44648e-05
0.000121084
0.000216256
0.000308052
0.000381872
0.000450871
0.000514558
0.000576709
0.000636992
0.000696828
0.000756135
0.000814976
0.000873688
0.000931604
0.000989263
0.00104563
0.00110111
0.00115462
0.00120636
0.00125532
0.00130178
0.00134486
0.00138527
0.00142279
0.00145918
0.00149623
0.00151873
0.00152685
0.00151671
0.00146988
0.00138207
0.00120204
0.00103178
2.35793e-06
7.92132e-06
1.53217e-05
1.51859e-05
1.38057e-05
1.41096e-05
1.82489e-05
3.11949e-05
4.71632e-05
7.02429e-05
0.00010639
0.000130378
0.000141917
0.000157555
0.00018228
0.000213893
0.000242705
0.000276071
0.000307916
0.000344715
0.000382052
0.00042506
0.000471361
0.000525635
0.000588717
0.000643546
0.00070022
0.000747883
0.000789411
0.000811624
0.000820406
0.000803356
0.000739168
0.000629805
0.000475317
0.000284058
0.000139328
5.9044e-05
1.90051e-05
3.9787e-06
)
;
    }
    frontAndBack
    {
        type            empty;
    }
}


// ************************************************************************* //
