/*--------------------------------*- C++ -*----------------------------------*\
  =========                 |
  \\      /  F ield         | OpenFOAM: The Open Source CFD Toolbox
   \\    /   O peration     | Website:  https://openfoam.org
    \\  /    A nd           | Version:  13
     \\/     M anipulation  |
\*---------------------------------------------------------------------------*/
FoamFile
{
    format      ascii;
    class       volScalarField;
    location    "6";
    object      k;
}
// * * * * * * * * * * * * * * * * * * * * * * * * * * * * * * * * * * * * * //

dimensions      [0 2 -2 0 0 0 0];

internalField   nonuniform List<scalar> 
400
(
3.77528e-06
9.43802e-06
4.79266e-05
0.000136993
0.000213675
0.000267463
0.000309553
0.000349446
0.000383959
0.000418867
0.000451511
0.000485536
0.000519832
0.000544095
0.000555376
0.000556967
0.000519016
0.00041102
0.000251818
0.000181357
1.77808e-05
6.51296e-05
0.000161157
0.00032192
0.000397989
0.000484899
0.00053308
0.000601072
0.000656002
0.000718979
0.000778716
0.000840568
0.00089715
0.000955221
0.0010077
0.00103371
0.00104016
0.000938347
0.000623583
0.000383296
6.76929e-05
0.000230814
0.00040802
0.000511152
0.000576379
0.00064116
0.000685336
0.000742186
0.000790405
0.000842176
0.000887711
0.000932052
0.00097336
0.00102035
0.00106758
0.00110261
0.00111419
0.00106569
0.000777863
0.000503096
0.000152819
0.000436418
0.00054795
0.000601784
0.000648196
0.000689543
0.000723667
0.000765039
0.000800779
0.000836822
0.000868216
0.000899181
0.000937647
0.000987891
0.00105242
0.00112035
0.00115254
0.00115399
0.000921175
0.000580041
0.000235306
0.000556474
0.000610941
0.000628552
0.000656815
0.000685776
0.000712743
0.000738815
0.000751819
0.000757923
0.000764424
0.00078475
0.000824937
0.000890456
0.000989561
0.00111827
0.00120909
0.00123077
0.00105163
0.000638524
0.00028931
0.00060515
0.000621522
0.000626375
0.000649363
0.000666017
0.000671407
0.000665967
0.000646901
0.000635152
0.000631196
0.000642391
0.000681037
0.000755462
0.000879424
0.00105917
0.00124638
0.00132053
0.00119236
0.000685018
0.000302392
0.000601689
0.000615391
0.000616727
0.000625903
0.000624044
0.000607188
0.000580018
0.000547275
0.000525096
0.000515999
0.000519
0.000552595
0.000625884
0.000759086
0.000972401
0.00125592
0.00140526
0.00132789
0.000721494
0.000297998
0.000587559
0.000599288
0.00059538
0.000594031
0.00057985
0.000549568
0.000510898
0.000472387
0.000445739
0.000434021
0.000433193
0.000459305
0.000523096
0.00064979
0.000875753
0.00121928
0.00147927
0.00147224
0.000750447
0.000285929
0.000556849
0.000571981
0.000569077
0.000563808
0.000542941
0.00050612
0.000463254
0.000424067
0.000396307
0.000382881
0.000380471
0.000399301
0.000451298
0.000561993
0.000779105
0.00114942
0.00153456
0.0015987
0.00077056
0.000260995
0.00052817
0.000545307
0.000544626
0.000538143
0.000514831
0.000476757
0.000434117
0.000396532
0.00036953
0.000354918
0.000351546
0.000364902
0.000405918
0.000501495
0.000703154
0.00107934
0.00156033
0.00172628
0.000784192
0.000235013
0.00048934
0.00051582
0.000519685
0.0005152
0.000494087
0.000458104
0.000418218
0.000383158
0.000357544
0.000342553
0.000339283
0.000349463
0.000383104
0.000463755
0.000646932
0.00101857
0.00156872
0.00183466
0.000790405
0.000212634
0.000455503
0.000493123
0.000499567
0.000496462
0.0004795
0.000446759
0.000410728
0.000378837
0.000354953
0.00034003
0.000336927
0.000345303
0.000374999
0.000446416
0.000610842
0.000965724
0.00156929
0.00192543
0.000792431
0.000188422
0.000411737
0.000465132
0.000477657
0.000477117
0.000466204
0.000440201
0.000408516
0.000380037
0.000357762
0.000343534
0.000341334
0.000348608
0.000374973
0.00044156
0.000595121
0.000922852
0.00155885
0.00196968
0.000789978
0.000166611
0.000382822
0.000448628
0.000465463
0.000464359
0.000455703
0.000435257
0.000409294
0.000384024
0.000364374
0.0003515
0.000351349
0.000359244
0.000385743
0.000448987
0.000592684
0.00090237
0.00154284
0.0019838
0.000784298
0.000141149
0.000335962
0.000420257
0.000449979
0.000454913
0.000449906
0.000435969
0.000413193
0.000391465
0.000374254
0.000363809
0.000365194
0.000375258
0.000404242
0.000468879
0.000610424
0.000897409
0.00152356
0.00193206
0.000775226
0.000117085
0.000307758
0.000405583
0.000446916
0.000459165
0.000455499
0.000443981
0.000424011
0.00040469
0.000388568
0.000380746
0.000383739
0.00039673
0.000430486
0.000501324
0.000655622
0.000918471
0.00151474
0.00183163
0.000749183
8.86148e-05
0.00024456
0.000367934
0.000446364
0.000474692
0.000474177
0.000466556
0.00044936
0.000431382
0.000416094
0.000412451
0.000418209
0.000437058
0.000483427
0.000570055
0.000761343
0.00101059
0.00152751
0.00165845
0.000712249
6.15575e-05
0.000226181
0.000380533
0.000477169
0.000529639
0.000535867
0.000531322
0.000518986
0.000504668
0.000499541
0.000506077
0.000526845
0.000570317
0.000658129
0.00078711
0.00106277
0.00132764
0.00162116
0.00148475
0.000657018
7.57326e-05
0.000254051
0.000448413
0.000563602
0.000645431
0.000680729
0.000705739
0.000728138
0.000764424
0.000812636
0.000889591
0.000991531
0.00113127
0.0013293
0.00155526
0.00186772
0.00192706
0.00178112
0.00139465
0.000578867
5.50443e-05
8.83605e-05
0.000164068
0.000234812
0.000293887
0.000333294
0.000357113
0.000373806
0.000383461
0.000394276
0.000400967
0.000414039
0.000423878
0.000444899
0.000459185
0.0004892
0.000515286
0.000544791
0.000539704
0.000484309
)
;

boundaryField
{
    movingWall
    {
        type            kqRWallFunction;
        value           nonuniform List<scalar> 
20
(
5.50443e-05
8.83605e-05
0.000164068
0.000234812
0.000293887
0.000333294
0.000357113
0.000373806
0.000383461
0.000394276
0.000400967
0.000414039
0.000423878
0.000444899
0.000459185
0.0004892
0.000515286
0.000544791
0.000539704
0.000484309
)
;
    }
    fixedWalls
    {
        type            kqRWallFunction;
        value           nonuniform List<scalar> 
60
(
3.77528e-06
1.77808e-05
6.76929e-05
0.000152819
0.000235306
0.00028931
0.000302392
0.000297998
0.000285929
0.000260995
0.000235013
0.000212634
0.000188422
0.000166611
0.000141149
0.000117085
8.86148e-05
6.15575e-05
7.57326e-05
5.50443e-05
0.000181357
0.000383296
0.000503096
0.000580041
0.000638524
0.000685018
0.000721494
0.000750447
0.00077056
0.000784192
0.000790405
0.000792431
0.000789978
0.000784298
0.000775226
0.000749183
0.000712249
0.000657018
0.000578867
0.000484309
3.77528e-06
9.43802e-06
4.79266e-05
0.000136993
0.000213675
0.000267463
0.000309553
0.000349446
0.000383959
0.000418867
0.000451511
0.000485536
0.000519832
0.000544095
0.000555376
0.000556967
0.000519016
0.00041102
0.000251818
0.000181357
)
;
    }
    frontAndBack
    {
        type            empty;
    }
}


// ************************************************************************* //
