/*--------------------------------*- C++ -*----------------------------------*\
  =========                 |
  \\      /  F ield         | OpenFOAM: The Open Source CFD Toolbox
   \\    /   O peration     | Website:  https://openfoam.org
    \\  /    A nd           | Version:  13
     \\/     M anipulation  |
\*---------------------------------------------------------------------------*/
FoamFile
{
    format      ascii;
    class       volVectorField;
    location    "6";
    object      U;
}
// * * * * * * * * * * * * * * * * * * * * * * * * * * * * * * * * * * * * * //

dimensions      [0 1 -1 0 0 0 0];

internalField   nonuniform List<vector> 
400
(
(0.00200282 -0.00257416 0)
(0.00458428 -0.000929494 0)
(-0.00383178 0.00189645 0)
(-0.017066 0.00759133 0)
(-0.0493038 0.0141101 0)
(-0.0757375 0.0120576 0)
(-0.0985365 0.0105522 0)
(-0.116637 0.00814094 0)
(-0.13044 0.00627166 0)
(-0.140423 0.004065 0)
(-0.146371 0.00225865 0)
(-0.148866 0.000429842 0)
(-0.148163 -0.00244125 0)
(-0.142165 -0.00461237 0)
(-0.132103 -0.00778999 0)
(-0.115766 -0.0105749 0)
(-0.0939163 -0.013757 0)
(-0.0660094 -0.0155848 0)
(-0.0350771 -0.0140171 0)
(-0.00824103 -0.00384306 0)
(-0.000729372 -0.00499447 0)
(-0.00864666 0.00736831 0)
(-0.0303546 0.0239589 0)
(-0.0584127 0.0377269 0)
(-0.082288 0.0376823 0)
(-0.101699 0.0341863 0)
(-0.117956 0.028985 0)
(-0.130303 0.0234848 0)
(-0.140403 0.0172573 0)
(-0.147608 0.0116011 0)
(-0.151807 0.00614283 0)
(-0.15294 0.000770963 0)
(-0.150761 -0.00509801 0)
(-0.145402 -0.0116009 0)
(-0.136119 -0.0194983 0)
(-0.122219 -0.0286881 0)
(-0.103258 -0.0390878 0)
(-0.079012 -0.0483989 0)
(-0.0492116 -0.0507636 0)
(-0.0179965 -0.0329253 0)
(-0.00666619 0.0080257 0)
(-0.0267558 0.0320166 0)
(-0.0514142 0.0500595 0)
(-0.0730909 0.0572842 0)
(-0.090034 0.054546 0)
(-0.103802 0.0483273 0)
(-0.114761 0.0400071 0)
(-0.123267 0.0310926 0)
(-0.129264 0.023007 0)
(-0.132314 0.0150804 0)
(-0.133498 0.00724336 0)
(-0.132695 -0.000695065 0)
(-0.130394 -0.0090519 0)
(-0.125432 -0.0182058 0)
(-0.11802 -0.0289128 0)
(-0.107303 -0.0415868 0)
(-0.0927261 -0.0565252 0)
(-0.0736732 -0.0727471 0)
(-0.0486725 -0.0843595 0)
(-0.0212293 -0.0730872 0)
(-0.0105497 0.0287395 0)
(-0.0334967 0.0546128 0)
(-0.0553811 0.069582 0)
(-0.071702 0.0727772 0)
(-0.083778 0.0676193 0)
(-0.0932425 0.0590095 0)
(-0.100049 0.0484118 0)
(-0.104818 0.0375052 0)
(-0.107578 0.0269279 0)
(-0.109026 0.0167812 0)
(-0.109105 0.00715986 0)
(-0.107915 -0.00238994 0)
(-0.105377 -0.0123432 0)
(-0.101228 -0.0233965 0)
(-0.0954254 -0.0362624 0)
(-0.0875241 -0.0516433 0)
(-0.0767685 -0.0699041 0)
(-0.0621583 -0.090379 0)
(-0.0416978 -0.108533 0)
(-0.0193439 -0.106292 0)
(-0.0111353 0.0494207 0)
(-0.0324772 0.0744736 0)
(-0.0501577 0.0854806 0)
(-0.0625108 0.0850763 0)
(-0.0713642 0.0771943 0)
(-0.0777509 0.0660615 0)
(-0.0818865 0.0533469 0)
(-0.0845699 0.040642 0)
(-0.0859459 0.0285468 0)
(-0.0863311 0.0171928 0)
(-0.0856977 0.00640244 0)
(-0.0841442 -0.00424314 0)
(-0.0816519 -0.0152588 0)
(-0.0781873 -0.0274018 0)
(-0.0737224 -0.0415649 0)
(-0.0680711 -0.0587331 0)
(-0.0606127 -0.0797101 0)
(-0.0498758 -0.104444 0)
(-0.0337373 -0.128769 0)
(-0.0171719 -0.134024 0)
(-0.00949622 0.0683928 0)
(-0.0275418 0.0917046 0)
(-0.0408684 0.0985004 0)
(-0.0504807 0.0946607 0)
(-0.0569019 0.0840099 0)
(-0.0612515 0.0705924 0)
(-0.0638821 0.0561833 0)
(-0.0654754 0.042212 0)
(-0.0661113 0.0291221 0)
(-0.0659842 0.0168971 0)
(-0.0651017 0.00526018 0)
(-0.0635392 -0.00618276 0)
(-0.0613058 -0.0179416 0)
(-0.0584418 -0.0307515 0)
(-0.0549933 -0.0455789 0)
(-0.050928 -0.0636066 0)
(-0.0459433 -0.0860128 0)
(-0.0386354 -0.113476 0)
(-0.0280525 -0.143938 0)
(-0.0119169 -0.156642 0)
(-0.00778145 0.0845239 0)
(-0.0209823 0.105221 0)
(-0.0306448 0.108721 0)
(-0.0378933 0.101869 0)
(-0.042384 0.0888745 0)
(-0.0453969 0.07365 0)
(-0.0471649 0.0579899 0)
(-0.0481981 0.0430964 0)
(-0.0485404 0.0292571 0)
(-0.0483354 0.0163648 0)
(-0.0475823 0.0041017 0)
(-0.0463026 -0.00794869 0)
(-0.0444899 -0.020292 0)
(-0.0422115 -0.0335826 0)
(-0.039584 -0.0487887 0)
(-0.0366957 -0.0672497 0)
(-0.0334814 -0.0904468 0)
(-0.028504 -0.119996 0)
(-0.0225108 -0.154521 0)
(-0.00971071 -0.175141 0)
(-0.00502244 0.0962342 0)
(-0.0139654 0.115309 0)
(-0.0207735 0.116262 0)
(-0.025686 0.107041 0)
(-0.0286592 0.092343 0)
(-0.030715 0.075818 0)
(-0.0319515 0.0592648 0)
(-0.0327184 0.0437012 0)
(-0.0330346 0.0293241 0)
(-0.0329801 0.0159577 0)
(-0.0325315 0.00322803 0)
(-0.0316697 -0.00930064 0)
(-0.0303796 -0.0221055 0)
(-0.0287253 -0.0357479 0)
(-0.0268652 -0.0510964 0)
(-0.0249909 -0.0695852 0)
(-0.0232898 -0.0930312 0)
(-0.0203044 -0.123922 0)
(-0.0180639 -0.161564 0)
(-0.00646283 -0.18991 0)
(-0.00297416 0.10367 0)
(-0.0074061 0.121461 0)
(-0.0114127 0.120871 0)
(-0.0141939 0.110382 0)
(-0.0158935 0.0946352 0)
(-0.0171755 0.0773175 0)
(-0.0180179 0.060213 0)
(-0.0186324 0.044224 0)
(-0.0190057 0.0295016 0)
(-0.0191561 0.0158173 0)
(-0.0190457 0.00275569 0)
(-0.0186419 -0.0101335 0)
(-0.0179324 -0.023288 0)
(-0.0169796 -0.0371784 0)
(-0.0159576 -0.0525306 0)
(-0.0150669 -0.0707806 0)
(-0.0148971 -0.0941335 0)
(-0.013391 -0.125943 0)
(-0.0145966 -0.165794 0)
(-0.00477227 -0.201831 0)
(0.000234292 0.106486 0)
(-0.00127985 0.124948 0)
(-0.00269061 0.123328 0)
(-0.00343882 0.112059 0)
(-0.00396581 0.0958895 0)
(-0.00449641 0.0782379 0)
(-0.00494456 0.0609006 0)
(-0.00539689 0.0447163 0)
(-0.00580096 0.0298186 0)
(-0.00612778 0.0159549 0)
(-0.00633727 0.00269442 0)
(-0.00640626 -0.0104135 0)
(-0.0063321 -0.0237745 0)
(-0.00617244 -0.0377769 0)
(-0.00610683 -0.052993 0)
(-0.00625775 -0.0707795 0)
(-0.00785429 -0.0936629 0)
(-0.00742798 -0.125964 0)
(-0.0118975 -0.167465 0)
(-0.00249796 -0.211264 0)
(0.00227626 0.10498 0)
(0.00423131 0.124616 0)
(0.00570343 0.122913 0)
(0.00679608 0.112052 0)
(0.00741228 0.0959786 0)
(0.00768531 0.0784887 0)
(0.00770926 0.0612623 0)
(0.00749769 0.0451225 0)
(0.00713807 0.0302262 0)
(0.00668766 0.0163371 0)
(0.00618262 0.00303835 0)
(0.00562901 -0.0101092 0)
(0.00500826 -0.0234902 0)
(0.00427294 -0.0374257 0)
(0.00324792 -0.0523494 0)
(0.00197116 -0.0694868 0)
(-0.00156679 -0.0917614 0)
(-0.00198575 -0.124024 0)
(-0.00991667 -0.167257 0)
(-0.000883908 -0.218668 0)
(0.00413551 0.100553 0)
(0.00956517 0.121956 0)
(0.0132393 0.120784 0)
(0.0163506 0.110979 0)
(0.0183792 0.095258 0)
(0.0196145 0.078169 0)
(0.020276 0.06128 0)
(0.0204475 0.0453836 0)
(0.020243 0.0306658 0)
(0.0197413 0.0169291 0)
(0.0189719 0.00378746 0)
(0.0179282 -0.00918207 0)
(0.016565 -0.0223505 0)
(0.0148463 -0.0360026 0)
(0.0126099 -0.0504505 0)
(0.00992823 -0.0667698 0)
(0.0044282 -0.0882025 0)
(0.00341009 -0.120033 0)
(-0.00848233 -0.165099 0)
(0.001537 -0.224085 0)
(0.00614554 0.091654 0)
(0.0144281 0.115479 0)
(0.0207486 0.115575 0)
(0.0254309 0.107523 0)
(0.0291092 0.093 0)
(0.0314848 0.0768137 0)
(0.0329722 0.0606369 0)
(0.0337095 0.0452872 0)
(0.0338121 0.0310079 0)
(0.0333652 0.0176616 0)
(0.0323874 0.00492253 0)
(0.0308671 -0.00760386 0)
(0.0287242 -0.0202732 0)
(0.0259357 -0.0333719 0)
(0.0222995 -0.0471424 0)
(0.0180943 -0.0625528 0)
(0.0106094 -0.0827575 0)
(0.00878215 -0.114137 0)
(-0.00740814 -0.161483 0)
(0.00433093 -0.227757 0)
(0.00771979 0.079868 0)
(0.0184997 0.107731 0)
(0.0271211 0.109832 0)
(0.0337385 0.102957 0)
(0.0392645 0.0898474 0)
(0.0431634 0.0747099 0)
(0.0458087 0.0594029 0)
(0.0473822 0.0448034 0)
(0.0480021 0.0311893 0)
(0.0477591 0.0184795 0)
(0.0466654 0.00641676 0)
(0.0447041 -0.00537049 0)
(0.04176 -0.0172015 0)
(0.0378588 -0.0294065 0)
(0.0326602 -0.0422438 0)
(0.0268617 -0.0565859 0)
(0.0172661 -0.0753778 0)
(0.0144027 -0.10645 0)
(-0.00609819 -0.156252 0)
(0.00850282 -0.229816 0)
(0.00905105 0.0647329 0)
(0.0219688 0.0953107 0)
(0.0325425 0.100059 0)
(0.0412573 0.0950712 0)
(0.0487514 0.0840238 0)
(0.0545182 0.0706088 0)
(0.0586716 0.0567432 0)
(0.0613751 0.043373 0)
(0.0627576 0.0308449 0)
(0.0629083 0.0191539 0)
(0.061841 0.00813324 0)
(0.0595277 -0.00257408 0)
(0.055795 -0.0131588 0)
(0.050816 -0.0240731 0)
(0.0439582 -0.0356324 0)
(0.0365603 -0.0487463 0)
(0.0246132 -0.0661552 0)
(0.02069 -0.09729 0)
(-0.00421094 -0.150554 0)
(0.0136095 -0.230666 0)
(0.00854226 0.0485716 0)
(0.0229016 0.0838094 0)
(0.0353001 0.0906626 0)
(0.0463861 0.0868221 0)
(0.0563982 0.0773295 0)
(0.0645919 0.0655427 0)
(0.0707969 0.0532235 0)
(0.0750979 0.0412882 0)
(0.0776097 0.0301135 0)
(0.078452 0.0197415 0)
(0.0775876 0.01008 0)
(0.0751586 0.000812119 0)
(0.0707736 -0.00816686 0)
(0.0649133 -0.0174513 0)
(0.0564295 -0.0273623 0)
(0.0476603 -0.0390302 0)
(0.0331852 -0.0549162 0)
(0.028452 -0.0864472 0)
(-0.00148998 -0.142687 0)
(0.0204442 -0.229784 0)
(0.00614899 0.0323093 0)
(0.0213612 0.0657421 0)
(0.0358156 0.0746237 0)
(0.049567 0.0728881 0)
(0.0622994 0.0658455 0)
(0.0732102 0.0565703 0)
(0.0817892 0.0466066 0)
(0.0879989 0.036845 0)
(0.0918927 0.0277224 0)
(0.0937053 0.0193077 0)
(0.0932797 0.0115666 0)
(0.0911222 0.0042226 0)
(0.0863667 -0.00289162 0)
(0.0802514 -0.0101635 0)
(0.0706774 -0.0178524 0)
(0.0612929 -0.0276938 0)
(0.0446222 -0.0415453 0)
(0.039574 -0.0736316 0)
(0.00351861 -0.13305 0)
(0.0296822 -0.223468 0)
(-0.00484518 0.0231646 0)
(0.0117376 0.0550128 0)
(0.029093 0.0618632 0)
(0.0466884 0.0604227 0)
(0.0631202 0.0547731 0)
(0.0773756 0.0474813 0)
(0.0889098 0.0398332 0)
(0.0976345 0.032376 0)
(0.103576 0.0253762 0)
(0.107131 0.0190208 0)
(0.108002 0.0132968 0)
(0.107085 0.00804895 0)
(0.103199 0.00316967 0)
(0.0986826 -0.00174731 0)
(0.0897785 -0.00709169 0)
(0.0817605 -0.0146927 0)
(0.0641099 -0.0268235 0)
(0.0592386 -0.0583312 0)
(0.0164862 -0.118076 0)
(0.0452325 -0.202107 0)
(-0.0150159 0.0304975 0)
(-0.0046311 0.0266636 0)
(0.0195638 0.030826 0)
(0.0429121 0.0321851 0)
(0.0639922 0.0304944 0)
(0.0823224 0.0270078 0)
(0.0977192 0.0229944 0)
(0.110017 0.0191183 0)
(0.119331 0.0155411 0)
(0.125964 0.0122501 0)
(0.129975 0.00934385 0)
(0.132039 0.00653356 0)
(0.131552 0.00418104 0)
(0.129828 0.00101146 0)
(0.124213 -0.00176324 0)
(0.119355 -0.00770937 0)
(0.104985 -0.0171153 0)
(0.100871 -0.0443242 0)
(0.056147 -0.0916719 0)
(0.0769117 -0.154407 0)
(0.040316 0.0382704 0)
(0.046237 0.0275728 0)
(0.0697257 0.0238509 0)
(0.0976375 0.0232153 0)
(0.122417 0.0223803 0)
(0.14484 0.0207233 0)
(0.165392 0.0184933 0)
(0.183097 0.0165636 0)
(0.198434 0.0144613 0)
(0.210944 0.012986 0)
(0.2214 0.0111597 0)
(0.229439 0.0101215 0)
(0.23574 0.00836453 0)
(0.239822 0.00755528 0)
(0.242262 0.00539278 0)
(0.240883 0.00321069 0)
(0.233597 0.00230865 0)
(0.219456 -0.00893288 0)
(0.170261 -0.0129026 0)
(0.145285 -0.0651163 0)
)
;

boundaryField
{
    movingWall
    {
        type            fixedValue;
        value           uniform (1 0 0);
    }
    fixedWalls
    {
        type            noSlip;
    }
    frontAndBack
    {
        type            empty;
    }
}


// ************************************************************************* //
