/*--------------------------------*- C++ -*----------------------------------*\
  =========                 |
  \\      /  F ield         | OpenFOAM: The Open Source CFD Toolbox
   \\    /   O peration     | Website:  https://openfoam.org
    \\  /    A nd           | Version:  13
     \\/     M anipulation  |
\*---------------------------------------------------------------------------*/
FoamFile
{
    format      ascii;
    class       volScalarField;
    location    "1.5";
    object      k;
}
// * * * * * * * * * * * * * * * * * * * * * * * * * * * * * * * * * * * * * //

dimensions      [0 2 -2 0 0 0 0];

internalField   nonuniform List<scalar> 
1600
(
1.59771e-06
6.9912e-06
1.31496e-05
1.82311e-05
2.22804e-05
2.55373e-05
2.81727e-05
3.03193e-05
3.21041e-05
3.3658e-05
3.51142e-05
3.66063e-05
3.82699e-05
4.02499e-05
4.27139e-05
4.58669e-05
4.99614e-05
5.52938e-05
6.21804e-05
7.08865e-05
8.15335e-05
9.40014e-05
0.000107917
0.000122859
0.000138797
0.000157084
0.000175055
0.000188233
0.00019452
0.000196143
0.000187129
0.000169371
0.000145057
0.000116204
8.67459e-05
6.02052e-05
3.82109e-05
2.17893e-05
9.55683e-06
2.0902e-06
7.42958e-06
5.10541e-05
8.86006e-05
0.000115933
0.000136733
0.000153165
0.000166447
0.000177452
0.000186944
0.000195642
0.000204218
0.000213284
0.000223389
0.000235048
0.000248789
0.000265217
0.000285042
0.00030904
0.000337971
0.000372473
0.000412882
0.000458948
0.000509672
0.000563572
0.000618141
0.000668655
0.000713024
0.000743533
0.000756135
0.000756617
0.000721588
0.000661251
0.00057861
0.000480382
0.000377814
0.000282359
0.000199992
0.000127935
6.19959e-05
8.89338e-06
1.62449e-05
0.000100298
0.000162565
0.000206105
0.000239137
0.000265078
0.000285937
0.000303212
0.000318186
0.000331985
0.000345553
0.000359604
0.000374629
0.000390975
0.000409039
0.000429499
0.000453455
0.000482322
0.000517505
0.000560062
0.000610394
0.000668047
0.000731791
0.000799715
0.000868894
0.000935104
0.000993134
0.00103239
0.00104899
0.00104999
0.00100306
0.000924168
0.000816502
0.000686807
0.000546748
0.000413263
0.000299442
0.000202929
0.000109834
1.69243e-05
2.56479e-05
0.000144146
0.000223344
0.000277311
0.000318406
0.000351064
0.000377772
0.000400339
0.000420274
0.000438828
0.000456942
0.000475202
0.000493899
0.000513246
0.000533716
0.00055636
0.000582899
0.000615531
0.000656432
0.000707121
0.000768084
0.000838593
0.000916585
0.00099851
0.00107953
0.00115479
0.00121859
0.00125874
0.0012749
0.00127524
0.00122129
0.00112825
0.00100138
0.000850687
0.000680008
0.000508478
0.000363617
0.000249067
0.000140765
2.27875e-05
3.47448e-05
0.00018277
0.000275299
0.000337305
0.000384631
0.000422706
0.000454455
0.000481894
0.00050661
0.000529824
0.000552345
0.000574558
0.00059659
0.000618653
0.000641487
0.0006667
0.000696784
0.000734717
0.000783277
0.000844235
0.000917523
0.00100056
0.00108803
0.00117282
0.00124763
0.0013068
0.00134746
0.00136742
0.00137505
0.00137363
0.00134026
0.00127519
0.00116224
0.0010044
0.000817155
0.000605102
0.000413059
0.000272844
0.000156327
2.60305e-05
4.316e-05
0.000216493
0.000320086
0.000388893
0.000441472
0.000484188
0.000520402
0.000552313
0.000581538
0.000609216
0.000636002
0.00066213
0.000687672
0.000712978
0.00073915
0.000768344
0.000803689
0.000848724
0.000906334
0.000977268
0.00105861
0.00114313
0.0012207
0.00128218
0.00132383
0.00134783
0.00136048
0.00136744
0.00137021
0.00136872
0.00135245
0.00132185
0.00125849
0.00114138
0.000954932
0.00072125
0.00046621
0.000274499
0.000153494
2.58713e-05
5.07089e-05
0.000245657
0.000358634
0.000433427
0.000490671
0.000537536
0.000577789
0.000613814
0.000647256
0.000679186
0.000710152
0.000740316
0.000769795
0.000799132
0.000829754
0.000864193
0.000905854
0.000958134
0.00102272
0.00109729
0.0011739
0.00124044
0.00128674
0.00131007
0.00132118
0.00132939
0.00133967
0.0013517
0.00135881
0.00136118
0.00135498
0.00133841
0.00130027
0.00123298
0.00110053
0.000865711
0.000555104
0.000263442
0.000130597
2.26643e-05
5.73192e-05
0.00027062
0.000391568
0.000471681
0.000533165
0.000583835
0.000627804
0.000667636
0.000705025
0.000741016
0.000776113
0.000810484
0.000844335
0.000878375
0.000914191
0.000954341
0.00100187
0.001059
0.00112479
0.00119274
0.00125124
0.00128539
0.00129886
0.00130441
0.00131394
0.00133422
0.00136299
0.0013956
0.00142496
0.00144215
0.00144815
0.00144004
0.0014038
0.00133787
0.00123816
0.00106059
0.000733177
0.000303811
9.9711e-05
1.70261e-05
6.29826e-05
0.000291732
0.000419376
0.000504186
0.000569537
0.000623729
0.000671148
0.000714517
0.000755602
0.000795465
0.000834626
0.000873302
0.000911788
0.000950847
0.00099198
0.00103731
0.0010888
0.0011466
0.00120664
0.0012596
0.00128769
0.00129533
0.00129584
0.00130284
0.00132788
0.00137115
0.00142383
0.00147645
0.00152546
0.00156522
0.00158511
0.00159091
0.00157271
0.00151269
0.00140563
0.00124958
0.000994468
0.000514697
0.000123487
1.5971e-05
6.77167e-05
0.000309323
0.000442503
0.000531386
0.000600226
0.000657663
0.00070828
0.00075493
0.000799459
0.000842979
0.000886062
0.000928991
0.000972096
0.00101606
0.00106202
0.00111121
0.00116401
0.00121819
0.00126723
0.00129324
0.00129879
0.00129337
0.00129222
0.00131033
0.00135633
0.00141644
0.00148165
0.00154795
0.00161179
0.00166928
0.00171216
0.0017319
0.00173554
0.00170203
0.00160912
0.00144265
0.00119736
0.000833055
0.000247486
3.26632e-05
7.15551e-05
0.000323721
0.000461362
0.000553695
0.000625621
0.000686007
0.000739556
0.000789219
0.000836916
0.000883825
0.000930582
0.000977522
0.00102495
0.00107332
0.00112318
0.0011746
0.00122615
0.00127346
0.00130164
0.00130803
0.00129811
0.00128894
0.00128975
0.00132246
0.00138077
0.00144801
0.00151809
0.00158933
0.00166269
0.00173848
0.0018117
0.00186328
0.00188362
0.00188277
0.00182287
0.00167711
0.00141292
0.00101274
0.000433396
9.37066e-05
7.4554e-05
0.000335236
0.000476351
0.000571522
0.000646108
0.000709114
0.000765302
0.00081768
0.000868229
0.00091819
0.000968261
0.0010188
0.00107002
0.00112206
0.00117472
0.00122687
0.00127547
0.00131021
0.00132102
0.00131446
0.00129214
0.00128059
0.00128566
0.00132712
0.00139046
0.00145857
0.00152801
0.00159922
0.00167633
0.00176186
0.00185703
0.00195176
0.00201495
0.00203726
0.00201944
0.00191287
0.00167897
0.00128565
0.000710729
0.00022347
7.67798e-05
0.000344169
0.000487865
0.000585283
0.000662089
0.000727353
0.00078585
0.00084061
0.000893652
0.000946266
0.000999195
0.00105279
0.00110713
0.00116199
0.00121644
0.0012681
0.00131216
0.00133347
0.00133391
0.00131296
0.00128154
0.0012693
0.0012771
0.00132222
0.0013848
0.00145042
0.00151649
0.00158645
0.00166615
0.00175993
0.00186834
0.00199016
0.00210906
0.00217332
0.00218811
0.00212374
0.00191071
0.00150597
0.000869063
0.000357147
7.83045e-05
0.000350807
0.00049629
0.000595401
0.000673982
0.000741121
0.000801568
0.000858343
0.000913479
0.0009683
0.00102357
0.00107961
0.00113635
0.00119322
0.00124864
0.00129944
0.00133731
0.00135014
0.00134131
0.00130939
0.00126994
0.00125543
0.00126323
0.00130793
0.00136701
0.00142705
0.00148715
0.00155333
0.00163299
0.00173297
0.00185654
0.00200048
0.00215816
0.00228828
0.00234196
0.00232477
0.00214617
0.00174266
0.0010872
0.000468468
7.92039e-05
0.000355428
0.000502005
0.000602301
0.000682224
0.000750845
0.000812861
0.000871261
0.000928071
0.000984622
0.00104168
0.00109954
0.00115798
0.00121613
0.00127192
0.00132141
0.00135431
0.00136244
0.00134601
0.00130531
0.00125832
0.00123913
0.00124309
0.00128207
0.00133561
0.00139009
0.00144492
0.00150675
0.00158512
0.00168936
0.00182528
0.00199221
0.00218044
0.00236948
0.00248585
0.00250963
0.00237538
0.00197038
0.00125524
0.000565008
7.95461e-05
0.000358295
0.000505376
0.000606398
0.000687256
0.000756969
0.000820167
0.000879792
0.000937845
0.000995647
0.00105396
0.00111301
0.00117247
0.00123124
0.00128692
0.0013352
0.00136562
0.00137163
0.00135075
0.00130486
0.00124978
0.00122147
0.00121922
0.00124924
0.00129584
0.0013449
0.00139504
0.00145322
0.00153058
0.00163854
0.00178487
0.00197087
0.00218937
0.00242184
0.00261207
0.00268222
0.00259703
0.00219551
0.00143969
0.0006573
7.94006e-05
0.000359652
0.000506689
0.000608032
0.000689458
0.000759896
0.000823897
0.000884349
0.000943213
0.00100179
0.00106081
0.00112047
0.00118037
0.00123927
0.00129468
0.0013422
0.0013723
0.00137836
0.00135648
0.00130773
0.00124887
0.00120644
0.00119484
0.00121322
0.00125134
0.00129514
0.00134186
0.00139814
0.00147611
0.00158872
0.00174511
0.00194788
0.00219283
0.00246178
0.00271777
0.00284562
0.00281137
0.00242059
0.00161212
0.000744504
7.89183e-05
0.000359513
0.000506239
0.000607559
0.000689148
0.000759928
0.000824383
0.00088529
0.000944558
0.00100346
0.00106269
0.00112243
0.00118223
0.00124082
0.00129575
0.00134284
0.00137435
0.00138282
0.0013635
0.00131579
0.00125361
0.00120137
0.00117478
0.00117915
0.00120676
0.00124483
0.00128933
0.00134586
0.00142676
0.00154578
0.00171245
0.00193103
0.00219696
0.00249803
0.00280244
0.00299995
0.00301474
0.00264053
0.00177982
0.000828986
7.8093e-05
0.000358733
0.000504813
0.000605898
0.000687472
0.00075831
0.00082282
0.000883775
0.000943051
0.00100189
0.001061
0.00112052
0.00118002
0.00123826
0.0012929
0.00133998
0.00137295
0.00138485
0.00137095
0.00132865
0.0012666
0.00120651
0.00116729
0.00115485
0.0011686
0.00119927
0.00124196
0.00130051
0.00138655
0.00151398
0.00169278
0.00192463
0.0022056
0.00253149
0.00287478
0.00314267
0.00320529
0.00285767
0.00195145
0.000913898
7.70484e-05
0.000356998
0.000502121
0.00060272
0.000684033
0.000754729
0.00081915
0.000879992
0.000939082
0.000997631
0.00105632
0.0011153
0.00117414
0.00123169
0.00128582
0.00133304
0.00136814
0.00138427
0.00137707
0.00134394
0.00128761
0.00122327
0.00117345
0.00114778
0.00114712
0.00116608
0.00120568
0.00126666
0.00135979
0.00149762
0.0016859
0.00192529
0.00221894
0.00256371
0.00293869
0.00326703
0.0033848
0.00306884
0.00211863
0.000996794
7.59149e-05
0.000354381
0.000498545
0.000598511
0.000679341
0.000749636
0.00081367
0.000874083
0.000932662
0.00099059
0.00104853
0.00110665
0.00116457
0.00122123
0.00127478
0.00132224
0.00135934
0.00138075
0.00138037
0.00135814
0.00131216
0.00125236
0.00119453
0.00115704
0.00114624
0.00115577
0.00118731
0.00124978
0.00134928
0.00149378
0.00168806
0.00193433
0.00223508
0.00259254
0.00299301
0.00337181
0.0035482
0.00327241
0.00228965
0.00108193
7.48464e-05
0.000351053
0.000494334
0.00059358
0.000673798
0.000743527
0.000806987
0.000866771
0.00092463
0.000981728
0.00103872
0.00109579
0.00115261
0.00120825
0.0012611
0.00130867
0.00134748
0.00137308
0.00138024
0.00136822
0.00133552
0.00128543
0.00123049
0.00118454
0.00116124
0.00116525
0.00119073
0.00124962
0.00135171
0.00150062
0.00169888
0.00194705
0.00224839
0.00261095
0.00303347
0.00345635
0.00369638
0.00346921
0.00245992
0.00116628
7.37151e-05
0.000347219
0.000489678
0.000588165
0.000667683
0.000736728
0.000799474
0.000858478
0.000915464
0.000971578
0.00102748
0.00108336
0.00113895
0.00119345
0.00124549
0.00129298
0.00133309
0.00136228
0.00137667
0.00137289
0.00135341
0.00131593
0.00126968
0.00122575
0.00119622
0.00119298
0.00121231
0.00126619
0.00136722
0.00151577
0.00171275
0.00195664
0.00225382
0.00261715
0.00305223
0.00351925
0.00382565
0.00365735
0.00263535
0.00125326
7.25376e-05
0.000343131
0.000484764
0.000582477
0.000661247
0.000729533
0.000791478
0.000849607
0.000905621
0.000960654
0.00101537
0.00106998
0.00112426
0.00117753
0.00122862
0.00127579
0.00131674
0.00134863
0.00136831
0.00137252
0.00136336
0.00133943
0.00130423
0.00126728
0.00123916
0.00123242
0.00124784
0.00129505
0.00138973
0.00153273
0.00172224
0.00195927
0.00225019
0.00261087
0.00305563
0.00355424
0.00393538
0.00383646
0.00281334
0.00134019
7.13652e-05
0.000339002
0.000479772
0.00057671
0.000654719
0.00072222
0.000783326
0.000840537
0.000895536
0.000949446
0.00100293
0.00105622
0.00110915
0.00116113
0.00121115
0.00125776
0.00129907
0.00133281
0.00135652
0.001368
0.00136572
0.0013534
0.00132948
0.00130146
0.00127816
0.00127125
0.00128412
0.00132553
0.00141127
0.00154426
0.00172371
0.00194928
0.00222844
0.00258201
0.00303465
0.00356636
0.00402452
0.00400517
0.00299891
0.00142918
7.02536e-05
0.000335026
0.000474883
0.000571056
0.000648322
0.000715051
0.000775331
0.000831636
0.00088563
0.000938426
0.000990686
0.00104266
0.00109422
0.00114486
0.0011937
0.00123952
0.00128075
0.00131555
0.00134196
0.0013582
0.00136295
0.00135775
0.00134403
0.00132453
0.0013071
0.00130184
0.00131296
0.00134914
0.00142513
0.00154641
0.00171221
0.00192272
0.00218686
0.00252948
0.00298613
0.00355596
0.00408777
0.00416137
0.00319036
0.00151788
6.92644e-05
0.000331405
0.000470283
0.00056571
0.00064228
0.000708298
0.000767813
0.000823276
0.000876325
0.000928062
0.000979146
0.00102984
0.00108005
0.00112932
0.00117689
0.00122172
0.00126247
0.00129765
0.00132565
0.00134505
0.001355
0.00135513
0.00134851
0.00133603
0.00132389
0.00132057
0.00133022
0.00136151
0.00142787
0.00153597
0.00168591
0.00187902
0.00212534
0.00245313
0.00290831
0.00350915
0.00411761
0.00430322
0.00339035
0.00160725
6.84621e-05
0.000328359
0.000466176
0.000560891
0.000636846
0.000702256
0.000761119
0.00081585
0.00086806
0.000918831
0.000968815
0.00101828
0.00106716
0.00111506
0.0011613
0.00120496
0.00124491
0.00127988
0.00130855
0.00132975
0.00134271
0.00134733
0.00134503
0.00133761
0.00132923
0.00132715
0.00133523
0.00136158
0.00141829
0.00151246
0.00164538
0.00181945
0.00204556
0.00235484
0.00280354
0.00343256
0.00412578
0.00442774
0.00359622
0.00169519
6.79318e-05
0.000326128
0.000462805
0.000556861
0.000632322
0.000697278
0.000755649
0.000809801
0.000861306
0.000911224
0.000960195
0.0010085
0.00105608
0.00110259
0.00114743
0.00118979
0.00122867
0.00126297
0.0012916
0.00131355
0.00132816
0.00133531
0.0013358
0.00133237
0.00132615
0.00132419
0.00133044
0.00135166
0.00139803
0.00147778
0.00159301
0.00174689
0.00195071
0.00223738
0.00267224
0.00331991
0.00409485
0.00452736
0.00380697
0.00178169
6.78354e-05
0.000325242
0.000460509
0.000553975
0.000629114
0.000693815
0.000751889
0.000805631
0.000856569
0.000905733
0.00095376
0.00100094
0.00104723
0.00109234
0.00113573
0.00117666
0.00121425
0.00124756
0.00127561
0.00129756
0.00131279
0.00132116
0.00132315
0.0013211
0.00131659
0.00131412
0.00131797
0.00133339
0.00136958
0.00143512
0.00153256
0.00166564
0.0018455
0.00210554
0.00251853
0.0031727
0.00401713
0.0045957
0.00401864
0.00186531
6.80404e-05
0.000325611
0.000459757
0.00055279
0.000627826
0.000692497
0.000750463
0.000803928
0.000854372
0.000902808
0.000949906
0.000995943
0.00104092
0.00108458
0.00112645
0.00116587
0.00120205
0.00123414
0.0012613
0.00128275
0.00129796
0.00130674
0.00130939
0.00130774
0.00130347
0.00129972
0.00130113
0.00131112
0.00133754
0.0013892
0.00146917
0.00158139
0.00173621
0.00196591
0.00234832
0.00299522
0.00389489
0.00462798
0.00422583
0.00194577
6.8883e-05
0.000327011
0.000460355
0.000553355
0.000628564
0.000693407
0.000751433
0.000804786
0.000854913
0.000902793
0.000948936
0.000993742
0.00103731
0.00107946
0.00111975
0.0011576
0.00119233
0.00122316
0.00124932
0.00127013
0.00128508
0.00129396
0.00129695
0.00129545
0.00129112
0.00128607
0.00128481
0.00129016
0.00130792
0.00134611
0.00140958
0.0015014
0.00163098
0.00182795
0.00217149
0.00279521
0.00373565
0.00463771
0.00441942
0.00202285
7.09179e-05
0.000330025
0.000462864
0.000556136
0.000631814
0.00069702
0.000755158
0.000808319
0.000857944
0.000905052
0.000950361
0.000994186
0.00103651
0.00107718
0.00111594
0.00115236
0.0011858
0.00121557
0.00124097
0.00126138
0.00127634
0.00128563
0.00128932
0.00128834
0.00128453
0.001279
0.00127566
0.00127775
0.00128857
0.00131523
0.00136423
0.001438
0.00154366
0.00170662
0.00200336
0.00258922
0.0035547
0.00462649
0.00458315
0.00209742
7.45151e-05
0.000335969
0.000468881
0.000562842
0.000639211
0.000704794
0.0007629
0.000815641
0.000864513
0.000910606
0.000954772
0.000997368
0.00103855
0.00107824
0.00111614
0.00115175
0.00118455
0.001214
0.00123949
0.00126045
0.00127637
0.00128693
0.00129226
0.00129291
0.00129083
0.00128666
0.00128369
0.00128499
0.00129285
0.00131295
0.00135139
0.00141165
0.00150226
0.00164684
0.00191648
0.002453
0.00340208
0.00459954
0.00466715
0.00217249
7.95234e-05
0.000345235
0.00047981
0.000574801
0.00065165
0.000717282
0.000775144
0.000827511
0.000875958
0.000921532
0.000964965
0.00100681
0.00104733
0.00108656
0.00112427
0.00116014
0.00119369
0.00122435
0.00125159
0.00127489
0.00129388
0.0013084
0.00131847
0.00132451
0.00132775
0.00132937
0.00133169
0.0013372
0.00134887
0.00137124
0.00140972
0.00146869
0.00155409
0.00168753
0.00192586
0.00241645
0.00334176
0.00458834
0.00469479
0.00225801
8.81992e-05
0.000360779
0.000497618
0.000594102
0.000672307
0.000739196
0.000798351
0.000852014
0.000901769
0.000948821
0.000993967
0.00103781
0.00108068
0.00112272
0.00116383
0.00120379
0.00124227
0.00127883
0.00131307
0.00134458
0.00137315
0.00139865
0.00142122
0.00144127
0.00145969
0.00147788
0.00149793
0.00152232
0.00155408
0.00159721
0.00165662
0.00173876
0.00184905
0.00200439
0.00223679
0.00266696
0.00345278
0.0046314
0.0046761
0.00231364
9.8559e-05
0.00038595
0.000531472
0.000634527
0.000719593
0.000794333
0.000862529
0.000926357
0.000987326
0.00104657
0.0011049
0.00116291
0.00122097
0.00127928
0.00133787
0.0013966
0.0014553
0.00151369
0.00157159
0.00162875
0.00168518
0.00174087
0.00179624
0.00185173
0.00190827
0.00196731
0.00203196
0.0021043
0.00218689
0.00228274
0.00239497
0.0025309
0.00268995
0.0028912
0.00312249
0.00348719
0.00403756
0.0048524
0.00465752
0.0023385
0.000119776
0.000442534
0.000624503
0.00076751
0.00089581
0.00101702
0.00113583
0.0012538
0.00137149
0.00148918
0.00160723
0.00172577
0.00184502
0.00196472
0.00208488
0.00220494
0.00232494
0.00244425
0.00256318
0.00268109
0.00279876
0.00291554
0.00303285
0.00315011
0.00326923
0.00338997
0.00352042
0.00365703
0.00380175
0.003953
0.00411244
0.00428451
0.00445727
0.00466771
0.0048613
0.00512161
0.0053078
0.00532265
0.00466341
0.00234016
0.000168636
0.000616515
0.00100674
0.00138595
0.00172458
0.00203958
0.00234674
0.00264733
0.00293888
0.00321871
0.0034867
0.00374229
0.00398671
0.00421905
0.00444072
0.00465031
0.00484983
0.00503754
0.00521636
0.00538409
0.00554476
0.00569529
0.00584122
0.00597804
0.00611313
0.00624054
0.00636625
0.0064805
0.00659862
0.00670614
0.00682158
0.00693005
0.0070435
0.0071672
0.00715891
0.00701662
0.00659251
0.00566569
0.00445463
0.00219857
0.000118903
0.000208979
0.000335347
0.000456615
0.000572682
0.000679856
0.000780175
0.000876257
0.000969921
0.00106182
0.00115223
0.00124108
0.00132847
0.00141425
0.00149861
0.00158119
0.00166235
0.00174134
0.00181897
0.00189388
0.0019677
0.00203809
0.002108
0.00217356
0.0022397
0.00230023
0.00236319
0.00241777
0.00247677
0.00252402
0.00257767
0.0026144
0.00265711
0.00267853
0.00270456
0.00271748
0.00270508
0.00264973
0.00250185
0.00203422
)
;

boundaryField
{
    movingWall
    {
        type            kqRWallFunction;
        value           nonuniform List<scalar> 
40
(
0.000118903
0.000208979
0.000335347
0.000456615
0.000572682
0.000679856
0.000780175
0.000876257
0.000969921
0.00106182
0.00115223
0.00124108
0.00132847
0.00141425
0.00149861
0.00158119
0.00166235
0.00174134
0.00181897
0.00189388
0.0019677
0.00203809
0.002108
0.00217356
0.0022397
0.00230023
0.00236319
0.00241777
0.00247677
0.00252402
0.00257767
0.0026144
0.00265711
0.00267853
0.00270456
0.00271748
0.00270508
0.00264973
0.00250185
0.00203422
)
;
    }
    fixedWalls
    {
        type            kqRWallFunction;
        value           nonuniform List<scalar> 
120
(
1.59771e-06
7.42958e-06
1.62449e-05
2.56479e-05
3.47448e-05
4.316e-05
5.07089e-05
5.73192e-05
6.29826e-05
6.77167e-05
7.15551e-05
7.4554e-05
7.67798e-05
7.83045e-05
7.92039e-05
7.95461e-05
7.94006e-05
7.89183e-05
7.8093e-05
7.70484e-05
7.59149e-05
7.48464e-05
7.37151e-05
7.25376e-05
7.13652e-05
7.02536e-05
6.92644e-05
6.84621e-05
6.79318e-05
6.78354e-05
6.80404e-05
6.8883e-05
7.09179e-05
7.45151e-05
7.95234e-05
8.81992e-05
9.8559e-05
0.000119776
0.000168636
0.000118903
2.0902e-06
8.89338e-06
1.69243e-05
2.27875e-05
2.60305e-05
2.58713e-05
2.26643e-05
1.70261e-05
1.5971e-05
3.26632e-05
9.37066e-05
0.00022347
0.000357147
0.000468468
0.000565008
0.0006573
0.000744504
0.000828986
0.000913898
0.000996794
0.00108193
0.00116628
0.00125326
0.00134019
0.00142918
0.00151788
0.00160725
0.00169519
0.00178169
0.00186531
0.00194577
0.00202285
0.00209742
0.00217249
0.00225801
0.00231364
0.0023385
0.00234016
0.00219857
0.00203422
1.59771e-06
6.9912e-06
1.31496e-05
1.82311e-05
2.22804e-05
2.55373e-05
2.81727e-05
3.03193e-05
3.21041e-05
3.3658e-05
3.51142e-05
3.66063e-05
3.82699e-05
4.02499e-05
4.27139e-05
4.58669e-05
4.99614e-05
5.52938e-05
6.21804e-05
7.08865e-05
8.15335e-05
9.40014e-05
0.000107917
0.000122859
0.000138797
0.000157084
0.000175055
0.000188233
0.00019452
0.000196143
0.000187129
0.000169371
0.000145057
0.000116204
8.67459e-05
6.02052e-05
3.82109e-05
2.17893e-05
9.55683e-06
2.0902e-06
)
;
    }
    frontAndBack
    {
        type            empty;
    }
}


// ************************************************************************* //
