/*--------------------------------*- C++ -*----------------------------------*\
  =========                 |
  \\      /  F ield         | OpenFOAM: The Open Source CFD Toolbox
   \\    /   O peration     | Website:  https://openfoam.org
    \\  /    A nd           | Version:  13
     \\/     M anipulation  |
\*---------------------------------------------------------------------------*/
FoamFile
{
    format      ascii;
    class       volScalarField;
    location    "1.5";
    object      nut;
}
// * * * * * * * * * * * * * * * * * * * * * * * * * * * * * * * * * * * * * //

dimensions      [0 2 -1 0 0 0 0];

internalField   nonuniform List<scalar> 
1600
(
1.1158e-08
4.88344e-08
9.18667e-08
1.2738e-07
1.55691e-07
1.78481e-07
1.96942e-07
2.12007e-07
2.24568e-07
2.35544e-07
2.45874e-07
2.56498e-07
2.68372e-07
2.82518e-07
3.00128e-07
3.22669e-07
3.51953e-07
3.9011e-07
4.39401e-07
5.01708e-07
5.77862e-07
6.66955e-07
7.66303e-07
8.72943e-07
9.86719e-07
1.11728e-06
1.24479e-06
1.33764e-06
1.38162e-06
1.39261e-06
1.32639e-06
1.19909e-06
1.02517e-06
8.19512e-07
6.10289e-07
4.22461e-07
2.67581e-07
1.52625e-07
6.69672e-08
1.46544e-08
5.19152e-08
2.50261e-06
5.15916e-06
6.71157e-06
7.73415e-06
8.48771e-06
9.0655e-06
9.50972e-06
9.84905e-06
1.01089e-05
1.03137e-05
1.04883e-05
1.06594e-05
1.08579e-05
1.11218e-05
1.14969e-05
1.20335e-05
1.27795e-05
1.37769e-05
1.50515e-05
1.66057e-05
1.84119e-05
2.03933e-05
2.24095e-05
2.42551e-05
2.5636e-05
2.66578e-05
2.7283e-05
2.75121e-05
2.74536e-05
2.62317e-05
2.4654e-05
2.25705e-05
2.00034e-05
1.7082e-05
1.39523e-05
1.06827e-05
7.00657e-06
2.90775e-06
6.23445e-08
1.13636e-07
6.28943e-06
1.38448e-05
1.82479e-05
2.1009e-05
2.29277e-05
2.43343e-05
2.53836e-05
2.6169e-05
2.6762e-05
2.72241e-05
2.76097e-05
2.79668e-05
2.8339e-05
2.87683e-05
2.92968e-05
3.0007e-05
3.09502e-05
3.21211e-05
3.34888e-05
3.49959e-05
3.64945e-05
3.78163e-05
3.88306e-05
3.94833e-05
3.98165e-05
3.9814e-05
3.91343e-05
3.82991e-05
3.76801e-05
3.50324e-05
3.26117e-05
3.01977e-05
2.77144e-05
2.51233e-05
2.236e-05
1.90422e-05
1.41928e-05
6.55445e-06
1.18632e-07
1.79593e-07
9.3668e-06
2.09338e-05
2.79222e-05
3.23472e-05
3.54062e-05
3.76481e-05
3.93455e-05
4.06592e-05
4.1703e-05
4.25642e-05
4.33086e-05
4.3979e-05
4.45967e-05
4.51655e-05
4.5678e-05
4.60611e-05
4.62933e-05
4.64059e-05
4.63711e-05
4.61329e-05
4.57167e-05
4.52339e-05
4.47304e-05
4.41923e-05
4.35329e-05
4.26297e-05
4.11384e-05
3.95195e-05
3.84211e-05
3.51076e-05
3.16659e-05
2.85864e-05
2.61482e-05
2.37464e-05
2.15703e-05
1.96573e-05
1.60294e-05
7.98647e-06
1.59384e-07
2.43495e-07
1.19255e-05
2.67959e-05
3.60478e-05
4.19993e-05
4.61376e-05
4.91929e-05
5.15435e-05
5.34089e-05
5.49297e-05
5.61945e-05
5.72425e-05
5.80609e-05
5.85853e-05
5.87141e-05
5.83417e-05
5.74146e-05
5.59673e-05
5.41371e-05
5.21815e-05
5.03631e-05
4.884e-05
4.76117e-05
4.66162e-05
4.57427e-05
4.48703e-05
4.38667e-05
4.23308e-05
4.0599e-05
3.89876e-05
3.64433e-05
3.28407e-05
2.83644e-05
2.39149e-05
2.10849e-05
1.82812e-05
1.66544e-05
1.44557e-05
7.94272e-06
1.81432e-07
3.0267e-07
1.40884e-05
3.16633e-05
4.29462e-05
5.03102e-05
5.5471e-05
5.93095e-05
6.22939e-05
6.46895e-05
6.66471e-05
6.82324e-05
6.94291e-05
7.0138e-05
7.019e-05
6.93915e-05
6.76139e-05
6.4907e-05
6.15602e-05
5.80442e-05
5.48343e-05
5.22238e-05
5.02669e-05
4.88426e-05
4.77673e-05
4.68638e-05
4.58694e-05
4.47441e-05
4.34601e-05
4.19908e-05
4.02011e-05
3.75815e-05
3.46639e-05
3.09577e-05
2.58746e-05
1.99292e-05
1.58251e-05
1.27901e-05
1.07187e-05
6.55556e-06
1.79769e-07
3.55789e-07
1.58974e-05
3.57277e-05
4.88327e-05
5.75097e-05
6.36429e-05
6.82333e-05
7.18219e-05
7.47061e-05
7.70317e-05
7.88246e-05
7.99966e-05
8.03551e-05
7.96414e-05
7.76257e-05
7.42582e-05
6.9813e-05
6.48907e-05
6.02129e-05
5.63213e-05
5.34111e-05
5.13975e-05
5.01303e-05
4.93184e-05
4.86721e-05
4.84185e-05
4.82272e-05
4.76721e-05
4.63133e-05
4.4354e-05
4.17233e-05
3.84704e-05
3.41593e-05
2.95909e-05
2.33325e-05
1.58511e-05
1.03715e-05
6.49101e-06
4.1854e-06
1.56852e-07
4.02323e-07
1.7391e-05
3.91181e-05
5.38508e-05
6.37474e-05
7.0805e-05
7.61152e-05
8.02741e-05
8.35979e-05
8.62161e-05
8.81056e-05
8.91043e-05
8.89383e-05
8.72976e-05
8.3984e-05
7.91068e-05
7.32052e-05
6.71408e-05
6.17572e-05
5.75484e-05
5.45865e-05
5.26269e-05
5.17542e-05
5.14935e-05
5.21342e-05
5.3061e-05
5.36307e-05
5.38316e-05
5.32905e-05
5.15854e-05
4.90327e-05
4.57947e-05
4.10774e-05
3.52064e-05
2.89018e-05
2.09512e-05
1.13847e-05
4.70262e-06
1.97472e-06
1.17666e-07
4.42193e-07
1.86069e-05
4.19233e-05
5.81028e-05
6.91276e-05
7.70603e-05
8.30567e-05
8.77506e-05
9.14655e-05
9.43079e-05
9.62047e-05
9.69291e-05
9.61521e-05
9.35573e-05
8.90327e-05
8.28756e-05
7.58536e-05
6.89818e-05
6.31082e-05
5.86035e-05
5.55554e-05
5.4328e-05
5.40853e-05
5.50492e-05
5.69587e-05
5.89749e-05
6.07601e-05
6.18309e-05
6.20386e-05
6.11263e-05
5.86804e-05
5.55008e-05
5.11619e-05
4.48381e-05
3.66918e-05
2.8173e-05
1.77784e-05
6.43633e-06
1.59253e-06
1.12832e-07
4.75512e-07
1.95776e-05
4.42116e-05
6.16676e-05
7.37296e-05
8.24857e-05
8.91324e-05
9.43264e-05
9.83899e-05
0.000101404
0.000103251
0.000103657
0.000102269
9.88028e-05
9.32556e-05
8.60932e-05
7.82358e-05
7.07604e-05
6.44651e-05
5.93141e-05
5.71484e-05
5.63028e-05
5.71664e-05
5.90774e-05
6.23189e-05
6.51354e-05
6.75245e-05
6.91914e-05
6.9875e-05
6.93763e-05
6.72858e-05
6.32899e-05
5.9224e-05
5.384e-05
4.62107e-05
3.60013e-05
2.44515e-05
1.24676e-05
2.69515e-06
2.35975e-07
5.02508e-07
2.03313e-05
4.60387e-05
6.46105e-05
7.76184e-05
8.71435e-05
9.44028e-05
0.000100064
0.000104443
0.000107596
0.000109372
0.000109473
0.000107545
0.00010336
9.70218e-05
8.91138e-05
8.06278e-05
7.26408e-05
6.52282e-05
6.08288e-05
5.87468e-05
5.89004e-05
6.00783e-05
6.32742e-05
6.71639e-05
7.04258e-05
7.3165e-05
7.50635e-05
7.60905e-05
7.62311e-05
7.5245e-05
7.2107e-05
6.664e-05
6.14838e-05
5.46938e-05
4.52908e-05
3.19481e-05
1.69427e-05
4.16268e-06
6.76116e-07
5.23572e-07
2.08933e-05
4.74532e-05
6.69883e-05
8.08515e-05
9.10888e-05
9.89222e-05
0.000105022
0.000109693
0.000112973
0.000114692
0.000114543
0.000112197
0.000107484
0.00010059
9.21661e-05
8.32348e-05
7.43462e-05
6.64551e-05
6.26182e-05
6.05344e-05
6.12523e-05
6.27214e-05
6.67518e-05
7.10018e-05
7.4619e-05
7.76498e-05
7.9771e-05
8.1009e-05
8.13258e-05
8.08506e-05
7.91684e-05
7.48335e-05
6.83552e-05
6.19762e-05
5.36127e-05
4.07999e-05
2.40619e-05
8.19138e-06
1.59383e-06
5.39173e-07
2.12863e-05
4.84986e-05
6.88528e-05
8.34815e-05
9.43733e-05
0.000102742
0.000109254
0.000114205
0.00011762
0.000119322
0.000119012
0.000116394
0.000111355
0.000104129
9.53727e-05
8.60282e-05
7.61806e-05
6.85528e-05
6.44846e-05
6.21388e-05
6.3226e-05
6.49521e-05
6.94423e-05
7.39054e-05
7.78941e-05
8.12948e-05
8.38948e-05
8.56158e-05
8.6315e-05
8.58428e-05
8.44439e-05
8.17024e-05
7.52072e-05
6.80839e-05
6.08434e-05
4.85593e-05
3.06427e-05
1.09377e-05
2.52315e-06
5.49818e-07
2.15314e-05
4.92154e-05
7.02527e-05
8.55592e-05
9.70481e-05
0.000105915
0.000112818
0.000118046
0.000121619
0.000123363
0.000122999
0.000120272
0.000115111
0.000107782
9.89659e-05
8.91478e-05
7.86262e-05
7.09773e-05
6.63839e-05
6.37197e-05
6.48285e-05
6.667e-05
7.13652e-05
7.6015e-05
8.02162e-05
8.38987e-05
8.6971e-05
8.92394e-05
9.04926e-05
9.05391e-05
8.92324e-05
8.69175e-05
8.20453e-05
7.36446e-05
6.66444e-05
5.5493e-05
3.73165e-05
1.52266e-05
3.30084e-06
5.56047e-07
2.16486e-05
4.96424e-05
7.12351e-05
8.71361e-05
9.91689e-05
0.000108508
0.00011579
0.000121302
0.000125067
0.000126928
0.000126638
0.000123988
0.000118937
0.000111717
0.000102768
9.23206e-05
8.16002e-05
7.3832e-05
6.84542e-05
6.52116e-05
6.60673e-05
6.776e-05
7.21515e-05
7.68541e-05
8.1253e-05
8.52933e-05
8.88682e-05
9.17815e-05
9.37381e-05
9.44324e-05
9.36661e-05
9.13549e-05
8.75664e-05
7.94963e-05
7.13552e-05
6.14593e-05
4.32951e-05
1.87641e-05
3.97489e-06
5.58326e-07
2.16554e-05
4.9821e-05
7.1846e-05
8.82778e-05
0.000100819
0.000110579
0.00011822
0.000124032
0.000128043
0.000130105
0.000129985
0.000127472
0.000122514
0.000115324
0.000106429
9.6061e-05
8.54676e-05
7.7165e-05
7.10622e-05
6.69127e-05
6.69569e-05
6.83956e-05
7.2147e-05
7.67004e-05
8.11675e-05
8.54689e-05
8.95435e-05
9.32086e-05
9.60595e-05
9.75776e-05
9.73896e-05
9.54011e-05
9.17197e-05
8.50549e-05
7.54289e-05
6.64055e-05
4.8601e-05
2.2437e-05
4.62234e-06
5.57208e-07
2.15714e-05
4.97752e-05
7.2117e-05
8.89679e-05
0.00010189
0.000112022
0.00011999
0.000126075
0.000130318
0.000132592
0.000132693
0.000130445
0.000125829
0.000119046
0.000110543
0.000100482
8.99799e-05
8.10903e-05
7.41712e-05
6.93187e-05
6.78494e-05
6.87851e-05
7.16465e-05
7.57738e-05
8.01299e-05
8.45739e-05
8.91129e-05
9.36169e-05
9.75781e-05
0.00010019
0.000100782
9.92363e-05
9.55328e-05
8.9825e-05
7.92469e-05
7.04238e-05
5.28607e-05
2.58876e-05
5.23182e-06
5.53661e-07
2.13851e-05
4.95266e-05
7.20709e-05
8.92287e-05
0.000102527
0.000113017
0.000121303
0.000127672
0.000132179
0.000134725
0.000135145
0.000133299
0.000129153
0.000122862
0.000114799
0.000105269
9.50763e-05
8.57536e-05
7.80798e-05
7.22617e-05
6.95207e-05
6.92726e-05
7.11017e-05
7.44902e-05
7.85146e-05
8.29624e-05
8.78928e-05
9.32575e-05
9.84763e-05
0.000102392
0.000104039
0.000102841
9.90944e-05
9.33002e-05
8.31482e-05
7.3653e-05
5.64523e-05
2.88472e-05
5.82528e-06
5.47742e-07
2.11886e-05
4.9194e-05
7.18659e-05
8.9347e-05
0.000102971
0.000113761
0.000122332
0.000128983
0.000133787
0.000136672
0.000137498
0.000136142
0.000132574
0.00012691
0.000119429
0.000110448
0.000100648
9.122e-05
8.29517e-05
7.6211e-05
7.20374e-05
7.06396e-05
7.1161e-05
7.34408e-05
7.68897e-05
8.11993e-05
8.64131e-05
9.25741e-05
9.91024e-05
0.000104619
0.000107364
0.000106374
0.000102421
9.62259e-05
8.67274e-05
7.60772e-05
5.94372e-05
3.16165e-05
6.42012e-06
5.40269e-07
2.09356e-05
4.87021e-05
7.14341e-05
8.91391e-05
0.00010305
0.000114144
0.000123019
0.00012998
0.000135117
0.000138381
0.000139658
0.00013884
0.000135895
0.000130913
0.000124123
0.000115865
0.000106584
9.7289e-05
8.8815e-05
8.14771e-05
7.57573e-05
7.30272e-05
7.24914e-05
7.36392e-05
7.59482e-05
7.99944e-05
8.53634e-05
9.2265e-05
0.000100138
0.00010694
0.000110394
0.000109796
0.000105542
9.87484e-05
8.95479e-05
7.81039e-05
6.18375e-05
3.3937e-05
7.00246e-06
5.32255e-07
2.06169e-05
4.80941e-05
7.08292e-05
8.86905e-05
0.000102828
0.000114173
0.000123313
0.000130559
0.000136021
0.000139672
0.000141424
0.000141183
0.000138917
0.000134696
0.000128708
0.000121257
0.00011278
0.000103768
9.54147e-05
8.78155e-05
8.13385e-05
7.68277e-05
7.49943e-05
7.54115e-05
7.68678e-05
8.00334e-05
8.55143e-05
9.29573e-05
0.000101569
0.000109239
0.00011355
0.000113138
0.000108436
0.000100888
9.16118e-05
7.96586e-05
6.37562e-05
3.60422e-05
7.5998e-06
5.24657e-07
2.02398e-05
4.74159e-05
7.01e-05
8.8066e-05
0.000102386
0.000113948
0.000123331
0.00013085
0.000136633
0.000140679
0.000142919
0.000143278
0.000141721
0.000138301
0.000133172
0.00012659
0.000118912
0.000110523
0.000102422
9.4943e-05
8.82844e-05
8.26885e-05
7.93507e-05
7.83305e-05
7.93668e-05
8.1872e-05
8.69141e-05
9.45614e-05
0.000103661
0.000112027
0.000116805
0.000116213
0.000110778
0.000102635
9.29248e-05
8.07965e-05
6.52526e-05
3.78344e-05
8.19244e-06
5.16599e-07
1.98277e-05
4.6678e-05
6.92741e-05
8.73084e-05
0.000101768
0.000113515
0.000123114
0.000130889
0.000136984
0.00014142
0.000144151
0.000145113
0.000144275
0.000141673
0.00013743
0.000131761
0.00012497
0.00011744
0.000109612
0.000102519
9.58881e-05
9.00625e-05
8.57981e-05
8.36011e-05
8.37268e-05
8.55056e-05
8.9999e-05
9.75837e-05
0.000106738
0.000115281
0.000119956
0.000118931
0.000112674
0.000103542
9.35563e-05
8.1524e-05
6.63904e-05
3.94812e-05
8.80329e-06
5.08209e-07
1.94206e-05
4.59195e-05
6.83907e-05
8.64565e-05
0.000101022
0.00011292
0.000122709
0.000130719
0.00013711
0.000141923
0.000145132
0.000146687
0.000146558
0.000144769
0.000141416
0.000136674
0.000130798
0.000124103
0.000116886
0.00011014
0.000103844
9.81635e-05
9.34441e-05
9.06088e-05
8.99509e-05
9.12054e-05
9.49107e-05
0.000101872
0.00011062
0.000118703
0.000123111
0.000121588
0.000114363
0.000104046
9.33279e-05
8.18588e-05
6.71976e-05
4.09472e-05
9.41404e-06
4.99858e-07
1.90415e-05
4.51761e-05
6.74913e-05
8.55519e-05
0.000100192
0.000112211
0.000122164
0.000130387
0.000137052
0.000142221
0.000145886
0.00014801
0.000148565
0.000147566
0.000145084
0.000141261
0.000136307
0.000130497
0.000124166
0.000117633
0.000111829
0.000106335
0.000101723
9.84318e-05
9.7235e-05
9.80085e-05
0.000100971
0.000106993
0.000114899
0.000122344
0.000126061
0.000123645
0.000115349
0.000104125
9.29634e-05
8.18729e-05
6.77674e-05
4.23363e-05
1.00393e-05
4.91935e-07
1.87041e-05
4.44791e-05
6.66171e-05
8.46404e-05
9.93284e-05
0.00011144
0.000121531
0.000129941
0.000136856
0.000142354
0.000146443
0.000149101
0.000150302
0.000150053
0.000148406
0.000145472
0.000141423
0.000136491
0.000130954
0.000125098
0.000119517
0.000114443
0.000109939
0.000106588
0.000105075
0.000105265
0.000107471
0.000112446
0.000119382
0.000125813
0.000128516
0.000125053
0.000115622
0.000103462
9.21472e-05
8.14221e-05
6.816e-05
4.35938e-05
1.06624e-05
4.84874e-07
1.84247e-05
4.38607e-05
6.58108e-05
8.37714e-05
9.84821e-05
0.00011066
0.000120864
0.000129433
0.000136568
0.00014236
0.000146836
0.000149982
0.00015178
0.000152229
0.000151365
0.000149275
0.000146094
0.000142014
0.000137274
0.000132167
0.000126932
0.000122206
0.000117897
0.00011455
0.00011282
0.000112507
0.000113954
0.000117918
0.000123675
0.00012884
0.000130354
0.000125771
0.000115222
0.000102158
9.05687e-05
8.04307e-05
6.83627e-05
4.48527e-05
1.12903e-05
4.79127e-07
1.82204e-05
4.33545e-05
6.51177e-05
8.29986e-05
9.77081e-05
0.000109927
0.000120213
0.000128911
0.000136228
0.000142272
0.000147084
0.000150663
0.000152997
0.00015408
0.000153937
0.000152629
0.000150264
0.000146994
0.000143019
0.000138578
0.000133938
0.000129477
0.000125394
0.000122046
0.000120083
0.000119318
0.000120073
0.000122991
0.000127432
0.000131199
0.00013144
0.000125749
0.000114179
0.000100377
8.88162e-05
7.97276e-05
6.83812e-05
4.60994e-05
1.19079e-05
4.7527e-07
1.81077e-05
4.29971e-05
6.45884e-05
8.23795e-05
9.70618e-05
0.000109291
0.000119622
0.000128402
0.00013585
0.000142088
0.000147171
0.000151111
0.000153902
0.000155541
0.00015604
0.000155441
0.000153825
0.000151311
0.000148059
0.000144267
0.000140168
0.000136037
0.000132341
0.000128978
0.00012674
0.000125564
0.000125622
0.00012734
0.000130344
0.000132633
0.000131595
0.000124889
0.000112429
9.80488e-05
8.64897e-05
7.82852e-05
6.80813e-05
4.73524e-05
1.25156e-05
4.74487e-07
1.81348e-05
4.28413e-05
6.42839e-05
8.19744e-05
9.65907e-05
0.000108777
0.000119086
0.000127876
0.000135374
0.000141715
0.000146971
0.00015117
0.000154317
0.000156409
0.000157452
0.000157469
0.000156517
0.000154687
0.000152102
0.000148921
0.000145334
0.000141553
0.000138019
0.000134799
0.000132323
0.000130702
0.00012994
0.000130418
0.000131955
0.000132757
0.00013052
0.000122983
0.000109825
9.51877e-05
8.37901e-05
7.63877e-05
6.75106e-05
4.85951e-05
1.31027e-05
4.7587e-07
1.83099e-05
4.29684e-05
6.42875e-05
8.18327e-05
9.62964e-05
0.000108355
0.000118536
0.000127187
0.000134555
0.000140835
0.000146109
0.000150419
0.00015378
0.000156192
0.00015765
0.00015815
0.000157745
0.000156499
0.000154503
0.000151876
0.000148762
0.000145327
0.00014193
0.000138718
0.000135938
0.000133891
0.00013233
0.000131546
0.000131571
0.000130938
0.000127688
0.000119639
0.000106194
9.15914e-05
8.07062e-05
7.41633e-05
6.66691e-05
4.97733e-05
1.36679e-05
4.81622e-07
1.85565e-05
4.3291e-05
6.45066e-05
8.18987e-05
9.6178e-05
0.000108011
0.000117933
0.000126324
0.000133444
0.000139428
0.000144417
0.000148496
0.000151701
0.000154041
0.000155544
0.00015629
0.000156252
0.000155448
0.000153929
0.000151769
0.00014907
0.000145947
0.00014268
0.00013945
0.000136358
0.000133784
0.00013149
0.000129526
0.000127984
0.000125897
0.000121515
0.000113431
0.000100839
8.70672e-05
7.70154e-05
7.15141e-05
6.58365e-05
5.08298e-05
1.42091e-05
4.95695e-07
1.88996e-05
4.37999e-05
6.49481e-05
8.20375e-05
9.58383e-05
0.000107088
0.00011636
0.000124079
0.000130546
0.000135981
0.000140509
0.000144188
0.000147068
0.000149201
0.000150614
0.000151295
0.000151276
0.000150578
0.000149232
0.000147291
0.000144828
0.00014191
0.000138707
0.000135451
0.000132073
0.000128895
0.000125883
0.000122773
0.000119746
0.000116542
0.000111798
0.000103983
9.21789e-05
7.95941e-05
7.19703e-05
6.86074e-05
6.48079e-05
5.15836e-05
1.47328e-05
5.20832e-07
1.94978e-05
4.47141e-05
6.55703e-05
8.18628e-05
9.45589e-05
0.000104528
0.000112439
0.000118788
0.000123937
0.00012817
0.000131636
0.00013444
0.000136645
0.000138271
0.000139315
0.000139767
0.000139646
0.000138961
0.00013772
0.000135927
0.000133593
0.000130777
0.000127554
0.000124177
0.000120537
0.000116885
0.000113272
0.00010945
0.000105546
0.000101527
9.67685e-05
9.0687e-05
8.25395e-05
7.36955e-05
6.72375e-05
6.51634e-05
6.33809e-05
5.12527e-05
1.52599e-05
5.559e-07
2.03167e-05
4.57751e-05
6.55234e-05
7.97946e-05
9.00925e-05
9.75696e-05
0.000103063
0.000107152
0.000110223
0.000112538
0.000114294
0.000115611
0.000116557
0.000117153
0.000117404
0.000117292
0.000116793
0.000115887
0.000114563
0.000112813
0.00011065
0.000108084
0.000105153
0.000101967
9.85549e-05
9.50328e-05
9.14552e-05
8.78383e-05
8.4281e-05
8.08429e-05
7.72615e-05
7.33954e-05
6.88678e-05
6.42101e-05
6.20063e-05
6.32459e-05
6.18082e-05
5.05541e-05
1.58606e-05
6.16675e-07
2.13749e-05
4.59566e-05
6.23599e-05
7.24543e-05
7.86013e-05
8.22597e-05
8.4339e-05
8.54283e-05
8.59175e-05
8.60393e-05
8.59469e-05
8.57257e-05
8.54184e-05
8.50321e-05
8.456e-05
8.39791e-05
8.32617e-05
8.23761e-05
8.13027e-05
8.00229e-05
7.85353e-05
7.6836e-05
7.49498e-05
7.29135e-05
7.0787e-05
6.86316e-05
6.65238e-05
6.45291e-05
6.27247e-05
6.12101e-05
5.99296e-05
5.90048e-05
5.79221e-05
5.72367e-05
5.74073e-05
5.95128e-05
5.94575e-05
4.92863e-05
1.62514e-05
6.89375e-07
2.21537e-05
4.28998e-05
5.20569e-05
5.57157e-05
5.68788e-05
5.68268e-05
5.62156e-05
5.54069e-05
5.45972e-05
5.38735e-05
5.32762e-05
5.28109e-05
5.2474e-05
5.22444e-05
5.21042e-05
5.20235e-05
5.19828e-05
5.19515e-05
5.1917e-05
5.18561e-05
5.17693e-05
5.16433e-05
5.14968e-05
5.13281e-05
5.11881e-05
5.11239e-05
5.11877e-05
5.13998e-05
5.17982e-05
5.24425e-05
5.32938e-05
5.45198e-05
5.56692e-05
5.67291e-05
5.76329e-05
5.91626e-05
5.73011e-05
4.76084e-05
1.6426e-05
8.38369e-07
2.22915e-05
3.32507e-05
3.45962e-05
3.46635e-05
3.45073e-05
3.4361e-05
3.43301e-05
3.44557e-05
3.47456e-05
3.51833e-05
3.57527e-05
3.64309e-05
3.72036e-05
3.80495e-05
3.89578e-05
3.99093e-05
4.08975e-05
4.19057e-05
4.29326e-05
4.39645e-05
4.50062e-05
4.60474e-05
4.71023e-05
4.81561e-05
4.9242e-05
5.0477e-05
5.1818e-05
5.32226e-05
5.46812e-05
5.62005e-05
5.77082e-05
5.92724e-05
6.06282e-05
6.15868e-05
6.16668e-05
6.09918e-05
5.47073e-05
4.42342e-05
1.64376e-05
1.18198e-06
2.13511e-05
2.57107e-05
2.75209e-05
2.95651e-05
3.14305e-05
3.32015e-05
3.49057e-05
3.65447e-05
3.812e-05
3.96366e-05
4.11005e-05
4.25159e-05
4.38846e-05
4.52081e-05
4.64864e-05
4.77213e-05
4.89131e-05
5.00652e-05
5.11782e-05
5.22571e-05
5.3302e-05
5.43205e-05
5.53116e-05
5.62829e-05
5.72436e-05
5.81438e-05
5.89875e-05
5.98306e-05
6.06341e-05
6.1487e-05
6.22963e-05
6.31816e-05
6.40539e-05
6.40109e-05
6.28954e-05
5.95755e-05
5.15433e-05
3.79209e-05
1.54418e-05
8.33353e-07
1.4652e-06
2.35144e-06
3.20211e-06
4.01624e-06
4.76794e-06
5.47156e-06
6.14547e-06
6.80243e-06
7.44703e-06
8.08121e-06
8.70436e-06
9.31737e-06
9.91908e-06
1.05109e-05
1.10902e-05
1.16596e-05
1.22138e-05
1.27586e-05
1.32842e-05
1.38024e-05
1.42966e-05
1.47875e-05
1.5248e-05
1.57127e-05
1.6138e-05
1.65809e-05
1.6965e-05
1.73803e-05
1.77134e-05
1.80913e-05
1.8351e-05
1.8652e-05
1.88046e-05
1.8988e-05
1.90811e-05
1.89945e-05
1.86067e-05
1.75687e-05
1.42857e-05
)
;

boundaryField
{
    movingWall
    {
        type            nutkWallFunction;
        Cmu             0.09;
        kappa           0.41;
        E               9.8;
        value           uniform 0;
    }
    fixedWalls
    {
        type            nutkWallFunction;
        Cmu             0.09;
        kappa           0.41;
        E               9.8;
        value           uniform 0;
    }
    frontAndBack
    {
        type            empty;
    }
}


// ************************************************************************* //
