/*--------------------------------*- C++ -*----------------------------------*\
  =========                 |
  \\      /  F ield         | OpenFOAM: The Open Source CFD Toolbox
   \\    /   O peration     | Website:  https://openfoam.org
    \\  /    A nd           | Version:  13
     \\/     M anipulation  |
\*---------------------------------------------------------------------------*/
FoamFile
{
    format      ascii;
    class       volVectorField;
    location    "1.5";
    object      U;
}
// * * * * * * * * * * * * * * * * * * * * * * * * * * * * * * * * * * * * * //

dimensions      [0 1 -1 0 0 0 0];

internalField   nonuniform List<vector> 
1600
(
(0.000160567 -0.000164583 0)
(0.000260187 -7.34093e-05 0)
(-0.000171828 7.27659e-05 0)
(-0.00103872 0.000177807 0)
(-0.00216329 0.00023508 0)
(-0.00342896 0.000258541 0)
(-0.00477508 0.000265931 0)
(-0.00617606 0.000266765 0)
(-0.007628 0.000266835 0)
(-0.0091414 0.000271051 0)
(-0.0107385 0.000284797 0)
(-0.0124525 0.000314853 0)
(-0.0143272 0.000370097 0)
(-0.0164161 0.000461838 0)
(-0.0187783 0.000603057 0)
(-0.0214715 0.000805534 0)
(-0.0245392 0.00107383 0)
(-0.0279929 0.00139655 0)
(-0.0317907 0.00173824 0)
(-0.0358116 0.00203859 0)
(-0.039843 0.00222183 0)
(-0.0436261 0.00221234 0)
(-0.0469201 0.00196844 0)
(-0.0492773 0.00153274 0)
(-0.0503255 0.0010063 0)
(-0.0503252 9.34465e-05 0)
(-0.0483951 -0.000816462 0)
(-0.0449593 -0.00172527 0)
(-0.0399244 -0.00262672 0)
(-0.0335571 -0.0033088 0)
(-0.026265 -0.00366994 0)
(-0.0186093 -0.00370033 0)
(-0.0111892 -0.00332361 0)
(-0.00464328 -0.00256762 0)
(0.000420498 -0.00161238 0)
(0.00355346 -0.000668354 0)
(0.00479137 0.00018135 0)
(0.00440994 0.000727742 0)
(0.00292589 0.000938035 0)
(0.000801059 0.000809594 0)
(3.9458e-05 -0.000266732 0)
(-0.000525683 0.000453021 0)
(-0.00187439 0.00133198 0)
(-0.00380012 0.00196094 0)
(-0.00608733 0.00232053 0)
(-0.00860266 0.00252454 0)
(-0.0112807 0.00265763 0)
(-0.0140996 0.00276904 0)
(-0.0170629 0.00288908 0)
(-0.0201913 0.0030397 0)
(-0.0235162 0.00323908 0)
(-0.0270741 0.00350274 0)
(-0.0308983 0.00384195 0)
(-0.0350078 0.00425981 0)
(-0.0393943 0.00474543 0)
(-0.0440095 0.00526748 0)
(-0.0487587 0.0057693 0)
(-0.053505 0.00616951 0)
(-0.0580838 0.00637305 0)
(-0.0623221 0.00629091 0)
(-0.0660538 0.00585233 0)
(-0.0691301 0.00501003 0)
(-0.0713976 0.00375158 0)
(-0.0726411 0.00211916 0)
(-0.0726501 0.00015396 0)
(-0.0713145 -0.00219481 0)
(-0.0683676 -0.00472209 0)
(-0.0637282 -0.00724401 0)
(-0.0574155 -0.00959535 0)
(-0.0496292 -0.0114432 0)
(-0.0406328 -0.0125226 0)
(-0.0309738 -0.012717 0)
(-0.0213392 -0.0118101 0)
(-0.0124915 -0.00982799 0)
(-0.00520067 -0.0070725 0)
(-5.39695e-05 -0.00401939 0)
(0.00278429 -0.00113226 0)
(0.00363684 0.00122257 0)
(0.00292933 0.00285835 0)
(0.000894176 0.00278311 0)
(-0.000183404 0.000274516 0)
(-0.00159089 0.00187628 0)
(-0.00359591 0.00335326 0)
(-0.00599558 0.00436437 0)
(-0.00871597 0.00500236 0)
(-0.0116737 0.00542153 0)
(-0.0148376 0.00573915 0)
(-0.0181994 0.00603041 0)
(-0.0217667 0.00634386 0)
(-0.0255577 0.0067121 0)
(-0.0295946 0.0071558 0)
(-0.0338936 0.00768293 0)
(-0.0384545 0.00828493 0)
(-0.0432497 0.00893226 0)
(-0.0482158 0.00957224 0)
(-0.0532537 0.0101318 0)
(-0.0582371 0.010527 0)
(-0.0630321 0.010675 0)
(-0.0675199 0.0105006 0)
(-0.0716036 0.00993578 0)
(-0.075203 0.00892282 0)
(-0.0782409 0.00741401 0)
(-0.0806127 0.005376 0)
(-0.0821584 0.00279413 0)
(-0.0826972 -0.000337047 0)
(-0.0819782 -0.00397457 0)
(-0.0797202 -0.00795148 0)
(-0.0757294 -0.0120482 0)
(-0.0698773 -0.0159711 0)
(-0.0622384 -0.0192348 0)
(-0.0528712 -0.0214343 0)
(-0.0422017 -0.0221947 0)
(-0.0310067 -0.0211036 0)
(-0.0201955 -0.0181116 0)
(-0.0108293 -0.0135689 0)
(-0.00391389 -0.00832079 0)
(0.000128979 -0.00335228 0)
(0.00176691 0.000736531 0)
(0.00185758 0.00370459 0)
(0.000680744 0.00426673 0)
(-0.000426744 0.0014508 0)
(-0.0024829 0.00391895 0)
(-0.00488421 0.00576307 0)
(-0.00754744 0.00703634 0)
(-0.0104757 0.00791453 0)
(-0.013624 0.00855769 0)
(-0.0169915 0.0090907 0)
(-0.0205837 0.00960011 0)
(-0.0244106 0.0101437 0)
(-0.028485 0.0107571 0)
(-0.032816 0.0114557 0)
(-0.0374005 0.0122319 0)
(-0.0422143 0.0130519 0)
(-0.0472062 0.0138555 0)
(-0.0522987 0.0145607 0)
(-0.0573971 0.0150766 0)
(-0.0624074 0.0153185 0)
(-0.067253 0.0152185 0)
(-0.071885 0.014728 0)
(-0.0762826 0.013805 0)
(-0.0804408 0.0123975 0)
(-0.0843379 0.0104316 0)
(-0.0878903 0.0078143 0)
(-0.0909177 0.00445013 0)
(-0.0931363 0.000277197 0)
(-0.0942329 -0.00465411 0)
(-0.0938238 -0.0102347 0)
(-0.0915383 -0.0161983 0)
(-0.0870692 -0.0221495 0)
(-0.0802639 -0.0274414 0)
(-0.0710831 -0.0315413 0)
(-0.059601 -0.0336769 0)
(-0.0464253 -0.0330338 0)
(-0.03261 -0.0293313 0)
(-0.0195603 -0.0227979 0)
(-0.00905414 -0.0145796 0)
(-0.00254154 -0.00664451 0)
(0.000204043 -0.000410752 0)
(0.00090355 0.00386385 0)
(0.000443293 0.00516342 0)
(-0.000610356 0.00305929 0)
(-0.00309855 0.00638279 0)
(-0.00575504 0.00847273 0)
(-0.00859154 0.00993061 0)
(-0.011644 0.0110118 0)
(-0.014887 0.011872 0)
(-0.0183407 0.012631 0)
(-0.0220221 0.0133758 0)
(-0.0259436 0.0141647 0)
(-0.0301137 0.0150299 0)
(-0.0345322 0.0159762 0)
(-0.0391849 0.0169782 0)
(-0.0440387 0.0179798 0)
(-0.0490427 0.0188995 0)
(-0.0541347 0.0196432 0)
(-0.0592552 0.0201228 0)
(-0.0643634 0.0202733 0)
(-0.0694511 0.0200578 0)
(-0.0745488 0.0194582 0)
(-0.079717 0.0184516 0)
(-0.0850169 0.016976 0)
(-0.0904575 0.0149053 0)
(-0.0959315 0.0120488 0)
(-0.101169 0.00818806 0)
(-0.105747 0.00314831 0)
(-0.109204 -0.0031154 0)
(-0.111092 -0.0104353 0)
(-0.111056 -0.0185752 0)
(-0.108611 -0.0270807 0)
(-0.103364 -0.0351422 0)
(-0.095168 -0.0419349 0)
(-0.0840468 -0.0465588 0)
(-0.0698516 -0.0478304 0)
(-0.0531687 -0.0447548 0)
(-0.0354158 -0.0368071 0)
(-0.0189575 -0.0250569 0)
(-0.00705486 -0.0124551 0)
(-0.00160283 -0.00269185 0)
(3.01477e-05 0.00336451 0)
(0.00021062 0.00552979 0)
(-0.000728786 0.00496889 0)
(-0.00347635 0.00910644 0)
(-0.006286 0.011364 0)
(-0.00922991 0.0129472 0)
(-0.0123503 0.0141902 0)
(-0.0156297 0.0152448 0)
(-0.0190997 0.0162203 0)
(-0.0227853 0.0171968 0)
(-0.0267017 0.018227 0)
(-0.0308554 0.0193352 0)
(-0.0352427 0.0205141 0)
(-0.0398476 0.0217233 0)
(-0.0446419 0.0228929 0)
(-0.049591 0.0239337 0)
(-0.0546643 0.0247562 0)
(-0.0598495 0.0252914 0)
(-0.065167 0.0255064 0)
(-0.0706805 0.025405 0)
(-0.0764968 0.0250047 0)
(-0.0827431 0.0242911 0)
(-0.0895111 0.0231575 0)
(-0.096768 0.0213602 0)
(-0.104272 0.0185299 0)
(-0.111552 0.0142636 0)
(-0.117999 0.0082714 0)
(-0.123067 0.000502391 0)
(-0.126441 -0.00883077 0)
(-0.127808 -0.0194117 0)
(-0.127014 -0.0306645 0)
(-0.123962 -0.0418451 0)
(-0.118354 -0.0521584 0)
(-0.109261 -0.0602152 0)
(-0.0964053 -0.0646077 0)
(-0.0794824 -0.0638227 0)
(-0.0590977 -0.05663 0)
(-0.0368009 -0.0424126 0)
(-0.0164816 -0.023505 0)
(-0.00465803 -0.00730349 0)
(-0.00103198 0.00186281 0)
(-3.19234e-05 0.00532803 0)
(-0.000792537 0.00705393 0)
(-0.00367011 0.0119723 0)
(-0.00655202 0.014356 0)
(-0.00954397 0.0160244 0)
(-0.0126819 0.0173934 0)
(-0.0159495 0.0186146 0)
(-0.0193831 0.0197865 0)
(-0.0230123 0.020979 0)
(-0.0268545 0.022236 0)
(-0.0309171 0.0235719 0)
(-0.0351978 0.0249689 0)
(-0.0396862 0.0263776 0)
(-0.0443679 0.0277236 0)
(-0.0492331 0.0289233 0)
(-0.0542883 0.0299055 0)
(-0.0595703 0.0306332 0)
(-0.0651575 0.0311157 0)
(-0.0711743 0.0313998 0)
(-0.0777791 0.0315276 0)
(-0.0851157 0.0314559 0)
(-0.0932173 0.0309552 0)
(-0.101883 0.0295517 0)
(-0.110601 0.0266161 0)
(-0.118638 0.0215839 0)
(-0.1253 0.0142214 0)
(-0.130161 0.00469296 0)
(-0.133074 -0.00654619 0)
(-0.134238 -0.0188606 0)
(-0.133951 -0.0318094 0)
(-0.132219 -0.0449531 0)
(-0.128899 -0.0578075 0)
(-0.12349 -0.0694531 0)
(-0.115198 -0.0786587 0)
(-0.102708 -0.0832161 0)
(-0.084278 -0.0797381 0)
(-0.0608339 -0.0669995 0)
(-0.0337545 -0.0436607 0)
(-0.0104966 -0.0166735 0)
(-0.00214693 -0.00131765 0)
(-0.000155832 0.00454808 0)
(-0.000813306 0.00921595 0)
(-0.00372313 0.0148903 0)
(-0.00661035 0.0173811 0)
(-0.00959566 0.0191099 0)
(-0.0127037 0.0205761 0)
(-0.015916 0.0219365 0)
(-0.0192684 0.0232805 0)
(-0.0227927 0.0246675 0)
(-0.026508 0.0261317 0)
(-0.0304243 0.0276785 0)
(-0.0345442 0.0292831 0)
(-0.0388672 0.0308932 0)
(-0.0433965 0.0324394 0)
(-0.0481484 0.0338544 0)
(-0.0531647 0.0350954 0)
(-0.0585236 0.0361644 0)
(-0.064346 0.0371142 0)
(-0.07079 0.0380233 0)
(-0.0780184 0.0389224 0)
(-0.0861206 0.0396657 0)
(-0.0949876 0.0397946 0)
(-0.104191 0.0385416 0)
(-0.112984 0.0350266 0)
(-0.120567 0.0287105 0)
(-0.126435 0.0196501 0)
(-0.130472 0.00838838 0)
(-0.133027 -0.00447689 0)
(-0.134171 -0.0181772 0)
(-0.134149 -0.032267 0)
(-0.132971 -0.0464691 0)
(-0.130636 -0.0604701 0)
(-0.12706 -0.0739767 0)
(-0.1217 -0.0861913 0)
(-0.113642 -0.0957618 0)
(-0.101602 -0.100046 0)
(-0.0825827 -0.0937102 0)
(-0.0563403 -0.0733939 0)
(-0.0229836 -0.0364817 0)
(-0.00364446 -0.0080778 0)
(6.99929e-05 0.00328988 0)
(-0.000802113 0.0113763 0)
(-0.00366763 0.0177888 0)
(-0.00650327 0.0203801 0)
(-0.00943274 0.0221545 0)
(-0.0124671 0.0236954 0)
(-0.0155836 0.0251695 0)
(-0.0188151 0.0266601 0)
(-0.022193 0.0282175 0)
(-0.0257381 0.0298672 0)
(-0.0294633 0.0316078 0)
(-0.0333775 0.0334114 0)
(-0.0374914 0.0352291 0)
(-0.0418248 0.037004 0)
(-0.0464168 0.0386916 0)
(-0.0513356 0.0402824 0)
(-0.0566857 0.0418174 0)
(-0.0626066 0.0433827 0)
(-0.0692536 0.0450608 0)
(-0.0767459 0.0468169 0)
(-0.0850785 0.0483224 0)
(-0.0939967 0.0488524 0)
(-0.102872 0.0473235 0)
(-0.110865 0.0427731 0)
(-0.117331 0.0348906 0)
(-0.12205 0.0241229 0)
(-0.125227 0.0112864 0)
(-0.127027 -0.00278759 0)
(-0.127886 -0.0176842 0)
(-0.127878 -0.0329256 0)
(-0.127169 -0.0482544 0)
(-0.125782 -0.0633969 0)
(-0.123586 -0.0780383 0)
(-0.120246 -0.0917191 0)
(-0.115058 -0.103576 0)
(-0.106935 -0.112353 0)
(-0.0943988 -0.114715 0)
(-0.0743864 -0.10365 0)
(-0.0439573 -0.0713203 0)
(-0.00880641 -0.0224111 0)
(0.000803845 0.00144315 0)
(-0.000769242 0.0134854 0)
(-0.00352308 0.0206017 0)
(-0.00626336 0.0233014 0)
(-0.0090934 0.0251134 0)
(-0.0120142 0.026711 0)
(-0.0149979 0.0282755 0)
(-0.0180726 0.0298872 0)
(-0.0212679 0.0315898 0)
(-0.024605 0.0334018 0)
(-0.0280998 0.0353179 0)
(-0.031767 0.037311 0)
(-0.0356266 0.03934 0)
(-0.0397114 0.0413649 0)
(-0.0440754 0.0433669 0)
(-0.0488009 0.0453687 0)
(-0.0539999 0.0474422 0)
(-0.0598045 0.0496873 0)
(-0.0663348 0.0521551 0)
(-0.0736437 0.0546944 0)
(-0.0816534 0.0567835 0)
(-0.0899681 0.0573906 0)
(-0.0978621 0.0551947 0)
(-0.104574 0.049344 0)
(-0.109679 0.0398792 0)
(-0.11318 0.0276002 0)
(-0.115381 0.0135115 0)
(-0.116562 -0.00159693 0)
(-0.116959 -0.0172261 0)
(-0.116762 -0.0329993 0)
(-0.116173 -0.048729 0)
(-0.115277 -0.0643124 0)
(-0.114031 -0.0796677 0)
(-0.112206 -0.0945785 0)
(-0.109299 -0.10851 0)
(-0.104368 -0.120247 0)
(-0.0959716 -0.127492 0)
(-0.082365 -0.125683 0)
(-0.0604887 -0.105394 0)
(-0.0225976 -0.0506315 0)
(0.00150971 -0.00428432 0)
(-0.000712207 0.0154832 0)
(-0.00330981 0.0232879 0)
(-0.00591694 0.026102 0)
(-0.00860963 0.0279468 0)
(-0.0113812 0.0295864 0)
(-0.0141988 0.0312199 0)
(-0.0170846 0.0329279 0)
(-0.0200651 0.0347495 0)
(-0.0231609 0.0366992 0)
(-0.0263895 0.03877 0)
(-0.0297697 0.0409385 0)
(-0.0333275 0.0431739 0)
(-0.0371026 0.0454544 0)
(-0.0411548 0.0477856 0)
(-0.0455667 0.0502157 0)
(-0.0504402 0.0528345 0)
(-0.0558787 0.0557332 0)
(-0.0619497 0.0589013 0)
(-0.0686713 0.0620688 0)
(-0.0758839 0.0645112 0)
(-0.0831311 0.0648742 0)
(-0.0897159 0.0617882 0)
(-0.0950688 0.0545928 0)
(-0.0989524 0.043679 0)
(-0.101504 0.0301015 0)
(-0.10303 0.0149638 0)
(-0.103775 -0.000951796 0)
(-0.103925 -0.0171451 0)
(-0.103667 -0.0332994 0)
(-0.103182 -0.0492593 0)
(-0.102587 -0.064997 0)
(-0.101908 -0.0805516 0)
(-0.101004 -0.0959268 0)
(-0.0995073 -0.110906 0)
(-0.0966698 -0.124759 0)
(-0.0912118 -0.135667 0)
(-0.0815803 -0.139781 0)
(-0.0660271 -0.130154 0)
(-0.0408471 -0.0928178 0)
(-0.00162097 -0.0167222 0)
(-0.000635839 0.0173319 0)
(-0.00304369 0.0258107 0)
(-0.00548532 0.0287452 0)
(-0.00800861 0.0306201 0)
(-0.0106002 0.0322892 0)
(-0.0132226 0.033972 0)
(-0.0158915 0.0357519 0)
(-0.0186292 0.037666 0)
(-0.0214544 0.0397266 0)
(-0.0243845 0.0419274 0)
(-0.0274399 0.0442499 0)
(-0.0306483 0.0466747 0)
(-0.0340501 0.049196 0)
(-0.0377015 0.0518389 0)
(-0.0416739 0.054668 0)
(-0.046046 0.0577759 0)
(-0.05088 0.0612272 0)
(-0.0562054 0.0649463 0)
(-0.0620118 0.0685669 0)
(-0.0680919 0.0711111 0)
(-0.0740248 0.0710476 0)
(-0.0792488 0.0670507 0)
(-0.0833835 0.0586644 0)
(-0.0863275 0.046551 0)
(-0.0882534 0.0319443 0)
(-0.089404 0.0159845 0)
(-0.0899483 -0.00056436 0)
(-0.0900272 -0.0171979 0)
(-0.0897948 -0.0336202 0)
(-0.0894136 -0.0497013 0)
(-0.0890164 -0.0654712 0)
(-0.0886781 -0.0810743 0)
(-0.0883533 -0.0966838 0)
(-0.0877776 -0.112338 0)
(-0.0863389 -0.127639 0)
(-0.0828804 -0.141278 0)
(-0.0761161 -0.149832 0)
(-0.0645529 -0.147205 0)
(-0.0460298 -0.120489 0)
(-0.0114293 -0.0362246 0)
(-0.0005457 0.019002 0)
(-0.00273772 0.0281403 0)
(-0.00498692 0.0312007 0)
(-0.0073144 0.0331041 0)
(-0.0097002 0.0347918 0)
(-0.0121029 0.0365054 0)
(-0.0145314 0.0383333 0)
(-0.0170028 0.0403128 0)
(-0.0195327 0.0424555 0)
(-0.0221368 0.0447568 0)
(-0.0248339 0.0472041 0)
(-0.0276496 0.0497873 0)
(-0.0306191 0.0525137 0)
(-0.033788 0.0554206 0)
(-0.0372085 0.0585788 0)
(-0.0409285 0.0620721 0)
(-0.0449691 0.065931 0)
(-0.0493413 0.0700342 0)
(-0.0540031 0.0739099 0)
(-0.0587606 0.0763716 0)
(-0.0633025 0.0758671 0)
(-0.067244 0.0711012 0)
(-0.0703607 0.0617953 0)
(-0.0726292 0.0487862 0)
(-0.0741865 0.0334088 0)
(-0.0751815 0.0168141 0)
(-0.0757007 -0.000236972 0)
(-0.0758365 -0.0172329 0)
(-0.0757074 -0.0338677 0)
(-0.0754575 -0.0500112 0)
(-0.075229 -0.0657209 0)
(-0.0751269 -0.0812198 0)
(-0.0751648 -0.0968246 0)
(-0.0751803 -0.112812 0)
(-0.0746782 -0.129142 0)
(-0.0726632 -0.144966 0)
(-0.0676404 -0.157554 0)
(-0.0587654 -0.16102 0)
(-0.042821 -0.144602 0)
(-0.0173345 -0.0764244 0)
(-0.000446557 0.0204714 0)
(-0.00240293 0.030253 0)
(-0.00443834 0.033444 0)
(-0.00654896 0.0353748 0)
(-0.00870841 0.0370714 0)
(-0.0108718 0.0387984 0)
(-0.0130412 0.0406511 0)
(-0.0152279 0.0426681 0)
(-0.0174435 0.044862 0)
(-0.0196998 0.0472304 0)
(-0.0220121 0.0497654 0)
(-0.0244003 0.0524644 0)
(-0.0268905 0.0553425 0)
(-0.0295128 0.0584423 0)
(-0.0322966 0.0618323 0)
(-0.0352579 0.0655782 0)
(-0.0383859 0.0696768 0)
(-0.0416687 0.0739798 0)
(-0.0450741 0.0779397 0)
(-0.0484392 0.0802499 0)
(-0.0515854 0.0793777 0)
(-0.0543464 0.0740863 0)
(-0.0566094 0.0641896 0)
(-0.0583825 0.0505996 0)
(-0.059733 0.0346926 0)
(-0.0607127 0.0176226 0)
(-0.0613327 0.000165311 0)
(-0.0616332 -0.017147 0)
(-0.0616991 -0.0339754 0)
(-0.0616573 -0.0501693 0)
(-0.0616536 -0.0657947 0)
(-0.0618087 -0.0811351 0)
(-0.0621636 -0.0966316 0)
(-0.0626205 -0.112752 0)
(-0.0628094 -0.129788 0)
(-0.0618814 -0.147355 0)
(-0.058134 -0.163631 0)
(-0.051428 -0.171492 0)
(-0.0379067 -0.164396 0)
(-0.0136968 -0.108742 0)
(-0.000342559 0.0217258 0)
(-0.00204922 0.0321307 0)
(-0.00385487 0.0354563 0)
(-0.00573292 0.0374137 0)
(-0.00765064 0.0391104 0)
(-0.00956034 0.0408347 0)
(-0.0114572 0.0426895 0)
(-0.0133466 0.0447164 0)
(-0.0152349 0.0469294 0)
(-0.0171293 0.0493282 0)
(-0.0190395 0.0519086 0)
(-0.0209778 0.0546722 0)
(-0.0229589 0.0576371 0)
(-0.0249963 0.0608444 0)
(-0.027096 0.0643518 0)
(-0.0292461 0.0682034 0)
(-0.0314127 0.0723787 0)
(-0.0335611 0.0767194 0)
(-0.0357341 0.0806669 0)
(-0.0375661 0.0826643 0)
(-0.0394109 0.0816458 0)
(-0.0410702 0.0761165 0)
(-0.0425684 0.0659747 0)
(-0.0439311 0.0521192 0)
(-0.0451506 0.0359142 0)
(-0.0461896 0.0185216 0)
(-0.0469919 0.000748122 0)
(-0.0475461 -0.016834 0)
(-0.0479024 -0.0338359 0)
(-0.0481688 -0.0500693 0)
(-0.0484861 -0.0655949 0)
(-0.0489801 -0.0807423 0)
(-0.0497038 -0.0960633 0)
(-0.0505834 -0.112201 0)
(-0.0513539 -0.129711 0)
(-0.0513147 -0.148644 0)
(-0.0490347 -0.167701 0)
(-0.0432453 -0.179968 0)
(-0.0327119 -0.178775 0)
(-0.0122516 -0.133612 0)
(-0.000237488 0.0227567 0)
(-0.00168572 0.033761 0)
(-0.003251 0.0372241 0)
(-0.00488594 0.0392078 0)
(-0.00655189 0.0408966 0)
(-0.00819887 0.0426028 0)
(-0.00981559 0.0444381 0)
(-0.0114013 0.0464478 0)
(-0.0129567 0.0486474 0)
(-0.0144836 0.0510385 0)
(-0.0159852 0.0536188 0)
(-0.0174654 0.0563911 0)
(-0.0189267 0.0593718 0)
(-0.0203666 0.0625952 0)
(-0.0217712 0.0661059 0)
(-0.0231082 0.0699311 0)
(-0.0243232 0.0740362 0)
(-0.0253606 0.07825 0)
(-0.0262494 0.0820204 0)
(-0.0267593 0.0837239 0)
(-0.0272725 0.0826979 0)
(-0.0278678 0.0772354 0)
(-0.0286057 0.0671893 0)
(-0.029551 0.0533837 0)
(-0.0306383 0.037121 0)
(-0.0317535 0.0195719 0)
(-0.0327799 0.00158799 0)
(-0.0336562 -0.0162015 0)
(-0.0343957 -0.0333434 0)
(-0.0350822 -0.0495975 0)
(-0.035842 -0.0650095 0)
(-0.0367937 -0.0799482 0)
(-0.0379918 -0.0950621 0)
(-0.0393704 -0.111159 0)
(-0.0407117 -0.129015 0)
(-0.0414465 -0.149067 0)
(-0.0404296 -0.170512 0)
(-0.0354032 -0.188048 0)
(-0.0280552 -0.19215 0)
(-0.00993425 -0.156089 0)
(-0.000134648 0.0235624 0)
(-0.00132134 0.0351367 0)
(-0.00264046 0.038739 0)
(-0.00402637 0.0407486 0)
(-0.00543526 0.0424224 0)
(-0.00681538 0.0440966 0)
(-0.00814964 0.0458926 0)
(-0.00943097 0.0478592 0)
(-0.0106546 0.0500141 0)
(-0.0118166 0.0523599 0)
(-0.0129136 0.0548947 0)
(-0.0139409 0.05762 0)
(-0.0148905 0.0605479 0)
(-0.0157458 0.0637029 0)
(-0.0164772 0.0671138 0)
(-0.0170377 0.070789 0)
(-0.0173595 0.0746797 0)
(-0.0173666 0.0786084 0)
(-0.0170188 0.0820463 0)
(-0.016401 0.0835848 0)
(-0.0156679 0.0825634 0)
(-0.0151696 0.0774143 0)
(-0.0150897 0.0677872 0)
(-0.015535 0.0543488 0)
(-0.0164195 0.0382917 0)
(-0.0175724 0.020784 0)
(-0.0188245 0.00273002 0)
(-0.0200666 -0.0151723 0)
(-0.0212702 -0.0323938 0)
(-0.0224854 -0.0486308 0)
(-0.0238119 -0.0639061 0)
(-0.0253488 -0.0786217 0)
(-0.0271402 -0.0935113 0)
(-0.02913 -0.109526 0)
(-0.0311076 -0.127633 0)
(-0.0326166 -0.148549 0)
(-0.0326402 -0.171767 0)
(-0.0292933 -0.193555 0)
(-0.0229564 -0.202006 0)
(-0.00861127 -0.172947 0)
(-3.69353e-05 0.0241453 0)
(-0.000962774 0.0362558 0)
(-0.00203495 0.0399981 0)
(-0.0031705 0.0420332 0)
(-0.00432176 0.0436861 0)
(-0.00543575 0.0453164 0)
(-0.0064898 0.0470548 0)
(-0.00747126 0.0489546 0)
(-0.00837002 0.0510354 0)
(-0.00917679 0.0533006 0)
(-0.00988199 0.0557473 0)
(-0.0104739 0.0583742 0)
(-0.0109357 0.0611866 0)
(-0.0112408 0.0641969 0)
(-0.0113488 0.0674178 0)
(-0.011203 0.0708408 0)
(-0.0107281 0.074403 0)
(-0.00983738 0.0779231 0)
(-0.00846869 0.0809209 0)
(-0.00678491 0.0823338 0)
(-0.00496191 0.0813116 0)
(-0.00339101 0.0766076 0)
(-0.00242175 0.0676627 0)
(-0.00224367 0.054897 0)
(-0.00280101 0.0393381 0)
(-0.00390093 0.0221166 0)
(-0.00533655 0.00418229 0)
(-0.00695431 -0.0136933 0)
(-0.00867887 -0.0308979 0)
(-0.0105119 -0.0470562 0)
(-0.0125103 -0.0621622 0)
(-0.0147382 -0.0766426 0)
(-0.0172214 -0.0913031 0)
(-0.0199104 -0.107217 0)
(-0.0226002 -0.125549 0)
(-0.024899 -0.14727 0)
(-0.025825 -0.172239 0)
(-0.0239307 -0.198026 0)
(-0.0193466 -0.211329 0)
(-0.00719999 -0.18831 0)
(5.286e-05 0.0245138 0)
(-0.00061799 0.0371204 0)
(-0.00144674 0.0410022 0)
(-0.0023351 0.0430628 0)
(-0.0032323 0.0446896 0)
(-0.00408494 0.0462651 0)
(-0.00486564 0.0479298 0)
(-0.00555665 0.0497418 0)
(-0.00614311 0.0517224 0)
(-0.00661103 0.0538754 0)
(-0.00694584 0.0561965 0)
(-0.00713024 0.0586801 0)
(-0.00714123 0.0613239 0)
(-0.00694602 0.0641285 0)
(-0.00649819 0.0670906 0)
(-0.00573641 0.0701854 0)
(-0.00458425 0.0733382 0)
(-0.00295517 0.0763736 0)
(-0.000793272 0.0788798 0)
(0.0017792 0.0800492 0)
(0.00453306 0.0790304 0)
(0.00707127 0.0748152 0)
(0.00895346 0.0667107 0)
(0.00987237 0.05488 0)
(0.00979776 0.0401236 0)
(0.00888653 0.0234763 0)
(0.0073556 0.00590599 0)
(0.00539748 -0.0117509 0)
(0.00313781 -0.0287997 0)
(0.000637848 -0.0447914 0)
(-0.00209354 -0.0596885 0)
(-0.00507226 -0.0739267 0)
(-0.00830425 -0.0883588 0)
(-0.0117364 -0.104163 0)
(-0.0151776 -0.122677 0)
(-0.0182557 -0.145108 0)
(-0.0200757 -0.171698 0)
(-0.0195101 -0.20026 0)
(-0.0162396 -0.217916 0)
(-0.00614685 -0.20035 0)
(0.000132835 0.0246892 0)
(-0.000293985 0.0377384 0)
(-0.000887561 0.041757 0)
(-0.00153612 0.0438424 0)
(-0.00218718 0.0454389 0)
(-0.00278743 0.0469506 0)
(-0.00330575 0.0485282 0)
(-0.00372008 0.0502343 0)
(-0.00401163 0.0520925 0)
(-0.00416271 0.0541066 0)
(-0.004155 0.0562706 0)
(-0.00396749 0.0585748 0)
(-0.00357362 0.0610092 0)
(-0.00293765 0.0635629 0)
(-0.0020117 0.0662186 0)
(-0.000735314 0.0689373 0)
(0.000963919 0.0716355 0)
(0.00316481 0.0741454 0)
(0.00591333 0.0761269 0)
(0.00912822 0.0769576 0)
(0.0125866 0.0758942 0)
(0.0159202 0.0720955 0)
(0.0186421 0.0648833 0)
(0.0203449 0.0541651 0)
(0.0208729 0.0404863 0)
(0.0202987 0.0247229 0)
(0.0188056 0.00780536 0)
(0.0165988 -0.00938917 0)
(0.0138562 -0.026103 0)
(0.0107118 -0.0418186 0)
(0.00725326 -0.0564564 0)
(0.00351902 -0.0704417 0)
(-0.000466704 -0.0846537 0)
(-0.00464292 -0.10035 0)
(-0.0088406 -0.119033 0)
(-0.0126946 -0.142138 0)
(-0.0154201 -0.170279 0)
(-0.0160018 -0.20176 0)
(-0.0139358 -0.223875 0)
(-0.00536054 -0.211348 0)
(0.000204812 0.0246565 0)
(-1.02604e-06 0.0381185 0)
(-0.000367783 0.0422722 0)
(-0.00078747 0.0443819 0)
(-0.00120356 0.0459443 0)
(-0.00156383 0.0473849 0)
(-0.0018342 0.0488642 0)
(-0.00198913 0.0504497 0)
(-0.00200679 0.0521674 0)
(-0.00186682 0.0540214 0)
(-0.00154845 0.0560043 0)
(-0.00102873 0.0581024 0)
(-0.000280152 0.0602988 0)
(0.000733148 0.0625729 0)
(0.00205673 0.0648951 0)
(0.00374604 0.0672155 0)
(0.00586471 0.0694455 0)
(0.00847716 0.0714262 0)
(0.011622 0.0728766 0)
(0.0152432 0.0733192 0)
(0.0191516 0.0721378 0)
(0.0230199 0.0686481 0)
(0.026393 0.0622527 0)
(0.0288082 0.0527027 0)
(0.029974 0.0402869 0)
(0.0298439 0.0256885 0)
(0.0285355 0.00973192 0)
(0.0262235 -0.00672587 0)
(0.0231234 -0.0228882 0)
(0.0194404 -0.0381933 0)
(0.0153363 -0.0525072 0)
(0.0109158 -0.0662198 0)
(0.00624085 -0.0802147 0)
(0.00137479 -0.095803 0)
(-0.00353165 -0.114631 0)
(-0.00810863 -0.138359 0)
(-0.0116482 -0.167902 0)
(-0.0132167 -0.201874 0)
(-0.0122036 -0.228111 0)
(-0.00469136 -0.220441 0)
(0.000245373 0.0245021 0)
(0.000256956 0.0382785 0)
(0.000102732 0.0425606 0)
(-0.00010132 0.0446931 0)
(-0.000296824 0.0462189 0)
(-0.000432162 0.0475829 0)
(-0.000471344 0.0489551 0)
(-0.00038624 0.0504086 0)
(-0.000152932 0.0519719 0)
(0.000250544 0.0536502 0)
(0.000846171 0.0554349 0)
(0.00165713 0.0573091 0)
(0.00271012 0.0592504 0)
(0.00403821 0.0612304 0)
(0.00568178 0.0632102 0)
(0.00768848 0.0651323 0)
(0.0101103 0.0669055 0)
(0.0129956 0.0683834 0)
(0.0163722 0.0693298 0)
(0.0201967 0.0693782 0)
(0.0243168 0.0680334 0)
(0.0284499 0.0647496 0)
(0.032204 0.0590275 0)
(0.0351288 0.0505824 0)
(0.0368531 0.0394992 0)
(0.0371968 0.0262472 0)
(0.0361807 0.0115159 0)
(0.0339277 -0.0039327 0)
(0.0306476 -0.0193179 0)
(0.0265974 -0.0340554 0)
(0.0220065 -0.0479583 0)
(0.017043 -0.0613644 0)
(0.0117977 -0.0751293 0)
(0.00633691 -0.0905991 0)
(0.000805065 -0.109551 0)
(-0.00443406 -0.133876 0)
(-0.00871745 -0.164799 0)
(-0.0111295 -0.201273 0)
(-0.0110135 -0.231809 0)
(-0.00432146 -0.228878 0)
(0.000288279 0.0241863 0)
(0.000482476 0.038236 0)
(0.000517926 0.0426397 0)
(0.00051154 0.0447926 0)
(0.000519652 0.0462789 0)
(0.000591645 0.0475614 0)
(0.000764999 0.04882 0)
(0.0010694 0.0501328 0)
(0.00152997 0.0515319 0)
(0.00216922 0.0530238 0)
(0.00300889 0.0545997 0)
(0.00407112 0.0562405 0)
(0.0053803 0.0579197 0)
(0.00696498 0.0596034 0)
(0.0088586 0.0612467 0)
(0.011099 0.0627874 0)
(0.0137253 0.0641351 0)
(0.0167706 0.0651561 0)
(0.0202471 0.065651 0)
(0.0241195 0.0653339 0)
(0.0282609 0.0638198 0)
(0.032434 0.0606748 0)
(0.0363078 0.0554959 0)
(0.0394821 0.0480191 0)
(0.0415736 0.0382208 0)
(0.0423207 0.0263879 0)
(0.0416335 0.0130419 0)
(0.0395704 -0.00118303 0)
(0.0363028 -0.0155876 0)
(0.0320954 -0.0295988 0)
(0.0272235 -0.0429897 0)
(0.0218956 -0.0560287 0)
(0.0162313 -0.069524 0)
(0.0103086 -0.0848372 0)
(0.00426518 -0.103871 0)
(-0.00154377 -0.128753 0)
(-0.00646602 -0.160983 0)
(-0.00955541 -0.199752 0)
(-0.0102207 -0.234627 0)
(-0.0039722 -0.23638 0)
(0.000317093 0.0237551 0)
(0.000667063 0.0380184 0)
(0.000869962 0.042531 0)
(0.00104076 0.0446998 0)
(0.00123302 0.0461428 0)
(0.00149337 0.0473395 0)
(0.00185969 0.0484789 0)
(0.00236233 0.0496449 0)
(0.00302664 0.0508732 0)
(0.00387476 0.0521724 0)
(0.00492715 0.0535342 0)
(0.00620378 0.0549389 0)
(0.00772551 0.0563575 0)
(0.00951537 0.0577527 0)
(0.011599 0.0590761 0)
(0.0140038 0.060264 0)
(0.0167558 0.0612294 0)
(0.0198737 0.0618514 0)
(0.0233561 0.0619618 0)
(0.0271661 0.0613325 0)
(0.0311965 0.0596728 0)
(0.0352503 0.0566386 0)
(0.0390476 0.0519139 0)
(0.0422474 0.0452694 0)
(0.0444964 0.0366395 0)
(0.0455046 0.0261839 0)
(0.0451101 0.0142722 0)
(0.0433038 0.00139345 0)
(0.0401973 -0.011885 0)
(0.0360251 -0.0250315 0)
(0.0310688 -0.0377984 0)
(0.0255578 -0.0503911 0)
(0.0196394 -0.0635572 0)
(0.0134005 -0.078654 0)
(0.00696264 -0.0976952 0)
(0.000669373 -0.123082 0)
(-0.00480696 -0.15661 0)
(-0.00843739 -0.197644 0)
(-0.009942 -0.237017 0)
(-0.00364159 -0.243593 0)
(0.000329286 0.0232409 0)
(0.00080557 0.0376528 0)
(0.00115107 0.0422575 0)
(0.00147637 0.0444352 0)
(0.00183162 0.0458303 0)
(0.00226028 0.0469368 0)
(0.00279969 0.0479523 0)
(0.00347995 0.0489669 0)
(0.00432572 0.0500204 0)
(0.00535788 0.051124 0)
(0.00659475 0.0522712 0)
(0.00805326 0.0534425 0)
(0.00974994 0.0546082 0)
(0.0117018 0.0557295 0)
(0.0139264 0.056757 0)
(0.016441 0.0576278 0)
(0.0192596 0.05826 0)
(0.0223877 0.0585459 0)
(0.0258129 0.0583435 0)
(0.0294913 0.0574701 0)
(0.0333323 0.0557029 0)
(0.0371711 0.052781 0)
(0.0407701 0.0484538 0)
(0.0438443 0.0425338 0)
(0.0460852 0.0349431 0)
(0.0472126 0.0257608 0)
(0.0470353 0.015236 0)
(0.0454861 0.00372246 0)
(0.0426191 -0.00834808 0)
(0.0386162 -0.0205244 0)
(0.0337341 -0.0325624 0)
(0.0282055 -0.0446182 0)
(0.0221856 -0.0573777 0)
(0.0157621 -0.0721838 0)
(0.00904706 -0.0911528 0)
(0.0023678 -0.116955 0)
(-0.00356733 -0.151724 0)
(-0.00761553 -0.195037 0)
(-0.00984806 -0.238767 0)
(-0.00337322 -0.250621 0)
(0.000325148 0.022671 0)
(0.000894016 0.0371685 0)
(0.00135383 0.0418445 0)
(0.00180861 0.0440219 0)
(0.00230423 0.0453627 0)
(0.00288054 0.0463733 0)
(0.00357345 0.0472603 0)
(0.0044119 0.0481197 0)
(0.00541894 0.0489959 0)
(0.00661329 0.0499037 0)
(0.00801041 0.050839 0)
(0.00962351 0.0517835 0)
(0.0114643 0.0527084 0)
(0.0135437 0.0535751 0)
(0.0158715 0.0543349 0)
(0.0184555 0.0549275 0)
(0.021299 0.0552774 0)
(0.0243965 0.0552898 0)
(0.0277263 0.0548451 0)
(0.0312403 0.0537968 0)
(0.0348541 0.0519708 0)
(0.0384312 0.0491747 0)
(0.0417729 0.0452124 0)
(0.0446391 0.0399341 0)
(0.046768 0.0332619 0)
(0.0479068 0.0252302 0)
(0.0478633 0.0159967 0)
(0.0465364 0.00580053 0)
(0.0439301 -0.00504691 0)
(0.04017 -0.016192 0)
(0.0354718 -0.02742 0)
(0.0300476 -0.0388526 0)
(0.0240491 -0.0511163 0)
(0.0175602 -0.0655367 0)
(0.0106748 -0.0843359 0)
(0.00370363 -0.110461 0)
(-0.00264738 -0.146415 0)
(-0.00702863 -0.192056 0)
(-0.010041 -0.240158 0)
(-0.00306244 -0.257653 0)
(0.000304316 0.0220778 0)
(0.000927652 0.036599 0)
(0.0014701 0.0413209 0)
(0.002027 0.0434847 0)
(0.0026391 0.0447618 0)
(0.0033423 0.0456693 0)
(0.00417011 0.0464218 0)
(0.00514925 0.047122 0)
(0.00630017 0.0478192 0)
(0.00763858 0.0485326 0)
(0.00917638 0.0492608 0)
(0.0109226 0.049988 0)
(0.0128838 0.050687 0)
(0.015065 0.0513208 0)
(0.0174687 0.0518429 0)
(0.0200945 0.0521968 0)
(0.0229366 0.052314 0)
(0.0259805 0.0521115 0)
(0.0291974 0.0514896 0)
(0.0325367 0.0503299 0)
(0.0359182 0.0484974 0)
(0.0392248 0.0458462 0)
(0.0422925 0.0422303 0)
(0.0449195 0.0375296 0)
(0.0468864 0.0316743 0)
(0.0479723 0.0246713 0)
(0.047997 0.0166143 0)
(0.046847 0.00765308 0)
(0.0444899 -0.00200319 0)
(0.0410018 -0.0120983 0)
(0.0365479 -0.0224622 0)
(0.0313094 -0.0331983 0)
(0.0254251 -0.0448827 0)
(0.0189679 -0.0588185 0)
(0.0120031 -0.0773223 0)
(0.00480962 -0.103643 0)
(-0.00193087 -0.140714 0)
(-0.00653497 -0.188721 0)
(-0.0103902 -0.241173 0)
(-0.00268473 -0.2649 0)
(0.000265373 0.0214978 0)
(0.000900086 0.0359822 0)
(0.00148988 0.0407186 0)
(0.00211918 0.0428502 0)
(0.002823 0.0440501 0)
(0.00363283 0.0448437 0)
(0.00457862 0.0454539 0)
(0.00568362 0.0459898 0)
(0.00696459 0.0465065 0)
(0.00843325 0.0470272 0)
(0.0100973 0.0475544 0)
(0.011961 0.0480752 0)
(0.0140262 0.0485647 0)
(0.0162917 0.0489883 0)
(0.0187539 0.0493028 0)
(0.0214052 0.0494561 0)
(0.0242325 0.0493868 0)
(0.0272143 0.0490229 0)
(0.0303166 0.0482811 0)
(0.0334876 0.0470662 0)
(0.0366519 0.045273 0)
(0.0397058 0.0427903 0)
(0.0425127 0.0395098 0)
(0.0449041 0.0353371 0)
(0.0466967 0.0302135 0)
(0.0477021 0.0241294 0)
(0.0477575 0.0171331 0)
(0.0467467 0.00931056 0)
(0.0446171 0.000786578 0)
(0.0414028 -0.00827046 0)
(0.0372212 -0.0177419 0)
(0.0322189 -0.0277275 0)
(0.0265156 -0.0387609 0)
(0.0201675 -0.0521193 0)
(0.013203 -0.0702046 0)
(0.00584941 -0.0965793 0)
(-0.00124553 -0.134643 0)
(-0.00603888 -0.185079 0)
(-0.0109057 -0.241801 0)
(-0.00214783 -0.272317 0)
(0.000206342 0.0209717 0)
(0.000804041 0.0353612 0)
(0.00140048 0.0400731 0)
(0.00206976 0.042147 0)
(0.00283995 0.04325 0)
(0.00373739 0.0439145 0)
(0.00478688 0.0443711 0)
(0.00600652 0.0447358 0)
(0.00740799 0.0450692 0)
(0.00899799 0.0453992 0)
(0.0107793 0.045732 0)
(0.0127513 0.0460578 0)
(0.0149106 0.0463545 0)
(0.017251 0.0465907 0)
(0.0197632 0.0467265 0)
(0.0224336 0.0467146 0)
(0.0252435 0.0465004 0)
(0.0281663 0.046022 0)
(0.0311645 0.0452098 0)
(0.0341863 0.043987 0)
(0.0371613 0.0422715 0)
(0.0399967 0.0399788 0)
(0.0425772 0.0370271 0)
(0.0447611 0.0333447 0)
(0.0463942 0.0288823 0)
(0.0473191 0.0236218 0)
(0.0473911 0.0175808 0)
(0.0464994 0.0107989 0)
(0.0445788 0.00333622 0)
(0.0416306 -0.0047142 0)
(0.0377312 -0.0132864 0)
(0.0329932 -0.0224862 0)
(0.027516 -0.0328119 0)
(0.021337 -0.0455079 0)
(0.0144436 -0.0630398 0)
(0.00699706 -0.0892839 0)
(-0.000461896 -0.128198 0)
(-0.00542306 -0.181154 0)
(-0.0115316 -0.242011 0)
(-0.00138122 -0.280024 0)
(0.000123878 0.0205431 0)
(0.000625075 0.0347832 0)
(0.00118296 0.0394234 0)