/*--------------------------------*- C++ -*----------------------------------*\
  =========                 |
  \\      /  F ield         | OpenFOAM: The Open Source CFD Toolbox
   \\    /   O peration     | Website:  https://openfoam.org
    \\  /    A nd           | Version:  13
     \\/     M anipulation  |
\*---------------------------------------------------------------------------*/
FoamFile
{
    format      ascii;
    class       volScalarField;
    location    "7.6";
    object      k;
}
// * * * * * * * * * * * * * * * * * * * * * * * * * * * * * * * * * * * * * //

dimensions      [0 2 -2 0 0 0 0];

internalField   nonuniform List<scalar> 
6400
(
5.50102e-07
2.82564e-06
6.86447e-06
1.10606e-05
1.42283e-05
1.60136e-05
1.66732e-05
1.67559e-05
1.68792e-05
1.75327e-05
1.90881e-05
2.20862e-05
2.67966e-05
3.33043e-05
4.12635e-05
5.02288e-05
5.97398e-05
6.96109e-05
7.93794e-05
8.88164e-05
9.82992e-05
0.000108653
0.000120971
0.000135903
0.00015283
0.00016994
0.000186929
0.000203799
0.000221062
0.000239182
0.000257921
0.000276632
0.000295019
0.000313125
0.000331426
0.000350024
0.000369314
0.000389413
0.000410574
0.00043286
0.000456435
0.000481479
0.000508136
0.000536732
0.000567479
0.000601419
0.000640489
0.000688849
0.000737958
0.000787868
0.000836854
0.000884449
0.000929187
0.000969811
0.00100484
0.00103248
0.00104682
0.00105253
0.00105113
0.00103144
0.00099634
0.000945816
0.000880461
0.000802739
0.000714406
0.000619806
0.00052355
0.000429425
0.000340907
0.00026195
0.000197777
0.000143906
0.000100377
6.7074e-05
4.30994e-05
2.67663e-05
1.61141e-05
9.25265e-06
4.37444e-06
9.31801e-07
2.66035e-06
2.23694e-05
5.42646e-05
8.48448e-05
0.000107476
0.000121003
0.000127512
0.000130258
0.000132804
0.000138266
0.00015013
0.000172244
0.000205743
0.000249931
0.000302682
0.000361293
0.000423375
0.000486533
0.000548993
0.000610142
0.00067208
0.000739226
0.000817084
0.000908145
0.00100849
0.00110921
0.00120718
0.00130053
0.00139015
0.00147705
0.00155949
0.0016364
0.00170638
0.00177024
0.00183045
0.0018878
0.00194432
0.00200084
0.00205871
0.00211849
0.00218088
0.00224657
0.00231564
0.00238836
0.00246405
0.00254265
0.00262246
0.00270064
0.00278384
0.0028695
0.0029576
0.00304485
0.00312966
0.00320833
0.00327756
0.0033332
0.00336345
0.00337341
0.00336336
0.00331966
0.00323836
0.00311901
0.00295997
0.00276445
0.00253713
0.00228629
0.0020233
0.00175655
0.00149368
0.00123943
0.000997192
0.000776813
0.000584958
0.000424331
0.000295827
0.000197525
0.000126188
7.60566e-05
3.68894e-05
4.92848e-06
5.82013e-06
4.85542e-05
0.000112879
0.000166845
0.000203608
0.000225367
0.000237481
0.00024592
0.000256698
0.000275745
0.000308844
0.000360688
0.000432883
0.000523538
0.000628587
0.000743825
0.000865994
0.000992443
0.00112067
0.00124858
0.00137459
0.00149795
0.00161656
0.00172519
0.00181893
0.00189393
0.00194758
0.00198504
0.00201392
0.00204121
0.00207114
0.00210286
0.00213722
0.00217141
0.00220927
0.00224978
0.00229478
0.00234412
0.00239886
0.00245899
0.00252433
0.0025955
0.00267195
0.00275382
0.00284105
0.00293351
0.00303037
0.00313303
0.00324119
0.00335333
0.00346841
0.00358424
0.00369862
0.00380824
0.00390935
0.00399721
0.00406663
0.00410551
0.00411766
0.00410071
0.00403928
0.00393275
0.00377665
0.00357295
0.00332398
0.00303702
0.00272859
0.00240762
0.00208444
0.00176955
0.00147189
0.00119823
0.000953619
0.000740498
0.000559843
0.0004109
0.000290392
0.000190751
9.69786e-05
1.31849e-05
1.0111e-05
8.16375e-05
0.000177479
0.000249542
0.000296766
0.00032614
0.000346124
0.000365203
0.000391725
0.00043384
0.000498774
0.000590915
0.000709937
0.000851049
0.0010074
0.00117246
0.00134052
0.00150604
0.00166305
0.00180577
0.00192859
0.00202958
0.00210612
0.00215116
0.00217037
0.00217489
0.00217
0.00216688
0.00216612
0.00217104
0.00218159
0.00219539
0.00221433
0.00223807
0.00226715
0.00230123
0.00234095
0.0023862
0.00243695
0.0024935
0.00255584
0.00262423
0.00269855
0.00277877
0.00286451
0.00295606
0.00305437
0.00315917
0.00327005
0.00338616
0.0035065
0.00362947
0.00375297
0.00387417
0.00398953
0.00409458
0.00418415
0.00425118
0.0042836
0.00429027
0.00425522
0.00417546
0.00405211
0.00387996
0.0036548
0.00337743
0.00306477
0.00272729
0.00238063
0.00203904
0.00171465
0.00141631
0.00114925
0.000915527
0.000715234
0.000546774
0.000405779
0.000282602
0.000153929
2.19567e-05
1.62274e-05
0.000125901
0.000254096
0.000343516
0.000401382
0.000439816
0.000470693
0.000505345
0.000554628
0.000628448
0.000733918
0.000872835
0.00104057
0.00122785
0.00142395
0.00161872
0.0018029
0.00196768
0.00210398
0.0022076
0.00226772
0.00229099
0.0022929
0.00226285
0.00223236
0.00220495
0.00218263
0.00216748
0.00216029
0.00215796
0.00215926
0.002166
0.00217731
0.00219287
0.00221258
0.00223641
0.00226421
0.0022957
0.00233086
0.00236991
0.00241288
0.00246022
0.00251268
0.002571
0.0026361
0.00270815
0.0027868
0.00287256
0.00296562
0.00306608
0.00317376
0.00328812
0.00340821
0.0035325
0.00365885
0.00378398
0.00390327
0.00401119
0.00410108
0.00415754
0.00417842
0.00415993
0.00408362
0.00395182
0.00377242
0.00353659
0.00324286
0.00290964
0.00255425
0.0021952
0.0018498
0.00153148
0.00124812
0.0010023
0.000793219
0.000617783
0.000470169
0.000338188
0.000192568
2.80195e-05
2.49642e-05
0.000184676
0.000347234
0.000454847
0.000524807
0.00057461
0.000619943
0.000675248
0.000753547
0.000864981
0.00101407
0.00119754
0.0014049
0.00162167
0.00183278
0.00202434
0.0021843
0.00230542
0.00237045
0.00239194
0.00237926
0.00233424
0.00228946
0.00224556
0.00220482
0.00216927
0.00214017
0.00211715
0.0020987
0.00208386
0.00207166
0.0020642
0.00206034
0.00205894
0.00205913
0.00206296
0.00206892
0.00207771
0.0020893
0.00210418
0.0021226
0.00214519
0.00217186
0.00220312
0.00223952
0.00228157
0.00233002
0.00238585
0.00245005
0.00252372
0.00260786
0.00270328
0.00281054
0.00292954
0.00305924
0.00319798
0.00334327
0.00349037
0.00363358
0.00376349
0.00387124
0.00392929
0.00394614
0.00390433
0.00379644
0.00362615
0.00337683
0.00306565
0.00271038
0.00233433
0.00196216
0.00161522
0.00130763
0.00104492
0.000825913
0.000645405
0.000495141
0.000360508
0.000209695
3.02484e-05
3.70958e-05
0.0002599
0.000459235
0.000586381
0.000670146
0.00073378
0.000797012
0.000877109
0.000987976
0.00113763
0.00132545
0.00154149
0.00176908
0.001989
0.00218312
0.00233642
0.00242941
0.00246427
0.00246208
0.00241285
0.00235933
0.00229635
0.00223547
0.00217445
0.00212038
0.00207359
0.00203284
0.00199621
0.00196307
0.00193395
0.00190891
0.00188664
0.00186661
0.0018486
0.00183272
0.00181934
0.00180812
0.00179948
0.00179361
0.00179087
0.0017901
0.00179235
0.00179821
0.00180753
0.00182107
0.00183899
0.00186222
0.00189145
0.0019279
0.001973
0.00202862
0.00209678
0.00217977
0.00227985
0.00239836
0.00253513
0.00269205
0.00286547
0.00305002
0.00323879
0.00342381
0.00358942
0.00371117
0.00376412
0.00376716
0.00368108
0.0035203
0.00325634
0.00291614
0.0025262
0.00211931
0.00172815
0.00137833
0.00108321
0.000843482
0.000652032
0.000496244
0.000359148
0.000208599
2.93795e-05
5.33398e-05
0.00035261
0.000590743
0.000738775
0.000837939
0.000917448
0.00100089
0.0011074
0.00124979
0.00143155
0.00164525
0.00187406
0.002096
0.00228887
0.0024346
0.00250668
0.00252549
0.00249457
0.00243907
0.00236328
0.00227964
0.00219196
0.00211401
0.00204379
0.00198394
0.001929
0.00187897
0.00183252
0.00178972
0.00175044
0.00171434
0.00168103
0.00165055
0.00162297
0.00159842
0.00157692
0.00155824
0.00154245
0.00152953
0.00151946
0.00151216
0.00150855
0.00150728
0.00150843
0.00151401
0.00152278
0.0015359
0.00155356
0.00157638
0.00160486
0.00163999
0.00168287
0.00173517
0.00179939
0.00187975
0.00198252
0.00211119
0.00227121
0.00246247
0.00267574
0.00290843
0.00314589
0.00337249
0.00356391
0.00366594
0.00369477
0.00363897
0.00348043
0.00318794
0.002804
0.00236633
0.00191959
0.00150591
0.00115439
0.000874797
0.000659619
0.000491988
0.000350661
0.000201885
2.73158e-05
7.41991e-05
0.000462601
0.000741117
0.000911104
0.00102676
0.00112305
0.0012268
0.0013576
0.0015251
0.00172667
0.00194776
0.00216587
0.00235621
0.00249181
0.0025521
0.00256053
0.00251638
0.00244803
0.00235132
0.00224046
0.00213725
0.0020461
0.00196482
0.00189152
0.00182544
0.00176369
0.00170668
0.00165376
0.00160524
0.00156101
0.00152107
0.0014854
0.00145404
0.00142687
0.0014037
0.00138433
0.00136854
0.00135612
0.00134679
0.00134046
0.00133739
0.00133638
0.00133731
0.00134167
0.00134865
0.0013583
0.00137088
0.0013865
0.00140544
0.00142798
0.00145462
0.00148591
0.0015226
0.0015657
0.00161673
0.00167798
0.00175309
0.00184872
0.00197726
0.00215664
0.00238324
0.00264672
0.00293103
0.00321637
0.00347235
0.00362646
0.00367882
0.00364981
0.00348655
0.00315291
0.00271289
0.0022182
0.00172795
0.00129396
0.000945473
0.000684784
0.000492878
0.000337895
0.00018836
2.49843e-05
9.98689e-05
0.000588176
0.000908359
0.00110107
0.00123338
0.00134556
0.00146681
0.00161565
0.00179714
0.00200199
0.00220965
0.00239431
0.0025232
0.00257683
0.00258039
0.00253375
0.00244788
0.00232728
0.00219992
0.00208434
0.00198045
0.00188819
0.00180464
0.00172828
0.00165817
0.00159337
0.00153446
0.00148131
0.00143426
0.0013932
0.00135805
0.00132854
0.00130433
0.00128496
0.00126992
0.0012587
0.00125076
0.00124606
0.00124396
0.00124343
0.0012452
0.00124893
0.00125449
0.00126204
0.00127135
0.00128256
0.00129581
0.00131123
0.00132907
0.00134953
0.0013728
0.00139919
0.00142904
0.00146274
0.00150079
0.0015439
0.00159357
0.00165253
0.00172584
0.00182247
0.00195796
0.00216344
0.00244178
0.002763
0.00310442
0.00342409
0.00363089
0.00370512
0.00369205
0.00351245
0.00312541
0.00261935
0.00206354
0.00153322
0.0010873
0.000749401
0.000509841
0.000333505
0.000176194
2.30756e-05
0.000130801
0.000725574
0.00108936
0.00130507
0.00145287
0.00157792
0.00171087
0.00186804
0.00204929
0.00223943
0.00241395
0.00253766
0.00258806
0.00258956
0.00254253
0.00244232
0.00230469
0.00216601
0.00203652
0.00192181
0.00181898
0.00172658
0.00164238
0.00156576
0.00149644
0.00143452
0.00138044
0.00133409
0.00129539
0.00126381
0.00123879
0.00121954
0.00120528
0.00119521
0.00118861
0.00118533
0.00118411
0.00118407
0.00118657
0.00119015
0.00119537
0.00120189
0.00120983
0.00121919
0.00123006
0.00124255
0.00125681
0.00127297
0.00129117
0.00131152
0.00133415
0.00135917
0.00138672
0.00141699
0.0014503
0.00148684
0.00152664
0.0015704
0.0016197
0.00167805
0.00175332
0.00185987
0.00202248
0.0022856
0.00263663
0.00302401
0.0034078
0.00366384
0.00375631
0.00374578
0.00353256
0.00307901
0.0024996
0.00188527
0.00132628
0.000881653
0.000562119
0.000343894
0.000173098
2.24393e-05
0.000168423
0.000870331
0.00128042
0.00151834
0.001679
0.00181187
0.00194831
0.00210192
0.00226774
0.0024263
0.0025439
0.00259277
0.00259409
0.00254768
0.00243915
0.00229062
0.00213981
0.0019988
0.00187229
0.00176035
0.00165978
0.00156941
0.00148816
0.00141616
0.00135352
0.00130037
0.00125657
0.00122145
0.00119422
0.00117378
0.00115904
0.00114891
0.00114244
0.00113922
0.00113794
0.00113779
0.00113942
0.0011421
0.00114607
0.00115093
0.00115698
0.00116415
0.00117263
0.00118251
0.00119399
0.00120721
0.00122237
0.00123962
0.00125911
0.00128096
0.00130524
0.00133196
0.00136104
0.00139234
0.00142565
0.00146081
0.00149783
0.00153712
0.00157861
0.00162268
0.00167202
0.00173294
0.00181921
0.00195491
0.00218163
0.00254539
0.00297266
0.00341804
0.00371353
0.00381717
0.00379191
0.00352182
0.00298756
0.00233194
0.00167117
0.00110194
0.000673664
0.000381943
0.000180663
2.32739e-05
0.000210214
0.0010226
0.00147742
0.00173543
0.00190493
0.00203902
0.00216932
0.00230685
0.00244302
0.0025508
0.00259774
0.00259964
0.002554
0.00244311
0.0022879
0.00212537
0.00197246
0.00183497
0.00171338
0.00160571
0.00150976
0.00142507
0.0013514
0.00128894
0.00123749
0.00119646
0.00116485
0.00114132
0.00112445
0.00111283
0.00110522
0.00110064
0.00109839
0.00109752
0.00109736
0.00109827
0.00110013
0.00110273
0.00110621
0.00111058
0.00111607
0.00112277
0.00113091
0.00114064
0.00115218
0.00116571
0.00118145
0.00119958
0.00122029
0.00124374
0.00127005
0.00129927
0.00133133
0.00136604
0.00140304
0.00144178
0.00148159
0.00152185
0.00156234
0.00160359
0.00164538
0.0016891
0.00174064
0.0018122
0.00192778
0.00213057
0.00248736
0.00295298
0.00345222
0.00377082
0.0038733
0.00381135
0.0034547
0.00282481
0.00210153
0.00141451
0.000859421
0.000467319
0.000207216
2.67417e-05
0.000254972
0.00117869
0.00167542
0.00195046
0.00212392
0.00225183
0.00236603
0.00247577
0.00256766
0.00260979
0.00261163
0.00256552
0.0024565
0.00229789
0.0021255
0.00196001
0.00181103
0.00167969
0.00156448
0.0014634
0.00137536
0.00130032
0.00123801
0.00118801
0.00114925
0.00112028
0.00109936
0.00108473
0.00107482
0.00106825
0.00106397
0.00106122
0.00105946
0.00105835
0.00105784
0.00105774
0.00105838
0.00105973
0.00106201
0.00106532
0.00106986
0.00107583
0.0010834
0.00109276
0.00110412
0.00111767
0.00113361
0.00115217
0.00117357
0.00119802
0.00122573
0.00125685
0.00129146
0.00132951
0.00137073
0.0014146
0.00146028
0.00150658
0.00155221
0.0015961
0.00163817
0.00167925
0.00171937
0.0017639
0.00182555
0.00192884
0.00211956
0.00246625
0.0029664
0.0035111
0.00382641
0.00390962
0.00378587
0.00329963
0.00257503
0.00179951
0.00111776
0.000608309
0.000264493
3.50216e-05
0.000301234
0.0013345
0.0018693
0.00215775
0.00232984
0.00244421
0.00253321
0.002604
0.00263662
0.00263582
0.00258652
0.00248142
0.00232216
0.00214195
0.00196395
0.00180209
0.00166008
0.00153658
0.00142968
0.00133801
0.001261
0.00119829
0.00114893
0.00111152
0.00108411
0.00106464
0.00105109
0.00104169
0.00103507
0.00103016
0.00102628
0.001023
0.00102011
0.00101757
0.00101546
0.00101396
0.00101329
0.00101316
0.00101421
0.00101658
0.00102033
0.00102567
0.00103275
0.00104176
0.00105285
0.00106623
0.00108208
0.00110063
0.00112212
0.00114681
0.00117498
0.00120689
0.0012428
0.00128285
0.00132706
0.00137517
0.00142656
0.00148012
0.00153418
0.0015866
0.00163526
0.00167897
0.0017181
0.00175496
0.00179631
0.00185115
0.00194861
0.00213346
0.00248329
0.00301729
0.00359076
0.00386918
0.00391366
0.00368786
0.00304337
0.00222465
0.00143167
0.000797034
0.000350226
4.81711e-05
0.0003476
0.00148605
0.00205438
0.00235233
0.00251757
0.00261186
0.0026659
0.00268728
0.00267764
0.00262198
0.00252047
0.00236231
0.00217635
0.00198636
0.00181026
0.00165562
0.00152242
0.00140846
0.00131204
0.00123214
0.00116793
0.00111818
0.00108101
0.00105412
0.00103509
0.00102169
0.00101203
0.00100467
0.000998618
0.000993238
0.000988199
0.000983382
0.000978816
0.000974622
0.000970967
0.000968036
0.000966163
0.000965371
0.000965311
0.000967043
0.000970284
0.000975202
0.000981954
0.000990666
0.00100149
0.0010146
0.00103017
0.00104841
0.00106955
0.00109389
0.00112174
0.00115343
0.00118935
0.00122983
0.00127517
0.00132548
0.00138058
0.00143985
0.00150196
0.00156479
0.00162534
0.00168021
0.00172737
0.00176595
0.00179479
0.00183216
0.00188607
0.00198148
0.00216905
0.00253767
0.00311423
0.00367287
0.00390443
0.00387471
0.00345895
0.00265915
0.00178122
0.00102194
0.000457022
6.50304e-05
0.000393196
0.00162894
0.00222689
0.00253098
0.00268258
0.00274672
0.00276244
0.0027408
0.00267663
0.00257707
0.00242025
0.00223028
0.00202925
0.00183788
0.00166817
0.00152285
0.00139993
0.00129712
0.00121287
0.00114585
0.00109443
0.00105638
0.00102902
0.00100962
0.000995703
0.000985266
0.000976828
0.000969406
0.000962424
0.000955618
0.000948936
0.000942459
0.000936345
0.00093078
0.000925959
0.000922064
0.000919319
0.000917991
0.000917605
0.000918787
0.000921775
0.000926436
0.000932963
0.000941444
0.000952017
0.000964823
0.000980023
0.000997809
0.00101841
0.00104208
0.00106916
0.00110001
0.00113505
0.00117476
0.00121962
0.00127007
0.00132636
0.00138846
0.00145576
0.00152679
0.00159897
0.00166844
0.0017303
0.001782
0.00182067
0.00184026
0.0018728
0.00192757
0.00202522
0.00222449
0.00262675
0.00324817
0.00375015
0.00391213
0.00374137
0.00307492
0.00215269
0.00127401
0.00057862
8.45396e-05
0.000437013
0.00176195
0.00238361
0.00268638
0.0028181
0.00285353
0.00283305
0.00276321
0.00265385
0.00249854
0.0023055
0.00209463
0.00188747
0.00170023
0.00153956
0.00140493
0.00129352
0.00120301
0.00113155
0.00107705
0.00103694
0.00100817
0.000987693
0.000972779
0.00096126
0.000951583
0.000942751
0.000934218
0.000925761
0.000917373
0.000909173
0.00090134
0.000894073
0.000887565
0.000881995
0.000877517
0.000874276
0.000872663
0.000872125
0.000872969
0.000875795
0.000880278
0.000886614
0.000894883
0.000905202
0.000917695
0.00093251
0.000949816
0.000969817
0.000992757
0.00101893
0.0010487
0.0010825
0.00112083
0.00116428
0.00121347
0.00126899
0.00133131
0.00140052
0.00147608
0.0015564
0.00163844
0.00171733
0.00178654
0.00184287
0.00187585
0.00189051
0.00191753
0.00197452
0.00207957
0.00230249
0.00276313
0.00342732
0.00379699
0.0038492
0.00344531
0.00253622
0.00154931
0.000711119
0.000105775
0.00047742
0.00188165
0.00251933
0.00281587
0.00292557
0.00293701
0.00287415
0.00275682
0.00260177
0.00240424
0.00218452
0.00196173
0.00175488
0.00157524
0.00142517
0.00130218
0.00120304
0.00112515
0.00106596
0.00102248
0.000991336
0.000969118
0.000952802
0.000940003
0.000929035
0.000918848
0.000908886
0.000898946
0.000889043
0.000879319
0.000869965
0.000861184
0.000853168
0.000846083
0.000840075
0.000835265
0.000831759
0.000829953
0.000829315
0.000829905
0.000832562
0.00083686
0.000842983
0.000851012
0.000861052
0.00087322
0.000887648
0.000904492
0.000923932
0.000946186
0.000971518
0.00100025
0.00103279
0.00106962
0.00111133
0.00115862
0.00121226
0.00127304
0.00134162
0.00141826
0.00150249
0.00159257
0.0016849
0.00177354
0.00185014
0.00190743
0.00193254
0.00194297
0.0019656
0.00202682
0.00214602
0.00241309
0.00295954
0.00359066
0.00384
0.00368121
0.0029106
0.00184406
0.000851977
0.000128049
0.000512955
0.00198506
0.00263199
0.0029194
0.00300992
0.00299454
0.00289001
0.00273233
0.00253012
0.00230124
0.00206335
0.00183564
0.00163349
0.00146353
0.00132499
0.00121415
0.0011274
0.00106156
0.0010132
0.000978583
0.000953906
0.000935781
0.000921525
0.000909255
0.000897802
0.000886561
0.000875314
0.000864086
0.000853023
0.000842324
0.000832191
0.00082281
0.000814339
0.000806911
0.000800635
0.000795605
0.000791904
0.000789899
0.000789152
0.000789467
0.000791887
0.000795941
0.00080179
0.000809523
0.000819239
0.000831054
0.000845092
0.000861495
0.000880428
0.000902085
0.000926698
0.000954551
0.000985995
0.00102147
0.00106153
0.00110686
0.00115827
0.0012167
0.00128315
0.00135848
0.00144314
0.00153669
0.0016371
0.00173998
0.00183798
0.00192061
0.00197412
0.00199041
0.00199604
0.00201686
0.00208456
0.00222963
0.00257176
0.003207
0.00367865
0.00376524
0.00325587
0.00215294
0.00099646
0.000151325
0.000542815
0.00207098
0.00272118
0.00299774
0.00307248
0.00302726
0.0028838
0.0026846
0.0024478
0.00219505
0.0019461
0.00171864
0.00152406
0.00136499
0.00123838
0.0011397
0.00106481
0.00100972
0.00097028
0.000942251
0.000921807
0.000905873
0.000892268
0.000879634
0.000867258
0.000854876
0.000842494
0.000830259
0.000818367
0.000807019
0.000796393
0.00078664
0.000777881
0.000770215
0.000763726
0.000758487
0.000754565
0.000752291
0.000751392
0.000751381
0.000753461
0.000757192
0.000762693
0.000770063
0.000779402
0.000790825
0.000804454
0.000820425
0.000838892
0.00086003
0.000884045
0.000911184
0.000941753
0.000976133
0.00101481
0.00105841
0.0011077
0.00116365
0.0012274
0.00130016
0.00138304
0.00147666
0.00158053
0.00169215
0.00180597
0.00191243
0.00199701
0.00203884
0.00204782
0.00204905
0.00207057
0.00215012
0.00234185
0.00280737
0.00346514
0.00373752
0.00350694
0.00246524
0.00114269
0.000175329
0.000566566
0.00213942
0.00278795
0.00305274
0.0031128
0.00303801
0.00286301
0.00262513
0.00235974
0.00208975
0.00183536
0.00161187
0.00142662
0.00127899
0.00116429
0.00107727
0.00101312
0.00096712
0.000934557
0.000911083
0.000893121
0.000878079
0.000864308
0.000850918
0.000837552
0.000824173
0.000810911
0.000797959
0.000785514
0.000773748
0.000762803
0.000752794
0.00074381
0.000735928
0.000729213
0.000723729
0.000719539
0.000716858
0.000715657
0.000715429
0.000717014
0.000720347
0.00072543
0.000732374
0.000741282
0.000752271
0.000765463
0.000780994
0.00079901
0.000819677
0.00084318
0.000869739
0.000899619
0.00093315
0.000970748
0.00101296
0.00106047
0.0011142
0.00117526
0.00124503
0.00132497
0.00141646
0.00152027
0.00163575
0.00175973
0.00188525
0.00200059
0.00207693
0.0021026
0.00210459
0.00209882
0.00212758
0.0022303
0.00250698
0.00311336
0.0035719
0.00361496
0.00278022
0.00130375
0.000201787
0.000584133
0.00219105
0.0028337
0.00308623
0.00313281
0.00303167
0.00282448
0.00255745
0.0022697
0.00198813
0.00173266
0.00151562
0.00134066
0.00120455
0.00110134
0.00102507
0.00097023
0.000931517
0.000903979
0.000883422
0.000866705
0.000851765
0.000837439
0.000823214
0.000808975
0.000794818
0.000780925
0.000767488
0.000754677
0.000742627
0.000731445
0.000721216
0.000712008
0.000703881
0.000696894
0.000691105
0.000686578
0.000683403
0.000681836
0.000681369
0.000682385
0.000685254
0.000689865
0.000696331
0.000704761
0.000715275
0.000727998
0.000743066
0.000760625
0.000780835
0.00080387
0.000829932
0.000859256
0.000892127
0.000928905
0.000970052
0.00101617
0.00106807
0.0011268
0.0011937
0.0012704
0.00135867
0.00146016
0.00157563
0.00170393
0.00184039
0.00197525
0.00209244
0.00215492
0.0021669
0.00215429
0.00214226
0.00218964
0.00234207
0.00278127
0.00341225
0.00363177
0.00308867
0.00150442
0.000235869
0.000595807
0.00222689
0.00285946
0.00309854
0.00313226
0.00301208
0.00277637
0.00248517
0.00218056
0.00189206
0.00163869
0.00142968
0.0012654
0.00114052
0.00104805
0.000981326
0.000934243
0.000901136
0.000877078
0.000858232
0.000841963
0.00082671
0.000811713
0.000796729
0.000781796
0.000767071
0.000752741
0.000738973
0.000725901
0.000713628
0.00070223
0.000691772
0.000682309
0.000673894
0.000666581
0.000660429
0.000655501
0.000651862
0.000649833
0.00064909
0.000649514
0.000651869
0.000655971
0.000661924
0.000669841
0.000679844
0.000692064
0.000706639
0.000723718
0.000743458
0.000766033
0.000791632
0.000820471
0.000852806
0.000888948
0.000929294
0.000974363
0.00102485
0.00108168
0.00114611
0.00121975
0.00130455
0.00140269
0.00151607
0.00164542
0.00178883
0.00193981
0.00208536
0.00218901
0.00222684
0.00222754
0.00219528
0.0021845
0.00226357
0.00252296
0.00313781
0.00351832
0.0033304
0.00175896
0.000281862
0.000601602
0.00224726
0.00286637
0.00309521
0.00312093
0.00297778
0.0027211
0.00241105
0.00209437
0.00180266
0.00155364
0.00135354
0.00119989
0.00108565
0.00100293
0.000944436
0.000903605
0.000874653
0.000852887
0.000834924
0.000818639
0.000802902
0.000787262
0.000771655
0.0007562
0.00074107
0.000726433
0.000712422
0.000699138
0.000686654
0.000675031
0.000664319
0.000654566
0.000645825
0.000638151
0.000631605
0.000626253
0.000622165
0.000619606
0.000618527
0.00061844
0.00062023
0.000623802
0.000629223
0.000636603
0.000646069
0.000657754
0.000671803
0.000688367
0.000707609
0.000729701
0.000754831
0.000783207
0.000815064
0.000850682
0.000890406
0.000934679
0.000984097
0.00103947
0.00110189
0.00117287
0.00125435
0.00134872
0.00145852
0.00158579
0.00173073
0.00188966
0.00205255
0.002201
0.00228196
0.00229736
0.00226894
0.00223004
0.00223931
0.0023838
0.00285779
0.00338054
0.0034442
0.00206316
0.000339519
0.000601228
0.00225495
0.00286145
0.00308069
0.00309488
0.00293457
0.00266135
0.00233723
0.00201258
0.0017205
0.00147733
0.00128649
0.0011431
0.00103871
0.000964632
0.000913045
0.00087712
0.00085115
0.000830808
0.0008132
0.00079666
0.000780409
0.000764214
0.000748121
0.000732281
0.000716859
0.00070199
0.000687776
0.000674291
0.000661592
0.000649723
0.000638733
0.000628668
0.000619583
0.000611535
0.000604591
0.000598821
0.000594306
0.00059117
0.000589643
0.00058924
0.000590421
0.000593458
0.000598339
0.000605171
0.000614081
0.000625207
0.000638696
0.000654708
0.000673409
0.000694978
0.000719607
0.000747501
0.000778889
0.00081403
0.000853233
0.000896886
0.000945498
0.000999759
0.00106063
0.00112946
0.00120807
0.00129887
0.00140478
0.0015288
0.00167298
0.00183652
0.00201303
0.00218772
0.00231662
0.00236262
0.00235708
0.00228452
0.00224962
0.0023141
0.00261723
0.0032385
0.0034714
0.00240528
0.000406414
0.000598011
0.00225292
0.00284538
0.00305095
0.00305642
0.00288435
0.00259919
0.00226533
0.00193612
0.0016458
0.00140936
0.00122775
0.00109403
0.000998565
0.00093198
0.000886068
0.000853903
0.000830011
0.000810493
0.000792924
0.000776031
0.000759303
0.000742655
0.000726189
0.000710062
0.000694413
0.00067935
0.000664948
0.00065126
0.000638332
0.000626205
0.000614924
0.00060454
0.000595109
0.000586694
0.000579363
0.000573189
0.000568248
0.000564622
0.000562626
0.000561933
0.000562538
0.000565048
0.000569396
0.00057568
0.000584024
0.000594571
0.000607473
0.000622893
0.000641008
0.000662004
0.000686081
0.000713449
0.000744338
0.000779
0.000817722
0.000860853
0.000908834
0.000962257
0.00102195
0.00108908
0.0011653
0.0012529
0.00135486
0.0014747
0.00161574
0.00177946
0.00196268
0.00215376
0.00232917
0.00242106
0.00243625
0.00238251
0.0022997
0.00229117
0.0024582
0.00301401
0.00338792
0.00274498
0.00047531
0.000590912
0.0022442
0.00281558
0.0030109
0.00300934
0.00282917
0.00253626
0.00219649
0.00186552
0.00157849
0.00134921
0.00117651
0.00105172
0.000964189
0.000903992
0.000862661
0.000833328
0.000810841
0.000791747
0.000774044
0.000756779
0.000739635
0.000722622
0.000705868
0.000689514
0.000673677
0.000658435
0.000643845
0.000629949
0.000616786
0.000604397
0.000592829
0.000582136
0.000572377
0.000563618
0.000555929
0.00054938
0.000544049
0.000540011
0.000537549
0.000536572
0.000536677
0.000538677
0.000542506
0.000548248
0.000556026
0.000565983
0.000578273
0.000593069
0.000610553
0.000630923
0.000654388
0.00068117
0.000711507
0.000745652
0.000783887
0.000826533
0.000873985
0.000926756
0.000985553
0.00105139
0.00112571
0.00121063
0.00130905
0.00142469
0.00156178
0.00172376
0.00191083
0.00211604
0.00232085
0.0024642
0.002508
0.002483
0.00236054
0.00230124
0.00237927
0.00280629
0.00325427
0.00301178
0.000530418
0.00057988
0.00222586
0.00277697
0.00296344
0.00295552
0.00277073
0.00247387
0.00213154
0.00180106
0.00151836
0.00129631
0.00113198
0.00101528
0.000934706
0.000879873
0.000842189
0.000814956
0.000793389
0.000774463
0.000756541
0.00073892
0.000721423
0.000704115
0.000687128
0.000670585
0.000654576
0.000639162
0.000624384
0.00061028
0.000596886
0.000584244
0.000572406
0.000561429
0.000551374
0.00054231
0.000534305
0.000527432
0.000521766
0.000517384
0.00051447
0.000513146
0.000512925
0.00051442
0.00051775
0.000522967
0.000530185
0.000539547
0.000551211
0.000565354
0.000582168
0.00060186
0.000624653
0.000650784
0.000680502
0.000714072
0.000751777
0.00079393
0.000840896
0.000893129
0.000951238
0.00101609
0.00108894
0.00117168
0.00126699
0.00137859
0.00151109
0.00166923
0.00185569
0.00206723
0.00228952
0.00248404
0.00257184
0.00257638
0.00246929
0.00234761
0.00234249
0.00263282
0.00312976
0.00313803
0.000555589
0.000565519
0.0022008
0.00273152
0.00290995
0.00289696
0.00271049
0.002413
0.00207097
0.00174279
0.00146507
0.00125005
0.00109344
0.000983957
0.000909378
0.00085899
0.000824178
0.000798479
0.00077749
0.000758574
0.000740398
0.000722453
0.000704657
0.000687104
0.000669919
0.000653207
0.000637036
0.000621454
0.000606493
0.000592188
0.000578577
0.000565705
0.000553626
0.0005424
0.000532092
0.000522769
0.0005145
0.000507356
0.000501409
0.000496736
0.000493418
0.000491746
0.000491283
0.000492315
0.000495175
0.000499886
0.000506557
0.000515328
0.000526358
0.00053983
0.000555941
0.000574912
0.000596978
0.000622392
0.000651421
0.000684345
0.000721459
0.00076308
0.000809557
0.000861307
0.000918864
0.000982968
0.00105471
0.00113573
0.00122848
0.0013365
0.00146459
0.00161837
0.00180272
0.0020182
0.00225527
0.00248781
0.00262876
0.00265951
0.00258376
0.00240098
0.00233366
0.00248183
0.00302279
0.00317346
0.000559868
0.000548643
0.00217113
0.00268094
0.00285191
0.00283524
0.00264961
0.00235438
0.00201508
0.00169062
0.00141823
0.00120987
0.00106022
0.000957066
0.000887592
0.000840849
0.000808275
0.000783682
0.000763034
0.000744033
0.000725597
0.000707359
0.000689305
0.000671541
0.000654182
0.000637312
0.000620987
0.000605244
0.00059011
0.000575621
0.000561816
0.000548744
0.000536461
0.000525031
0.000514517
0.000504986
0.000496506
0.000489143
0.000482963
0.000478035
0.000474426
0.000472417
0.000471736
0.000472361
0.000474783
0.000479015
0.000485158
0.000493347
0.000503745
0.000516535
0.000531923
0.000550138
0.00057143
0.000596069
0.00062434
0.000656545
0.000692998
0.000734027
0.000779984
0.000831262
0.000888343
0.000951869
0.00102277
0.00110247
0.00119314
0.00129806
0.00142193
0.00157081
0.00175107
0.00196642
0.0022123
0.00246901
0.0026678
0.00273385
0.00269753
0.00250337
0.00236322
0.0024087
0.0028568
0.00314519
0.000548619
0.000529923
0.00213863
0.00262684
0.00279073
0.00277171
0.00258904
0.00229851
0.001964
0.00164438
0.00137745
0.00117522
0.00103173
0.000934035
0.000868849
0.00082506
0.000794213
0.000770404
0.000749934
0.000730796
0.000712105
0.000693605
0.000675324
0.000657372
0.000639852
0.000622836
0.000606365
0.000590472
0.000575183
0.000560532
0.000546564
0.000533329
0.000520885
0.000509296
0.000498626
0.000488939
0.0004803
0.000472768
0.000466407
0.000461276
0.000457436
0.000455127
0.000454244
0.000454521
0.000456542
0.000460323
0.000465959
0.000473584
0.000483357
0.000495466
0.00051012
0.000527557
0.00054804
0.000571855
0.000599309
0.000630726
0.000666445
0.000706814
0.000752198
0.000802986
0.000859624
0.000922681
0.000992957
0.00107167
0.00116071
0.00126307
0.00138322
0.00152735
0.00170288
0.00191604
0.00216635
0.00243834
0.00268617
0.00279961
0.00279884
0.00262207
0.00240657
0.00237888
0.0027115
0.00307432
0.000529764
0.000509978
0.00210402
0.00257045
0.00272764
0.00270746
0.00252953
0.00224575
0.00191773
0.00160378
0.00134231
0.00114561
0.00100745
0.000914379
0.000852739
0.000811316
0.000781789
0.000758525
0.000738123
0.000718819
0.000699885
0.000681148
0.000662662
0.000644539
0.00062687
0.000609716
0.000593112
0.000577085
0.000561662
0.00054688
0.000532783
0.000519424
0.000506863
0.000495162
0.000484385
0.000474591
0.000465841
0.000458191
0.000451695
0.000446409
0.000442387
0.000439811
0.000438734
0.000438726