/*--------------------------------*- C++ -*----------------------------------*\
  =========                 |
  \\      /  F ield         | OpenFOAM: The Open Source CFD Toolbox
   \\    /   O peration     | Website:  https://openfoam.org
    \\  /    A nd           | Version:  13
     \\/     M anipulation  |
\*---------------------------------------------------------------------------*/
FoamFile
{
    format      ascii;
    class       volScalarField;
    location    "7.6";
    object      p;
}
// * * * * * * * * * * * * * * * * * * * * * * * * * * * * * * * * * * * * * //

dimensions      [0 2 -2 0 0 0 0];

internalField   nonuniform List<scalar> 
6400
(
7.82669e-09
1.98415e-05
2.87461e-05
1.3501e-05
-3.11212e-05
-9.99992e-05
-0.00018346
-0.000272369
-0.00036046
-0.00044468
-0.000525731
-0.000607825
-0.000695662
-0.000794409
-0.00090922
-0.00104417
-0.00120219
-0.00138493
-0.00159366
-0.00182906
-0.00209152
-0.00238243
-0.0027047
-0.00306286
-0.00346327
-0.00391081
-0.00440009
-0.00492232
-0.00545504
-0.00596364
-0.00644312
-0.0069013
-0.00733619
-0.00774505
-0.00812255
-0.00846007
-0.00874627
-0.00896803
-0.00911151
-0.00916294
-0.0091092
-0.00893908
-0.00864431
-0.00822052
-0.00766511
-0.00697054
-0.00612922
-0.00515793
-0.00407338
-0.00288268
-0.00160627
-0.000265344
0.00111112
0.00249069
0.00383302
0.00509289
0.00622589
0.00719043
0.0079468
0.00846353
0.00872199
0.0087198
0.00847033
0.00799436
0.00735225
0.00659558
0.00578976
0.00499801
0.00427725
0.0036577
0.00317424
0.00283831
0.00261982
0.00249261
0.00243778
0.00243144
0.00245427
0.00249104
0.00253107
0.00255842
-1.50063e-05
5.23372e-06
9.49279e-06
-1.07375e-05
-5.82133e-05
-0.000127026
-0.000206524
-0.000288195
-0.000367096
-0.000441915
-0.000514764
-0.000589719
-0.000671603
-0.000765128
-0.000874158
-0.00100223
-0.0011526
-0.00132774
-0.00152824
-0.00175432
-0.00200498
-0.00228081
-0.00258503
-0.00292014
-0.00328928
-0.00369971
-0.00415882
-0.00466513
-0.00520483
-0.0057538
-0.00628414
-0.00678647
-0.00726274
-0.00770983
-0.00812202
-0.00849061
-0.00880449
-0.00905113
-0.00921744
-0.00929089
-0.0092595
-0.00911314
-0.00884406
-0.00844633
-0.00791496
-0.00724601
-0.00644673
-0.00552421
-0.00448002
-0.00333142
-0.00209641
-0.000798027
0.000535864
0.00187198
0.00317262
0.00439763
0.00550437
0.00645094
0.00720114
0.00772469
0.00800253
0.00803129
0.00782324
0.00740506
0.00682238
0.00612984
0.00538935
0.00466034
0.00399601
0.00343807
0.00300542
0.00270547
0.00252515
0.00244046
0.00242665
0.00245695
0.00250031
0.00253917
0.00257177
0.00259763
-3.10753e-05
-8.62162e-06
-1.00227e-05
-3.93973e-05
-9.48542e-05
-0.000166209
-0.000241777
-0.000313431
-0.000378565
-0.000438874
-0.000498117
-0.000561243
-0.000633246
-0.000717856
-0.000817564
-0.000934197
-0.00106931
-0.00122513
-0.00140388
-0.00160832
-0.001842
-0.00210809
-0.00241092
-0.00275545
-0.00314592
-0.00358486
-0.00407271
-0.00460553
-0.00517256
-0.00575634
-0.00633697
-0.00689858
-0.00743185
-0.00793024
-0.00838679
-0.00879244
-0.009137
-0.00940953
-0.0095984
-0.00969225
-0.00968091
-0.0095555
-0.00930886
-0.00893577
-0.00843348
-0.00780124
-0.00703429
-0.00614597
-0.00514263
-0.00403669
-0.00284476
-0.00158831
-0.000293772
0.00100772
0.00228082
0.00348733
0.00458553
0.00553416
0.00629768
0.00684687
0.00716198
0.00723738
0.00708456
0.00672963
0.00621477
0.00559268
0.00491711
0.0042538
0.00364878
0.00313968
0.00275106
0.00249685
0.00236491
0.00232686
0.0023503
0.00241164
0.00248108
0.00253925
0.00258681
0.00262412
-3.95766e-05
-1.81015e-05
-2.7005e-05
-6.75549e-05
-0.0001331
-0.000207584
-0.000279466
-0.000342253
-0.000394633
-0.000438912
-0.000481272
-0.000528409
-0.000585801
-0.00065715
-0.000744155
-0.000847624
-0.000968963
-0.001111
-0.00127761
-0.00147433
-0.00170822
-0.00198707
-0.00231824
-0.00270434
-0.00314774
-0.00364966
-0.00420615
-0.00480679
-0.00543594
-0.00607694
-0.00671332
-0.00732989
-0.00791437
-0.00845765
-0.00895133
-0.00938619
-0.00975332
-0.010043
-0.0102453
-0.0103504
-0.0103495
-0.0102351
-0.0100005
-0.00964164
-0.00915661
-0.00854418
-0.00780476
-0.00694375
-0.0059683
-0.0048901
-0.00372475
-0.00249227
-0.00121694
7.2783e-05
0.00134371
0.00255789
0.00367453
0.00465348
0.00545727
0.00605558
0.00642721
0.0065625
0.00647024
0.00617631
0.00572005
0.00515056
0.0045244
0.00390139
0.00333191
0.00285437
0.00249298
0.00225879
0.00214427
0.00213329
0.00219649
0.00229306
0.00239451
0.00248313
0.00255481
0.00260464
-3.37144e-05
-1.97104e-05
-3.873e-05
-9.0785e-05
-0.000165852
-0.000243194
-0.000311402
-0.000365483
-0.000405484
-0.000435769
-0.000463539
-0.000496357
-0.000540158
-0.000598594
-0.000673803
-0.000767615
-0.00088317
-0.00102621
-0.00120381
-0.00142407
-0.00169677
-0.00202751
-0.00242101
-0.00288164
-0.00340878
-0.00399654
-0.00463482
-0.00530919
-0.00600218
-0.00669761
-0.00738006
-0.00803702
-0.00865791
-0.00923226
-0.00975095
-0.0102053
-0.0105868
-0.0108867
-0.0110967
-0.0112086
-0.0112148
-0.011109
-0.0108854
-0.0105398
-0.0100716
-0.00948004
-0.0087659
-0.00793168
-0.00698301
-0.00593055
-0.00478943
-0.00357783
-0.00231691
-0.00103122
0.000248319
0.00148299
0.00263262
0.00365961
0.00452569
0.00519756
0.00565173
0.00587414
0.00586724
0.00565183
0.005268
0.00476252
0.00418981
0.0036075
0.00306834
0.00261307
0.0022687
0.00204584
0.00194101
0.00193798
0.00201172
0.0021288
0.00225599
0.00237239
0.00246687
0.00252606
-4.73052e-06
-4.71335e-06
-3.61415e-05
-0.000101999
-0.000185225
-0.00026366
-0.000327848
-0.000374261
-0.000404207
-0.000423709
-0.000441126
-0.000464442
-0.000499764
-0.000551436
-0.000623272
-0.000719721
-0.000847331
-0.0010149
-0.00123332
-0.00150973
-0.0018517
-0.00226652
-0.00275573
-0.00331632
-0.00393956
-0.00461351
-0.00532604
-0.00606327
-0.00680983
-0.00755055
-0.00827133
-0.00896054
-0.009608
-0.0102041
-0.0107405
-0.0112085
-0.0115997
-0.0119067
-0.0121229
-0.0122414
-0.0122554
-0.0121611
-0.0119529
-0.0116269
-0.0111846
-0.0106236
-0.00994397
-0.00914737
-0.00823784
-0.00722353
-0.00611815
-0.00493646
-0.0036952
-0.00241531
-0.00112761
0.000128404
0.00131677
0.00240441
0.00335052
0.00411788
0.00468223
0.00502392
0.00514016
0.00504153
0.00476288
0.00435128
0.00385878
0.00333929
0.00284574
0.00242171
0.00209682
0.00188463
0.00178381
0.00178083
0.00185269
0.00197103
0.00210536
0.00223233
0.00233666
0.00239904
5.76884e-05
4.0152e-05
-7.54588e-06
-9.02264e-05
-0.00017873
-0.000257514
-0.000318485
-0.000359449
-0.000383666
-0.000398371
-0.000412478
-0.000434265
-0.000470501
-0.000527279
-0.000611431
-0.000730534
-0.000894912
-0.00111641
-0.00140332
-0.00176437
-0.00220609
-0.00272967
-0.00332646
-0.00398586
-0.00469785
-0.00545051
-0.00623016
-0.00702298
-0.00781529
-0.00859378
-0.00934596
-0.010061
-0.0107293
-0.011342
-0.0118913
-0.0123684
-0.0127651
-0.0130767
-0.0132979
-0.0134231
-0.0134497
-0.0133722
-0.0131864
-0.0128893
-0.01248
-0.0119557
-0.011317
-0.0105672
-0.00971158
-0.00875618
-0.00770622
-0.00657209
-0.0053689
-0.00411855
-0.00284654
-0.00158042
-0.000350208
0.000808273
0.00184591
0.00272901
0.00343145
0.0039258
0.00420474
0.00426906
0.00414287
0.00386704
0.00349173
0.00306855
0.00264791
0.00227471
0.00198139
0.00178493
0.00168725
0.00168002
0.00174135
0.00184795
0.00197257
0.00209202
0.00219088
0.00224807
0.000163641
0.000125568
5.60639e-05
-4.04791e-05
-0.000134477
-0.000214649
-0.000274523
-0.000314362
-0.000339112
-0.000357084
-0.000377629
-0.000409481
-0.000460772
-0.000540426
-0.000658279
-0.000825757
-0.0010548
-0.00135708
-0.00174096
-0.00221279
-0.00276924
-0.00340207
-0.00410087
-0.00485402
-0.00564867
-0.0064719
-0.00731053
-0.00815174
-0.00898312
-0.00979281
-0.0105698
-0.0113044
-0.0119871
-0.0126091
-0.0131629
-0.0136408
-0.01404
-0.0143566
-0.0145856
-0.0147227
-0.0147645
-0.0147049
-0.0145408
-0.0142695
-0.013894
-0.0134094
-0.0128174
-0.0121218
-0.0113273
-0.0104383
-0.00945638
-0.00838899
-0.00724963
-0.00605603
-0.00482575
-0.00357623
-0.00233344
-0.00113642
-1.6153e-05
0.000998776
0.00185841
0.00253404
0.00301241
0.00328252
0.0033582
0.00326697
0.00305273
0.00276492
0.00245063
0.00215472
0.00191192
0.00174285
0.00165375
0.00163913
0.00168447
0.00177086
0.0018733
0.00197255
0.00205139
0.0020939
0.000318453
0.000259653
0.000165409
5.50611e-05
-4.55485e-05
-0.000128632
-0.000191259
-0.000235869
-0.00026925
-0.000300708
-0.000340097
-0.000397049
-0.000481764
-0.000606218
-0.000783612
-0.00102602
-0.00134627
-0.00175565
-0.00225708
-0.00284635
-0.00351634
-0.00425557
-0.00505099
-0.00588921
-0.00675717
-0.00764197
-0.00853132
-0.00941327
-0.0102764
-0.01111
-0.0119041
-0.0126496
-0.0133374
-0.0139598
-0.0145119
-0.0149919
-0.015398
-0.0157228
-0.0159611
-0.0161082
-0.0161593
-0.0161136
-0.0159701
-0.0157287
-0.0153833
-0.0149391
-0.0143959
-0.0137552
-0.0130193
-0.0121911
-0.0112767
-0.0102825
-0.00921853
-0.00809725
-0.00693165
-0.00573194
-0.00451535
-0.00330863
-0.00213316
-0.00102814
-2.90668e-05
0.000844271
0.00154136
0.00204917
0.00236847
0.00251132
0.00250554
0.0023955
0.00222449
0.00203527
0.00186565
0.00174002
0.00166904
0.00165179
0.0016793
0.00173795
0.00181002
0.0018801
0.00192825
0.00195177
0.000529517
0.000447616
0.000325901
0.000200352
9.05544e-05
1.39467e-06
-6.89187e-05
-0.000125687
-0.000177551
-0.000234773
-0.000307903
-0.000407852
-0.000547386
-0.000741305
-0.00100338
-0.0013458
-0.00178046
-0.00231156
-0.00293504
-0.00364249
-0.00442244
-0.00526048
-0.00614315
-0.00705679
-0.00798862
-0.00892616
-0.00985772
-0.0107721
-0.0116588
-0.012508
-0.0133108
-0.0140592
-0.0147473
-0.0153707
-0.0159246
-0.0164052
-0.0168068
-0.017125
-0.0173576
-0.0175032
-0.0175598
-0.0175257
-0.0174007
-0.0171847
-0.0168743
-0.0164715
-0.0159777
-0.0153941
-0.0147224
-0.0139648
-0.0131253
-0.0122088
-0.0112214
-0.0101701
-0.00906322
-0.007914
-0.00674129
-0.00556034
-0.00438286
-0.0032295
-0.00212456
-0.00110399
-0.000204206
0.000558243
0.00114608
0.00156152
0.00181089
0.00192294
0.0019355
0.00188645
0.00181423
0.00174973
0.00170922
0.00169712
0.00170938
0.00173887
0.00177621
0.00180967
0.0018242
0.00182885
0.000799143
0.000688312
0.000537829
0.000391837
0.000270712
0.000171071
8.67504e-05
9.01085e-06
-7.27241e-05
-0.000169675
-0.000293188
-0.000456042
-0.000673148
-0.000959782
-0.00132902
-0.00179129
-0.00235221
-0.00300999
-0.00375551
-0.00457602
-0.00545756
-0.00638533
-0.00734563
-0.00832503
-0.00931103
-0.0102916
-0.0112557
-0.0121928
-0.0130935
-0.0139494
-0.0147529
-0.0154976
-0.0161789
-0.0167923
-0.0173343
-0.017802
-0.0181915
-0.0185005
-0.0187274
-0.0188714
-0.0189314
-0.0189066
-0.0187969
-0.018602
-0.0183213
-0.0179555
-0.017506
-0.0169743
-0.0163619
-0.0156711
-0.0149048
-0.0140666
-0.0131604
-0.0121902
-0.0111609
-0.0100796
-0.00895591
-0.00780045
-0.00663089
-0.0054672
-0.00431943
-0.00320368
-0.00213947
-0.00116627
-0.000311842
0.000389837
0.000927644
0.00130508
0.00154385
0.00167412
0.00172914
0.00174439
0.00174682
0.00174823
0.00175148
0.00175436
0.00175628
0.00175062
0.00173334
0.0017215
0.00111536
0.00097498
0.00078935
0.00062004
0.000484313
0.000369829
0.000264308
0.000155721
3.17041e-05
-0.00011977
-0.000311265
-0.000556865
-0.000872115
-0.00127107
-0.00176412
-0.00235706
-0.00304942
-0.00383303
-0.00469466
-0.00561994
-0.00659367
-0.00760121
-0.00862875
-0.00966312
-0.0106921
-0.0117042
-0.0126892
-0.0136376
-0.0145413
-0.0153933
-0.0161876
-0.0169194
-0.017585
-0.0181812
-0.0187057
-0.0191565
-0.0195316
-0.0198294
-0.020049
-0.0201899
-0.0202514
-0.0202334
-0.020136
-0.0199593
-0.0197036
-0.0193697
-0.018959
-0.0184728
-0.0179128
-0.0172812
-0.0165803
-0.0158128
-0.0149815
-0.0140893
-0.0131392
-0.012135
-0.0110806
-0.00998066
-0.00884235
-0.00767597
-0.00649718
-0.00532801
-0.0041707
-0.00304299
-0.00197298
-0.00100469
-0.000173183
0.000498312
0.00100422
0.0013563
0.00157781
0.00169927
0.001758
0.00178066
0.00177998
0.0017613
0.00173093
0.00168964
0.00164589
0.00161993
0.00146406
0.00129245
0.00106704
0.000871542
0.000717498
0.000582326
0.000447501
0.000297589
0.000118675
-0.000102217
-0.000378128
-0.000724043
-0.0011542
-0.00167952
-0.00230609
-0.00303396
-0.00385606
-0.00475942
-0.00572889
-0.00674908
-0.00780446
-0.00888048
-0.0099634
-0.0110404
-0.0120997
-0.0131308
-0.0141244
-0.0150727
-0.0159691
-0.0168081
-0.0175854
-0.0182977
-0.0189426
-0.0195179
-0.0200224
-0.0204547
-0.0208139
-0.0210992
-0.0213103
-0.0214467
-0.0215083
-0.0214954
-0.0214081
-0.0212469
-0.0210126
-0.0207062
-0.0203288
-0.0198821
-0.0193677
-0.0187876
-0.0181437
-0.0174383
-0.0166735
-0.0158511
-0.0149731
-0.0140413
-0.0130573
-0.0120227
-0.0109392
-0.00980867
-0.00863553
-0.00742915
-0.00620601
-0.00498248
-0.003767
-0.00258983
-0.00149401
-0.00052743
0.000272247
0.000885979
0.00131733
0.001585
0.00172316
0.00177688
0.00177642
0.00174036
0.00168329
0.00161344
0.00155048
0.00151569
0.00182719
0.0016215
0.00135429
0.00112811
0.000951291
0.000789141
0.000616619
0.000415068
0.00016924
-0.00013407
-0.000508916
-0.000969245
-0.00152614
-0.00218617
-0.0029494
-0.00380963
-0.0047547
-0.00576884
-0.00683581
-0.00793957
-0.00906456
-0.0101964
-0.0113215
-0.0124277
-0.0135044
-0.0145422
-0.0155335
-0.016472
-0.0173529
-0.0181724
-0.0189277
-0.0196168
-0.0202384
-0.0207913
-0.021275
-0.0216887
-0.022032
-0.0223048
-0.0225071
-0.0226388
-0.0226999
-0.0226909
-0.0226122
-0.0224645
-0.0222486
-0.0219656
-0.0216169
-0.021204
-0.0207285
-0.0201924
-0.0195974
-0.0189454
-0.0182381
-0.0174768
-0.0166626
-0.0157961
-0.0148773
-0.0139057
-0.0128805
-0.0118004
-0.0106641
-0.009471
-0.00822385
-0.00693336
-0.00562266
-0.00430308
-0.00300154
-0.00177509
-0.000682671
0.000220286
0.000901883
0.00136171
0.00161957
0.00172386
0.00173191
0.00168153
0.00160217
0.00151062
0.00143541
0.00139546
0.00218004
0.00193895
0.00162624
0.00136775
0.00116406
0.000968686
0.000750355
0.000487989
0.000165314
-0.000231893
-0.000717294
-0.00130168
-0.00199199
-0.00278825
-0.00368474
-0.00467
-0.00572818
-0.00684192
-0.00799424
-0.00916874
-0.01035
-0.0115238
-0.0126776
-0.0138001
-0.0148821
-0.015916
-0.0168959
-0.0178175
-0.0186774
-0.0194736
-0.0202043
-0.0208689
-0.0214666
-0.0219972
-0.0224606
-0.0228566
-0.0231853
-0.0234466
-0.0236408
-0.0237681
-0.0238288
-0.0238232
-0.0237521
-0.0236161
-0.0234161
-0.0231534
-0.0228292
-0.022445
-0.0220026
-0.0215036
-0.0209499
-0.020343
-0.0196844
-0.0189753
-0.018216
-0.0174066
-0.0165462
-0.0156329
-0.0146642
-0.0136364
-0.0125456
-0.0113873
-0.0101583
-0.00885829
-0.00749326
-0.00607798
-0.00464003
-0.00321238
-0.00186396
-0.000670589
0.000293406
0.000988258
0.00141595
0.00160985
0.00164158
0.00158337
0.00148397
0.00137401
0.00129121
0.00124719
0.00249553
0.00221946
0.00186102
0.00156814
0.00133337
0.00109846
0.000827283
0.000496707
8.88917e-05
-0.000411361
-0.00101454
-0.00172751
-0.00255091
-0.00347905
-0.00450088
-0.00560055
-0.00675976
-0.00796014
-0.00918421
-0.0104155
-0.011639
-0.0128412
-0.0140106
-0.0151377
-0.016215
-0.0172368
-0.018199
-0.019099
-0.019935
-0.0207061
-0.0214117
-0.022052
-0.0226268
-0.0231365
-0.0235812
-0.0239612
-0.0242768
-0.0245281
-0.0247155
-0.0248393
-0.0248999
-0.0248977
-0.0248336
-0.0247079
-0.0245219
-0.0242766
-0.0239734
-0.0236138
-0.0231992
-0.0227315
-0.0222122
-0.021643
-0.0210251
-0.0203595
-0.0196466
-0.0188859
-0.0180761
-0.0172149
-0.0162986
-0.0153222
-0.0142797
-0.0131643
-0.011969
-0.0106886
-0.0093204
-0.00786717
-0.00634429
-0.00478506
-0.00323971
-0.00179093
-0.000537418
0.000432635
0.00107774
0.00141283
0.00150231
0.00144785
0.00133083
0.00120347
0.00111295
0.00106196
0.00275353
0.00243914
0.00203575
0.00170689
0.00143679
0.00115706
0.000828104
0.000423954
-7.61284e-05
-0.00068446
-0.00140753
-0.00224729
-0.00319832
-0.00424978
-0.00538566
-0.00658678
-0.00783324
-0.00910601
-0.0103874
-0.0116611
-0.012913
-0.0141308
-0.0153045
-0.0164266
-0.0174915
-0.0184954
-0.0194361
-0.0203121
-0.0211232
-0.0218692
-0.0225507
-0.023168
-0.0237218
-0.0242125
-0.0246408
-0.0250069
-0.0253113
-0.0255543
-0.0257362
-0.0258574
-0.0259185
-0.0259198
-0.0258618
-0.0257457
-0.0255721
-0.0253422
-0.0250572
-0.0247184
-0.0243275
-0.023886
-0.0233955
-0.0228575
-0.0222733
-0.0216437
-0.0209691
-0.020249
-0.0194822
-0.0186658
-0.0177961
-0.0168676
-0.0158731
-0.0148044
-0.0136521
-0.012407
-0.0110611
-0.00961086
-0.00806
-0.00642696
-0.00475325
-0.00310888
-0.00159724
-0.000338179
0.000571955
0.0011038
0.00130132
0.00127407
0.00114713
0.00100149
0.000896554
0.000832729
0.00291931
0.0025739
0.00212888
0.00176362
0.00145494
0.00112735
0.000737055
0.000254144
-0.000340558
-0.00105655
-0.00189714
-0.00285743
-0.00392709
-0.00509009
-0.00632638
-0.00761441
-0.00893326
-0.0102635
-0.0115876
-0.0128899
-0.0141575
-0.0153796
-0.0165485
-0.0176583
-0.0187055
-0.0196881
-0.0206051
-0.0214566
-0.0222431
-0.0229654
-0.0236244
-0.0242209
-0.0247559
-0.0252301
-0.0256441
-0.0259984
-0.0262936
-0.0265298
-0.0267076
-0.0268273
-0.0268894
-0.0268943
-0.0268425
-0.026735
-0.0265725
-0.0263561
-0.0260868
-0.0257661
-0.0253953
-0.0249759
-0.0245095
-0.0239974
-0.0234409
-0.0228409
-0.0221978
-0.0215112
-0.02078
-0.0200015
-0.0191721
-0.0182861
-0.0173364
-0.016314
-0.0152083
-0.0140079
-0.0127011
-0.0112787
-0.00973686
-0.00808186
-0.00633984
-0.00456761
-0.00285717
-0.00133216
-0.000132386
0.00064799
0.00101403
0.00105718
0.000932258
0.000767729
0.000637349
0.000556076
0.00297986
0.00260649
0.00212336
0.00172198
0.00137336
0.000996137
0.000541698
-2.10367e-05
-0.00070895
-0.00152935
-0.00248024
-0.00355171
-0.00472803
-0.00598853
-0.00731011
-0.00866965
-0.0100456
-0.0114185
-0.0127712
-0.0140894
-0.0153616
-0.0165791
-0.0177359
-0.0188284
-0.0198547
-0.0208141
-0.0217072
-0.0225347
-0.023298
-0.0239984
-0.0246371
-0.0252152
-0.0257338
-0.0261938
-0.0265958
-0.0269404
-0.027228
-0.0274591
-0.0276339
-0.0277529
-0.0278165
-0.0278251
-0.0277793
-0.0276797
-0.0275273
-0.0273229
-0.0270675
-0.0267624
-0.0264089
-0.0260084
-0.0255623
-0.0250719
-0.0245384
-0.0239627
-0.0233453
-0.0226861
-0.0219841
-0.0212371
-0.0204417
-0.0195927
-0.0186833
-0.0177043
-0.016645
-0.0154928
-0.0142341
-0.0128558
-0.0113482
-0.0097079
-0.00794648
-0.00610415
-0.00426148
-0.00252688
-0.00104711
2.26489e-05
0.000610907
0.000776159
0.000680942
0.000498555
0.000330883
0.000231054
0.00292023
0.00252354
0.00200715
0.00157134
0.00118266
0.000754218
0.000234903
-0.000404698
-0.00118132
-0.00209925
-0.00315092
-0.00432152
-0.00559034
-0.00693297
-0.00832406
-0.00973949
-0.0111575
-0.0125588
-0.0139275
-0.0152505
-0.0165182
-0.017724
-0.0188638
-0.0199357
-0.0209394
-0.0218754
-0.0227451
-0.02355
-0.024292
-0.0249726
-0.0255933
-0.0261554
-0.0266599
-0.0271079
-0.0274999
-0.0278365
-0.0281181
-0.0283452
-0.0285181
-0.0286371
-0.0287026
-0.028715
-0.0286749
-0.0285828
-0.0284396
-0.0282459
-0.0280029
-0.0277116
-0.0273732
-0.0269889
-0.0265601
-0.0260879
-0.0255737
-0.0250182
-0.024422
-0.0237852
-0.0231071
-0.022386
-0.021619
-0.0208015
-0.0199272
-0.0189877
-0.0179723
-0.0168683
-0.0156612
-0.0143356
-0.0128778
-0.0112779
-0.00953471
-0.00766936
-0.00574923
-0.00387137
-0.00216111
-0.000800222
6.08718e-05
0.000410086
0.000381891
0.000184949
-2.66603e-05
-0.000143876
0.00273165
0.00231725
0.00177349
0.00130596
0.000877369
0.000398265
-0.000182671
-0.000894785
-0.00175385
-0.00275966
-0.00390034
-0.00515617
-0.00650218
-0.00791103
-0.00935587
-0.010812
-0.0122578
-0.0136748
-0.0150483
-0.0163669
-0.0176231
-0.018812
-0.0199315
-0.0209812
-0.0219618
-0.0228748
-0.0237224
-0.0245065
-0.0252291
-0.0258922
-0.0264971
-0.0270454
-0.0275379
-0.0279758
-0.0283595
-0.0286896
-0.0289666
-0.0291908
-0.0293625
-0.029482
-0.0295497
-0.029566
-0.0295313
-0.0294463
-0.0293114
-0.0291276
-0.0288956
-0.0286165
-0.0282914
-0.0279213
-0.0275074
-0.027051
-0.026553
-0.0260145
-0.025436
-0.0248178
-0.0241594
-0.0234596
-0.022716
-0.021925
-0.0210809
-0.0201763
-0.0192012
-0.0181433
-0.0169878
-0.0157184
-0.0143189
-0.0127755
-0.0110783
-0.00922885
-0.0072687
-0.00530933
-0.00343634
-0.00181586
-0.00065761
-7.24825e-05
1.19531e-05
-0.000180907
-0.000435299
-0.000568504
0.00241176
0.00198568
0.00142107
0.000925132
0.000458261
-6.90488e-05
-0.000707075
-0.00148531
-0.00241796
-0.0035007
-0.00471727
-0.00604356
-0.00745111
-0.00891052
-0.010394
-0.0118766
-0.0133373
-0.0147588
-0.0161277
-0.0174347
-0.018674
-0.0198427
-0.02094
-0.0219668
-0.0229246
-0.0238159
-0.0246429
-0.025408
-0.0261133
-0.0267609
-0.0273521
-0.0278884
-0.0283709
-0.0288002
-0.0291771
-0.029502
-0.0297753
-0.0299974
-0.0301686
-0.030289
-0.0303591
-0.0303792
-0.0303497
-0.0302712
-0.0301441
-0.0299692
-0.0297473
-0.0294792
-0.0291658
-0.0288083
-0.0284076
-0.0279648
-0.027481
-0.026957
-0.0263934
-0.0257908
-0.0251488
-0.0244668
-0.0237428
-0.0229739
-0.0221556
-0.0212814
-0.0203423
-0.0193269
-0.018221
-0.0170081
-0.0156702
-0.0141908
-0.0125562
-0.0107553
-0.00879705
-0.006785
-0.00481808
-0.00300294
-0.00156451
-0.000702896
-0.000446397
-0.00060828
-0.000893256
-0.00104269
0.00196386
0.00153244
0.000953592
0.000432973
-6.92949e-05
-0.00064028
-0.00132968
-0.00216684
-0.00316292
-0.00431043
-0.00558902
-0.00697081
-0.00842466
-0.00991973
-0.0114277
-0.0129241
-0.0143885
-0.0158049
-0.0171619
-0.0184518
-0.0196706
-0.0208169
-0.0218912
-0.0228952
-0.0238312
-0.0247019
-0.02551
-0.026258
-0.0269479
-0.0275818
-0.0281612
-0.0286872
-0.0291609
-0.0295831
-0.0299543
-0.0302749
-0.0305454
-0.0307661
-0.0309371
-0.0310587
-0.0311313
-0.0311551
-0.0311306
-0.0310581
-0.0309382
-0.0307715
-0.0305588
-0.0303006
-0.0299979
-0.0296517
-0.0292627
-0.0288321
-0.0283607
-0.0278493
-0.0272988
-0.0267095
-0.0260816
-0.0254146
-0.0247071
-0.023957
-0.0231607
-0.0223126
-0.0214052
-0.0204283
-0.0193687
-0.0182103
-0.0169344
-0.0155225
-0.013958
-0.0122252
-0.0103152
-0.00826947
-0.00625454
-0.0043167
-0.0026419
-0.0014935
-0.00101861
-0.00111329
-0.00139947
-0.00157125
0.00139625
0.000965845
0.00037892
-0.000161783
-0.00069535
-0.001305
-0.00203933
-0.00292665
-0.00397554
-0.00517531
-0.00650207
-0.0079249
-0.00941069
-0.0109277
-0.0124477
-0.0139466
-0.0154052
-0.0168091
-0.0181484
-0.0194173
-0.0206133
-0.0217361
-0.0227872
-0.0237691
-0.0246844
-0.025536
-0.0263269
-0.0270594
-0.0277356
-0.0283575
-0.0289264
-0.0294435
-0.0299098
-0.0303259
-0.0306923
-0.0310095
-0.0312777
-0.0314973
-0.0316685
-0.0317914
-0.0318665
-0.0318939
-0.031874
-0.0318072
-0.031694
-0.0315349
-0.0313305
-0.0310815
-0.0307885
-0.0304525
-0.0300742
-0.0296545
-0.0291942
-0.0286942
-0.0281553
-0.0275778
-0.0269622
-0.0263081
-0.0256149
-0.0248809
-0.0241034
-0.0232781
-0.0223985
-0.0214559
-0.0204386
-0.0193313
-0.0181159
-0.0167721
-0.0152814
-0.0136266
-0.0117871
-0.00975955
-0.00770375
-0.0057072
-0.00386365
-0.00245263
-0.00172647
-0.00169392
-0.00195881
-0.00216501
0.000721296
0.000298192
-0.000290563
-0.000846531
-0.0014065
-0.0020494
-0.00282202
-0.00375054
-0.00484139
-0.00608105
-0.0074427
-0.00889307
-0.0103977
-0.0119246
-0.0134456
-0.0149377
-0.0163829
-0.0177684
-0.0190859
-0.0203312
-0.021503
-0.022602
-0.0236304
-0.024591
-0.0254869
-0.0263209
-0.027096
-0.0278146
-0.0284786
-0.0290898
-0.0296495
-0.0301588
-0.0306186
-0.0310294
-0.0313917
-0.031706
-0.0319724
-0.0321913
-0.0323628
-0.0324871
-0.0325646
-0.0325954
-0.0325799
-0.0325184
-0.0324114
-0.0322593
-0.0320626
-0.0318219
-0.0315379
-0.0312113
-0.0308427
-0.0304331
-0.029983
-0.0294934
-0.0289649
-0.0283982
-0.0277935
-0.0271511
-0.0264705
-0.0257506
-0.0249896
-0.0241841
-0.023329
-0.0224169
-0.0214377
-0.0203776
-0.0192193
-0.0179423
-0.016526
-0.0149517
-0.0131975
-0.0112435
-0.00915054
-0.0071308
-0.00519458
-0.00357261
-0.00258781
-0.00236731
-0.00258859
-0.00284088
-4.40145e-05
-0.000455738
-0.00103988
-0.00160631
-0.00218822
-0.00285892
-0.00366236
-0.00462314
-0.00574538
-0.0070132
-0.00839746
-0.00986319
-0.0113752
-0.0129014
-0.0144144
-0.0158921
-0.017318
-0.0186808
-0.0199738
-0.0211939
-0.022341
-0.0234164
-0.0244228
-0.0253633
-0.0262409
-0.0270587
-0.0278194
-0.0285253
-0.0291783
-0.0297799
-0.0303315
-0.0308339
-0.0312879
-0.0316941
-0.0320529
-0.0323647
-0.0326296
-0.0328479
-0.0330198
-0.0331456
-0.0332253
-0.0332594
-0.0332479
-0.0331914
-0.0330901
-0.0329444
-0.0327549
-0.032522
-0.0322462
-0.0319283
-0.0315688
-0.0311684
-0.0307279
-0.0302479
-0.0297292
-0.0291723
-0.0285778
-0.027946
-0.0272768
-0.0265697
-0.0258234
-0.0250355
-0.024202
-0.0233171
-0.0223721
-0.021355
-0.02025
-0.0190372
-0.0176946
-0.0162024
-0.0145405
-0.0126778
-0.0105989
-0.00855733
-0.00659188
-0.00482628
-0.00360541
-0.00316764
-0.00330592
-0.00362005
-0.000880859
-0.00127872
-0.00185329
-0.00242586
-0.0030248
-0.0037174
-0.00454439
-0.00552873
-0.00667244
-0.00795766
-0.00935354
-0.010824
-0.0123335
-0.0138503
-0.0153479
-0.0168055
-0.0182078
-0.019545
-0.0208117
-0.022006
-0.0231284
-0.0241808
-0.0251661
-0.0260876
-0.0269483
-0.0277511
-0.0284986
-0.029193
-0.0298359
-0.0304289
-0.0309731
-0.0314693
-0.0319182
-0.0323203
-0.032676
-0.0329855
-0.0332491
-0.033467
-0.0336394
-0.0337664
-0.0338484
-0.0338854
-0.0338777
-0.0338258
-0.0337297
-0.0335901
-0.0334072
-0.0331814
-0.0329134
-0.0326036
-0.0322525
-0.0318609
-0.0314293
-0.0309584
-0.0304488
-0.0299013
-0.0293164
-0.0286945
-0.0280359
-0.0273405
-0.0266076
-0.0258356
-0.0250216
-0.024161
-0.0232468
-0.0222688
-0.0212127
-0.02006
-0.018789
-0.0173773
-0.0158046
-0.0140402
-0.0120539
-0.00998
-0.00801911
-0.00618457
-0.00477435
-0.00411332
-0.00412796
-0.00453036
-0.00177109
-0.0021528
-0.00271389
-0.00328825
-0.00389927
-0.00460799
-0.00545182
-0.00645176
-0.00760796
-0.00890107
-0.0102991
-0.0117652
-0.0132642
-0.0147647
-0.0162413
-0.0176744
-0.0190501
-0.02036
-0.0215997
-0.0227681
-0.0238663
-0.0248965
-0.0258618
-0.0267654
-0.0276103
-0.0283992
-0.0291346
-0.0298184
-0.0304522
-0.0310373
-0.0315748
-0.0320654
-0.0325096
-0.032908
-0.0332608
-0.0335683
-0.0338308
-0.0340483
-0.0342211
-0.0343494
-0.0344333
-0.034473
-0.0344689
-0.0344211
-0.03433
-0.0341958
-0.034019
-0.0338
-0.0335391
-0.0332369
-0.0328938
-0.0325104
-0.0320872
-0.0316249
-0.0311242
-0.0305856
-0.0300098
-0.0293975
-0.028749
-0.0280646
-0.0273442
-0.0265867
-0.0257905
-0.0249519
-0.0240655
-0.0231229
-0.0221116
-0.0210152
-0.0198123
-0.0184794
-0.0169949
-0.0153337
-0.0134617
-0.0113921
-0.00945132
-0.0076138
-0.00607748
-0.00520445
-0.00508106
-0.0055861
-0.00269632
-0.00305996
-0.00360414
-0.00417602
-0.00479455
-0.00551418
-0.00636883
-0.00737731
-0.00853819
-0.00983105
-0.0112232
-0.0126778
-0.0141598
-0.0156387
-0.0170903
-0.018496
-0.0198434
-0.0211251
-0.0223377
-0.0234807
-0.0245554
-0.0255645
-0.0265109
-0.0273978
-0.0282279
-0.029004
-0.0297281
-0.0304022
-0.0310276
-0.0316055
-0.0321368
-0.0326222
-0.0330621
-0.0334571
-0.0338072
-0.0341129
-0.0343742
-0.0345914
-0.0347646
-0.0348939
-0.0349796
-0.0350219
-0.0350209
-0.034977
-0.0348903
-0.0347613
-0.0345902
-0.0343773
-0.0341231
-0.033828
-0.0334924
-0.0331167
-0.0327016
-0.0322476
-0.0317553
-0.0312254
-0.0306585
-0.0300553
-0.0294166
-0.0287428
-0.0280341
-0.0272903
-0.0265104
-0.025692
-0.0248309
-0.0239204
-0.0229501
-0.0219053
-0.0207663
-0.0195098
-0.0181143
-0.0165584
-0.0148007
-0.0127986
-0.0108568
-0.00906138
-0.00746831
-0.00642423
-0.00618732
-0.00677211
-0.00363875
-0.00398218
-0.00450657
-0.00507261
-0.00569457
-0.0064204
-0.00728053
-0.00829149
-0.00945046
-0.0107364
-0.0121163
-0.0135536
-0.0150138
-0.0164675
-0.0178912
-0.019268
-0.0205863
-0.0218398
-0.0230257
-0.024144
-0.0251964
-0.0261854
-0.0271141
-0.0279853
-0.0288018
-0.0295659
-0.0302796
-0.0309446
-0.0315622
-0.0321335
-0.0326591
-0.0331396
-0.0335756
-0.0339673
-0.0343151
-0.034619
-0.0348793
-0.0350961
-0.0352695
-0.0353999
-0.0354872
-0.0355317
-0.0355336
-0.0354931
-0.0354106
-0.0352862
-0.0351203
-0.0349132
-0.0346652
-0.0343767
-0.0340481
-0.0336798
-0.0332724
-0.0328263
-0.0323421
-0.0318205
-0.0312623
-0.0306681
-0.0300389
-0.0293752
-0.0286779
-0.027947
-0.0271823
-0.0263825
-0.0255445
-0.0246633
-0.0237303
-0.0227329
-0.0216532
-0.0204693
-0.0191576
-0.0176976
-0.0160542
-0.014187
-0.0122372
-0.0104926
-0.00889624
-0.00773968
-0.00743545
-0.00805728
-0.00458092
-0.00490242
-0.00540471
-0.00596222
-0.0065842
-0.00731218
-0.00817325
-0.00918167
-0.0103334
-0.011607
-0.0129698
-0.0143857
-0.0158208
-0.0172467
-0.0186413
-0.0199884
-0.0212777
-0.0225034
-0.0236636
-0.0247583
-0.0257895
-0.0267597
-0.0276718
-0.0285284
-0.0293321
-0.0300851
-0.0307892
-0.0314459
-0.0320563
-0.0326213
-0.0331416
-0.0336176
-0.0340499
-0.0344386
-0.0347841
-0.0350863
-0.0353456
-0.035562
-0.0357357
-0.0358668
-0.0359555
-0.036002
-0.0360065
-0.0359692
-0.0358903
-0.0357702
-0.0356091
-0.0354072
-0.035165
-0.0348827
-0.0345606
-0.0341993
-0.0337991
-0.0333606
-0.0328843
-0.0323708
-0.031821
-0.0312356
-0.0306156
-0.0299619
-0.0292755
-0.0285569
-0.0278066
-0.027024
-0.0262074
-0.025353
-0.024454
-0.0234999
-0.0224752
-0.0213591
-0.0201276
-0.0187596
-0.0172291
-0.0155009
-0.0135817
-0.0118821
-0.0103205
-0.00910855
-0.00876397
-0.00936527
-0.00550673
-0.00580507
-0.00628372
-0.00683045
-0.00744959
-0.0081764
-0.0090347
-0.0100366
-0.0111771
-0.0124343
-0.0137764
-0.015168
-0.016576
-0.0179731
-0.0193379
-0.0206555
-0.0219164
-0.0231155
-0.0242511
-0.0253236
-0.0263349
-0.0272875
-0.0281841
-0.0290272
-0.0298191
-0.0305618
-0.0312569
-0.0319059
-0.0325095
-0.0330688
-0.0335841
-0.034056
-0.0344848
-0.0348707
-0.035214
-0.0355146
-0.0357729
-0.0359889
-0.0361627
-0.0362945
-0.0363844
-0.0364327
-0.0364395
-0.036405
-0.0363295
-0.0362132
-0.0360564
-0.0358593
-0.0356223
-0.0353457
-0.0350298
-0.034675
-0.0342817
-0.0338503
-0.0333815
-0.0328759
-0.0323342
-0.0317574
-0.0311464
-0.0305024
-0.0298265
-0.0291198
-0.0283831
-0.0276167
-0.0268197
-0.0259898
-0.0251219
-0.0242073
-0.0232326
-0.0221789
-0.0210235
-0.0197455
-0.0183244
-0.0167181
-0.014891
-0.0132112
-0.0116969
-0.0104741
-0.0100807
-0.0105821
-0.00640074
-0.00667607
-0.00713013
-0.00766434
-0.00827836
-0.00900134
-0.00985397
-0.0108463
-0.011973
-0.0132109
-0.0145298
-0.0158955
-0.0172756
-0.0186435
-0.0199789
-0.0212679
-0.0225015
-0.0236754
-0.0247879
-0.0258396
-0.0268325
-0.0277688
-0.028651
-0.0294816
-0.0302626
-0.0309958
-0.0316827
-0.0323244
-0.0329219
-0.0334758