/*--------------------------------*- C++ -*----------------------------------*\
  =========                 |
  \\      /  F ield         | OpenFOAM: The Open Source CFD Toolbox
   \\    /   O peration     | Website:  https://openfoam.org
    \\  /    A nd           | Version:  13
     \\/     M anipulation  |
\*---------------------------------------------------------------------------*/
FoamFile
{
    format      ascii;
    class       volVectorField;
    location    "4.5";
    object      U;
}
// * * * * * * * * * * * * * * * * * * * * * * * * * * * * * * * * * * * * * //

dimensions      [0 1 -1 0 0 0 0];

internalField   nonuniform List<vector> 
400
(
(0.00177226 -0.00207017 0)
(0.00407558 -0.00108278 0)
(-0.00128115 0.000574591 0)
(-0.00997696 0.00434871 0)
(-0.0338703 0.0113674 0)
(-0.05896 0.0112911 0)
(-0.0791912 0.00979892 0)
(-0.0968105 0.00796508 0)
(-0.109859 0.00613021 0)
(-0.120031 0.00431925 0)
(-0.126402 0.00245878 0)
(-0.129381 0.000818343 0)
(-0.129603 -0.0017585 0)
(-0.124934 -0.00395556 0)
(-0.116487 -0.00698744 0)
(-0.102058 -0.00943579 0)
(-0.0825931 -0.0122813 0)
(-0.0576079 -0.0138149 0)
(-0.0298907 -0.0121684 0)
(-0.00621367 -0.00320995 0)
(2.97011e-05 -0.00447604 0)
(-0.00619046 0.00421463 0)
(-0.0218623 0.0163615 0)
(-0.0468615 0.0302376 0)
(-0.0678241 0.0329416 0)
(-0.08605 0.0307026 0)
(-0.100548 0.0266801 0)
(-0.112617 0.0220233 0)
(-0.121562 0.0169943 0)
(-0.128991 0.0117587 0)
(-0.133202 0.00690931 0)
(-0.135108 0.00196923 0)
(-0.133808 -0.0033299 0)
(-0.129597 -0.00932967 0)
(-0.121724 -0.0165276 0)
(-0.109661 -0.0252338 0)
(-0.0927228 -0.0347795 0)
(-0.0708979 -0.0430961 0)
(-0.0438932 -0.044455 0)
(-0.0154196 -0.0273298 0)
(-0.00440817 0.00451361 0)
(-0.0206532 0.0234079 0)
(-0.0421095 0.0401048 0)
(-0.0618501 0.0484236 0)
(-0.0769505 0.0480894 0)
(-0.0897044 0.043692 0)
(-0.0995864 0.0371058 0)
(-0.107747 0.0296854 0)
(-0.113761 0.0223792 0)
(-0.117342 0.0155163 0)
(-0.118929 0.00841803 0)
(-0.118789 0.00120848 0)
(-0.117056 -0.00651434 0)
(-0.113254 -0.0150089 0)
(-0.107004 -0.025001 0)
(-0.0977572 -0.0368599 0)
(-0.0847721 -0.0507698 0)
(-0.0675386 -0.0655657 0)
(-0.0446933 -0.0753943 0)
(-0.0194705 -0.0633682 0)
(-0.00814608 0.0214685 0)
(-0.0275566 0.0434275 0)
(-0.0469756 0.0577207 0)
(-0.0620227 0.0625766 0)
(-0.0729183 0.0598074 0)
(-0.0817602 0.0533424 0)
(-0.0882294 0.0448714 0)
(-0.0931108 0.0357769 0)
(-0.096119 0.0266059 0)
(-0.0977891 0.0176498 0)
(-0.0981743 0.00893432 0)
(-0.0974012 0.000242565 0)
(-0.0954344 -0.00893092 0)
(-0.0920979 -0.0191235 0)
(-0.0872753 -0.0311064 0)
(-0.08056 -0.0455531 0)
(-0.0711296 -0.0627673 0)
(-0.0579122 -0.081853 0)
(-0.0389663 -0.0980069 0)
(-0.0182883 -0.0945568 0)
(-0.00916722 0.0389865 0)
(-0.0274607 0.0609174 0)
(-0.0434883 0.0721359 0)
(-0.0548747 0.0737328 0)
(-0.0629725 0.0684971 0)
(-0.0691381 0.0599468 0)
(-0.0733423 0.0497103 0)
(-0.0762286 0.0390023 0)
(-0.0777886 0.0284135 0)
(-0.0783449 0.0182506 0)
(-0.0778986 0.00843062 0)
(-0.07659 -0.00128706 0)
(-0.0744515 -0.0113634 0)
(-0.0715102 -0.0224802 0)
(-0.0677786 -0.0355553 0)
(-0.0630555 -0.0516038 0)
(-0.0566675 -0.0714375 0)
(-0.0470512 -0.0948236 0)
(-0.0319504 -0.116815 0)
(-0.0165514 -0.120617 0)
(-0.00794032 0.0550121 0)
(-0.0238897 0.0763191 0)
(-0.0360368 0.0838677 0)
(-0.0448535 0.0824659 0)
(-0.0509389 0.0748868 0)
(-0.0553276 0.0644395 0)
(-0.0581693 0.0526828 0)
(-0.0599732 0.0407387 0)
(-0.0607982 0.0291375 0)
(-0.0608068 0.0180679 0)
(-0.0600029 0.00740724 0)
(-0.0584919 -0.00307253 0)
(-0.0563629 -0.0137692 0)
(-0.0537498 -0.0253806 0)
(-0.0507843 -0.038914 0)
(-0.0474474 -0.0556493 0)
(-0.0433209 -0.076841 0)
(-0.0369871 -0.103042 0)
(-0.0266983 -0.131638 0)
(-0.0118589 -0.142177 0)
(-0.00660953 0.0690389 0)
(-0.0186205 0.0884904 0)
(-0.0274411 0.0931216 0)
(-0.0341949 0.0891758 0)
(-0.0386293 0.0796113 0)
(-0.0417974 0.0676032 0)
(-0.0438399 0.0546805 0)
(-0.0451117 0.041815 0)
(-0.0456558 0.0294224 0)
(-0.0455462 0.0176023 0)
(-0.0447758 0.00624079 0)
(-0.0433911 -0.00486857 0)
(-0.0414732 -0.0160731 0)
(-0.0391983 -0.027987 0)
(-0.0368059 -0.0416482 0)
(-0.0344298 -0.0585871 0)
(-0.0318596 -0.0804995 0)
(-0.0276621 -0.108811 0)
(-0.0216861 -0.141791 0)
(-0.00987657 -0.160017 0)
(-0.00441579 0.0795365 0)
(-0.0128265 0.0976495 0)
(-0.018876 0.10004 0)
(-0.0237234 0.0940865 0)
(-0.0267788 0.0830678 0)
(-0.0290515 0.0699394 0)
(-0.0305864 0.056186 0)
(-0.031603 0.0426445 0)
(-0.0321144 0.0296413 0)
(-0.0321294 0.0172202 0)
(-0.0316127 0.005267 0)
(-0.0305633 -0.00639945 0)
(-0.0290329 -0.0180536 0)
(-0.0271933 -0.0301827 0)
(-0.0253509 -0.0437576 0)
(-0.0237898 -0.0604901 0)
(-0.0225244 -0.0825331 0)
(-0.0201489 -0.112295 0)
(-0.0175824 -0.14878 0)
(-0.00699375 -0.174528 0)
(-0.00257675 0.0861777 0)
(-0.00719559 0.103458 0)
(-0.0107446 0.104467 0)
(-0.0137358 0.0973631 0)
(-0.0155782 0.0854616 0)
(-0.0170918 0.0716477 0)
(-0.0182121 0.0573776 0)
(-0.0190569 0.0433967 0)
(-0.0196033 0.0299685 0)
(-0.0198158 0.017098 0)
(-0.0196363 0.0046667 0)
(-0.0190326 -0.00747539 0)
(-0.0180317 -0.0195214 0)
(-0.0167811 -0.0318174 0)
(-0.0155937 -0.0451848 0)
(-0.0148199 -0.061423 0)
(-0.0148008 -0.0832176 0)
(-0.0138787 -0.113971 0)
(-0.0144327 -0.153031 0)
(-0.00543227 -0.186424 0)
(9.27262e-05 0.08921 0)
(-0.00187218 0.106772 0)
(-0.0031076 0.106887 0)
(-0.00425807 0.0991251 0)
(-0.00495698 0.086861 0)
(-0.00570443 0.0727627 0)
(-0.00637337 0.0582742 0)
(-0.00700206 0.0440855 0)
(-0.0075368 0.0304216 0)
(-0.00791838 0.0172655 0)
(-0.00808249 0.00449999 0)
(-0.00798309 -0.00799587 0)
(-0.0076298 -0.0203347 0)
(-0.00714223 -0.0327249 0)
(-0.00680845 -0.0458095 0)
(-0.00693715 -0.0613666 0)
(-0.00838193 -0.0825752 0)
(-0.00849439 -0.113961 0)
(-0.0120201 -0.154892 0)
(-0.00341778 -0.19614 0)
(0.00196987 0.0881563 0)
(0.00311652 0.106847 0)
(0.00416458 0.106878 0)
(0.00480815 0.0993929 0)
(0.00524308 0.0871795 0)
(0.00535339 0.0731965 0)
(0.00524797 0.0587864 0)
(0.00495205 0.0446254 0)
(0.00453581 0.0309312 0)
(0.00406423 0.0176843 0)
(0.003593 0.00477714 0)
(0.00316096 -0.00788576 0)
(0.00276479 -0.0203493 0)
(0.00232361 -0.0327003 0)
(0.0015971 -0.0454125 0)
(0.000422529 -0.0601568 0)
(-0.0027562 -0.0806027 0)
(-0.00358933 -0.112227 0)
(-0.0102005 -0.154968 0)
(-0.0019307 -0.204058 0)
(0.00371507 0.084653 0)
(0.00761028 0.104948 0)
(0.0109726 0.105177 0)
(0.0133099 0.098469 0)
(0.0151123 0.0865446 0)
(0.0162289 0.0729114 0)
(0.0168546 0.0588094 0)
(0.0170514 0.0448969 0)
(0.0168933 0.031393 0)
(0.0164379 0.0182878 0)
(0.0157223 0.0054867 0)
(0.0147635 -0.00708596 0)
(0.0135497 -0.0194347 0)
(0.0120366 -0.0315625 0)
(0.0100715 -0.0437924 0)
(0.0075856 -0.0576494 0)
(0.00250359 -0.0772161 0)
(0.00126996 -0.108612 0)
(-0.00891883 -0.15322 0)
(0.000195291 -0.210301 0)
(0.00542546 0.0771488 0)
(0.0119332 0.0995793 0)
(0.0174764 0.100975 0)
(0.0212815 0.0955284 0)
(0.0246517 0.0845304 0)
(0.0269538 0.0716229 0)
(0.0285032 0.0581252 0)
(0.0293785 0.0447223 0)
(0.0296421 0.0316672 0)
(0.0293315 0.0189791 0)
(0.0284575 0.00658582 0)
(0.0270031 -0.00557397 0)
(0.0249349 -0.0174935 0)
(0.0222493 -0.0291454 0)
(0.0188523 -0.0407481 0)
(0.0148441 -0.0537052 0)
(0.00788175 -0.0722404 0)
(0.00628107 -0.103259 0)
(-0.00802976 -0.150259 0)
(0.00275712 -0.21503 0)
(0.00685338 0.0674569 0)
(0.0154149 0.093159 0)
(0.022775 0.0960941 0)
(0.0285209 0.0912891 0)
(0.0335389 0.0813564 0)
(0.0373263 0.0693305 0)
(0.040077 0.0566308 0)
(0.0418611 0.0439681 0)
(0.0427311 0.0316266 0)
(0.0427079 0.019653 0)
(0.0417773 0.00800086 0)
(0.0398853 -0.00338345 0)
(0.036972 -0.0144905 0)
(0.0330809 -0.0253438 0)
(0.0281277 -0.0361384 0)
(0.0225436 -0.0481269 0)
(0.0136964 -0.0654398 0)
(0.0114989 -0.0961899 0)
(-0.00712745 -0.145741 0)
(0.0067036 -0.218345 0)
(0.0077836 0.0545585 0)
(0.0183527 0.0825245 0)
(0.0272729 0.0877533 0)
(0.0348273 0.0844347 0)
(0.0415833 0.0760123 0)
(0.0470764 0.0653247 0)
(0.0512869 0.0538417 0)
(0.0542181 0.0423032 0)
(0.0558949 0.0310411 0)
(0.0563217 0.0201472 0)
(0.055463 0.00961631 0)
(0.0532421 -0.000610606 0)
(0.0495639 -0.0104828 0)
(0.0445549 -0.0201647 0)
(0.0380347 -0.0299162 0)
(0.0309097 -0.0409115 0)
(0.0200964 -0.0571442 0)
(0.0172915 -0.0880939 0)
(-0.00563951 -0.140993 0)
(0.0117448 -0.220537 0)
(0.00703082 0.0415051 0)
(0.0184374 0.0731645 0)
(0.0290532 0.0795899 0)
(0.0387631 0.0769028 0)
(0.0477737 0.0695252 0)
(0.055406 0.0600784 0)
(0.0614672 0.0499169 0)
(0.0658689 0.0397252 0)
(0.0686071 0.0298399 0)
(0.0696892 0.0203693 0)
(0.0690555 0.0113329 0)
(0.0667245 0.00266267 0)
(0.0625152 -0.00561868 0)
(0.0566983 -0.0138103 0)
(0.0488133 -0.0222399 0)
(0.0404803 -0.0321325 0)
(0.0276814 -0.0473058 0)
(0.0245873 -0.0787172 0)
(-0.00326575 -0.134856 0)
(0.0185016 -0.221129 0)
(0.00342047 0.0285277 0)
(0.0167169 0.0578273 0)
(0.0289005 0.0658809 0)
(0.0408842 0.0648008 0)
(0.0521959 0.0593255 0)
(0.0620642 0.0518499 0)
(0.0700986 0.043674 0)
(0.0761215 0.0354241 0)
(0.0800984 0.0274483 0)
(0.082069 0.0198762 0)
(0.0819738 0.012756 0)
(0.0799617 0.00600612 0)
(0.0757212 -0.00040994 0)
(0.0698735 -0.00686284 0)
(0.0613496 -0.0135549 0)
(0.0527422 -0.0220186 0)
(0.0383814 -0.0359016 0)
(0.0353534 -0.0675254 0)
(0.00126343 -0.126499 0)
(0.0277176 -0.216312 0)
(-0.00597488 0.0242051 0)
(0.00583677 0.0500076 0)
(0.0212332 0.055077 0)
(0.03668 0.0536363 0)
(0.0513759 0.0490219 0)
(0.064288 0.0430207 0)
(0.075002 0.0366546 0)
(0.0833493 0.0304124 0)
(0.0892886 0.0244969 0)
(0.0929838 0.0189869 0)
(0.0944169 0.0139132 0)
(0.0939052 0.00923137 0)
(0.0910069 0.00494582 0)
(0.086913 0.000606762 0)
(0.0796337 -0.00397712 0)
(0.0728141 -0.010685 0)
(0.0581118 -0.0230208 0)
(0.0549967 -0.0538993 0)
(0.0137937 -0.112808 0)
(0.043291 -0.196131 0)
(-0.014017 0.0318001 0)
(-0.00614721 0.0246735 0)
(0.0151396 0.027373 0)
(0.0355253 0.0282755 0)
(0.0542059 0.0269645 0)
(0.0708308 0.0243324 0)
(0.0849782 0.0211509 0)
(0.0965692 0.0179732 0)
(0.105685 0.0149103 0)
(0.112431 0.0120821 0)
(0.116988 0.00948329 0)
(0.119617 0.00702875 0)
(0.120186 0.00483411 0)
(0.1194 0.00208053 0)
(0.115584 -0.000450596 0)
(0.111853 -0.00607601 0)
(0.0999636 -0.0154319 0)
(0.0968516 -0.0416299 0)
(0.0529272 -0.0878608 0)
(0.0753153 -0.150072 0)
(0.0414973 0.0396768 0)
(0.0473074 0.0286168 0)
(0.0700477 0.0241437 0)
(0.0957252 0.0227072 0)
(0.118216 0.0214492 0)
(0.138619 0.019777 0)
(0.157376 0.0178509 0)
(0.173798 0.015947 0)
(0.188316 0.0142038 0)
(0.200291 0.0126394 0)
(0.210691 0.011178 0)
(0.218609 0.00997766 0)
(0.225395 0.00862279 0)
(0.229549 0.00764496 0)
(0.232931 0.00596104 0)
(0.232238 0.00368917 0)
(0.226346 0.00236633 0)
(0.213618 -0.00790555 0)
(0.165124 -0.0135211 0)
(0.144811 -0.069018 0)
)
;

boundaryField
{
    movingWall
    {
        type            fixedValue;
        value           uniform (1 0 0);
    }
    fixedWalls
    {
        type            noSlip;
    }
    frontAndBack
    {
        type            empty;
    }
}


// ************************************************************************* //
