/*--------------------------------*- C++ -*----------------------------------*\
  =========                 |
  \\      /  F ield         | OpenFOAM: The Open Source CFD Toolbox
   \\    /   O peration     | Website:  https://openfoam.org
    \\  /    A nd           | Version:  13
     \\/     M anipulation  |
\*---------------------------------------------------------------------------*/
FoamFile
{
    format      ascii;
    class       volScalarField;
    location    "4.4";
    object      nut;
}
// * * * * * * * * * * * * * * * * * * * * * * * * * * * * * * * * * * * * * //

dimensions      [0 2 -1 0 0 0 0];

internalField   nonuniform List<scalar> 
6400
(
7.60417e-10
3.89702e-09
9.36267e-09
1.51129e-08
1.9592e-08
2.22884e-08
2.3502e-08
2.39361e-08
2.43835e-08
2.55602e-08
2.80522e-08
3.24346e-08
3.91517e-08
4.83382e-08
5.9622e-08
7.24712e-08
8.63112e-08
1.00916e-07
1.15629e-07
1.30024e-07
1.44328e-07
1.59605e-07
1.77338e-07
1.98847e-07
2.23993e-07
2.50741e-07
2.77246e-07
3.03679e-07
3.30537e-07
3.58438e-07
3.87369e-07
4.1627e-07
4.44594e-07
4.72114e-07
4.99442e-07
5.26949e-07
5.55142e-07
5.84403e-07
6.15089e-07
6.47496e-07
6.81793e-07
7.18246e-07
7.57123e-07
7.98707e-07
8.43309e-07
8.91514e-07
9.44966e-07
1.00713e-06
1.08542e-06
1.16252e-06
1.2419e-06
1.31946e-06
1.39475e-06
1.46507e-06
1.5282e-06
1.58143e-06
1.62041e-06
1.63945e-06
1.6465e-06
1.63476e-06
1.59441e-06
1.52826e-06
1.4368e-06
1.32159e-06
1.18788e-06
1.03928e-06
8.85031e-07
7.31795e-07
5.86063e-07
4.51128e-07
3.41168e-07
2.49735e-07
1.75217e-07
1.17631e-07
7.58166e-08
4.70316e-08
2.81228e-08
1.59276e-08
7.42437e-09
1.57508e-09
3.70166e-09
2.6959e-07
9.7043e-07
1.65725e-06
2.18019e-06
2.50201e-06
2.66492e-06
2.73956e-06
2.79781e-06
2.88823e-06
3.08117e-06
3.4147e-06
3.87694e-06
4.41903e-06
4.99048e-06
5.5374e-06
6.02082e-06
6.39925e-06
6.65726e-06
6.79743e-06
6.86457e-06
6.93583e-06
7.06318e-06
7.28956e-06
7.59229e-06
7.86851e-06
8.07451e-06
8.29442e-06
8.5649e-06
8.92108e-06
9.38782e-06
9.91522e-06
1.04882e-05
1.1083e-05
1.17048e-05
1.23517e-05
1.30253e-05
1.37266e-05
1.4456e-05
1.52181e-05
1.60082e-05
1.68242e-05
1.76682e-05
1.85514e-05
1.94778e-05
2.04222e-05
2.13486e-05
2.22335e-05
2.30225e-05
2.38666e-05
2.47087e-05
2.55641e-05
2.64074e-05
2.72263e-05
2.79978e-05
2.87126e-05
2.93617e-05
2.97216e-05
3.0008e-05
3.01327e-05
3.00082e-05
2.95433e-05
2.87726e-05
2.76552e-05
2.62057e-05
2.44244e-05
2.24277e-05
2.02534e-05
1.79195e-05
1.54976e-05
1.27497e-05
9.97159e-06
7.45537e-06
5.35088e-06
3.70718e-06
2.49016e-06
1.63762e-06
1.03279e-06
4.57164e-07
8.28174e-09
8.16194e-09
7.19736e-07
2.96065e-06
5.24157e-06
7.02347e-06
8.20472e-06
8.89059e-06
9.26014e-06
9.49562e-06
9.74664e-06
1.01508e-05
1.07678e-05
1.15779e-05
1.24986e-05
1.34255e-05
1.42545e-05
1.49425e-05
1.54655e-05
1.58197e-05
1.60151e-05
1.60682e-05
1.60292e-05
1.59848e-05
1.59776e-05
1.6031e-05
1.62099e-05
1.65253e-05
1.68247e-05
1.71441e-05
1.7474e-05
1.78573e-05
1.83652e-05
1.91502e-05
2.00496e-05
2.10391e-05
2.21142e-05
2.32615e-05
2.44763e-05
2.57116e-05
2.7018e-05
2.83892e-05
2.974e-05
3.11317e-05
3.24798e-05
3.37724e-05
3.50116e-05
3.62332e-05
3.74261e-05
3.86248e-05
3.98338e-05
4.10363e-05
4.22274e-05
4.33914e-05
4.45122e-05
4.55677e-05
4.65291e-05
4.73549e-05
4.80484e-05
4.84328e-05
4.86374e-05
4.86498e-05
4.83481e-05
4.77155e-05
4.66636e-05
4.51177e-05
4.29635e-05
4.04041e-05
3.75018e-05
3.42276e-05
3.06424e-05
2.67721e-05
2.27223e-05
1.8682e-05
1.48622e-05
1.1453e-05
8.56832e-06
6.22771e-06
4.21807e-06
1.72167e-06
2.18087e-08
1.42375e-08
1.19741e-06
4.74639e-06
8.25706e-06
1.10109e-05
1.29216e-05
1.41213e-05
1.4816e-05
1.52352e-05
1.56062e-05
1.61008e-05
1.68204e-05
1.7745e-05
1.87562e-05
1.97147e-05
2.05255e-05
2.11287e-05
2.1514e-05
2.17018e-05
2.17376e-05
2.16728e-05
2.1595e-05
2.1573e-05
2.1663e-05
2.17263e-05
2.1739e-05
2.17125e-05
2.18936e-05
2.24354e-05
2.32355e-05
2.43456e-05
2.55049e-05
2.66612e-05
2.78428e-05
2.90977e-05
3.03744e-05
3.16233e-05
3.29099e-05
3.42439e-05
3.54932e-05
3.67519e-05
3.7961e-05
3.91536e-05
4.02987e-05
4.14083e-05
4.24705e-05
4.35178e-05
4.45598e-05
4.55993e-05
4.66316e-05
4.76499e-05
4.86461e-05
4.9608e-05
5.05217e-05
5.13689e-05
5.21279e-05
5.27737e-05
5.32802e-05
5.35963e-05
5.37253e-05
5.36336e-05
5.33269e-05
5.26274e-05
5.18322e-05
5.0818e-05
4.91895e-05
4.70497e-05
4.44224e-05
4.13677e-05
3.79343e-05
3.41614e-05
3.01047e-05
2.58524e-05
2.15545e-05
1.74039e-05
1.36021e-05
1.02498e-05
7.08435e-06
2.86376e-06
3.55752e-08
2.28389e-08
1.80856e-06
6.66001e-06
1.12147e-05
1.46545e-05
1.69887e-05
1.84311e-05
1.92504e-05
1.97409e-05
2.0197e-05
2.08399e-05
2.17413e-05
2.2815e-05
2.38941e-05
2.48245e-05
2.55157e-05
2.59403e-05
2.61212e-05
2.6101e-05
2.59881e-05
2.5771e-05
2.56235e-05
2.54793e-05
2.50042e-05
2.47412e-05
2.50218e-05
2.58415e-05
2.68422e-05
2.79828e-05
2.91832e-05
3.04196e-05
3.16444e-05
3.28457e-05
3.40276e-05
3.51821e-05
3.62313e-05
3.72692e-05
3.83304e-05
3.92286e-05
4.00847e-05
4.08663e-05
4.15831e-05
4.22544e-05
4.28946e-05
4.35251e-05
4.4169e-05
4.48098e-05
4.54453e-05
4.60812e-05
4.67189e-05
4.73608e-05
4.8008e-05
4.86592e-05
4.93107e-05
4.99562e-05
5.05862e-05
5.11876e-05
5.17408e-05
5.22129e-05
5.25724e-05
5.27181e-05
5.27118e-05
5.23281e-05
5.14644e-05
5.03419e-05
4.94702e-05
4.79239e-05
4.58534e-05
4.33286e-05
4.04014e-05
3.71138e-05
3.34987e-05
2.95872e-05
2.54424e-05
2.12035e-05
1.71044e-05
1.32164e-05
9.17494e-06
3.63422e-06
4.46407e-08
3.50546e-08
2.62993e-06
8.91364e-06
1.44387e-05
1.83701e-05
2.08929e-05
2.23632e-05
2.31666e-05
2.36928e-05
2.42779e-05
2.51063e-05
2.61642e-05
2.72967e-05
2.83159e-05
2.9083e-05
2.95384e-05
2.96914e-05
2.96287e-05
2.92496e-05
2.89272e-05
2.86432e-05
2.77393e-05
2.74469e-05
2.79085e-05
2.87577e-05
2.97593e-05
3.08435e-05
3.19766e-05
3.30876e-05
3.41479e-05
3.51637e-05
3.61406e-05
3.70288e-05
3.78177e-05
3.8559e-05
3.91718e-05
3.97271e-05
4.02691e-05
4.06833e-05
4.10659e-05
4.1393e-05
4.16977e-05
4.19722e-05
4.22219e-05
4.24531e-05
4.26699e-05
4.28721e-05
4.30667e-05
4.32614e-05
4.3465e-05
4.36857e-05
4.39357e-05
4.42266e-05
4.4569e-05
4.49698e-05
4.54254e-05
4.59306e-05
4.64974e-05
4.70942e-05
4.76884e-05
4.82268e-05
4.86466e-05
4.88199e-05
4.8793e-05
4.81615e-05
4.73022e-05
4.6496e-05
4.50029e-05
4.29879e-05
4.05221e-05
3.7681e-05
3.45253e-05
3.10741e-05
2.73043e-05
2.32538e-05
1.91113e-05
1.49335e-05
1.03751e-05
3.98805e-06
4.76823e-08
5.1962e-08
3.70441e-06
1.1546e-05
1.79445e-05
2.21908e-05
2.47297e-05
2.61021e-05
2.68349e-05
2.73971e-05
2.8109e-05
2.90671e-05
3.01685e-05
3.12183e-05
3.20376e-05
3.25236e-05
3.26584e-05
3.23664e-05
3.19402e-05
3.15667e-05
3.05471e-05
3.00861e-05
3.03077e-05
3.10975e-05
3.18412e-05
3.26924e-05
3.36117e-05
3.45318e-05
3.54149e-05
3.62233e-05
3.70069e-05
3.77108e-05
3.83268e-05
3.88488e-05
3.92882e-05
3.96575e-05
3.99491e-05
4.02142e-05
4.0393e-05
4.04874e-05
4.06275e-05
4.06881e-05
4.07278e-05
4.07316e-05
4.07157e-05
4.06715e-05
4.06072e-05
4.05206e-05
4.04154e-05
4.02953e-05
4.01729e-05
4.00491e-05
3.99368e-05
3.98541e-05
3.98314e-05
3.99128e-05
4.01107e-05
4.03822e-05
4.08312e-05
4.14423e-05
4.21764e-05
4.29655e-05
4.38119e-05
4.45818e-05
4.51361e-05
4.53329e-05
4.4835e-05
4.45411e-05
4.36884e-05
4.21505e-05
4.00314e-05
3.74443e-05
3.45234e-05
3.13636e-05
2.79718e-05
2.42331e-05
2.0138e-05
1.58502e-05
1.06862e-05
3.97776e-06
4.62651e-08
7.45739e-08
5.05268e-06
1.45032e-05
2.16417e-05
2.60401e-05
2.84769e-05
2.96913e-05
3.0341e-05
3.09287e-05
3.17107e-05
3.26854e-05
3.36862e-05
3.45094e-05
3.50068e-05
3.51271e-05
3.46827e-05
3.42405e-05
3.34751e-05
3.25938e-05
3.24305e-05
3.29014e-05
3.32901e-05
3.3913e-05
3.45608e-05
3.53823e-05
3.61427e-05
3.68625e-05
3.75041e-05
3.80699e-05
3.85671e-05
3.89772e-05
3.93137e-05
3.95828e-05
3.97971e-05
3.99644e-05
4.00888e-05
4.01793e-05
4.02262e-05
4.02496e-05
4.02331e-05
4.02086e-05
4.01843e-05
4.0076e-05
3.99831e-05
3.98477e-05
3.9698e-05
3.95284e-05
3.93452e-05
3.91442e-05
3.89172e-05
3.86705e-05
3.84009e-05
3.81047e-05
3.77755e-05
3.7402e-05
3.70395e-05
3.6837e-05
3.67747e-05
3.70146e-05
3.75901e-05
3.82945e-05
3.92775e-05
4.03475e-05
4.1462e-05
4.22894e-05
4.25911e-05
4.23612e-05
4.23667e-05
4.15196e-05
3.98013e-05
3.74086e-05
3.45279e-05
3.13664e-05
2.8067e-05
2.45907e-05
2.06852e-05
1.62315e-05
1.08341e-05
3.88254e-06
4.31938e-08
1.03646e-07
6.66327e-06
1.77077e-05
2.53907e-05
2.9833e-05
3.20986e-05
3.31299e-05
3.36857e-05
3.42565e-05
3.50135e-05
3.5873e-05
3.66355e-05
3.71131e-05
3.71766e-05
3.66778e-05
3.61802e-05
3.50706e-05
3.45486e-05
3.45564e-05
3.46211e-05
3.48647e-05
3.53705e-05
3.59739e-05
3.65962e-05
3.72454e-05
3.78012e-05
3.83018e-05
3.87233e-05
3.90837e-05
3.93858e-05
3.9635e-05
3.98452e-05
4.00221e-05
4.01723e-05
4.02976e-05
4.04001e-05
4.04803e-05
4.05336e-05
4.05574e-05
4.05642e-05
4.05604e-05
4.05117e-05
4.04359e-05
4.03465e-05
4.02289e-05
4.00963e-05
3.99373e-05
3.97582e-05
3.9556e-05
3.93288e-05
3.90729e-05
3.87868e-05
3.84632e-05
3.8093e-05
3.76693e-05
3.71792e-05
3.66322e-05
3.60177e-05
3.53572e-05
3.48271e-05
3.4916e-05
3.55512e-05
3.64704e-05
3.77259e-05
3.90595e-05
4.02512e-05
4.07689e-05
4.05709e-05
4.07086e-05
3.98473e-05
3.78347e-05
3.50552e-05
3.17669e-05
2.82525e-05
2.46888e-05
2.08862e-05
1.64028e-05
1.06831e-05
3.65485e-06
4.02714e-08
1.39562e-07
8.47654e-06
2.10074e-05
2.91164e-05
3.3513e-05
3.55645e-05
3.63957e-05
3.68287e-05
3.73122e-05
3.79352e-05
3.85589e-05
3.89821e-05
3.89426e-05
3.84571e-05
3.79605e-05
3.68364e-05
3.63587e-05
3.61764e-05
3.59163e-05
3.6135e-05
3.64739e-05
3.69742e-05
3.74862e-05
3.79853e-05
3.8448e-05
3.88366e-05
3.91841e-05
3.94834e-05
3.97545e-05
4.00007e-05
4.02302e-05
4.04471e-05
4.06512e-05
4.08418e-05
4.1013e-05
4.11626e-05
4.13029e-05
4.13847e-05
4.14268e-05
4.14959e-05
4.14865e-05
4.14584e-05
4.13951e-05
4.13062e-05
4.11876e-05
4.10456e-05
4.08794e-05
4.06942e-05
4.04917e-05
4.02758e-05
4.00465e-05
3.97933e-05
3.95089e-05
3.91786e-05
3.87797e-05
3.8299e-05
3.77201e-05
3.70221e-05
3.6212e-05
3.53342e-05
3.44506e-05
3.35423e-05
3.35462e-05
3.44147e-05
3.55743e-05
3.7152e-05
3.86948e-05
3.93622e-05
3.92347e-05
3.93586e-05
3.83917e-05
3.60085e-05
3.27742e-05
2.90183e-05
2.50527e-05
2.10542e-05
1.65063e-05
1.06516e-05
3.51679e-06
3.86912e-08
1.82879e-07
1.03536e-05
2.42728e-05
3.2736e-05
3.70332e-05
3.8844e-05
3.94524e-05
3.97142e-05
4.00258e-05
4.04102e-05
4.07022e-05
4.05796e-05
4.00315e-05
3.9481e-05
3.85271e-05
3.79124e-05
3.74575e-05
3.71082e-05
3.70834e-05
3.73613e-05
3.77048e-05
3.81296e-05
3.85283e-05
3.89071e-05
3.92505e-05
3.95617e-05
3.98626e-05
4.01532e-05
4.04452e-05
4.07362e-05
4.10263e-05
4.13099e-05
4.15792e-05
4.18565e-05
4.2092e-05
4.22383e-05
4.24014e-05
4.25561e-05
4.26343e-05
4.26976e-05
4.27048e-05
4.26854e-05
4.26271e-05
4.2538e-05
4.24171e-05
4.22682e-05
4.20928e-05
4.18938e-05
4.16724e-05
4.14299e-05
4.11664e-05
4.08813e-05
4.05744e-05
4.02449e-05
3.98909e-05
3.95094e-05
3.90412e-05
3.84422e-05
3.76651e-05
3.6733e-05
3.56856e-05
3.453e-05
3.34056e-05
3.23851e-05
3.27443e-05
3.39007e-05
3.55763e-05
3.73184e-05
3.81522e-05
3.80867e-05
3.81447e-05
3.69105e-05
3.40901e-05
3.03852e-05
2.60854e-05
2.15741e-05
1.68031e-05
1.08014e-05
3.57966e-06
3.93712e-08
2.35894e-07
1.20974e-05
2.74102e-05
3.61896e-05
4.03564e-05
4.19053e-05
4.22582e-05
4.2287e-05
4.23395e-05
4.23937e-05
4.21634e-05
4.15153e-05
4.09145e-05
4.00242e-05
3.92975e-05
3.85236e-05
3.81264e-05
3.79279e-05
3.80289e-05
3.82975e-05
3.86017e-05
3.89458e-05
3.92686e-05
3.95921e-05
3.99104e-05
4.02369e-05
4.05789e-05
4.09334e-05
4.12995e-05
4.16678e-05
4.20388e-05
4.24197e-05
4.27603e-05
4.30258e-05
4.32737e-05
4.34861e-05
4.37112e-05
4.38561e-05
4.39623e-05
4.4031e-05
4.40544e-05
4.40428e-05
4.39921e-05
4.39069e-05
4.37879e-05
4.36379e-05
4.34589e-05
4.32534e-05
4.30229e-05
4.2769e-05
4.24921e-05
4.21915e-05
4.18651e-05
4.15089e-05
4.11177e-05
4.06859e-05
4.02093e-05
3.96863e-05
3.908e-05
3.8282e-05
3.72734e-05
3.60844e-05
3.47419e-05
3.3367e-05
3.21139e-05
3.14993e-05
3.25906e-05
3.42135e-05
3.60878e-05
3.70648e-05
3.69981e-05
3.69497e-05
3.51808e-05
3.19494e-05
2.76596e-05
2.27659e-05
1.75487e-05
1.13804e-05
3.89366e-06
4.32743e-08
2.95318e-07
1.38326e-05
3.04058e-05
3.94433e-05
4.34535e-05
4.47183e-05
4.47749e-05
4.45032e-05
4.42132e-05
4.38094e-05
4.30235e-05
4.23811e-05
4.14495e-05
4.06446e-05
3.96275e-05
3.89974e-05
3.8693e-05
3.86125e-05
3.8759e-05
3.89968e-05
3.92683e-05
3.95743e-05
3.98884e-05
4.02322e-05
4.06003e-05
4.0999e-05
4.14222e-05
4.18611e-05
4.23058e-05
4.27743e-05
4.32184e-05
4.36121e-05
4.39614e-05
4.4288e-05
4.45841e-05
4.48342e-05
4.50435e-05
4.52293e-05
4.53547e-05
4.54445e-05
4.54875e-05
4.54914e-05
4.54545e-05
4.53794e-05
4.52667e-05
4.51188e-05
4.49377e-05
4.47259e-05
4.44859e-05
4.42202e-05
4.39305e-05
4.36174e-05
4.32797e-05
4.29135e-05
4.25118e-05
4.20644e-05
4.15591e-05
4.09846e-05
4.03356e-05
3.96165e-05
3.87231e-05
3.76633e-05
3.6347e-05
3.488e-05
3.3377e-05
3.18739e-05
3.06533e-05
3.14197e-05
3.29834e-05
3.49837e-05
3.59928e-05
3.58712e-05
3.55947e-05
3.31974e-05
2.93136e-05
2.44203e-05
1.8863e-05
1.2427e-05
4.57624e-06
5.37335e-08
3.59448e-07
1.55252e-05
3.32172e-05
4.24652e-05
4.63006e-05
4.72602e-05
4.69784e-05
4.63436e-05
4.56422e-05
4.46718e-05
4.3984e-05
4.2891e-05
4.19812e-05
4.07752e-05
3.98879e-05
3.93851e-05
3.917e-05
3.91644e-05
3.93234e-05
3.95495e-05
3.98266e-05
4.01531e-05
4.05189e-05
4.09343e-05
4.13885e-05
4.1877e-05
4.23864e-05
4.29048e-05
4.34306e-05
4.39354e-05
4.44028e-05
4.48325e-05
4.52305e-05
4.55989e-05
4.59294e-05
4.62213e-05
4.64727e-05
4.66669e-05
4.68099e-05
4.69517e-05
4.70318e-05
4.70636e-05
4.70504e-05
4.69934e-05
4.68914e-05
4.67465e-05
4.656e-05
4.63346e-05
4.60737e-05
4.57813e-05
4.54614e-05
4.51179e-05
4.47532e-05
4.43674e-05
4.39566e-05
4.35116e-05
4.30172e-05
4.2452e-05
4.17917e-05
4.10163e-05
4.01237e-05
3.90451e-05
3.77542e-05
3.63529e-05
3.48898e-05
3.32693e-05
3.15532e-05
3.00124e-05
3.03563e-05
3.18763e-05
3.3869e-05
3.4836e-05
3.44752e-05
3.37537e-05
3.05748e-05
2.60646e-05
2.04728e-05
1.38067e-05
5.4699e-06
7.24653e-08
4.26218e-07
1.7137e-05
3.58055e-05
4.52308e-05
4.88824e-05
4.95235e-05
4.88745e-05
4.78519e-05
4.66245e-05
4.58355e-05
4.44376e-05
4.33675e-05
4.20005e-05
4.08606e-05
4.01067e-05
3.97116e-05
3.95706e-05
3.96169e-05
3.97954e-05
4.00486e-05
4.03751e-05
4.0768e-05
4.12192e-05
4.17249e-05
4.2269e-05
4.284e-05
4.34219e-05
4.40022e-05
4.45697e-05
4.51086e-05
4.56156e-05
4.60921e-05
4.65387e-05
4.6953e-05
4.73309e-05
4.76713e-05
4.79718e-05
4.82431e-05
4.84635e-05
4.8585e-05
4.87479e-05
4.88327e-05
4.88529e-05
4.88251e-05
4.87396e-05
4.85995e-05
4.84045e-05
4.81574e-05
4.78616e-05
4.75223e-05
4.71462e-05
4.67403e-05
4.63123e-05
4.58683e-05
4.54118e-05
4.49412e-05
4.44474e-05
4.39112e-05
4.33021e-05
4.25795e-05
4.16992e-05
4.07164e-05
3.95356e-05
3.78192e-05
3.61742e-05
3.47434e-05
3.30241e-05
3.11745e-05
2.94141e-05
2.9488e-05
3.09557e-05
3.27201e-05
3.34436e-05
3.28108e-05
3.11687e-05
2.7331e-05
2.19993e-05
1.52998e-05
6.43923e-06
9.76716e-08
4.93485e-07
1.86374e-05
3.81452e-05
4.77284e-05
5.11937e-05
5.15165e-05
5.04607e-05
4.89158e-05
4.79058e-05
4.62216e-05
4.48898e-05
4.33527e-05
4.19679e-05
4.09313e-05
4.03005e-05
3.99954e-05
3.99207e-05
4.00197e-05
4.0244e-05
4.0561e-05
4.09671e-05
4.14482e-05
4.19916e-05
4.25836e-05
4.32056e-05
4.38434e-05
4.44818e-05
4.51101e-05
4.57194e-05
4.63036e-05
4.68629e-05
4.73975e-05
4.79063e-05
4.83869e-05
4.88368e-05
4.9254e-05
4.96353e-05
4.99777e-05
5.02999e-05
5.05022e-05
5.06739e-05
5.08703e-05
5.09293e-05
5.09431e-05
5.08818e-05
5.07511e-05
5.05487e-05
5.02763e-05
4.9937e-05
4.95363e-05
4.90819e-05
4.85837e-05
4.80534e-05
4.75033e-05
4.69454e-05
4.63883e-05
4.5835e-05
4.52787e-05
4.46991e-05
4.40589e-05
4.33019e-05
4.23571e-05
4.12723e-05
3.9916e-05
3.78797e-05
3.58699e-05
3.43448e-05
3.26396e-05
3.06116e-05
2.85734e-05
2.87017e-05
3.01848e-05
3.15588e-05
3.18145e-05
3.10259e-05
2.80641e-05
2.31991e-05
1.66829e-05
7.34888e-06
1.27658e-07
5.58804e-07
1.99966e-05
4.02286e-05
4.99762e-05
5.32326e-05
5.30939e-05
5.16244e-05
5.02371e-05
4.83799e-05
4.66557e-05
4.49032e-05
4.32639e-05
4.19241e-05
4.10038e-05
4.04816e-05
4.02575e-05
4.02526e-05
4.04187e-05
4.07149e-05
4.11176e-05
4.16145e-05
4.21855e-05
4.28132e-05
4.34794e-05
4.4166e-05
4.48598e-05
4.55492e-05
4.62274e-05
4.68902e-05
4.75363e-05
4.81664e-05
4.87799e-05
4.93751e-05
4.99492e-05
5.04986e-05
5.10188e-05
5.15045e-05
5.19492e-05
5.23792e-05
5.267e-05
5.28876e-05
5.31957e-05
5.33095e-05
5.33726e-05
5.33443e-05
5.323e-05
5.30256e-05
5.27314e-05
5.23494e-05
5.1884e-05
5.13427e-05
5.07361e-05
5.0078e-05
4.93853e-05
4.86764e-05
4.797e-05
4.72816e-05
4.66202e-05
4.59828e-05
4.53495e-05
4.46774e-05
4.38971e-05
4.29113e-05
4.17324e-05
4.01268e-05
3.78797e-05
3.55895e-05
3.38462e-05
3.20943e-05
2.9825e-05
2.75627e-05
2.78422e-05
2.94308e-05
3.04146e-05
2.98214e-05
2.82496e-05
2.39909e-05
1.77895e-05
8.1047e-06
1.60603e-07
6.22361e-07
2.11789e-05
4.2068e-05
5.19129e-05
5.48029e-05
5.43426e-05
5.30981e-05
5.10615e-05
4.87356e-05
4.67446e-05
4.48171e-05
4.31498e-05
4.18919e-05
4.10867e-05
4.06621e-05
4.05194e-05
4.05945e-05
4.08424e-05
4.12258e-05
4.17204e-05
4.23057e-05
4.29585e-05
4.3659e-05
4.43888e-05
4.51331e-05
4.58815e-05
4.66275e-05
4.73685e-05
4.81037e-05
4.88337e-05
4.95585e-05
5.02766e-05
5.09844e-05
5.16772e-05
5.23487e-05
5.29918e-05
5.35982e-05
5.41645e-05
5.47064e-05
5.50819e-05
5.5389e-05
5.57817e-05
5.59689e-05
5.60847e-05
5.60964e-05
5.60057e-05
5.58078e-05
5.55011e-05
5.50857e-05
5.45642e-05
5.39424e-05
5.32296e-05
5.24395e-05
5.15902e-05
5.07041e-05
4.98066e-05
4.89242e-05
4.80806e-05
4.72918e-05
4.65594e-05
4.58641e-05
4.51578e-05
4.43568e-05
4.33351e-05
4.20723e-05
4.00707e-05
3.764e-05
3.51944e-05
3.32557e-05
3.13393e-05
2.87674e-05
2.66316e-05
2.70429e-05
2.83434e-05
2.88753e-05
2.77824e-05
2.43416e-05
1.85765e-05
8.67596e-06
1.95114e-07
6.81548e-07
2.2202e-05
4.35662e-05
5.33963e-05
5.59807e-05
5.57711e-05
5.39268e-05
5.13995e-05
4.90609e-05
4.67173e-05
4.46829e-05
4.30402e-05
4.18819e-05
4.11856e-05
4.08538e-05
4.07981e-05
4.09622e-05
4.13002e-05
4.17741e-05
4.23565e-05
4.3022e-05
4.37468e-05
4.45117e-05
4.53009e-05
4.61039e-05
4.69149e-05
4.77318e-05
4.85551e-05
4.93858e-05
5.0224e-05
5.1068e-05
5.19137e-05
5.2755e-05
5.35838e-05
5.43908e-05
5.51657e-05
5.58979e-05
5.66001e-05
5.72489e-05
5.76945e-05
5.81028e-05
5.85784e-05
5.88362e-05
5.9006e-05
5.9061e-05
5.89998e-05
5.88171e-05
5.85097e-05
5.80756e-05
5.7515e-05
5.6831e-05
5.603e-05
5.51233e-05
5.41274e-05
5.30646e-05
5.19635e-05
5.08574e-05
4.97815e-05
4.87685e-05
4.78422e-05
4.70089e-05
4.62496e-05
4.55121e-05
4.47033e-05
4.36804e-05
4.21638e-05
3.98036e-05
3.72458e-05
3.46897e-05
3.25283e-05
3.02912e-05
2.73472e-05
2.57837e-05
2.63967e-05
2.69744e-05
2.66717e-05
2.43193e-05
1.90216e-05
9.05696e-06
2.3091e-07
7.34074e-07
2.30332e-05
4.47163e-05
5.45208e-05
5.7112e-05
5.68724e-05
5.4727e-05
5.18344e-05
4.91181e-05
4.6617e-05
4.45347e-05
4.29508e-05
4.18976e-05
4.13042e-05
4.10651e-05
4.1102e-05
4.13592e-05
4.17877e-05
4.23481e-05
4.30102e-05
4.37476e-05
4.45378e-05
4.53641e-05
4.62153e-05
4.70857e-05
4.79739e-05
4.8881e-05
4.98089e-05
5.07578e-05
5.1726e-05
5.27085e-05
5.36978e-05
5.46839e-05
5.56556e-05
5.66005e-05
5.75059e-05
5.83594e-05
5.919e-05
5.99344e-05
6.04426e-05
6.09445e-05
6.1499e-05
6.18183e-05
6.20391e-05
6.21368e-05
6.21083e-05
6.1948e-05
6.16512e-05
6.12143e-05
6.06351e-05
5.99134e-05
5.90521e-05
5.8058e-05
5.69438e-05
5.57286e-05
5.44395e-05
5.31116e-05
5.17869e-05
5.05105e-05
4.9325e-05
4.82613e-05
4.73283e-05
4.6502e-05
4.57177e-05
4.48658e-05
4.37918e-05
4.19713e-05
3.92892e-05
3.67585e-05
3.40044e-05
3.1596e-05
2.89024e-05
2.5594e-05
2.48117e-05
2.54874e-05
2.58257e-05
2.4047e-05
1.91735e-05
9.24623e-06
2.67988e-07
7.78373e-07
2.36637e-05
4.55276e-05
5.53652e-05
5.80541e-05
5.75948e-05
5.5037e-05
5.20782e-05
4.9093e-05
4.6479e-05
4.43928e-05
4.28878e-05
4.19392e-05
4.14446e-05
4.12996e-05
4.14311e-05
4.17801e-05
4.22944e-05
4.29343e-05
4.36688e-05
4.44724e-05
4.53258e-05
4.62166e-05
4.71384e-05
4.80901e-05
4.90735e-05
5.00912e-05
5.11439e-05
5.22298e-05
5.33431e-05
5.4475e-05
5.56137e-05
5.67458e-05
5.78568e-05
5.89325e-05
5.99588e-05
6.09233e-05
6.18582e-05
6.2669e-05
6.32569e-05
6.38311e-05
6.44464e-05
6.48194e-05
6.50843e-05
6.52207e-05
6.52246e-05
6.50906e-05
6.48133e-05
6.43877e-05
6.38095e-05
6.30756e-05
6.21848e-05
6.11393e-05
5.99459e-05
5.86182e-05
5.7178e-05
5.56574e-05
5.4099e-05
5.25548e-05
5.10816e-05
4.97332e-05
4.85483e-05
4.75365e-05
4.66639e-05
4.58406e-05
4.49109e-05
4.36436e-05
4.13943e-05
3.86148e-05
3.5986e-05
3.30004e-05
3.04003e-05
2.70659e-05
2.41822e-05
2.3846e-05
2.40564e-05
2.30497e-05
1.90916e-05
9.37361e-06
3.07536e-07
8.13803e-07
2.41087e-05
4.60584e-05
5.59882e-05
5.87487e-05
5.82076e-05
5.54598e-05
5.2175e-05
4.90116e-05
4.63267e-05
4.42681e-05
4.28518e-05
4.20049e-05
4.16064e-05
4.15559e-05
4.17802e-05
4.22159e-05
4.28097e-05
4.35224e-05
4.43241e-05
4.51922e-05
4.61114e-05
4.70743e-05
4.80791e-05
4.91283e-05
5.02249e-05
5.13706e-05
5.25635e-05
5.37975e-05
5.50625e-05
5.6345e-05
5.76293e-05
5.88988e-05
6.01369e-05
6.13278e-05
6.24571e-05
6.35177e-05
6.45317e-05
6.53964e-05
6.60517e-05
6.66795e-05
6.73369e-05
6.77538e-05
6.80531e-05
6.82213e-05
6.82544e-05
6.81471e-05
6.78943e-05
6.74902e-05
6.6929e-05
6.62053e-05
6.53142e-05
6.42531e-05
6.30229e-05
6.16298e-05
6.0088e-05
5.84222e-05
5.66703e-05
5.48836e-05
5.31258e-05
5.1467e-05
4.9973e-05
4.86898e-05
4.76277e-05
4.67457e-05
4.5942e-05
4.50458e-05
4.32478e-05
4.04931e-05
3.78497e-05
3.48441e-05
3.16182e-05
2.86285e-05
2.47397e-05
2.30444e-05
2.26105e-05
2.23217e-05
1.90382e-05
9.65915e-06
3.56708e-07
8.40063e-07
2.43664e-05
4.6368e-05
5.63474e-05
5.92572e-05
5.84636e-05
5.56838e-05
5.21939e-05
4.88961e-05
4.61752e-05
4.41649e-05
4.28408e-05
4.20916e-05
4.17871e-05
4.18292e-05
4.21416e-05
4.26577e-05
4.33249e-05
4.41058e-05
4.49727e-05
4.59068e-05
4.6898e-05
4.79434e-05
4.90451e-05
5.02071e-05
5.14316e-05
5.27175e-05
5.40586e-05
5.54438e-05
5.68583e-05
5.82841e-05
5.97025e-05
6.10944e-05
6.24419e-05
6.3729e-05
6.49414e-05
6.60752e-05
6.7148e-05
6.8058e-05
6.87595e-05
6.94201e-05
7.01054e-05
7.05533e-05
7.08761e-05
7.10671e-05
7.11231e-05
7.10398e-05
7.08125e-05
7.04355e-05
6.99023e-05
6.92058e-05
6.83385e-05
6.72935e-05
6.60659e-05
6.46544e-05
6.30643e-05
6.13107e-05
5.94217e-05
5.74421e-05
5.54343e-05
5.34757e-05
5.1651e-05
5.00365e-05
4.86798e-05
4.75783e-05
4.6663e-05
4.57896e-05
4.47339e-05
4.24887e-05
3.94805e-05
3.67435e-05
3.34636e-05
2.98865e-05
2.62407e-05
2.27873e-05
2.17201e-05
2.14288e-05
1.8962e-05
1.02e-05
4.22266e-07
8.57606e-07
2.44678e-05
4.64407e-05
5.64378e-05
5.9474e-05
5.87781e-05
5.57919e-05
5.21556e-05
4.87633e-05
4.60333e-05
4.40837e-05
4.28514e-05
4.2196e-05
4.19828e-05
4.21135e-05
4.25083e-05
4.30989e-05
4.38349e-05
4.46812e-05
4.56138e-05
4.66184e-05
4.76897e-05
4.88289e-05
5.00401e-05
5.13268e-05
5.26887e-05
5.41203e-05
5.56101e-05
5.71421e-05
5.86966e-05
6.02525e-05
6.17884e-05
6.32841e-05
6.47216e-05
6.60849e-05
6.73612e-05
6.85422e-05
6.96564e-05
7.06047e-05
7.13309e-05
7.20031e-05
7.27033e-05
7.31689e-05
7.35035e-05
7.37071e-05
7.37778e-05
7.37128e-05
7.35084e-05
7.31597e-05
7.26602e-05
7.2002e-05
7.11759e-05
7.01718e-05
6.89798e-05
6.75918e-05
6.60041e-05
6.42209e-05
6.22581e-05
6.01489e-05
5.79473e-05
5.57296e-05
5.35908e-05
5.16323e-05
4.99416e-05
4.85658e-05
4.74874e-05
4.661e-05
4.57569e-05
4.40736e-05
4.11993e-05
3.85239e-05
3.51355e-05
3.15279e-05
2.77434e-05
2.32357e-05
2.11221e-05
1.9839e-05
1.85289e-05
1.08544e-05
5.04777e-07
8.66603e-07
2.4412e-05
4.62679e-05
5.63885e-05
5.96128e-05
5.88695e-05
5.58124e-05
5.20769e-05
4.86245e-05
4.59056e-05
4.40232e-05
4.28801e-05
4.23145e-05
4.2189e-05
4.24034e-05
4.28746e-05
4.35349e-05
4.43366e-05
4.52478e-05
4.62485e-05
4.73293e-05
4.84892e-05
4.97321e-05
5.10623e-05
5.24809e-05
5.39838e-05
5.55598e-05
5.71924e-05
5.88606e-05
6.0541e-05
6.22099e-05
6.38446e-05
6.54247e-05
6.69323e-05
6.83523e-05
6.96729e-05
7.08843e-05
7.20199e-05
7.29998e-05
7.37329e-05
7.43968e-05
7.50983e-05
7.5569e-05
7.59039e-05
7.61092e-05
7.61851e-05
7.61307e-05
7.59438e-05
7.56208e-05
7.51559e-05
7.45414e-05
7.37672e-05
7.28212e-05
7.16897e-05
7.0359e-05
6.88173e-05
6.70577e-05
6.50833e-05
6.29126e-05
6.05853e-05
5.81682e-05
5.57555e-05
5.34623e-05
5.14065e-05
4.96796e-05
4.83136e-05
4.72542e-05
4.63539e-05
4.53847e-05
4.30833e-05
3.99958e-05
3.72203e-05
3.30909e-05
2.89515e-05
2.46835e-05
2.10736e-05
1.92533e-05
1.81451e-05
1.13935e-05
6.00617e-07
8.66322e-07
2.42593e-05
4.60152e-05
5.62036e-05
5.96622e-05
5.8863e-05
5.57656e-05
5.19712e-05
4.84877e-05
4.57942e-05
4.39814e-05
4.29235e-05
4.24438e-05
4.24017e-05
4.26945e-05
4.3237e-05
4.39633e-05
4.48288e-05
4.58054e-05
4.68777e-05
4.80406e-05
4.92965e-05
5.06502e-05
5.21046e-05
5.36572e-05
5.52986e-05
5.70123e-05
5.87766e-05
6.05665e-05
6.2356e-05
6.41197e-05
6.58346e-05
6.74803e-05
6.90398e-05
7.04991e-05
7.18471e-05
7.30753e-05
7.42123e-05
7.5216e-05
7.59465e-05
7.65865e-05
7.72706e-05
7.77363e-05
7.80607e-05
7.82569e-05
7.83281e-05
7.82755e-05
7.80987e-05
7.77959e-05
7.73628e-05
7.67924e-05
7.60747e-05
7.51967e-05
7.41425e-05
7.28938e-05
7.14321e-05
6.9741e-05
6.78108e-05
6.5644e-05
6.32631e-05
6.07187e-05
5.80949e-05
5.55095e-05
5.31016e-05
5.10052e-05
4.93092e-05
4.80175e-05
4.70255e-05
4.61321e-05
4.43778e-05
4.13349e-05
3.88568e-05
3.49276e-05
3.06219e-05
2.60896e-05
2.11953e-05
1.89641e-05
1.77897e-05
1.20205e-05
7.07202e-07
8.61765e-07
2.40086e-05
4.56404e-05
5.58396e-05
5.94943e-05
5.87548e-05
5.5664e-05
5.18483e-05
4.8358e-05
4.56999e-05
4.3956e-05
4.29791e-05
4.25808e-05
4.26176e-05
4.29836e-05
4.3593e-05
4.43825e-05
4.5311e-05
4.63543e-05
4.75015e-05
4.87514e-05
5.01082e-05
5.15763e-05
5.31556e-05
5.4839e-05
5.66117e-05
5.8452e-05
6.03339e-05
6.22293e-05
6.41103e-05
6.59511e-05
6.77287e-05
6.94233e-05
7.10191e-05
7.25031e-05
7.38658e-05
7.51001e-05
7.62191e-05
7.72255e-05
7.79647e-05
7.85693e-05
7.92121e-05
7.96645e-05
7.99685e-05
8.01456e-05
8.02024e-05
8.01423e-05
7.99673e-05
7.96775e-05
7.92705e-05
7.87408e-05
7.80793e-05
7.72731e-05
7.63051e-05
7.51543e-05
7.3797e-05
7.22091e-05
7.03691e-05
6.82644e-05
6.58988e-05
6.33022e-05
6.05408e-05
5.7723e-05
5.49954e-05
5.25226e-05
5.04468e-05
4.88356e-05
4.76361e-05
4.6653e-05
4.55629e-05
4.28918e-05
4.02718e-05
3.7036e-05
3.18945e-05
2.72027e-05
2.21158e-05
1.85171e-05
1.66134e-05
1.25992e-05
8.06618e-07
8.51523e-07
2.37125e-05
4.5001e-05
5.53426e-05
5.92023e-05
5.85601e-05
5.55183e-05
5.17155e-05
4.8239e-05
4.56225e-05
4.39453e-05
4.30447e-05
4.27234e-05
4.28342e-05
4.32687e-05
4.39415e-05
4.4792e-05
4.57828e-05
4.6894e-05
4.81185e-05
4.94582e-05
5.09179e-05
5.25e-05
5.42006e-05
5.60076e-05
5.79007e-05
5.98538e-05
6.18376e-05
6.38218e-05
6.57776e-05
6.76791e-05
6.95039e-05
7.12332e-05
7.28521e-05
7.43489e-05
7.57151e-05
7.69451e-05
7.80363e-05
7.90216e-05
7.97808e-05
8.03391e-05
8.09257e-05
8.13549e-05
8.163e-05
8.17792e-05
8.18125e-05
8.17361e-05
8.15543e-05
8.12694e-05
8.08813e-05
8.03863e-05
7.97771e-05
7.90415e-05
7.81625e-05
7.71176e-05
7.588e-05
7.44194e-05
7.27048e-05
7.071e-05
6.84204e-05
6.58437e-05
6.30226e-05
6.00465e-05
5.70563e-05
5.42338e-05
5.17667e-05
4.97936e-05
4.83425e-05
4.72946e-05
4.63889e-05
4.42791e-05
4.12922e-05
3.87671e-05
3.37513e-05
2.87121e-05
2.35172e-05
1.91115e-05
1.57971e-05
1.30207e-05
8.77129e-07
8.35757e-07
2.3337e-05
4.43024e-05
5.47391e-05
5.88016e-05
5.82918e-05
5.53371e-05
5.1578e-05
4.81327e-05
4.55619e-05
4.3948e-05
4.31187e-05
4.28697e-05
4.305e-05
4.35485e-05
4.42813e-05
4.51907e-05
4.62432e-05
4.74227e-05
4.87256e-05
5.01555e-05
5.17167e-05
5.34088e-05
5.52234e-05
5.71434e-05
5.91438e-05
6.11948e-05
6.32645e-05
6.53215e-05
6.73366e-05
6.92844e-05
7.11432e-05
7.28952e-05
7.45263e-05
7.60257e-05
7.73855e-05
7.86003e-05
7.96663e-05
8.06128e-05
8.13874e-05
8.18976e-05
8.24173e-05
8.2814e-05
8.30528e-05
8.31666e-05
8.31687e-05
8.30681e-05
8.28714e-05
8.25834e-05
8.22063e-05
8.17388e-05
8.11755e-05
8.05058e-05
7.97136e-05
7.87765e-05
7.76657e-05
7.6347e-05
7.47823e-05
7.29338e-05
7.07702e-05
6.82774e-05
6.54719e-05
6.2417e-05
5.92355e-05
5.61101e-05
5.32589e-05
5.08799e-05
4.90748e-05
4.77839e-05
4.67668e-05
4.52731e-05
4.22678e-05
4.01596e-05
3.58241e-05
2.98457e-05
2.45809e-05
1.93525e-05
1.55395e-05
1.31721e-05
9.06235e-07
8.15297e-07
2.287e-05
4.3497e-05
5.40417e-05
5.83063e-05
5.79609e-05
5.51275e-05
5.14399e-05
4.80405e-05
4.55178e-05
4.39632e-05
4.32001e-05
4.30186e-05
4.32634e-05
4.3822e-05
4.46115e-05
4.55778e-05
4.66906e-05
4.79376e-05
4.9318e-05
5.08359e-05
5.24942e-05
5.42891e-05
5.62077e-05
5.82281e-05
6.03214e-05
6.2455e-05
6.45952e-05
6.67102e-05
6.87709e-05
7.07526e-05
7.26342e-05
7.4399e-05
7.60336e-05
7.75279e-05
7.88745e-05
8.00688e-05
8.11085e-05
8.20047e-05
8.27727e-05
8.32522e-05
8.36954e-05
8.4051e-05
8.42475e-05
8.43199e-05
8.42846e-05
8.41531e-05
8.39345e-05
8.36361e-05
8.32624e-05
8.28147e-05
8.22897e-05
8.16791e-05
8.09683e-05
8.01358e-05
7.91527e-05
7.79824e-05
7.6582e-05
7.49049e-05
7.29057e-05
7.05499e-05
6.78278e-05
6.47722e-05
6.14784e-05
5.81158e-05
5.49176e-05
5.21342e-05
4.99526e-05
4.84061e-05
4.73206e-05
4.63138e-05
4.35476e-05
4.11193e-05
3.77321e-05
3.11537e-05
2.55843e-05
1.9594e-05
1.57908e-05
1.31744e-05
9.10963e-07
7.91119e-07
2.23578e-05
4.2603e-05
5.3262e-05
5.77295e-05
5.75765e-05
5.48951e-05
5.13039e-05
4.79634e-05
4.549e-05
4.399e-05
4.32878e-05
4.31688e-05
4.34734e-05
4.40878e-05
4.49309e-05
4.59514e-05
4.71225e-05
4.84348e-05
4.98895e-05
5.14907e-05
5.32391e-05
5.51272e-05
5.71377e-05
5.92447e-05
6.14163e-05
6.36176e-05
6.58141e-05
6.79737e-05
7.00681e-05
7.2073e-05
7.39684e-05
7.5738e-05
7.73692e-05
7.88523e-05
8.01807e-05
8.13501e-05
8.2359e-05
8.32087e-05
8.39376e-05
8.44049e-05
8.47681e-05
8.5076e-05
8.52256e-05
8.52523e-05
8.5175e-05
8.50075e-05
8.47614e-05
8.44464e-05
8.40693e-05
8.3634e-05
8.31396e-05
8.25802e-05
8.19433e-05
8.12093e-05
8.03499e-05
7.93282e-05
7.80983e-05
7.66075e-05
7.47994e-05
7.26221e-05
7.00407e-05
6.70565e-05
6.37308e-05
6.02064e-05
5.67126e-05