/*--------------------------------*- C++ -*----------------------------------*\
  =========                 |
  \\      /  F ield         | OpenFOAM: The Open Source CFD Toolbox
   \\    /   O peration     | Website:  https://openfoam.org
    \\  /    A nd           | Version:  13
     \\/     M anipulation  |
\*---------------------------------------------------------------------------*/
FoamFile
{
    format      ascii;
    class       volScalarField;
    location    "4.4";
    object      p;
}
// * * * * * * * * * * * * * * * * * * * * * * * * * * * * * * * * * * * * * //

dimensions      [0 2 -2 0 0 0 0];

internalField   nonuniform List<scalar> 
6400
(
8.09135e-09
1.69253e-05
2.37956e-05
9.7545e-06
-2.97356e-05
-9.06005e-05
-0.000164775
-0.000244554
-0.00032433
-0.000401521
-0.000476398
-0.000552055
-0.000632662
-0.000722519
-0.000825994
-0.000946726
-0.00108752
-0.00125004
-0.00143574
-0.00164559
-0.00188004
-0.00213974
-0.00242683
-0.00274481
-0.0030989
-0.00349383
-0.00392764
-0.00439331
-0.00487725
-0.00535189
-0.00580343
-0.00623309
-0.00663995
-0.00702051
-0.00737038
-0.00768326
-0.00795074
-0.00816276
-0.00830825
-0.00837589
-0.00835452
-0.00823353
-0.0080039
-0.00765938
-0.00719729
-0.0066164
-0.00590849
-0.0050651
-0.00410569
-0.00304559
-0.00189093
-0.000661348
0.000622705
0.0019332
0.00323884
0.00450105
0.00567648
0.00672273
0.0076
0.00827137
0.00870961
0.00890072
0.00884663
0.00856502
0.00808379
0.00746321
0.00675782
0.00602992
0.00533869
0.00472471
0.00422262
0.00385631
0.00360944
0.00345527
0.00337848
0.0033553
0.00336578
0.00339376
0.00342806
0.00345394
-1.2906e-05
4.34896e-06
7.57037e-06
-1.05473e-05
-5.23826e-05
-0.000113223
-0.000184253
-0.00025816
-0.000330549
-0.000400158
-0.000468131
-0.000537664
-0.000613014
-0.000698101
-0.000796278
-0.000910715
-0.00104456
-0.00120031
-0.00137876
-0.00158055
-0.00180521
-0.00205244
-0.0023243
-0.00262349
-0.00295236
-0.00331568
-0.00372044
-0.00416779
-0.00464939
-0.00514787
-0.00563892
-0.00610727
-0.00655009
-0.00696487
-0.00734667
-0.0076888
-0.00798273
-0.00821869
-0.00838603
-0.00847417
-0.00847294
-0.00837275
-0.00816556
-0.00784529
-0.00740758
-0.00684877
-0.00616571
-0.00536382
-0.00445052
-0.00342798
-0.00231308
-0.00112246
0.000121692
0.00139273
0.00265867
0.003883
0.00502696
0.00605024
0.00691367
0.0075834
0.00803241
0.00824637
0.00822618
0.00798876
0.00756511
0.00700218
0.0063583
0.00569098
0.00505552
0.00449851
0.00404996
0.00372115
0.00351007
0.00339632
0.00335731
0.00337003
0.00340311
0.00343686
0.00346704
0.00349176
-2.59486e-05
-6.7894e-06
-8.08802e-06
-3.36422e-05
-8.21023e-05
-0.000145288
-0.000213518
-0.000279629
-0.000340809
-0.000398315
-0.000454808
-0.00051421
-0.000580841
-0.000658032
-0.000748071
-0.000852757
-0.00097364
-0.00111284
-0.00127247
-0.00145487
-0.00166297
-0.00189971
-0.00216839
-0.0024732
-0.00281805
-0.0032051
-0.00363531
-0.0041066
-0.00461159
-0.00513703
-0.00566563
-0.00618147
-0.00667333
-0.00713367
-0.0075561
-0.00793337
-0.00825711
-0.00851837
-0.00870786
-0.008816
-0.00883372
-0.00875295
-0.00856666
-0.00826923
-0.0078568
-0.00732714
-0.00667802
-0.00590926
-0.00503157
-0.0040503
-0.00297745
-0.00182878
-0.000624982
0.00060863
0.00184223
0.0030419
0.00417069
0.00518853
0.00605745
0.00674428
0.00722263
0.00747664
0.00750554
0.00732487
0.00696434
0.00646848
0.00589042
0.00528618
0.00471039
0.00420527
0.0037976
0.00351336
0.00334741
0.00327908
0.00327696
0.003319
0.00337751
0.00343055
0.00347515
0.00351036
-3.19373e-05
-1.32023e-05
-2.07077e-05
-5.56126e-05
-0.000112765
-0.00017908
-0.00024467
-0.0003037
-0.000354632
-0.000398692
-0.000440864
-0.000486564
-0.000540447
-0.00060586
-0.000684673
-0.000777873
-0.000886776
-0.00101379
-0.00116228
-0.00133689
-0.00154338
-0.00178804
-0.00207793
-0.00241605
-0.00280445
-0.00324465
-0.00373436
-0.00426616
-0.00482772
-0.00540439
-0.00598124
-0.00654424
-0.00708081
-0.00758131
-0.00803808
-0.00844327
-0.00878928
-0.00906823
-0.00927168
-0.00939143
-0.00941979
-0.00935003
-0.00917602
-0.00889248
-0.00849597
-0.00798547
-0.00735954
-0.00661953
-0.00577085
-0.00481963
-0.00377591
-0.00265429
-0.00147431
-0.000259495
0.000962893
0.00216127
0.00329929
0.00433758
0.00523846
0.00596708
0.00649606
0.00680696
0.00689539
0.00677479
0.00647373
0.00603324
0.00550459
0.004944
0.00440463
0.00393169
0.00355373
0.00329006
0.00314074
0.00309343
0.00312626
0.00320057
0.00328762
0.00336849
0.00343541
0.00348193
-2.49122e-05
-1.17828e-05
-2.78446e-05
-7.26051e-05
-0.000138249
-0.000207551
-0.000270529
-0.000322434
-0.000363056
-0.000395372
-0.000425143
-0.000458547
-0.000500618
-0.000554711
-0.00062298
-0.000707321
-0.000810548
-0.000937319
-0.00109355
-0.00128627
-0.00152431
-0.00181249
-0.00215525
-0.00255672
-0.00301754
-0.00353399
-0.00409767
-0.004697
-0.00531736
-0.00594376
-0.00656203
-0.00716017
-0.00772775
-0.00825523
-0.00873423
-0.00915708
-0.00951689
-0.00980626
-0.0100173
-0.0101432
-0.0101781
-0.0101164
-0.00995297
-0.00968274
-0.00930193
-0.00881235
-0.00821099
-0.00749897
-0.00667981
-0.00575815
-0.00474226
-0.00364571
-0.00248678
-0.00128681
-6.92145e-05
0.00113741
0.00229673
0.00336922
0.0043192
0.00511079
0.00571359
0.00610687
0.00628018
0.00624065
0.00601436
0.00564186
0.00517156
0.00465658
0.00415179
0.00370383
0.00334418
0.0030933
0.00295316
0.00291342
0.00295386
0.00304406
0.00315218
0.00325652
0.003343
0.00339719
2.65056e-06
4.63431e-06
-2.20801e-05
-7.86434e-05
-0.000151882
-0.000222727
-0.000282756
-0.00032852
-0.000360522
-0.000383598
-0.000404357
-0.000429407
-0.000463994
-0.000512028
-0.000576925
-0.000662709
-0.000775173
-0.000921567
-0.00111107
-0.00135135
-0.00164845
-0.0020087
-0.00243491
-0.00292543
-0.00347346
-0.0040694
-0.00470174
-0.00535873
-0.00602731
-0.00669383
-0.00734541
-0.00797072
-0.0085603
-0.00910565
-0.00959887
-0.0100326
-0.0104006
-0.0106959
-0.010911
-0.0110412
-0.0110826
-0.0110305
-0.0108806
-0.0106292
-0.010274
-0.00981191
-0.00924274
-0.00856725
-0.00778769
-0.00690718
-0.00593222
-0.00487271
-0.00374452
-0.00256574
-0.00135551
-0.000141174
0.00104026
0.00215207
0.00316271
0.00403399
0.00473182
0.00523407
0.00552393
0.00560202
0.00548451
0.00521003
0.00482541
0.00438071
0.00392853
0.00351707
0.00318175
0.00294405
0.00280951
0.00277036
0.00280846
0.0028978
0.00300984
0.00312053
0.00321371
0.00326975
5.96e-05
4.68981e-05
6.48986e-06
-6.4845e-05
-0.00014327
-0.000214884
-0.000272415
-0.000313606
-0.000340681
-0.000359417
-0.000377023
-0.000400426
-0.000435511
-0.000487622
-0.00056246
-0.0006669
-0.000809884
-0.0010018
-0.00125027
-0.00156349
-0.00194703
-0.0024035
-0.00292703
-0.00350805
-0.00413741
-0.00480495
-0.00549838
-0.00620557
-0.00691446
-0.00761311
-0.00829022
-0.00893565
-0.0095408
-0.0100979
-0.0105993
-0.0110374
-0.011407
-0.0117025
-0.0119201
-0.0120573
-0.0121092
-0.012071
-0.0119391
-0.0117111
-0.0113855
-0.0109581
-0.0104283
-0.00979692
-0.00906487
-0.00823646
-0.00731845
-0.00631784
-0.00524258
-0.00410468
-0.00292398
-0.00172496
-0.000533466
0.000619886
0.00169964
0.00266156
0.00347379
0.00411108
0.00454874
0.00478292
0.00481894
0.004685
0.00442399
0.00408329
0.00371292
0.00336071
0.00306439
0.00284814
0.00272114
0.00267923
0.00270849
0.00278578
0.00288685
0.00298808
0.00307319
0.00312277
0.000154606
0.000124142
6.54184e-05
-1.87335e-05
-0.000102302
-0.000175315
-0.000232014
-0.000272097
-0.000299363
-0.000320493
-0.000343177
-0.000374842
-0.000422604
-0.00049405
-0.000597385
-0.000742699
-0.000941395
-0.00120313
-0.00153593
-0.00194646
-0.00243287
-0.00298844
-0.00360454
-0.00427043
-0.00497474
-0.00570572
-0.00645148
-0.00720073
-0.00794235
-0.0086658
-0.00936128
-0.0100199
-0.0106335
-0.0111943
-0.0116951
-0.0121319
-0.0125008
-0.0127982
-0.0130228
-0.01317
-0.0132334
-0.0132098
-0.0130962
-0.0128907
-0.0125918
-0.0121985
-0.01171
-0.0111265
-0.0104497
-0.00968347
-0.00883277
-0.00790285
-0.00689651
-0.00582147
-0.00469449
-0.00353463
-0.00236156
-0.00119575
-7.47102e-05
0.000971987
0.00191341
0.00270222
0.00331475
0.00373955
0.00397149
0.00402359
0.00393028
0.00373357
0.00347955
0.0032146
0.00297832
0.00279761
0.00268557
0.00264236
0.0026582
0.0027158
0.00279583
0.0028765
0.00293997
0.00297455
0.000292084
0.000243537
0.000163305
6.68159e-05
-2.28101e-05
-9.84646e-05
-0.000157365
-0.000201223
-0.000235446
-0.000267638
-0.000306047
-0.000358982
-0.000435366
-0.000545029
-0.000699128
-0.000909325
-0.00118768
-0.00154333
-0.00198027
-0.00249627
-0.00308513
-0.00373693
-0.0044402
-0.00518237
-0.0059517
-0.0067364
-0.0075254
-0.00830822
-0.00907473
-0.00981556
-0.010522
-0.0111861
-0.0117998
-0.0123572
-0.0128558
-0.013294
-0.0136667
-0.0139687
-0.014196
-0.0143448
-0.0144131
-0.0143993
-0.0143016
-0.0141187
-0.0138496
-0.0134929
-0.013049
-0.0125178
-0.0119001
-0.0111977
-0.010413
-0.00954891
-0.00861142
-0.00760903
-0.00655271
-0.00545564
-0.00432947
-0.00318626
-0.0020515
-0.000949439
8.31292e-05
0.00101278
0.00181606
0.00245187
0.00291093
0.00319059
0.00330929
0.00329842
0.00319894
0.00305295
0.00290053
0.00277285
0.00268713
0.00264852
0.00265158
0.00268566
0.00273632
0.0027884
0.0028222
0.00283838
0.0004778
0.000409231
0.000304852
0.000195044
9.73718e-05
1.6581e-05
-4.86034e-05
-0.000102421
-0.000151934
-0.000205678
-0.000272635
-0.000362335
-0.000485677
-0.000654913
-0.000882264
-0.00118019
-0.00155949
-0.00202368
-0.00256996
-0.0031923
-0.00388037
-0.00462097
-0.00540175
-0.00621007
-0.00703438
-0.00786334
-0.00868666
-0.00949456
-0.010278
-0.0110285
-0.0117386
-0.0124015
-0.0130125
-0.0135675
-0.0140626
-0.0144933
-0.0148559
-0.0151489
-0.0153702
-0.0155171
-0.0155884
-0.0155829
-0.0154996
-0.0153379
-0.0150971
-0.0147764
-0.014376
-0.0138962
-0.0133377
-0.0127017
-0.0119893
-0.0112023
-0.0103442
-0.00942
-0.00843579
-0.00739836
-0.00631785
-0.00521438
-0.00410214
-0.00299331
-0.00190749
-0.000869847
8.54789e-05
0.000926973
0.00162416
0.00215651
0.00252584
0.00274333
0.00283779
0.00284606
0.00280471
0.00274879
0.00270226
0.00267617
0.00267087
0.00268117
0.00270032
0.00271734
0.00272019
0.00271881
0.000713687
0.000619951
0.000490766
0.000363091
0.000255644
0.000166091
8.93344e-05
1.8109e-05
-5.64119e-05
-0.000143737
-0.000253688
-0.000397337
-0.000587391
-0.000836989
-0.00115827
-0.00156217
-0.0020538
-0.0026313
-0.0032875
-0.00401152
-0.0047902
-0.00561
-0.00645818
-0.00732248
-0.00819168
-0.00905509
-0.0099031
-0.0107268
-0.0115182
-0.0122701
-0.0129762
-0.0136313
-0.0142317
-0.0147736
-0.0152542
-0.0156703
-0.0160198
-0.0163018
-0.0165149
-0.0166579
-0.0167299
-0.0167303
-0.0166586
-0.0165147
-0.0162982
-0.016009
-0.0156474
-0.015214
-0.0147093
-0.0141343
-0.01349
-0.0127776
-0.0119991
-0.0111573
-0.010255
-0.0092953
-0.00828342
-0.00722835
-0.00614029
-0.00503615
-0.00393542
-0.00284649
-0.00178647
-0.000783684
0.000124235
0.00091155
0.0015491
0.00202973
0.00235832
0.00255896
0.00266176
0.00270001
0.00270649
0.00270128
0.0026931
0.00268267
0.00267081
0.00265246
0.00262712
0.00261032
0.000989411
0.00087057
0.000710932
0.000562853
0.000442897
0.00034095
0.000246537
0.000149464
3.92099e-05
-9.46071e-05
-0.000262897
-0.00047791
-0.000753157
-0.00110115
-0.00153209
-0.00205209
-0.00266077
-0.00335087
-0.00411101
-0.00492802
-0.00578749
-0.00667604
-0.00758096
-0.00849043
-0.00939368
-0.0102808
-0.0111429
-0.0119722
-0.0127619
-0.0135061
-0.0141999
-0.0148395
-0.015422
-0.015945
-0.0164064
-0.0168046
-0.0171384
-0.0174072
-0.0176104
-0.0177474
-0.0178179
-0.0178216
-0.0177587
-0.0176292
-0.0174332
-0.0171711
-0.0168432
-0.0164504
-0.0159932
-0.0154726
-0.0148892
-0.0142441
-0.0135385
-0.0127735
-0.0119506
-0.0110711
-0.0101372
-0.00915164
-0.00811827
-0.00704372
-0.00593799
-0.00481695
-0.00370104
-0.00259781
-0.00152826
-0.000524466
0.000370675
0.00112585
0.00171999
0.00215131
0.00243654
0.00260033
0.00267767
0.00270287
0.00269613
0.00266926
0.00263011
0.0025808
0.00253273
0.00250358
0.00129292
0.00114766
0.000953658
0.000782743
0.000647151
0.000527859
0.000408864
0.000276894
0.000119849
-7.35121e-05
-0.000314673
-0.000616787
-0.000992544
-0.00145209
-0.00200166
-0.00264172
-0.00336588
-0.00416245
-0.00501786
-0.00591755
-0.00684701
-0.00779302
-0.00874316
-0.00968617
-0.0106119
-0.0115115
-0.012377
-0.0132021
-0.0139812
-0.0147098
-0.0153847
-0.0160032
-0.0165635
-0.017064
-0.0175038
-0.0178821
-0.0181985
-0.0184528
-0.0186449
-0.0187747
-0.0188421
-0.0188475
-0.018791
-0.0186732
-0.0184944
-0.0182551
-0.0179562
-0.0175982
-0.0171821
-0.0167087
-0.0161787
-0.0155929
-0.0149519
-0.0142561
-0.0135059
-0.0127013
-0.0118425
-0.0109295
-0.00996272
-0.00894301
-0.00787208
-0.00675477
-0.00560196
-0.00443258
-0.00325994
-0.00209998
-0.000989692
2.07774e-05
0.000890236
0.00158337
0.0020894
0.00241871
0.00259643
0.00266549
0.00266665
0.00262653
0.00256433
0.00249004
0.00242581
0.00238889
0.0016088
0.00143469
0.00120438
0.00100693
0.00085196
0.000709973
0.000559188
0.000383309
0.000168862
-9.56343e-05
-0.000422655
-0.000824703
-0.00131187
-0.00189065
-0.0025616
-0.00331925
-0.00415234
-0.00504641
-0.00598651
-0.00695752
-0.00794518
-0.00893656
-0.00991978
-0.0108844
-0.0118212
-0.0127224
-0.0135818
-0.0143941
-0.0151555
-0.0158629
-0.0165143
-0.0171082
-0.0176437
-0.0181202
-0.0185375
-0.0188955
-0.0191942
-0.0194338
-0.0196145
-0.0197367
-0.0198006
-0.0198065
-0.019755
-0.0196467
-0.0194823
-0.0192623
-0.0189878
-0.0186595
-0.0182784
-0.0178453
-0.017361
-0.0168261
-0.0162411
-0.015606
-0.0149204
-0.0141836
-0.0133942
-0.0125506
-0.0116508
-0.0106926
-0.0096738
-0.00859352
-0.00745264
-0.00625578
-0.00501435
-0.00375339
-0.0024904
-0.00126854
-0.000145085
0.000821525
0.00158204
0.00211762
0.00243752
0.00257772
0.00259781
0.00254873
0.00246597
0.00237108
0.00229614
0.00225395
0.00191583
0.00171175
0.00144208
0.00121646
0.00103855
0.000868501
0.00067883
0.000450675
0.000169876
-0.00017596
-0.000599319
-0.00111005
-0.00171482
-0.00241428
-0.00320332
-0.00407142
-0.00500375
-0.00598421
-0.00699704
-0.00802704
-0.00906039
-0.0100847
-0.0110888
-0.0120635
-0.0130008
-0.0138945
-0.0147398
-0.015533
-0.0162717
-0.0169542
-0.0175796
-0.0181473
-0.0186574
-0.01911
-0.0195052
-0.0198435
-0.0201254
-0.0203511
-0.0205211
-0.020636
-0.0206964
-0.0207025
-0.020655
-0.0205547
-0.0204024
-0.0201988
-0.0199448
-0.0196415
-0.0192897
-0.0188906
-0.0184447
-0.0179529
-0.0174154
-0.0168322
-0.0162025
-0.0155252
-0.0147981
-0.0140186
-0.0131829
-0.0122867
-0.0113254
-0.0102944
-0.00918966
-0.00800902
-0.00675387
-0.00543448
-0.00407352
-0.00270109
-0.00136942
-0.000149527
0.00088009
0.00165907
0.00216618
0.00242072
0.00248352
0.00243512
0.00233372
0.00222045
0.00213663
0.00208794
0.00219052
0.00195685
0.00164746
0.00139181
0.00118735
0.000983675
0.00074854
0.00046151
0.000107086
-0.0003285
-0.000854784
-0.00147847
-0.0022008
-0.00301677
-0.00391628
-0.0048845
-0.00590428
-0.00695855
-0.00803118
-0.00910728
-0.0101736
-0.0112186
-0.0122323
-0.0132068
-0.0141358
-0.0150146
-0.01584
-0.0166098
-0.0173229
-0.0179788
-0.0185774
-0.0191192
-0.0196046
-0.0200343
-0.0204089
-0.0207291
-0.0209955
-0.0212088
-0.0213693
-0.0214779
-0.0215351
-0.0215414
-0.0214975
-0.0214042
-0.0212622
-0.0210724
-0.0208358
-0.0205535
-0.0202264
-0.0198555
-0.0194417
-0.0189857
-0.0184879
-0.0179481
-0.0173658
-0.0167394
-0.0160666
-0.0153441
-0.0145675
-0.0137311
-0.0128286
-0.0118526
-0.0107959
-0.00965181
-0.00841652
-0.00709053
-0.005683
-0.00421787
-0.00273867
-0.00131277
-3.03241e-05
0.00101264
0.00174858
0.00216782
0.00231436
0.00228334
0.00216991
0.00203887
0.0019426
0.00188348
0.00241549
0.00214908
0.00180051
0.00151358
0.00127888
0.00103657
0.00075139
0.000400749
-3.38586e-05
-0.000563663
-0.00119496
-0.00193038
-0.00276524
-0.00368969
-0.00468888
-0.00574481
-0.00683887
-0.00795351
-0.00907265
-0.0101819
-0.011269
-0.0123234
-0.0133367
-0.0143026
-0.0152164
-0.0160751
-0.0168768
-0.0176209
-0.0183073
-0.0189364
-0.019509
-0.020026
-0.0204884
-0.0208972
-0.0212532
-0.0215573
-0.0218102
-0.0220126
-0.0221652
-0.0222686
-0.0223234
-0.0223301
-0.0222895
-0.0222024
-0.0220694
-0.0218915
-0.0216697
-0.0214051
-0.0210985
-0.0207511
-0.0203639
-0.0199374
-0.0194723
-0.0189685
-0.0184255
-0.0178418
-0.0172151
-0.0165421
-0.015818
-0.0150367
-0.0141908
-0.0132716
-0.0122694
-0.0111745
-0.00997845
-0.00867565
-0.00726634
-0.00576227
-0.0041952
-0.0026235
-0.00113398
0.000164913
0.00116093
0.00179015
0.0020705
0.00209058
0.00197627
0.0018269
0.00170922
0.00163552
0.0025604
0.00226746
0.0018824
0.00156377
0.00129582
0.00101181
0.000673569
0.000254699
-0.000262371
-0.000886246
-0.00162075
-0.0024622
-0.00340126
-0.00442315
-0.00550914
-0.00663907
-0.00779354
-0.00895487
-0.0101074
-0.0112375
-0.0123341
-0.0133881
-0.0143929
-0.0153436
-0.0162373
-0.0170725
-0.0178488
-0.0185664
-0.0192263
-0.0198297
-0.0203779
-0.0208721
-0.0213137
-0.0217039
-0.0220436
-0.0223338
-0.0225753
-0.0227687
-0.0229148
-0.0230142
-0.0230673
-0.0230749
-0.0230376
-0.022956
-0.022831
-0.0226635
-0.0224544
-0.0222047
-0.0219154
-0.0215876
-0.0212223
-0.0208201
-0.0203818
-0.0199074
-0.0193966
-0.0188481
-0.01826
-0.017629
-0.0169504
-0.0162181
-0.0154245
-0.01456
-0.0136141
-0.0125748
-0.0114305
-0.010171
-0.00878993
-0.00728894
-0.00568595
-0.00402599
-0.00238818
-0.000874311
0.0003827
0.00126341
0.00173026
0.0018443
0.00174797
0.00158169
0.00143224
0.00134254
0.00261375
0.00229679
0.00187831
0.00152809
0.00122508
0.000898074
0.000504466
1.59374e-05
-0.000582376
-0.00129756
-0.00212895
-0.00306795
-0.00410013
-0.00520636
-0.00636505
-0.00755472
-0.00875561
-0.00995029
-0.0111238
-0.0122636
-0.01336
-0.0144056
-0.0153954
-0.0163263
-0.0171968
-0.0180069
-0.0187572
-0.0194489
-0.0200836
-0.0206631
-0.0211889
-0.0216628
-0.0220861
-0.0224601
-0.0227859
-0.0230644
-0.0232964
-0.0234826
-0.0236236
-0.02372
-0.0237723
-0.0237811
-0.023747
-0.0236707
-0.023553
-0.0233946
-0.0231964
-0.0229595
-0.0226849
-0.0223734
-0.0220262
-0.0216441
-0.0212276
-0.0207772
-0.0202926
-0.0197729
-0.0192164
-0.0186203
-0.0179803
-0.0172907
-0.0165439
-0.0157304
-0.0148391
-0.0138571
-0.0127706
-0.0115664
-0.0102335
-0.00876578
-0.00716818
-0.00546928
-0.00373897
-0.00206842
-0.000581523
0.000563935
0.00126228
0.00152331
0.00147652
0.00129717
0.00110867
0.00100293
0.00256236
0.00222533
0.00177752
0.00139699
0.00105912
0.000687696
0.000237464
-0.000317876
-0.000993546
-0.00179431
-0.00271402
-0.00373954
-0.00485179
-0.00602812
-0.00724498
-0.00848016
-0.00971395
-0.0109295
-0.0121127
-0.0132525
-0.0143407
-0.0153716
-0.0163418
-0.0172499
-0.0180958
-0.0188803
-0.0196052
-0.0202722
-0.0208836
-0.0214414
-0.0219474
-0.0224034
-0.0228108
-0.0231711
-0.0234852
-0.023754
-0.0239784
-0.0241588
-0.024296
-0.0243905
-0.0244426
-0.0244529
-0.0244221
-0.0243508
-0.0242396
-0.0240894
-0.0239008
-0.023675
-0.0234128
-0.0231152
-0.0227831
-0.0224175
-0.0220191
-0.0215881
-0.0211248
-0.0206285
-0.0200978
-0.0195303
-0.0189226
-0.0182692
-0.0175633
-0.0167959
-0.0159557
-0.0150297
-0.014003
-0.0128602
-0.0115872
-0.0101729
-0.00861216
-0.00691549
-0.0051336
-0.00336708
-0.0017068
-0.000312825
0.000647951
0.00110585
0.00114519
0.000964872
0.000737405
0.000616887
0.00239836
0.00204608
0.00157406
0.00116554
0.000793141
0.000377695
-0.000126559
-0.00074517
-0.0014928
-0.00237039
-0.00336775
-0.00446707
-0.00564532
-0.0068772
-0.00813789
-0.00940496
-0.0106591
-0.0118841
-0.0130673
-0.014199
-0.0152727
-0.0162843
-0.0172321
-0.0181158
-0.0189366
-0.0196961
-0.0203968
-0.0210411
-0.0216313
-0.0221697
-0.0226582
-0.0230988
-0.0234928
-0.0238415
-0.0241459
-0.0244069
-0.0246251
-0.0248012
-0.0249356
-0.0250289
-0.0250813
-0.0250935
-0.025066
-0.0249994
-0.0248943
-0.0247513
-0.0245713
-0.0243551
-0.0241037
-0.0238179
-0.0234986
-0.0231469
-0.0227633
-0.0223484
-0.0219024
-0.021425
-0.0209153
-0.0203713
-0.01979
-0.0191671
-0.0184963
-0.0177693
-0.0169756
-0.0161023
-0.0151343
-0.0140549
-0.0128476
-0.0114979
-0.00999439
-0.00833445
-0.00654263
-0.00471964
-0.00294691
-0.00135226
-0.000132507
0.00056136
0.000736777
0.000578288
0.000321331
0.000185383
0.0021196
0.00175728
0.00126684
0.000833421
0.000427659
-3.0021e-05
-0.00058408
-0.00126031
-0.00207225
-0.00301682
-0.00407988
-0.00523951
-0.00646949
-0.00774267
-0.00903359
-0.0103199
-0.011583
-0.0128078
-0.0139829
-0.0151002
-0.0161547
-0.0171439
-0.0180675
-0.0189264
-0.0197224
-0.0204582
-0.0211365
-0.02176
-0.0223312
-0.0228526
-0.023326
-0.0237534
-0.024136
-0.0244751
-0.0247715
-0.0250262
-0.0252396
-0.0254124
-0.0255449
-0.0256376
-0.0256909
-0.0257052
-0.025681
-0.0256188
-0.0255192
-0.0253828
-0.0252104
-0.0250027
-0.0247607
-0.0244851
-0.0241768
-0.0238367
-0.0234656
-0.0230641
-0.0226324
-0.0221705
-0.0216779
-0.021153
-0.0205936
-0.019996
-0.0193548
-0.0186629
-0.0179104
-0.0170854
-0.016173
-0.0151562
-0.0140167
-0.0127376
-0.0113043
-0.00970516
-0.00794374
-0.00608308
-0.00425446
-0.00252266
-0.00107511
-0.000126931
0.000231538
0.000123901
-0.000139168
-0.000295609
0.00172898
0.00136207
0.00085911
0.000404113
-3.25624e-05
-0.000528517
-0.00112743
-0.00185499
-0.00272209
-0.0037227
-0.00483889
-0.00604524
-0.00731313
-0.00861424
-0.00992291
-0.0112173
-0.0124796
-0.0136959
-0.0148564
-0.0159544
-0.0169865
-0.0179516
-0.0188503
-0.0196846
-0.020457
-0.0211706
-0.0218283
-0.0224331
-0.0229876
-0.0234941
-0.0239545
-0.0243706
-0.0247437
-0.0250748
-0.0253648
-0.0256143
-0.0258241
-0.0259944
-0.0261257
-0.0262184
-0.0262727
-0.0262892
-0.0262682
-0.0262102
-0.0261158
-0.0259854
-0.0258198
-0.0256198
-0.025386
-0.0251193
-0.0248205
-0.0244905
-0.0241301
-0.0237397
-0.02332
-0.022871
-0.0223924
-0.0218833
-0.021342
-0.0207654
-0.0201492
-0.0194871
-0.0187708
-0.017989
-0.017128
-0.0161708
-0.0150985
-0.0138922
-0.0125353
-0.0110126
-0.0093117
-0.00744685
-0.00558424
-0.00377753
-0.00215442
-0.000961303
-0.000387697
-0.000402031
-0.000649042
-0.000834363
0.00123366
0.000867863
0.000357824
-0.00011479
-0.00057887
-0.00110854
-0.00174657
-0.00251776
-0.0034305
-0.00447588
-0.00563266
-0.00687267
-0.00816556
-0.0094824
-0.0107978
-0.0120905
-0.0133438
-0.0145451
-0.015686
-0.0167614
-0.0177691
-0.0187092
-0.0195832
-0.0203938
-0.0211439
-0.021837
-0.0224761
-0.0230642
-0.0236039
-0.0240975
-0.0245468
-0.0249533
-0.0253184
-0.0256429
-0.0259276
-0.0261731
-0.0263799
-0.0265485
-0.0266791
-0.0267721
-0.0268278
-0.0268465
-0.0268286
-0.0267746
-0.0266849
-0.0265601
-0.0264007
-0.0262074
-0.025981
-0.0257222
-0.0254318
-0.0251106
-0.0247593
-0.0243786
-0.023969
-0.0235308
-0.0230641
-0.0225681
-0.0220417
-0.0214827
-0.0208875
-0.020251
-0.0195659
-0.0188225
-0.0180079
-0.0171062
-0.0160986
-0.0149644
-0.0136851
-0.012244
-0.0106215
-0.00881098
-0.00691217
-0.00507627
-0.00334244
-0.00194142
-0.00113902
-0.00100441
-0.00121871
-0.00144281
0.000644765
0.00028524
-0.000226297
-0.000712223
-0.00119933
-0.00175788
-0.00242917
-0.00323598
-0.00418462
-0.00526362
-0.00644903
-0.00771056
-0.00901679
-0.0103386
-0.0116512
-0.0129341
-0.0141719
-0.0153532
-0.0164711
-0.0175217
-0.018504
-0.019419
-0.0202689
-0.0210569
-0.0217864
-0.0224607
-0.023083
-0.0236563
-0.0241831
-0.0246655
-0.0251052
-0.0255036
-0.0258619
-0.0261809
-0.0264613
-0.0267036
-0.0269082
-0.0270755
-0.0272059
-0.0272994
-0.0273565
-0.0273774
-0.0273626
-0.0273123
-0.027227
-0.0271072
-0.0269535
-0.0267664
-0.0265466
-0.0262948
-0.0260118
-0.0256983
-0.0253551
-0.0249828
-0.024582
-0.0241532
-0.0236965
-0.0232117
-0.022698
-0.0221537
-0.0215763
-0.0209616
-0.0203036
-0.0195937
-0.0188206
-0.0179697
-0.0170228
-0.0159591
-0.0147574
-0.0133998
-0.0118665
-0.0101391
-0.00823306
-0.00638684
-0.00460508
-0.00304991
-0.00202989
-0.0017125
-0.00186402
-0.00213753
-2.27921e-05
-0.000372838
-0.000880142
-0.00137501
-0.00188115
-0.00246373
-0.00316162
-0.00399601
-0.00497109
-0.00607316
-0.00727616
-0.00854834
-0.00985773
-0.0111755
-0.0124773
-0.013744
-0.0149612
-0.0161189
-0.0172114
-0.018236
-0.0191927
-0.0200831
-0.02091
-0.0216769
-0.0223872
-0.0230445
-0.0236518
-0.024212
-0.0247274
-0.0252
-0.0256315
-0.026023
-0.0263755
-0.0266899
-0.0269667
-0.0272064
-0.0274094
-0.0275759
-0.0277062
-0.0278005
-0.027859
-0.0278822
-0.0278702
-0.0278234
-0.0277422
-0.0276271
-0.0274785
-0.027297
-0.0270832
-0.0268378
-0.0265614
-0.0262549
-0.0259188
-0.0255539
-0.0251609
-0.0247403
-0.0242924
-0.0238172
-0.0233143
-0.0227828
-0.0222206
-0.0216246
-0.0209899
-0.0203094
-0.0195732
-0.0187681
-0.0178772
-0.0168801
-0.0157544
-0.0144803
-0.0130388
-0.0114032
-0.00955808
-0.00768755
-0.0059041
-0.00425753
-0.00305175
-0.00254555
-0.00260378
-0.00294185
-0.00075295
-0.00109116
-0.00158982
-0.00208973
-0.00261058
-0.00321197
-0.00392992
-0.0047841
-0.0057767
-0.00689219
-0.00810295
-0.00937634
-0.0106803
-0.0119864
-0.0132713
-0.0145168
-0.0157098
-0.0168416
-0.0179074
-0.0189057
-0.019837
-0.0207037
-0.0215089
-0.0222561
-0.0229489
-0.0235907
-0.0241845
-0.0247331
-0.0252385
-0.0257026
-0.0261268
-0.0265124
-0.0268601
-0.0271706
-0.0274445
-0.0276821
-0.0278837
-0.0280496
-0.0281801
-0.0282752
-0.0283353
-0.0283606
-0.0283513
-0.0283078
-0.0282304
-0.0281195
-0.0279756
-0.0277992
-0.0275909
-0.0273513
-0.0270809
-0.0267806
-0.0264511
-0.0260929
-0.0257068
-0.0252935
-0.0248533
-0.0243866
-0.0238933
-0.0233728
-0.0228239
-0.0222441
-0.0216297
-0.0209749
-0.0202713
-0.0195072
-0.0186674
-0.0177323
-0.0166798
-0.0154878
-0.0141368
-0.0126007
-0.0108577
-0.00897352
-0.00721277
-0.00554128
-0.00419911
-0.00350522
-0.00345264
-0.00386782
-0.00152994
-0.00185407
-0.00234055
-0.00284171
-0.0033729
-0.0039879
-0.00471986
-0.00558666
-0.00658872
-0.0077091
-0.00891917
-0.0101859
-0.0114773
-0.0127658
-0.0140291
-0.0152499
-0.0164163
-0.0175207
-0.0185595
-0.0195317
-0.0204385
-0.0212827
-0.0220675
-0.0227965
-0.0234732
-0.0241011
-0.0246828
-0.025221
-0.0257175
-0.0261742
-0.0265922
-0.0269725
-0.027316
-0.0276233
-0.0278947
-0.0281305
-0.0283312
-0.0284967
-0.0286275
-0.0287235
-0.028785
-0.0288123
-0.0288056
-0.0287651
-0.0286912
-0.0285842
-0.0284447
-0.028273
-0.0280697
-0.0278353
-0.0275705
-0.0272759
-0.0269522
-0.0266002
-0.0262204
-0.0258137
-0.0253806
-0.0249215
-0.0244366
-0.0239259
-0.0233886
-0.022823
-0.0222264
-0.0215942
-0.0209194
-0.0201921
-0.0193985
-0.0185207
-0.0175373
-0.0164249
-0.0151643
-0.0137337
-0.0121015
-0.0102483
-0.00850021
-0.00685939
-0.00544251
-0.00458406
-0.00442311
-0.00490921
-0.00233764
-0.00264598
-0.00311722
-0.00361578
-0.00415321
-0.00477713
-0.00551765
-0.00639074
-0.00739525
-0.00851325
-0.0097156
-0.0109692
-0.0122427
-0.0135092
-0.0147474
-0.0159412
-0.0170797
-0.0181564
-0.0191682
-0.0201151
-0.0209985
-0.0218215
-0.0225873
-0.0232996
-0.0239618
-0.0245769
-0.0251478
-0.0256767
-0.0261654
-0.0266155
-0.0270279
-0.0274038
-0.0277436
-0.028048
-0.0283173
-0.0285517
-0.0287516
-0.0289169
-0.029048
-0.0291449
-0.0292079
-0.0292371
-0.0292327
-0.029195
-0.0291243
-0.029021
-0.0288854
-0.028718
-0.0285192
-0.0282897
-0.02803
-0.0277406
-0.0274224
-0.027076
-0.026702
-0.0263014
-0.0258746
-0.0254225
-0.0249453
-0.0244434
-0.0239164
-0.0233635
-0.0227826
-0.0221704
-0.0215211
-0.0208265
-0.0200744
-0.0192489
-0.0183293
-0.0172925
-0.0161182
-0.0147867
-0.0132641
-0.0115211
-0.00976606
-0.00816985
-0.00673301
-0.00575508
-0.00551548
-0.00604538
-0.0031604
-0.00345128
-0.00390475
-0.00439759
-0.00493752
-0.00556614
-0.00631041
-0.00718435
-0.00818545
-0.00929511
-0.0104841
-0.0117197
-0.0129712
-0.0142126
-0.0154236
-0.0165892
-0.0176994
-0.0187485
-0.0197342
-0.0206568
-0.0215181
-0.0223213
-0.0230696
-0.0237665
-0.0244155
-0.0250192
-0.0255804
-0.0261009
-0.0265826
-0.0270268
-0.0274344
-0.0278062
-0.0281429
-0.0284448
-0.0287123
-0.0289455
-0.0291446
-0.0293099
-0.0294413
-0.0295391
-0.0296034
-0.0296344
-0.0296322
-0.0295971
-0.0295294
-0.0294293
-0.0292974
-0.0291339
-0.0289393
-0.0287142
-0.0284591
-0.0281747
-0.0278614
-0.0275202
-0.0271516
-0.0267566
-0.0263358
-0.02589
-0.0254199
-0.024926
-0.0244084
-0.0238667
-0.0232998
-0.0227053
-0.0220787
-0.0214132
-0.0206986
-0.0199204
-0.0190598
-0.0180945
-0.0170018
-0.0157624
-0.0143468
-0.0127325
-0.0109989
-0.00945591
-0.00803337
-0.00698231
-0.00669791
-0.00723021
-0.00398321
-0.00425517
-0.00468889
-0.00517351
-0.00571279
-0.00634248
-0.0070864
-0.00795669
-0.00894973
-0.0100462
-0.0112176
-0.0124317
-0.0136584
-0.0148729
-0.0160556
-0.0171927
-0.0182748
-0.0192971
-0.0202578
-0.0211574
-0.0219982
-0.022783
-0.0235152
-0.0241982
-0.024835
-0.0254285
-0.0259808
-0.0264939
-0.0269693
-0.0274082
-0.0278115
-0.0281798
-0.0285136
-0.0288134
-0.0290792
-0.0293114
-0.02951
-0.0296752
-0.0298071
-0.0299057
-0.0299712
-0.0300038
-0.0300036
-0.0299708
-0.0299058
-0.0298088
-0.0296802
-0.0295203
-0.0293296
-0.0291085
-0.0288577
-0.0285777
-0.0282691
-0.0279327
-0.0275691
-0.0271793
-0.026764
-0.0263242
-0.0258606
-0.025374
-0.0248649
-0.0243334
-0.0237791
-0.0232003
-0.0225938
-0.0219543
-0.0212731
-0.0205378
-0.0197312
-0.0188321
-0.0178174
-0.0166686
-0.0153638
-0.0138728
-0.0121839
-0.0106808
-0.00930916
-0.00822887
-0.00790429
-0.00837818
-0.00479223
-0.00504421
-0.00545677
-0.0059311
-0.00646711
-0.00709484
-0.00783505
-0.00869806
-0.00967969
-0.0107594
-0.01191
-0.0131002
-0.0143007
-0.0154874
-0.0166417
-0.0177505
-0.0188055
-0.0198022
-0.0207393
-0.0216176
-0.0224392
-0.0232071
-0.0239247
-0.024595
-0.0252209
-0.025805
-0.0263494
-0.0268558
-0.0273256
-0.0277598
-0.0281592
-0.0285243
-0.0288557
-0.0291535
-0.0294179
-0.0296492
-0.0298474
-0.0300126
-0.0301448
-0.0302442
-0.0303108
-0.0303448
-0.0303465
-0.0303159
-0.0302533
-0.030159
-0.0300333
-0.0298767
-0.0296895
-0.0294722
-0.0292253
-0.0289493
-0.028645
-0.0283131
-0.0279542
-0.0275692
-0.0271591
-0.0267247
-0.0262671
-0.0257873
-0.025286
-0.0247637
-0.0242207
-0.023656
-0.0230675
-0.0224511
-0.0217998
-0.0211027
-0.0203448
-0.0195061
-0.0185643
-0.0175011
-0.016298
-0.0149219
-0.0133396
-0.0118486
-0.0105267
-0.00945008
-0.00907173
-0.00943322
-0.00557429
-0.00580623
-0.00619681
-0.00665931
-0.00718995
-0.00781329
-0.00854722
-0.00940028
-0.0103677
-0.0114287
-0.0125562
-0.0137214
-0.0148951
-0.0160539
-0.0171803
-0.018262
-0.0192911
-0.0202638
-0.0211789
-0.0220374
-0.0228415
-0.0235941
-0.0242983
-0.0249571
-0.0255732