/*--------------------------------*- C++ -*----------------------------------*\
  =========                 |
  \\      /  F ield         | OpenFOAM: The Open Source CFD Toolbox
   \\    /   O peration     | Website:  https://openfoam.org
    \\  /    A nd           | Version:  13
     \\/     M anipulation  |
\*---------------------------------------------------------------------------*/
FoamFile
{
    format      ascii;
    class       surfaceScalarField;
    location    "4.4";
    object      phi;
}
// * * * * * * * * * * * * * * * * * * * * * * * * * * * * * * * * * * * * * //

dimensions      [0 3 -1 0 0 0 0];

internalField   nonuniform List<scalar> 
12640
(
1.79082e-09
-1.79097e-09
1.41344e-08
-1.23436e-08
3.54151e-08
-2.12807e-08
5.99571e-08
-2.4542e-08
8.22981e-08
-2.2341e-08
9.9296e-08
-1.69979e-08
1.09744e-07
-1.04481e-08
1.14321e-07
-4.57741e-09
1.14924e-07
-6.02162e-10
1.13563e-07
1.36082e-09
1.11926e-07
1.63676e-09
1.11112e-07
8.14081e-10
1.11499e-07
-3.87029e-10
1.12893e-07
-1.39376e-09
1.14637e-07
-1.74396e-09
1.15979e-07
-1.34198e-09
1.16157e-07
-1.78536e-10
1.14759e-07
1.39791e-09
1.11032e-07
3.72776e-09
1.04144e-07
6.88794e-09
9.34789e-08
1.06647e-08
7.85387e-08
1.49402e-08
5.88789e-08
1.96598e-08
3.43314e-08
2.45475e-08
4.91196e-09
2.94194e-08
-2.95129e-08
3.44248e-08
-6.98307e-08
4.03178e-08
-1.17809e-07
4.79785e-08
-1.7581e-07
5.80006e-08
-2.46058e-07
7.0248e-08
-3.28698e-07
8.26399e-08
-4.21462e-07
9.2764e-08
-5.21455e-07
9.99929e-08
-6.25788e-07
1.04334e-07
-7.31766e-07
1.05978e-07
-8.36969e-07
1.05204e-07
-9.3931e-07
1.02341e-07
-1.03705e-06
9.77414e-08
-1.12876e-06
9.17056e-08
-1.21328e-06
8.4524e-08
-1.28969e-06
7.6412e-08
-1.35721e-06
6.75155e-08
-1.41516e-06
5.79523e-08
-1.46293e-06
4.77663e-08
-1.49989e-06
3.69605e-08
-1.52537e-06
2.54801e-08
-1.53931e-06
1.39454e-08
-1.54159e-06
2.27775e-09
-1.53029e-06
-1.13006e-08
-1.50614e-06
-2.41525e-08
-1.46791e-06
-3.82273e-08
-1.41571e-06
-5.21995e-08
-1.34931e-06
-6.64038e-08
-1.26899e-06
-8.03165e-08
-1.17522e-06
-9.37736e-08
-1.06872e-06
-1.06499e-07
-9.50454e-07
-1.18264e-07
-8.21861e-07
-1.28593e-07
-6.84836e-07
-1.37025e-07
-5.41891e-07
-1.42945e-07
-3.96091e-07
-1.458e-07
-2.51066e-07
-1.45025e-07
-1.10789e-07
-1.40278e-07
2.06526e-08
-1.31441e-07
1.39586e-07
-1.18934e-07
2.41312e-07
-1.01726e-07
3.22284e-07
-8.09711e-08
3.79512e-07
-5.72287e-08
4.11133e-07
-3.16209e-08
4.15799e-07
-4.66555e-09
3.95555e-07
2.02435e-08
3.52465e-07
4.30903e-08
2.9144e-07
6.10248e-08
2.20992e-07
7.04483e-08
1.52081e-07
6.89113e-08
9.22694e-08
5.98112e-08
4.62404e-08
4.6029e-08
1.56095e-08
3.06309e-08
1.09103e-09
1.45185e-08
1.09103e-09
9.75683e-09
-1.15478e-08
3.92477e-08
-4.18344e-08
8.01276e-08
-6.21607e-08
1.22228e-07
-6.66423e-08
1.58686e-07
-5.87991e-08
1.8597e-07
-4.42824e-08
2.03378e-07
-2.78557e-08
2.11748e-07
-1.29478e-08
2.12687e-07
-1.54084e-09
2.08206e-07
5.84218e-09
2.00269e-07
9.57352e-09
1.90187e-07
1.08963e-08
1.78408e-07
1.13918e-08
1.64489e-07
1.25248e-08
1.47546e-07
1.51994e-08
1.26563e-07
1.9641e-08
1.00758e-07
2.56266e-08
6.90273e-08
3.31286e-08
3.02832e-08
4.24718e-08
-1.67986e-08
5.39698e-08
-7.39469e-08
6.7813e-08
-1.42886e-07
8.38792e-08
-2.24815e-07
1.01589e-07
-3.2052e-07
1.20253e-07
-4.30523e-07
1.39422e-07
-5.54773e-07
1.58675e-07
-6.91686e-07
1.7723e-07
-8.37878e-07
1.94171e-07
-9.88964e-07
2.09086e-07
-1.13987e-06
2.2115e-07
-1.28679e-06
2.29567e-07
-1.42807e-06
2.3404e-07
-1.56242e-06
2.3434e-07
-1.68852e-06
2.30441e-07
-1.80531e-06
2.22764e-07
-1.91202e-06
2.11909e-07
-2.00809e-06
1.98417e-07
-2.09318e-06
1.82826e-07
-2.16702e-06
1.65553e-07
-2.22945e-06
1.46952e-07
-2.28033e-06
1.27294e-07
-2.31954e-06
1.06722e-07
-2.34694e-06
8.53536e-08
-2.36241e-06
6.3234e-08
-2.36585e-06
4.04033e-08
-2.35719e-06
1.68148e-08
-2.33576e-06
-7.47671e-09
-2.30153e-06
-3.19591e-08
-2.25484e-06
-5.79891e-08
-2.19463e-06
-8.43645e-08
-2.12137e-06
-1.11481e-07
-2.03464e-06
-1.3893e-07
-1.93449e-06
-1.66552e-07
-1.82084e-06
-1.93969e-07
-1.69388e-06
-2.2074e-07
-1.55413e-06
-2.46247e-07
-1.40274e-06
-2.69655e-07
-1.24111e-06
-2.90218e-07
-1.07125e-06
-3.06892e-07
-8.95543e-07
-3.18647e-07
-7.16821e-07
-3.24523e-07
-5.38252e-07
-3.23593e-07
-3.63423e-07
-3.15107e-07
-1.96022e-07
-2.98842e-07
-4.02321e-08
-2.74724e-07
1.00906e-07
-2.42864e-07
2.2372e-07
-2.03785e-07
3.2504e-07
-1.58549e-07
4.02216e-07
-1.08798e-07
4.53798e-07
-5.6247e-08
4.78768e-07
-4.72635e-09
4.75995e-07
4.58631e-08
4.47691e-07
8.9329e-08
3.95646e-07
1.22493e-07
3.2213e-07
1.42427e-07
2.36074e-07
1.45867e-07
1.49294e-07
1.32809e-07
7.41746e-08
1.0575e-07
2.17829e-08
6.69102e-08
2.28739e-08
1.79017e-08
-2.94495e-08
5.93981e-08
-8.33309e-08
1.06762e-07
-1.09524e-07
1.49145e-07
-1.09026e-07
1.82193e-07
-9.18469e-08
2.04823e-07
-6.69127e-08
2.17529e-07
-4.05614e-08
2.21161e-07
-1.65797e-08
2.16756e-07
2.8637e-09
2.05497e-07
1.71013e-08
1.88659e-07
2.64121e-08
1.66792e-07
3.27633e-08
1.39747e-07
3.8436e-08
1.06839e-07
4.54334e-08
6.70261e-08
5.50121e-08
1.90383e-08
6.76288e-08
-3.86811e-08
8.33459e-08
-1.07791e-07
1.02238e-07
-1.89691e-07
1.24372e-07
-2.85566e-07
1.49845e-07
-3.96007e-07
1.78254e-07
-5.20812e-07
2.08684e-07
-6.5913e-07
2.39908e-07
-8.09104e-07
2.70227e-07
-9.6788e-07
2.98198e-07
-1.13176e-06
3.22557e-07
-1.29684e-06
3.42307e-07
-1.45947e-06
3.56803e-07
-1.61624e-06
3.65859e-07
-1.76446e-06
3.6937e-07
-1.90237e-06
3.67472e-07
-2.02879e-06
3.60462e-07
-2.14333e-06
3.48882e-07
-2.24622e-06
3.33325e-07
-2.33772e-06
3.14272e-07
-2.41816e-06
2.92343e-07
-2.48782e-06
2.68082e-07
-2.54699e-06
2.41992e-07
-2.59586e-06
2.14426e-07
-2.63459e-06
1.85682e-07
-2.66329e-06
1.55991e-07
-2.68199e-06
1.25423e-07
-2.69067e-06
9.40269e-08
-2.68922e-06
6.17869e-08
-2.67748e-06
2.86628e-08
-2.65528e-06
-5.38253e-09
-2.62243e-06
-4.0328e-08
-2.57811e-06
-7.62831e-08
-2.52263e-06
-1.13467e-07
-2.45536e-06
-1.5163e-07
-2.37605e-06
-1.90791e-07
-2.28441e-06
-2.30576e-07
-2.18029e-06
-2.70673e-07
-2.06363e-06
-3.10623e-07
-1.93457e-06
-3.498e-07
-1.79351e-06
-3.87304e-07
-1.64117e-06
-4.21998e-07
-1.47868e-06
-4.52708e-07
-1.30751e-06
-4.78061e-07
-1.12974e-06
-4.96422e-07
-9.47945e-07
-5.06315e-07
-7.65133e-07
-5.06405e-07
-5.84777e-07
-4.95463e-07
-4.10557e-07
-4.73063e-07
-2.46111e-07
-4.39169e-07
-9.46634e-08
-3.94312e-07
4.07035e-08
-3.39151e-07
1.57335e-07
-2.7518e-07
2.53024e-07
-2.04487e-07
3.26697e-07
-1.29919e-07
3.76728e-07
-5.47576e-08
4.03832e-07
1.87585e-08
4.06151e-07
8.70103e-08
3.8421e-07
1.44434e-07
3.39475e-07
1.87162e-07
2.75054e-07
2.10288e-07
1.96566e-07
2.11297e-07
1.13915e-07
1.88401e-07
4.05958e-08
1.4023e-07
6.34698e-08
2.45693e-08
-5.40188e-08
7.1986e-08
-1.30748e-07
1.17683e-07
-1.55221e-07
1.53332e-07
-1.44675e-07
1.77406e-07
-1.15921e-07
1.90811e-07
-8.03175e-08
1.94564e-07
-4.43141e-08
1.89622e-07
-1.16378e-08
1.7664e-07
1.58454e-08
1.561e-07
3.76413e-08
1.2776e-07
5.47524e-08
9.11951e-08
6.9328e-08
4.57261e-08
8.39049e-08
-9.50218e-09
1.00662e-07
-7.54893e-08
1.20999e-07
-1.53462e-07
1.45602e-07
-2.44799e-07
1.74683e-07
-3.507e-07
2.0814e-07
-4.71784e-07
2.45456e-07
-6.07819e-07
2.8588e-07
-7.57461e-07
3.27896e-07
-9.17976e-07
3.69199e-07
-1.08606e-06
4.07992e-07
-1.25784e-06
4.42006e-07
-1.42949e-06
4.69844e-07
-1.59734e-06
4.90408e-07
-1.75797e-06
5.02941e-07
-1.90865e-06
5.07486e-07
-2.04769e-06
5.04894e-07
-2.17439e-06
4.96069e-07
-2.28873e-06
4.81818e-07
-2.39116e-06
4.62889e-07
-2.48221e-06
4.39932e-07
-2.56252e-06
4.13632e-07
-2.63276e-06
3.84513e-07
-2.69352e-06
3.53107e-07
-2.74529e-06
3.19851e-07
-2.78841e-06
2.85113e-07
-2.82313e-06
2.49149e-07
-2.84963e-06
2.12178e-07
-2.86796e-06
1.7432e-07
-2.87812e-06
1.35587e-07
-2.88004e-06
9.59413e-08
-2.87352e-06
5.5273e-08
-2.85828e-06
1.34238e-08
-2.83412e-06
-2.95443e-08
-2.80062e-06
-7.38288e-08
-2.75734e-06
-1.19562e-07
-2.70402e-06
-1.66786e-07
-2.64019e-06
-2.15465e-07
-2.56536e-06
-2.65623e-07
-2.47907e-06
-3.1686e-07
-2.38104e-06
-3.68708e-07
-2.27102e-06
-4.20635e-07
-2.14889e-06
-4.71936e-07
-2.01464e-06
-5.21551e-07
-1.86862e-06
-5.68017e-07
-1.71167e-06
-6.09657e-07
-1.54485e-06
-6.44886e-07
-1.36976e-06
-6.71507e-07
-1.18859e-06
-6.87482e-07
-1.00402e-06
-6.90978e-07
-8.19323e-07
-6.80162e-07
-6.38426e-07
-6.53959e-07
-4.65477e-07
-6.12118e-07
-3.04088e-07
-5.55701e-07
-1.57351e-07
-4.85889e-07
-2.81044e-08
-4.04427e-07
8.16524e-08
-3.14243e-07
1.70434e-07
-2.18701e-07
2.37251e-07
-1.21574e-07
2.82501e-07
-2.6492e-08
3.06664e-07
6.28481e-08
3.09086e-07
1.42011e-07
2.89782e-07
2.06466e-07
2.49177e-07
2.50893e-07
1.9077e-07
2.69705e-07
1.19874e-07
2.59297e-07
4.66223e-08
2.13481e-07
1.10092e-07
2.96581e-08
-8.36768e-08
7.68802e-08
-1.7797e-07
1.1505e-07
-1.93391e-07
1.40393e-07
-1.70017e-07
1.53304e-07
-1.28833e-07
1.55679e-07
-8.26924e-08
1.48706e-07
-3.73414e-08
1.33042e-07
4.02607e-09
1.08757e-07
4.01307e-08
7.54897e-08
7.09087e-08
3.23838e-08
9.78583e-08
-2.16026e-08
1.23314e-07
-8.752e-08
1.49822e-07
-1.66364e-07
1.79506e-07
-2.59085e-07
2.13721e-07
-3.66526e-07
2.53042e-07
-4.89212e-07
2.97369e-07
-6.2705e-07
3.45977e-07
-7.78913e-07
3.97319e-07
-9.42267e-07
4.49234e-07
-1.11378e-06
4.99408e-07
-1.28927e-06
5.44692e-07
-1.46476e-06
5.83476e-07
-1.63627e-06
6.13524e-07
-1.79971e-06
6.33284e-07
-1.95212e-06
6.42813e-07
-2.09217e-06
6.42993e-07
-2.21969e-06
6.35004e-07
-2.33496e-06
6.20161e-07
-2.43859e-06
5.99698e-07
-2.53132e-06
5.74557e-07
-2.61397e-06
5.45533e-07
-2.68725e-06
5.13216e-07
-2.75182e-06
4.78201e-07
-2.80829e-06
4.40981e-07
-2.85715e-06
4.01967e-07
-2.8988e-06
3.61497e-07
-2.93353e-06
3.19849e-07
-2.9615e-06
2.77121e-07
-2.98279e-06
2.33467e-07
-2.99746e-06
1.88981e-07
-3.00544e-06
1.43574e-07
-3.00666e-06
9.71585e-08
-3.00097e-06
4.95849e-08
-2.98792e-06
3.73157e-10
-2.96749e-06
-4.998e-08
-2.93898e-06
-1.02338e-07
-2.90196e-06
-1.56577e-07
-2.85602e-06
-2.12731e-07
-2.80073e-06
-2.70747e-07
-2.73557e-06
-3.30788e-07
-2.65977e-06
-3.9266e-07
-2.57275e-06
-4.55728e-07
-2.47411e-06
-5.19272e-07
-2.36343e-06
-5.82619e-07
-2.24027e-06
-6.44705e-07
-2.10451e-06
-7.03783e-07
-1.95669e-06
-7.5748e-07
-1.79738e-06
-8.04195e-07
-1.62765e-06
-8.41237e-07
-1.44932e-06
-8.65806e-07
-1.26465e-06
-8.7565e-07
-1.07657e-06
-8.68249e-07
-8.88522e-07
-8.42003e-07
-7.04991e-07
-7.95649e-07
-5.30851e-07
-7.2984e-07
-3.69863e-07
-6.46877e-07
-2.25203e-07
-5.49087e-07
-9.95643e-08
-4.39883e-07
5.22221e-09
-3.23488e-07
8.82952e-08
-2.04647e-07
1.49626e-07
-8.78226e-08
1.90026e-07
2.24481e-08
2.1013e-07
1.21908e-07
2.10494e-07
2.06102e-07
1.91563e-07
2.69824e-07
1.5427e-07
3.06997e-07
1.01467e-07
3.121e-07
4.06335e-08
2.74315e-07
1.50726e-07
3.26406e-08
-1.16317e-07
7.39067e-08
-2.19236e-07
1.00723e-07
-2.20207e-07
1.1335e-07
-1.82644e-07
1.14048e-07
-1.29531e-07
1.04593e-07
-7.32376e-08
8.58566e-08
-1.86045e-08
5.7916e-08
3.19667e-08
2.03715e-08
7.76752e-08
-2.78048e-08
1.19085e-07
-8.78472e-08
1.57901e-07
-1.6101e-07
1.96477e-07
-2.48388e-07
2.372e-07
-3.50806e-07
2.81923e-07
-4.6873e-07
3.31644e-07
-6.02077e-07
3.8639e-07
-7.50054e-07
4.45346e-07
-9.108e-07
5.06724e-07
-1.0813e-06
5.67823e-07
-1.25743e-06
6.25362e-07
-1.43493e-06
6.76909e-07
-1.60943e-06
7.19195e-07
-1.77588e-06
7.49924e-07
-1.93087e-06
7.68509e-07
-2.07307e-06
7.75485e-07
-2.20242e-06
7.72168e-07
-2.31954e-06
7.60109e-07
-2.42532e-06
7.4079e-07
-2.52067e-06
7.1551e-07
-2.60639e-06
6.85412e-07
-2.6832e-06
6.51368e-07
-2.75178e-06
6.14115e-07
-2.81279e-06
5.74225e-07
-2.86678e-06
5.32196e-07
-2.91423e-06
4.88432e-07
-2.95548e-06
4.43209e-07
-2.99083e-06
3.96845e-07
-3.02055e-06
3.49577e-07
-3.04469e-06
3.01258e-07
-3.06327e-06
2.52043e-07
-3.07641e-06
2.02127e-07
-3.08408e-06
1.5124e-07
-3.0862e-06
9.928e-08
-3.08265e-06
4.60351e-08
-3.07339e-06
-8.88363e-09
-3.05814e-06
-6.5231e-08
-3.03668e-06
-1.23805e-07
-3.00854e-06
-1.84715e-07
-2.97308e-06
-2.48188e-07
-2.92957e-06
-3.14258e-07
-2.87741e-06
-3.82952e-07
-2.81565e-06
-4.5442e-07
-2.7433e-06
-5.28071e-07
-2.65956e-06
-6.0302e-07
-2.56381e-06
-6.78369e-07
-2.45559e-06
-7.52923e-07
-2.33412e-06
-8.25252e-07
-2.19925e-06
-8.92345e-07
-2.05104e-06
-9.52411e-07
-1.88991e-06
-1.00237e-06
-1.71736e-06
-1.03836e-06
-1.53493e-06
-1.05808e-06
-1.34545e-06
-1.05773e-06
-1.15206e-06
-1.03539e-06
-9.58767e-07
-9.88945e-07
-7.70667e-07
-9.1794e-07
-5.93179e-07
-8.24365e-07
-4.30492e-07
-7.11774e-07
-2.8604e-07
-5.84335e-07
-1.62458e-07
-4.4707e-07
-6.13864e-08
-3.05718e-07
1.6922e-08
-1.66131e-07
7.32439e-08
-3.38738e-08
1.09011e-07
8.61408e-08
1.25673e-07
1.89439e-07
1.24153e-07
2.71344e-07
1.05193e-07
3.25957e-07
7.11668e-08
3.46127e-07
2.82698e-08
3.17212e-07
1.78995e-07
3.26854e-08
-1.49003e-07
6.29391e-08
-2.4949e-07
7.6299e-08
-2.33567e-07
7.52759e-08
-1.81621e-07
6.31591e-08
-1.17414e-07
4.12469e-08
-5.13255e-08
9.82508e-09
1.28173e-08
-3.15428e-08
7.33345e-08
-8.37943e-08
1.29927e-07
-1.48198e-07
1.83488e-07
-2.26096e-07
2.35799e-07
-3.18665e-07
2.89046e-07
-4.26709e-07
3.45245e-07
-5.50513e-07
4.05727e-07
-6.89638e-07
4.70769e-07
-8.42852e-07
5.39604e-07
-1.00778e-06
6.10272e-07
-1.18085e-06
6.79795e-07
-1.35771e-06
7.44686e-07
-1.53373e-06
8.01383e-07
-1.70331e-06
8.46485e-07
-1.8622e-06
8.7808e-07
-2.00823e-06
8.95961e-07
-2.14116e-06
9.01436e-07
-2.26158e-06
8.95905e-07
-2.37045e-06
8.81033e-07
-2.46877e-06
8.58435e-07
-2.55751e-06
8.29532e-07
-2.63752e-06
7.95515e-07
-2.70948e-06
7.57378e-07
-2.77404e-06
7.15926e-07
-2.83174e-06
6.71811e-07
-2.88307e-06
6.25557e-07
-2.92847e-06
5.77594e-07
-2.96831e-06
5.28272e-07
-3.00273e-06
4.77627e-07
-3.03199e-06
4.26114e-07
-3.05636e-06
3.73943e-07
-3.0763e-06
3.21193e-07
-3.09197e-06
2.67716e-07
-3.10317e-06
2.13333e-07
-3.10988e-06
1.57942e-07
-3.11196e-06
1.01362e-07
-3.10926e-06
4.33379e-08
-3.1018e-06
-1.63438e-08
-3.08948e-06
-7.75533e-08
-3.0723e-06
-1.40984e-07
-3.05015e-06
-2.06864e-07
-3.0229e-06
-2.75441e-07
-2.99012e-06
-3.47036e-07
-2.95137e-06
-4.21697e-07
-2.90619e-06
-4.99606e-07
-2.85336e-06
-5.80896e-07
-2.7912e-06
-6.65184e-07
-2.71792e-06
-7.51649e-07
-2.63167e-06
-8.39171e-07
-2.53067e-06
-9.2625e-07
-2.41428e-06
-1.00873e-06
-2.28267e-06
-1.08403e-06
-2.13604e-06
-1.14899e-06
-1.97463e-06
-1.19977e-06
-1.79934e-06
-1.23337e-06
-1.61266e-06
-1.2444e-06
-1.41728e-06
-1.23078e-06
-1.21692e-06
-1.1893e-06
-1.01642e-06
-1.11844e-06
-8.22029e-07
-1.01875e-06
-6.39781e-07
-8.94022e-07
-4.74305e-07
-7.49812e-07
-3.29326e-07
-5.92048e-07
-2.07505e-07
-4.2754e-07
-1.10042e-07
-2.63593e-07
-3.65704e-08
-1.07346e-07
1.4605e-08
3.49653e-08
4.57375e-08
1.58307e-07
5.89158e-08
2.58166e-07
5.57377e-08
3.29135e-07
3.85821e-08
3.63282e-07
1.38035e-08
3.4199e-07
1.92799e-07
2.87188e-08
-1.77722e-07
4.53035e-08
-2.66074e-07
4.40166e-08
-2.3228e-07
2.89589e-08
-1.66563e-07
3.70555e-09
-9.21608e-08
-3.11378e-08
-1.64822e-08
-7.59258e-08
5.76054e-08
-1.31523e-07
1.28932e-07
-1.99129e-07
1.97532e-07
-2.80045e-07
2.64405e-07
-3.75448e-07
3.31202e-07
-4.86152e-07
3.99749e-07
-6.12382e-07
4.71475e-07
-7.53597e-07
5.46942e-07
-9.08363e-07
6.25535e-07
-1.07397e-06
7.05213e-07
-1.24653e-06
7.8283e-07
-1.42143e-06
8.54695e-07
-1.59317e-06
9.16426e-07
-1.75643e-06
9.64648e-07
-1.90774e-06
9.97787e-07
-2.04597e-06
1.01632e-06
-2.17129e-06
1.02128e-06
-2.28447e-06
1.01461e-06
-2.38651e-06
9.97941e-07
-2.47852e-06
9.73044e-07
-2.56146e-06
9.41382e-07
-2.63615e-06
9.04222e-07
-2.70326e-06
8.62624e-07
-2.76335e-06
8.17469e-07
-2.81692e-06
7.69492e-07
-2.86439e-06
7.19275e-07
-2.9061e-06
6.67269e-07
-2.94234e-06
6.13834e-07
-2.97363e-06
5.59561e-07
-3.00068e-06
5.04681e-07
-3.02379e-06
4.49221e-07
-3.04288e-06
3.9303e-07
-3.05793e-06
3.36248e-07
-3.06908e-06
2.78865e-07
-3.07639e-06
2.20644e-07
-3.08003e-06
1.61586e-07
-3.08016e-06
1.01484e-07
-3.0769e-06
4.0077e-08
-3.07038e-06
-2.28578e-08
-3.06058e-06
-8.73589e-08
-3.04738e-06
-1.54178e-07
-3.03067e-06
-2.23579e-07
-3.01018e-06
-2.95933e-07
-2.9856e-06
-3.71609e-07
-2.95647e-06
-4.50834e-07
-2.92239e-06
-5.33681e-07
-2.88294e-06
-6.2035e-07
-2.83741e-06
-7.1071e-07
-2.78492e-06
-8.04135e-07
-2.72434e-06
-8.99755e-07
-2.65385e-06
-9.96737e-07
-2.56876e-06
-1.09382e-06
-2.46544e-06
-1.18735e-06
-2.34224e-06
-1.27219e-06
-2.19974e-06
-1.34226e-06
-2.03982e-06
-1.39329e-06
-1.86318e-06
-1.42104e-06
-1.67223e-06
-1.42173e-06
-1.47018e-06
-1.39135e-06
-1.26162e-06
-1.327e-06
-1.0524e-06
-1.22798e-06
-8.50369e-07
-1.09605e-06
-6.62534e-07
-9.37646e-07
-4.93998e-07
-7.60585e-07
-3.48722e-07
-5.72816e-07
-2.29272e-07
-3.83043e-07
-1.36352e-07
-2.00265e-07
-6.87045e-08
-3.26823e-08
-2.34015e-08
1.13004e-07
2.92578e-09
2.31839e-07
1.2924e-08
3.19137e-07
1.05635e-08
3.65643e-07
1.80273e-09
3.50751e-07
1.94602e-07
2.10428e-08
-1.98764e-07
2.24095e-08
-2.67441e-07
5.61034e-09
-2.15481e-07
-2.30453e-08
-1.37908e-07
-6.14696e-08
-5.37366e-08
-1.09561e-07
3.16093e-08
-1.68059e-07
1.16104e-07
-2.38096e-07
1.98969e-07
-3.20902e-07
2.80339e-07
-4.17597e-07
3.61099e-07
-5.28974e-07
4.42579e-07
-6.55263e-07
5.26039e-07
-7.95948e-07
6.1216e-07
-9.49601e-07
7.00595e-07
-1.11342e-06
7.89352e-07
-1.28331e-06
8.75109e-07
-1.45439e-06
9.53911e-07
-1.62076e-06
1.02107e-06
-1.77766e-06
1.07332e-06
-1.92241e-06
1.1094e-06
-2.05412e-06
1.12949e-06
-2.173e-06
1.1352e-06
-2.27998e-06
1.12826e-06
-2.37609e-06
1.11072e-06
-2.46241e-06
1.08426e-06
-2.53988e-06
1.05052e-06
-2.60929e-06
1.01078e-06
-2.67126e-06
9.66194e-07
-2.72634e-06
9.1771e-07
-2.77502e-06
8.66148e-07
-2.81772e-06
8.12194e-07
-2.85488e-06
7.56435e-07
-2.88705e-06
6.99439e-07
-2.91477e-06
6.41553e-07
-2.93805e-06
5.82841e-07
-2.95699e-06
5.23618e-07
-2.97167e-06
4.63898e-07
-2.9825e-06
4.03865e-07
-2.9899e-06
3.43646e-07
-2.99418e-06
2.83145e-07
-2.99573e-06
2.22194e-07
-2.9948e-06
1.60656e-07
-2.99161e-06
9.82961e-08
-2.98635e-06
3.48203e-08
-2.97918e-06
-3.0036e-08
-2.96996e-06
-9.65734e-08
-2.9588e-06
-1.65338e-07
-2.9457e-06
-2.36684e-07
-2.93059e-06
-3.11043e-07
-2.91337e-06
-3.88825e-07
-2.89382e-06
-4.70382e-07
-2.87151e-06
-5.55998e-07
-2.8459e-06
-6.45963e-07
-2.81623e-06
-7.40375e-07
-2.78137e-06
-8.38996e-07
-2.73994e-06
-9.41179e-07
-2.69121e-06
-1.04547e-06
-2.63352e-06
-1.15152e-06
-2.56479e-06
-1.25609e-06
-2.47998e-06
-1.357e-06
-2.37198e-06
-1.45026e-06
-2.2387e-06
-1.52657e-06
-2.08151e-06
-1.57823e-06
-1.90435e-06
-1.59889e-06
-1.7088e-06
-1.58691e-06
-1.49946e-06
-1.53634e-06
-1.28136e-06
-1.44608e-06
-1.06206e-06
-1.31536e-06
-8.51433e-07
-1.14827e-06
-6.5773e-07
-9.54289e-07
-4.86577e-07
-7.43968e-07
-3.42075e-07
-5.27546e-07
-2.2654e-07
-3.15801e-07
-1.39777e-07
-1.19445e-07
-7.93132e-08
5.25404e-08
-4.07549e-08
1.9328e-07
-1.93366e-08
2.97719e-07
-9.18175e-09
3.55488e-07
-5.28926e-09
3.46859e-07
1.89312e-07
1.04483e-08
-2.09213e-07
-4.47404e-09
-2.52519e-07
-3.59157e-08
-1.8404e-07
-7.81881e-08
-9.56353e-08
-1.29825e-07
-2.09997e-09
-1.91143e-07
9.29279e-08
-2.63228e-07
1.88189e-07
-3.47266e-07
2.83006e-07
-4.44327e-07
3.774e-07
-5.55176e-07
4.71948e-07
-6.80058e-07
5.67461e-07
-8.18543e-07
6.64524e-07
-9.69337e-07
7.62953e-07
-1.12966e-06
8.6092e-07
-1.2954e-06
9.55095e-07
-1.46158e-06
1.04128e-06
-1.62251e-06
1.11485e-06
-1.77375e-06
1.1723e-06
-1.91289e-06
1.21247e-06
-2.039e-06
1.2355e-06
-2.15239e-06
1.24288e-06
-2.2539e-06
1.23671e-06
-2.34466e-06
1.21902e-06
-2.42564e-06
1.19171e-06
-2.49775e-06
1.15637e-06
-2.56171e-06
1.11448e-06
-2.61812e-06
1.0672e-06
-2.66753e-06
1.01561e-06
-2.71044e-06
9.60615e-07
-2.74731e-06
9.03022e-07
-2.77862e-06
8.43504e-07
-2.80481e-06
7.82627e-07
-2.82617e-06
7.20791e-07
-2.843e-06
6.58389e-07
-2.85577e-06
5.95613e-07
-2.86495e-06
5.32798e-07
-2.87107e-06
4.70014e-07
-2.8745e-06
4.07298e-07
-2.87552e-06
3.44662e-07
-2.87439e-06
2.82017e-07
-2.8714e-06
2.19204e-07
-2.86677e-06
1.56029e-07
-2.86071e-06
9.22304e-08
-2.85339e-06
2.74984e-08
-2.84497e-06
-3.84566e-08
-2.83552e-06
-1.06017e-07
-2.82524e-06
-1.75622e-07
-2.81423e-06
-2.47691e-07
-2.80259e-06
-3.22682e-07
-2.79037e-06
-4.01047e-07
-2.77752e-06
-4.83228e-07
-2.76387e-06
-5.69648e-07
-2.74913e-06
-6.60704e-07
-2.73284e-06
-7.56669e-07
-2.71424e-06
-8.57596e-07
-2.6922e-06
-9.63214e-07
-2.66477e-06
-1.0729e-06
-2.63046e-06
-1.18583e-06
-2.58683e-06
-1.29972e-06
-2.53183e-06
-1.412e-06
-2.46258e-06
-1.51951e-06
-2.37198e-06
-1.61718e-06
-2.25128e-06
-1.69893e-06
-2.09968e-06
-1.75048e-06
-1.92164e-06
-1.76495e-06
-1.72101e-06
-1.73697e-06
-1.50285e-06
-1.66424e-06
-1.27375e-06
-1.54446e-06
-1.04343e-06
-1.37859e-06
-8.23867e-07
-1.17385e-06
-6.24819e-07
-9.43017e-07
-4.52398e-07
-6.99966e-07
-3.10697e-07
-4.57502e-07
-2.01294e-07
-2.28848e-07
-1.22745e-07
-2.60083e-08
-7.06703e-08
1.41205e-07
-3.89146e-08
2.65963e-07
-1.94898e-08
3.36063e-07
-7.74865e-09
3.35117e-07
1.81564e-07
-2.04909e-09
-2.07164e-07
-3.27526e-08
-2.21815e-07
-7.87713e-08
-1.38021e-07
-1.34399e-07
-4.00077e-08
-1.98881e-07
6.23815e-08
-2.73073e-07
1.6712e-07
-3.58109e-07
2.73225e-07
-4.55086e-07
3.79984e-07
-5.64776e-07
4.8709e-07
-6.87457e-07
5.94629e-07
-8.22788e-07
7.02792e-07
-9.69664e-07
8.114e-07
-1.12553e-06
9.18822e-07
-1.28637e-06
1.02176e-06
-1.44727e-06
1.11599e-06
-1.60302e-06
1.19703e-06
-1.74929e-06
1.26112e-06
-1.88366e-06
1.30666e-06
-2.00507e-06
1.33388e-06
-2.11368e-06
1.34411e-06
-2.21042e-06
1.33962e-06
-2.29628e-06
1.32257e-06
-2.37223e-06
1.29497e-06
-2.43907e-06
1.25855e-06
-2.49751e-06
1.21481e-06
-2.54814e-06
1.1651e-06
-2.5915e-06
1.11056e-06
-2.62815e-06
1.05225e-06
-2.65861e-06
9.91076e-07
-2.68342e-06
9.2783e-07
-2.7031e-06
8.63183e-07
-2.71815e-06
7.97678e-07
-2.7291e-06
7.31738e-07
-2.73644e-06
6.65729e-07
-2.74071e-06
5.99886e-07
-2.74233e-06
5.34421e-07
-2.74169e-06
4.69372e-07
-2.73913e-06
4.04736e-07
-2.73493e-06
3.40466e-07
-2.72934e-06
2.76429e-07
-2.72258e-06
2.12443e-07
-2.71484e-06
1.48292e-07
-2.70632e-06
8.37022e-08
-2.69719e-06
1.83703e-08
-2.68762e-06
-4.80213e-08
-2.67778e-06
-1.15856e-07
-2.66786e-06
-1.85544e-07
-2.65804e-06
-2.57517e-07
-2.64848e-06
-3.32238e-07
-2.63935e-06
-4.10182e-07
-2.63074e-06
-4.91836e-07
-2.6227e-06
-5.7769e-07
-2.61518e-06
-6.68218e-07
-2.60803e-06
-7.63821e-07
-2.60086e-06
-8.6477e-07
-2.59292e-06
-9.71155e-07
-2.58298e-06
-1.08284e-06
-2.56954e-06
-1.19926e-06
-2.55014e-06
-1.31913e-06
-2.52163e-06
-1.44051e-06
-2.48098e-06
-1.56017e-06
-2.42472e-06
-1.67343e-06
-2.34805e-06
-1.77559e-06
-2.23974e-06
-1.8588e-06
-2.09452e-06
-1.91016e-06
-1.91519e-06
-1.9163e-06
-1.70805e-06
-1.87138e-06
-1.47927e-06
-1.77324e-06
-1.23793e-06
-1.61993e-06
-9.96175e-07
-1.41561e-06
-7.6833e-07
-1.17086e-06
-5.6563e-07
-9.02666e-07
-3.94496e-07
-6.28636e-07
-2.58603e-07
-3.64741e-07
-1.58152e-07
-1.26459e-07
-8.98177e-08
7.2871e-08
-4.69324e-08
2.23077e-07
-2.10521e-08
3.10183e-07
-6.10234e-09
3.20168e-07
1.75461e-07
-1.5435e-08
-1.91729e-07
-6.17563e-08
-1.75494e-07
-1.21439e-07
-7.83377e-08
-1.89731e-07
2.82844e-08
-2.66473e-07
1.39123e-07
-3.52698e-07
2.53345e-07
-4.49548e-07
3.70075e-07
-5.57883e-07
4.88318e-07
-6.78067e-07
6.07273e-07
-8.09861e-07
7.26423e-07
-9.52352e-07
8.45283e-07
-1.1033e-06
9.62349e-07
-1.25896e-06
1.07449e-06
-1.41469e-06
1.17749e-06
-1.56565e-06
1.26695e-06
-1.70766e-06
1.33904e-06
-1.83799e-06
1.39145e-06
-1.95548e-06
1.42415e-06
-2.06012e-06
1.43852e-06
-2.15272e-06
1.4367e-06
-2.23423e-06
1.42114e-06
-2.30556e-06
1.3939e-06
-2.36747e-06
1.35688e-06
-2.42064e-06
1.31172e-06
-2.46569e-06
1.25986e-06
-2.50322e-06
1.20263e-06
-2.53386e-06
1.1412e-06
-2.55824e-06
1.07663e-06
-2.57701e-06
1.00985e-06
-2.59081e-06
9.41633e-07
-2.60027e-06
8.72643e-07
-2.60599e-06
8.03394e-07
-2.60854e-06
7.34287e-07
-2.60843e-06
6.6562e-07
-2.60613e-06
5.97582e-07
-2.60199e-06
5.30287e-07
-2.59635e-06
4.63728e-07
-2.58947e-06
3.97858e-07
-2.58158e-06
3.3258e-07
-2.57288e-06
2.67728e-07
-2.56354e-06
2.031e-07
-2.55371e-06
1.38465e-07
-2.54356e-06
7.35506e-08
-2.53325e-06
8.06036e-09
-2.52294e-06
-5.83376e-08
-2.51279e-06
-1.26e-07
-2.50301e-06
-1.95322e-07
-2.49381e-06
-2.66723e-07
-2.48539e-06
-3.40653e-07
-2.47799e-06
-4.17587e-07
-2.4718e-06
-4.98022e-07
-2.46701e-06
-5.82476e-07
-2.46376e-06
-6.71468e-07
-2.4621e-06
-7.65486e-07
-2.46192e-06
-8.64954e-07
-2.46288e-06
-9.70193e-07
-2.46436e-06
-1.08136e-06
-2.46532e-06
-1.1983e-06
-2.46403e-06
-1.32041e-06
-2.45804e-06
-1.4465e-06
-2.44388e-06
-1.57433e-06
-2.41685e-06
-1.70046e-06
-2.37281e-06
-1.81964e-06
-2.30602e-06
-1.92559e-06
-2.20733e-06
-2.00885e-06
-2.06657e-06
-2.05706e-06
-1.88507e-06
-2.05288e-06
-1.66944e-06
-1.98887e-06
-1.42839e-06
-1.86098e-06
-1.17401e-06
-1.66999e-06
-9.21312e-07
-1.42356e-06
-6.87241e-07
-1.13674e-06
-4.84151e-07
-8.31726e-07
-3.18336e-07
-5.30556e-07
-1.9226e-07
-2.52535e-07
-1.04152e-07
-1.52365e-08
-4.82603e-08
1.67185e-07
-1.65948e-08
2.78517e-07
-1.55409e-09
3.05127e-07
1.73907e-07
-2.91056e-08
-1.62623e-07
-8.99145e-08
-1.14685e-07
-1.62387e-07
-5.86485e-09
-2.42461e-07
1.08358e-07
-3.30497e-07
2.27159e-07
-4.2758e-07
3.50428e-07
-5.34726e-07
4.77221e-07
-6.52479e-07
6.06072e-07
-7.80761e-07
7.35555e-07
-9.18837e-07
8.64499e-07
-1.06479e-06
9.91238e-07
-1.21531e-06
1.11286e-06
-1.36612e-06
1.2253e-06
-1.51274e-06
1.32411e-06
-1.65114e-06
1.40535e-06
-1.77827e-06
1.46617e-06
-1.89265e-06
1.50583e-06
-1.99414e-06
1.52565e-06
-2.08333e-06
1.52772e-06
-2.16116e-06
1.51453e-06
-2.22847e-06
1.48845e-06
-2.28602e-06
1.45144e-06
-2.33449e-06
1.40535e-06
-2.37454e-06
1.35177e-06
-2.40686e-06
1.29218e-06
-2.43217e-06
1.22794e-06
-2.45122e-06
1.16025e-06
-2.46476e-06
1.09018e-06
-2.47356e-06
1.01865e-06
-2.47833e-06
9.46397e-07
-2.47972e-06
8.74036e-07
-2.47834e-06
8.02018e-07
-2.47473e-06
7.30669e-07
-2.46932e-06
6.60209e-07
-2.46248e-06
5.90751e-07
-2.45452e-06
5.22327e-07
-2.44568e-06
4.54883e-07
-2.43615e-06
3.88324e-07
-2.42608e-06
3.22513e-07
-2.41562e-06
2.57265e-07
-2.40488e-06
1.92358e-07
-2.39397e-06
1.27555e-07
-2.383e-06
6.25897e-08
-2.37213e-06
-2.81693e-09
-2.36146e-06
-6.90082e-08
-2.35116e-06
-1.36293e-07
-2.34144e-06
-2.05049e-07
-2.33249e-06
-2.75668e-07
-2.32457e-06
-3.48574e-07
-2.31794e-06
-4.2422e-07
-2.31287e-06
-5.03091e-07
-2.30964e-06
-5.85704e-07
-2.30851e-06
-6.72597e-07
-2.30969e-06
-7.64311e-07
-2.31327e-06
-8.6137e-07
-2.31922e-06
-9.64248e-07
-2.32726e-06
-1.07331e-06
-2.33681e-06
-1.18874e-06
-2.34683e-06
-1.3104e-06
-2.35565e-06
-1.43768e-06
-2.3607e-06
-1.56928e-06
-2.35826e-06
-1.7029e-06
-2.34312e-06
-1.83478e-06
-2.30947e-06
-1.95924e-06
-2.25074e-06
-2.06758e-06
-2.15706e-06
-2.15074e-06
-2.01769e-06
-2.19225e-06
-1.83156e-06
-2.175e-06
-1.60514e-06
-2.0874e-06
-1.35044e-06
-1.92469e-06
-1.08294e-06
-1.69106e-06
-8.21233e-07
-1.39844e-06
-5.84964e-07
-1.068e-06
-3.86738e-07
-7.28783e-07
-2.31826e-07
-4.07447e-07
-1.20774e-07
-1.26288e-07
-4.9356e-08
9.5767e-08
-1.07549e-08
2.39916e-07
3.72153e-09
2.90651e-07
1.77629e-07
-4.22649e-08
-1.20358e-07
-1.16291e-07
-4.06587e-08
-2.00259e-07
7.81035e-08
-2.91085e-07
1.99184e-07
-3.89181e-07
3.25254e-07
-4.95653e-07
4.569e-07
-6.11314e-07
5.92882e-07
-7.36351e-07
7.31109e-07
-8.70274e-07
8.69478e-07
-1.01144e-06
1.00567e-06
-1.15701e-06
1.1368e-06
-1.30326e-06
1.25912e-06
-1.44602e-06
1.36806e-06
-1.58139e-06
1.45948e-06
-1.70614e-06
1.5301e-06
-1.81832e-06
1.57835e-06
-1.91753e-06
1.60504e-06
-2.0042e-06
1.61232e-06
-2.07915e-06
1.60266e-06
-2.14324e-06
1.57862e-06
-2.1972e-06
1.54241e-06
-2.24176e-06
1.49601e-06
-2.27764e-06
1.44123e-06
-2.30561e-06
1.37974e-06
-2.32649e-06
1.31306e-06
-2.34114e-06
1.24259e-06
-2.35043e-06
1.16954e-06
-2.3552e-06
1.09495e-06
-2.35623e-06
1.01968e-06
-2.35425e-06
9.44413e-07
-2.34987e-06
8.6966e-07
-2.34364e-06
7.95785e-07
-2.336e-06
7.23026e-07
-2.3273e-06
6.5151e-07
-2.31782e-06
5.81271e-07
-2.30776e-06
5.12273e-07
-2.2973e-06
4.44417e-07
-2.28654e-06
3.77565e-07
-2.27557e-06
3.11547e-07
-2.26447e-06
2.46166e-07
-2.2533e-06
1.81189e-07
-2.24212e-06
1.16374e-07
-2.23101e-06
5.1475e-08
-2.22004e-06
-1.37819e-08
-2.20935e-06
-7.97039e-08
-2.19906e-06
-1.46584e-07
-2.18935e-06
-2.14758e-07
-2.18043e-06
-2.84582e-07
-2.17257e-06
-3.56442e-07
-2.16603e-06
-4.30753e-07
-2.16115e-06
-5.07971e-07
-2.15827e-06
-5.8859e-07
-2.15772e-06
-6.73142e-07
-2.15984e-06
-7.62189e-07
-2.1649e-06
-8.56314e-07
-2.17305e-06
-9.56095e-07
-2.1843e-06
-1.06207e-06
-2.1984e-06
-1.17465e-06
-2.21473e-06
-1.29406e-06
-2.23223e-06
-1.42018e-06
-2.24912e-06
-1.55239e-06
-2.26274e-06
-1.68928e-06
-2.2692e-06
-1.82832e-06
-2.26309e-06
-1.96534e-06
-2.23687e-06
-2.0938e-06
-2.1833e-06
-2.20431e-06
-2.09093e-06
-2.28463e-06
-1.94913e-06
-2.3168e-06
-1.75487e-06
-2.28165e-06
-1.51533e-06
-2.16423e-06
-1.24611e-06
-1.96028e-06
-9.66697e-07
-1.67786e-06
-6.99982e-07
-1.33471e-06
-4.67825e-07
-9.60939e-07
-2.81788e-07
-5.93484e-07
-1.45172e-07
-2.62905e-07
-5.57098e-08
6.30526e-09
-7.90508e-09
1.92111e-07
7.71619e-09
2.75029e-07
1.85345e-07
-5.43467e-08
-6.60115e-08
-1.39931e-07
4.49252e-08
-2.34226e-07
1.72398e-07
-3.34426e-07
2.99385e-07
-4.41116e-07
4.31944e-07
-5.55304e-07
5.71088e-07
-6.77559e-07
7.15138e-07
-8.07709e-07
8.61259e-07
-9.44453e-07
1.00622e-06
-1.0854e-06
1.14661e-06
-1.22749e-06
1.2789e-06
-1.36686e-06
1.39849e-06
-1.49974e-06
1.50094e-06
-1.62282e-06
1.58256e-06
-1.73371e-06
1.64099e-06
-1.8316e-06
1.67623e-06
-1.91671e-06
1.69015e-06
-1.98974e-06
1.68535e-06
-2.05152e-06
1.66445e-06
-2.10284e-06
1.62994e-06
-2.14444e-06
1.58401e-06
-2.17712e-06
1.52869e-06
-2.20172e-06
1.46583e-06
-2.21917e-06
1.39719e-06
-2.23042e-06
1.32431e-06
-2.23643e-06
1.2486e-06
-2.23813e-06
1.17124e-06
-2.23637e-06
1.09318e-06
-2.2319e-06
1.01521e-06
-2.22538e-06
9.37893e-07
-2.21735e-06
8.61633e-07
-2.20826e-06
7.86691e-07
-2.19844e-06
7.13206e-07
-2.18815e-06
6.41218e-07
-2.17756e-06
5.70689e-07
-2.16681e-06
5.01522e-07
-2.15597e-06
4.33578e-07
-2.14509e-06
3.66685e-07
-2.13419e-06
3.00648e-07
-2.12329e-06
2.35265e-07
-2.1124e-06
1.70303e-07
-2.10154e-06
1.05513e-07
-2.09075e-06
4.06768e-08
-2.08006e-06
-2.44626e-08
-2.06959e-06
-9.01793e-08
-2.05943e-06
-1.56739e-07
-2.04976e-06
-2.24436e-07
-2.04076e-06
-2.93583e-07
-2.03268e-06
-3.64519e-07
-2.02582e-06
-4.37615e-07
-2.02051e-06
-5.13278e-07
-2.01714e-06
-5.91965e-07
-2.0161e-06
-6.74179e-07
-2.01781e-06
-7.60474e-07
-2.02267e-06
-8.51456e-07
-2.031e-06
-9.47765e-07
-2.04302e-06
-1.05005e-06
-2.05875e-06