/*--------------------------------*- C++ -*----------------------------------*\
  =========                 |
  \\      /  F ield         | OpenFOAM: The Open Source CFD Toolbox
   \\    /   O peration     | Website:  https://openfoam.org
    \\  /    A nd           | Version:  13
     \\/     M anipulation  |
\*---------------------------------------------------------------------------*/
FoamFile
{
    format      ascii;
    class       volVectorField;
    location    "4.4";
    object      U;
}
// * * * * * * * * * * * * * * * * * * * * * * * * * * * * * * * * * * * * * //

dimensions      [0 1 -1 0 0 0 0];

internalField   nonuniform List<vector> 
6400
(
(-9.71957e-05 6.1982e-05 0)
(0.000434476 -0.000159457 0)
(0.001896 -0.000377433 0)
(0.00381511 -0.000472609 0)
(0.00573434 -0.00041938 0)
(0.00735122 -0.000287457 0)
(0.00845564 -0.000128738 0)
(0.00904224 -7.18243e-06 0)
(0.00922111 4.19445e-05 0)
(0.00916948 2.74774e-05 0)
(0.00903307 -3.15183e-05 0)
(0.00892107 -0.000118942 0)
(0.0089043 -0.00020957 0)
(0.00898337 -0.000287303 0)
(0.00911978 -0.000351993 0)
(0.00925357 -0.000403262 0)
(0.00932007 -0.000439132 0)
(0.00927956 -0.000446665 0)
(0.00909259 -0.000435828 0)
(0.00867785 -0.000405078 0)
(0.00799268 -0.000362913 0)
(0.00698718 -0.000318613 0)
(0.0056158 -0.000276536 0)
(0.00385589 -0.000253337 0)
(0.00168031 -0.000281867 0)
(-0.000908843 -0.000371208 0)
(-0.00387121 -0.000446725 0)
(-0.00741867 -0.000364674 0)
(-0.0116602 -2.49309e-05 0)
(-0.0166058 0.000617552 0)
(-0.0227507 0.00146891 0)
(-0.0298512 0.00228702 0)
(-0.0376212 0.00298136 0)
(-0.0458592 0.00353918 0)
(-0.0543347 0.00395219 0)
(-0.0628372 0.00422306 0)
(-0.0711843 0.00436431 0)
(-0.0792216 0.0043933 0)
(-0.0868246 0.00432729 0)
(-0.0938926 0.00418299 0)
(-0.100342 0.00397304 0)
(-0.106102 0.00370603 0)
(-0.111115 0.00338691 0)
(-0.115338 0.00301607 0)
(-0.118743 0.002596 0)
(-0.121308 0.00214081 0)
(-0.122791 0.00171971 0)
(-0.123384 0.00133255 0)
(-0.123169 0.00063577 0)
(-0.121619 0.000118579 0)
(-0.119179 -0.000543214 0)
(-0.115497 -0.00115583 0)
(-0.110762 -0.00180157 0)
(-0.104847 -0.00241813 0)
(-0.097851 -0.00301985 0)
(-0.0898044 -0.00359855 0)
(-0.0808223 -0.00415536 0)
(-0.070907 -0.00463812 0)
(-0.0602739 -0.0050454 0)
(-0.0490645 -0.00533243 0)
(-0.0375144 -0.00547004 0)
(-0.0258759 -0.00542491 0)
(-0.0144425 -0.00518548 0)
(-0.00348528 -0.004752 0)
(0.00657086 -0.00416957 0)
(0.0153925 -0.00334624 0)
(0.0227496 -0.00237501 0)
(0.028337 -0.00129051 0)
(0.0320238 -0.000175687 0)
(0.0334839 0.00112544 0)
(0.0328744 0.00178658 0)
(0.0305308 0.00241198 0)
(0.0261123 0.00276237 0)
(0.0206796 0.00262608 0)
(0.0149143 0.0020851 0)
(0.00961271 0.00133535 0)
(0.00530098 0.00066223 0)
(0.00219526 0.000210249 0)
(0.000389685 -9.57469e-05 0)
(-0.000183245 -0.000291554 0)
(2.92367e-05 -0.000382046 0)
(0.00165048 -0.00189546 0)
(0.00470296 -0.00313532 0)
(0.00814667 -0.00356906 0)
(0.0113543 -0.00325725 0)
(0.0139395 -0.00251481 0)
(0.0157368 -0.00160005 0)
(0.016755 -0.000755767 0)
(0.0171103 -0.000145925 0)
(0.0169326 0.000195806 0)
(0.0164154 0.000307714 0)
(0.0156732 0.000263779 0)
(0.0147976 0.000159938 0)
(0.0137817 8.86585e-05 0)
(0.0125676 0.000103787 0)
(0.0110694 0.00021972 0)
(0.00920374 0.000423149 0)
(0.0069244 0.00069892 0)
(0.00412577 0.0010656 0)
(0.000715339 0.00153696 0)
(-0.00340562 0.00211713 0)
(-0.00840811 0.00281591 0)
(-0.0144303 0.0036173 0)
(-0.0215198 0.00449188 0)
(-0.0297229 0.00544874 0)
(-0.0391022 0.00651043 0)
(-0.049652 0.00769532 0)
(-0.0610867 0.00898699 0)
(-0.0731154 0.0103712 0)
(-0.0853145 0.0117428 0)
(-0.0971869 0.012872 0)
(-0.108723 0.0136606 0)
(-0.119788 0.0140995 0)
(-0.130236 0.0141944 0)
(-0.139977 0.0139877 0)
(-0.148933 0.013525 0)
(-0.157056 0.0128502 0)
(-0.164309 0.0120053 0)
(-0.170668 0.0110241 0)
(-0.17612 0.00993673 0)
(-0.180651 0.00876305 0)
(-0.18425 0.00751693 0)
(-0.186911 0.00620885 0)
(-0.188623 0.00484432 0)
(-0.189382 0.00343071 0)
(-0.18917 0.00197485 0)
(-0.18795 0.000489328 0)
(-0.185734 -0.00104709 0)
(-0.182499 -0.00268779 0)
(-0.178194 -0.00436579 0)
(-0.172868 -0.006093 0)
(-0.16645 -0.00784347 0)
(-0.158974 -0.00960157 0)
(-0.150406 -0.0113427 0)
(-0.140774 -0.0130335 0)
(-0.130086 -0.0146342 0)
(-0.11841 -0.0160915 0)
(-0.10587 -0.017374 0)
(-0.0925729 -0.0184078 0)
(-0.0787183 -0.0191269 0)
(-0.0645107 -0.0194713 0)
(-0.0501831 -0.0193811 0)
(-0.0360045 -0.0188122 0)
(-0.0222683 -0.0177451 0)
(-0.00928429 -0.0161871 0)
(0.00265198 -0.0141068 0)
(0.0132607 -0.0115716 0)
(0.0222784 -0.00864841 0)
(0.0294891 -0.00543661 0)
(0.0346933 -0.00207091 0)
(0.037837 0.0011844 0)
(0.0387761 0.00419455 0)
(0.0375321 0.0067732 0)
(0.0342782 0.00863174 0)
(0.02923 0.00919944 0)
(0.0226166 0.008653 0)
(0.0153647 0.0071414 0)
(0.00857547 0.00504782 0)
(0.00331808 0.00264101 0)
(0.000286659 0.000526207 0)
(0.000190323 -0.00151448 0)
(0.0028481 -0.0048376 0)
(0.00669763 -0.00683968 0)
(0.0103682 -0.00713457 0)
(0.0134202 -0.00620717 0)
(0.0156495 -0.00463348 0)
(0.0170646 -0.00291506 0)
(0.0177175 -0.0013519 0)
(0.0176783 -0.000104388 0)
(0.0170235 0.000756356 0)
(0.0158858 0.00125257 0)
(0.0143314 0.00151114 0)
(0.012379 0.00169151 0)
(0.00999636 0.00194031 0)
(0.00710979 0.00235225 0)
(0.00362425 0.00295732 0)
(-0.000565649 0.0037478 0)
(-0.00561063 0.00473602 0)
(-0.0116219 0.00594331 0)
(-0.018711 0.00740317 0)
(-0.0269619 0.00912859 0)
(-0.0363792 0.0110777 0)
(-0.0469252 0.0131749 0)
(-0.0585121 0.0153191 0)
(-0.0709315 0.0173948 0)
(-0.0839237 0.0193146 0)
(-0.0971709 0.0210047 0)
(-0.110367 0.0223928 0)
(-0.123226 0.0234302 0)
(-0.135473 0.0240899 0)
(-0.146931 0.0243624 0)
(-0.15751 0.0242405 0)
(-0.167137 0.0237575 0)
(-0.175829 0.0229474 0)
(-0.183602 0.0218416 0)
(-0.190475 0.0204931 0)
(-0.196473 0.0189477 0)
(-0.201621 0.0172475 0)
(-0.205939 0.0154205 0)
(-0.209437 0.0134947 0)
(-0.21213 0.0114939 0)
(-0.214023 0.00942344 0)
(-0.215116 0.00729189 0)
(-0.215404 0.00510081 0)
(-0.214878 0.00284793 0)
(-0.213525 0.000534434 0)
(-0.21132 -0.00184639 0)
(-0.208231 -0.00430898 0)
(-0.204247 -0.00685183 0)
(-0.199334 -0.0094458 0)
(-0.193473 -0.0121059 0)
(-0.186631 -0.0148004 0)
(-0.178798 -0.0175103 0)
(-0.16996 -0.0202013 0)
(-0.160123 -0.0228299 0)
(-0.149303 -0.0253353 0)
(-0.137547 -0.0276415 0)
(-0.124936 -0.0296685 0)
(-0.111562 -0.031319 0)
(-0.0975678 -0.0324949 0)
(-0.0831466 -0.0330977 0)
(-0.0685219 -0.0330401 0)
(-0.0539415 -0.0322428 0)
(-0.0397048 -0.0306891 0)
(-0.0261094 -0.0283726 0)
(-0.013421 -0.0253071 0)
(-0.00188543 -0.0215401 0)
(0.00824732 -0.0171677 0)
(0.0167843 -0.0123368 0)
(0.0235981 -0.00722924 0)
(0.0285646 -0.00207939 0)
(0.0317302 0.00291071 0)
(0.0329809 0.00740154 0)
(0.0321693 0.0110252 0)
(0.0294368 0.0136679 0)
(0.0250759 0.014693 0)
(0.0191132 0.0141158 0)
(0.0123683 0.0119377 0)
(0.00587002 0.00821982 0)
(0.00080123 0.00328419 0)
(0.000371916 -0.0032517 0)
(0.00377101 -0.00853452 0)
(0.00775765 -0.0107105 0)
(0.0110237 -0.0103439 0)
(0.0134118 -0.00853569 0)
(0.0149053 -0.00612171 0)
(0.0155863 -0.0036208 0)
(0.0155341 -0.00134444 0)
(0.0148131 0.000533157 0)
(0.0134795 0.00194636 0)
(0.0115284 0.00296594 0)
(0.00893986 0.00375441 0)
(0.00567 0.00450781 0)
(0.00165618 0.00539929 0)
(-0.00317158 0.00653716 0)
(-0.00890002 0.00797038 0)
(-0.0156418 0.00971854 0)
(-0.0235094 0.011787 0)
(-0.0325798 0.0141711 0)
(-0.0428774 0.0168506 0)
(-0.0543425 0.0197515 0)
(-0.0668164 0.022748 0)
(-0.080045 0.0256831 0)
(-0.0937144 0.0284051 0)
(-0.107532 0.0308134 0)
(-0.121197 0.0327649 0)
(-0.134414 0.0341462 0)
(-0.146922 0.0349358 0)
(-0.158534 0.0351902 0)
(-0.169167 0.0349574 0)
(-0.178799 0.0342956 0)
(-0.187455 0.0332448 0)
(-0.195173 0.0318389 0)
(-0.202013 0.0301338 0)
(-0.208021 0.0281757 0)
(-0.213249 0.0260126 0)
(-0.217744 0.0236819 0)
(-0.221533 0.0212181 0)
(-0.224641 0.0186496 0)
(-0.227086 0.0159951 0)
(-0.228876 0.0132674 0)
(-0.230016 0.0104724 0)
(-0.230499 0.00760917 0)
(-0.230317 0.00467381 0)
(-0.229449 0.00166098 0)
(-0.227879 -0.00143096 0)
(-0.225575 -0.00461293 0)
(-0.222507 -0.00789153 0)
(-0.218649 -0.0112767 0)
(-0.213966 -0.0147573 0)
(-0.208423 -0.0183306 0)
(-0.20198 -0.0219669 0)
(-0.194608 -0.0256366 0)
(-0.186286 -0.0293006 0)
(-0.176996 -0.0329039 0)
(-0.166733 -0.0363657 0)
(-0.15551 -0.0395814 0)
(-0.143375 -0.0424391 0)
(-0.130406 -0.0448227 0)
(-0.116702 -0.0465757 0)
(-0.102414 -0.0475593 0)
(-0.0877494 -0.0476503 0)
(-0.0729269 -0.0467306 0)
(-0.058236 -0.0447409 0)
(-0.0440163 -0.0416785 0)
(-0.0305927 -0.0376269 0)
(-0.0182107 -0.032635 0)
(-0.00711054 -0.0268334 0)
(0.00249919 -0.0204229 0)
(0.0104768 -0.0136461 0)
(0.0167246 -0.00677289 0)
(0.0212311 -3.42717e-05 0)
(0.0240156 0.00626962 0)
(0.0251461 0.0117512 0)
(0.0244967 0.0160088 0)
(0.0220321 0.0187524 0)
(0.0179642 0.0195405 0)
(0.0126227 0.0181462 0)
(0.00662111 0.0142712 0)
(0.00102022 0.00695967 0)
(0.000597421 -0.0054645 0)
(0.00436525 -0.0124681 0)
(0.00792702 -0.0141933 0)
(0.0104187 -0.0128492 0)
(0.0119349 -0.0100553 0)
(0.0125353 -0.00677595 0)
(0.0123471 -0.0035144 0)
(0.0114449 -0.000550849 0)
(0.00985755 0.00197509 0)
(0.00757295 0.00405148 0)
(0.00453596 0.00577714 0)
(0.000669128 0.00733415 0)
(-0.00411025 0.00893032 0)
(-0.00988307 0.0107425 0)
(-0.0167267 0.0128873 0)
(-0.0247146 0.0154229 0)
(-0.0339093 0.0183634 0)
(-0.044339 0.0216808 0)
(-0.0559585 0.0252952 0)
(-0.0686292 0.029099 0)
(-0.0821124 0.0328973 0)
(-0.0960727 0.036479 0)
(-0.110193 0.0397458 0)
(-0.124166 0.0424466 0)
(-0.137655 0.0444279 0)
(-0.150337 0.0456728 0)
(-0.162053 0.0462059 0)
(-0.172757 0.0460705 0)
(-0.182456 0.0453511 0)
(-0.191194 0.0441447 0)
(-0.199027 0.0425288 0)
(-0.206025 0.0405744 0)
(-0.212245 0.0383321 0)
(-0.217745 0.0358508 0)
(-0.222573 0.0331705 0)
(-0.226777 0.0303263 0)
(-0.230392 0.0273503 0)
(-0.233441 0.0242693 0)
(-0.235945 0.0210974 0)
(-0.237914 0.0178511 0)
(-0.23935 0.0145369 0)
(-0.240258 0.0111505 0)
(-0.240628 0.00768651 0)
(-0.240449 0.00413451 0)
(-0.239701 0.000481535 0)
(-0.238374 -0.00328683 0)
(-0.23642 -0.00717237 0)
(-0.233806 -0.0111851 0)
(-0.230495 -0.0153297 0)
(-0.226445 -0.0196055 0)
(-0.221635 -0.0240198 0)
(-0.216006 -0.0285466 0)
(-0.2095 -0.033142 0)
(-0.202078 -0.0377622 0)
(-0.193705 -0.0423465 0)
(-0.184349 -0.0468004 0)
(-0.173993 -0.050994 0)
(-0.162638 -0.05478 0)
(-0.150342 -0.0580214 0)
(-0.137163 -0.0605183 0)
(-0.123209 -0.0620864 0)
(-0.108656 -0.0625567 0)
(-0.0937055 -0.0617588 0)
(-0.07861 -0.0595903 0)
(-0.0636564 -0.0560003 0)
(-0.0492673 -0.0510645 0)
(-0.0358089 -0.0449287 0)
(-0.0235181 -0.0377524 0)
(-0.0126459 -0.0297856 0)
(-0.00337722 -0.0213302 0)
(0.00416613 -0.0127213 0)
(0.00995131 -0.00427214 0)
(0.0140237 0.00369255 0)
(0.0164595 0.010835 0)
(0.0172954 0.0167908 0)
(0.0165433 0.0211189 0)
(0.0142337 0.0233585 0)
(0.0105481 0.0231359 0)
(0.00580654 0.019723 0)
(0.000847105 0.0105208 0)
(0.000850665 -0.00801317 0)
(0.00455237 -0.0161248 0)
(0.00727933 -0.0168293 0)
(0.00874947 -0.0144108 0)
(0.00928281 -0.0106161 0)
(0.00892189 -0.00650407 0)
(0.00779642 -0.00250167 0)
(0.00594316 0.00116809 0)
(0.00334542 0.00441683 0)
(-5.83286e-05 0.00727562 0)
(-0.00436272 0.00987347 0)
(-0.00967034 0.012402 0)
(-0.0160749 0.0150628 0)
(-0.0236533 0.0180197 0)
(-0.0324595 0.0213733 0)
(-0.0425142 0.0251557 0)
(-0.0537895 0.029332 0)
(-0.0661829 0.0338153 0)
(-0.0795146 0.0384167 0)
(-0.0934697 0.0429038 0)
(-0.107694 0.0471334 0)
(-0.121884 0.05078 0)
(-0.135633 0.0536483 0)
(-0.148537 0.0556508 0)
(-0.160441 0.056744 0)
(-0.171296 0.0569803 0)
(-0.181138 0.056471 0)
(-0.190038 0.0553423 0)
(-0.198064 0.053702 0)
(-0.20529 0.0516452 0)
(-0.211772 0.0492445 0)
(-0.217572 0.0465628 0)
(-0.222741 0.0436471 0)
(-0.227331 0.0405394 0)
(-0.231378 0.0372742 0)
(-0.234919 0.0338794 0)
(-0.237979 0.0303799 0)
(-0.240576 0.0267961 0)
(-0.242727 0.023139 0)
(-0.244435 0.0194166 0)
(-0.245703 0.0156264 0)
(-0.246536 0.0117574 0)
(-0.246927 0.00780084 0)
(-0.246872 0.00374091 0)
(-0.246361 -0.000443749 0)
(-0.245382 -0.00478045 0)
(-0.243918 -0.00927487 0)
(-0.241943 -0.013943 0)
(-0.239414 -0.0187888 0)
(-0.236261 -0.0237968 0)
(-0.232443 -0.0289802 0)
(-0.227898 -0.034325 0)
(-0.222555 -0.039785 0)
(-0.21632 -0.0452944 0)
(-0.209132 -0.0507909 0)
(-0.200973 -0.0562094 0)
(-0.191819 -0.0614352 0)
(-0.181553 -0.0662348 0)
(-0.170223 -0.0704618 0)
(-0.157851 -0.0738786 0)
(-0.144476 -0.0762391 0)
(-0.130257 -0.0773441 0)
(-0.115334 -0.0769579 0)
(-0.0999814 -0.0749317 0)
(-0.084451 -0.0711314 0)
(-0.0690772 -0.0655686 0)
(-0.0543656 -0.0584565 0)
(-0.0406889 -0.0500084 0)
(-0.0283278 -0.0405313 0)
(-0.0175448 -0.0303946 0)
(-0.00851756 -0.0200149 0)
(-0.00132527 -0.00979952 0)
(0.0040563 -0.000140068 0)
(0.00772856 0.00860848 0)
(0.00981892 0.0160993 0)
(0.0104196 0.021925 0)
(0.00957217 0.0255989 0)
(0.00736034 0.0265976 0)
(0.00416585 0.0239243 0)
(0.000479007 0.0133777 0)
(0.00106563 -0.0106885 0)
(0.00427007 -0.0190453 0)
(0.00582125 -0.0184566 0)
(0.00625934 -0.0148819 0)
(0.00571772 -0.0101585 0)
(0.00435518 -0.00525278 0)
(0.00223474 -0.000504821 0)
(-0.000653646 0.00392367 0)
(-0.00436999 0.00799391 0)
(-0.00900796 0.0117685 0)
(-0.014676 0.0153911 0)
(-0.0214764 0.0190475 0)
(-0.0294896 0.0229183 0)
(-0.0387627 0.0271357 0)
(-0.0492941 0.0317561 0)
(-0.0610152 0.0367509 0)
(-0.0738029 0.0420221 0)
(-0.0874132 0.0473537 0)
(-0.101492 0.0525275 0)
(-0.115721 0.0572439 0)
(-0.129667 0.0612194 0)
(-0.142886 0.0642531 0)
(-0.155103 0.0662273 0)
(-0.166249 0.067172 0)
(-0.176374 0.0671954 0)
(-0.185523 0.0664307 0)
(-0.193791 0.0650098 0)
(-0.201254 0.0630486 0)
(-0.207988 0.0606488 0)
(-0.214052 0.0578951 0)
(-0.219499 0.0548536 0)
(-0.224376 0.051578 0)
(-0.228727 0.0481112 0)
(-0.232589 0.0444902 0)
(-0.23599 0.0407466 0)
(-0.238956 0.0369099 0)
(-0.241498 0.0330054 0)
(-0.243631 0.0290503 0)
(-0.245393 0.0249953 0)
(-0.246828 0.0208445 0)
(-0.247901 0.0166404 0)
(-0.248618 0.0123582 0)
(-0.248969 0.00799089 0)
(-0.248949 0.00352169 0)
(-0.248545 -0.00106752 0)
(-0.247745 -0.0057964 0)
(-0.246569 -0.0106912 0)
(-0.244995 -0.0157788 0)
(-0.243016 -0.021088 0)
(-0.240628 -0.0266551 0)
(-0.23777 -0.0324794 0)
(-0.234425 -0.0385964 0)
(-0.23053 -0.0449363 0)
(-0.225953 -0.051414 0)
(-0.22057 -0.0579703 0)
(-0.214222 -0.0644796 0)
(-0.206755 -0.0707787 0)
(-0.198047 -0.076623 0)
(-0.188105 -0.0818998 0)
(-0.177027 -0.0864287 0)
(-0.164666 -0.0898161 0)
(-0.151204 -0.0918419 0)
(-0.13668 -0.0921627 0)
(-0.121362 -0.090607 0)
(-0.105482 -0.0869704 0)
(-0.089346 -0.0811804 0)
(-0.073415 -0.0733371 0)
(-0.0582529 -0.063787 0)
(-0.0442519 -0.052887 0)
(-0.0317516 -0.0410743 0)
(-0.0210186 -0.028855 0)
(-0.0122152 -0.0167535 0)
(-0.00537897 -0.00527016 0)
(-0.000423863 0.00516482 0)
(0.00283378 0.0141921 0)
(0.00458384 0.02145 0)
(0.00495551 0.0264783 0)
(0.00405579 0.0286578 0)
(0.00223824 0.0266517 0)
(4.95623e-05 0.015079 0)
(0.00116578 -0.0132008 0)
(0.00340667 -0.0209404 0)
(0.00381744 -0.018968 0)
(0.00310741 -0.0142126 0)
(0.00148439 -0.00865424 0)
(-0.000909548 -0.00298116 0)
(-0.00407347 0.00254059 0)
(-0.00805992 0.0077997 0)
(-0.0129584 0.0127906 0)
(-0.0188734 0.0175933 0)
(-0.0259066 0.0223493 0)
(-0.0341396 0.0272231 0)
(-0.043618 0.0323571 0)
(-0.0543346 0.0378288 0)
(-0.066206 0.0436276 0)
(-0.0790923 0.0496527 0)
(-0.0927091 0.0556845 0)
(-0.106707 0.0614766 0)
(-0.120697 0.0666655 0)
(-0.134216 0.0709598 0)
(-0.146838 0.0741367 0)
(-0.158432 0.0761369 0)
(-0.168963 0.0770227 0)
(-0.178484 0.0769453 0)
(-0.187072 0.0760269 0)
(-0.19481 0.0744092 0)
(-0.201791 0.0722159 0)
(-0.20808 0.0695538 0)
(-0.213739 0.0665124 0)
(-0.218815 0.0631659 0)
(-0.22335 0.059576 0)
(-0.227383 0.0557919 0)
(-0.230943 0.0518554 0)
(-0.234055 0.0478068 0)
(-0.236731 0.0436818 0)
(-0.23906 0.0394425 0)
(-0.241061 0.0351255 0)
(-0.242748 0.030738 0)
(-0.244124 0.0263303 0)
(-0.245163 0.0218926 0)
(-0.245899 0.0173736 0)
(-0.246333 0.0127772 0)
(-0.246479 0.00808507 0)
(-0.24635 0.00328161 0)
(-0.245958 -0.00165041 0)
(-0.245306 -0.00672727 0)
(-0.244386 -0.0119793 0)
(-0.24319 -0.0174313 0)
(-0.241704 -0.0231051 0)
(-0.239908 -0.0290188 0)
(-0.237772 -0.0351764 0)
(-0.235253 -0.041568 0)
(-0.232305 -0.0482717 0)
(-0.228915 -0.0553145 0)
(-0.225014 -0.0626199 0)
(-0.220514 -0.0701224 0)
(-0.215319 -0.0777514 0)
(-0.209187 -0.0850935 0)
(-0.201725 -0.0918704 0)
(-0.192649 -0.0976636 0)
(-0.181958 -0.102237 0)
(-0.169926 -0.105505 0)
(-0.156411 -0.106917 0)
(-0.141683 -0.106253 0)
(-0.125914 -0.103224 0)
(-0.109418 -0.0976663 0)
(-0.0925665 -0.0895601 0)
(-0.0759539 -0.0791585 0)
(-0.0602437 -0.0669943 0)
(-0.0458831 -0.0535732 0)
(-0.0332431 -0.0394763 0)
(-0.022598 -0.0253535 0)
(-0.014088 -0.0118477 0)
(-0.00769247 0.000472625 0)
(-0.00323227 0.0111643 0)
(-0.000438155 0.0198682 0)
(0.000955028 0.0261866 0)
(0.00118735 0.029448 0)
(0.000562698 0.0279835 0)
(-0.000253774 0.0156394 0)
(0.0011119 -0.0152946 0)
(0.00215693 -0.0216676 0)
(0.00134862 -0.0182228 0)
(-0.000513004 -0.012451 0)
(-0.0032014 -0.00609895 0)
(-0.00664394 0.000341763 0)
(-0.0108794 0.00667785 0)
(-0.0159907 0.0128356 0)
(-0.0220779 0.0188261 0)
(-0.0292378 0.0247291 0)
(-0.0375492 0.0306677 0)
(-0.0470566 0.0367692 0)
(-0.0577529 0.0431188 0)
(-0.0695618 0.0497297 0)
(-0.0823353 0.0565065 0)
(-0.0957706 0.0632264 0)
(-0.109528 0.0696048 0)
(-0.123161 0.0752778 0)
(-0.136169 0.0799131 0)
(-0.148278 0.0833076 0)
(-0.159342 0.0854235 0)
(-0.169356 0.0863729 0)
(-0.178367 0.0862682 0)
(-0.186469 0.0852756 0)
(-0.193744 0.0835279 0)
(-0.200277 0.081165 0)
(-0.206138 0.0782945 0)
(-0.21138 0.0750127 0)
(-0.216051 0.0713991 0)
(-0.220191 0.0675212 0)
(-0.223838 0.0634357 0)
(-0.227023 0.0591896 0)
(-0.229776 0.0548233 0)
(-0.232161 0.0503471 0)
(-0.234206 0.045792 0)
(-0.235898 0.0412162 0)
(-0.237235 0.0366076 0)
(-0.238244 0.0319612 0)
(-0.238968 0.0272756 0)
(-0.239423 0.0225436 0)
(-0.239652 0.0177583 0)
(-0.23967 0.0129143 0)
(-0.239502 0.00799503 0)
(-0.23916 0.0029809 0)
(-0.238661 -0.00215284 0)
(-0.238006 -0.00743352 0)
(-0.237188 -0.0128933 0)
(-0.236217 -0.0185645 0)
(-0.235089 -0.0244816 0)
(-0.233798 -0.0306767 0)
(-0.232332 -0.0371741 0)
(-0.230662 -0.0439873 0)
(-0.228752 -0.0511154 0)
(-0.226556 -0.058543 0)
(-0.223998 -0.0662352 0)
(-0.220982 -0.0741184 0)
(-0.21737 -0.0820766 0)
(-0.213146 -0.0903252 0)
(-0.208143 -0.098495 0)
(-0.202112 -0.10622 0)
(-0.194579 -0.112873 0)
(-0.184861 -0.117697 0)
(-0.173193 -0.120548 0)
(-0.159819 -0.121239 0)
(-0.14487 -0.119348 0)
(-0.128596 -0.114562 0)
(-0.111415 -0.106808 0)
(-0.0937284 -0.0961045 0)
(-0.0763299 -0.0829271 0)
(-0.0600235 -0.0680276 0)
(-0.0453127 -0.0520885 0)
(-0.0325981 -0.035847 0)
(-0.0221535 -0.0201083 0)
(-0.0140732 -0.00562499 0)
(-0.00824786 0.0069928 0)
(-0.00437835 0.0172967 0)
(-0.00207087 0.0249224 0)
(-0.000934173 0.0291027 0)
(-0.000538183 0.0281337 0)
(-0.000319826 0.0154541 0)
(0.000922141 -0.0165225 0)
(0.000634968 -0.0211107 0)
(-0.00142512 -0.0162562 0)
(-0.00439108 -0.00960058 0)
(-0.0081363 -0.00248801 0)
(-0.0126308 0.00472977 0)
(-0.0179377 0.0119167 0)
(-0.0241553 0.0190214 0)
(-0.031379 0.0260542 0)
(-0.039684 0.0330774 0)
(-0.0491134 0.0401803 0)
(-0.059661 0.0474372 0)
(-0.0712668 0.0548712 0)
(-0.0837877 0.0624082 0)
(-0.0969175 0.069827 0)
(-0.110311 0.0768134 0)
(-0.123529 0.0830095 0)
(-0.136082 0.0880471 0)
(-0.147738 0.0917566 0)
(-0.158361 0.0941156 0)
(-0.167924 0.0951968 0)
(-0.1765 0.0951549 0)
(-0.184166 0.0941483 0)
(-0.191017 0.0923369 0)
(-0.197122 0.0898518 0)
(-0.202551 0.0868167 0)
(-0.207353 0.0833279 0)
(-0.211575 0.0794737 0)
(-0.215257 0.0753279 0)
(-0.218437 0.0709543 0)
(-0.221153 0.0664072 0)
(-0.223441 0.0617321 0)
(-0.225341 0.056965 0)
(-0.226858 0.0521459 0)
(-0.228036 0.0472804 0)
(-0.228898 0.042388 0)
(-0.229498 0.0374728 0)
(-0.229879 0.0325475 0)
(-0.230049 0.0276167 0)
(-0.230038 0.0226729 0)
(-0.229868 0.0177057 0)
(-0.229559 0.0127015 0)
(-0.229127 0.00764029 0)
(-0.228589 0.00249894 0)
(-0.227956 -0.00274959 0)
(-0.227238 -0.00813469 0)
(-0.226445 -0.01369 0)
(-0.225591 -0.0194486 0)
(-0.224683 -0.0254472 0)
(-0.223728 -0.031722 0)
(-0.222726 -0.0383075 0)
(-0.221667 -0.045236 0)
(-0.220536 -0.0525359 0)
(-0.219306 -0.0602219 0)
(-0.217926 -0.0682865 0)
(-0.216319 -0.0766885 0)
(-0.214368 -0.0853351 0)
(-0.211949 -0.0940814 0)
(-0.208885 -0.102747 0)
(-0.204946 -0.111272 0)
(-0.200068 -0.119553 0)
(-0.19384 -0.126868 0)
(-0.185574 -0.132267 0)
(-0.174526 -0.134751 0)
(-0.161352 -0.134595 0)
(-0.146118 -0.131217 0)
(-0.129282 -0.124465 0)
(-0.111267 -0.114231 0)
(-0.0926491 -0.100678 0)
(-0.0744151 -0.0845483 0)
(-0.0575155 -0.0668523 0)
(-0.0425348 -0.0484739 0)
(-0.0298882 -0.0303309 0)
(-0.0198257 -0.0133938 0)
(-0.0123603 0.00150538 0)
(-0.00724833 0.0137238 0)
(-0.00400356 0.0228094 0)
(-0.00215543 0.0278544 0)
(-0.00102387 0.0274368 0)
(-0.000250948 0.0148901 0)
(0.000662981 -0.0168623 0)
(-0.00107134 -0.0192511 0)
(-0.0043213 -0.0131404 0)
(-0.00835422 -0.00566924 0)
(-0.0131407 0.00217297 0)
(-0.0186634 0.0101692 0)
(-0.0250052 0.0182261 0)
(-0.0322645 0.026295 0)
(-0.0405196 0.034368 0)
(-0.0498141 0.0424746 0)
(-0.0601449 0.0506562 0)
(-0.0714621 0.0589299 0)
(-0.0836433 0.0672407 0)
(-0.0964036 0.0753701 0)
(-0.109381 0.0830036 0)
(-0.122165 0.0897804 0)
(-0.134323 0.0953325 0)
(-0.145587 0.0994686 0)
(-0.155834 0.102164 0)
(-0.165021 0.103477 0)
(-0.173213 0.103574 0)
(-0.180496 0.102627 0)
(-0.186948 0.100801 0)
(-0.192645 0.0982418 0)
(-0.197641 0.0950718 0)
(-0.201991 0.0914019 0)
(-0.205738 0.0873235 0)
(-0.208927 0.082921 0)
(-0.211599 0.0782666 0)
(-0.213798 0.0734239 0)
(-0.215565 0.0684465 0)
(-0.216942 0.0633787 0)
(-0.217972 0.058255 0)
(-0.218692 0.0531042 0)
(-0.219147 0.0479453 0)
(-0.219372 0.0427985 0)
(-0.219404 0.0376696 0)
(-0.21927 0.0325608 0)
(-0.218994 0.0274711 0)
(-0.218598 0.0223917 0)
(-0.218099 0.0173085 0)
(-0.217515 0.0122046 0)
(-0.216861 0.00705868 0)
(-0.216151 0.00184672 0)
(-0.2154 -0.00345817 0)
(-0.214619 -0.00888555 0)
(-0.213825 -0.0144693 0)
(-0.213031 -0.0202439 0)
(-0.212252 -0.0262466 0)
(-0.211502 -0.0325151 0)
(-0.21079 -0.0390874 0)
(-0.210122 -0.0460014 0)
(-0.209501 -0.0532932 0)
(-0.208919 -0.0609919 0)
(-0.208356 -0.0691149 0)
(-0.207765 -0.0776625 0)
(-0.207073 -0.0866116 0)
(-0.206171 -0.0958986 0)
(-0.204902 -0.105363 0)
(-0.203056 -0.114759 0)
(-0.200377 -0.123768 0)
(-0.196525 -0.132188 0)
(-0.191343 -0.139875 0)
(-0.184224 -0.145605 0)
(-0.174044 -0.148003 0)
(-0.160976 -0.146761 0)
(-0.145431 -0.141781 0)
(-0.127875 -0.132777 0)
(-0.108888 -0.119765 0)
(-0.0892779 -0.103138 0)
(-0.0702178 -0.0839164 0)
(-0.0528223 -0.063433 0)
(-0.0377471 -0.0427906 0)
(-0.0254043 -0.0231414 0)
(-0.0159753 -0.00558662 0)
(-0.00933263 0.00896771 0)
(-0.0050119 0.0198436 0)
(-0.0024938 0.0260082 0)
(-0.000961438 0.0262893 0)
(-5.72902e-05 0.0142586 0)
(0.000180121 -0.016173 0)
(-0.00287826 -0.0161461 0)
(-0.00721987 -0.00889131 0)
(-0.0122701 -0.000692239 0)
(-0.0180534 0.00784611 0)
(-0.0245501 0.0166113 0)
(-0.031851 0.0255332 0)
(-0.0400454 0.0345473 0)
(-0.049185 0.0436121 0)
(-0.0592732 0.0527118 0)
(-0.0702679 0.0618339 0)
(-0.0820675 0.0709327 0)
(-0.0944222 0.0798001 0)
(-0.10698 0.0881259 0)
(-0.119351 0.0955481 0)
(-0.131154 0.101717 0)
(-0.142095 0.106399 0)
(-0.15202 0.109531 0)
(-0.1609 0.111182 0)
(-0.168767 0.111501 0)
(-0.175711 0.110684 0)
(-0.181807 0.108901 0)
(-0.18712 0.106308 0)
(-0.191709 0.103038 0)
(-0.195624 0.0992086 0)
(-0.198914 0.0949242 0)
(-0.201626 0.0902769 0)
(-0.203812 0.0853513 0)
(-0.205524 0.0802204 0)
(-0.206812 0.0749482 0)
(-0.207729 0.0695876 0)
(-0.208323 0.0641815 0)
(-0.208642 0.0587634 0)
(-0.208729 0.0533608 0)
(-0.208624 0.0479916 0)
(-0.208359 0.0426682 0)
(-0.207962 0.0373919 0)
(-0.207456 0.0321609 0)
(-0.206861 0.0269695 0)
(-0.206194 0.0218054 0)
(-0.205468 0.0166534 0)
(-0.204698 0.0114951 0)
(-0.203896 0.00630873 0)
(-0.203074 0.00107022 0)
(-0.202245 -0.00424705 0)
(-0.201423 -0.00967236 0)
(-0.200622 -0.0152383 0)
(-0.199858 -0.0209794 0)
(-0.199149 -0.0269325 0)
(-0.198511 -0.033136 0)
(-0.197964 -0.0396299 0)
(-0.197521 -0.046455 0)
(-0.197197 -0.0536518 0)
(-0.197001 -0.0612567 0)
(-0.196931 -0.0692989 0)
(-0.19697 -0.0777971 0)
(-0.197082 -0.0867556 0)
(-0.197204 -0.0961545 0)
(-0.197227 -0.105931 0)
(-0.196987 -0.11596 0)
(-0.196249 -0.126001 0)
(-0.194704 -0.135648 0)
(-0.191968 -0.144397 0)
(-0.187613 -0.152075 0)
(-0.181245 -0.157873 0)
(-0.171778 -0.160029 0)
(-0.158759 -0.157705 0)
(-0.142779 -0.150899 0)
(-0.124327 -0.139313 0)
(-0.104273 -0.123227 0)
(-0.0836506 -0.103291 0)
(-0.0638749 -0.0808899 0)
(-0.0461991 -0.0577238 0)
(-0.0313364 -0.0351594 0)
(-0.0196427 -0.0145923 0)
(-0.0111526 0.00275665 0)
(-0.00552209 0.0159251 0)
(-0.00226304 0.023707 0)
(-0.000481102 0.0250516 0)
(0.000204676 0.013918 0)
(-0.000323699 -0.0143548 0)
(-0.00466248 -0.0118286 0)
(-0.01001 -0.00358533 0)
(-0.0160125 0.00526616 0)
(-0.0227228 0.0144627 0)
(-0.0301105 0.0239731 0)
(-0.0382645 0.0337285 0)
(-0.0472571 0.0436332 0)
(-0.0571073 0.0536 0)
(-0.0677811 0.0635601 0)
(-0.0791942 0.0734515 0)
(-0.0911346 0.0830751 0)
(-0.103283 0.0921367 0)
(-0.115276 0.100275 0)
(-0.12676 0.107147 0)
(-0.137442 0.112491 0)
(-0.147119 0.116178 0)
(-0.155749 0.11827 0)
(-0.16336 0.118912 0)
(-0.17002 0.118299 0)
(-0.175808 0.116623 0)
(-0.180786 0.114046 0)
(-0.185012 0.110715 0)
(-0.188538 0.106758 0)
(-0.191416 0.102291 0)
(-0.193705 0.0974212 0)
(-0.195462 0.0922431 0)
(-0.196749 0.0868427 0)
(-0.197626 0.0812936 0)
(-0.198154 0.0756583 0)
(-0.198386 0.0699872 0)
(-0.198375 0.0643203 0)
(-0.198164 0.0586871 0)
(-0.197795 0.0531084 0)
(-0.197298 0.0475964 0)
(-0.196701 0.042157 0)
(-0.196024 0.036788 0)
(-0.195285 0.0314832 0)
(-0.194498 0.0262329 0)
(-0.193674 0.0210232 0)
(-0.192824 0.0158375 0)
(-0.191955 0.0106564 0)
(-0.191078 0.0054584 0)
(-0.190202 0.00021991 0)
(-0.189337 -0.00508465 0)
(-0.188495 -0.0104837 0)
(-0.18769 -0.0160078 0)
(-0.186938 -0.0216896 0)
(-0.186258 -0.0275645 0)
(-0.185671 -0.0336699 0)
(-0.185197 -0.0400457 0)
(-0.18486 -0.0467337 0)
(-0.184681 -0.0537769 0)
(-0.18468 -0.0612173 0)
(-0.18487 -0.0690939 0)
(-0.185254 -0.0774395 0)
(-0.185821 -0.0862759 0)
(-0.18654 -0.0956062 0)
(-0.187348 -0.105405 0)
(-0.18814 -0.11561 0)
(-0.18875 -0.126096 0)
(-0.188928 -0.136645 0)
(-0.188331 -0.146866 0)
(-0.186522 -0.156128 0)
(-0.182939 -0.163729 0)
(-0.177053 -0.16932 0)
(-0.167895 -0.170907 0)
(-0.154781 -0.167378 0)
(-0.13814 -0.15839 0)
(-0.118646 -0.143854 0)
(-0.0974614 -0.124349 0)
(-0.0758945 -0.100861 0)
(-0.0556481 -0.0752652 0)
(-0.0380876 -0.049688 0)
(-0.0238888 -0.0257861 0)
(-0.013282 -0.00517095 0)
(-0.00608897 0.0108643 0)
(-0.00191864 0.0209177 0)
(0.000121903 0.0238698 0)
(0.000435468 0.0140285 0)
(-0.000838944 -0.0114746 0)
(-0.00634688 -0.00640764 0)
(-0.0126007 0.00269912 0)
(-0.01947 0.0121285 0)
(-0.0270183 0.0219358 0)
(-0.0351907 0.0321474 0)
(-0.0440692 0.0426785 0)
(-0.0537039 0.0533886 0)
(-0.0640801 0.0641349 0)
(-0.0751282 0.0748025 0)
(-0.0866664 0.0851826 0)
(-0.0984248 0.0950075 0)
(-0.110078 0.103923 0)
(-0.121283 0.111575 0)
(-0.131756 0.117682 0)
(-0.141261 0.122054 0)
(-0.149715 0.124703 0)
(-0.157137 0.125774 0)
(-0.163583 0.125459 0)
(-0.169126 0.12396 0)
(-0.173832 0.121461 0)
(-0.177757 0.118117 0)
(-0.180958 0.114073 0)
(-0.183493 0.109459 0)
(-0.185428 0.104396 0)
(-0.18683 0.0989917 0)
(-0.187768 0.0933451 0)
(-0.188312 0.0875412 0)
(-0.188528 0.0816513 0)
(-0.188475 0.0757335 0)
(-0.188208 0.0698328 0)
(-0.187774 0.0639825 0)
(-0.18721 0.0582053 0)
(-0.18655 0.052515 0)
(-0.185818 0.0469174 0)
(-0.185033 0.0414123 0)
(-0.184209 0.0359935 0)
(-0.183358 0.0306517 0)
(-0.182487 0.0253748 0)
(-0.181604 0.0201466 0)
(-0.180711 0.014949 0)
(-0.179816 0.00976332 0)
(-0.178922 0.00456848 0)
(-0.178037 -0.000658242 0)
(-0.177168 -0.00594085 0)
(-0.176325 -0.0113057 0)
(-0.175521 -0.0167808 0)
(-0.174772 -0.0223962 0)
(-0.174095 -0.0281844 0)
(-0.173513 -0.0341806 0)
(-0.17305 -0.0404227 0)
(-0.172733 -0.0469516 0)
(-0.17259 -0.0538106 0)
(-0.172647 -0.0610448 0)
(-0.17293 -0.0686993 0)
(-0.173457 -0.0768172 0)
(-0.174236 -0.0854359 0)
(-0.175258 -0.0945804 0)
(-0.176492 -0.104255 0)
(-0.177872 -0.114434 0)
(-0.179288 -0.125043 0)
(-0.180568 -0.135943 0)
(-0.181456 -0.146906 0)
(-0.181578 -0.157549 0)
(-0.180432 -0.167211 0)
(-0.177407 -0.174974 0)
(-0.171766 -0.180069 0)
(-0.162566 -0.180776 0)
(-0.149071 -0.175651 0)
(-0.131524 -0.164037 0)
(-0.110862 -0.146098 0)
(-0.0885494 -0.122758 0)
(-0.0662472 -0.0954931 0)
(-0.0459574 -0.0668494 0)
(-0.0290787 -0.0393821 0)
(-0.0161466 -0.0150324 0)
(-0.0071767 0.00446468 0)
(-0.00188617 0.0174911 0)
(0.000565447 0.0227016 0)
(0.000619871 0.0145002 0)
(-0.00133521 -0.00758729 0)
(-0.00786784 6.27177e-06 0)
(-0.0149226 0.00986317 0)
(-0.0225619 0.0197972 0)
(-0.0308369 0.0301575 0)
(-0.0396692 0.0410089 0)
(-0.0491296 0.052234 0)
(-0.0592418 0.0636361 0)
(-0.0699576 0.075025 0)
(-0.0811198 0.0861436 0)
(-0.0925151 0.0967346 0)
(-0.103863 0.106468 0)
(-0.114832 0.114965 0)
(-0.125141 0.121923 0)
(-0.134541 0.1271 0)
(-0.142899 0.130439 0)
(-0.150207 0.132054 0)
(-0.156516 0.132142 0)
(-0.16189 0.13091 0)
(-0.166396 0.12856 0)
(-0.170096 0.125266 0)
(-0.173048 0.121187 0)
(-0.17532 0.116469 0)
(-0.17698 0.111248 0)
(-0.178106 0.105649 0)
(-0.178775 0.0997841 0)
(-0.179064 0.0937489 0)
(-0.179044 0.0876251 0)
(-0.178779 0.0814783 0)
(-0.178327 0.0753591 0)
(-0.177735 0.0693045 0)
(-0.177042 0.0633395 0)
(-0.176279 0.0574792 0)
(-0.17547 0.0517302 0)
(-0.174632 0.0460923 0)
(-0.173777 0.04056 0)
(-0.172912 0.0351236 0)
(-0.172042 0.0297705 0)
(-0.171171 0.0244861 0)
(-0.170299 0.0192549 0)
(-0.169427 0.0140571 0)
(-0.168556 0.00887338 0)
(-0.167689 0.00368542 0)
(-0.166828 -0.00152865 0)
(-0.16598 -0.00679115 0)
(-0.165152 -0.0121253 0)
(-0.164355 -0.0175563 0)
(-0.163603 -0.0231107 0)
(-0.162915 -0.0288178 0)
(-0.162311 -0.0347092 0)
(-0.161818 -0.0408196 0)
(-0.161463 -0.0471874 0)
(-0.161279 -0.0538545 0)
(-0.161299 -0.0608664 0)
(-0.161555 -0.0682712 0)
(-0.162078 -0.0761187 0)
(-0.16289 -0.0844573 0)
(-0.164003 -0.0933298 0)