/*--------------------------------*- C++ -*----------------------------------*\
  =========                 |
  \\      /  F ield         | OpenFOAM: The Open Source CFD Toolbox
   \\    /   O peration     | Website:  https://openfoam.org
    \\  /    A nd           | Version:  13
     \\/     M anipulation  |
\*---------------------------------------------------------------------------*/
FoamFile
{
    format      ascii;
    class       volScalarField;
    location    "6.5";
    object      epsilon;
}
// * * * * * * * * * * * * * * * * * * * * * * * * * * * * * * * * * * * * * //

dimensions      [0 2 -3 0 0 0 0];

internalField   nonuniform List<scalar> 
1600
(
2.41292e-05
8.56794e-05
0.000169615
0.000174011
0.000161051
0.000165854
0.000213734
0.000358759
0.00053253
0.000744958
0.00116954
0.00147732
0.00162362
0.00178405
0.0020483
0.0024018
0.00274087
0.00312222
0.0035013
0.00392465
0.00436919
0.00486944
0.00541995
0.00605546
0.00680204
0.00748364
0.00817139
0.00876436
0.00927647
0.00955518
0.00966584
0.00947059
0.00867241
0.00731857
0.00545835
0.00317158
0.00151206
0.000622609
0.000195071
3.99396e-05
0.000117063
0.000149062
0.000188109
0.000182538
0.000179721
0.000215735
0.000374296
0.000792987
0.00141268
0.00228979
0.00408259
0.00502058
0.00513125
0.00481486
0.00450314
0.00435297
0.0042398
0.00419973
0.00419408
0.00427912
0.00440699
0.00459854
0.00481263
0.00507723
0.00539853
0.00579401
0.00623802
0.00675189
0.00726918
0.00771966
0.00792866
0.00796757
0.00744661
0.00643444
0.00475697
0.00271472
0.00111821
0.000479359
0.000170572
6.99481e-05
0.000354496
0.000381884
0.000396814
0.000382526
0.000435068
0.000720002
0.00154769
0.00315671
0.0051541
0.00601192
0.00596721
0.00509019
0.00466124
0.00410154
0.00372415
0.00344384
0.00322599
0.0030825
0.00300002
0.00296478
0.00295577
0.0029909
0.00308675
0.00322242
0.00339826
0.00361032
0.00386666
0.00417213
0.00453034
0.00495637
0.00545636
0.00592966
0.00615304
0.00611482
0.00531263
0.00356542
0.00112785
0.000304452
0.000108152
5.76107e-05
0.000824185
0.000754985
0.000759856
0.000821331
0.00119709
0.00230928
0.0043561
0.00589789
0.00629019
0.00575098
0.00500691
0.00389111
0.00328009
0.00280102
0.0025663
0.00235386
0.00224771
0.00218355
0.00215829
0.00215385
0.00218736
0.00224117
0.00231795
0.00241364
0.00253177
0.00267355
0.00284554
0.00305193
0.00329831
0.0035887
0.00392525
0.00431874
0.0048253
0.00537382
0.00559412
0.00515172
0.00261199
0.000446829
9.10863e-05
4.06608e-05
0.00157659
0.00129701
0.00138708
0.00175034
0.00277849
0.00460063
0.00584591
0.00611366
0.0056341
0.0043227
0.00322391
0.0026616
0.00227933
0.00203893
0.00191025
0.00183192
0.00180123
0.00179331
0.00181106
0.00184673
0.00189349
0.0019485
0.0020135
0.00209014
0.00218273
0.00229604
0.00243728
0.0026124
0.00282435
0.0030745
0.00336125
0.00368167
0.00404689
0.00452471
0.00522893
0.00556039
0.00497138
0.00142513
0.000178011
4.86755e-05
0.00266354
0.00206699
0.00234662
0.00307894
0.0044576
0.0055355
0.00580445
0.00542221
0.00392839
0.00282162
0.00227243
0.0019464
0.00174516
0.00164717
0.00160372
0.00158989
0.00159215
0.0016185
0.00164765
0.00168471
0.00172522
0.001773
0.00183006
0.00190023
0.00198761
0.00209748
0.00223538
0.00240658
0.00261559
0.00286412
0.00314976
0.0034712
0.0038037
0.00416561
0.00461748
0.00521554
0.0054686
0.00380413
0.000550362
9.45511e-05
0.00406115
0.00305657
0.00349293
0.00435101
0.00521847
0.00548647
0.00521607
0.00382101
0.00260741
0.00203104
0.00173511
0.00156111
0.00147868
0.00144476
0.00143413
0.00143302
0.00144319
0.00145562
0.00146857
0.00148561
0.00150733
0.00153934
0.00158441
0.00164777
0.00173422
0.00185001
0.00200139
0.00219459
0.00243421
0.00272069
0.00304696
0.00339662
0.00375803
0.00409715
0.00445625
0.00488501
0.00520386
0.00507357
0.00140881
0.000216604
0.0055614
0.00414013
0.00454927
0.00507814
0.00528171
0.00506902
0.00391613
0.00256217
0.00190978
0.00159714
0.00143478
0.0013533
0.00131589
0.00129847
0.00128722
0.00127585
0.00126432
0.00125062
0.00124021
0.00123571
0.00123544
0.00125162
0.00128354
0.00133666
0.00141629
0.00152901
0.00168308
0.00188797
0.00215334
0.00248569
0.00288215
0.00332208
0.00376337
0.00417011
0.00447663
0.00481149
0.00514642
0.00526014
0.00308571
0.000545053
0.00686163
0.00513286
0.00532644
0.00540382
0.00506359
0.00414564
0.00271804
0.0018948
0.00152341
0.00134535
0.00125614
0.00121159
0.0011846
0.00115897
0.0011295
0.00109577
0.00105998
0.00102534
0.000996073
0.00097747
0.000969945
0.000969898
0.000993644
0.00103586
0.0011045
0.00120507
0.00134702
0.00154242
0.00180655
0.0021558
0.00260167
0.0031382
0.00372396
0.00427344
0.00471685
0.00494385
0.0052284
0.00537137
0.00468913
0.00146782
0.00781731
0.00587147
0.00578406
0.00535931
0.00452057
0.00312814
0.00201604
0.00151836
0.00129315
0.00118502
0.00112934
0.00109227
0.00105533
0.0010118
0.000962321
0.000910248
0.000859564
0.000814456
0.000777741
0.000752781
0.000741095
0.000738111
0.000753157
0.000787306
0.000843543
0.00092814
0.00104977
0.00122136
0.0014611
0.00179286
0.00224325
0.0028311
0.00354334
0.00430026
0.00495157
0.00526668
0.00543998
0.00553539
0.00524015
0.00261649
0.00849813
0.00635109
0.00599135
0.00515411
0.00378241
0.00234913
0.00161287
0.00128898
0.00114087
0.00106835
0.00102161
0.000976811
0.000924503
0.000864789
0.000801883
0.000740636
0.000685061
0.00063817
0.000601346
0.00057635
0.000564389
0.000560834
0.000570904
0.000598339
0.000643665
0.000712739
0.000813137
0.00095703
0.00116283
0.00145762
0.00187801
0.0024651
0.00324448
0.00417951
0.0051027
0.00561725
0.00581565
0.00587523
0.00563496
0.00374086
0.00887747
0.00656993
0.00594226
0.00473293
0.00307743
0.00188266
0.00136229
0.00113493
0.00102911
0.000971449
0.000920988
0.000864358
0.000799104
0.000729467
0.000661051
0.000598424
0.000544467
0.000500632
0.000467175
0.000444687
0.000433851
0.000430483
0.000437682
0.000459592
0.000496044
0.000551879
0.000633536
0.000751623
0.000923084
0.00117482
0.00154782
0.00209853
0.00288796
0.0039401
0.00515083
0.00598057
0.00623607
0.00625911
0.0059958
0.00465456
0.00886779
0.00655749
0.00578519
0.00424966
0.00250928
0.00158438
0.00119372
0.00102219
0.000939875
0.000884757
0.00082643
0.000759584
0.000686435
0.00061312
0.000545039
0.00048558
0.000436224
0.000397177
0.000367947
0.000348385
0.0003389
0.000335884
0.000341218
0.000358754
0.000388281
0.00043362
0.000500145
0.000596733
0.000738052
0.000948639
0.00126905
0.00176267
0.00251566
0.00361101
0.00504931
0.00633518
0.00677054
0.00678126
0.00632989
0.00551478
0.00875718
0.00646094
0.00548042
0.00375684
0.00212312
0.00138229
0.00107223
0.000933734
0.000864453
0.000806226
0.000740395
0.000666834
0.000590524
0.000517903
0.000453355
0.000398908
0.000354873
0.000320649
0.000295326
0.000278337
0.000270033
0.000267343
0.000271361
0.000285512
0.000309733
0.000347029
0.000401867
0.000481588
0.00059855
0.000774191
0.00104617
0.00147892
0.00217256
0.00324911
0.00477291
0.0065188
0.00732091
0.00737128
0.00679871
0.00631234
0.00849292
0.0062409
0.00512037
0.00332722
0.00186037
0.00123783
0.000979643
0.000863301
0.000799201
0.000736518
0.000665191
0.000588302
0.000512154
0.000442596
0.000382785
0.000333585
0.000294496
0.000264465
0.000242384
0.000227464
0.000220096
0.000217666
0.00022072
0.000232256
0.000252401
0.000283561
0.000329478
0.00039623
0.000494068
0.000641136
0.000870769
0.00124462
0.0018708
0.00290989
0.00450912
0.0065807
0.00789359
0.00804011
0.00731985
0.00709448
0.00802979
0.0059667
0.00475286
0.00298161
0.00167341
0.00113132
0.000907726
0.000805962
0.000743067
0.000676521
0.000601902
0.000524204
0.000450093
0.000384494
0.000329456
0.000284987
0.000250086
0.000223473
0.00020397
0.000190673
0.000184005
0.00018177
0.00018411
0.000193609
0.000210581
0.000237022
0.000276133
0.000333048
0.000416338
0.000541208
0.000736277
0.00105735
0.00161135
0.00258162
0.00419953
0.00653664
0.00842706
0.00879081
0.00792556
0.00785577
0.0074937
0.00566657
0.00440265
0.00271287
0.0015378
0.00105138
0.00085131
0.000758999
0.000695696
0.000626533
0.000550451
0.00047352
0.000402245
0.000340623
0.000289837
0.000249325
0.0002178
0.000193879
0.000176374
0.000164387
0.000158196
0.000156088
0.000157897
0.000165794
0.000180253
0.00020299
0.000236812
0.000286167
0.000358352
0.000466179
0.000633945
0.000910871
0.0013982
0.00228969
0.00387746
0.00636934
0.00890408
0.00960445
0.00858293
0.00861413
0.0068582
0.00538218
0.00409117
0.00251013
0.00144034
0.00099199
0.000807291
0.000720847
0.000656778
0.000586255
0.000510035
0.000434717
0.000366403
0.000308326
0.000261067
0.000223709
0.000194816
0.000172973
0.000157002
0.00014603
0.00014015
0.000138104
0.000139516
0.000146152
0.000158602
0.000178386
0.000208031
0.000251498
0.000315168
0.000410034
0.000556713
0.000797776
0.00122571
0.00203512
0.00356637
0.00615808
0.00929398
0.0104668
0.00935074
0.00936832
0.006233
0.00510472
0.003822
0.0023626
0.00137279
0.000947616
0.000773234
0.000690205
0.000625647
0.000554914
0.000479501
0.000406131
0.000340539
0.000285418
0.000240947
0.000206009
0.000179105
0.000158822
0.000144006
0.000133801
0.000128097
0.000126043
0.000127144
0.000132788
0.000143638
0.000161048
0.00018735
0.000226152
0.000283179
0.000368149
0.000498753
0.000711607
0.00108931
0.00181989
0.00327579
0.00592211
0.00959188
0.0113562
0.0101994
0.0101187
0.00550833
0.00485786
0.00360215
0.00225862
0.00132966
0.000918789
0.000747783
0.0006663
0.000601707
0.000531628
0.000457593
0.000386351
0.000323167
0.000270349
0.000227917
0.00019471
0.00016923
0.000150073
0.000136094
0.000126447
0.000120824
0.000118695
0.0001196
0.000124483
0.00013399
0.000149458
0.000173087
0.000208166
0.000259934
0.000337303
0.000455758
0.000646881
0.000983288
0.00164163
0.0030132
0.00569708
0.00977701
0.0122694
0.0111663
0.0108698
0.00492286
0.00464771
0.0034268
0.00219262
0.00131095
0.00089805
0.000730023
0.000648013
0.00058376
0.000515194
0.000443264
0.000373949
0.000312543
0.000261416
0.000220514
0.00018862
0.00016422
0.000145872
0.000132443
0.000123132
0.000117497
0.000115225
0.000116158
0.000120561
0.000129201
0.00014324
0.000164574
0.000196277
0.000243768
0.000315252
0.000424575
0.000599369
0.000902854
0.00149718
0.00277708
0.00545444
0.00990117
0.0131929
0.0122449
0.0116131
0.00442566
0.0044537
0.00331427
0.00215517
0.00131642
0.000898637
0.000718089
0.000635171
0.00057149
0.000504958
0.000434902
0.000368089
0.00030907
0.000259587
0.000219715
0.00018842
0.000164276
0.000146026
0.000132633
0.000123299
0.000117516
0.000114984
0.000115683
0.000119569
0.00012765
0.000140917
0.000160796
0.000190377
0.000234459
0.00030079
0.00040306
0.000565947
0.000844036
0.00138402
0.00257319
0.00521217
0.0099588
0.0141263
0.0134464
0.0123552
0.00398637
0.00429197
0.0032436
0.00215876
0.00133646
0.000906993
0.000718232
0.000626407
0.00056312
0.000499
0.000433176
0.000368763
0.000310601
0.000261565
0.00022191
0.000190706
0.000166635
0.00014845
0.000135097
0.000125793
0.000120028
0.000117573
0.00011816
0.000121481
0.000128777
0.000141017
0.000159942
0.000188356
0.000230521
0.000293735
0.000391262
0.000545413
0.000803626
0.00129898
0.00240127
0.00497691
0.00997867
0.015088
0.0147517
0.0130829
0.00358661
0.00416415
0.00322657
0.0021806
0.00137955
0.000928017
0.000723178
0.000625632
0.000559753
0.00049878
0.000434884
0.000372252
0.000315426
0.000267114
0.000227768
0.000196634
0.000172555
0.000154321
0.000140902
0.000131521
0.000125653
0.000123089
0.000123625
0.000126642
0.000133496
0.000145221
0.000163117
0.000189791
0.000229908
0.00029139
0.000386465
0.000535873
0.000782296
0.00123961
0.00226293
0.00475197
0.00996645
0.0160496
0.0161742
0.0138008
0.00321314
0.00406572
0.0032399
0.00223251
0.00144735
0.000970247
0.000737006
0.00062866
0.000560702
0.000500546
0.000439546
0.000379951
0.000325218
0.000277775
0.000238536
0.000207155
0.000182689
0.000164053
0.000150271
0.000140577
0.00013444
0.000131695
0.000132216
0.000135093
0.000141724
0.000153238
0.000170736
0.000196697
0.000235363
0.000294119
0.000386006
0.000533114
0.000773985
0.00120504
0.00215807
0.00454831
0.00990166
0.0170168
0.0177131
0.0144952
0.00285858
0.00399379
0.00327865
0.00231716
0.00153821
0.00103325
0.000765801
0.000637976
0.000564605
0.00050505
0.00044774
0.000391286
0.000338619
0.000292186
0.000253152
0.000221506
0.000196568
0.000177419
0.000163172
0.000153096
0.000146656
0.000143745
0.000144294
0.000147158
0.000153768
0.000165312
0.00018275
0.000208452
0.00024656
0.000304505
0.000395206
0.000539711
0.000773642
0.00119069
0.00208203
0.00437468
0.0098298
0.017954
0.0193826
0.0151676
0.00251397
0.00393434
0.00334964
0.00243291
0.00165859
0.00112131
0.000813696
0.000658005
0.000573681
0.000513194
0.00045829
0.000405038
0.000354857
0.000309861
0.000271355
0.000239637
0.000214316
0.000194681
0.000179971
0.000169523
0.000162803
0.00015979
0.000160412
0.000163381
0.000170164
0.00018196
0.000199638
0.000225504
0.000263631
0.000321447
0.000412145
0.00055766
0.000791595
0.00118937
0.00204118
0.00422948
0.00975975
0.0188701
0.0211533
0.0158047
0.00217632
0.00387936
0.00344682
0.00256223
0.00180303
0.00123771
0.00088609
0.000695396
0.000592228
0.000525861
0.000471382
0.000420776
0.000373283
0.0003302
0.000292725
0.000261353
0.000235955
0.000216048
0.000201025
0.00019033
0.000183427
0.000180464
0.000181218
0.00018441
0.000191564
0.000203813
0.000222001
0.000248426
0.000287164
0.000345739
0.000437542
0.000585201
0.000821972
0.00121222
0.00202644
0.00410697
0.00965527
0.0197738
0.0230098
0.0164107
0.00183769
0.00378957
0.0035181
0.00273369
0.0019746
0.00138436
0.000987433
0.000754571
0.000624819
0.000546193
0.000488482
0.000438866
0.000393649
0.000352715
0.00031677
0.000286287
0.000261303
0.00024153
0.000226515
0.000215848
0.000208957
0.000206312
0.000207278
0.000210826
0.000218562
0.000231453
0.000250402
0.000277774
0.000317726
0.000378009
0.000472192
0.000623744
0.000866312
0.00125447
0.00203086
0.00401679
0.00953241
0.0206344
0.024897
0.0169721
0.00153543
0.00367338
0.00355375
0.00292223
0.00217007
0.00156478
0.00112626
0.000845849
0.000679833
0.000580281
0.000513302
0.00046116
0.000416565
0.000377301
0.000343053
0.000313924
0.000289908
0.000270808
0.000256272
0.000246058
0.00023947
0.000237542
0.000238827
0.000242893
0.000251457
0.000265193
0.000285171
0.000313926
0.00035577
0.00041885
0.000516828
0.000674064
0.000924924
0.00132155
0.00207363
0.00397368
0.00940537
0.0214077
0.0267384
0.0175002
0.00128309
0.00343846
0.00358183
0.0031089
0.00237357
0.00176883
0.00130233
0.000977073
0.0007685
0.000638486
0.000553872
0.000493246
0.000445554
0.000405928
0.000372479
0.000344498
0.000321618
0.000303551
0.000289885
0.000280568
0.000274587
0.000273832
0.000275562
0.000280347
0.000290039
0.000304881
0.000326245
0.000356982
0.00040159
0.000468857
0.000572348
0.000737628
0.000999315
0.00141114
0.00214657
0.00396194
0.00929323
0.0220817
0.028438
0.0179878
0.00105674
0.00296404
0.00362204
0.00328506
0.0025892
0.00199588
0.00151781
0.00115752
0.00090486
0.00073582
0.000623141
0.000545098
0.000487784
0.000443459
0.000408157
0.000379849
0.000357381
0.000340102
0.000327313
0.000318984
0.00031403
0.000314335
0.000316797
0.00032273
0.000333708
0.000350079
0.000373413
0.000407095
0.000455738
0.000529181
0.000640461
0.000817284
0.00109314
0.00153
0.0022647
0.00402114
0.00924684
0.0226355
0.0298995
0.0184588
0.000845432
0.00226167
0.00355549
0.00335246
0.0027916
0.00222769
0.00176337
0.00139028
0.00110447
0.000895041
0.000745582
0.000639141
0.000562007
0.00050482
0.000461525
0.0004285
0.000403417
0.000384867
0.000371669
0.000363333
0.000359149
0.000359911
0.00036318
0.000370469
0.000382981
0.000401587
0.000427886
0.000466194
0.000520915
0.000603799
0.000726457
0.000921034
0.00121727
0.00169455
0.00245245
0.00419747
0.00929778
0.0231716
0.0310227
0.0189351
0.000730153
0.00160913
0.003301
0.00329232
0.00299266
0.00247293
0.00203979
0.00167573
0.00137497
0.00113414
0.000946772
0.000803936
0.00069628
0.000615237
0.000554728
0.000509407
0.000475691
0.000451269
0.00043412
0.00042338
0.000417529
0.000418179
0.000421694
0.000429847
0.000444332
0.00046646
0.000497596
0.000543764
0.000608422
0.000707139
0.000848277
0.00107351
0.00140397
0.00195147
0.00277686
0.00459169
0.00965968
0.0238458
0.0316783
0.0193086
0.000743061
0.00124982
0.00272383
0.00311159
0.00300401
0.00271202
0.0023551
0.00203447
0.00174577
0.0014913
0.00127429
0.00109445
0.000948765
0.000833193
0.000742119
0.000671742
0.000617746
0.000578015
0.000549325
0.000530651
0.000518248
0.000516085
0.000518997
0.00052736
0.000544454
0.000573102
0.000613648
0.000675382
0.000759454
0.000889347
0.00106667
0.00135328
0.0017528
0.00243723
0.00342406
0.00548282
0.0106656
0.0249271
0.0319432
0.0194401
0.00102561
0.00108978
0.00206079
0.00269774
0.00296168
0.00289645
0.00271359
0.00246828
0.00222129
0.00197995
0.00175102
0.00154293
0.00136032
0.00120434
0.00107848
0.00097781
0.000898277
0.000836738
0.000790499
0.000758795
0.000737878
0.000732443
0.00073682
0.000750286
0.000778255
0.000824478
0.000890775
0.000991798
0.00112535
0.00133026
0.0015963
0.0020262
0.00259064
0.00357534
0.00492036
0.00754301
0.0130181
0.0268022
0.0319275
0.0194324
0.00161458
0.00123986
0.00190287
0.00265257
0.00311208
0.00332139
0.00332428
0.00323142
0.00303939
0.00281648
0.00258453
0.00235631
0.00214377
0.00195375
0.00178817
0.00165073
0.00154066
0.00145642
0.0013984
0.00135983
0.00135123
0.00136086
0.00138913
0.00144753
0.00153432
0.00165941
0.00182066
0.00204402
0.00233775
0.00275609
0.0032862
0.00409291
0.0051053
0.00678974
0.00889376
0.0128222
0.0183859
0.0301831
0.03182
0.0188407
0.00267122
0.00187881
0.00266526
0.00360794
0.00433198
0.00485635
0.00509783
0.00514226
0.00505313
0.00485771
0.00461831
0.00437054
0.00413453
0.00392779
0.00375656
0.00362814
0.00354093
0.00350764
0.00352199
0.00357135
0.00367829
0.0038447
0.00406869
0.00435579
0.00472912
0.00517964
0.00576017
0.00644473
0.00730925
0.00834442
0.00973189
0.0115319
0.0138176
0.0169492
0.0206385
0.0263223
0.0313222
0.0364604
0.032923
0.0177945
0.00458738
0.00446288
0.00768044
0.0103578
0.0118774
0.0127331
0.013084
0.0130922
0.0129782
0.0127207
0.0124024
0.0121183
0.0118985
0.0117609
0.011766
0.0118394
0.0120183
0.0123396
0.0127904
0.0133596
0.0140572
0.0148837
0.0158895
0.0170256
0.0184192
0.0199278
0.0218304
0.0237826
0.0263651
0.0288502
0.0322463
0.0352108
0.039599
0.0428867
0.0479997
0.0501969
0.0487719
0.0428241
0.0334085
0.01551
0.00310564
0.00482682
0.00632861
0.00788446
0.0092897
0.0105683
0.0116161
0.0125149
0.0131268
0.0135437
0.0137853
0.0138971
0.0138799
0.0138224
0.0136992
0.0135394
0.0133752
0.0131957
0.0130329
0.0128717
0.0127441
0.0126242
0.0125536
0.0124903
0.0124918
0.0125129
0.0125775
0.0126616
0.0128495
0.0129934
0.0133062
0.0135161
0.0139982
0.0143603
0.0151767
0.015673
0.0165249
0.0165701
0.0160033
0.0133626
)
;

boundaryField
{
    movingWall
    {
        type            epsilonWallFunction;
        value           nonuniform List<scalar> 
40
(
0.00310564
0.00482682
0.00632861
0.00788446
0.0092897
0.0105683
0.0116161
0.0125149
0.0131268
0.0135437
0.0137853
0.0138971
0.0138799
0.0138224
0.0136992
0.0135394
0.0133752
0.0131957
0.0130329
0.0128717
0.0127441
0.0126242
0.0125536
0.0124903
0.0124918
0.0125129
0.0125775
0.0126616
0.0128495
0.0129934
0.0133062
0.0135161
0.0139982
0.0143603
0.0151767
0.015673
0.0165249
0.0165701
0.0160033
0.0133626
)
;
    }
    fixedWalls
    {
        type            epsilonWallFunction;
        value           nonuniform List<scalar> 
120
(
2.41292e-05
0.000117063
0.000354496
0.000824185
0.00157659
0.00266354
0.00406115
0.0055614
0.00686163
0.00781731
0.00849813
0.00887747
0.00886779
0.00875718
0.00849292
0.00802979
0.0074937
0.0068582
0.006233
0.00550833
0.00492286
0.00442566
0.00398637
0.00358661
0.00321314
0.00285858
0.00251397
0.00217632
0.00183769
0.00153543
0.00128309
0.00105674
0.000845432
0.000730153
0.000743061
0.00102561
0.00161458
0.00267122
0.00458738
0.00310564
3.99396e-05
6.99481e-05
5.76107e-05
4.06608e-05
4.86755e-05
9.45511e-05
0.000216604
0.000545053
0.00146782
0.00261649
0.00374086
0.00465456
0.00551478
0.00631234
0.00709448
0.00785577
0.00861413
0.00936832
0.0101187
0.0108698
0.0116131
0.0123552
0.0130829
0.0138008
0.0144952
0.0151676
0.0158047
0.0164107
0.0169721
0.0175002
0.0179878
0.0184588
0.0189351
0.0193086
0.0194401
0.0194324
0.0188407
0.0177945
0.01551
0.0133626
2.41292e-05
8.56794e-05
0.000169615
0.000174011
0.000161051
0.000165854
0.000213734
0.000358759
0.00053253
0.000744958
0.00116954
0.00147732
0.00162362
0.00178405
0.0020483
0.0024018
0.00274087
0.00312222
0.0035013
0.00392465
0.00436919
0.00486944
0.00541995
0.00605546
0.00680204
0.00748364
0.00817139
0.00876436
0.00927647
0.00955518
0.00966584
0.00947059
0.00867241
0.00731857
0.00545835
0.00317158
0.00151206
0.000622609
0.000195071
3.99396e-05
)
;
    }
    frontAndBack
    {
        type            empty;
    }
}


// ************************************************************************* //
