/*--------------------------------*- C++ -*----------------------------------*\
  =========                 |
  \\      /  F ield         | OpenFOAM: The Open Source CFD Toolbox
   \\    /   O peration     | Website:  https://openfoam.org
    \\  /    A nd           | Version:  13
     \\/     M anipulation  |
\*---------------------------------------------------------------------------*/
FoamFile
{
    format      ascii;
    class       volScalarField;
    location    "1.5";
    object      k;
}
// * * * * * * * * * * * * * * * * * * * * * * * * * * * * * * * * * * * * * //

dimensions      [0 2 -2 0 0 0 0];

internalField   nonuniform List<scalar> 
6400
(
2.46583e-07
1.20414e-06
2.52733e-06
3.89154e-06
5.18874e-06
6.39038e-06
7.50608e-06
8.5531e-06
9.54502e-06
1.0492e-05
1.14029e-05
1.22868e-05
1.31535e-05
1.40136e-05
1.48778e-05
1.57562e-05
1.66574e-05
1.75885e-05
1.85547e-05
1.95592e-05
2.06043e-05
2.16912e-05
2.2822e-05
2.39992e-05
2.5227e-05
2.65111e-05
2.78588e-05
2.92796e-05
3.07844e-05
3.23858e-05
3.40975e-05
3.59342e-05
3.79106e-05
4.00409e-05
4.23376e-05
4.48108e-05
4.74669e-05
5.03072e-05
5.33267e-05
5.65129e-05
5.98447e-05
6.32902e-05
6.68049e-05
7.03289e-05
7.37856e-05
7.70849e-05
8.01421e-05
8.29432e-05
8.58051e-05
8.82405e-05
8.99943e-05
9.11528e-05
9.16858e-05
9.14531e-05
9.01825e-05
8.79913e-05
8.48933e-05
8.09405e-05
7.62309e-05
7.09052e-05
6.5138e-05
5.91239e-05
5.30605e-05
4.71311e-05
4.14887e-05
3.62464e-05
3.14716e-05
2.71811e-05
2.33724e-05
2.00075e-05
1.70342e-05
1.44283e-05
1.20915e-05
9.94806e-06
7.95927e-06
6.09453e-06
4.33567e-06
2.69477e-06
1.25735e-06
2.57521e-07
1.21417e-06
1.01437e-05
2.17309e-05
3.32984e-05
4.38927e-05
5.3476e-05
6.22445e-05
7.03833e-05
7.80235e-05
8.52606e-05
9.21749e-05
9.88448e-05
0.000105351
0.000111774
0.000118194
0.000124679
0.000131289
0.000138067
0.000145045
0.000152241
0.000159669
0.000167337
0.000175259
0.000183457
0.00019196
0.00020081
0.000210059
0.000219768
0.000230005
0.000240845
0.000252364
0.000264637
0.00027773
0.000291699
0.000306581
0.000322386
0.000339097
0.000356661
0.000374988
0.000393948
0.000413372
0.000433044
0.000452701
0.000472026
0.00049065
0.000508143
0.000524045
0.000537783
0.000548921
0.000557759
0.000562951
0.000564886
0.000564559
0.000559943
0.00055073
0.000537206
0.000519426
0.000497577
0.000472029
0.000443338
0.000412227
0.000379537
0.000346169
0.000313009
0.000280852
0.00025034
0.000221907
0.000195772
0.00017197
0.000150375
0.00013073
0.000112638
9.57908e-05
7.99754e-05
6.49535e-05
5.05031e-05
3.64761e-05
2.29393e-05
1.05514e-05
1.26988e-06
2.66275e-06
2.26599e-05
4.71801e-05
7.01723e-05
9.05756e-05
0.000108758
0.000125201
0.000140275
0.000154242
0.0001673
0.000179621
0.000191359
0.000202663
0.000213671
0.000224502
0.000235253
0.000246002
0.000256801
0.000267692
0.000278707
0.000289876
0.000301239
0.000312844
0.000324758
0.000337064
0.000349859
0.000363252
0.000377357
0.000392291
0.000408168
0.000425092
0.000443159
0.000462443
0.000482999
0.000504851
0.000527988
0.000552364
0.000577894
0.000604453
0.000631876
0.000659952
0.000688424
0.000716985
0.000745276
0.000772891
0.000799379
0.000824247
0.000846949
0.000866943
0.000883612
0.000896261
0.000903297
0.000905698
0.000903458
0.000893659
0.000876837
0.000853007
0.000822278
0.000785033
0.000741974
0.00069411
0.000642715
0.000589251
0.000535258
0.000482218
0.00043142
0.000383847
0.000340098
0.000300379
0.000264555
0.000232217
0.000202765
0.000175515
0.00014978
0.000124886
0.000100181
7.50525e-05
4.912e-05
2.32834e-05
2.75737e-06
4.39943e-06
3.70866e-05
7.42391e-05
0.000106724
0.000134593
0.000159119
0.000181168
0.000201273
0.000219786
0.000236966
0.000253029
0.000268171
0.000282572
0.000296392
0.000309773
0.000322829
0.000335659
0.000348346
0.000360965
0.000373595
0.000386327
0.000399264
0.000412528
0.000426261
0.000440618
0.000455763
0.000471866
0.000489093
0.000507604
0.000527549
0.000549058
0.000572243
0.000597188
0.000623948
0.000652542
0.000682949
0.000715112
0.000748929
0.000784249
0.000820871
0.000858541
0.000896946
0.000935712
0.000974402
0.00101251
0.00104947
0.00108462
0.00111723
0.00114649
0.0011715
0.00119138
0.00120441
0.00120998
0.00121043
0.00120114
0.00118208
0.00115342
0.00111518
0.00106768
0.00101167
0.000948322
0.000879238
0.000806372
0.000731902
0.000658054
0.000586895
0.000520123
0.000458904
0.000403789
0.000354734
0.000311207
0.000272336
0.000237061
0.000204249
0.00017276
0.000141439
0.00010904
7.41345e-05
3.65036e-05
4.37391e-06
6.35252e-06
5.24505e-05
0.000101392
0.000141749
0.000175479
0.000204897
0.000231262
0.00025526
0.000277308
0.000297693
0.000316646
0.000334372
0.000351057
0.000366873
0.000381972
0.000396496
0.000410575
0.000424341
0.000437932
0.000451498
0.000465207
0.000479251
0.00049384
0.000509202
0.000525568
0.000543172
0.000562245
0.000583004
0.000605651
0.000630368
0.000657311
0.000686606
0.000718342
0.000752569
0.000789304
0.000828515
0.00087012
0.000913981
0.000959897
0.0010076
0.00105677
0.00110698
0.00115776
0.00120854
0.00125866
0.00130738
0.00135389
0.00139725
0.00143648
0.00147048
0.00149814
0.00151831
0.00152843
0.0015313
0.00152423
0.00150438
0.00147232
0.00142795
0.00137137
0.00130318
0.00122453
0.00113712
0.00104325
0.000945711
0.000847558
0.00075189
0.000661496
0.000578535
0.000504287
0.000439069
0.00038233
0.000332891
0.000289206
0.000249594
0.000212357
0.000175776
0.000137936
9.6304e-05
4.89351e-05
5.94504e-06
8.45867e-06
6.83051e-05
0.00012824
0.000175462
0.000214154
0.000247634
0.000277546
0.000304738
0.000329689
0.000352705
0.00037402
0.000393831
0.000412324
0.000429675
0.000446053
0.000461632
0.000476592
0.000491128
0.000505456
0.000519817
0.000534478
0.000549726
0.000565868
0.000583217
0.000602083
0.000622775
0.000645584
0.00067078
0.000698607
0.000729278
0.000762973
0.000799828
0.000839939
0.000883348
0.00093004
0.000979933
0.00103287
0.00108863
0.0011469
0.00120729
0.00126932
0.00133245
0.00139603
0.00145934
0.0015216
0.00158193
0.00163943
0.00169309
0.00174181
0.00178447
0.0018199
0.00184696
0.00186277
0.00186861
0.00186559
0.00184747
0.00181491
0.00176767
0.00170543
0.00162836
0.00153723
0.00143347
0.00131931
0.00119783
0.00107274
0.000948258
0.000828601
0.000717536
0.000617804
0.000530745
0.000456228
0.0003929
0.000338644
0.000291022
0.000247566
0.000205828
0.000163123
0.000115831
6.02274e-05
7.40756e-06
1.06739e-05
8.43726e-05
0.000154598
0.000208008
0.00025111
0.000288138
0.000321098
0.000351004
0.000378404
0.000403631
0.000426918
0.000448459
0.000468436
0.000487035
0.000504452
0.000520901
0.000536625
0.000551893
0.000567013
0.000582324
0.000598194
0.000615017
0.000633199
0.000653149
0.000675271
0.00069995
0.000727543
0.000758376
0.000792731
0.000830843
0.000872896
0.000919011
0.000969243
0.00102357
0.00108187
0.00114396
0.00120953
0.00127818
0.00134942
0.00142268
0.00149728
0.00157251
0.00164759
0.00172169
0.00179394
0.00186347
0.0019294
0.00199077
0.00204659
0.00209583
0.00213746
0.00217045
0.00219271
0.00220282
0.0022045
0.00219173
0.00216306
0.00211829
0.00205648
0.00197705
0.00188009
0.00176628
0.00163709
0.00149529
0.00134466
0.00119008
0.00103717
0.000891713
0.000758803
0.000641941
0.00054247
0.000459534
0.000390616
0.000332339
0.000281135
0.000233513
0.000185809
0.00013327
7.04432e-05
8.75693e-06
1.2968e-05
0.000100464
0.000180338
0.000239436
0.000286577
0.000326812
0.000362477
0.00039475
0.00042426
0.000451372
0.000476332
0.000499337
0.000520574
0.000540249
0.000558591
0.000575868
0.000592391
0.000608515
0.000624643
0.00064122
0.000658724
0.000677662
0.00069855
0.000721905
0.000748224
0.000777978
0.000811588
0.000849423
0.000891781
0.000938887
0.000990877
0.00104779
0.00110957
0.00117602
0.00124685
0.00132163
0.00139982
0.00148077
0.00156375
0.00164794
0.00173251
0.00181657
0.00189927
0.00197976
0.00205726
0.00213104
0.00220041
0.00226471
0.00232323
0.00237524
0.0024201
0.00245719
0.00248548
0.00250204
0.00250802
0.00250375
0.00248414
0.00244861
0.00239538
0.00232272
0.0022298
0.0021166
0.00198275
0.00182999
0.00166131
0.00148127
0.00129613
0.00111345
0.000941036
0.000785706
0.000651948
0.000540974
0.000450811
0.000377328
0.000315539
0.000260444
0.000207023
0.000149197
7.97752e-05
1.00106e-05
1.53121e-05
0.000116437
0.000205355
0.000269738
0.000320648
0.000363846
0.00040197
0.000436355
0.000467716
0.000496466
0.000522873
0.000547149
0.000569502
0.000590166
0.000609415
0.000627578
0.00064504
0.00066225
0.000679712
0.000697982
0.000717658
0.000739368
0.00076375
0.000791433
0.000823016
0.000859046
0.000899993
0.000946232
0.000998028
0.00105552
0.0011187
0.00118744
0.00126142
0.00134019
0.00142314
0.00150953
0.00159848
0.00168906
0.00178025
0.00187104
0.00196043
0.00204751
0.00213145
0.00221154
0.00228722
0.00235808
0.00242387
0.00248459
0.00253996
0.00258964
0.00263331
0.00267049
0.00270099
0.00272444
0.00273888
0.00274445
0.00273969
0.00272052
0.0026852
0.00263001
0.00255216
0.00245324
0.00232911
0.00217964
0.0020066
0.00181267
0.00160358
0.00138758
0.00117442
0.000974527
0.000797012
0.000647454
0.000526603
0.00043078
0.000353699
0.000288355
0.00022778
0.000164172
8.84378e-05
1.11913e-05
1.76811e-05
0.000132177
0.000229564
0.000298888
0.000353347
0.000399321
0.000439722
0.00047603
0.000509052
0.000539256
0.000566948
0.00059237
0.000615764
0.000637403
0.000657614
0.000676795
0.000695414
0.000714015
0.000733211
0.00075368
0.000776147
0.000801372
0.000830121
0.000863141
0.000901123
0.000944664
0.000994237
0.00105015
0.00111255
0.00118137
0.00125633
0.00133699
0.00142265
0.00151249
0.00160547
0.00170047
0.00179626
0.00189159
0.00198523
0.00207603
0.00216297
0.00224524
0.00232218
0.00239341
0.0024588
0.00251831
0.00257212
0.00262037
0.00266338
0.00270176
0.00273625
0.00276743
0.00279562
0.00282062
0.00284208
0.00285966
0.00287029
0.00287406
0.00286798
0.00284763
0.00280765
0.00273929
0.00264158
0.00251199
0.00235304
0.00216254
0.00194513
0.00170793
0.00146072
0.00121654
0.000989311
0.000790836
0.000627643
0.000499318
0.000399633
0.0003195
0.000249289
0.0001788
9.66542e-05
1.23224e-05
2.00536e-05
0.000147594
0.000252895
0.000326849
0.000384662
0.000433261
0.000475798
0.000513891
0.000548437
0.000579971
0.000608847
0.000635352
0.000659771
0.000682429
0.000703717
0.000724106
0.000744154
0.000764507
0.000785896
0.000809125
0.00083506
0.000864599
0.000898642
0.00093804
0.000983545
0.00103575
0.00109505
0.00116158
0.00123521
0.00131554
0.00140188
0.00149331
0.00158869
0.00168668
0.00178582
0.00188455
0.00198134
0.00207469
0.00216325
0.00224591
0.00232181
0.0023904
0.00245137
0.00250501
0.00255192
0.00259254
0.00262796
0.0026591
0.00268691
0.00271315
0.00273879
0.00276449
0.00279059
0.00281712
0.00284368
0.00286939
0.00289291
0.00291307
0.00292594
0.00293101
0.00293033
0.00291114
0.00286975
0.00278972
0.00266638
0.00249974
0.00229552
0.00205688
0.001791
0.00151158
0.00123596
0.000982306
0.000765336
0.000591865
0.000459091
0.00035711
0.000273203
0.000193847
0.000104688
1.34319e-05
2.24111e-05
0.000162622
0.000275295
0.000353584
0.00041457
0.000465663
0.000510226
0.000550005
0.000585986
0.000618775
0.000648786
0.000676362
0.000701843
0.000725616
0.000748142
0.000769974
0.000791764
0.000814268
0.000838343
0.000864932
0.000895046
0.000929726
0.000969991
0.00101677
0.00107081
0.00113262
0.00120237
0.00127988
0.0013646
0.00145563
0.00155174
0.00165145
0.00175305
0.00185472
0.00195453
0.0020506
0.00214114
0.00222458
0.00229963
0.0023654
0.0024215
0.00246799
0.00250448
0.00253297
0.00255553
0.00257332
0.00258684
0.00259741
0.0026075
0.00261856
0.00263203
0.00264926
0.00267095
0.00269733
0.00272858
0.00276429
0.0028036
0.00284506
0.00288606
0.00292327
0.00294941
0.00296103
0.00296215
0.00294359
0.00289317
0.00278757
0.00262198
0.00240716
0.00214541
0.00184904
0.00153593
0.00122874
0.000950722
0.000719275
0.000540028
0.000405911
0.000301946
0.000210399
0.000112905
1.45598e-05
2.47379e-05
0.000177206
0.000296725
0.000379064
0.000443048
0.000496514
0.000543016
0.000584411
0.000621775
0.000655787
0.000686929
0.000715609
0.000742233
0.000767255
0.000791216
0.000814754
0.000838627
0.000863708
0.000890985
0.000921549
0.00095656
0.000997191
0.00104455
0.00109958
0.00116294
0.0012349
0.00131527
0.00140339
0.00149813
0.00159795
0.00170099
0.00180516
0.0019082
0.00200781
0.00210171
0.00218781
0.00226424
0.0023296
0.00238286
0.00242357
0.00245226
0.00247185
0.00248163
0.00248418
0.00248137
0.00247165
0.00245998
0.00244956
0.00244286
0.00244026
0.00244129
0.00244946
0.00246548
0.00248912
0.00252119
0.00256168
0.00261034
0.0026663
0.00272816
0.00279358
0.00285899
0.00291946
0.00296327
0.00298183
0.00298346
0.00295646
0.00287928
0.00272373
0.00249406
0.00220739
0.00187793
0.00152927
0.00119115
0.000892603
0.000652496
0.000472624
0.000339129
0.000230093
0.000121869
1.57716e-05
2.70205e-05
0.000191306
0.000317157
0.000403266
0.000470075
0.000525802
0.000574168
0.000617134
0.000655859
0.000691096
0.000723403
0.000753257
0.000781135
0.000807571
0.000833187
0.000858718
0.00088503
0.00091312
0.00094412
0.000979268
0.00101986
0.00106719
0.00112239
0.00118633
0.00125943
0.00134158
0.00143206
0.00152956
0.00163224
0.00173788
0.00184394
0.00194772
0.0020465
0.0021376
0.00221856
0.00228728
0.00234205
0.00238223
0.002407
0.0024182
0.00242126
0.00241414
0.00239282
0.00236411
0.00233381
0.00230371
0.00227585
0.00225225
0.0022343
0.00222373
0.00221962
0.00222034
0.00223199
0.00225137
0.00227996
0.00231809
0.00236641
0.00242541
0.00249531
0.00257542
0.00266364
0.00275602
0.00284728
0.00293016
0.00298396
0.00300407
0.00299648
0.0029419
0.00279843
0.0025547
0.00223972
0.00187306
0.00148692
0.00112019
0.000807466
0.000566108
0.000389999
0.000255411
0.00013246
1.71734e-05
2.92475e-05
0.000204891
0.00033657
0.000426173
0.000495636
0.000553517
0.000603685
0.000648192
0.000688277
0.00072477
0.000758302
0.000789425
0.000818696
0.000846729
0.000874236
0.000902053
0.000931161
0.000962691
0.000997917
0.00103822
0.00108503
0.00113967
0.00120324
0.00127641
0.00135922
0.00145099
0.00155032
0.00165514
0.00176283
0.00187044
0.00197482
0.00207277
0.0021612
0.00223731
0.00229866
0.00234382
0.00236952
0.00237918
0.00238002
0.00236451
0.00233252
0.00229191
0.00224579
0.00219893
0.00215473
0.0021153
0.0020822
0.00205655
0.00203868
0.00202974
0.00202677
0.00202914
0.00204052
0.0020579
0.00208219
0.00211347
0.00215264
0.00220112
0.00226088
0.002334
0.0024223
0.00252516
0.00263708
0.00275519
0.00286989
0.00296559
0.00301317
0.00302301
0.00298599
0.00285117
0.00258851
0.0022383
0.00182887
0.00140437
0.00101443
0.000696808
0.000461846
0.000290087
0.000146064
1.89386e-05
3.14083e-05
0.000217936
0.000354954
0.000447779
0.000519725
0.000579654
0.000631566
0.000677598
0.00071906
0.000756856
0.000791692
0.0008242
0.000855015
0.000884838
0.000914476
0.000944871
0.000977124
0.0010125
0.00105242
0.00109839
0.00115191
0.0012143
0.00128651
0.00136884
0.0014608
0.001561
0.00166721
0.00177655
0.00188563
0.00199083
0.00208848
0.00217504
0.00224738
0.00230287
0.00233776
0.00235162
0.00235336
0.00233833
0.00230343
0.00225433
0.00219718
0.00213793
0.00207986
0.0020269
0.0019817
0.00194552
0.00191887
0.00190174
0.001894
0.00189217
0.00189612
0.00190747
0.0019246
0.00194617
0.00197196
0.00200157
0.00203508
0.00207292
0.00211605
0.00216623
0.00222652
0.00230291
0.00240264
0.00252382
0.00266104
0.00280359
0.00293814
0.00302
0.00304611
0.00301835
0.00288336
0.00259213
0.00219674
0.00173867
0.00127819
0.00087495
0.000563821
0.000339424
0.00016478
2.13416e-05
3.34929e-05
0.000230421
0.000372306
0.000468083
0.000542339
0.000604212
0.000657816
0.000705362
0.000748228
0.000787386
0.000823619
0.000857634
0.000890151
0.000921959
0.000953962
0.000987213
0.00102294
0.00106253
0.00110754
0.00115958
0.00122017
0.00129053
0.0013713
0.00146229
0.00156231
0.00166915
0.00177971
0.00189027
0.00199673
0.00209494
0.0021809
0.00225096
0.00230221
0.00232786
0.00233472
0.00232797
0.0022987
0.00224887
0.00218571
0.0021167
0.0020466
0.0019811
0.00192365
0.00187671
0.00184141
0.0018172
0.00180525
0.00180136
0.00180294
0.00181266
0.00182767
0.00184759
0.00187111
0.00189739
0.00192601
0.00195649
0.00198868
0.00202258
0.00205845
0.00209704
0.00213985
0.00218945
0.00225034
0.00232863
0.00243672
0.00257995
0.00274324
0.00290826
0.00302206
0.00306444
0.00304062
0.00289227
0.00255839
0.00210563
0.00159558
0.00110758
0.00070582
0.000410405
0.00019161
2.4788e-05
3.54923e-05
0.000242328
0.000388626
0.000487088
0.000563482
0.000627195
0.000682441
0.000731493
0.000775793
0.000816378
0.000854102
0.00088975
0.000924124
0.000958104
0.000992692
0.00102905
0.00106853
0.00111266
0.00116308
0.00122146
0.00128928
0.00136754
0.00145646
0.00155518
0.00166172
0.00177295
0.00188491
0.00199311
0.0020929
0.00217978
0.00224972
0.00229782
0.00231879
0.00232169
0.0023063
0.00226604
0.00220447
0.00213129
0.002052
0.00197408
0.00190295
0.00184295
0.00179613
0.00176292
0.00174403
0.0017365
0.00173569
0.00174319
0.00175713
0.00177626
0.0017993
0.00182542
0.00185383
0.00188367
0.00191445
0.00194618
0.00197864
0.00201167
0.00204524
0.00207962
0.00211535
0.00215279
0.00219349
0.00224244
0.00230571
0.00239321
0.00252126
0.00269588
0.00288419
0.00302545
0.00308004
0.00305201
0.00287073
0.00247537
0.00195277
0.00139516
0.000896073
0.000511217
0.000230648
2.9871e-05
3.73994e-05
0.000253646
0.000403916
0.000504802
0.000583161
0.000648611
0.000705445
0.000755997
0.00080176
0.000843836
0.000883144
0.000920545
0.000956922
0.000993243
0.00103061
0.0010703
0.00111378
0.00116268
0.00121872
0.00128357
0.00135858
0.00144439
0.00154067
0.00164583
0.00175695
0.00187003
0.00198028
0.00208259
0.00217197
0.00224387
0.00229172
0.00231105
0.00231186
0.00229115
0.00224298
0.0021736
0.00209151
0.00200427
0.00191938
0.00184361
0.00178134
0.00173466
0.00170387
0.00168929
0.00168483
0.0016873
0.00169885
0.0017161
0.00173791
0.00176313
0.00179099
0.00182087
0.00185239
0.00188533
0.00191951
0.0019544
0.00198946
0.00202426
0.00205796
0.00209012
0.00212108
0.00215167
0.00218408
0.00222004
0.00226177
0.00231261
0.00238533
0.00249373
0.00266564
0.00287403
0.00303341
0.00309272
0.00304682
0.00280585
0.00232358
0.0017287
0.00113795
0.000649634
0.000286734
3.73537e-05
3.92085e-05
0.000264365
0.000418183
0.000521235
0.000601389
0.000668469
0.000726836
0.000778875
0.000826128
0.000869751
0.000910728
0.00094999
0.000988499
0.00102731
0.00106763
0.00111082
0.00115847
0.00121229
0.00127405
0.00134533
0.00142724
0.00151999
0.00162258
0.00173256
0.00184612
0.00195838
0.00206388
0.00215707
0.00223291
0.00228404
0.00230475
0.00230532
0.00228272
0.00223018
0.00215592
0.00206718
0.00197286
0.00188154
0.00180072
0.0017354
0.00168771
0.00165884
0.00164622
0.00164331
0.00164862
0.00166215
0.00168137
0.00170449
0.00173062
0.00175909
0.00178955
0.00182182
0.00185589
0.00189196
0.00192989
0.00196945
0.00201006
0.00205056
0.00208999
0.00212667
0.00216023
0.00218898
0.00221342
0.00223512
0.00225938
0.00229358
0.0023389
0.00239859
0.0024957
0.00265572
0.00288149
0.00304534
0.00309775
0.00301521
0.00267011
0.00208823
0.00142728
0.000830295
0.000364388
4.80562e-05
4.09143e-05
0.000274478
0.000431431
0.0005364
0.00061818
0.000686781
0.000746621
0.000800128
0.000848888
0.000894106
0.000936823
0.000978037
0.00101879
0.00106021
0.0011036
0.00115043
0.00120235
0.00126115
0.00132857
0.00140606
0.0014944
0.00159324
0.00170084
0.00181386
0.00192763
0.00203651
0.00213446
0.00221578
0.00227358
0.00229898
0.00230142
0.00228054
0.00222764
0.00215097
0.00205773
0.00195732
0.00185947
0.00177267
0.0017028
0.00165235
0.0016231
0.00161089
0.00160843
0.00161472
0.00162907
0.0016488
0.00167209
0.00169797
0.0017259
0.00175563
0.00178714
0.00182052
0.00185591
0.00189345
0.00193328
0.0019755
0.00202022
0.00206719
0.00211539
0.00216293
0.00220634
0.00224336
0.00227356
0.00229443
0.00230653
0.00231731
0.00233614
0.00237199
0.00242529
0.00251129
0.00266589
0.00290668
0.00305759
0.00308789
0.00293382
0.00244223
0.0017507
0.00105173
0.000465464
6.24845e-05
4.25116e-05
0.000283976
0.00044367
0.000550314
0.000633552
0.00070356
0.000764806
0.000819755
0.000870028
0.000916874
0.000961386
0.00100462
0.00104769
0.00109181
0.00113836
0.00118888
0.00124511
0.00130885
0.00138176
0.00146508
0.00155918
0.00166308
0.00177425
0.00188849
0.00200032
0.00210346
0.00219145
0.00225818
0.00229195
0.00229896
0.00228299
0.00223375
0.00215772
0.00206229
0.00195703
0.00185258
0.00175866
0.0016823
0.00162685
0.00159456
0.00158099
0.00157802
0.00158365
0.0015976
0.00161685
0.00163939
0.00166415
0.00169064
0.00171868
0.00174832
0.00177974
0.00181323
0.00184907
0.00188758
0.001929
0.00197347
0.00202095
0.00207125
0.00212432
0.00218015
0.00223651
0.00228981
0.00233388
0.00236715
0.00238401
0.00238962
0.00239017
0.00239053
0.00241147
0.00245728
0.0025387
0.00269371
0.00294383
0.00306809
0.00304869
0.00275086
0.00208515
0.00130494
0.000586949
8.03906e-05
4.39963e-05
0.000292855
0.000454911
0.000562993
0.000647522
0.000718822
0.000781401
0.000837753
0.000889532
0.000938023
0.000984365
0.00102967
0.00107511
0.00112198
0.00117171
0.00122594
0.00128643
0.00135495
0.00143305
0.00152169
0.00162073
0.00172856
0.0018418
0.00195549
0.00206343
0.00215893
0.00223536
0.00228134
0.00229604
0.00228755
0.00224609
0.00217422
0.00207948
0.00197122
0.00186061
0.00175863
0.00167382
0.00161082
0.00157247
0.00155561
0.00155114
0.00155475
0.0015672
0.00158517
0.00160636
0.00162949
0.00165403
0.00167982
0.00170693
0.0017356
0.00176619
0.00179906
0.00183461
0.00187325
0.00191535
0.00196123
0.00201111
0.00206504
0.00212279
0.00218354
0.00224684
0.00231261
0.00237556
0.00242869
0.0024638
0.00247872
0.00248076
0.0024678
0.00245379
0.00245116
0.00249427
0.00257298
0.0027395
0.00297038
0.00306454
0.00294017
0.00239998
0.00157548
0.000720866
0.000101452
4.53644e-05
0.000301108
0.000465167
0.000574458
0.000660112
0.000732583
0.000796413
0.000854121
0.000907384
0.000957519
0.0010057
0.0010531
0.00110093
0.00115055
0.00120346
0.00126133
0.00132595
0.00139901
0.0014819
0.00157522
0.00167831
0.00178887
0.00190275
0.00201425
0.00211663
0.00220296
0.00226415
0.00228995
0.00229078
0.00226131
0.00219763
0.00210719
0.00199866
0.00188327
0.00177302
0.00167821
0.0016053
0.00155725
0.00153464
0.00152756
0.00152815
0.00153803
0.00155403
0.00157345
0.00159471
0.00161708
0.00164038
0.0016647
0.0016903
0.00171755
0.00174687
0.00177872
0.00181354
0.00185181
0.00189396
0.00194044
0.00199163
0.00204784
0.00210916
0.0021754
0.0022458
0.00231869
0.00239356
0.00246667
0.00252799
0.00256466
0.00257754
0.00257357
0.00254508
0.00250813
0.00249249
0.00252983
0.00261324
0.00280745
0.00298261
0.00300719
0.00267039
0.0018498
0.000860695
0.0001242
4.66129e-05
0.000308733
0.000474453
0.00058473
0.000671345
0.000744863
0.000809855
0.000868858
0.000923568
0.000975325
0.00102534
0.00107482
0.00112503
0.00117737
0.00123339
0.00129479
0.00136333
0.00144061
0.00152779
0.00162509
0.00173129
0.00184341
0.00195661
0.00206455
0.00216004
0.00223575
0.00227851
0.00228982
0.00227523
0.00222418
0.00214238
0.00203735
0.00191979
0.00180219
0.00169653
0.00161162
0.0015515
0.00151916
0.00150675
0.00150461
0.00151064
0.00152397
0.00154124
0.00156047
0.00158066
0.00160147
0.00162297
0.00164542
0.00166922
0.00169481
0.00172269
0.00175333
0.00178723
0.00182488
0.00186676
0.00191336
0.00196516
0.00202264
0.00208617
0.00215595
0.00223178
0.00231277
0.00239697
0.00248234
0.00256573
0.00263347
0.00266906
0.00267901
0.00266402
0.00261558
0.00255467
0.00252796
0.00256253
0.00266017
0.00288355
0.00299672
0.00284156
0.0021154
0.00100793
0.000148437
4.77392e-05
0.000315726
0.000482785
0.000593833
0.000681245
0.000755684
0.000821741
0.000881966
0.000938068
0.000991409
0.00104322
0.00109474
0.00114728
0.00120228
0.0012613
0.00132606
0.00139825
0.00147936
0.00157027
0.0016708
0.00177918
0.00189178
0.00200315
0.00210644
0.00219425
0.00225693
0.00228317
0.00228342
0.00224937
0.00218096
0.00208416
0.00196844
0.00184606
0.00173008
0.00163166
0.00155751
0.00151118
0.0014904
0.00148438
0.0014858
0.00149559
0.0015103
0.00152737
0.00154541
0.00156385
0.00158265
0.00160204
0.00162242
0.00164426
0.0016681
0.00169446
0.00172386
0.00175681
0.0017938
0.00183531
0.00188185
0.00193394
0.00199211
0.00205693
0.00212889
0.0022083
0.00229498
0.00238791
0.00248466
0.0025819
0.00267547
0.00274499
0.00277642
0.0027806
0.00274687
0.00267158
0.00258842
0.00255594
0.00259555
0.00272454
0.00289332
0.00290747
0.00236851
0.00117608
0.000176363
4.87415e-05
0.000322086
0.00049018
0.000601793
0.000689841
0.000765071
0.000832088
0.000893451
0.000950878
0.00100574
0.0010593
0.0011128
0.00116759
0.00122513
0.001287
0.00135488
0.00143041
0.00151491
0.00160896
0.00171197
0.00182165
0.00193379
0.0020424
0.00214024
0.0022196
0.00226743
0.00228179
0.00226859
0.00221799
0.0021347
0.00202607
0.0019032
0.0017794
0.00166768
0.00157786
0.00151453
0.00148058
0.00146738
0.00146483
0.00146967
0.00148117
0.00149588
0.00151182
0.00152808
0.00154438
0.00156089
0.00157798
0.00159615
0.00161595
0.00163797
0.00166279
0.00169096
0.001723
0.00175941
0.00180065
0.00184719
0.00189952
0.0019582
0.00202385
0.00209715
0.00217878
0.00226915
0.00236811
0.00247435
0.00258466
0.00269478
0.00279674
0.0028629
0.00288663
0.00287697
0.00281512
0.00270357
0.00260562
0.00257892
0.00263469
0.00281986
0.00291144
0.00259349
0.00137699
0.000210925
4.96186e-05
0.000327812
0.000496658
0.00060864
0.000697166
0.000773054
0.000840919
0.000903326
0.000961994
0.0010183
0.00107352
0.00112892
0.00118585
0.00124579
0.00131031
0.00138106
0.00145957
0.00154697
0.00164357
0.00174835
0.00185853
0.00196941
0.00207453
0.00216629
0.00223654
0.00227086
0.0022761
0.00224788
0.00218343
0.00208794
0.00197048
0.00184345
0.00172073
0.00161477
0.00153367
0.00148084
0.00145597
0.0014478
0.00144745
0.00145455
0.00146641
0.00148021
0.00149446
0.00150856
0.00152248
0.00153652
0.00155118
0.00156703
0.00158471
0.00160486
0.00162811
0.00165508
0.00168629
0.00172225
0.00176338
0.00181011
0.00186287
0.00192215
0.00198856
0.00206285
0.0021459
0.00223857
0.00234147
0.00245433
0.0025753
0.00269985
0.00282298
0.00292793
0.0029836
0.00299637
0.00296037
0.00285855
0.0027027
0.00260703
0.00259898
0.0026944
0.00282649
0.00272586
0.00160052
0.000251222
5.037e-05
0.000332904
0.000502241
0.000614406
0.000703255
0.000779668
0.000848265
0.00091161
0.000971422
0.00102908
0.00108586
0.00114304
0.00120198
0.00126414
0.00133109
0.00140441
0.00148551
0.00157533
0.00167388
0.00177977
0.00188977
0.00199877
0.00210001
0.00218585
0.00224562
0.00226913
0.00226507
0.00222408
0.00214788
0.00204275
0.00191907
0.0017902
0.00167017
0.00157049
0.00149751
0.0014541
0.00143531
0.00143009
0.00143148
0.00143952
0.00145084
0.00146317
0.00147537
0.0014871
0.00149848
0.00150993
0.00152204
0.00153547
0.00155094
0.00156915
0.00159081
0.00161657
0.00164702
0.00168265
0.00172388
0.00177106
0.00182454
0.00188471
0.00195208
0.00202737
0.00211152
0.00220569
0.00231105
0.0024283
0.00255698
0.00269424
0.00283343
0.00296808
0.00306535
0.00310402
0.00309724
0.00301742
0.00286174
0.00267471
0.00259562
0.00262835
0.00275537
0.00277305
0.00183476
0.000294305
5.09963e-05
0.000337366
0.000506954
0.000619125
0.000708147
0.000784951
0.000854158
0.000918328
0.000979176
0.00103808
0.0010963
0.00115513
0.00121592
0.00128011
0.00134923
0.0014248
0.00150809
0.00159985
0.00169979
0.00180619
0.00191547
0.00202216
0.00211925
0.00219891
0.00224873
0.00226465
0.00225051
0.00219889
0.00211314
0.00200067
0.00187293
0.0017439
0.0016274
0.00153388
0.00146812
0.00143191
0.00141712
0.00141357
0.00141613
0.00142413
0.00143432
0.00144483
0.00145478
0.00146401
0.00147276
0.00148153
0.001491
0.00150192
0.00151508
0.00153127
0.00155128
0.00157583
0.00160555
0.00164097
0.00168248
0.00173039
0.00178494
0.00184637
0.00191506
0.0019916
0.00207691
0.00217224
0.00227914
0.00239909
0.00253285
0.00267937
0.0028342
0.00298848
0.00312513
0.00320326
0.00322184
0.003173
0.00303021
0.00281034
0.00263497
0.00259891
0.00269
0.00277313
0.00206936
0.000339253
5.14982e-05
0.0003412
0.000510823
0.000622836
0.000711886
0.000788947
0.00085864
0.000923516
0.000985281
0.0010453
0.00110484
0.00116517
0.00122762
0.00129362
0.00136465
0.00144213
0.00152721
0.00162044
0.00172127
0.00182768
0.0019358
0.00203988
0.00213273
0.00220632
0.00224744
0.00225697
0.00223404
0.00217379
0.00208057
0.00196279
0.00183269
0.00170458
0.00159184
0.00150384
0.00144402
0.0014128
0.00140051
0.00139789
0.00140089
0.0014082
0.00141691
0.00142539
0.00143299
0.00143966
0.00144573
0.00145179
0.00145857
0.0014669
0.00147768
0.00149177
0.00151005
0.00153334
0.00156234
0.00159762
0.00163958
0.00168846
0.00174441
0.00180751
0.00187796
0.00195617
0.0020429
0.00213942
0.00224745
0.00236902
0.00250592
0.00265867
0.00282478
0.00299652
0.00316299
0.00328706
0.00333551
0.00332039
0.00320247
0.00298047
0.00271396
0.00259463
0.00261522
0.00269982
0.00226792
0.000379899
5.18775e-05
0.000344413
0.000513877
0.000625577
0.000714516
0.000791702
0.000861753
0.000927211
0.000989767
0.00105078
0.00111148
0.00117314
0.00123707
0.00130465
0.0013773
0.00145636
0.00154284
0.00163709
0.00173836
0.00184436
0.001951
0.00205235
0.0021411
0.00220918
0.00224347
0.00224737
0.00221697
0.00214996
0.00205121
0.00192983
0.00179864
0.00167201
0.00156279
0.00147935
0.00142401
0.00139589
0.00138496
0.00138272
0.00138554
0.00139175
0.00139874
0.00140512
0.00141034
0.00141446
0.00141788
0.00142123
0.00142532
0.00143103
0.00143936
0.00145129
0.00146778
0.00148975
0.00151801
0.00155318
0.0015957
0.00164576
0.0017034
0.00176857
0.00184122
0.00192155
0.00201012
0.00210806
0.00221714
0.00233974
0.00247846
0.00263525
0.00280979
0.00299718
0.00318576
0.00335113
0.00344057
0.00345563
0.00337092
0.00315856
0.00285551
0.0026265
0.00258318
0.0026409
0.00239583
0.000408268
5.21366e-05
0.000347011
0.000516142
0.000627386
0.000716074
0.000793253
0.000863537
0.00092945
0.00099267
0.00105453
0.00111625
0.00117907
0.00124427
0.00131319
0.00138718
0.00146749
0.00155498
0.00164985
0.00175115
0.0018564
0.00196134
0.00205993
0.0021449
0.00220797
0.00223669
0.00223644
0.00220027
0.00212831
0.00202575
0.0019022
0.00177084
0.00164587
0.00153961
0.00145958
0.00140724
0.00138067
0.00137018
0.00136787
0.00137001
0.00137486
0.00138005
0.0013843
0.0013872
0.00138886