/*--------------------------------*- C++ -*----------------------------------*\
  =========                 |
  \\      /  F ield         | OpenFOAM: The Open Source CFD Toolbox
   \\    /   O peration     | Website:  https://openfoam.org
    \\  /    A nd           | Version:  13
     \\/     M anipulation  |
\*---------------------------------------------------------------------------*/
FoamFile
{
    format      ascii;
    class       volScalarField;
    location    "1.5";
    object      p;
}
// * * * * * * * * * * * * * * * * * * * * * * * * * * * * * * * * * * * * * //

dimensions      [0 2 -2 0 0 0 0];

internalField   nonuniform List<scalar> 
6400
(
-7.91587e-09
-1.6164e-06
-8.3108e-06
-1.91984e-05
-3.27286e-05
-4.77505e-05
-6.36404e-05
-8.01529e-05
-9.71029e-05
-0.000114524
-0.0001325
-0.000151117
-0.000170411
-0.000190397
-0.000211064
-0.000232377
-0.000254275
-0.000276674
-0.000299471
-0.00032254
-0.000345733
-0.000368865
-0.000391716
-0.000414014
-0.000435426
-0.00045555
-0.000473903
-0.000489916
-0.000502927
-0.000512184
-0.000516839
-0.000515959
-0.000508524
-0.000493441
-0.00046955
-0.00043564
-0.000390471
-0.000332799
-0.00026142
-0.000175204
-7.31551e-05
4.55342e-05
0.000181424
0.000334748
0.000505202
0.000691639
0.000893332
0.00110997
0.00133836
0.0015744
0.00181535
0.00205722
0.0022953
0.00252456
0.00274027
0.00293785
0.00311311
0.0032627
0.00338427
0.00347662
0.00353985
0.00357529
0.0035854
0.00357353
0.00354368
0.0034999
0.00344687
0.00338848
0.00332816
0.00326889
0.003213
0.0031622
0.00311784
0.00308069
0.00305105
0.00302904
0.00301438
0.00300643
0.00300405
0.00300578
1.41641e-06
-2.81386e-07
-6.38018e-06
-1.61826e-05
-2.83391e-05
-4.19728e-05
-5.65146e-05
-7.17953e-05
-8.77439e-05
-0.000104376
-0.000121686
-0.000139681
-0.000158384
-0.0001778
-0.000197907
-0.000218666
-0.000240019
-0.000261888
-0.000284178
-0.000306772
-0.000329528
-0.00035227
-0.000374781
-0.000396784
-0.000417946
-0.000437858
-0.000456036
-0.000471911
-0.00048483
-0.000494056
-0.000498768
-0.00049807
-0.000490991
-0.000476491
-0.000453471
-0.000420784
-0.00037725
-0.000321679
-0.000252909
-0.000169838
-7.14793e-05
4.29851e-05
0.000174139
0.000322238
0.000487093
0.000668134
0.000864833
0.00107545
0.00129732
0.00152779
0.00176345
0.00200034
0.00223422
0.0024602
0.00267345
0.00286968
0.00304487
0.00319562
0.00331948
0.00341515
0.00348253
0.00352276
0.00353807
0.00353162
0.00350718
0.00346888
0.0034209
0.00336708
0.00331109
0.00325565
0.00320315
0.00315537
0.00311347
0.00307838
0.00305045
0.00302968
0.00301579
0.00300816
0.00300589
0.00300765
8.08096e-06
5.52599e-06
-8.03381e-07
-9.97231e-06
-2.07022e-05
-3.25818e-05
-4.53501e-05
-5.89168e-05
-7.32784e-05
-8.84554e-05
-0.000104451
-0.000121256
-0.000138864
-0.00015726
-0.000176416
-0.000196291
-0.000216835
-0.000237981
-0.000259644
-0.000281719
-0.000304072
-0.000326531
-0.000348883
-0.000370854
-0.000392103
-0.000412221
-0.000430726
-0.000447059
-0.000460587
-0.000470608
-0.000476344
-0.00047695
-0.00047152
-0.000459095
-0.000438655
-0.000409125
-0.000369392
-0.000318325
-0.000254796
-0.000177721
-8.60953e-05
2.09508e-05
0.000144098
0.000283755
0.000439921
0.000612064
0.000799498
0.00100153
0.00121523
0.00143802
0.00166675
0.00189764
0.00212684
0.00234972
0.00256147
0.00275783
0.00293483
0.00308899
0.00321769
0.00331939
0.00339373
0.00344155
0.0034648
0.00346638
0.00344986
0.0034192
0.00337849
0.00333155
0.00328172
0.00323194
0.00318437
0.00314076
0.00310245
0.00307008
0.00304414
0.00302474
0.00301171
0.00300466
0.00300275
0.0030047
1.95391e-05
1.54925e-05
8.03563e-06
-1.36619e-06
-1.1322e-05
-2.1583e-05
-3.23878e-05
-4.39514e-05
-5.63994e-05
-6.97922e-05
-8.4146e-05
-9.94541e-05
-0.000115702
-0.000132868
-0.000150927
-0.000169843
-0.000189578
-0.000210079
-0.000231279
-0.000253086
-0.000275373
-0.00029797
-0.000320654
-0.000343146
-0.000365109
-0.000386143
-0.00040578
-0.000423494
-0.000438694
-0.000450731
-0.000458896
-0.000462423
-0.000460478
-0.000452155
-0.000436478
-0.000412408
-0.00037885
-0.000334659
-0.000278664
-0.000209703
-0.000126661
-2.85248e-05
8.55545e-05
0.00021617
0.000363463
0.000526984
0.000707169
0.000902
0.0011096
0.00132759
0.0015529
0.00178184
0.00201064
0.00223482
0.00244934
0.00264969
0.00283196
0.00299235
0.00312794
0.00323685
0.00331843
0.00337323
0.00340301
0.00341055
0.00339942
0.00337368
0.00333749
0.00329484
0.0032492
0.00320343
0.00315976
0.00311976
0.00308459
0.00305488
0.00303092
0.00301287
0.00300081
0.0029946
0.00299332
0.0029955
3.44594e-05
2.84408e-05
1.89005e-05
8.03856e-06
-2.21383e-06
-1.17511e-05
-2.12744e-05
-3.13332e-05
-4.223e-05
-5.41172e-05
-6.7062e-05
-8.10872e-05
-9.6194e-05
-0.000112373
-0.000129608
-0.000147879
-0.000167154
-0.000187394
-0.000208542
-0.000230514
-0.000253185
-0.000276388
-0.000299904
-0.000323466
-0.000346759
-0.000369408
-0.000390984
-0.00041101
-0.00042896
-0.00044425
-0.000456242
-0.000464232
-0.000467432
-0.000464962
-0.000455855
-0.000439052
-0.0004134
-0.000377666
-0.000330561
-0.000270775
-0.000197023
-0.000108105
-2.97112e-06
0.000119173
0.000258755
0.000415822
0.000589859
0.000779995
0.00098451
0.00120112
0.00142679
0.00165773
0.00189024
0.00212023
0.00234199
0.00255044
0.00274175
0.00291179
0.00305706
0.00317526
0.00326531
0.00332745
0.00336317
0.0033752
0.00336718
0.0033434
0.00330835
0.0032664
0.00322137
0.00317637
0.00313376
0.00309511
0.00306139
0.00303313
0.00301049
0.00299356
0.00298254
0.00297739
0.00297687
0.00297919
5.11387e-05
4.30247e-05
3.05701e-05
1.7006e-05
5.24801e-06
-4.66561e-06
-1.38658e-05
-2.32201e-05
-3.32284e-05
-4.41698e-05
-5.61958e-05
-6.93846e-05
-8.37745e-05
-9.93817e-05
-0.00011621
-0.000134251
-0.000153488
-0.000173886
-0.000195391
-0.00021792
-0.000241356
-0.000265549
-0.000290307
-0.000315401
-0.000340552
-0.000365439
-0.000389699
-0.000412924
-0.000434657
-0.000454381
-0.000471508
-0.000485366
-0.000495186
-0.000500095
-0.000499102
-0.000491091
-0.000474822
-0.00044895
-0.00041205
-0.000362649
-0.000299285
-0.000220558
-0.00012521
-1.2217e-05
0.000119158
0.000269345
0.000437439
0.000623319
0.000825428
0.00104163
0.00126903
0.00150385
0.0017421
0.00198013
0.00221226
0.00243241
0.0026363
0.00281977
0.00297862
0.00310988
0.00321196
0.00328456
0.00332876
0.00334706
0.00334314
0.00332145
0.00328689
0.0032443
0.003198
0.00315159
0.00310776
0.00306833
0.0030343
0.00300609
0.00298379
0.00296743
0.00295722
0.00295306
0.00295326
0.00295567
6.79389e-05
5.75096e-05
4.15795e-05
2.43848e-05
1.01528e-05
-1.0818e-06
-1.08426e-05
-2.02897e-05
-3.01179e-05
-4.07454e-05
-5.24245e-05
-6.53041e-05
-7.94717e-05
-9.49775e-05
-0.000111848
-0.000130091
-0.000149698
-0.000170642
-0.000192873
-0.000216317
-0.000240875
-0.000266425
-0.000292817
-0.000319873
-0.000347385
-0.00037511
-0.00040277
-0.000430038
-0.00045653
-0.000481795
-0.00050529
-0.000526376
-0.000544294
-0.000558158
-0.000566941
-0.00056947
-0.000564426
-0.000550355
-0.000525695
-0.000488813
-0.000438049
-0.000371784
-0.000288516
-0.000186946
-6.60101e-05
7.49672e-05
0.000235578
0.000415795
0.00061439
0.000829502
0.00105849
0.00129778
0.00154298
0.00179025
0.00203503
0.00227057
0.00249113
0.00269247
0.00286983
0.00301936
0.0031388
0.00322705
0.00328447
0.00331312
0.00331657
0.0032993
0.00326667
0.00322404
0.00317633
0.00312776
0.00308155
0.00303992
0.00300414
0.00297474
0.00295179
0.00293529
0.00292542
0.00292196
0.00292275
0.00292525
8.28461e-05
7.02055e-05
5.03954e-05
2.89428e-05
1.15379e-05
-1.7584e-06
-1.28222e-05
-2.3076e-05
-3.33949e-05
-4.43336e-05
-5.62473e-05
-6.93602e-05
-8.38126e-05
-9.9691e-05
-0.000117045
-0.000135897
-0.000156248
-0.000178077
-0.000201347
-0.000226003
-0.000251981
-0.000279205
-0.000307588
-0.00033703
-0.000367413
-0.000398591
-0.000430382
-0.000462554
-0.000494806
-0.000526756
-0.000557925
-0.000587715
-0.0006154
-0.000640101
-0.000660777
-0.00067621
-0.000685009
-0.000685612
-0.000676312
-0.000655286
-0.000620652
-0.000570518
-0.00050306
-0.000416635
-0.000309835
-0.000181645
-3.1842e-05
0.000139859
0.000332502
0.000544603
0.000773864
0.0010171
0.00127005
0.00152813
0.00178721
0.00204131
0.00228328
0.00250781
0.00270981
0.00288438
0.00302838
0.00313948
0.00321708
0.00326244
0.00327874
0.00327021
0.00324268
0.00320206
0.00315396
0.00310344
0.00305452
0.00300997
0.00297144
0.0029398
0.00291523
0.00289778
0.00288763
0.00288448
0.00288573
0.00288838
9.42486e-05
7.94471e-05
5.5526e-05
2.9435e-05
8.37734e-06
-7.54398e-06
-2.05115e-05
-3.21802e-05
-4.35871e-05
-5.54124e-05
-6.81078e-05
-8.19693e-05
-9.7188e-05
-0.000113884
-0.000132129
-0.000151958
-0.000173381
-0.00019639
-0.000220967
-0.000247093
-0.000274753
-0.000303941
-0.000334659
-0.000366913
-0.000400697
-0.000435985
-0.00047271
-0.000510751
-0.000549911
-0.000589904
-0.000630338
-0.000670692
-0.000710301
-0.000748325
-0.000783735
-0.000815286
-0.000841517
-0.00086075
-0.000871105
-0.000870536
-0.000856889
-0.000827937
-0.000781435
-0.000715315
-0.000627765
-0.000517275
-0.000382907
-0.000224165
-4.12788e-05
0.000164687
0.000391861
0.000637467
0.000897694
0.00116781
0.00144306
0.00171809
0.00198597
0.00224003
0.00247406
0.00268248
0.00286002
0.00300322
0.00311053
0.00318192
0.00321937
0.00322664
0.00320986
0.00317516
0.00312898
0.00307761
0.00302622
0.00297847
0.00293661
0.00290186
0.00287475
0.00285548
0.00284433
0.00284103
0.00284259
0.00284543
0.00010059
8.37027e-05
5.5591e-05
2.46787e-05
-3.334e-07
-1.92882e-05
-3.46266e-05
-4.82066e-05
-6.12075e-05
-7.44201e-05
-8.83821e-05
-0.000103453
-0.000119869
-0.000137779
-0.000157272
-0.000178396
-0.000201174
-0.000225616
-0.000251735
-0.000279564
-0.000309161
-0.000340616
-0.000374049
-0.000409597
-0.000447399
-0.000487571
-0.00053019
-0.000575273
-0.000622762
-0.000672504
-0.000724236
-0.00077756
-0.000831907
-0.000886512
-0.000940376
-0.000992239
-0.00104056
-0.00108354
-0.00111907
-0.00114483
-0.00115835
-0.00115702
-0.00113803
-0.00109877
-0.00103698
-0.000950502
-0.000837597
-0.000697598
-0.000529748
-0.000334602
-0.000113421
0.000131516
0.000396895
0.000678501
0.00097142
0.00126997
0.00156757
0.0018568
0.00213056
0.00238257
0.00260524
0.00279343
0.00294342
0.00305341
0.00312366
0.00315762
0.00316066
0.00313873
0.00309895
0.00304921
0.00299639
0.00294556
0.00289998
0.00286147
0.00283095
0.00280894
0.00279599
0.00279195
0.00279361
0.00279668
0.000100501
8.16303e-05
4.93708e-05
1.36112e-05
-1.5514e-05
-3.77786e-05
-5.58346e-05
-7.17147e-05
-8.67202e-05
-0.000101737
-0.000117375
-0.00013405
-0.000152031
-0.000171493
-0.000192539
-0.00021523
-0.000239605
-0.000265701
-0.000293582
-0.000323349
-0.000355161
-0.000389236
-0.000425842
-0.000465281
-0.000507864
-0.000553886
-0.0006036
-0.000657204
-0.000714821
-0.000776485
-0.00084211
-0.000911464
-0.00098412
-0.00105941
-0.00113639
-0.00121378
-0.00128995
-0.00136292
-0.00143035
-0.00148953
-0.00153763
-0.00157168
-0.00158808
-0.00158355
-0.00155536
-0.00150074
-0.00141713
-0.00130283
-0.00115667
-0.000978611
-0.000769001
-0.00052931
-0.00026221
2.86719e-05
0.000338758
0.000662576
0.000993561
0.00132392
0.00164555
0.00194978
0.00222885
0.00247614
0.0026849
0.00285088
0.00297104
0.0030468
0.00308269
0.00308435
0.00305901
0.00301607
0.00296451
0.00291152
0.00286211
0.00281924
0.00278448
0.0027588
0.00274309
0.00273756
0.00273894
0.00274222
9.28297e-05
7.20977e-05
3.58313e-05
-4.68115e-06
-3.79652e-05
-6.37061e-05
-8.47223e-05
-0.000103193
-0.000120524
-0.000137678
-0.000155328
-0.000173929
-0.000193782
-0.000215078
-0.000237933
-0.000262423
-0.000288608
-0.00031657
-0.000346437
-0.000378408
-0.000412773
-0.00044991
-0.000490271
-0.000534359
-0.000582694
-0.000635786
-0.000694111
-0.000758094
-0.000828097
-0.00090439
-0.000987123
-0.00107627
-0.00117159
-0.00127253
-0.00137821
-0.0014873
-0.00159806
-0.00170832
-0.00181542
-0.00191611
-0.00200711
-0.00208516
-0.00214583
-0.00218488
-0.00219912
-0.00218493
-0.00213876
-0.00205793
-0.00194093
-0.00178686
-0.00159523
-0.00136654
-0.00110276
-0.000806895
-0.000482777
-0.0001351
0.000230345
0.000605827
0.000981667
0.00134763
0.00169565
0.00201613
0.00229951
0.00253987
0.00273072
0.00286947
0.00295694
0.00299803
0.00300015
0.00297333
0.00292871
0.0028762
0.00282357
0.00277592
0.00273607
0.00270562
0.00268598
0.00267808
0.00267863
0.00268196
7.66364e-05
5.41864e-05
1.41294e-05
-3.09505e-05
-6.83501e-05
-9.76446e-05
-0.000121776
-0.000143045
-0.00016294
-0.00018249
-0.000202415
-0.000223203
-0.000245176
-0.000268539
-0.00029342
-0.000319914
-0.000348115
-0.000378163
-0.000410274
-0.000444778
-0.000482126
-0.000522894
-0.000567757
-0.000617457
-0.000672764
-0.000734448
-0.000803255
-0.000879897
-0.000965028
-0.00105922
-0.00116289
-0.00127629
-0.00139936
-0.00153169
-0.00167244
-0.00182026
-0.00197318
-0.00212875
-0.00228404
-0.00243512
-0.00257799
-0.00270887
-0.0028225
-0.00291375
-0.00297872
-0.00301305
-0.00301238
-0.0029727
-0.00289093
-0.00276732
-0.00260085
-0.00239084
-0.00213809
-0.00184464
-0.00151269
-0.0011448
-0.000746423
-0.000325877
0.000104894
0.000537648
0.000965485
0.00137457
0.00175071
0.00208511
0.00236712
0.00259193
0.00275606
0.00286019
0.00290853
0.00291222
0.00288446
0.00283809
0.0027845
0.00273222
0.00268644
0.00265004
0.00262525
0.00261379
0.00261257
0.00261561
5.11884e-05
2.7186e-05
-1.63897e-05
-6.57839e-05
-0.000107186
-0.00014004
-0.00016737
-0.000191572
-0.000214203
-0.000236342
-0.000258746
-0.000281926
-0.000306221
-0.000331847
-0.000358947
-0.000387641
-0.000418072
-0.000450457
-0.000485131
-0.000522583
-0.000563466
-0.000608592
-0.000658899
-0.000715407
-0.00077918
-0.000851295
-0.000932826
-0.00102483
-0.0011283
-0.00124417
-0.0013732
-0.0015159
-0.00167243
-0.00184251
-0.00202534
-0.00221949
-0.00242277
-0.00263209
-0.00284402
-0.00305443
-0.00325804
-0.00344956
-0.00362347
-0.00377429
-0.00389685
-0.00398589
-0.00403635
-0.00404313
-0.00400244
-0.00391701
-0.00378292
-0.0035983
-0.00336291
-0.00307756
-0.00274324
-0.00236079
-0.00193955
-0.00148722
-0.00100805
-0.000505166
1.10141e-05
0.000516331
0.0009987
0.00144786
0.00184496
0.00218052
0.00244725
0.00264183
0.00276311
0.00281859
0.00282313
0.00279297
0.00274366
0.00268838
0.00263632
0.00259286
0.00256136
0.00254449
0.00254044
0.00254267
1.5944e-05
-9.41075e-06
-5.61975e-05
-0.000109605
-0.000154846
-0.000191208
-0.000221761
-0.000248974
-0.000274455
-0.000299323
-0.00032436
-0.000350095
-0.00037688
-0.000404941
-0.000434444
-0.000465542
-0.000498446
-0.000533474
-0.00057111
-0.000612037
-0.000657151
-0.000707537
-0.000764435
-0.000829184
-0.000903189
-0.000987884
-0.00108473
-0.00119517
-0.00132062
-0.00146241
-0.00162165
-0.00179916
-0.0019953
-0.0022099
-0.0024423
-0.00269059
-0.00295205
-0.00322363
-0.00350041
-0.00377714
-0.00404827
-0.00430698
-0.00454662
-0.0047612
-0.00494451
-0.00509023
-0.00519252
-0.00524692
-0.0052532
-0.00520402
-0.0050995
-0.00493946
-0.00472345
-0.00445096
-0.00412283
-0.00374352
-0.00331346
-0.00283589
-0.00231179
-0.00174943
-0.0011662
-0.000573559
2.3544e-05
0.000596641
0.00112565
0.00159679
0.00199428
0.00230815
0.00253277
0.00266968
0.00273
0.0027324
0.00269718
0.00264334
0.00258578
0.00253421
0.00249422
0.00247019
0.00246193
0.00246241
-2.94398e-05
-5.5937e-05
-0.000105597
-0.000162686
-0.000211559
-0.000251334
-0.00028509
-0.000315345
-0.000343748
-0.000371441
-0.000399228
-0.000427652
-0.000457072
-0.000487733
-0.000519826
-0.000553558
-0.000589222
-0.000627269
-0.000668362
-0.000713418
-0.000763609
-0.000820334
-0.00088517
-0.00095982
-0.00104607
-0.00114576
-0.0012608
-0.00139308
-0.00154447
-0.00171673
-0.00191134
-0.00212944
-0.00237166
-0.0026379
-0.00292684
-0.00323669
-0.00356412
-0.00390462
-0.00425235
-0.00460076
-0.00494347
-0.00527223
-0.00557868
-0.00585594
-0.00609694
-0.00629424
-0.00644109
-0.00653646
-0.00657904
-0.00656344
-0.00648627
-0.00634769
-0.00614795
-0.00588751
-0.0055687
-0.00519558
-0.00476431
-0.00427494
-0.00372944
-0.00313762
-0.00250843
-0.00184224
-0.00115906
-0.000477164
0.000189684
0.000808791
0.00135981
0.00182297
0.00218357
0.00243556
0.00258329
0.00264254
0.00263744
0.00259381
0.00253378
0.00247395
0.00242408
0.00239083
0.00237611
0.00237356
-8.51016e-05
-0.000112589
-0.000164751
-0.000225159
-0.000277424
-0.000320483
-0.000357385
-0.000390678
-0.000422037
-0.000452623
-0.000483252
-0.000514478
-0.000546672
-0.0005801
-0.00061499
-0.00065162
-0.000690392
-0.000731914
-0.000777066
-0.00082703
-0.000883292
-0.000947596
-0.0010219
-0.00110829
-0.001209
-0.00132632
-0.00146264
-0.00162037
-0.00180186
-0.00200928
-0.00224455
-0.00250921
-0.00280384
-0.00312797
-0.00348049
-0.00385844
-0.00425725
-0.00467118
-0.0050938
-0.0055164
-0.0059305
-0.0063269
-0.00669606
-0.00702976
-0.00731996
-0.00755977
-0.00774702
-0.00788026
-0.0079523
-0.00795996
-0.00790424
-0.00778516
-0.00760226
-0.00735568
-0.00704589
-0.0066727
-0.00623887
-0.00574428
-0.00519258
-0.00458922
-0.00393714
-0.00323373
-0.00248909
-0.00171977
-0.000943342
-0.000185222
0.000524494
0.00115562
0.00168171
0.00208361
0.00235501
0.00250359
0.00255223
0.00253327
0.00247758
0.00241088
0.00234996
0.00230485
0.00228135
0.00227424
-0.00015105
-0.000179397
-0.000233682
-0.000297024
-0.000352415
-0.000398597
-0.000438563
-0.000474864
-0.000509189
-0.000542714
-0.000576261
-0.000610394
-0.000645501
-0.000681876
-0.000719802
-0.000759642
-0.000801933
-0.000847473
-0.000897387
-0.000953156
-0.00101661
-0.00108987
-0.00117529
-0.00127541
-0.00139292
-0.00153063
-0.00169145
-0.00187831
-0.00209407
-0.00234134
-0.00262254
-0.00293927
-0.00329194
-0.00367997
-0.00410127
-0.00455151
-0.0050254
-0.00551543
-0.0060128
-0.00650741
-0.00698859
-0.00744587
-0.00786906
-0.00824951
-0.00858021
-0.00885619
-0.00907402
-0.00922914
-0.00931992
-0.00934577
-0.00930679
-0.00920333
-0.00903556
-0.00880383
-0.00850834
-0.00814894
-0.00772608
-0.00723957
-0.0066901
-0.006078
-0.00540381
-0.00467409
-0.0038967
-0.00307572
-0.00221909
-0.00135174
-0.000503237
0.000293135
0.000999417
0.00158039
0.00201279
0.00228941
0.00242456
0.00245158
0.00241215
0.00234243
0.00226961
0.00220981
0.00217656
0.00216213
-0.000227187
-0.00025623
-0.000312262
-0.000378149
-0.000436385
-0.000485512
-0.000528438
-0.000567697
-0.000604983
-0.000641477
-0.00067801
-0.000715156
-0.000753326
-0.000792852
-0.000834085
-0.000877498
-0.000923787
-0.000973966
-0.00102943
-0.001092
-0.00116386
-0.00124753
-0.00134582
-0.00146173
-0.00159844
-0.00175932
-0.00194782
-0.00216743
-0.00242149
-0.00271312
-0.00304509
-0.00341874
-0.00383422
-0.00429029
-0.00478364
-0.00530901
-0.00585877
-0.00642354
-0.00699203
-0.00755232
-0.00809217
-0.00860021
-0.00906629
-0.00948205
-0.00984134
-0.0101401
-0.0103754
-0.0105449
-0.010648
-0.0106851
-0.0106568
-0.0105638
-0.0104071
-0.0101873
-0.00990469
-0.00955946
-0.00915143
-0.00868006
-0.00814459
-0.00754355
-0.00687571
-0.00614232
-0.00534505
-0.00448702
-0.00358251
-0.00264285
-0.00168596
-0.000749211
0.000128446
0.000900664
0.00152355
0.00196837
0.00223074
0.00233509
0.00232962
0.00226482
0.00218089
0.00210568
0.00205762
0.00203326
-0.000313273
-0.000342835
-0.000400242
-0.000468283
-0.000529077
-0.000580955
-0.000626724
-0.000668877
-0.000709106
-0.000748595
-0.00078818
-0.000828452
-0.000869848
-0.000912753
-0.000957604
-0.001005
-0.00105583
-0.00111133
-0.00117322
-0.00124363
-0.00132517
-0.00142076
-0.00153368
-0.00166741
-0.00182569
-0.00201243
-0.00223166
-0.00248739
-0.00278343
-0.00312359
-0.00351029
-0.00394448
-0.0044261
-0.00495287
-0.00551999
-0.00612016
-0.00674348
-0.00737805
-0.0080104
-0.00862686
-0.0092143
-0.00976118
-0.0102578
-0.010697
-0.0110737
-0.0113851
-0.0116294
-0.0118058
-0.0119146
-0.011957
-0.011934
-0.0118471
-0.0116976
-0.0114866
-0.0112146
-0.0108821
-0.0104888
-0.0100339
-0.0095159
-0.00893279
-0.00828237
-0.00756291
-0.00677274
-0.00591185
-0.00498471
-0.00399959
-0.00297389
-0.00193051
-0.000909644
4.06611e-05
0.000864169
0.00150763
0.00193932
0.00216237
0.00221856
0.002172
0.00208014
0.00198719
0.0019205
0.00188305
-0.000408947
-0.000438851
-0.000497266
-0.000567071
-0.00063013
-0.000684558
-0.000733042
-0.000778017
-0.000821165
-0.00086367
-0.000906377
-0.000949894
-0.000994698
-0.00104124
-0.00109005
-0.00114189
-0.00119783
-0.0012594
-0.0013286
-0.00140795
-0.00150043
-0.00160943
-0.00173868
-0.00189219
-0.00207427
-0.00228936
-0.00254204
-0.00283678
-0.00317828
-0.00357015
-0.0040141
-0.00451146
-0.00506122
-0.00565941
-0.00629938
-0.00697133
-0.00766283
-0.00835945
-0.00904591
-0.00970743
-0.0103307
-0.0109046
-0.0114206
-0.0118731
-0.0122585
-0.0125749
-0.0128216
-0.0129991
-0.0131085
-0.0131514
-0.0131297
-0.0130451
-0.0128994
-0.0126941
-0.0124302
-0.0121082
-0.0117281
-0.0112892
-0.0107898
-0.0102275
-0.00959928
-0.00890173
-0.00813132
-0.00728545
-0.00636349
-0.00536779
-0.00430694
-0.0031982
-0.00207243
-0.000976032
3.26086e-05
0.000884771
0.00151833
0.00190445
0.00206172
0.00205438
0.00196263
0.00184985
0.00175898
0.00170638
-0.000513744
-0.000543812
-0.000602876
-0.000674057
-0.000739086
-0.00079586
-0.000846924
-0.000894642
-0.000940682
-0.000986226
-0.00103213
-0.00107902
-0.00112743
-0.00117788
-0.00123102
-0.00128778
-0.00134946
-0.00141784
-0.00149526
-0.0015846
-0.00168926
-0.00181306
-0.00196023
-0.00213532
-0.00234316
-0.00258875
-0.00287709
-0.00321351
-0.00360308
-0.00404822
-0.00455134
-0.00511328
-0.00573118
-0.00639939
-0.00710886
-0.00784713
-0.00859912
-0.00934831
-0.0100782
-0.0107735
-0.0114216
-0.0120123
-0.012539
-0.0129971
-0.0133845
-0.0137003
-0.013945
-0.0141196
-0.014226
-0.0142663
-0.0142427
-0.0141575
-0.0140128
-0.0138103
-0.0135516
-0.0132374
-0.0128682
-0.0124434
-0.0119615
-0.0114201
-0.0108159
-0.0101445
-0.00940115
-0.00858096
-0.00767998
-0.00669622
-0.00563171
-0.00449557
-0.00330854
-0.00210754
-0.000948319
9.72526e-05
0.000946442
0.00153182
0.00183456
0.00190076
0.00182214
0.00168931
0.00156741
0.00149913
-0.000627104
-0.000657164
-0.000716527
-0.000788702
-0.000855405
-0.000914317
-0.000967821
-0.0010182
-0.0010671
-0.00111571
-0.00116488
-0.00121528
-0.0012675
-0.00132215
-0.00138002
-0.0014422
-0.00151022
-0.00158615
-0.00167266
-0.00177299
-0.00189096
-0.00203082
-0.00219731
-0.00239549
-0.00263074
-0.00290851
-0.00323434
-0.00361457
-0.00405305
-0.0045525
-0.00511582
-0.00574179
-0.00642608
-0.00716092
-0.00793456
-0.00873184
-0.00953537
-0.0103271
-0.0110899
-0.011809
-0.0124727
-0.0130725
-0.0136032
-0.0140617
-0.0144467
-0.0147585
-0.0149982
-0.0151675
-0.0152687
-0.0153042
-0.0152767
-0.0151886
-0.0150423
-0.0148402
-0.0145839
-0.0142748
-0.0139135
-0.0135001
-0.0130333
-0.012511
-0.01193
-0.0112857
-0.0105725
-0.00978407
-0.00891426
-0.00795765
-0.006911
-0.00577662
-0.00456623
-0.00330519
-0.00203883
-0.000835534
0.000215521
0.0010201
0.00151002
0.00169078
0.00165064
0.00150128
0.00134222
0.00125799
-0.000748385
-0.000778269
-0.000837592
-0.000910384
-0.000978469
-0.00103931
-0.00109511
-0.00114807
-0.0011998
-0.00125148
-0.001304
-0.00135806
-0.0014143
-0.00147345
-0.00153642
-0.0016045
-0.00167946
-0.00176364
-0.00186003
-0.00197226
-0.0021045
-0.00226149
-0.00244843
-0.0026709
-0.00293475
-0.00324582
-0.00361064
-0.00403525
-0.00452267
-0.00507716
-0.00569978
-0.00638778
-0.00713514
-0.00793157
-0.00876261
-0.00961064
-0.0104565
-0.0112812
-0.0120677
-0.0128023
-0.0134746
-0.0140779
-0.0146083
-0.0150638
-0.0154441
-0.01575
-0.0159833
-0.016146
-0.0162408
-0.0162703
-0.0162373
-0.0161446
-0.0159949
-0.0157908
-0.0155344
-0.0152275
-0.0148712
-0.014466
-0.0140112
-0.0135053
-0.0129451
-0.0123264
-0.0116434
-0.0108891
-0.0100556
-0.00913529
-0.00812134
-0.00700996
-0.005805
-0.00452202
-0.00319336
-0.00187727
-0.000659517
0.00035387
0.00105862
0.00140165
0.00143413
0.00127789
0.00108391
0.000981504
-0.000876873
-0.000906419
-0.000965373
-0.00103842
-0.00110759
-0.00117015
-0.0012281
-0.00128354
-0.00133806
-0.00139285
-0.00144879
-0.00150664
-0.00156711
-0.00163104
-0.00169948
-0.00177392
-0.00185636
-0.00194941
-0.00205638
-0.00218123
-0.00232855
-0.00250348
-0.00271168
-0.00295922
-0.00325232
-0.0035974
-0.0040018
-0.00447009
-0.0050066
-0.00561522
-0.00629482
-0.00704158
-0.00784731
-0.00869913
-0.00958007
-0.0104704
-0.0113498
-0.0121991
-0.0130019
-0.0137458
-0.014422
-0.0150253
-0.0155528
-0.0160036
-0.0163781
-0.0166775
-0.0169039
-0.0170597
-0.0171476
-0.0171703
-0.017131
-0.0170325
-0.0168778
-0.0166698
-0.0164109
-0.0161036
-0.0157493
-0.0153491
-0.014903
-0.01441
-0.0138675
-0.0132718
-0.0126172
-0.0118965
-0.0111011
-0.0102217
-0.00924912
-0.00817538
-0.00699711
-0.00572126
-0.00436882
-0.00298398
-0.00164607
-0.000455695
0.000466812
0.00100604
0.00114866
0.00101194
0.000793363
0.000667046
-0.00101179
-0.00104084
-0.00109911
-0.00117206
-0.00124203
-0.00130609
-0.00136603
-0.00142387
-0.00148114
-0.00153903
-0.00159846
-0.00166022
-0.00172512
-0.00179409
-0.00186835
-0.00194955
-0.00203993
-0.00214238
-0.00226047
-0.00239851
-0.00256145
-0.00275484
-0.00298478
-0.00325774
-0.00358022
-0.00395959
-0.00440285
-0.00491403
-0.0054988
-0.00615893
-0.00689226
-0.00769338
-0.00855185
-0.00945228
-0.0103755
-0.0113002
-0.0122055
-0.0130724
-0.0138859
-0.0146348
-0.0153119
-0.0159133
-0.016437
-0.0168827
-0.0172513
-0.0175444
-0.0177642
-0.0179132
-0.0179941
-0.0180099
-0.0179637
-0.0178585
-0.0176975
-0.017484
-0.0172208
-0.0169106
-0.0165556
-0.0161574
-0.0157166
-0.0152329
-0.0147046
-0.0141283
-0.0134991
-0.0128099
-0.0120521
-0.0112151
-0.0102882
-0.00926093
-0.0081245
-0.00687754
-0.00553164
-0.00411693
-0.00270225
-0.00138139
-0.000272656
0.000479197
0.0007776
0.000691999
0.000464121
0.000307591
-0.00115231
-0.00118072
-0.001238
-0.0013105
-0.00138098
-0.00144633
-0.00150812
-0.00156824
-0.00162821
-0.0016892
-0.00175216
-0.00181795
-0.00188744
-0.00196167
-0.00204202
-0.00213033
-0.00222902
-0.00234124
-0.00247085
-0.00262243
-0.00280129
-0.00301335
-0.0032651
-0.00356337
-0.00391498
-0.00432804
-0.00480854
-0.00536157
-0.00599225
-0.00670043
-0.0074834
-0.00833376
-0.00923881
-0.0101809
-0.0111391
-0.0120912
-0.013016
-0.0138955
-0.0147157
-0.0154669
-0.0161436
-0.0167424
-0.0172621
-0.0177031
-0.0180664
-0.018354
-0.0185678
-0.0187105
-0.0187848
-0.0187937
-0.0187403
-0.0186278
-0.0184597
-0.0182393
-0.01797
-0.017655
-0.0172969
-0.0168979
-0.0164593
-0.0159816
-0.0154637
-0.0149032
-0.0142958
-0.013635
-0.0129123
-0.0121172
-0.0112374
-0.0102609
-0.0091759
-0.00797407
-0.00665802
-0.00524531
-0.00379023
-0.0023877
-0.00113278
-0.000180437
0.000301179
0.000302854
8.8059e-05
-0.000107834
-0.00129756
-0.00132519
-0.00138118
-0.0014529
-0.00152362
-0.00159003
-0.0016535
-0.0017158
-0.0017784
-0.00184247
-0.001909
-0.00197888
-0.00205308
-0.00213276
-0.00221942
-0.00231506
-0.00242233
-0.00254457
-0.00268588
-0.00285113
-0.00304593
-0.00327653
-0.00354975
-0.00387265
-0.0042527
-0.00469803
-0.00521397
-0.00580673
-0.00647983
-0.00723224
-0.00806006
-0.00895401
-0.0098993
-0.0108764
-0.0118631
-0.0128365
-0.0137759
-0.0146642
-0.0154886
-0.016241
-0.0169167
-0.0175131
-0.0180296
-0.0184668
-0.0188259
-0.0191089
-0.0193177
-0.0194549
-0.0195231
-0.0195253
-0.0194646
-0.0193445
-0.0191684
-0.0189402
-0.0186634
-0.0183418
-0.0179785
-0.0175763
-0.0171372
-0.0166624
-0.0161517
-0.0156033
-0.0150139
-0.0143778
-0.0136872
-0.0129317
-0.0120985
-0.0111742
-0.0101455
-0.00899956
-0.00773073
-0.00634616
-0.00487743
-0.00343372
-0.0020832
-0.000970853
-0.000296146
-0.000160405
-0.000341108
-0.000592396
-0.00144663
-0.00147334
-0.00152778
-0.00159841
-0.00166908
-0.00173633
-0.0018013
-0.00186565
-0.0019308
-0.00199792
-0.00206801
-0.00214203
-0.00222102
-0.00230625
-0.00239935
-0.00250248
-0.00261844
-0.00275077
-0.00290378
-0.0030826
-0.00329307
-0.00354176
-0.00383575
-0.00418223
-0.00458933
-0.00506473
-0.00561409
-0.00624359
-0.00695507
-0.00774721
-0.00861463
-0.0095463
-0.0105256
-0.0115316
-0.012541
-0.013531
-0.0144814
-0.015376
-0.0162033
-0.0169565
-0.0176314
-0.0182262
-0.0187406
-0.0191752
-0.0195314
-0.019811
-0.0200159
-0.0201484
-0.0202111
-0.020207
-0.0201392
-0.0200111
-0.0198266
-0.0195897
-0.0193043
-0.0189746
-0.0186044
-0.018197
-0.0177551
-0.0172805
-0.0167739
-0.0162344
-0.0156594
-0.0150443
-0.0143821
-0.0136629
-0.0128744
-0.0120021
-0.011031
-0.00994713
-0.0087383
-0.0074028
-0.00595208
-0.00448483
-0.00309245
-0.00186697
-0.00101729
-0.000721191
-0.00084395
-0.00115804
-0.00159858
-0.00162423
-0.00167691
-0.00174613
-0.00181647
-0.00188433
-0.00195063
-0.00201688
-0.00208448
-0.00215457
-0.00222819
-0.00230635
-0.00239015
-0.00248097
-0.00258055
-0.00269119
-0.00281582
-0.00295816
-0.00312268
-0.0033147
-0.0035403
-0.00380627
-0.00411988
-0.00448854
-0.00492088
-0.00542386
-0.00600383
-0.00666625
-0.00741186
-0.0082388
-0.00914029
-0.0101038
-0.0111113
-0.0121406
-0.013168
-0.0141708
-0.0151295
-0.0160289
-0.0168587
-0.0176128
-0.0182878
-0.0188821
-0.0193957
-0.0198291
-0.0201837
-0.0204612
-0.0206633
-0.0207921
-0.02085
-0.02084
-0.0207652
-0.0206292
-0.0204359
-0.0201896
-0.0198948
-0.0195559
-0.0191773
-0.0187629
-0.0183162
-0.0178397
-0.0173346
-0.0168011
-0.0162374
-0.0156398
-0.0150022
-0.0143158
-0.0135688
-0.0127465
-0.011833
-0.0108132
-0.00967177
-0.00840005
-0.00700097
-0.00551804
-0.00412041
-0.00283456
-0.00184907
-0.0013951
-0.00143991
-0.00181076
-0.00175247
-0.00177692
-0.00182763
-0.00189517
-0.00196491
-0.00203314
-0.00210056
-0.00216857
-0.00223849
-0.00231146
-0.00238853
-0.00247077
-0.00255934
-0.00265571
-0.00276172
-0.00287977
-0.00301292
-0.00316499
-0.00334062
-0.00354527
-0.00378517
-0.00406728
-0.00439906
-0.00478819
-0.00524331
-0.00577114
-0.00637835
-0.00706944
-0.00784461
-0.00870113
-0.00963104
-0.0106207
-0.0116509
-0.0126987
-0.0137402
-0.0147529
-0.0157181
-0.0166215
-0.0174538
-0.0182096
-0.0188856
-0.0194807
-0.0199948
-0.0204285
-0.0207829
-0.0210594
-0.0212598
-0.0213858
-0.0214398
-0.0214244
-0.0213429
-0.0211989
-0.0209966
-0.0207405
-0.0204355
-0.0200865
-0.0196985
-0.0192759
-0.0188229
-0.0183425
-0.017837
-0.017307
-0.0167518
-0.0161685
-0.0155521
-0.0148947
-0.0141855
-0.0134105
-0.0125531
-0.011597
-0.0105267
-0.00932826
-0.00799584
-0.00653303
-0.0051377
-0.0038422
-0.00276797
-0.00217227
-0.00213024
-0.00254879
-0.00190737
-0.0019305
-0.00197903