/*--------------------------------*- C++ -*----------------------------------*\
  =========                 |
  \\      /  F ield         | OpenFOAM: The Open Source CFD Toolbox
   \\    /   O peration     | Website:  https://openfoam.org
    \\  /    A nd           | Version:  13
     \\/     M anipulation  |
\*---------------------------------------------------------------------------*/
FoamFile
{
    format      ascii;
    class       surfaceScalarField;
    location    "1.5";
    object      phi;
}
// * * * * * * * * * * * * * * * * * * * * * * * * * * * * * * * * * * * * * //

dimensions      [0 3 -1 0 0 0 0];

internalField   nonuniform List<scalar> 
12640
(
1.99287e-09
-1.99271e-09
4.70446e-09
-2.7116e-09
6.50153e-09
-1.79707e-09
6.77753e-09
-2.76008e-10
5.56217e-09
1.21536e-09
3.16513e-09
2.39704e-09
-7.08238e-11
3.23595e-09
-3.87066e-09
3.79983e-09
-8.05729e-09
4.18663e-09
-1.25268e-08
4.46948e-09
-1.72185e-08
4.6917e-09
-2.21008e-08
4.88238e-09
-2.71669e-08
5.0661e-09
-3.24245e-08
5.25754e-09
-3.78887e-08
5.46423e-09
-4.35777e-08
5.68903e-09
-4.95094e-08
5.93166e-09
-5.56993e-08
6.18989e-09
-6.216e-08
6.46073e-09
-6.89017e-08
6.74163e-09
-7.59329e-08
7.0312e-09
-8.32626e-08
7.32971e-09
-9.09019e-08
7.63933e-09
-9.88663e-08
7.96436e-09
-1.07177e-07
8.31056e-09
-1.15861e-07
8.68413e-09
-1.24952e-07
9.09079e-09
-1.34487e-07
9.53478e-09
-1.44504e-07
1.00179e-08
-1.55043e-07
1.05384e-08
-1.66134e-07
1.10909e-08
-1.77799e-07
1.1665e-08
-1.90044e-07
1.22455e-08
-2.02856e-07
1.28118e-08
-2.16194e-07
1.3338e-08
-2.29987e-07
1.37926e-08
-2.44126e-07
1.41391e-08
-2.58462e-07
1.43364e-08
-2.72802e-07
1.43402e-08
-2.86907e-07
1.41049e-08
-3.00494e-07
1.35862e-08
-3.13237e-07
1.27437e-08
-3.24782e-07
1.15443e-08
-3.34747e-07
9.96506e-09
-3.42733e-07
7.98636e-09
-3.48315e-07
5.58166e-09
-3.51174e-07
2.85959e-09
-3.51227e-07
5.24889e-11
-3.47924e-07
-3.30281e-09
-3.41189e-07
-6.73463e-09
-3.30942e-07
-1.02472e-08
-3.17182e-07
-1.37602e-08
-3.00028e-07
-1.71543e-08
-2.79753e-07
-2.0275e-08
-2.56763e-07
-2.29896e-08
-2.31515e-07
-2.52482e-08
-2.04548e-07
-2.6967e-08
-1.76491e-07
-2.80564e-08
-1.48035e-07
-2.84561e-08
-1.19895e-07
-2.81402e-08
-9.27743e-08
-2.71209e-08
-6.73245e-08
-2.54497e-08
-4.41091e-08
-2.32154e-08
-2.35719e-08
-2.05372e-08
-6.01486e-09
-1.7557e-08
8.43275e-09
-1.44476e-08
1.97656e-08
-1.13329e-08
2.80405e-08
-8.27491e-09
3.34804e-08
-5.43989e-09
3.63497e-08
-2.86931e-09
3.69479e-08
-5.98148e-10
3.56011e-08
1.34681e-09
3.26213e-08
2.97983e-09
2.83177e-08
4.30356e-09
2.30376e-08
5.28007e-09
1.71696e-08
5.86803e-09
1.12033e-08
5.96629e-09
5.78794e-09
5.41537e-09
1.73828e-09
4.04966e-09
1.73828e-09
2.78764e-09
-4.78036e-09
5.87536e-09
-5.79932e-09
6.52246e-09
-2.44418e-09
3.94978e-09
2.29667e-09
-1.59058e-09
6.75571e-09
-9.53451e-09
1.0341e-08
-1.92998e-08
1.30012e-08
-3.04016e-08
1.49016e-08
-4.24738e-08
1.62589e-08
-5.52644e-08
1.72601e-08
-6.86241e-08
1.80514e-08
-8.24783e-08
1.87365e-08
-9.67916e-08
1.93794e-08
-1.11552e-07
2.00178e-08
-1.26759e-07
2.06709e-08
-1.42413e-07
2.13439e-08
-1.58515e-07
2.20329e-08
-1.75054e-07
2.27292e-08
-1.92016e-07
2.34225e-08
-2.09379e-07
2.41048e-08
-2.27121e-07
2.47728e-08
-2.4522e-07
2.54292e-08
-2.63663e-07
2.60823e-08
-2.82445e-07
2.67462e-08
-3.01572e-07
2.74379e-08
-3.21062e-07
2.81743e-08
-3.4094e-07
2.89689e-08
-3.61234e-07
2.98283e-08
-3.81966e-07
3.07499e-08
-4.03147e-07
3.17193e-08
-4.24765e-07
3.27094e-08
-4.4678e-07
3.36796e-08
-4.69111e-07
3.45763e-08
-4.91633e-07
3.53345e-08
-5.14175e-07
3.58794e-08
-5.3651e-07
3.6128e-08
-5.58363e-07
3.59924e-08
-5.79411e-07
3.53836e-08
-5.99286e-07
3.42157e-08
-6.17591e-07
3.24097e-08
-6.33903e-07
2.98985e-08
-6.47791e-07
2.66314e-08
-6.58825e-07
2.25784e-08
-6.66593e-07
1.77335e-08
-6.70724e-07
1.21174e-08
-6.70902e-07
5.75949e-09
-6.66764e-07
-1.2782e-09
-6.58029e-07
-8.68304e-09
-6.44702e-07
-1.663e-08
-6.26624e-07
-2.4812e-08
-6.03832e-07
-3.30392e-08
-5.7644e-07
-4.11521e-08
-5.4468e-07
-4.89152e-08
-5.08906e-07
-5.60488e-08
-4.69592e-07
-6.2303e-08
-4.27312e-07
-6.75288e-08
-3.82757e-07
-7.15214e-08
-3.36715e-07
-7.40984e-08
-2.90043e-07
-7.51282e-08
-2.43642e-07
-7.45416e-08
-1.98422e-07
-7.23405e-08
-1.55267e-07
-6.8605e-08
-1.14988e-07
-6.34944e-08
-7.8285e-08
-5.72403e-08
-4.57106e-08
-5.01314e-08
-1.76659e-08
-4.24923e-08
5.64196e-09
-3.46407e-08
2.42461e-08
-2.68791e-08
3.81891e-08
-1.93829e-08
4.77131e-08
-1.23933e-08
5.31315e-08
-6.01658e-09
5.48042e-08
-3.25826e-10
5.30951e-08
4.68887e-09
4.84486e-08
8.95009e-09
4.13395e-08
1.23892e-08
3.23674e-08
1.48401e-08
2.23446e-08
1.59891e-08
1.24146e-08
1.53454e-08
4.16511e-09
1.22991e-08
5.90339e-09
1.92828e-09
-6.70863e-09
2.53408e-09
-6.40512e-09
-5.56471e-10
6.46374e-10
-7.41006e-09
9.15026e-09
-1.74908e-08
1.68364e-08
-3.01187e-08
2.29689e-08
-4.46991e-08
2.75816e-08
-6.07732e-08
3.09757e-08
-7.79984e-08
3.3484e-08
-9.61345e-08
3.53962e-08
-1.15021e-07
3.69375e-08
-1.34551e-07
3.8267e-08
-1.54658e-07
3.94863e-08
-1.75294e-07
4.06542e-08
-1.96422e-07
4.17981e-08
-2.18001e-07
4.29235e-08
-2.39991e-07
4.40226e-08
-2.62343e-07
4.50814e-08
-2.85007e-07
4.60863e-08
-3.07931e-07
4.70291e-08
-3.3107e-07
4.79111e-08
-3.54385e-07
4.87441e-08
-3.77852e-07
4.95495e-08
-4.01462e-07
5.03562e-08
-4.2522e-07
5.11961e-08
-4.49144e-07
5.2098e-08
-4.73256e-07
5.30811e-08
-4.97578e-07
5.41503e-08
-5.2212e-07
5.5292e-08
-5.46872e-07
5.64714e-08
-5.71794e-07
5.76316e-08
-5.96809e-07
5.86947e-08
-6.21797e-07
5.95635e-08
-6.46587e-07
6.0125e-08
-6.70962e-07
6.02547e-08
-6.94657e-07
5.9822e-08
-7.17361e-07
5.86965e-08
-7.3873e-07
5.67532e-08
-7.58392e-07
5.38776e-08
-7.75954e-07
4.99719e-08
-7.91016e-07
4.49598e-08
-8.03176e-07
3.87918e-08
-8.12047e-07
3.14491e-08
-8.1726e-07
2.29471e-08
-8.18481e-07
1.33384e-08
-8.15417e-07
2.69571e-09
-8.0785e-07
-8.84517e-09
-7.95435e-07
-2.1098e-08
-7.78142e-07
-3.39232e-08
-7.55901e-07
-4.7053e-08
-7.2873e-07
-6.02109e-08
-6.96752e-07
-7.31297e-08
-6.60167e-07
-8.55006e-08
-6.19307e-07
-9.69082e-08
-5.74637e-07
-1.06973e-07
-5.26718e-07
-1.15448e-07
-4.76212e-07
-1.22027e-07
-4.23894e-07
-1.26417e-07
-3.70629e-07
-1.28393e-07
-3.17352e-07
-1.27819e-07
-2.65032e-07
-1.24661e-07
-2.14637e-07
-1.19e-07
-1.6709e-07
-1.11041e-07
-1.23217e-07
-1.01113e-07
-8.37062e-08
-8.96425e-08
-4.90698e-08
-7.71286e-08
-1.96214e-08
-6.40891e-08
4.51229e-09
-5.10128e-08
2.34553e-08
-3.83259e-08
3.73841e-08
-2.6322e-08
4.66129e-08
-1.52454e-08
5.15047e-08
-5.21758e-09
5.24885e-08
3.70503e-09
4.99722e-08
1.14664e-08
4.44212e-08
1.79402e-08
3.63417e-08
2.29196e-08
2.63937e-08
2.5937e-08
1.55493e-08
2.61898e-08
5.55973e-09
2.22887e-08
1.14631e-08
2.05858e-10
-6.91449e-09
-2.85647e-09
-3.34279e-09
-1.01649e-08
7.95482e-09
-2.10505e-08
2.00358e-08
-3.47086e-08
3.04945e-08
-5.0584e-08
3.88443e-08
-6.82594e-08
4.5257e-08
-8.73985e-08
5.01148e-08
-1.07735e-07
5.38206e-08
-1.29064e-07
5.6725e-08
-1.51229e-07
5.91026e-08
-1.74111e-07
6.11494e-08
-1.97617e-07
6.29923e-08
-2.21667e-07
6.47041e-08
-2.46186e-07
6.63176e-08
-2.71102e-07
6.78389e-08
-2.96338e-07
6.92589e-08
-3.2182e-07
7.05635e-08
-3.47476e-07
7.17423e-08
-3.73241e-07
7.27941e-08
-3.99062e-07
7.37324e-08
-4.24904e-07
7.45859e-08
-4.50751e-07
7.53964e-08
-4.76608e-07
7.62131e-08
-5.02496e-07
7.70842e-08
-5.28447e-07
7.8049e-08
-5.54496e-07
7.91303e-08
-5.80673e-07
8.03271e-08
-6.06991e-07
8.16098e-08
-6.33437e-07
8.29183e-08
-6.59967e-07
8.41614e-08
-6.86493e-07
8.52202e-08
-7.12881e-07
8.59515e-08
-7.3895e-07
8.61946e-08
-7.64476e-07
8.578e-08
-7.89189e-07
8.45355e-08
-8.12786e-07
8.22929e-08
-8.34927e-07
7.88951e-08
-8.55253e-07
7.42029e-08
-8.73382e-07
6.81013e-08
-8.88927e-07
6.0505e-08
-9.01499e-07
5.1363e-08
-9.10712e-07
4.06627e-08
-9.16197e-07
2.84319e-08
-9.17599e-07
1.47407e-08
-9.1466e-07
-2.43796e-10
-9.07002e-07
-1.65027e-08
-8.94422e-07
-3.36782e-08
-8.76767e-07
-5.15785e-08
-8.53934e-07
-6.98859e-08
-8.25896e-07
-8.82492e-08
-7.92724e-07
-1.06301e-07
-7.54576e-07
-1.23648e-07
-7.11704e-07
-1.3978e-07
-6.64484e-07
-1.54193e-07
-6.13455e-07
-1.66478e-07
-5.59242e-07
-1.7624e-07
-5.02603e-07
-1.83056e-07
-4.44418e-07
-1.86578e-07
-3.85668e-07
-1.86569e-07
-3.27409e-07
-1.8292e-07
-2.70738e-07
-1.75671e-07
-2.16742e-07
-1.65037e-07
-1.66441e-07
-1.51414e-07
-1.20721e-07
-1.35362e-07
-8.02787e-08
-1.17571e-07
-4.55673e-08
-9.88005e-08
-1.67765e-08
-7.98036e-08
6.14342e-09
-6.12458e-08
2.34729e-08
-4.36515e-08
3.55991e-08
-2.73717e-08
4.29949e-08
-1.26134e-08
4.61947e-08
5.053e-10
4.56637e-08
1.19974e-08
4.1906e-08
2.16979e-08
3.54154e-08
2.94102e-08
2.66891e-08
3.46634e-08
1.63928e-08
3.64861e-08
6.10721e-09
3.25743e-08
1.75703e-08
-1.84606e-09
-5.06843e-09
-8.73705e-09
3.54821e-09
-1.99779e-08
1.91957e-08
-3.42294e-08
3.42873e-08
-5.07231e-08
4.69882e-08
-6.9061e-08
5.71823e-08
-8.89799e-08
6.51758e-08
-1.10262e-07
7.13973e-08
-1.32718e-07
7.6276e-08
-1.5618e-07
8.0187e-08
-1.80504e-07
8.34266e-08
-2.05564e-07
8.62094e-08
-2.31247e-07
8.86754e-08
-2.57448e-07
9.09054e-08
-2.84067e-07
9.2936e-08
-3.11003e-07
9.47754e-08
-3.38162e-07
9.64177e-08
-3.65454e-07
9.78549e-08
-3.92799e-07
9.90873e-08
-4.20135e-07
1.0013e-07
-4.47422e-07
1.01019e-07
-4.74641e-07
1.01806e-07
-5.01802e-07
1.02557e-07
-5.28931e-07
1.03343e-07
-5.56076e-07
1.04229e-07
-5.83292e-07
1.05265e-07
-6.10636e-07
1.06475e-07
-6.38157e-07
1.07848e-07
-6.65884e-07
1.09336e-07
-6.93814e-07
1.10848e-07
-7.21907e-07
1.12255e-07
-7.50081e-07
1.13394e-07
-7.78206e-07
1.14076e-07
-8.06106e-07
1.14095e-07
-8.3356e-07
1.13234e-07
-8.60302e-07
1.11277e-07
-8.86027e-07
1.08018e-07
-9.10397e-07
1.03266e-07
-9.33048e-07
9.68536e-08
-9.53593e-07
8.86464e-08
-9.71633e-07
7.85444e-08
-9.86759e-07
6.64892e-08
-9.98562e-07
5.24664e-08
-1.00664e-06
3.65095e-08
-1.01061e-06
1.87061e-08
-1.0101e-06
-7.49466e-10
-1.00477e-06
-2.18284e-08
-9.94336e-07
-4.41164e-08
-9.78556e-07
-6.73585e-08
-9.57255e-07
-9.11872e-08
-9.30321e-07
-1.15183e-07
-8.97741e-07
-1.38881e-07
-8.59598e-07
-1.61791e-07
-8.16052e-07
-1.83326e-07
-7.67377e-07
-2.02868e-07
-7.14029e-07
-2.19825e-07
-6.56587e-07
-2.33682e-07
-5.95776e-07
-2.43867e-07
-5.32477e-07
-2.49876e-07
-4.67715e-07
-2.51331e-07
-4.0264e-07
-2.47995e-07
-3.38502e-07
-2.39809e-07
-2.76602e-07
-2.26937e-07
-2.18226e-07
-2.0979e-07
-1.64566e-07
-1.89023e-07
-1.16623e-07
-1.65514e-07
-7.5123e-08
-1.403e-07
-4.04492e-08
-1.14477e-07
-1.26254e-08
-8.90696e-08
8.64149e-09
-6.49184e-08
2.38822e-08
-4.26124e-08
3.37527e-08
-2.2484e-08
3.89264e-08
-4.66833e-09
4.0105e-08
1.08188e-08
3.78746e-08
2.39283e-08
3.27742e-08
3.45106e-08
2.52771e-08
4.21605e-08
1.59205e-08
4.58427e-08
6.09051e-09
4.24043e-08
2.36608e-08
-3.91867e-09
-1.14975e-09
-1.43612e-08
1.39907e-08
-2.89923e-08
3.38268e-08
-4.60812e-08
5.13762e-08
-6.49449e-08
6.58519e-08
-8.53129e-08
7.75502e-08
-1.07034e-07
8.68974e-08
-1.29982e-07
9.43446e-08
-1.54026e-07
1.00321e-07
-1.79038e-07
1.05198e-07
-2.04885e-07
1.09275e-07
-2.31443e-07
1.12767e-07
-2.58587e-07
1.15819e-07
-2.86197e-07
1.18515e-07
-3.14156e-07
1.20895e-07
-3.42352e-07
1.22971e-07
-3.70681e-07
1.24748e-07
-3.99055e-07
1.26229e-07
-4.27403e-07
1.27435e-07
-4.55677e-07
1.28404e-07
-4.83858e-07
1.292e-07
-5.11957e-07
1.29904e-07
-5.4001e-07
1.3061e-07
-5.68078e-07
1.31411e-07
-5.96243e-07
1.32393e-07
-6.24594e-07
1.33615e-07
-6.53218e-07
1.35099e-07
-6.82191e-07
1.36822e-07
-7.11564e-07
1.38709e-07
-7.41353e-07
1.40637e-07
-7.71533e-07
1.42435e-07
-8.02031e-07
1.43892e-07
-8.32726e-07
1.44771e-07
-8.63444e-07
1.44813e-07
-8.93962e-07
1.43752e-07
-9.2401e-07
1.41325e-07
-9.53273e-07
1.37281e-07
-9.814e-07
1.31392e-07
-1.008e-06
1.23459e-07
-1.03268e-06
1.13318e-07
-1.05498e-06
1.00851e-07
-1.07448e-06
8.59838e-08
-1.09071e-06
6.86961e-08
-1.10322e-06
4.90212e-08
-1.11156e-06
2.70515e-08
-1.11532e-06
3.00715e-09
-1.11408e-06
-2.30665e-08
-1.10748e-06
-5.07189e-08
-1.09519e-06
-7.96487e-08
-1.07694e-06
-1.09437e-07
-1.05252e-06
-1.39601e-07
-1.02181e-06
-1.6959e-07
-9.84793e-07
-1.98811e-07
-9.41529e-07
-2.2659e-07
-8.92207e-07
-2.5219e-07
-8.37139e-07
-2.74893e-07
-7.76827e-07
-2.93994e-07
-7.11933e-07
-3.08761e-07
-6.43305e-07
-3.18505e-07
-5.71977e-07
-3.22658e-07
-4.99157e-07
-3.20816e-07
-4.26222e-07
-3.12744e-07
-3.54681e-07
-2.98478e-07
-2.8611e-07
-2.7836e-07
-2.22069e-07
-2.53064e-07
-1.6399e-07
-2.23593e-07
-1.1304e-07
-1.9125e-07
-6.99879e-08
-1.57529e-07
-3.51237e-08
-1.23934e-07
-8.24446e-09
-9.17976e-08
1.12658e-08
-6.21227e-08
2.42817e-08
-3.54999e-08
3.17695e-08
-1.21561e-08
3.46695e-08
7.91885e-09
3.37987e-08
2.47991e-08
2.98416e-08
3.84677e-08
2.3362e-08
4.86401e-08
1.49261e-08
5.42786e-08
5.80603e-09
5.15243e-08
2.94669e-08
-5.81921e-09
4.66946e-09
-1.93995e-08
2.7571e-08
-3.68942e-08
5.13216e-08
-5.63892e-08
7.08712e-08
-7.72822e-08
8.67448e-08
-9.93884e-08
9.96565e-08
-1.22631e-07
1.1014e-07
-1.46945e-07
1.18658e-07
-1.72247e-07
1.25623e-07
-1.98437e-07
1.31389e-07
-2.25402e-07
1.3624e-07
-2.5302e-07
1.40385e-07
-2.81164e-07
1.43964e-07
-3.0971e-07
1.47061e-07
-3.38536e-07
1.49721e-07
-3.6753e-07
1.51965e-07
-3.96593e-07
1.53811e-07
-4.25648e-07
1.55284e-07
-4.54641e-07
1.56428e-07
-4.83551e-07
1.57315e-07
-5.12388e-07
1.58038e-07
-5.41196e-07
1.58712e-07
-5.70051e-07
1.59464e-07
-5.99055e-07
1.60415e-07
-6.2833e-07
1.61668e-07
-6.58004e-07
1.6329e-07
-6.88203e-07
1.65298e-07
-7.19034e-07
1.67652e-07
-7.50574e-07
1.70249e-07
-7.82861e-07
1.72924e-07
-8.15885e-07
1.75459e-07
-8.49583e-07
1.7759e-07
-8.83832e-07
1.79021e-07
-9.18456e-07
1.79436e-07
-9.53219e-07
1.78515e-07
-9.87833e-07
1.75939e-07
-1.02196e-06
1.71409e-07
-1.05522e-06
1.64653e-07
-1.08719e-06
1.55431e-07
-1.11743e-06
1.4355e-07
-1.14544e-06
1.28864e-07
-1.17074e-06
1.11283e-07
-1.19281e-06
9.07723e-08
-1.21116e-06
6.73619e-08
-1.22526e-06
4.11532e-08
-1.23458e-06
1.23331e-08
-1.23873e-06
-1.89168e-08
-1.2372e-06
-5.22477e-08
-1.22959e-06
-8.72594e-08
-1.21554e-06
-1.23493e-07
-1.19473e-06
-1.60408e-07
-1.16694e-06
-1.97384e-07
-1.13202e-06
-2.33732e-07
-1.08993e-06
-2.68677e-07
-1.04076e-06
-3.01355e-07
-9.84712e-07
-3.30946e-07
-9.22136e-07
-3.56569e-07
-8.53598e-07
-3.77299e-07
-7.79864e-07
-3.92239e-07
-7.01924e-07
-4.00598e-07
-6.20985e-07
-4.01754e-07
-5.3849e-07
-3.9524e-07
-4.56087e-07
-3.80881e-07
-3.756e-07
-3.58847e-07
-2.98939e-07
-3.29726e-07
-2.28014e-07
-2.94518e-07
-1.64552e-07
-2.54712e-07
-1.09913e-07
-2.12168e-07
-6.49218e-08
-1.68925e-07
-2.97368e-08
-1.26983e-07
-3.84426e-09
-8.80152e-08
1.3794e-08
-5.31382e-08
2.44796e-08
-2.28417e-08
2.95386e-08
2.85993e-09
3.01402e-08
2.41975e-08
2.72415e-08
4.13664e-08
2.16052e-08
5.42763e-08
1.39326e-08
6.19512e-08
5.47705e-09
5.99799e-08
3.49439e-08
-7.54684e-09
1.22163e-08
-2.37694e-08
4.37935e-08
-4.36513e-08
7.12034e-08
-6.51824e-08
9.24024e-08
-8.78194e-08
1.09382e-07
-1.11428e-07
1.23265e-07
-1.35975e-07
1.34688e-07
-1.61435e-07
1.44118e-07
-1.87758e-07
1.51946e-07
-2.14869e-07
1.585e-07
-2.42671e-07
1.64041e-07
-2.7105e-07
1.68764e-07
-2.99887e-07
1.728e-07
-3.2906e-07
1.76234e-07
-3.58455e-07
1.79115e-07
-3.87968e-07
1.81478e-07
-4.17516e-07
1.83359e-07
-4.47041e-07
1.84809e-07
-4.76518e-07
1.85905e-07
-5.05956e-07
1.86752e-07
-5.35402e-07
1.87484e-07
-5.64942e-07
1.88252e-07
-5.94696e-07
1.89219e-07
-6.24814e-07
1.90533e-07
-6.55463e-07
1.92317e-07
-6.86816e-07
1.94643e-07
-7.19038e-07
1.9752e-07
-7.52271e-07
2.00885e-07
-7.86621e-07
2.04599e-07
-8.22143e-07
2.08447e-07
-8.58837e-07
2.12153e-07
-8.9664e-07
2.15392e-07
-9.3542e-07
2.17801e-07
-9.74981e-07
2.18998e-07
-1.01506e-06
2.18597e-07
-1.05535e-06
2.16221e-07
-1.09545e-06
2.11516e-07
-1.13496e-06
2.04158e-07
-1.17339e-06
1.93867e-07
-1.21026e-06
1.80413e-07
-1.24501e-06
1.63623e-07
-1.27712e-06
1.43388e-07
-1.30601e-06
1.19659e-07
-1.3311e-06
9.24561e-08
-1.35183e-06
6.18855e-08
-1.36763e-06
2.81286e-08
-1.37799e-06
-8.55664e-09
-1.38235e-06
-4.78824e-08
-1.38025e-06
-8.93669e-08
-1.37122e-06
-1.32521e-07
-1.35487e-06
-1.76756e-07
-1.33087e-06
-2.21389e-07
-1.29895e-06
-2.65648e-07
-1.25895e-06
-3.08671e-07
-1.21083e-06
-3.49475e-07
-1.15469e-06
-3.87087e-07
-1.09075e-06
-4.20509e-07
-1.01942e-06
-4.48637e-07
-9.41318e-07
-4.70337e-07
-8.57333e-07
-4.84583e-07
-7.686e-07
-4.90488e-07
-6.76569e-07
-4.87271e-07
-5.82926e-07
-4.74524e-07
-4.89659e-07
-4.52113e-07
-3.9894e-07
-4.20445e-07
-3.13107e-07
-3.80351e-07
-2.34435e-07
-3.33384e-07
-1.64975e-07
-2.81629e-07
-1.06326e-07
-2.27574e-07
-5.93576e-08
-1.73951e-07
-2.40224e-08
-1.2335e-07
6.14667e-10
-7.77752e-08
1.6125e-08
-3.8352e-08
2.43056e-08
-5.32064e-09
2.68471e-08
2.16559e-08
2.51438e-08
4.30698e-08
2.02858e-08
5.91344e-08
1.32035e-08
6.90334e-08
5.2324e-09
6.7951e-08
4.01763e-08
-9.05105e-09
2.12673e-08
-2.74685e-08
6.2211e-08
-4.93257e-08
9.30606e-08
-7.25724e-08
1.15649e-07
-9.67007e-08
1.3351e-07
-1.21601e-07
1.48166e-07
-1.47266e-07
1.60352e-07
-1.7369e-07
1.70543e-07
-2.0085e-07
1.79105e-07
-2.28687e-07
1.86338e-07
-2.57122e-07
1.92476e-07
-2.86054e-07
1.97696e-07
-3.15374e-07
2.02121e-07
-3.44975e-07
2.05834e-07
-3.74753e-07
2.08894e-07
-4.04626e-07
2.11351e-07
-4.34532e-07
2.13265e-07
-4.64441e-07
2.14718e-07
-4.9436e-07
2.15824e-07
-5.24337e-07
2.16729e-07
-5.54462e-07
2.17609e-07
-5.84868e-07
2.18659e-07
-6.15726e-07
2.20077e-07
-6.47237e-07
2.22043e-07
-6.79617e-07
2.24697e-07
-7.13088e-07
2.28114e-07
-7.47855e-07
2.32288e-07
-7.84094e-07
2.37124e-07
-8.21929e-07
2.42434e-07
-8.61429e-07
2.47946e-07
-9.02588e-07
2.53313e-07
-9.45328e-07
2.58132e-07
-9.89493e-07
2.61966e-07
-1.03485e-06
2.64357e-07
-1.0811e-06
2.64848e-07
-1.12788e-06
2.62997e-07
-1.17475e-06
2.5839e-07
-1.22125e-06
2.50651e-07
-1.26684e-06
2.39457e-07
-1.31096e-06
2.24541e-07
-1.35305e-06
2.05706e-07
-1.39248e-06
1.82825e-07
-1.42866e-06
1.55832e-07
-1.46094e-06
1.24739e-07
-1.48872e-06
8.96614e-08
-1.51137e-06
5.07848e-08
-1.52834e-06
8.41038e-09
-1.53903e-06
-3.71948e-08
-1.5429e-06
-8.54959e-08
-1.53944e-06
-1.35976e-07
-1.52819e-06
-1.8801e-07
-1.50871e-06
-2.40865e-07
-1.48065e-06
-2.93706e-07
-1.44373e-06
-3.45598e-07
-1.39771e-06
-3.9549e-07
-1.34256e-06
-4.42242e-07
-1.27838e-06
-4.84693e-07
-1.20541e-06
-5.216e-07
-1.12415e-06
-5.51597e-07
-1.03527e-06
-5.73466e-07
-9.39761e-07
-5.85995e-07
-8.38984e-07
-5.88049e-07
-7.34584e-07
-5.78924e-07
-6.28607e-07
-5.5809e-07
-5.23399e-07
-5.25653e-07
-4.21609e-07
-4.8214e-07
-3.25947e-07
-4.29046e-07
-2.39112e-07
-3.68464e-07
-1.63559e-07
-3.03127e-07
-1.01115e-07
-2.36396e-07
-5.26186e-08
-1.71847e-07
-1.77045e-08
-1.12689e-07
5.1243e-09
-6.11808e-08
1.8076e-08
-1.82723e-08
2.34898e-08
1.6242e-08
2.34063e-08
4.31532e-08
1.94217e-08
6.3119e-08
1.28168e-08
7.56383e-08
5.12328e-09
7.56446e-08
4.52996e-08
-1.0326e-08
3.15933e-08
-3.05409e-08
8.24259e-08
-5.40181e-08
1.16538e-07
-7.86963e-08
1.40327e-07
-1.04085e-07
1.58898e-07
-1.30083e-07
1.74165e-07
-1.56693e-07
1.86961e-07
-1.83924e-07
1.97773e-07
-2.11764e-07
2.06946e-07
-2.40175e-07
2.14749e-07
-2.69091e-07
2.21391e-07
-2.98426e-07
2.27031e-07
-3.2809e-07
2.31784e-07
-3.5799e-07
2.35734e-07
-3.88046e-07
2.3895e-07
-4.18199e-07
2.41503e-07
-4.48415e-07
2.43481e-07
-4.787e-07
2.45003e-07
-5.09097e-07
2.46222e-07
-5.39699e-07
2.47331e-07
-5.70644e-07
2.48554e-07
-6.02117e-07
2.50132e-07
-6.34343e-07
2.52303e-07
-6.67578e-07
2.55278e-07
-7.02091e-07
2.59211e-07
-7.38151e-07
2.64173e-07
-7.75999e-07
2.70136e-07
-8.15834e-07
2.76958e-07
-8.5779e-07
2.84391e-07
-9.01928e-07
2.92084e-07
-9.48222e-07
2.99607e-07
-9.96561e-07
3.06471e-07
-1.04674e-06
3.1215e-07
-1.09849e-06
3.16106e-07
-1.15145e-06
3.17805e-07
-1.20519e-06
3.16738e-07
-1.25923e-06
3.1243e-07
-1.31303e-06
3.04455e-07
-1.36602e-06
2.92445e-07
-1.41758e-06
2.76099e-07
-1.46708e-06
2.55201e-07
-1.51387e-06
2.29618e-07
-1.5573e-06
1.99262e-07
-1.5967e-06
1.6414e-07
-1.63143e-06
1.2439e-07
-1.66086e-06
8.02187e-08
-1.68437e-06
3.19131e-08
-1.7014e-06
-2.01613e-08
-1.71136e-06
-7.55375e-08
-1.71372e-06
-1.33617e-07
-1.70796e-06
-1.93763e-07
-1.69362e-06
-2.55214e-07
-1.67023e-06
-3.17096e-07
-1.6374e-06
-3.78424e-07
-1.59478e-06
-4.38106e-07
-1.5421e-06
-4.94922e-07
-1.47923e-06
-5.47569e-07
-1.40621e-06
-5.94613e-07
-1.32333e-06
-6.34478e-07
-1.23108e-06
-6.65716e-07
-1.13035e-06
-6.86728e-07
-1.02226e-06
-6.96142e-07
-9.08366e-07
-6.92814e-07
-7.90628e-07
-6.75828e-07
-6.71459e-07
-6.44822e-07
-5.53674e-07
-5.99926e-07
-4.40301e-07
-5.42419e-07
-3.34595e-07
-4.7417e-07
-2.39784e-07
-3.97937e-07
-1.58682e-07
-3.17498e-07
-9.32672e-08
-2.37261e-07
-4.42388e-08
-1.61718e-07
-1.07424e-08
-9.46772e-08
9.45275e-09
-3.84674e-08
1.92862e-08
6.40862e-09
2.16348e-08
4.08046e-08
1.88479e-08
6.59059e-08
1.2729e-08
8.17572e-08
5.15007e-09
8.32235e-08
5.04497e-08
-1.13837e-08
4.2977e-08
-3.30463e-08
1.04088e-07
-5.78357e-08
1.41327e-07
-8.36905e-08
1.66182e-07
-1.10126e-07
1.85334e-07
-1.3704e-07
2.01079e-07
-1.64436e-07
2.14357e-07
-1.92329e-07
2.25666e-07
-2.20718e-07
2.35335e-07
-2.49577e-07
2.43607e-07
-2.78855e-07
2.50669e-07
-3.08487e-07
2.56663e-07
-3.38399e-07
2.61696e-07
-3.68522e-07
2.65858e-07
-3.98802e-07
2.6923e-07
-4.29208e-07
2.71909e-07
-4.59741e-07
2.74015e-07
-4.90444e-07
2.75705e-07
-5.21404e-07
2.77182e-07
-5.5276e-07
2.78687e-07
-5.84704e-07
2.80498e-07
-6.17477e-07
2.82904e-07
-6.51361e-07
2.86187e-07
-6.86669e-07
2.90586e-07
-7.23721e-07
2.96262e-07
-7.62823e-07
3.03275e-07
-8.04244e-07
3.11557e-07
-8.48189e-07
3.20904e-07
-8.94785e-07
3.30986e-07
-9.44063e-07
3.41362e-07
-9.95959e-07
3.51503e-07
-1.05031e-06
3.60821e-07
-1.10686e-06
3.68697e-07
-1.16526e-06
3.74508e-07
-1.2251e-06
3.77643e-07
-1.28588e-06
3.77524e-07
-1.34707e-06
3.73619e-07
-1.40807e-06
3.65452e-07
-1.46824e-06
3.52614e-07
-1.52691e-06
3.34769e-07
-1.58339e-06
3.11687e-07
-1.63703e-06
2.83251e-07
-1.68712e-06
2.49353e-07
-1.73297e-06
2.09995e-07
-1.77395e-06
1.65366e-07
-1.80943e-06
1.15701e-07
-1.83881e-06
6.12926e-08
-1.86156e-06
2.59105e-09
-1.87712e-06
-5.99848e-08
-1.885e-06
-1.25736e-07
-1.88469e-06
-1.94066e-07
-1.8757e-06
-2.64206e-07
-1.85754e-06
-3.35259e-07
-1.82973e-06
-4.06236e-07
-1.79181e-06
-4.76023e-07
-1.74336e-06
-5.43372e-07
-1.684e-06
-6.06925e-07
-1.61348e-06
-6.65139e-07
-1.53165e-06
-7.1631e-07
-1.43865e-06
-7.58711e-07
-1.33502e-06
-7.90356e-07
-1.22168e-06
-8.09485e-07
-1.10016e-06
-8.14332e-07
-9.72331e-07
-8.0366e-07
-8.40574e-07
-7.76579e-07
-7.07659e-07
-7.3284e-07
-5.7684e-07
-6.73237e-07
-4.51852e-07
-5.99159e-07
-3.36537e-07
-5.13251e-07
-2.34585e-07
-4.1945e-07
-1.49127e-07
-3.2272e-07
-8.21993e-08
-2.28645e-07
-3.41718e-08
-1.42705e-07
-3.45873e-09
-6.91805e-08
1.30993e-08
-1.01494e-08
1.92208e-08
3.46831e-08
1.82634e-08
6.68633e-08
1.28185e-08
8.72021e-08
5.28536e-09
9.07566e-08
5.5735e-08
-1.22412e-08
5.52182e-08
-3.50459e-08
1.26893e-07
-6.08782e-08
1.6716e-07
-8.76808e-08
1.92985e-07
-1.14966e-07
2.12619e-07
-1.42627e-07
2.28739e-07
-1.70659e-07
2.42389e-07
-1.99082e-07
2.54089e-07
-2.27902e-07
2.64155e-07
-2.57103e-07
2.72809e-07
-2.86652e-07
2.80218e-07
-3.16501e-07
2.86512e-07
-3.46599e-07
2.91795e-07
-3.76904e-07
2.96162e-07
-4.07388e-07
2.99715e-07
-4.38055e-07
3.02576e-07
-4.68943e-07
3.04902e-07
-5.00135e-07
3.06897e-07
-5.31767e-07
3.08813e-07
-5.64028e-07
3.10949e-07
-5.97166e-07
3.13636e-07
-6.3148e-07
3.17218e-07
-6.6731e-07
3.22018e-07
-7.05021e-07
3.28297e-07
-7.44977e-07
3.36218e-07
-7.87511e-07
3.45809e-07
-8.32899e-07
3.56945e-07
-8.81335e-07
3.69339e-07
-9.32911e-07
3.82563e-07
-9.87615e-07
3.96066e-07
-1.04532e-06
4.0921e-07
-1.1058e-06
4.21303e-07
-1.16874e-06
4.31631e-07
-1.23371e-06
4.39482e-07
-1.30024e-06
4.44169e-07
-1.36776e-06
4.45047e-07
-1.43567e-06
4.41525e-07
-1.5033e-06
4.33081e-07
-1.56995e-06
4.19271e-07
-1.63491e-06
3.99724e-07
-1.69741e-06
3.7419e-07
-1.75676e-06
3.426e-07
-1.81225e-06
3.04845e-07
-1.86319e-06
2.60933e-07
-1.90895e-06
2.11131e-07
-1.94899e-06
1.55744e-07
-1.98281e-06
9.51098e-08
-2.00991e-06
2.96872e-08
-2.02991e-06
-3.9978e-08
-2.04243e-06
-1.13224e-07
-2.04702e-06
-1.89477e-07
-2.0432e-06
-2.68018e-07
-2.0305e-06
-3.47965e-07
-2.00837e-06
-4.28359e-07
-1.97627e-06
-5.08124e-07
-1.93363e-06
-5.86012e-07
-1.8799e-06
-6.60656e-07
-1.81452e-06
-7.30519e-07
-1.73708e-06
-7.93757e-07
-1.64728e-06
-8.4851e-07
-1.54494e-06
-8.92696e-07
-1.43037e-06
-9.24053e-07
-1.30458e-06
-9.40121e-07
-1.16923e-06
-9.39011e-07
-1.02692e-06
-9.18885e-07
-8.8052e-07
-8.79244e-07
-7.33505e-07
-8.20252e-07
-5.89832e-07
-7.42832e-07
-4.53786e-07
-6.49297e-07
-3.29853e-07
-5.43383e-07
-2.22222e-07
-4.30351e-07
-1.34279e-07
-3.16588e-07
-6.79289e-08
-2.09055e-07
-2.2905e-08
-1.14204e-07
3.42425e-09
-3.64787e-08
1.53056e-08
2.28018e-08
1.72199e-08
6.4949e-08
1.29029e-08
9.15191e-08
5.48593e-09
9.81736e-08
6.12209e-08
-1.29168e-08
6.8135e-08
-3.65968e-08
1.50573e-07
-6.32345e-08
1.93797e-07
-9.07783e-08
2.20528e-07
-1.18733e-07
2.40574e-07
-1.4698e-07
2.56986e-07
-1.75511e-07
2.7092e-07
-2.04343e-07
2.82921e-07
-2.33488e-07
2.93299e-07
-2.62941e-07
3.02262e-07
-2.92685e-07
3.09962e-07
-3.22693e-07
3.16519e-07
-3.52936e-07
3.22039e-07
-3.83401e-07
3.26627e-07
-4.14092e-07
3.30406e-07
-4.45046e-07
3.33531e-07
-4.76344e-07
3.36199e-07
-5.08111e-07
3.38664e-07
-5.40531e-07
3.41234e-07
-5.7385e-07
3.44267e-07
-6.08371e-07
3.48156e-07
-6.4445e-07
3.53297e-07
-6.82483e-07
3.6005e-07
-7.22878e-07
3.68692e-07
-7.66027e-07
3.79368e-07
-8.12274e-07
3.92056e-07
-8.6188e-07
4.0655e-07
-9.15003e-07
4.22462e-07
-9.71685e-07
4.39245e-07
-1.03185e-06
4.56229e-07
-1.0953e-06
4.72659e-07
-1.16173e-06
4.87738e-07
-1.23075e-06
5.00653e-07
-1.30188e-06
5.10604e-07
-1.37454e-06
5.16827e-07
-1.4481e-06
5.1861e-07
-1.52187e-06
5.153e-07
-1.59511e-06
5.06322e-07
-1.66705e-06
4.91211e-07
-1.7369e-06
4.69569e-07
-1.80381e-06
4.41101e-07
-1.86703e-06
4.05819e-07
-1.92588e-06
3.63697e-07
-1.97972e-06
3.14777e-07
-2.028e-06
2.59402e-07
-2.07026e-06
1.98008e-07
-2.10617e-06
1.3102e-07
-2.13545e-06
5.89715e-08
-2.1579e-06
-1.75283e-08
-2.17348e-06
-9.76446e-08
-2.18187e-06
-1.81088e-07
-2.18267e-06
-2.67218e-07
-2.17543e-06
-3.55203e-07
-2.15958e-06
-4.44216e-07
-2.13438e-06
-5.33324e-07
-2.09906e-06
-6.21328e-07
-2.05302e-06
-7.06697e-07
-1.99557e-06
-7.87966e-07
-1.92587e-06
-8.63461e-07
-1.8431e-06
-9.31276e-07
-1.74662e-06
-9.89182e-07
-1.63616e-06
-1.03451e-06
-1.51186e-06
-1.06442e-06
-1.37429e-06
-1.07658e-06
-1.22544e-06
-1.06774e-06
-1.06832e-06
-1.03636e-06
-9.07142e-07
-9.81431e-07
-7.46235e-07
-9.03739e-07
-5.90211e-07
-8.05321e-07
-4.44132e-07
-6.89463e-07
-3.13215e-07
-5.61268e-07
-2.0211e-07
-4.27693e-07
-1.14282e-07
-2.96883e-07
-5.11789e-08
-1.77308e-07
-1.14693e-08
-7.61883e-08
8.89201e-09
2.44047e-09
1.52646e-08
5.85764e-08
1.28009e-08
9.39829e-08
5.71524e-09
1.05259e-07
6.69362e-08
-1.34301e-08
8.15651e-08
-3.77494e-08
1.74893e-07
-6.49814e-08
2.21029e-07
-9.30794e-08
2.48627e-07
-1.21537e-07
2.69032e-07
-1.50224e-07
2.85673e-07
-1.79124e-07
2.99821e-07
-2.08253e-07
3.1205e-07
-2.37627e-07
3.22673e-07
-2.67253e-07
3.31889e-07
-2.97129e-07
3.39838e-07
-3.27248e-07
3.46638e-07
-3.57609e-07
3.52399e-07
-3.88225e-07
3.57243e-07
-4.19134e-07
3.61316e-07
-4.50412e-07
3.64808e-07
-4.82177e-07
3.67965e-07
-5.14604e-07
3.71091e-07
-5.47925e-07
3.74556e-07
-5.8244e-07
3.78782e-07
-6.18508e-07
3.84224e-07
-6.56539e-07
3.91328e-07
-6.96973e-07
4.00485e-07
-7.4025e-07
4.11969e-07
-7.86772e-07
4.2589e-07
-8.36869e-07
4.42153e-07
-8.90766e-07
4.60447e-07
-9.48566e-07
4.80262e-07
-1.01024e-06
5.00921e-07
-1.07564e-06
5.21628e-07
-1.14449e-06
5.41509e-07
-1.21641e-06
5.59657e-07
-1.29092e-06
5.7516e-07
-1.36744e-06
5.87127e-07
-1.44533e-06
5.94714e-07
-1.52385e-06
5.97132e-07
-1.60222e-06
5.93673e-07
-1.67959e-06
5.83692e-07
-1.75506e-06
5.66673e-07
-1.82775e-06
5.42264e-07
-1.89678e-06
5.10133e-07
-1.96133e-06
4.70365e-07
-2.02076e-06
4.23126e-07
-2.0745e-06
3.68515e-07
-2.12207e-06
3.06974e-07
-2.1632e-06
2.39145e-07
-2.19781e-06
1.65627e-07
-2.22591e-06
8.70693e-08
-2.24741e-06
3.97532e-09
-2.26267e-06
-8.23871e-08
-2.27154e-06
-1.72218e-07
-2.27423e-06
-2.64525e-07
-2.27083e-06
-3.58607e-07
-2.26112e-06
-4.53925e-07
-2.24453e-06
-5.49911e-07
-2.21999e-06
-6.45874e-07
-2.18598e-06
-7.40706e-07
-2.14074e-06
-8.33202e-07
-2.0829e-06
-9.21301e-07
-2.01135e-06
-1.00283e-06
-1.92532e-06
-1.07521e-06
-1.82448e-06
-1.13535e-06
-1.7079e-06
-1.181e-06
-1.57512e-06
-1.20937e-06
-1.4269e-06
-1.21595e-06
-1.26513e-06
-1.19813e-06
-1.09361e-06
-1.15295e-06
-9.17766e-07
-1.07958e-06
-7.43337e-07
-9.7975e-07
-5.75965e-07
-8.56834e-07
-4.21592e-07
-7.15641e-07
-2.86135e-07
-5.6315e-07
-1.74572e-07
-4.08446e-07
-9.01581e-08
-2.61721e-07
-3.33964e-08
-1.3295e-07
-1.36859e-09
-2.95873e-08
1.16801e-08
4.55277e-08
1.22045e-08
9.34585e-08
5.91521e-09
1.11548e-07
7.28514e-08
-1.38012e-08
9.53663e-08
-3.85465e-08
1.99638e-07
-6.6184e-08
2.48667e-07
-9.4667e-08
2.7711e-07
-1.23475e-07
2.9784e-07
-1.52465e-07
3.14664e-07
-1.81614e-07
3.2897e-07
-2.10936e-07
3.41371e-07
-2.40451e-07
3.52189e-07
-2.70178e-07
3.61615e-07
-3.0013e-07
3.6979e-07
-3.30322e-07
3.7683e-07
-3.60778e-07
3.82855e-07
-3.91541e-07
3.88006e-07
-4.22683e-07
3.92458e-07
-4.54317e-07
3.96442e-07
-4.86604e-07
4.00251e-07
-5.19762e-07
4.04249e-07
-5.54077e-07
4.0887e-07
-5.89898e-07
4.14603e-07
-6.27635e-07
4.21962e-07
-6.67745e-07
4.31438e-07
-7.10698e-07
4.43438e-07
-7.56949e-07
4.58219e-07
-8.06887e-07
4.75829e-07
-8.60807e-07
4.96073e-07
-9.18876e-07
5.18517e-07
-9.81128e-07
5.42514e-07
-1.04746e-06
5.6725e-07
-1.11762e-06
5.91796e-07
-1.19128e-06
6.1516e-07
-1.26794e-06
6.36322e-07
-1.34705e-06
6.54265e-07
-1.42792e-06
6.67997e-07
-1.5098e-06
6.76595e-07
-1.59186e-06
6.79192e-07
-1.67316e-06
6.74973e-07
-1.7527e-06
6.63234e-07
-1.82941e-06
6.4338e-07
-1.90234e-06
6.15197e-07
-1.97064e-06
5.78437e-07
-2.03341e-06
5.33133e-07
-2.08998e-06
4.79699e-07
-2.13995e-06
4.18482e-07
-2.18308e-06
3.50101e-07
-2.21935e-06
2.75416e-07
-2.24896e-06
1.95232e-07
-2.27201e-06
1.10127e-07
-2.28904e-06
2.10036e-08
-2.3003e-06
-7.1126e-08
-2.30668e-06
-1.65843e-07
-2.30854e-06
-2.62665e-07
-2.30606e-06
-3.61084e-07
-2.29932e-06
-4.60661e-07
-2.28821e-06
-5.61027e-07
-2.27226e-06
-6.61821e-07
-2.25044e-06
-7.62528e-07
-2.22128e-06
-8.62358e-07
-2.18251e-06
-9.60077e-07
-2.13136e-06