/*--------------------------------*- C++ -*----------------------------------*\
  =========                 |
  \\      /  F ield         | OpenFOAM: The Open Source CFD Toolbox
   \\    /   O peration     | Website:  https://openfoam.org
    \\  /    A nd           | Version:  13
     \\/     M anipulation  |
\*---------------------------------------------------------------------------*/
FoamFile
{
    format      ascii;
    class       volScalarField;
    location    "1.5";
    object      k;
}
// * * * * * * * * * * * * * * * * * * * * * * * * * * * * * * * * * * * * * //

dimensions      [0 2 -2 0 0 0 0];

internalField   nonuniform List<scalar> 
400
(
5.38701e-05
9.02599e-05
0.00011979
0.000138342
0.000149641
0.000156889
0.000162249
0.000167027
0.00017186
0.000176843
0.000181664
0.000185552
0.000187358
0.000187822
0.000187781
0.000180945
0.000164624
0.000134438
8.80353e-05
5.63406e-05
9.14899e-05
0.000225462
0.000292883
0.000331875
0.000356069
0.000371995
0.000383749
0.000393977
0.000404195
0.000414981
0.000426146
0.000436831
0.000445594
0.000449475
0.000447138
0.000431241
0.000392539
0.000317077
0.000189385
9.01114e-05
0.000133097
0.000324886
0.000417352
0.000471156
0.00050482
0.000526818
0.000542344
0.000554618
0.000565302
0.00057478
0.000582461
0.000586614
0.000587682
0.000583316
0.000570046
0.000541961
0.000488982
0.00039443
0.00023581
0.000118669
0.000164985
0.000392553
0.00050139
0.000565356
0.00060597
0.000632797
0.000651637
0.000666056
0.000677851
0.000687315
0.000692475
0.00069371
0.000689393
0.000676583
0.000655023
0.000627024
0.000595055
0.000535717
0.000381244
0.000209849
0.000188759
0.000441408
0.000562431
0.000634292
0.000680525
0.000711557
0.000733673
0.000750731
0.000764655
0.000775101
0.000779404
0.00077898
0.000769041
0.000750756
0.000745007
0.000780142
0.000863383
0.000897229
0.000765927
0.000492077
0.000206331
0.000477127
0.000607663
0.000686034
0.000737081
0.00077193
0.000797314
0.000817345
0.00083391
0.000845487
0.000849515
0.00084604
0.000833179
0.000831993
0.00089269
0.00109175
0.00128711
0.0013481
0.00122335
0.000901687
0.000219242
0.000503234
0.000641191
0.000724902
0.000780032
0.00081823
0.000846593
0.000869383
0.000888248
0.000900148
0.00090327
0.000896737
0.000891165
0.000925977
0.0011013
0.00142939
0.00162726
0.00168352
0.00151986
0.00117489
0.000228679
0.000522151
0.000665702
0.000753578
0.000811952
0.000852822
0.000883521
0.000908324
0.000928469
0.000939364
0.000940566
0.000932955
0.00093564
0.00101887
0.00128582
0.00166602
0.00187188
0.00193374
0.00174482
0.00132175
0.000235572
0.00053566
0.000683154
0.000773972
0.000834604
0.00087726
0.00090939
0.000935189
0.000955142
0.000964014
0.000962223
0.000952911
0.000963052
0.00108333
0.00140088
0.00180669
0.00207386
0.002168
0.00199532
0.0014646
0.000240676
0.000545166
0.00069512
0.000787645
0.000849471
0.000892954
0.000925568
0.000951348
0.000969852
0.000976786
0.00097091
0.00095798
0.000969101
0.0011025
0.00143339
0.00185587
0.00222078
0.00237982
0.0022323
0.00157235
0.000244647
0.000551858
0.000702962
0.000796037
0.000858077
0.000901572
0.00093398
0.000959139
0.000976127
0.000981513
0.000972195
0.000955462
0.000962045
0.00108524
0.0014023
0.00184042
0.0022847
0.00256164
0.00247598
0.00165207
0.000248039
0.000556767
0.000707943
0.000800629
0.000862205
0.000905339
0.000937444
0.000962153
0.000978616
0.000983866
0.000974226
0.000953403
0.000950759
0.00104988
0.0013368
0.0017809
0.00229522
0.00269687
0.00270119
0.00171379
0.000251581
0.000560957
0.000711354
0.000803128
0.000864219
0.000907545
0.000940374
0.000966032
0.000983753
0.00099026
0.000982011
0.000960745
0.000953422
0.00102325
0.00126082
0.00169231
0.00224585
0.00275948
0.00289481
0.00174998
0.000255476
0.000565231
0.000714639
0.000805943
0.000867812
0.000912927
0.000948338
0.000977095
0.000998499
0.00100904
0.00100489
0.000987047
0.000976495
0.00102621
0.00120835
0.00159868
0.00216948
0.00277521
0.00303983
0.00176836
0.000261424
0.000571329
0.000720073
0.000812687
0.000877836
0.000928203
0.000970333
0.00100683
0.00103682
0.00105659
0.00106166
0.00105252
0.00104258
0.00107278
0.00120863
0.00153516
0.00207985
0.00275446
0.00310196
0.00177619
0.000268644
0.000580559
0.000731992
0.000830406
0.000905108
0.000968107
0.00102513
0.00107816
0.00112599
0.00116452
0.00118853
0.00119603
0.00119513
0.00121356
0.00130316
0.00154624
0.00203358
0.0027221
0.00310563
0.00177914
0.000280261
0.000600575
0.000761883
0.000878332
0.000977455
0.00106912
0.00115779
0.00124456
0.00132772
0.00140246
0.00146216
0.00150242
0.00152386
0.00154492
0.0016019
0.00175819
0.0020987
0.0027126
0.00295548
0.00175927
0.000308077
0.000648684
0.000849969
0.00102319
0.00118497
0.00134172
0.00149601
0.00164756
0.00179467
0.00193256
0.00205134
0.00214659
0.00220972
0.00225029
0.00228222
0.0023538
0.00251095
0.00285385
0.00274663
0.00173252
0.000309376
0.000697931
0.00107769
0.00141628
0.00171812
0.00199428
0.00225041
0.00248854
0.00269985
0.00288635
0.00304064
0.00317097
0.0032621
0.00332942
0.00335818
0.00335597
0.00327663
0.00311926
0.00265187
0.00168335
0.000255884
0.000332493
0.000483347
0.000631082
0.000773363
0.000908373
0.00103799
0.00116321
0.00128763
0.00140295
0.00151928
0.00161774
0.00171911
0.00178762
0.00185738
0.00187878
0.00187924
0.00186858
0.00181696
0.00161378
)
;

boundaryField
{
    movingWall
    {
        type            kqRWallFunction;
        value           nonuniform List<scalar> 
20
(
0.000255884
0.000332493
0.000483347
0.000631082
0.000773363
0.000908373
0.00103799
0.00116321
0.00128763
0.00140295
0.00151928
0.00161774
0.00171911
0.00178762
0.00185738
0.00187878
0.00187924
0.00186858
0.00181696
0.00161378
)
;
    }
    fixedWalls
    {
        type            kqRWallFunction;
        value           nonuniform List<scalar> 
60
(
5.38701e-05
9.14899e-05
0.000133097
0.000164985
0.000188759
0.000206331
0.000219242
0.000228679
0.000235572
0.000240676
0.000244647
0.000248039
0.000251581
0.000255476
0.000261424
0.000268644
0.000280261
0.000308077
0.000309376
0.000255884
5.63406e-05
9.01114e-05
0.000118669
0.000209849
0.000492077
0.000901687
0.00117489
0.00132175
0.0014646
0.00157235
0.00165207
0.00171379
0.00174998
0.00176836
0.00177619
0.00177914
0.00175927
0.00173252
0.00168335
0.00161378
5.38701e-05
9.02599e-05
0.00011979
0.000138342
0.000149641
0.000156889
0.000162249
0.000167027
0.00017186
0.000176843
0.000181664
0.000185552
0.000187358
0.000187822
0.000187781
0.000180945
0.000164624
0.000134438
8.80353e-05
5.63406e-05
)
;
    }
    frontAndBack
    {
        type            empty;
    }
}


// ************************************************************************* //
