/*--------------------------------*- C++ -*----------------------------------*\
  =========                 |
  \\      /  F ield         | OpenFOAM: The Open Source CFD Toolbox
   \\    /   O peration     | Website:  https://openfoam.org
    \\  /    A nd           | Version:  13
     \\/     M anipulation  |
\*---------------------------------------------------------------------------*/
FoamFile
{
    format      ascii;
    class       volScalarField;
    location    "1.5";
    object      p;
}
// * * * * * * * * * * * * * * * * * * * * * * * * * * * * * * * * * * * * * //

dimensions      [0 2 -2 0 0 0 0];

internalField   nonuniform List<scalar> 
400
(
1.98289e-09
-8.44179e-06
-7.88853e-06
2.41576e-06
2.42526e-05
5.91793e-05
0.000109404
0.000177983
0.000269151
0.000388701
0.000544004
0.000742641
0.000993743
0.00131325
0.00170056
0.00212547
0.00254519
0.00288203
0.00307603
0.0031192
8.17802e-06
-1.27075e-06
2.50609e-07
1.28068e-05
3.6003e-05
7.08423e-05
0.000119357
0.000184309
0.00026945
0.000379883
0.000522314
0.000705064
0.000939783
0.00124071
0.00160822
0.00203459
0.00247696
0.00285115
0.00307172
0.00312302
3.80528e-06
-1.14098e-05
-1.32889e-05
-1.39842e-06
2.07711e-05
5.27011e-05
9.58073e-05
0.000152287
0.000225232
0.000319109
0.000440336
0.000598052
0.000805916
0.00108126
0.00143924
0.00188608
0.00238084
0.0028125
0.00306308
0.00313766
-2.04085e-05
-4.41906e-05
-5.45256e-05
-4.85363e-05
-3.2033e-05
-7.58948e-06
2.50559e-05
6.72039e-05
0.00012112
0.000190657
0.000281888
0.000404648
0.000575449
0.000819214
0.001164
0.00162971
0.0021695
0.00265043
0.00295099
0.00310795
-6.95422e-05
-0.000101479
-0.000122269
-0.000126157
-0.000119918
-0.000107878
-9.11459e-05
-6.96585e-05
-4.23497e-05
-6.54758e-06
4.2495e-05
0.000113633
0.000223338
0.000401279
0.00068733
0.00109319
0.00161377
0.00216058
0.00261392
0.00289943
-0.000143563
-0.000181858
-0.000212657
-0.000228199
-0.000235396
-0.000239813
-0.000243986
-0.000249445
-0.000256981
-0.000266332
-0.000275995
-0.000282402
-0.00027851
-0.00024323
-0.000124063
0.000139535
0.000596553
0.00123721
0.00191162
0.00225973
-0.000239462
-0.000282198
-0.000321735
-0.000349334
-0.000371721
-0.000395379
-0.00042431
-0.000462009
-0.000511903
-0.000577614
-0.000663492
-0.000776854
-0.000927567
-0.00110234
-0.00121931
-0.00115207
-0.000776311
-7.00655e-05
0.000770036
0.0011298
-0.000352401
-0.000397909
-0.000444706
-0.000483895
-0.000521957
-0.000566117
-0.000621858
-0.000694868
-0.000791809
-0.000921307
-0.00109557
-0.00133457
-0.0016639
-0.00206677
-0.00242405
-0.00253004
-0.00223945
-0.0015634
-0.000666893
-0.000251494
-0.000476759
-0.00052354
-0.000575969
-0.000625494
-0.000678375
-0.000742448
-0.000824562
-0.000932512
-0.00107624
-0.00126934
-0.00153162
-0.00189142
-0.00238324
-0.00297491
-0.00350382
-0.0037247
-0.00352008
-0.00292595
-0.0021227
-0.00163688
-0.000606709
-0.000653539
-0.00070968
-0.000767425
-0.000832844
-0.000914223
-0.00101947
-0.00115802
-0.00134227
-0.00158936
-0.00192484
-0.00237743
-0.00297912
-0.00368472
-0.00430752
-0.00459815
-0.00446825
-0.00396906
-0.00331344
-0.00280971
-0.000736954
-0.000782789
-0.00084038
-0.000903295
-0.000977571
-0.00107178
-0.00119447
-0.00135598
-0.0015699
-0.00185486
-0.00223605
-0.00274148
-0.00338929
-0.00412968
-0.00477801
-0.0050996
-0.0050283
-0.00461619
-0.00410214
-0.00356795
-0.000863364
-0.000907059
-0.000963423
-0.00102753
-0.00110582
-0.00120705
-0.00133998
-0.00151509
-0.00174578
-0.00204911
-0.00244766
-0.00296511
-0.0036028
-0.00431578
-0.00493968
-0.00526051
-0.0052293
-0.0048548
-0.00444491
-0.00385962
-0.000983853
-0.00102388
-0.00107552
-0.00113573
-0.00121227
-0.00131408
-0.00144971
-0.00162913
-0.00186447
-0.00216883
-0.0025643
-0.00306267
-0.00365676
-0.0043016
-0.00485754
-0.00515734
-0.00514823
-0.00471333
-0.00443266
-0.00367708
-0.00109853
-0.00113226
-0.00117445
-0.00122433
-0.00129299
-0.00138909
-0.00152072
-0.00169719
-0.00193027
-0.00222043
-0.00260034
-0.00306417
-0.00359906
-0.00415752
-0.00463135
-0.00487778
-0.00481935
-0.0043178
-0.00417642
-0.00306789
-0.00121292
-0.00123515
-0.00126057
-0.00129245
-0.00134528
-0.0014298
-0.00155198
-0.00171934
-0.00194092
-0.00222354
-0.00257839
-0.00300289
-0.00347838
-0.00395509
-0.00434125
-0.0045073
-0.00436405
-0.00375671
-0.00363785
-0.00204899
-0.00133756
-0.00133384
-0.0013303
-0.00133526
-0.00136479
-0.00143164
-0.00154013
-0.00169618
-0.00190624
-0.00217629
-0.00251035
-0.00290172
-0.00332648
-0.00373095
-0.004027
-0.00408507
-0.00380215
-0.00297007
-0.00271397
-0.000465125
-0.00150205
-0.00143929
-0.00138274
-0.00134097
-0.00134334
-0.00138953
-0.00148227
-0.00162602
-0.00182553
-0.00208432
-0.00240318
-0.00276993
-0.00315458
-0.00349279
-0.00369091
-0.00359769
-0.00308436
-0.00183762
-0.00113915
0.00264348
-0.00173586
-0.00154772
-0.00139268
-0.00130163
-0.00127957
-0.00130928
-0.00138924
-0.00152163
-0.0017113
-0.00196159
-0.0022714
-0.0026216
-0.00297586
-0.00324878
-0.00332715
-0.00300203
-0.00216264
-0.000268006
0.0016519
0.0090547
-0.00224624
-0.0018167
-0.00158279
-0.00145575
-0.00141084
-0.00142417
-0.00148895
-0.00160612
-0.00177936
-0.00201101
-0.00230301
-0.00262851
-0.00295701
-0.00317575
-0.00317558
-0.00264792
-0.00126465
0.00157353
0.00587062
0.0190283
-0.00189435
0.000381763
0.000454241
0.000318402
0.00022255
0.000123719
-2.10047e-05
-0.000218896
-0.000473001
-0.00078247
-0.00114377
-0.00153946
-0.00191372
-0.00217835
-0.00214018
-0.00160195
1.89579e-05
0.00379674
0.0108023
0.0248809
)
;

boundaryField
{
    movingWall
    {
        type            zeroGradient;
    }
    fixedWalls
    {
        type            zeroGradient;
    }
    frontAndBack
    {
        type            empty;
    }
}


// ************************************************************************* //
