/*--------------------------------*- C++ -*----------------------------------*\
  =========                 |
  \\      /  F ield         | OpenFOAM: The Open Source CFD Toolbox
   \\    /   O peration     | Website:  https://openfoam.org
    \\  /    A nd           | Version:  13
     \\/     M anipulation  |
\*---------------------------------------------------------------------------*/
FoamFile
{
    format      ascii;
    class       surfaceScalarField;
    location    "1.5";
    object      phi;
}
// * * * * * * * * * * * * * * * * * * * * * * * * * * * * * * * * * * * * * //

dimensions      [0 3 -1 0 0 0 0];

internalField   nonuniform List<scalar> 
760
(
-2.49543e-08
2.49541e-08
-1.04169e-07
7.92147e-08
-2.18638e-07
1.14469e-07
-3.49882e-07
1.31244e-07
-4.8935e-07
1.39468e-07
-6.34314e-07
1.44964e-07
-7.84177e-07
1.49863e-07
-9.38393e-07
1.54216e-07
-1.095e-06
1.56603e-07
-1.24927e-06
1.54276e-07
-1.39246e-06
1.43184e-07
-1.51023e-06
1.17772e-07
-1.58294e-06
7.27144e-08
-1.59345e-06
1.05082e-08
-1.50891e-06
-8.45364e-08
-1.31e-06
-1.98919e-07
-9.95371e-07
-3.14624e-07
-6.04902e-07
-3.9047e-07
-2.3307e-07
-3.71831e-07
-2.3307e-07
-7.68735e-08
1.01828e-07
-1.97892e-07
2.00233e-07
-3.41077e-07
2.57654e-07
-4.98448e-07
2.88614e-07
-6.65203e-07
3.06223e-07
-8.38629e-07
3.18391e-07
-1.01703e-06
3.28259e-07
-1.19849e-06
3.35682e-07
-1.37983e-06
3.3794e-07
-1.55552e-06
3.29966e-07
-1.71689e-06
3.0456e-07
-1.85201e-06
2.52892e-07
-1.94484e-06
1.65545e-07
-1.96873e-06
3.43964e-08
-1.90006e-06
-1.53208e-07
-1.70819e-06
-3.90793e-07
-1.37373e-06
-6.49084e-07
-9.07805e-07
-8.5639e-07
-3.83529e-07
-8.96107e-07
-6.16599e-07
-1.12925e-07
2.14753e-07
-2.50217e-07
3.37525e-07
-3.97253e-07
4.04691e-07
-5.54562e-07
4.45923e-07
-7.21367e-07
4.73028e-07
-8.96303e-07
4.93326e-07
-1.07806e-06
5.10016e-07
-1.26512e-06
5.22742e-07
-1.45514e-06
5.27955e-07
-1.64416e-06
5.18995e-07
-1.82589e-06
4.86284e-07
-1.99072e-06
4.17726e-07
-2.12319e-06
2.98016e-07
-2.19931e-06
1.10514e-07
-2.18658e-06
-1.65938e-07
-2.03491e-06
-5.42467e-07
-1.69313e-06
-9.90859e-07
-1.14886e-06
-1.40066e-06
-4.94774e-07
-1.55019e-06
-1.11137e-06
-1.29009e-07
3.43762e-07
-2.73631e-07
4.82147e-07
-4.2153e-07
5.5259e-07
-5.75958e-07
6.00351e-07
-7.38878e-07
6.35948e-07
-9.10857e-07
6.65304e-07
-1.092e-06
6.91163e-07
-1.28228e-06
7.13017e-07
-1.48129e-06
7.26971e-07
-1.68782e-06
7.25525e-07
-1.89908e-06
6.97536e-07
-2.10907e-06
6.27723e-07
-2.30521e-06
4.94153e-07
-2.46127e-06
2.66576e-07
-2.53249e-06
-9.47234e-08
-2.43286e-06
-6.42097e-07
-2.07807e-06
-1.34564e-06
-1.45536e-06
-2.02337e-06
-6.70748e-07
-2.33481e-06
-1.78212e-06
-1.32365e-07
4.76127e-07
-2.78104e-07
6.27886e-07
-4.24835e-07
6.99321e-07
-5.757e-07
7.51216e-07
-7.33917e-07
7.94165e-07
-9.01692e-07
8.3308e-07
-1.08086e-06
8.70329e-07
-1.27334e-06
9.055e-07
-1.48125e-06
9.34881e-07
-1.70668e-06
9.50956e-07
-1.95119e-06
9.42041e-07
-2.21378e-06
8.9032e-07
-2.48671e-06
7.67079e-07
-2.7409e-06
5.20763e-07
-2.90164e-06
6.60158e-08
-2.84296e-06
-7.00768e-07
-2.48536e-06
-1.70325e-06
-1.84563e-06
-2.6631e-06
-9.7391e-07
-3.20653e-06
-2.75603e-06
-1.28538e-07
6.04665e-07
-2.70806e-07
7.70154e-07
-4.13754e-07
8.42268e-07
-5.5956e-07
8.97023e-07
-7.11718e-07
9.46323e-07
-8.73486e-07
9.94847e-07
-1.04815e-06
1.04499e-06
-1.23946e-06
1.09681e-06
-1.45188e-06
1.14731e-06
-1.69072e-06
1.1898e-06
-1.96172e-06
1.21303e-06
-2.26842e-06
1.19703e-06
-2.60351e-06
1.10216e-06
-2.92128e-06
8.38534e-07
-3.1013e-06
2.46032e-07
-3.0369e-06
-7.65159e-07
-2.70969e-06
-2.03046e-06
-2.11645e-06
-3.25634e-06
-1.22428e-06
-4.0987e-06
-3.98031e-06
-1.20665e-07
7.2533e-07
-2.5606e-07
9.05549e-07
-3.92466e-07
9.78675e-07
-5.30912e-07
1.03547e-06
-6.74581e-07
1.08999e-06
-8.27134e-07
1.1474e-06
-9.92686e-07
1.21054e-06
-1.17612e-06
1.28024e-06
-1.3834e-06
1.35458e-06
-1.62184e-06
1.42824e-06
-1.89931e-06
1.49051e-06
-2.21946e-06
1.51718e-06
-2.5655e-06
1.4482e-06
-2.86594e-06
1.13897e-06
-2.99388e-06
3.73974e-07
-2.89302e-06
-8.6602e-07
-2.59896e-06
-2.32452e-06
-2.08384e-06
-3.77146e-06
-1.23093e-06
-4.95161e-06
-5.21124e-06
-1.10455e-07
8.35785e-07
-2.36469e-07
1.03156e-06
-3.63763e-07
1.10597e-06
-4.92153e-07
1.16386e-06
-6.24113e-07
1.22195e-06
-7.63079e-07
1.28637e-06
-9.13204e-07
1.36067e-06
-1.07948e-06
1.44652e-06
-1.26795e-06
1.54305e-06
-1.48579e-06
1.64608e-06
-1.73935e-06
1.74407e-06
-2.02687e-06
1.8047e-06
-2.31997e-06
1.7413e-06
-2.53864e-06
1.35765e-06
-2.58916e-06
4.24494e-07
-2.47701e-06
-9.78172e-07
-2.23335e-06
-2.56818e-06
-1.80765e-06
-4.19716e-06
-1.0764e-06
-5.68287e-06
-6.28764e-06
-9.90964e-08
9.34881e-07
-2.1399e-07
1.14646e-06
-3.30006e-07
1.22199e-06
-4.45665e-07
1.27952e-06
-5.6243e-07
1.33872e-06
-6.82984e-07
1.40692e-06
-8.10772e-07
1.48846e-06
-9.49857e-07
1.58561e-06
-1.10487e-06
1.69806e-06
-1.2806e-06
1.82181e-06
-1.47944e-06
1.94291e-06
-1.6921e-06
2.01736e-06
-1.88772e-06
1.93692e-06
-2.00485e-06
1.47478e-06
-2.00895e-06
4.28591e-07
-1.92694e-06
-1.06017e-06
-1.76893e-06
-2.7262e-06
-1.47662e-06
-4.48947e-06
-9.1285e-07
-6.24664e-06
-7.20049e-06
-8.76327e-08
1.02251e-06
-1.90526e-07
1.24935e-06
-2.93722e-07
1.32518e-06
-3.94355e-07
1.38015e-06
-4.92714e-07
1.43708e-06
-5.90411e-07
1.50462e-06
-6.89688e-07
1.58773e-06
-7.93009e-07
1.68893e-06
-9.02683e-07
1.80773e-06
-1.02002e-06
1.93915e-06
-1.14321e-06
2.0661e-06
-1.25722e-06
2.13137e-06
-1.34404e-06
2.02374e-06
-1.37703e-06
1.50777e-06
-1.36369e-06
4.1525e-07
-1.33003e-06
-1.09383e-06
-1.26722e-06
-2.78902e-06
-1.1152e-06
-4.64148e-06
-7.6736e-07
-6.59448e-06
-7.96785e-06
-7.72592e-08
1.09977e-06
-1.68331e-07
1.34042e-06
-2.57892e-07
1.41474e-06
-3.41784e-07
1.46404e-06
-4.19171e-07
1.51446e-06
-4.90573e-07
1.57602e-06
-5.56943e-07
1.6541e-06
-6.19041e-07
1.75103e-06
-6.76841e-07
1.86553e-06
-7.28333e-07
1.99064e-06
-7.66742e-07
2.10451e-06
-7.82484e-07
2.14711e-06
-7.71396e-07
2.01265e-06
-7.42973e-07
1.47935e-06
-7.33168e-07
4.05445e-07
-7.60044e-07
-1.06696e-06
-7.96268e-07
-2.75279e-06
-7.75511e-07
-4.66224e-06
-5.97407e-07
-6.77258e-06
-8.56525e-06
-6.93262e-08
1.1691e-06
-1.50001e-07
1.4211e-06
-2.25894e-07
1.49064e-06
-2.91867e-07
1.53001e-06
-3.46334e-07
1.56893e-06
-3.89063e-07
1.61875e-06
-4.20023e-07
1.68506e-06
-4.38622e-07
1.76962e-06
-4.42937e-07
1.86985e-06
-4.28774e-07
1.97648e-06
-3.89982e-07
2.06572e-06
-3.23752e-07
2.08088e-06
-2.35034e-07
1.92393e-06
-1.66067e-07
1.41038e-06
-1.67063e-07
4.06441e-07
-2.53713e-07
-9.80306e-07
-3.85926e-07
-2.62058e-06
-4.78713e-07
-4.56945e-06
-4.60815e-07
-6.79048e-06
-9.02607e-06
-6.64927e-08
1.23559e-06
-1.38953e-07
1.49356e-06
-2.01408e-07
1.55309e-06
-2.48244e-07
1.57685e-06
-2.77967e-07
1.59865e-06
-2.90249e-07
1.63103e-06
-2.84684e-07
1.6795e-06
-2.60142e-07
1.74508e-06
-2.14223e-07
1.82393e-06
-1.42274e-07
1.90453e-06
-4.00918e-08
1.96354e-06
8.92162e-08
1.95157e-06
2.31377e-07
1.78177e-06
3.30614e-07
1.31114e-06
3.17449e-07
4.19606e-07
1.8233e-07
-8.45187e-07
-1.90032e-08
-2.41925e-06
-2.23261e-07
-4.3652e-06
-3.40652e-07
-6.67309e-06
-9.36672e-06
-7.00985e-08
1.30569e-06
-1.38413e-07
1.56187e-06
-1.87519e-07
1.6022e-06
-2.12879e-07
1.60221e-06
-2.15297e-07
1.60107e-06
-1.95122e-07
1.61085e-06
-1.52223e-07
1.6366e-06
-8.56735e-08
1.67853e-06
6.75038e-09
1.73151e-06
1.27e-07
1.78428e-06
2.77437e-07
1.8131e-06
4.51997e-07
1.77701e-06
6.26763e-07
1.60701e-06
7.41972e-07
1.19593e-06
7.2318e-07
4.38398e-07
5.54286e-07
-6.76294e-07
2.79694e-07
-2.14465e-06
-2.38459e-08
-4.06166e-06
-2.18721e-07
-6.47821e-06
-9.58544e-06
-8.97557e-08
1.39545e-06
-1.53983e-07
1.6261e-06
-1.84512e-07
1.63273e-06
-1.83565e-07
1.60126e-06
-1.5435e-07
1.57186e-06
-9.82535e-08
1.55476e-06
-1.61036e-08
1.55445e-06
9.2024e-08
1.57041e-06
2.26899e-07
1.59663e-06
3.8965e-07
1.62153e-06
5.7792e-07
1.62483e-06
7.81804e-07
1.57313e-06
9.74502e-07
1.41431e-06
1.10106e-06
1.06938e-06
1.08784e-06
4.51612e-07
9.0727e-07
-4.95721e-07
5.89431e-07
-1.82681e-06
2.29065e-07
-3.70129e-06
-3.97219e-08
-6.20943e-06
-9.62516e-06
-1.23024e-07
1.51847e-06
-1.8524e-07
1.68831e-06
-1.88792e-07
1.63628e-06
-1.50343e-07
1.56281e-06
-7.93327e-08
1.50085e-06
2.01352e-08
1.45529e-06
1.46438e-07
1.42815e-06
2.99439e-07
1.4174e-06
4.78908e-07
1.41716e-06
6.8327e-07
1.41716e-06
9.06926e-07
1.40117e-06
1.13698e-06
1.34307e-06
1.34598e-06
1.20531e-06
1.48571e-06
9.29648e-07
1.48872e-06
4.48604e-07
1.31376e-06
-3.20765e-07
9.63591e-07
-1.47665e-06
5.24512e-07
-3.26221e-06
1.23369e-07
-5.80828e-06
-9.50179e-06
-2.15278e-07
1.73375e-06
-2.31686e-07
1.70472e-06
-1.70175e-07
1.57477e-06
-6.88451e-08
1.46148e-06
6.27838e-08
1.36922e-06
2.20637e-07
1.29744e-06
4.04361e-07
1.24442e-06
6.14153e-07
1.20761e-06
8.4846e-07
1.18285e-06
1.10327e-06
1.16235e-06
1.36997e-06
1.13448e-06
1.63423e-06
1.07881e-06
1.86844e-06
9.71099e-07
2.03191e-06
7.66182e-07
2.06272e-06
4.17796e-07
1.90554e-06
-1.63592e-07
1.51791e-06
-1.08902e-06
9.53474e-07
-2.69777e-06
3.33759e-07
-5.18857e-06
-9.16803e-06
-3.03476e-07
2.03722e-06
-2.07852e-07
1.6091e-06
-2.00799e-08
1.38699e-06
1.98099e-07
1.24331e-06
4.36539e-07
1.13078e-06
6.94749e-07
1.03923e-06
9.71586e-07
9.67585e-07
1.2655e-06
9.13697e-07
1.57412e-06
8.74235e-07
1.89413e-06
8.42338e-07
2.21648e-06
8.12131e-07
2.52886e-06
7.66433e-07
2.80328e-06
6.96677e-07
3.0061e-06
5.63361e-07
3.07324e-06
3.50662e-07
2.97122e-06
-6.15786e-08
2.542e-06
-6.59793e-07
1.80029e-06
-1.95606e-06
7.90172e-07
-4.17845e-06
-8.37786e-06
-1.69192e-07
2.20642e-06
1.75693e-07
1.26421e-06
6.02403e-07
9.60285e-07
1.03963e-06
8.06081e-07
1.47102e-06
6.99383e-07
1.89762e-06
6.12626e-07
2.32071e-06
5.44501e-07
2.73933e-06
4.95071e-07
3.1534e-06
4.6017e-07
3.56369e-06
4.32049e-07
3.96136e-06
4.14459e-07
4.34452e-06
3.83269e-07
4.67918e-06
3.62025e-07
4.95878e-06
2.8376e-07
5.09017e-06
2.19266e-07
5.01815e-06
1.0443e-08
4.67572e-06
-3.17364e-07
3.81864e-06
-1.09898e-06
2.13283e-06
-2.49265e-06
-6.24503e-06
2.20642e-06
3.47063e-06
4.43091e-06
5.23699e-06
5.93638e-06
6.549e-06
7.09351e-06
7.58858e-06
8.04875e-06
8.48079e-06
8.89525e-06
9.27852e-06
9.64055e-06
9.92431e-06
1.01436e-05
1.0154e-05
9.83665e-06
8.73768e-06
6.24503e-06
)
;

boundaryField
{
    movingWall
    {
        type            calculated;
        value           uniform 0;
    }
    fixedWalls
    {
        type            calculated;
        value           uniform 0;
    }
    frontAndBack
    {
        type            empty;
    }
}


// ************************************************************************* //
