/*--------------------------------*- C++ -*----------------------------------*\
  =========                 |
  \\      /  F ield         | OpenFOAM: The Open Source CFD Toolbox
   \\    /   O peration     | Website:  https://openfoam.org
    \\  /    A nd           | Version:  13
     \\/     M anipulation  |
\*---------------------------------------------------------------------------*/
FoamFile
{
    format      ascii;
    class       volScalarField;
    location    "1.4";
    object      epsilon;
}
// * * * * * * * * * * * * * * * * * * * * * * * * * * * * * * * * * * * * * //

dimensions      [0 2 -3 0 0 0 0];

internalField   nonuniform List<scalar> 
6400
(
1.40701e-05
6.85194e-05
0.000143144
0.000219546
0.000291527
0.000357212
0.000417186
0.000472343
0.000523416
0.000570957
0.000615441
0.000657355
0.000697249
0.000735743
0.000773512
0.000811261
0.000849691
0.000889463
0.000931165
0.00097528
0.00102217
0.00107206
0.00112507
0.00118117
0.00124028
0.00130222
0.00136685
0.00143399
0.00150353
0.00157542
0.00164964
0.00172628
0.00180543
0.00188728
0.001972
0.00205976
0.0021507
0.00224485
0.00234212
0.00244223
0.00254464
0.00264849
0.00275252
0.00285505
0.00295398
0.00304719
0.00313398
0.00322313
0.00330281
0.00336855
0.00341436
0.00344389
0.00345518
0.00344145
0.00339999
0.00333225
0.00323861
0.00312033
0.00297978
0.00282035
0.00264606
0.00246134
0.00227073
0.00207855
0.00188867
0.00170424
0.00152763
0.00136046
0.00120308
0.00105578
0.000918097
0.000789276
0.000669594
0.000556651
0.000448667
0.000345158
0.000246145
0.0001531
7.14025e-05
1.4622e-05
6.90885e-05
5.93934e-05
8.77738e-05
0.000124109
0.000160934
0.000195936
0.000228579
0.000258909
0.000287132
0.000313505
0.000338317
0.0003619
0.000384629
0.000406913
0.000429189
0.000451907
0.000475511
0.000500423
0.000527024
0.000555633
0.000586493
0.000619745
0.000655434
0.00069351
0.000733839
0.000776223
0.000820425
0.000866194
0.000913283
0.000961466
0.00101054
0.00106033
0.00111068
0.00116144
0.00121243
0.00126347
0.00131431
0.00136467
0.00141417
0.00146238
0.00150878
0.00155277
0.00159367
0.00163081
0.00166357
0.00169174
0.00171547
0.00173626
0.00174942
0.00175466
0.0017532
0.00174296
0.00172381
0.00169402
0.00165352
0.0016028
0.00154242
0.00147329
0.00139667
0.00131416
0.0012276
0.00113888
0.00104986
0.000962193
0.000877225
0.000795948
0.000718971
0.000646538
0.000578547
0.000514706
0.000454545
0.000397531
0.000343445
0.000291323
0.000240294
0.000190078
0.000141114
9.57307e-05
6.19126e-05
7.18618e-05
0.000150459
9.23037e-05
0.000102357
0.000127639
0.000156819
0.000186298
0.000214799
0.000241802
0.000267158
0.000290921
0.000313281
0.00033452
0.000354975
0.000375016
0.00039502
0.00041535
0.000436342
0.000458288
0.000481425
0.000505931
0.000531943
0.000559476
0.000588485
0.000618875
0.00065052
0.000683272
0.000716986
0.000751528
0.000786797
0.000822724
0.000859274
0.000896431
0.000934198
0.000972588
0.00101161
0.00105126
0.00109153
0.00113235
0.00117364
0.00121527
0.0012571
0.00129883
0.0013401
0.00138058
0.00141989
0.00145774
0.00149325
0.00152516
0.00155179
0.00157224
0.00158341
0.00158672
0.00158078
0.00156363
0.00153409
0.00149219
0.00143838
0.00137357
0.00129917
0.00121706
0.00112951
0.001039
0.000948004
0.000858801
0.000773295
0.000692894
0.000618462
0.00055034
0.000488417
0.000432239
0.000381123
0.000334265
0.000290866
0.000250138
0.000211175
0.000173488
0.000137504
0.000106055
9.22382e-05
0.000154658
0.00024613
0.000136425
0.000132517
0.000151283
0.000176711
0.000204078
0.000231408
0.000257763
0.000282716
0.000306146
0.000328136
0.000348899
0.000368725
0.000387942
0.000406885
0.000425877
0.000445174
0.000465003
0.000485536
0.000506869
0.000528953
0.000551989
0.000576055
0.000601155
0.000627309
0.000654551
0.000682933
0.000712527
0.000743433
0.00077578
0.000809718
0.000845419
0.000883067
0.000922856
0.000964979
0.00100961
0.00105692
0.001107
0.00115993
0.00121563
0.0012738
0.00133443
0.00139735
0.0014621
0.00152796
0.00159367
0.00165766
0.00171817
0.00177315
0.00182051
0.00185796
0.00188143
0.00189022
0.00188654
0.00186404
0.00182209
0.00176127
0.00168269
0.00158827
0.00148081
0.00136385
0.00124138
0.00111756
0.000996304
0.00088096
0.000774053
0.000677149
0.000590877
0.000515054
0.000448893
0.000391219
0.000340677
0.000295894
0.00025559
0.000218666
0.000184465
0.000153602
0.000130215
0.000131353
0.000243562
0.000350976
0.000184389
0.000167101
0.0001808
0.000203742
0.000229764
0.000256438
0.000282563
0.000307518
0.000331037
0.000353091
0.000373809
0.000393414
0.000412171
0.000430352
0.000448209
0.000466001
0.000483946
0.00050224
0.000521083
0.000540735
0.000561331
0.000583035
0.00060594
0.000630225
0.000656095
0.000683789
0.000713588
0.000745773
0.000780634
0.000818508
0.00085977
0.000904818
0.000954068
0.00100795
0.00106689
0.00113132
0.00120159
0.00127803
0.00136091
0.00145034
0.00154581
0.00164663
0.00175178
0.00185982
0.00196889
0.00207697
0.00218136
0.00227894
0.00236629
0.00243974
0.00249552
0.00252613
0.00253583
0.00252253
0.00247771
0.00240268
0.00229886
0.00216879
0.00201643
0.00184708
0.00166709
0.00148331
0.00130252
0.00113071
0.000972607
0.00083124
0.000707933
0.000602477
0.000513508
0.000438956
0.000376459
0.000323676
0.000278506
0.00023927
0.000205052
0.000176324
0.000157826
0.000170707
0.000329523
0.000460931
0.000233419
0.000202791
0.000211699
0.00023243
0.000257284
0.000283381
0.000309313
0.000334316
0.000358006
0.000380255
0.000401106
0.000420715
0.000439295
0.000457084
0.000474331
0.000491289
0.000508206
0.00052534
0.000542962
0.000561362
0.000580798
0.000601565
0.00062408
0.000648746
0.000675989
0.000706264
0.000740038
0.000777825
0.000820209
0.000867796
0.000921228
0.000981188
0.0010484
0.00112361
0.00120755
0.00130093
0.00140435
0.00151827
0.00164288
0.00177813
0.00192362
0.00207841
0.00224102
0.00240937
0.00258082
0.00275207
0.00291913
0.00307748
0.00322213
0.00334776
0.00344899
0.00351653
0.0035458
0.00354821
0.00350484
0.00341463
0.00327947
0.00310211
0.00288741
0.00264247
0.00237646
0.00210002
0.00182434
0.00156007
0.00131612
0.00109881
0.000911408
0.000754191
0.0006251
0.000520583
0.000436468
0.000368635
0.000313462
0.000268108
0.000230826
0.000201744
0.000186006
0.000208409
0.000409733
0.000573694
0.000282484
0.000238465
0.0002427
0.000261351
0.000285111
0.00031064
0.00033635
0.000361369
0.000385219
0.000407689
0.000428748
0.000448489
0.000467083
0.000484751
0.000501745
0.000518347
0.000534868
0.000551655
0.000569094
0.00058761
0.000607662
0.000629767
0.000654505
0.00068249
0.000714373
0.000750851
0.000792678
0.000840677
0.000895733
0.00095881
0.00103094
0.00111324
0.00120684
0.00131295
0.00143272
0.00156721
0.00171733
0.00188371
0.00206659
0.00226576
0.00248042
0.00270909
0.0029495
0.00319863
0.00345269
0.00370701
0.00395615
0.00419406
0.0044141
0.00460918
0.0047719
0.00489456
0.004962
0.00498428
0.00495711
0.00486084
0.00469866
0.00447273
0.00418747
0.00385067
0.00347364
0.0030709
0.00265927
0.00225627
0.00187821
0.00153819
0.00124449
0.00100002
0.000802809
0.000647442
0.000526795
0.000433577
0.000361342
0.000305019
0.000261273
0.000229296
0.00021425
0.000244179
0.000484279
0.00068769
0.000331143
0.000273629
0.0002733
0.000289948
0.000312664
0.000337633
0.000363096
0.000388091
0.000412071
0.000434758
0.000456063
0.000476033
0.000494809
0.000512611
0.000529716
0.000546465
0.000563256
0.000580552
0.000598885
0.000618849
0.000641107
0.000666393
0.000695512
0.000729334
0.000768801
0.00081494
0.000868876
0.000931842
0.00100518
0.00109036
0.00118894
0.0013026
0.00143303
0.00158196
0.00175097
0.00194147
0.00215451
0.00239067
0.00264992
0.00293151
0.00323385
0.00355446
0.00388994
0.00423599
0.00458753
0.00493864
0.00528263
0.00561227
0.0059198
0.006197
0.00643533
0.00662609
0.00675393
0.0068109
0.00681764
0.00673877
0.00657052
0.0063139
0.00597067
0.00554662
0.00505247
0.00450443
0.00392396
0.00333634
0.00276815
0.00224405
0.00178317
0.00139641
0.00108553
0.00084451
0.000662476
0.000527022
0.000426675
0.000352241
0.000297381
0.000259377
0.000242748
0.000278281
0.000554082
0.000801648
0.00037922
0.000307918
0.000303292
0.000317958
0.00033967
0.000364097
0.000389306
0.000414256
0.000438346
0.000461252
0.000482845
0.000503142
0.000522279
0.000540491
0.000558107
0.000575543
0.00059331
0.000612012
0.000632346
0.000655106
0.00068118
0.000711554
0.000747322
0.000789686
0.000839976
0.000899663
0.000970374
0.0010539
0.00115221
0.00126741
0.00140174
0.0015575
0.00173698
0.00194232
0.00217536
0.00243752
0.00272956
0.00305145
0.00340225
0.00378
0.00418175
0.00460351
0.00504044
0.0054869
0.00593668
0.00638318
0.00681933
0.00723766
0.00763041
0.00798948
0.00830641
0.00857244
0.00877815
0.00890311
0.00895066
0.00892659
0.00879261
0.00854777
0.0081884
0.00771545
0.00713416
0.00645732
0.00570645
0.00491168
0.00410941
0.00333912
0.00263757
0.00203279
0.00153921
0.0011562
0.000871126
0.000665012
0.000518268
0.000414368
0.000341428
0.000293068
0.000272038
0.000311116
0.000620013
0.000914597
0.000426499
0.000341343
0.000332494
0.00034522
0.000365971
0.00038989
0.000414859
0.000439765
0.000463969
0.000487118
0.000509062
0.000529811
0.000549516
0.000568451
0.000587013
0.00060572
0.000625215
0.000646264
0.00066976
0.000696724
0.000728315
0.000765834
0.000810745
0.000864691
0.000929513
0.00100727
0.00110026
0.00121099
0.00134218
0.00149668
0.00167743
0.00188727
0.00212884
0.00240431
0.00271524
0.00306232
0.00344517
0.00386227
0.00431086
0.004787
0.00528575
0.00580131
0.00632733
0.00685722
0.0073844
0.00790265
0.00840612
0.00888888
0.0093446
0.00976721
0.0101504
0.0104882
0.0107717
0.0109905
0.0111209
0.011169
0.0111278
0.0109616
0.0106558
0.0102089
0.00961578
0.00887743
0.00800684
0.00703293
0.00599449
0.00494365
0.00393764
0.00303074
0.00226369
0.00165519
0.00120014
0.000875719
0.000651663
0.00049949
0.000397425
0.000332266
0.000302982
0.000343125
0.000682669
0.00102579
0.000472879
0.000373866
0.000360808
0.000371627
0.000391463
0.000414915
0.000439678
0.000464568
0.000488918
0.000512363
0.000534753
0.000556114
0.000576631
0.00059664
0.000616627
0.000637233
0.000659254
0.000683647
0.000711533
0.000744209
0.000783165
0.000830104
0.000886969
0.000955973
0.00103962
0.00114073
0.00126241
0.00140801
0.00158105
0.00178508
0.00202351
0.00229932
0.00261488
0.00297162
0.00336977
0.00380819
0.00428427
0.00479387
0.00533151
0.00589065
0.00646401
0.00704407
0.00762344
0.00819542
0.0087543
0.00929574
0.00981739
0.0103178
0.0107931
0.0112411
0.0116592
0.0120438
0.0123923
0.0127002
0.0129573
0.013141
0.0132227
0.0132284
0.0130628
0.0127432
0.0122539
0.0115749
0.0106936
0.00963772
0.00842845
0.00712384
0.00579476
0.00452347
0.00338898
0.00244884
0.00172595
0.00120689
0.000853686
0.000621504
0.000472138
0.000380083
0.000336897
0.000374829
0.000742476
0.00113466
0.000518302
0.000405453
0.000388174
0.000397106
0.000416067
0.000439101
0.000463708
0.000488632
0.000513189
0.000537017
0.000559985
0.000582154
0.000603766
0.000625238
0.000647169
0.000670345
0.000695741
0.000724538
0.00075813
0.000798153
0.000846511
0.000905413
0.000977413
0.00106545
0.00117285
0.00130333
0.00146091
0.00164979
0.00187416
0.00213791
0.00244435
0.0027958
0.00319329
0.00363625
0.00412233
0.00464724
0.00520493
0.00578776
0.00638692
0.00699303
0.00759677
0.00818955
0.00876401
0.00931464
0.00983782
0.0103316
0.0107956
0.0112312
0.0116395
0.0120283
0.0124037
0.0127707
0.0131326
0.0134897
0.0138382
0.014169
0.0144703
0.0147265
0.0148655
0.0149023
0.0146822
0.0142316
0.0134908
0.0125244
0.0112848
0.00983905
0.0082487
0.00661283
0.00505054
0.00367363
0.00256035
0.00173521
0.00116959
0.000804152
0.000576974
0.000441613
0.000375837
0.000406964
0.000799929
0.00124076
0.000562734
0.000436082
0.000414551
0.000421604
0.000439727
0.000462396
0.000486907
0.000511937
0.000536789
0.000561118
0.000584828
0.000608037
0.000631061
0.000654423
0.000678856
0.000705313
0.000734985
0.000769315
0.000810031
0.000859183
0.000919188
0.000992888
0.0010836
0.00119513
0.00133177
0.00149821
0.00169935
0.00194004
0.00222467
0.00255679
0.00293856
0.00337042
0.00385067
0.00437532
0.00493799
0.00553016
0.00614146
0.00676031
0.00737462
0.00797269
0.00854422
0.0090811
0.00957792
0.0100328
0.0104466
0.0108224
0.0111678
0.0114895
0.011801
0.0121143
0.0124375
0.0127772
0.0131377
0.0135204
0.013923
0.0143391
0.0147584
0.0151667
0.0155477
0.0159093
0.0161483
0.0162332
0.0159923
0.0153542
0.014285
0.0129082
0.0112199
0.00931647
0.00734437
0.00546898
0.00384508
0.0025734
0.00167244
0.00108748
0.000731261
0.000525319
0.00042312
0.000440698
0.000855968
0.00134378
0.00060616
0.000465742
0.000439913
0.000445086
0.0004624
0.000484757
0.000509243
0.000534466
0.000559723
0.000584697
0.000609345
0.000633855
0.000658643
0.000684353
0.000711877
0.000742368
0.000777265
0.000818331
0.000867692
0.000927904
0.00100201
0.00109363
0.00120697
0.00134685
0.00151858
0.00172778
0.00197997
0.00228011
0.002632
0.00303767
0.00349683
0.00400649
0.00456073
0.00515076
0.00576519
0.0063905
0.00701188
0.00761414
0.00818281
0.00870544
0.00917253
0.0095799
0.00992546
0.0102165
0.0104625
0.0106784
0.0108676
0.0110413
0.0112187
0.0114167
0.0116478
0.0119227
0.0122508
0.0126389
0.0130902
0.0136036
0.0141717
0.0147798
0.0154032
0.0159989
0.0165348
0.0169994
0.0173211
0.0174277
0.0170033
0.0160059
0.0144773
0.0125194
0.0102737
0.00793221
0.00572698
0.00386712
0.00247154
0.00153681
0.000967646
0.000645458
0.000484269
0.000477948
0.00091251
0.00144345
0.000648574
0.000494432
0.000464246
0.000467527
0.000484055
0.000506152
0.000530688
0.000556204
0.000581995
0.000607782
0.000633586
0.000659686
0.000686611
0.000715152
0.000746385
0.000781694
0.000822815
0.000871884
0.00093151
0.00100485
0.00109571
0.0012086
0.00134874
0.00152202
0.00173471
0.00199308
0.00230273
0.00266787
0.00309048
0.00356966
0.00410109
0.00467688
0.00528564
0.00591287
0.00654166
0.00715369
0.00773042
0.00825454
0.00871125
0.00909024
0.00938169
0.00960315
0.00978082
0.00989672
0.00994664
0.00995764
0.00995736
0.00996836
0.0100074
0.0100806
0.0102065
0.0103952
0.0106568
0.0110017
0.0114381
0.0119729
0.0126095
0.0133452
0.0141677
0.0150568
0.0159719
0.0168525
0.0175987
0.0182058
0.0185091
0.0184801
0.0176185
0.015934
0.013696
0.0110635
0.00831413
0.00577402
0.0037135
0.00225277
0.00134024
0.000826209
0.000568727
0.000521656
0.000973274
0.00153954
0.000689969
0.000522157
0.000487536
0.00048891
0.00050467
0.000526555
0.000551221
0.000577137
0.000603603
0.000630387
0.000657584
0.000685578
0.000715032
0.000746905
0.000782483
0.000823421
0.000871797
0.000930191
0.00100178
0.00109043
0.00120081
0.00133844
0.00150962
0.00172123
0.00198027
0.00229312
0.00266458
0.00309689
0.00358879
0.00413488
0.0047254
0.00534641
0.00598029
0.00660668
0.00720365
0.00774929
0.00822331
0.00860909
0.0088935
0.00909359
0.00920785
0.00923922
0.00919999
0.00908096
0.00893404
0.00879065
0.00866312
0.00856763
0.00852191
0.00850989
0.00856063
0.00868309
0.00887633
0.00915082
0.00951521
0.00998269
0.0105675
0.0112841
0.0121426
0.0131469
0.0142844
0.0155153
0.0167795
0.0179665
0.0189056
0.0194992
0.0197404
0.0190808
0.0172736
0.0147042
0.0116171
0.00842236
0.00556756
0.00337697
0.00193498
0.00110818
0.000692358
0.000577523
0.00104467
0.0016318
0.000730352
0.000548945
0.000509742
0.000509235
0.000524233
0.00054595
0.000570822
0.00059725
0.000624541
0.000652513
0.000681351
0.000711555
0.000743938
0.00077965
0.000820218
0.000867606
0.00092429
0.000993362
0.00107865
0.00118483
0.00131754
0.00148335
0.0016896
0.00194397
0.00225368
0.00262441
0.003059
0.00355632
0.00411034
0.00470984
0.00533859
0.00597605
0.00659848
0.00718048
0.00769681
0.00812446
0.00844421
0.00865478
0.00875809
0.00877737
0.00867264
0.00846768
0.00823308
0.00797987
0.00773339
0.00751752
0.00734365
0.00722061
0.00716077
0.00714192
0.00717599
0.00727962
0.00743886
0.00766133
0.00795114
0.00831839
0.00877697
0.00934758
0.010059
0.010941
0.0120238
0.0133222
0.0148166
0.0164392
0.018083
0.0195352
0.0204916
0.0209163
0.0204542
0.0184809
0.0154763
0.0118485
0.0081888
0.00508553
0.00287946
0.00155799
0.000882405
0.000655295
0.00113752
0.00172005
0.000769719
0.000574819
0.000530841
0.000528505
0.000542732
0.000564319
0.000589473
0.000616526
0.000644792
0.000674149
0.000704877
0.000737607
0.000773318
0.000813374
0.000859572
0.000914227
0.000980266
0.00106136
0.00116208
0.00128798
0.00144572
0.00164291
0.00188776
0.00218835
0.00255138
0.00298078
0.00347612
0.00403146
0.00463474
0.005268
0.00590814
0.00652835
0.00709994
0.00759449
0.00798585
0.0082546
0.00839152
0.00843226
0.00834211
0.00811535
0.00782505
0.007494
0.00716548
0.00686213
0.00660111
0.00639556
0.00624927
0.00617138
0.00614339
0.00614722
0.00621733
0.00633381
0.00649442
0.00670076
0.00695393
0.00725862
0.00762254
0.00805837
0.00858498
0.00923072
0.0100434
0.0110906
0.0124351
0.0140876
0.016026
0.0181092
0.0201039
0.0214824
0.0220804
0.0217423
0.0194956
0.0159134
0.0116551
0.00756014
0.00434403
0.00227827
0.001185
0.00077155
0.00126886
0.00180414
0.000808051
0.000599755
0.000550898
0.000546706
0.000560161
0.00058165
0.000607157
0.000634942
0.000664331
0.000695266
0.000728129
0.000763692
0.00080312
0.000848007
0.000900456
0.000963168
0.00103958
0.001134
0.00125179
0.00139947
0.00158468
0.00181597
0.00210212
0.00245096
0.00286781
0.00335363
0.00390339
0.00450516
0.00514003
0.00578298
0.00640456
0.00697306
0.00745735
0.00783033
0.00805491
0.00814422
0.00813269
0.00794232
0.00764838
0.00728207
0.00689236
0.00651374
0.00617725
0.00589968
0.00568728
0.00554087
0.00546704
0.00544157
0.00544685
0.00550892
0.00561275
0.00575285
0.0059281
0.00613811
0.00638332
0.00666564
0.00698846
0.00735761
0.00778269
0.00827972
0.0088675
0.00958625
0.0105138
0.0117836
0.0134979
0.0156503
0.0181444
0.020684
0.0225208
0.0232905
0.022951
0.0202136
0.0158771
0.0109301
0.00652467
0.00341569
0.00167374
0.000953918
0.00146417
0.00188395
0.000845334
0.000623756
0.000569937
0.000563841
0.000576514
0.000597933
0.000623855
0.000652473
0.000683125
0.000715819
0.00075105
0.000789738
0.000833245
0.000883423
0.000942701
0.00101421
0.00110193
0.00121088
0.00134724
0.00151848
0.00173319
0.00200059
0.00232956
0.00272697
0.00319569
0.00373252
0.00432676
0.00495966
0.00560524
0.00623201
0.00680556
0.00729168
0.00765915
0.00785737
0.00792742
0.00786012
0.00762325
0.00727317
0.00685705
0.00642181
0.0060112
0.00565506
0.00536975
0.00515926
0.00502143
0.00495578
0.00493469
0.00494488
0.00500547
0.00510263
0.00523195
0.00539142
0.00558067
0.00579988
0.00604965
0.00633093
0.00664502
0.00699402
0.00738165
0.00781498
0.00830695
0.00886966
0.00953445
0.0103666
0.0114906
0.0131492
0.0154624
0.0183159
0.0214139
0.0236779
0.0245808
0.0240334
0.0204931
0.0151818
0.0095975
0.00515601
0.00245439
0.00124737
0.0017609
0.00195933
0.000881549
0.000646831
0.000587974
0.000579917
0.000591791
0.000613155
0.000639547
0.000669086
0.000701128
0.000735749
0.000773558
0.000815635
0.000863552
0.000919433
0.000986062
0.00106703
0.0011669
0.0012914
0.00144758
0.0016438
0.00188942
0.00219402
0.00256597
0.00301033
0.0035265
0.00410614
0.00473204
0.00537848
0.00601285
0.00659845
0.00709782
0.00747567
0.00767171
0.00773474
0.00764017
0.00737941
0.00699573
0.0065423
0.00607315
0.00563607
0.00526375
0.00497173
0.00476122
0.00462894
0.00456703
0.00454763
0.00455681
0.0046108
0.00469737
0.00481211
0.00495376
0.00512251
0.00531938
0.00554574
0.00580303
0.00609241
0.00641457
0.0067697
0.0071577
0.00757926
0.00803786
0.00854336
0.00910524
0.00974542
0.0105251
0.011574
0.0131081
0.0155137
0.0187407
0.0224175
0.0249926
0.0259191
0.0247935
0.0200458
0.0136398
0.00769412
0.00366169
0.00172216
0.00220491
0.00203014
0.000916669
0.000668988
0.00060502
0.00059494
0.00060599
0.00062731
0.000654211
0.000684748
0.000718288
0.000754979
0.00079555
0.000841245
0.000893855
0.000955792
0.00103021
0.00112118
0.00123388
0.00137476
0.00155168
0.0017738
0.00205101
0.00239281
0.00280641
0.00329422
0.00385125
0.00446329
0.00510638
0.00574814
0.00635049
0.0068732
0.00727711
0.00749442
0.00756459
0.00747199
0.00720661
0.00680786
0.00632973
0.00583253
0.00536957
0.00497796
0.00467423
0.00445822
0.00432216
0.00425758
0.0042361
0.00423765
0.00427831
0.00434842
0.00444265
0.00456031
0.00470217
0.00487007
0.00506645
0.00529401
0.00555542
0.005853
0.00618821
0.00656129
0.00697095
0.00741437
0.0078882
0.00839076
0.00892737
0.00950805
0.0101455
0.0109034
0.0119093
0.0134158
0.0158893
0.0195213
0.0238081
0.0264477
0.0272184
0.0248999
0.01852
0.011177
0.00545422
0.00246707
0.00284194
0.00209625
0.000950663
0.000690232
0.000621087
0.000608921
0.000619116
0.000640387
0.000667826
0.000699416
0.000734541
0.000773421
0.000816901
0.000866398
0.000923927
0.000992196
0.00107475
0.00117614
0.00130214
0.00145994
0.00165812
0.00190647
0.00221512
0.002593
0.00304548
0.00357155
0.00416119
0.00479393
0.00543931
0.00605922
0.00661184
0.00705529
0.0073165
0.00740793
0.00734216
0.00709461
0.00669889
0.0062087
0.00568831
0.00519784
0.00478054
0.00445689
0.00422738
0.00407958
0.00400428
0.00397416
0.0039684
0.00398944
0.00403924
0.00410949
0.0041994
0.00431007
0.00444366
0.00460311
0.0047919
0.00501383
0.00527286
0.00557279
0.00591681
0.00630684
0.00674274
0.00722153
0.0077371
0.00828102
0.0088452
0.00942876
0.0100412
0.0106884
0.0114403
0.0124419
0.0139812
0.0166306
0.0207797
0.0256094
0.0279957
0.0283519
0.0237698
0.0156235
0.00799018
0.00357796
0.00368856
0.00215753
0.000983493
0.000710567
0.000636189
0.00062187
0.00063117
0.00065238
0.000680367
0.000713049
0.00074982
0.000790971
0.000837469
0.000890899
0.000953504
0.00102829
0.00111919
0.00123125
0.00137082
0.00154574
0.00176525
0.00203954
0.00237861
0.00279033
0.00327764
0.00383551
0.00444849
0.00508994
0.00572345
0.00630667
0.00679697
0.00712523
0.00725263
0.00723383
0.00702732
0.00665494
0.00616754
0.00563102
0.00511199
0.00466217
0.00430887
0.00405562
0.00388973
0.00379557
0.00375253
0.00373845
0.00373914
0.0037662
0.00381208
0.00387395
0.00395302
0.00405143
0.00417213
0.00431868
0.00449515
0.00470608
0.00495639
0.00525119
0.0055955
0.00599366
0.00644844
0.00695962
0.00752242
0.00812656
0.00875646
0.00939503
0.0100326
0.0106622
0.0113295
0.0121054
0.0131333
0.0147804
0.0177863
0.0226971
0.0277427
0.0297463
0.0285509
0.0208438
0.0113799
0.00511738
0.00472789
0.00221384
0.00101511
0.000729997
0.000650339
0.000633798
0.000642159
0.00066328
0.000691812
0.000725599
0.00076405
0.000807522
0.000857099
0.000914534
0.000982296
0.00106369
0.00116302
0.0012858
0.00143894
0.00163085
0.00187125
0.00217052
0.00253817
0.00298053
0.00349763
0.00408004
0.00470684
0.00534558
0.00595461
0.00648758
0.0068968
0.00709206
0.00712549
0.00698436
0.0066583
0.00619259
0.00565153
0.00510652
0.00461894
0.00422641
0.00393918
0.00374702
0.00362863
0.00356578
0.00353736
0.00352817
0.0035299
0.00355211
0.00358814
0.00363795
0.00370364
0.00378791
0.00389403
0.00402578
0.00418747
0.00438397
0.00462078
0.00490399
0.00524017
0.0056359
0.00609711
0.00662772
0.00722775
0.00789058
0.00860042
0.00933238
0.010056
0.0107621
0.0113985
0.0120601
0.0128804
0.0139672
0.0158398
0.0194598
0.0252982
0.029983
0.0311889
0.0263185
0.0156747
0.00710943
0.00591662
0.0022651
0.00104548
0.000748522
0.00066355
0.00064472
0.000652089
0.000673083
0.000702137
0.000737022
0.000777154
0.000822956
0.000875624
0.000937072
0.00100999
0.00109796
0.00120565
0.00133901
0.00150545
0.00171383
0.00197422
0.00229688
0.00269053
0.00315957
0.00370076
0.00430017
0.00493167
0.00555778
0.00613318
0.0066096
0.00690406
0.00700514
0.00694281
0.00668688
0.00626631
0.00573867
0.00517656
0.00465029
0.00421037
0.00387818
0.00364937
0.00350354
0.00341607
0.00336741
0.00334321
0.0033331
0.00333141
0.00334348
0.00336773
0.00340472
0.00345693
0.00352723
0.00361892
0.00373573
0.00388192
0.0040624
0.00428289
0.00455002
0.00487139
0.0052554
0.00571076
0.00624545
0.00686499
0.0075696
0.00835029
0.00918464
0.0100361
0.0108579
0.0116269
0.0122605
0.0128826
0.0137352
0.0149655
0.0172631
0.0218739
0.0287097
0.0320665
0.0311871
0.0208264
0.00959114
0.00719173
0.00231118
0.00107452
0.000766144
0.000675839
0.00065465
0.00066097
0.000681788
0.000711322
0.000747272
0.000789057
0.000837158
0.000892876
0.000958277
0.00103626
0.00113066
0.0012465
0.00139009
0.00156927
0.00179325
0.00207223
0.00241616
0.00283263
0.00332385
0.00388315
0.00449222
0.00512008
0.00572493
0.00625876
0.00666681
0.00685604
0.00687505
0.0067146
0.00636583
0.00587638
0.00531455
0.00475607
0.00426479
0.0038774
0.00360025
0.00341751
0.00330311
0.00323296
0.00319019
0.00316345
0.00314775
0.00314134
0.00314191
0.00315433
0.00317922
0.00321901
0.00327653
0.00335493
0.00345772
0.00358895
0.00375334
0.00395652
0.00420526
0.00450768
0.0048733
0.00531293
0.00583801
0.00645913
0.00718351
0.00801099
0.00892824
0.00990261
0.0108816
0.0118182
0.0126095
0.013228
0.0137984
0.014705
0.0162052
0.0193463
0.025513
0.0320735
0.0338828
0.0265908
0.0126731
0.00861177
0.00235203
0.0011022
0.000782862
0.000687223
0.000663609
0.000668815
0.000689396
0.000719352
0.000756309
0.000799685
0.000850013
0.000908687
0.000977914
0.00106077
0.00116136
0.00128496
0.00143824
0.00162933
0.0018677
0.00216348
0.00252609
0.00296178
0.0034704
0.00404192
0.00465393
0.00527132
0.00584903
0.00633705
0.00665237
0.00676119
0.00671166
0.00646263
0.00604154
0.00550649
0.00493255
0.00439394
0.00394465
0.00360723
0.00337568
0.0032263
0.00313149
0.00306978
0.00302742
0.00299625
0.00297283
0.00295739
0.00295093
0.00295175
0.00296567
0.0029945
0.00304079
0.00310742
0.00319764
0.00331518
0.00346445
0.00365078
0.00388075
0.00416251
0.00450608
0.00492356
0.00542887
0.00603692
0.00676154
0.00761172
0.00858574
0.00966259
0.0107928
0.0118962
0.0129313
0.0137067
0.0142591
0.0147611
0.0158258
0.0178351
0.0223659
0.0304511
0.0348736
0.0323726
0.0165548
0.0103442
0.00238759
0.00112844
0.000798678
0.000697722
0.000671616
0.000675642
0.000695912
0.000726216
0.000764098
0.000808972
0.000861413
0.000922897
0.000995754
0.00108323
0.00118962
0.00132046
0.00148267
0.00168462
0.00193585
0.00224632
0.00262468
0.00307574
0.00359696
0.00417514
0.00478421
0.00538563
0.00593164
0.00636989
0.00660311
0.00664845
0.00652425
0.00620355
0.00572928
0.00516805
0.00459782
0.00408786
0.00368088
0.0033869
0.00319053
0.00306382
0.00298026
0.00292153
0.00287662
0.00283972
0.00280893
0.00278456
0.00276912
0.00276326
0.00276696
0.00278616
0.00282275
0.00287921
0.00295848
0.00306397
0.00319968
0.00337054
0.0035827
0.003844
0.00416443
0.00455658
0.00503587
0.0056203
0.00632917
0.00717999
0.00818297
0.00933245
0.0105949
0.0118987
0.0131382
0.0141737
0.0148806
0.0152988
0.0158026
0.0171899
0.020287
0.0272536
0.0349782
0.0365244
0.021418
0.0124287
0.00241783
0.00115318
0.000813592
0.000707359
0.000678698
0.000681472
0.000701348
0.000731907
0.000770612
0.000816862
0.000871262
0.00093536
0.00101159
0.00110332
0.00121504
0.00135246
0.00152268
0.00173421
0.00199656
0.00231931
0.0027103
0.0031728
0.003702
0.00428181
0.00488303
0.00546434
0.00597659
0.00635591
0.00651703
0.00651793
0.00632653
0.00595012
0.0054395
0.00486708
0.00431054
0.00383221
0.00346382
0.00320522
0.00303453
0.00292243
0.00284465
0.00278572
0.00273687
0.002694
0.00265625
0.00262449
0.00260039
0.00258791
0.00258486
0.00259532
0.00262353
0.00267129
0.0027412
0.00283633
0.00296029
0.00311754
0.00331368
0.003556
0.00385404
0.00422029
0.00467074
0.00522529
0.00590721
0.00674114
0.00774841
0.00893839
0.0102955
0.0117614
0.0132217
0.0145682
0.015528
0.016025
0.0163339
0.0170268
0.0190772
0.0242784
0.0338411
0.0383752
0.0275243
0.0146984
0.00244273
0.00117635
0.000827607
0.000716158
0.000684883
0.000686331
0.000705722
0.00073643
0.000775832
0.000823306
0.000879479
0.000945948
0.00102523
0.0011208
0.00123727
0.00138048
0.00155766
0.00177732
0.00204884
0.00238134
0.00278173
0.0032518
0.00378467
0.0043618
0.00495157
0.00551081
0.0059895
0.0063121
0.00642017
0.00637422
0.0061292
0.00571161
0.00517856
0.00460559
0.00406793
0.00362028
0.00328472
0.00305345
0.00290066
0.00279746
0.00272203
0.00266123
0.002608
0.0025595
0.00251551
0.00247724
0.00244647
0.00242682
0.00241921
0.00242232
0.00244326
0.00248358
0.00254555
0.00263194
0.00274599
0.00289165
0.00307395
0.00329947
0.00357706
0.00391861
0.00434002
0.00486196
0.00551023
0.00631485
0.00730675
0.00851036
0.00993058
0.0115339
0.013227
0.0148527
0.016155
0.0168315
0.0171044
0.0173685
0.0186052
0.0222888
0.0312778
0.0389149
0.0340863
0.0170779
0.00246232
0.00119789
0.000840727
0.000724146
0.000690197
0.000690249
0.000709058
0.000739794
0.000779749
0.000828272
0.000885996
0.000954554
0.00103651
0.00113544
0.001256
0.00140413
0.00158709
0.00181331
0.00209193
0.00243154
0.00283813
0.00331208
0.00384473
0.0044155
0.00499077
0.00552576
0.00597336
0.00624066
0.00631459
0.00622569
0.00594022
0.00549425
0.00494966
0.00438304
0.00386586
0.00344554
0.00313637
0.00292518
0.00278431
0.00268611
0.002611
0.0025476
0.00249014
0.00243663
0.00238731
0.00234359
0.00230738
0.00228125
0.00226892
0.00226704
0.00228156
0.00231549
0.00237076
0.00244985
0.00255569
0.00269177
0.00286251
0.00307372
0.00333339
0.00365255
0.00404644
0.00453569
0.00514733
0.005915
0.00687708
0.00807095
0.0095208
0.0112174
0.0130908
0.0149868
0.0166943
0.0176988
0.0180456
0.0181207
0.0185324
0.0209991
0.0284363
0.0386122
0.0396769
0.0192437
0.00247665
0.00121773
0.000852959
0.000731374
0.000694641
0.000693269
0.000711381
0.000742012
0.000782359
0.000831735
0.000890764
0.000961095
0.00104533
0.00114706
0.001271
0.0014231
0.00161056
0.00184169
0.0021253
0.00246939
0.00287904
0.00335338
0.00388224
0.00444342
0.00500175
0.00551573
0.00593306
0.00615647
0.00620347
0.0060794
0.00576525
0.00530171
0.0047538
0.00419743
0.00369993
0.00330237
0.00301324
0.002816
0.00268255
0.00258675
0.00251079
0.00244461
0.00238336
0.0023256
0.00227183
0.00222356
0.00218276
0.00215154
0.00213412
0.00212884
0.0021378
0.00216626
0.00221587
0.00228892
0.00238806
0.00251641
0.00267777
0.00287721
0.00312175
0.00342137
0.0037903
0.00424852
0.00482327
0.00555026
0.00647331
0.00764065
0.00909469
0.0108521
0.0128729
0.015024
0.0170971
0.0185482
0.0190871
0.0191254
0.0190975
0.0204518
0.0257267
0.037553
0.0426105
0.0206682
0.00248579
0.00123579
0.000864297
0.000737849
0.000698283
0.000695417
0.000712714
0.000743085
0.00078365