/*--------------------------------*- C++ -*----------------------------------*\
  =========                 |
  \\      /  F ield         | OpenFOAM: The Open Source CFD Toolbox
   \\    /   O peration     | Website:  https://openfoam.org
    \\  /    A nd           | Version:  13
     \\/     M anipulation  |
\*---------------------------------------------------------------------------*/
FoamFile
{
    format      ascii;
    class       volScalarField;
    location    "1.4";
    object      k;
}
// * * * * * * * * * * * * * * * * * * * * * * * * * * * * * * * * * * * * * //

dimensions      [0 2 -2 0 0 0 0];

internalField   nonuniform List<scalar> 
6400
(
2.74486e-07
1.33674e-06
2.7927e-06
4.28341e-06
5.68801e-06
6.96988e-06
8.14047e-06
9.21721e-06
1.02144e-05
1.11429e-05
1.20119e-05
1.28309e-05
1.36106e-05
1.43633e-05
1.51021e-05
1.58407e-05
1.65928e-05
1.73713e-05
1.81876e-05
1.9051e-05
1.99686e-05
2.09448e-05
2.19816e-05
2.30787e-05
2.42341e-05
2.54448e-05
2.67076e-05
2.80194e-05
2.93782e-05
3.07828e-05
3.22333e-05
3.37311e-05
3.52787e-05
3.68794e-05
3.85369e-05
4.02546e-05
4.20351e-05
4.38793e-05
4.57854e-05
4.77477e-05
4.97557e-05
5.17926e-05
5.38337e-05
5.58459e-05
5.77879e-05
5.96178e-05
6.13215e-05
6.30702e-05
6.46351e-05
6.59267e-05
6.68268e-05
6.74073e-05
6.76299e-05
6.73615e-05
6.65486e-05
6.52196e-05
6.33823e-05
6.10613e-05
5.83037e-05
5.51758e-05
5.1757e-05
4.81344e-05
4.4397e-05
4.06303e-05
3.69098e-05
3.32976e-05
2.98403e-05
2.6569e-05
2.34906e-05
2.06109e-05
1.79203e-05
1.54039e-05
1.30672e-05
1.08622e-05
8.75445e-06
6.73445e-06
4.80244e-06
2.98703e-06
1.39307e-06
2.85276e-07
1.34784e-06
1.12362e-05
2.39217e-05
3.64321e-05
4.77489e-05
5.78432e-05
6.69178e-05
7.51652e-05
8.27293e-05
8.97162e-05
9.62148e-05
0.000102311
0.000108098
0.000113673
0.000119136
0.000124591
0.000130133
0.000135849
0.000141811
0.000148074
0.000154674
0.000161627
0.000168934
0.00017658
0.000184542
0.000192792
0.000201303
0.000210054
0.000219027
0.000228215
0.000237618
0.000247242
0.000257101
0.000267208
0.000277579
0.000288224
0.000299146
0.000310335
0.000321765
0.000333386
0.000345122
0.000356868
0.000368481
0.000379784
0.000390558
0.000400552
0.000409458
0.000416987
0.000423255
0.000427973
0.00043042
0.00043119
0.000430311
0.000426762
0.000420605
0.000411919
0.000400755
0.000387229
0.00037154
0.000353971
0.000334871
0.000314633
0.000293668
0.000272373
0.00025111
0.00023018
0.00020981
0.000190151
0.000171264
0.000153157
0.000135779
0.000119026
0.000102711
8.67213e-05
7.10129e-05
5.55248e-05
4.02405e-05
2.53496e-05
1.16632e-05
1.40207e-06
2.93549e-06
2.48905e-05
5.13866e-05
7.58458e-05
9.72305e-05
0.000115975
0.000132609
0.000147537
0.000161052
0.00017338
0.000184718
0.000195249
0.000205155
0.000214616
0.000223804
0.000232879
0.00024198
0.00025122
0.000260685
0.000270429
0.000280478
0.00029083
0.000301471
0.000312378
0.000323525
0.000334892
0.00034647
0.000358262
0.000370282
0.000382557
0.000395123
0.000408022
0.000421296
0.000434987
0.000449133
0.000463761
0.000478882
0.000494492
0.000510561
0.000527032
0.000543813
0.000560775
0.000577744
0.00059451
0.00061083
0.000626412
0.00064095
0.000654116
0.000665547
0.000674823
0.000681393
0.000684524
0.000685209
0.000682257
0.000674971
0.000663526
0.000647973
0.000628443
0.000605209
0.000578687
0.000549425
0.000518067
0.000485311
0.000451854
0.000418343
0.000385323
0.000353214
0.000322283
0.000292652
0.000264302
0.000237106
0.000210839
0.000185199
0.000159837
0.000134384
0.000108442
8.15963e-05
5.35997e-05
2.54863e-05
3.01773e-06
4.8025e-06
4.02364e-05
7.98011e-05
0.000113811
0.000142548
0.000167419
0.000189362
0.000208964
0.000226625
0.000242651
0.000257304
0.00027083
0.000283464
0.000295428
0.00030693
0.000318149
0.00032924
0.000340321
0.000351482
0.000362783
0.000374256
0.000385922
0.000397791
0.000409878
0.000422199
0.000434782
0.000447666
0.000460901
0.00047455
0.000488683
0.000503374
0.000518698
0.000534727
0.000551527
0.000569155
0.000587652
0.00060704
0.000627313
0.000648438
0.00067034
0.000692904
0.000715966
0.000739307
0.000762656
0.000785684
0.000807989
0.000829126
0.000848583
0.000865794
0.000880163
0.000891084
0.0008973
0.00089945
0.000897475
0.000889322
0.000875302
0.000855503
0.000830089
0.000799416
0.000764053
0.000724773
0.000682502
0.000638268
0.00059312
0.000548045
0.00050389
0.000461307
0.000420712
0.000382283
0.000345983
0.000311586
0.000278724
0.000246918
0.000215602
0.000184134
0.000151764
0.000117544
8.0226e-05
3.96606e-05
4.75282e-06
6.84909e-06
5.61553e-05
0.000107565
0.000149271
0.000183621
0.000213091
0.000239022
0.000262173
0.000283023
0.000301927
0.000319184
0.000335068
0.000349838
0.000363732
0.000376967
0.000389733
0.000402186
0.000414454
0.000426635
0.000438809
0.000451039
0.000463389
0.00047592
0.000488701
0.000501806
0.000515325
0.000529353
0.000543997
0.000559368
0.000575579
0.000592744
0.000610973
0.000630369
0.000651028
0.000673029
0.00069643
0.000721264
0.000747528
0.000775176
0.00080411
0.000834171
0.000865136
0.000896712
0.00092852
0.000960099
0.000990897
0.00102029
0.00104756
0.00107197
0.00109271
0.001109
0.00111932
0.00112346
0.00112301
0.00111437
0.00109776
0.00107336
0.00104134
0.00100212
0.000956397
0.000905181
0.000849737
0.000791513
0.000732041
0.00067281
0.000615131
0.000560033
0.000508184
0.000459877
0.000415052
0.000373361
0.000334239
0.000296974
0.000260743
0.000224623
0.000187521
0.000147977
0.000103732
5.29174e-05
6.43057e-06
8.99596e-06
7.21674e-05
0.000134356
0.000182635
0.000221647
0.000254869
0.000284037
0.00031008
0.000333557
0.000354864
0.000374319
0.000392206
0.000408787
0.000424301
0.000438966
0.000452969
0.000466476
0.000479626
0.000492543
0.000505341
0.000518132
0.000531033
0.000544165
0.000557658
0.000571658
0.000586316
0.000601795
0.00061826
0.000635877
0.000654809
0.000675219
0.000697262
0.000721082
0.00074681
0.000774557
0.000804402
0.000836388
0.000870506
0.000906686
0.000944785
0.000984575
0.00102573
0.00106782
0.00111032
0.0011526
0.00119393
0.00123348
0.00127036
0.0013036
0.00133222
0.0013552
0.00137115
0.0013786
0.00138005
0.00137216
0.00135367
0.00132501
0.00128633
0.00123798
0.00118068
0.00111558
0.00104426
0.000968626
0.000890815
0.00081304
0.000737365
0.000665498
0.000598627
0.000537334
0.000481615
0.000430976
0.000384577
0.000341362
0.00030015
0.000259653
0.000218393
0.000174387
0.000124443
6.49741e-05
7.99606e-06
1.11982e-05
8.80127e-05
0.000160087
0.000214202
0.000257306
0.000293781
0.000325725
0.000354241
0.000379975
0.000403361
0.000424735
0.000444381
0.000462555
0.000479492
0.000495403
0.000510479
0.000524893
0.000538808
0.000552379
0.000565766
0.000579136
0.000592667
0.000606551
0.000620993
0.000636212
0.000652435
0.000669894
0.000688824
0.00070946
0.00073203
0.000756759
0.000783858
0.000813522
0.000845924
0.000881201
0.000919444
0.000960684
0.00100488
0.00105188
0.00110146
0.00115325
0.00120677
0.00126144
0.00131652
0.00137119
0.00142456
0.0014756
0.00152326
0.00156642
0.00160395
0.0016347
0.00165759
0.0016699
0.00167386
0.00166868
0.00165017
0.00161905
0.00157534
0.00151915
0.00145096
0.00137183
0.00128338
0.0011878
0.00108782
0.000986511
0.000887003
0.00079217
0.000704251
0.000624591
0.000553548
0.000490591
0.000434543
0.000383848
0.000336778
0.000291518
0.00024608
0.000197907
0.000142926
7.59318e-05
9.45093e-06
1.34249e-05
0.000103542
0.000184732
0.00024415
0.000290979
0.000330392
0.000364818
0.000395528
0.00042326
0.000448492
0.000471575
0.000492796
0.000512403
0.000530624
0.000547667
0.000563728
0.000578996
0.000593663
0.000607925
0.000621995
0.0006361
0.000650491
0.000665435
0.000681219
0.000698145
0.000716523
0.000736672
0.000758912
0.000783559
0.000810925
0.000841306
0.000874977
0.000912182
0.000953123
0.00099794
0.0010467
0.00109935
0.00115577
0.00121565
0.00127858
0.00134401
0.00141123
0.00147943
0.00154769
0.001615
0.00168031
0.00174252
0.0018005
0.0018531
0.00189921
0.00193772
0.00196759
0.00198622
0.00199358
0.00199287
0.00197739
0.00194722
0.0019023
0.00184233
0.00176718
0.00167741
0.00157424
0.00145967
0.00133657
0.00120865
0.00108017
0.000955577
0.000838888
0.0007331
0.000639745
0.000558777
0.000488838
0.000427749
0.000372974
0.000321892
0.000271778
0.000219367
0.000159685
8.59762e-05
1.08131e-05
1.56514e-05
0.000118664
0.000208283
0.000272589
0.000322885
0.000365025
0.000401738
0.000434455
0.000464002
0.000490906
0.00051554
0.000538193
0.000559114
0.000578524
0.000596635
0.000613652
0.000629788
0.00064527
0.000660342
0.000675274
0.000690364
0.000705938
0.000722348
0.000739973
0.000759207
0.000780464
0.000804162
0.000830726
0.000860571
0.000894097
0.000931676
0.000973635
0.00102024
0.00107167
0.00112801
0.0011892
0.00125504
0.00132517
0.00139904
0.00147598
0.00155513
0.00163553
0.00171615
0.00179588
0.00187362
0.00194828
0.00201882
0.00208423
0.00214353
0.00219579
0.00224016
0.00227569
0.0023012
0.00231387
0.00231734
0.0023086
0.00228391
0.00224336
0.0021863
0.0021116
0.00201877
0.00190818
0.00178105
0.00163944
0.00148705
0.00132864
0.00117009
0.00101756
0.000876736
0.000751696
0.000644187
0.000553501
0.000477061
0.000411305
0.000352412
0.00029654
0.000239444
0.000175127
9.52709e-05
1.20997e-05
1.78586e-05
0.000133315
0.000230745
0.000299596
0.000353156
0.000397874
0.000436741
0.000471334
0.000502567
0.000531017
0.000557083
0.000581066
0.000603217
0.00062376
0.000642916
0.000660908
0.00067798
0.000694396
0.000710457
0.000726495
0.000742886
0.000760038
0.000778399
0.00079845
0.000820699
0.000845676
0.000873924
0.00090598
0.000942368
0.000983572
0.00103001
0.00108202
0.00113981
0.00120345
0.00127283
0.00134764
0.00142737
0.00151131
0.00159856
0.00168807
0.00177868
0.00186917
0.00195832
0.00204498
0.00212806
0.00220664
0.00227995
0.00234735
0.00240827
0.00246219
0.00250892
0.00254779
0.00257806
0.00259766
0.00260592
0.00260607
0.00259167
0.00256139
0.00251538
0.00245104
0.00236609
0.00225948
0.00213173
0.00198273
0.00181518
0.00163318
0.001443
0.00125231
0.00106976
0.000903287
0.000758415
0.000637053
0.000537441
0.000455265
0.000385139
0.000321554
0.000258813
0.000189608
0.000103943
1.33223e-05
2.00319e-05
0.00014746
0.000252131
0.000325227
0.00038188
0.000429058
0.000469984
0.000506363
0.000539192
0.0005691
0.000596516
0.000621759
0.00064509
0.000666747
0.000686964
0.000705992
0.000724107
0.000741623
0.000758897
0.000776336
0.000794393
0.000813576
0.000834438
0.000857581
0.000883644
0.000913294
0.000947204
0.000986037
0.0010304
0.00108084
0.00113774
0.00120134
0.00127168
0.00134855
0.00143148
0.00151975
0.00161239
0.00170822
0.00180592
0.00190403
0.00200113
0.00209582
0.00218685
0.00227315
0.0023539
0.00242853
0.00249675
0.00255865
0.00261433
0.00266351
0.00270578
0.00274143
0.00277097
0.00279435
0.00281149
0.00282035
0.00282254
0.00281181
0.00278678
0.00274398
0.00267974
0.00259016
0.00247749
0.00233739
0.00217049
0.00197925
0.00176855
0.00154578
0.0013216
0.00110779
0.000915176
0.00075101
0.000617113
0.000510035
0.000423059
0.00034844
0.000278305
0.000203507
0.000112105
1.44895e-05
2.216e-05
0.000161078
0.000272459
0.000349526
0.000409117
0.000458656
0.000501567
0.000539669
0.000574033
0.000605341
0.000634057
0.000660522
0.000685019
0.000707801
0.000729129
0.000749285
0.000768587
0.000787402
0.000806152
0.000825321
0.000845456
0.00086717
0.000891142
0.000918111
0.000948864
0.000984216
0.00102498
0.0010719
0.00112565
0.00118672
0.00125536
0.00133155
0.00141496
0.00150491
0.0016004
0.00170014
0.0018026
0.00190608
0.00200881
0.00210907
0.00220523
0.0022959
0.00237998
0.00245675
0.00252586
0.00258723
0.00264106
0.00268776
0.00272796
0.00276256
0.00279322
0.00282092
0.00284603
0.00286871
0.00288888
0.00290616
0.00292034
0.00292892
0.00293164
0.00292319
0.00289985
0.00285461
0.00277666
0.00266481
0.00251786
0.00233812
0.00212601
0.00188664
0.00163083
0.00137232
0.00112681
0.000908773
0.000727237
0.00058326
0.000470706
0.000379618
0.000299105
0.000217329
0.000119893
1.56111e-05
2.42344e-05
0.000174161
0.000291753
0.000372533
0.000434914
0.000486723
0.000531558
0.000571336
0.000607198
0.000639874
0.000669865
0.000697544
0.000723217
0.000747167
0.000769684
0.00079109
0.00081175
0.00083209
0.000852605
0.000873864
0.000896519
0.000921305
0.000949042
0.000980621
0.00101699
0.00105911
0.0011079
0.00116416
0.00122849
0.0013012
0.00138221
0.00147106
0.00156682
0.00166817
0.00177343
0.00188064
0.00198769
0.00209242
0.00219272
0.00228671
0.00237283
0.00244988
0.00251718
0.0025747
0.002623
0.00266259
0.00269477
0.00272114
0.00274304
0.00276231
0.00278069
0.00279931
0.00281933
0.00284142
0.00286553
0.00289122
0.00291723
0.0029414
0.00296259
0.00297595
0.00298113
0.00297923
0.00295722
0.00290895
0.00281531
0.00267174
0.00248217
0.00224947
0.00198225
0.00169269
0.00139896
0.00112211
0.000880814
0.000685422
0.00053484
0.000418804
0.000323021
0.000231833
0.000127525
1.67057e-05
2.62486e-05
0.000186706
0.000310037
0.000394282
0.000459309
0.0005133
0.000560004
0.000601424
0.00063876
0.000672791
0.000704056
0.000732963
0.00075985
0.000785033
0.000808841
0.00083164
0.00085385
0.000875961
0.00089855
0.000922281
0.000947924
0.000976349
0.00100853
0.00104553
0.00108844
0.00113836
0.00119624
0.00126283
0.00133852
0.00142322
0.00151634
0.0016167
0.00172263
0.00183203
0.00194246
0.00205134
0.00215601
0.002254
0.00234308
0.00242145
0.00248791
0.00254173
0.00258274
0.00261226
0.0026328
0.00264608
0.00265268
0.00265468
0.00265484
0.00265558
0.00265897
0.00266592
0.00267811
0.00269698
0.00272239
0.00275442
0.00279249
0.0028354
0.00288126
0.00292714
0.00296878
0.00299732
0.00300955
0.00300989
0.00298669
0.00292437
0.002796
0.00259803
0.00234816
0.00205177
0.00172621
0.00139624
0.00108951
0.000829021
0.000624903
0.000471611
0.000352866
0.000248221
0.000135374
1.78114e-05
2.81976e-05
0.000198717
0.000327337
0.000414807
0.000482334
0.000538419
0.00058694
0.000629974
0.000668773
0.00070416
0.000736715
0.000766884
0.000795041
0.000821543
0.000846761
0.000871113
0.000895077
0.00091922
0.000944203
0.000970801
0.000999911
0.00103255
0.00106987
0.00111308
0.00116341
0.00122202
0.00128981
0.00136732
0.00145451
0.00155069
0.0016545
0.0017639
0.00187636
0.00198894
0.0020985
0.00220191
0.0022962
0.00237878
0.00244764
0.00250121
0.00253952
0.00256245
0.00257204
0.00257382
0.00256624
0.00254865
0.00252599
0.00250336
0.0024833
0.00246752
0.00245869
0.00245558
0.00245877
0.00247306
0.00249655
0.00252989
0.00257322
0.00262628
0.00268808
0.00275648
0.00282902
0.00290131
0.00296774
0.00301408
0.003033
0.00303223
0.00299424
0.00288993
0.00269222
0.0024209
0.00209093
0.00172602
0.00135924
0.00102599
0.000752653
0.000546091
0.00039295
0.000268405
0.000144077
1.90016e-05
3.00767e-05
0.000210195
0.000343678
0.000434137
0.000504019
0.000562108
0.000612395
0.000657017
0.000697273
0.000734029
0.000767904
0.000799382
0.000828881
0.000856799
0.000883559
0.000909632
0.000935566
0.000962004
0.000989707
0.00101957
0.00105262
0.00109005
0.00113315
0.00118329
0.00124179
0.00130976
0.00138791
0.00147633
0.00157437
0.00168052
0.00179246
0.0019072
0.00202131
0.00213109
0.00223285
0.00232313
0.00239893
0.00245777
0.00249901
0.00251911
0.00252541
0.00252169
0.00250042
0.00246541
0.00242496
0.00238226
0.0023411
0.00230407
0.00227319
0.00224963
0.00223531
0.00222922
0.00222856
0.00223952
0.00225932
0.00228822
0.0023273
0.00237771
0.00244038
0.00251507
0.00260123
0.00269737
0.00279872
0.00289871
0.00298832
0.00304114
0.00305832
0.00304003
0.00295662
0.00276177
0.00246355
0.00209432
0.00168635
0.00128379
0.000930328
0.000652792
0.000449629
0.000295375
0.000154681
2.04026e-05
3.1881e-05
0.000221146
0.000359085
0.000452301
0.000524389
0.00058439
0.000636389
0.000682575
0.000724287
0.00076243
0.000797662
0.000830507
0.000861428
0.000890871
0.00091931
0.000947278
0.000975394
0.00100439
0.00103513
0.00106864
0.00110609
0.00114884
0.00119832
0.00125599
0.00132319
0.00140084
0.00148927
0.00158795
0.00169534
0.00180896
0.00192545
0.00204086
0.00215095
0.00225144
0.00233835
0.00240817
0.00245871
0.00248427
0.00249199
0.00248751
0.00246175
0.00241826
0.00236368
0.00230494
0.00224682
0.0021928
0.0021458
0.00210755
0.0020789
0.00206001
0.00205122
0.00204877
0.00205256
0.00206561
0.00208477
0.00211068
0.00214303
0.0021822
0.00222965
0.00228864
0.0023623
0.00245312
0.00256265
0.00268577
0.00281464
0.00294084
0.00303335
0.00307215
0.00307002
0.00300105
0.00280307
0.00247131
0.00205533
0.00160135
0.00116731
0.000803775
0.000531718
0.00033368
0.000168873
2.22276e-05
3.36069e-05
0.000231573
0.000373581
0.000469323
0.000543468
0.000605287
0.000658941
0.000706665
0.000749833
0.000789383
0.000826014
0.00086029
0.000892717
0.000923794
0.00095405
0.000984083
0.00101459
0.0010464
0.00108048
0.00111799
0.00116027
0.00120878
0.00126511
0.00133074
0.00140688
0.00149412
0.00159219
0.00169973
0.00181418
0.00193196
0.00204868
0.00215956
0.00225974
0.00234469
0.00241059
0.00245179
0.00246729
0.00246783
0.00244715
0.00240336
0.0023419
0.00227232
0.00220011
0.0021309
0.00206939
0.00201822
0.00197874
0.00195095
0.00193553
0.00192979
0.00192963
0.00193786
0.00195286
0.00197331
0.00199777
0.00202581
0.00205701
0.00209135
0.00212932
0.00217193
0.00222092
0.0022794
0.00235294
0.00245182
0.00257969
0.00272897
0.00288163
0.0030155
0.00308091
0.00309069
0.00302821
0.00281468
0.00243744
0.00196601
0.00146597
0.00100995
0.000650058
0.000389776
0.000189207
2.48113e-05
3.52517e-05
0.00024148
0.000387181
0.000485228
0.000561278
0.000624816
0.000680066
0.000729298
0.00077392
0.000814899
0.00085297
0.000888739
0.000922758
0.000955576
0.000987782
0.00102004
0.00105314
0.00108799
0.00112569
0.00116752
0.00121496
0.00126962
0.00133311
0.00140688
0.00149185
0.00158812
0.00169462
0.00180898
0.00192754
0.00204562
0.00215793
0.00225904
0.00234379
0.0024077
0.00244215
0.00245195
0.00244516
0.002412
0.00235347
0.002279
0.00219688
0.00211422
0.00203771
0.00197197
0.00191986
0.00188209
0.00185887
0.00184871
0.00184653
0.00185226
0.00186588
0.00188502
0.00190868
0.00193561
0.00196485
0.0019959
0.00202827
0.00206169
0.0020961
0.00213176
0.00216947
0.0022109
0.00225867
0.00231741
0.00239471
0.00250182
0.00265397
0.00282935
0.00299956
0.0030893
0.00310783
0.00304037
0.002791
0.00235142
0.00181785
0.00127711
0.00081581
0.000472113
0.00021938
2.86547e-05
3.68127e-05
0.00025087
0.000399903
0.000500034
0.000577841
0.000642996
0.000699775
0.000750484
0.000796553
0.000838979
0.00087853
0.000915851
0.000951541
0.0009862
0.00102048
0.00105511
0.00109097
0.00112907
0.00117062
0.00121704
0.00126991
0.00133094
0.00140173
0.00148353
0.00157686
0.00168113
0.00179433
0.00191297
0.00203228
0.00214659
0.0022499
0.00233634
0.0024007
0.00243271
0.00243991
0.00242732
0.00238507
0.00231608
0.00223174
0.00213943
0.00204842
0.00196595
0.00189742
0.00184535
0.00180981
0.00179212
0.0017862
0.00178732
0.00179873
0.00181649
0.00183956
0.00186632
0.00189583
0.00192686
0.00195925
0.00199261
0.00202649
0.00206048
0.0020943
0.0021279
0.00216152
0.00219612
0.00223297
0.00227337
0.00232
0.00238216
0.00247012
0.00260268
0.00279144
0.00298857
0.00309723
0.00311981
0.00303408
0.00271736
0.00220054
0.00160161
0.001037
0.000590302
0.000264393
3.44925e-05
3.8287e-05
0.000259744
0.000411761
0.000513763
0.000593176
0.000659841
0.000718081
0.000770227
0.000817731
0.000861616
0.000902679
0.000941605
0.000979036
0.00101563
0.00105208
0.00108922
0.00112799
0.0011695
0.00121509
0.00126628
0.00132475
0.00139222
0.00147021
0.00155966
0.00166052
0.00177137
0.00188914
0.00200921
0.00212579
0.00223239
0.00232249
0.00239006
0.00242365
0.00243074
0.00241587
0.0023685
0.00229327
0.00220081
0.00210038
0.00200172
0.00191357
0.00184173
0.00178883
0.001756
0.00174128
0.00173754
0.00174254
0.00175697
0.00177769
0.00180295
0.00183167
0.00186296
0.00189632
0.00193161
0.00196841
0.00200638
0.00204496
0.0020833
0.00212044
0.00215576
0.00218796
0.00221706
0.00224383
0.00227148
0.00230445
0.00234556
0.00239486
0.0024677
0.00258209
0.0027697
0.00298954
0.00310665
0.00312377
0.00299601
0.00257609
0.0019671
0.00131439
0.000752639
0.000329875
4.3221e-05
3.96721e-05
0.000268101
0.000422768
0.000526431
0.000607299
0.000675366
0.000734992
0.000788531
0.000837451
0.000882798
0.000925398
0.000965971
0.0010052
0.00104379
0.00108252
0.00112226
0.00116405
0.00120911
0.00125885
0.00131491
0.00137901
0.00145284
0.00153772
0.00163415
0.00174141
0.0018571
0.00197708
0.00209568
0.0022062
0.00230158
0.00237497
0.00241411
0.00242383
0.00241025
0.00236222
0.00228425
0.00218646
0.00207911
0.00197315
0.00187847
0.00180195
0.00174655
0.00171421
0.0017006
0.00169783
0.00170475
0.00172071
0.00174272
0.00176881
0.00179797
0.00182954
0.0018632
0.00189882
0.00193657
0.00197658
0.00201876
0.00206287
0.00210832
0.00215364
0.00219696
0.00223637
0.00227071
0.00229811
0.00231834
0.00233305
0.00235043
0.00238012
0.00242409
0.00248412
0.00258792
0.00276796
0.00300321
0.0031176
0.0031147
0.00289604
0.00234381
0.00163841
0.000962321
0.000420426
5.57286e-05
4.09651e-05
0.000275941
0.000432936
0.000538054
0.000620228
0.000689584
0.000750517
0.000805397
0.000855707
0.00090251
0.00094666
0.000988908
0.00102998
0.00107063
0.00111169
0.00115411
0.001199
0.00124766
0.00130162
0.00136254
0.00143219
0.00151213
0.00160336
0.00170589
0.00181815
0.00193678
0.00205657
0.00217092
0.00227249
0.0023539
0.00240244
0.00241777
0.00240888
0.0023648
0.0022878
0.00218765
0.00207499
0.00196187
0.00185954
0.00177625
0.00171593
0.00168117
0.00166673
0.00166377
0.00167063
0.00168669
0.00170861
0.00173431
0.0017627
0.00179324
0.00182574
0.00186024
0.0018969
0.00193595
0.00197753
0.00202177
0.00206874
0.00211844
0.00217099
0.00222482
0.0022777
0.00232534
0.00236406
0.00239323
0.00240789
0.00241384
0.0024163
0.00242433
0.00245751
0.00251079
0.00260615
0.00278741
0.00302178
0.00312623
0.00306293
0.00269
0.00198814
0.00121394
0.000536279
7.2323e-05
4.21635e-05
0.00028326
0.000442276
0.00054865
0.000631979
0.00070251
0.000764664
0.000820825
0.000872489
0.000920733
0.000966433
0.00101037
0.00105331
0.00109605
0.00113948
0.00118462
0.00123264
0.00128493
0.00134307
0.00140878
0.00148375
0.00156937
0.00166626
0.00177379
0.00188955
0.00200917
0.00212648
0.00223412
0.00232449
0.00238626
0.00241033
0.00240906
0.00237363
0.00230176
0.00220277
0.00208709
0.00196742
0.00185646
0.00176421
0.0016961
0.00165555
0.00163811
0.00163382
0.00163888
0.00165368
0.00167451
0.0016989
0.00172564
0.00175421
0.00178446
0.00181653
0.00185069
0.0018873
0.00192672
0.00196931
0.00201534
0.00206499
0.0021182
0.00217455
0.00223396
0.00229634
0.00235916
0.00241764
0.00246412
0.00249343
0.00250456
0.0025051
0.00249168
0.00248261
0.00249464
0.00254168
0.00263594
0.00282869
0.0030388
0.00310709
0.00293748
0.00233202
0.00149375
0.000671503
9.26731e-05
4.3265e-05
0.000290056
0.000450799
0.000558234
0.000642568
0.000714157
0.000777443
0.000834819
0.00088779
0.000937447
0.000984684
0.00103031
0.00107512
0.00111997
0.00116578
0.00121363
0.00126477
0.00132064
0.00138287
0.00145316
0.00153312
0.00162387
0.00172558
0.00183693
0.00195463
0.0020734
0.00218619
0.00228494
0.0023613
0.00239992
0.00240735
0.00238498
0.0023229
0.00222936
0.00211392
0.00198936
0.00186956
0.00176653
0.00168777
0.00163737
0.00161436
0.00160755
0.0016094
0.00162168
0.00164052
0.00166305
0.00168765
0.00171374
0.00174118
0.00177013
0.00180092
0.001834
0.00186983
0.0019089
0.00195165
0.00199852
0.00204983
0.00210581
0.00216647
0.00223147
0.0022998
0.00237073
0.00244416
0.00251295
0.00256756
0.00259809
0.00260767
0.00259984
0.00256943
0.00253989
0.00253141
0.00257526
0.00267256
0.00289014
0.00304569
0.00303795
0.00263704
0.00178456
0.000816849
0.000115909
4.42673e-05
0.000296325
0.000458515
0.000566821
0.000652014
0.00072454
0.000788863
0.00084738
0.000901603
0.000952633
0.00100138
0.00104867
0.00109535
0.00114228
0.00119045
0.00124098
0.00129518
0.00135453
0.00142068
0.00149528
0.00157978
0.001675
0.0017806
0.00189454
0.00201271
0.00212898
0.00223568
0.00232448
0.00238186
0.00240176
0.00239439
0.00234697
0.00226384
0.00215307
0.0020267
0.00189917
0.00178442
0.00169277
0.00162884
0.0015962
0.00158439
0.00158303
0.00159127
0.00160728
0.00162744
0.00164971
0.00167315
0.00169757
0.00172313
0.0017502
0.00177927
0.00181088
0.00184556
0.00188387
0.00192632
0.00197341
0.00202559
0.00208327
0.00214672
0.002216
0.0022908
0.00237014
0.00245192
0.0025358
0.00261511
0.00267595
0.00270571
0.00271253
0.00269318
0.00264108
0.00258664
0.00256625
0.00260671
0.00271616
0.00294283
0.00304616
0.00284869
0.00207023
0.000969051
0.000140825
4.51686e-05
0.000302063
0.000465435
0.000574429
0.000660334
0.000733678
0.000798937
0.000858515
0.000913925
0.000966275
0.00101649
0.00106541
0.00111391
0.00116289
0.00121337
0.00126651
0.00132367
0.00138634
0.00145616
0.00153471
0.00162324
0.0017222
0.00183073
0.00194609
0.00206338
0.00217573
0.00227484
0.00235172
0.00239009
0.00239671
0.00236914
0.00230156
0.00220087
0.00207737
0.00194506
0.00181915
0.00171265
0.00163334
0.00158587
0.00156552
0.00156018
0.00156334
0.00157557
0.00159289
0.00161262
0.00163344
0.00165489
0.00167707
0.00170035
0.00172526
0.00175239
0.00178235
0.00181575
0.00185316
0.00189512
0.00194217
0.0019948
0.0020535
0.00211872
0.00219085
0.00227002
0.00235589
0.00244729
0.00254165
0.00263728
0.00272694
0.0027898
0.00281625
0.00281781
0.002779
0.00269939
0.00262121
0.00259419
0.00263869
0.00278208
0.00294628
0.00293645
0.00234144
0.00113745
0.000168607
4.59674e-05
0.000307267
0.00047157
0.000581076
0.00066755
0.000741591
0.000807683
0.000868233
0.000924755
0.000978361
0.00102998
0.00108049
0.00113075
0.00118171
0.00123442
0.00129007
0.00135004
0.00141582
0.00148902
0.0015711
0.00166307
0.00176502
0.00187554
0.00199123
0.00210652
0.00221398
0.00230513
0.00236689
0.00238967
0.00238387
0.00233689
0.00225218
0.00213762
0.00200559
0.00187142
0.00175032
0.00165375
0.00158696
0.00155327
0.00154098
0.0015393
0.00154628
0.0015601
0.00157712
0.00159535
0.00161401
0.00163299
0.00165261
0.0016734
0.00169599
0.00172108
0.00174935
0.00178144
0.00181796
0.00185946
0.00190645
0.00195941
0.00201886
0.00208532
0.00215934
0.00224142
0.0023318
0.00243013
0.00253496
0.00264296
0.00275135
0.00284899
0.00291006
0.00293064
0.002917
0.00285047
0.00273411
0.00263903
0.00261601
0.00267415
0.00286028
0.0029481
0.00258665
0.00133802
0.00020253
4.66626e-05
0.000311935
0.000476932
0.000586783
0.000673686
0.000748301
0.000815119
0.000876548
0.000934099
0.000988886
0.00104185
0.00109386
0.00114581
0.00119866
0.00125349
0.00131151
0.0013741
0.00144275
0.00151898
0.00160412
0.00169894
0.00180313
0.00191476
0.00202984
0.00214221
0.00224396
0.00232614
0.00237315
0.00238522
0.00236347
0.00230065
0.00220189
0.00207696
0.00193993
0.00180687
0.0016923
0.00160556
0.0015514
0.00152714
0.00151994
0.0015207
0.00152989
0.00154375
0.00155943
0.00157553
0.0015916
0.00160782
0.00162468
0.00164284
0.00166303
0.00168603
0.00171259
0.00174342
0.00177914
0.00182029
0.00186736
0.00192079
0.00198102
0.00204858
0.00212406
0.00220816
0.00230156
0.00240466
0.00251706
0.00263677
0.00275917
0.00288065
0.0029818
0.00303331
0.00304385
0.00300374
0.00289747
0.00273604
0.00263954
0.00263193
0.00272996
0.00286401
0.00273846
0.00156758
0.000243304
4.72537e-05
0.000316065
0.000481537
0.000591572
0.000678768
0.000753835
0.000821271
0.000883479
0.000941967
0.000997849
0.00105206
0.00110549
0.00115904
0.00121368
0.0012705
0.00133072
0.00139571
0.00146693
0.00154582
0.00163354
0.00173059
0.00183631
0.00194826
0.00206196
0.00217076
0.00226638
0.00233898
0.00237259
0.00237539
0.00233928
0.00226307
0.00215316
0.00202094
0.00188166
0.0017516
0.0016442
0.0015668
0.00152309
0.00150505
0.00150058
0.00150338
0.00151315
0.00152603
0.00153976
0.00155332
0.00156658
0.00157987
0.00159384
0.00160926
0.00162697
0.00164783
0.00167268
0.00170228
0.0017373
0.00177827
0.00182565
0.0018798
0.00194107
0.00200988
0.00208678
0.00217253
0.00226807
0.00237435
0.00249193
0.00262026
0.00275655
0.00289436
0.00302666
0.0031209
0.00315746
0.00314802
0.00306458
0.00290426
0.00270991
0.00262651
0.00265508
0.00277763
0.00279356
0.00181066
0.000287648
4.77406e-05
0.000319655
0.000485399
0.000595468
0.000682825
0.000758225
0.000826167
0.000889051
0.000948379
0.00100526
0.00106063
0.00111538
0.00117041
0.00122671
0.00128536
0.00134759
0.00141474
0.00148821
0.00156936
0.00165917
0.00175788
0.00186446
0.00197608
0.00208782
0.00219273
0.00228241
0.00234482
0.00236891
0.00236151
0.00231333
0.00222623
0.00210785
0.00197087
0.0018313
0.00170521
0.0016048
0.00153554
0.00149941
0.00148535
0.00148247
0.00148632
0.00149563
0.00150689
0.00151828
0.00152911
0.00153941
0.00154968
0.00156066
0.00157326
0.00158843
0.0016071
0.00163021
0.0016586
0.001693
0.00173397
0.0017819
0.00183709
0.00189975
0.00197015
0.00204871
0.00213612
0.00223341
0.00234189
0.00246283
0.00259689
0.00274296
0.00289671
0.00305037
0.00318543
0.00326168
0.00327918
0.00322789
0.00308107
0.00285417
0.00266576
0.00262333
0.00270747
0.00279397
0.0020563
0.000334105
4.81235e-05
0.000322705
0.000488536
0.000598498
0.000685889
0.000761503
0.000829841
0.000893293
0.000953357
0.00101113
0.00106756
0.00112351
0.00117991
0.00123772
0.00129803
0.00136205
0.00143109
0.0015065
0.0015895
0.00168091
0.00178072
0.00188759
0.00199835
0.00210773
0.00220854
0.00229212
0.00234483
0.00236168
0.00234522
0.00228732
0.00219175
0.00206726
0.0019275
0.00178888
0.00166699
0.00157273
0.00150997
0.00147885
0.00146715
0.00146506
0.00146905
0.0014772
0.00148646
0.00149532
0.00150331
0.00151062
0.00151784
0.00152581
0.00153553
0.00154808
0.0015645
0.00158583
0.00161302
0.00164686
0.00168795
0.00173667
0.00179322
0.00185766
0.00193008
0.00201069
0.00210003
0.00219908
0.0023093
0.0024325
0.00257032
0.00272328
0.00288907
0.00306038
0.00322621
0.00334995
0.00339821
0.00338245
0.00326247
0.00303567
0.00275296
0.00261848
0.00262577
0.00270924
0.00226448
0.000376295
4.84033e-05
0.000325217
0.000490966
0.00060069
0.000687992
0.000763704
0.000832326
0.000896239
0.000956931
0.0010155
0.00107286
0.0011299
0.00118751
0.00124668
0.00130846
0.00137405
0.00144471
0.00152171
0.00160616
0.00169871
0.00179913
0.00190579
0.00201527
0.00212207
0.00221878
0.00229676
0.00234194
0.00235251
0.00232806
0.00226263
0.00216082
0.00203223
0.00189118
0.00175415
0.00163611
0.00154675
0.00148876
0.00146049