/*--------------------------------*- C++ -*----------------------------------*\
  =========                 |
  \\      /  F ield         | OpenFOAM: The Open Source CFD Toolbox
   \\    /   O peration     | Website:  https://openfoam.org
    \\  /    A nd           | Version:  13
     \\/     M anipulation  |
\*---------------------------------------------------------------------------*/
FoamFile
{
    format      ascii;
    class       volScalarField;
    location    "1.4";
    object      p;
}
// * * * * * * * * * * * * * * * * * * * * * * * * * * * * * * * * * * * * * //

dimensions      [0 2 -2 0 0 0 0];

internalField   nonuniform List<scalar> 
6400
(
-6.60552e-09
-1.68052e-06
-7.90249e-06
-1.77324e-05
-2.96477e-05
-4.25705e-05
-5.59213e-05
-6.93411e-05
-8.27026e-05
-9.60187e-05
-0.000109345
-0.000122716
-0.000136158
-0.000149675
-0.000163245
-0.000176816
-0.000190305
-0.000203601
-0.000216563
-0.000229024
-0.000240784
-0.00025162
-0.000261276
-0.00026947
-0.000275884
-0.000280166
-0.000281917
-0.000280694
-0.000276002
-0.000267288
-0.000253943
-0.000235306
-0.000210663
-0.000179259
-0.000140309
-9.3016e-05
-3.65866e-05
2.97404e-05
0.000106667
0.000194805
0.00029464
0.000406495
0.000530489
0.000666433
0.000813635
0.000971429
0.00113961
0.00131637
0.00149894
0.00168556
0.00187368
0.00206046
0.00224267
0.00241704
0.00258051
0.00273026
0.00286376
0.00297902
0.00307457
0.00314968
0.00320443
0.00323961
0.00325668
0.00325764
0.00324487
0.003221
0.00318868
0.00315069
0.00310947
0.0030672
0.00302582
0.00298692
0.00295177
0.00292139
0.00289646
0.00287733
0.00286411
0.00285653
0.00285388
0.0028551
1.51403e-06
-2.26269e-07
-5.85448e-06
-1.45834e-05
-2.52001e-05
-3.67523e-05
-4.88008e-05
-6.11266e-05
-7.36363e-05
-8.62668e-05
-9.89987e-05
-0.000111847
-0.000124814
-0.000137884
-0.000151018
-0.000164153
-0.000177203
-0.000190055
-0.000202575
-0.000214604
-0.000225961
-0.000236434
-0.000245787
-0.000253751
-0.000260024
-0.000264262
-0.000266077
-0.00026503
-0.000260629
-0.000252326
-0.000239519
-0.000221554
-0.00019773
-0.000167311
-0.000129533
-8.36236e-05
-2.88153e-05
3.56287e-05
0.000110391
0.000196067
0.000293138
0.000401926
0.000522551
0.000654878
0.000798533
0.000953059
0.00111727
0.00128958
0.00146835
0.00165141
0.00183616
0.00201988
0.00219958
0.00237203
0.00253418
0.00268325
0.00281671
0.00293252
0.0030293
0.00310631
0.00316351
0.00320157
0.00322184
0.00322619
0.0032169
0.00319653
0.00316769
0.00313304
0.00309469
0.00305531
0.00301655
0.00298001
0.00294699
0.00291837
0.00289495
0.00287704
0.00286468
0.00285756
0.00285512
0.00285637
7.74731e-06
5.19174e-06
-6.25202e-07
-8.67883e-06
-1.79208e-05
-2.78444e-05
-3.8214e-05
-4.89283e-05
-5.99581e-05
-7.12753e-05
-8.28514e-05
-9.46693e-05
-0.000106705
-0.000118924
-0.000131273
-0.000143683
-0.000156066
-0.000168314
-0.000180299
-0.000191876
-0.000202879
-0.000213121
-0.000222379
-0.000230402
-0.000236901
-0.000241546
-0.000243954
-0.000243694
-0.000240278
-0.000233168
-0.000221774
-0.000205459
-0.000183545
-0.000155324
-0.000120065
-7.70261e-05
-2.54723e-05
3.53083e-05
0.000105983
0.000187148
0.000279294
0.000382778
0.000497794
0.000624307
0.000761939
0.000910027
0.00106826
0.00123479
0.00140793
0.00158579
0.00176589
0.0019456
0.00212219
0.00229253
0.00245352
0.00260245
0.00273682
0.00285456
0.00295418
0.0030348
0.00309627
0.00313913
0.00316456
0.00317432
0.00317056
0.00315571
0.00313228
0.00310277
0.00306952
0.00303448
0.00299979
0.00296677
0.00293666
0.00291055
0.00288898
0.00287236
0.00286084
0.00285424
0.00285206
0.00285334
1.80929e-05
1.40679e-05
7.24855e-06
-1.02158e-06
-9.46968e-06
-1.78601e-05
-2.6403e-05
-3.52702e-05
-4.45448e-05
-5.42456e-05
-6.43597e-05
-7.48618e-05
-8.57161e-05
-9.68769e-05
-0.000108288
-0.000119882
-0.000131577
-0.00014328
-0.000154878
-0.000166245
-0.000177227
-0.000187648
-0.000197302
-0.000205949
-0.00021331
-0.000219058
-0.000222816
-0.000224156
-0.000222599
-0.000217618
-0.000208641
-0.000195053
-0.000176202
-0.000151407
-0.000119961
-8.1139e-05
-3.42145e-05
2.15321e-05
8.67924e-05
0.00016221
0.000248357
0.000345694
0.000454516
0.000574856
0.000706456
0.000849129
0.00100202
0.00116382
0.00133301
0.00150769
0.00168551
0.00186393
0.00204029
0.00221133
0.00237382
0.00252506
0.00266247
0.00278377
0.00288729
0.00297201
0.00303762
0.00308458
0.00311401
0.00312766
0.0031277
0.00311658
0.00309688
0.00307107
0.00304149
0.00301015
0.00297882
0.00294894
0.00292161
0.00289774
0.00287792
0.00286251
0.00285176
0.00284571
0.00284381
0.00284505
3.10905e-05
2.53719e-05
1.65478e-05
6.88209e-06
-1.8403e-06
-9.56399e-06
-1.69365e-05
-2.44325e-05
-3.22945e-05
-4.0629e-05
-4.94712e-05
-5.88189e-05
-6.86486e-05
-7.89238e-05
-8.95985e-05
-0.000100617
-0.000111914
-0.00012341
-0.000135012
-0.000146602
-0.000158036
-0.000169143
-0.000179727
-0.000189553
-0.000198339
-0.00020576
-0.000211443
-0.000214972
-0.000215886
-0.000213678
-0.000207798
-0.000197655
-0.00018262
-0.000162024
-0.000135162
-0.0001013
-5.96782e-05
-9.52496e-06
4.99253e-05
0.000119408
0.000199607
0.000291114
0.000394362
0.000509539
0.000636573
0.000775273
0.000924927
0.00108447
0.00125245
0.00142702
0.00160582
0.00178625
0.0019658
0.00214105
0.00230834
0.00246479
0.00260781
0.00273478
0.00284373
0.00293338
0.00300325
0.00305367
0.00308574
0.00310124
0.00310248
0.00309212
0.00307294
0.00304765
0.00301871
0.00298826
0.00295804
0.0029294
0.00290337
0.00288069
0.00286187
0.00284726
0.00283714
0.00283163
0.00282999
0.00283109
4.51294e-05
3.74663e-05
2.60205e-05
1.38646e-05
3.74434e-06
-4.34408e-06
-1.14371e-05
-1.82974e-05
-2.53475e-05
-3.28121e-05
-4.08049e-05
-4.93755e-05
-5.85363e-05
-6.8278e-05
-7.85766e-05
-8.9395e-05
-0.000100683
-0.000112374
-0.000124382
-0.000136596
-0.000148879
-0.000161067
-0.000172965
-0.000184335
-0.0001949
-0.000204345
-0.000212314
-0.000218414
-0.000222211
-0.000223226
-0.000220937
-0.000214775
-0.000204124
-0.000188313
-0.000166619
-0.000138268
-0.000102444
-5.82945e-05
-4.95716e-06
5.84156e-05
0.00013262
0.00021837
0.000316244
0.000426596
0.000549496
0.000684947
0.000832319
0.000990711
0.00115879
0.00133476
0.0015163
0.0017006
0.00188523
0.0020671
0.00224182
0.00240596
0.00255707
0.00269218
0.00280887
0.0029055
0.0029813
0.00303637
0.00307169
0.00308904
0.00309084
0.00307998
0.00305954
0.00303258
0.00300191
0.00296993
0.00293855
0.00290916
0.00288277
0.00286002
0.00284131
0.00282692
0.00281714
0.00281202
0.00281058
0.00281151
5.86951e-05
4.89569e-05
3.43761e-05
1.89349e-05
6.55691e-06
-2.75378e-06
-1.03714e-05
-1.73175e-05
-2.41914e-05
-3.13472e-05
-3.89934e-05
-4.72482e-05
-5.6175e-05
-6.58029e-05
-7.61372e-05
-8.71631e-05
-9.88456e-05
-0.000111128
-0.00012393
-0.00013714
-0.000150624
-0.000164216
-0.000177719
-0.000190902
-0.000203503
-0.000215229
-0.000225756
-0.000234723
-0.000241734
-0.000246348
-0.000248076
-0.000246373
-0.000240631
-0.000230173
-0.000214252
-0.000192051
-0.000162694
-0.000125254
-7.87763e-05
-2.2302e-05
4.5094e-05
0.000124263
0.000215937
0.000320667
0.000438767
0.000570156
0.000714657
0.000871483
0.00103945
0.0012169
0.00140159
0.00159064
0.00178134
0.00197118
0.00215552
0.00232993
0.00249173
0.00263787
0.00276536
0.00287206
0.00295671
0.00301909
0.00305994
0.00308091
0.00308448
0.0030737
0.00305195
0.00302268
0.00298914
0.00295415
0.00291996
0.00288822
0.00286001
0.00283599
0.00281649
0.00280173
0.00279192
0.00278703
0.00278577
0.00278659
6.98793e-05
5.82528e-05
4.02627e-05
2.10518e-05
5.82909e-06
-5.35289e-06
-1.41543e-05
-2.18218e-05
-2.91162e-05
-3.65178e-05
-4.43332e-05
-5.27558e-05
-6.1906e-05
-7.18556e-05
-8.26415e-05
-9.42707e-05
-0.000106723
-0.000119948
-0.000133866
-0.00014837
-0.000163322
-0.000178558
-0.000193886
-0.000209088
-0.000223928
-0.000238149
-0.00025147
-0.000263581
-0.000274138
-0.000282748
-0.000288964
-0.000292272
-0.00029208
-0.000287714
-0.000278414
-0.000263337
-0.00024156
-0.000212095
-0.000173906
-0.000125928
-6.71039e-05
3.57596e-06
8.7034e-05
0.000184068
0.000295241
0.000420598
0.000560386
0.000714009
0.000880522
0.00105849
0.00124586
0.00143988
0.00163733
0.00183584
0.00203171
0.0022194
0.002395
0.0025557
0.00269798
0.00281891
0.00291659
0.00299029
0.00304035
0.00306813
0.00307601
0.00306722
0.00304542
0.00301444
0.00297804
0.00293953
0.00290163
0.00286637
0.00283514
0.00280875
0.00278756
0.00277178
0.00276157
0.00275675
0.00275572
0.00275657
7.73987e-05
6.39417e-05
4.24187e-05
1.91818e-05
7.37176e-07
-1.27912e-05
-2.3297e-05
-3.22198e-05
-4.04628e-05
-4.86217e-05
-5.70967e-05
-6.61551e-05
-7.59737e-05
-8.66666e-05
-9.83004e-05
-0.000110902
-0.000124461
-0.000138931
-0.000154235
-0.000170262
-0.000186876
-0.000203917
-0.000221212
-0.000238571
-0.000255799
-0.000272693
-0.000289036
-0.000304588
-0.000319073
-0.000332165
-0.000343477
-0.000352542
-0.000358805
-0.000361618
-0.000360234
-0.000353806
-0.000341393
-0.000321962
-0.000294399
-0.000257532
-0.00021015
-0.000151046
-7.90542e-05
6.89878e-06
0.000107698
0.000223852
0.000355714
0.000503292
0.000665881
0.000842362
0.001031
0.00122932
0.00143397
0.00164197
0.0018507
0.00205467
0.00224818
0.00242782
0.00258999
0.00273078
0.00284725
0.00293809
0.00300287
0.00304238
0.0030587
0.00305519
0.00303568
0.00300456
0.0029662
0.00292449
0.00288267
0.00284329
0.00280817
0.00277843
0.00275468
0.00273719
0.00272614
0.00272126
0.00272055
0.00272161
7.99603e-05
6.47655e-05
3.97114e-05
1.23614e-05
-9.52102e-06
-2.57255e-05
-3.83312e-05
-4.89402e-05
-5.85785e-05
-6.79433e-05
-7.75193e-05
-8.76411e-05
-9.85374e-05
-0.00011036
-0.000123202
-0.000137103
-0.000152062
-0.000168034
-0.000184939
-0.000202666
-0.000221086
-0.000240055
-0.000259429
-0.000279066
-0.000298833
-0.000318606
-0.000338253
-0.000357629
-0.000376553
-0.000394792
-0.000412042
-0.000427916
-0.000441931
-0.000453499
-0.000461925
-0.000466393
-0.000465965
-0.00045958
-0.00044605
-0.000424074
-0.000392255
-0.000349134
-0.000293234
-0.00022313
-0.000137497
-3.52592e-05
8.39946e-05
0.000221342
0.000376176
0.00054786
0.000735155
0.000936136
0.00114784
0.0013666
0.00158928
0.00181178
0.00202784
0.00223183
0.00242003
0.00258784
0.00273099
0.00284714
0.00293462
0.00299333
0.00302463
0.00303179
0.00301856
0.00299
0.00295141
0.00290747
0.00286212
0.00281852
0.00277901
0.0027452
0.00271807
0.00269813
0.00268571
0.00268056
0.00268026
0.00268169
7.64731e-05
5.96527e-05
3.11645e-05
-2.59569e-07
-2.56733e-05
-4.47655e-05
-5.97581e-05
-7.23884e-05
-8.37858e-05
-9.47346e-05
-0.000105792
-0.000117352
-0.000129686
-0.000142979
-0.000157342
-0.000172828
-0.000189435
-0.000207118
-0.000225797
-0.000245367
-0.00026571
-0.000286714
-0.000308282
-0.000330342
-0.000352849
-0.000375783
-0.000399132
-0.000422875
-0.000446959
-0.000471277
-0.000495652
-0.000519816
-0.000543406
-0.000565942
-0.000586821
-0.000605296
-0.00062046
-0.000631228
-0.000636331
-0.000634313
-0.000623552
-0.000602268
-0.000568573
-0.000520596
-0.000456529
-0.000374636
-0.00027352
-0.000152669
-1.0879e-05
0.000151577
0.000333911
0.000534637
0.000751347
0.000980581
0.00121848
0.0014612
0.00170325
0.00193808
0.00216009
0.00236377
0.00254421
0.00269637
0.00281727
0.00290579
0.00296211
0.00298853
0.00298832
0.00296721
0.00293158
0.00288721
0.0028392
0.00279163
0.00274757
0.00270919
0.00267796
0.00265481
0.00264042
0.00263466
0.00263474
0.00263666
6.60466e-05
4.7725e-05
1.59689e-05
-1.94007e-05
-4.83473e-05
-7.0445e-05
-8.80214e-05
-0.000102924
-0.000116367
-0.000129208
-0.000142065
-0.00015538
-0.00016946
-0.000184514
-0.000200666
-0.000217973
-0.000236435
-0.000256006
-0.000276606
-0.000298141
-0.000320522
-0.000343682
-0.000367594
-0.000392282
-0.000417822
-0.000444333
-0.000471957
-0.000500838
-0.000531092
-0.000562785
-0.000595914
-0.000630388
-0.000666015
-0.000702481
-0.00073932
-0.000775888
-0.000811329
-0.00084454
-0.000874154
-0.000898524
-0.000915754
-0.000923681
-0.000919866
-0.000901867
-0.000867328
-0.000813829
-0.000739133
-0.000641726
-0.00051976
-0.000372914
-0.00020125
-5.51535e-06
0.000212642
0.00045038
0.000703987
0.000968962
0.00123996
0.00151078
0.00177422
0.00202365
0.00225311
0.00245516
0.0026248
0.002758
0.00285338
0.00291153
0.00293523
0.0029302
0.0029036
0.00286239
0.0028134
0.00276247
0.00271387
0.0026706
0.00263464
0.00260755
0.00259042
0.00258352
0.0025838
0.00258627
4.7977e-05
2.82889e-05
-6.52092e-06
-4.56449e-05
-7.80579e-05
-0.000103206
-0.000123489
-0.000140843
-0.000156551
-0.000171529
-0.000186444
-0.000201774
-0.000217857
-0.000234915
-0.00025308
-0.000272411
-0.000292905
-0.000314515
-0.00033717
-0.000360798
-0.00038535
-0.000410828
-0.000437303
-0.000464928
-0.000493933
-0.00052462
-0.000557328
-0.000592411
-0.000630206
-0.000671005
-0.00071504
-0.000762458
-0.000813303
-0.000867477
-0.000924704
-0.000984476
-0.001046
-0.00110815
-0.00116944
-0.00122796
-0.00128151
-0.0013275
-0.00136274
-0.00138406
-0.00138851
-0.00137294
-0.00133401
-0.00126874
-0.0011755
-0.00105241
-0.000898814
-0.000714399
-0.000499745
-0.000257014
1.04718e-05
0.00029831
0.000601001
0.000912088
0.00122444
0.00153009
0.0018198
0.00208561
0.00232068
0.00251742
0.00267164
0.00278005
0.00284383
0.00286845
0.00286118
0.00283006
0.00278388
0.0027311
0.00267826
0.00262978
0.00258855
0.00255667
0.00253586
0.0025271
0.0025272
0.00253016
2.17303e-05
8.241e-07
-3.67947e-05
-7.94393e-05
-0.000115202
-0.00014339
-0.000166445
-0.00018637
-0.000204503
-0.000221806
-0.000238984
-0.000256543
-0.000274838
-0.000294102
-0.00031447
-0.000335998
-0.00035868
-0.000382475
-0.000407326
-0.000433196
-0.000460098
-0.000488128
-0.000517487
-0.000548494
-0.00058158
-0.000617271
-0.000656155
-0.000698849
-0.000745965
-0.000798087
-0.000855747
-0.000919398
-0.000989382
-0.00106588
-0.00114885
-0.00123794
-0.00133242
-0.00143112
-0.00153242
-0.00163404
-0.00173332
-0.00182727
-0.00191187
-0.00198302
-0.00203702
-0.00206958
-0.00207631
-0.00205343
-0.00199769
-0.00190645
-0.00177846
-0.00161259
-0.00140809
-0.00116616
-0.000889495
-0.000581968
-0.000248942
0.000103824
0.000470644
0.00084141
0.00120405
0.00154892
0.00186627
0.00214546
0.00238007
0.00256263
0.0026903
0.00276429
0.00279222
0.00278322
0.00274762
0.00269694
0.00264116
0.00258742
0.00254026
0.00250262
0.00247709
0.0024655
0.00246469
0.00246789
-1.30759e-05
-3.50265e-05
-7.51946e-05
-0.0001211
-0.00016006
-0.000191235
-0.000217081
-0.000239649
-0.00026032
-0.000280089
-0.000299689
-0.000319647
-0.000340327
-0.000361967
-0.000384701
-0.000408581
-0.000433603
-0.000459733
-0.000486944
-0.00051525
-0.000544749
-0.000575663
-0.000608359
-0.000643367
-0.000681363
-0.000723151
-0.000769618
-0.000821703
-0.000880355
-0.000946517
-0.00102109
-0.00110491
-0.00119868
-0.00130291
-0.00141781
-0.00154321
-0.00167845
-0.00182223
-0.00197276
-0.00212739
-0.0022825
-0.0024347
-0.00257931
-0.00271061
-0.00282388
-0.00291407
-0.00297578
-0.00300409
-0.00299404
-0.00294195
-0.00284681
-0.00270724
-0.00252153
-0.00228958
-0.00201272
-0.00169349
-0.00133602
-0.000943379
-0.000519276
-7.91396e-05
0.000363289
0.000799887
0.00121832
0.00160183
0.0019398
0.00222086
0.00243906
0.00259002
0.00267732
0.00270888
0.00269748
0.00265722
0.00260228
0.00254416
0.00249057
0.0024462
0.00241465
0.00239875
0.00239594
0.00239894
-5.66585e-05
-7.94969e-05
-0.000121935
-0.000170825
-0.000212802
-0.000246878
-0.000275499
-0.000300745
-0.000324027
-0.000346365
-0.00036851
-0.000391002
-0.00041421
-0.000438372
-0.000463619
-0.000490001
-0.000517519
-0.000546159
-0.000575933
-0.000606931
-0.000639364
-0.000673614
-0.000710258
-0.000750079
-0.000794051
-0.000843306
-0.000899087
-0.000962713
-0.00103554
-0.00111893
-0.00121425
-0.00132276
-0.00144559
-0.00158362
-0.00173732
-0.00190673
-0.00209125
-0.00228944
-0.00249863
-0.0027161
-0.00293773
-0.00315795
-0.00337115
-0.0035713
-0.00375221
-0.00390753
-0.00403088
-0.00411616
-0.00415772
-0.0041516
-0.00409651
-0.00398931
-0.00382798
-0.00361188
-0.00334097
-0.00301622
-0.0026403
-0.00221351
-0.0017443
-0.00124945
-0.000730735
-0.00019383
0.000337679
0.000842614
0.00130794
0.0017149
0.00205211
0.00231066
0.00248835
0.00258813
0.0026212
0.00260547
0.00255938
0.00249996
0.00244018
0.00238803
0.00234878
0.00232663
0.00232056
0.00232263
-0.000109092
-0.000132709
-0.000177124
-0.000228702
-0.000273496
-0.000310362
-0.000341712
-0.000369639
-0.000395574
-0.000420553
-0.000445338
-0.000470474
-0.000496333
-0.000523149
-0.00055105
-0.000580089
-0.000610278
-0.000641635
-0.000674232
-0.000708256
-0.000744066
-0.000782241
-0.00082361
-0.000869261
-0.000920512
-0.000978875
-0.00104601
-0.00112367
-0.00121368
-0.00131793
-0.00143826
-0.00157646
-0.00173412
-0.00191248
-0.00211233
-0.00233401
-0.00257647
-0.00283781
-0.00311556
-0.00340513
-0.00370134
-0.00399738
-0.00428623
-0.00456096
-0.00481367
-0.00503653
-0.0052223
-0.00536362
-0.00545528
-0.00549403
-0.00547617
-0.005398
-0.0052595
-0.00506008
-0.00479921
-0.00447698
-0.0040925
-0.00365063
-0.00316214
-0.00261984
-0.00203164
-0.00141561
-0.000785666
-0.000153945
0.00045034
0.00100467
0.00149048
0.00188933
0.00219112
0.00239292
0.00250035
0.00253039
0.00250693
0.00245308
0.00238901
0.00232844
0.00227973
0.00224928
0.00223809
0.0022381
-0.000170366
-0.000194652
-0.000240749
-0.000294715
-0.000342111
-0.000381633
-0.000415647
-0.000446237
-0.000474843
-0.000502511
-0.000530008
-0.000557881
-0.0005865
-0.000616095
-0.000646795
-0.00067866
-0.000711724
-0.000746051
-0.000781795
-0.000819269
-0.000859013
-0.000901843
-0.000948886
-0.00100158
-0.00106163
-0.00113099
-0.00121177
-0.00130624
-0.00141678
-0.0015458
-0.00169576
-0.00186896
-0.0020675
-0.00229305
-0.00254675
-0.00282839
-0.00313708
-0.00347041
-0.00382431
-0.0041927
-0.00456924
-0.00494611
-0.00531365
-0.00566295
-0.0059851
-0.00627106
-0.00651218
-0.00670138
-0.00683581
-0.00691272
-0.00692617
-0.00687279
-0.00675296
-0.00656624
-0.00631244
-0.00599208
-0.00560682
-0.00516245
-0.00466227
-0.00409573
-0.00346973
-0.00279812
-0.00209295
-0.00136477
-0.000638607
6.95093e-05
0.000719635
0.00128634
0.00174694
0.002088
0.00230687
0.00241419
0.00243463
0.00239892
0.00233554
0.00226714
0.00220764
0.00216647
0.0021476
0.00214395
-0.000240375
-0.000265202
-0.000312694
-0.000368746
-0.000418521
-0.000460555
-0.000497148
-0.000530363
-0.000561641
-0.00059203
-0.000622297
-0.000652988
-0.00068447
-0.000716972
-0.000750625
-0.000785506
-0.000821684
-0.000859287
-0.000898575
-0.000940016
-0.000984365
-0.00103272
-0.00108654
-0.00114765
-0.00121821
-0.00130064
-0.00139757
-0.00151185
-0.00164643
-0.00180436
-0.0019887
-0.00220235
-0.00244793
-0.0027275
-0.00304191
-0.00339116
-0.00377346
-0.00418485
-0.00461994
-0.0050719
-0.00553132
-0.00598832
-0.00643161
-0.00685022
-0.00723388
-0.00757289
-0.00785982
-0.00809077
-0.00826128
-0.00836563
-0.00840056
-0.00836706
-0.00826448
-0.00809237
-0.0078505
-0.00753898
-0.00715839
-0.00670971
-0.00619113
-0.00560895
-0.00496697
-0.00427042
-0.00352354
-0.00272824
-0.00190208
-0.00107181
-0.000267711
0.000475014
0.001119
0.00163517
0.00200597
0.00223049
0.00232637
0.00232875
0.00227597
0.00220239
0.00213109
0.00207648
0.00204729
0.00203812
-0.000318913
-0.000344146
-0.000392752
-0.000450587
-0.000502514
-0.000546905
-0.000585982
-0.000621772
-0.000655708
-0.000688836
-0.000721922
-0.000755506
-0.000789953
-0.000825494
-0.000862272
-0.000900387
-0.000939958
-0.000981199
-0.0010245
-0.00107051
-0.00112024
-0.0011751
-0.00123693
-0.00130798
-0.00139088
-0.00148858
-0.00160428
-0.00174144
-0.00190367
-0.00209468
-0.00231813
-0.00257755
-0.00287608
-0.00321574
-0.00359729
-0.00401999
-0.00448065
-0.00497439
-0.00549377
-0.00602921
-0.00656915
-0.00710105
-0.00761206
-0.00809003
-0.00852438
-0.00890601
-0.0092283
-0.00948699
-0.00967842
-0.00980022
-0.00985096
-0.00983122
-0.00974118
-0.00958109
-0.00935123
-0.00905183
-0.00868291
-0.008244
-0.00773396
-0.00715412
-0.00650547
-0.00578906
-0.0050052
-0.00416874
-0.0032849
-0.00236551
-0.00143734
-0.000539691
0.00028855
0.0010016
0.0015606
0.00194551
0.00215836
0.00222859
0.00220345
0.0021308
0.00204769
0.0019775
0.00193546
0.00191767
-0.000405684
-0.000431188
-0.00048063
-0.000539948
-0.000593796
-0.000640384
-0.000681841
-0.000720144
-0.000756715
-0.000792594
-0.000828539
-0.000865088
-0.000902606
-0.00094133
-0.00098142
-0.00102302
-0.0010663
-0.00111159
-0.00115944
-0.00121071
-0.00126669
-0.00132912
-0.00140027
-0.00148285
-0.00157999
-0.0016952
-0.00183231
-0.00199543
-0.00218884
-0.00241688
-0.00268387
-0.00299408
-0.0033508
-0.00375555
-0.00420883
-0.00470881
-0.00525109
-0.0058284
-0.00643083
-0.00704576
-0.00765916
-0.00825636
-0.00882336
-0.00934766
-0.00981898
-0.0102294
-0.0105739
-0.010849
-0.0110526
-0.0111838
-0.0112429
-0.0112305
-0.0111478
-0.0109956
-0.0107747
-0.0104857
-0.0101286
-0.00970274
-0.0092073
-0.00864144
-0.00800383
-0.0072928
-0.00650741
-0.00565077
-0.00472747
-0.00375203
-0.00274113
-0.00171994
-0.000731969
0.000173439
0.000940833
0.00152315
0.00189878
0.00207801
0.00210632
0.00204705
0.00195447
0.00186707
0.00180854
0.00177852
-0.000500312
-0.000525956
-0.000575964
-0.000636463
-0.000692
-0.000740621
-0.000784345
-0.000825094
-0.000864271
-0.000902904
-0.000941747
-0.000981333
-0.00102203
-0.00106409
-0.0011077
-0.00115305
-0.00120041
-0.00125021
-0.00130319
-0.00136046
-0.0014236
-0.00149474
-0.00157657
-0.00167227
-0.00178554
-0.00192046
-0.00208151
-0.00227349
-0.00250134
-0.00276998
-0.00308461
-0.00345003
-0.00386858
-0.00434198
-0.00487013
-0.00544949
-0.00607346
-0.00673218
-0.00741257
-0.00809918
-0.00877565
-0.00942595
-0.0100357
-0.0105928
-0.0110881
-0.0115157
-0.0118717
-0.0121541
-0.012362
-0.0124961
-0.0125572
-0.012547
-0.0124671
-0.012319
-0.0121041
-0.0118232
-0.0114766
-0.011064
-0.0105842
-0.0100358
-0.00941618
-0.00872261
-0.0079524
-0.00710396
-0.00617744
-0.00517792
-0.00411642
-0.00301382
-0.00190239
-0.000832407
0.00013582
0.000936023
0.00151404
0.00184913
0.00196922
0.00194265
0.00184726
0.00174063
0.00166009
0.00161519
-0.000602356
-0.000628008
-0.000678315
-0.000739701
-0.000796694
-0.000847179
-0.000893054
-0.000936175
-0.000977921
-0.00101931
-0.00106108
-0.00110378
-0.00114777
-0.00119333
-0.00124068
-0.00129008
-0.00134189
-0.0013967
-0.00145544
-0.00151947
-0.00159072
-0.0016717
-0.00176554
-0.00187592
-0.0020071
-0.00216378
-0.00235111
-0.00257455
-0.00283964
-0.00315199
-0.00351791
-0.00394108
-0.00442398
-0.00496855
-0.00557263
-0.00623072
-0.00693364
-0.00766834
-0.00841861
-0.0091665
-0.00989402
-0.0105846
-0.0112242
-0.0118021
-0.0123111
-0.0127466
-0.0131061
-0.0133889
-0.0135955
-0.0137273
-0.013786
-0.0137739
-0.0136932
-0.013546
-0.013334
-0.0130585
-0.0127203
-0.0123193
-0.0118546
-0.0113244
-0.0107259
-0.0100554
-0.00930869
-0.00848164
-0.00757124
-0.0065769
-0.00550225
-0.00435868
-0.00316973
-0.00197608
-0.000837303
0.000173141
0.000976728
0.00151126
0.00176894
0.00180734
0.00172085
0.00159357
0.00148405
0.00142266
-0.000711308
-0.000736839
-0.000787185
-0.000849165
-0.000907381
-0.00095956
-0.00100746
-0.00105288
-0.00109715
-0.00114128
-0.00118602
-0.0012319
-0.0012793
-0.00132853
-0.00137986
-0.00143361
-0.00149028
-0.00155061
-0.00161574
-0.00168731
-0.0017676
-0.0018595
-0.00196659
-0.00209309
-0.0022438
-0.00242405
-0.00263965
-0.00289668
-0.00320118
-0.0035601
-0.00397916
-0.00446143
-0.00501066
-0.00562669
-0.00630549
-0.00703927
-0.00781575
-0.00861862
-0.00942884
-0.0102266
-0.0109931
-0.0117121
-0.0123708
-0.0129602
-0.0134748
-0.0139115
-0.0142691
-0.0145479
-0.0147493
-0.0148755
-0.0149288
-0.014912
-0.0148276
-0.0146784
-0.0144664
-0.0141935
-0.0138609
-0.013469
-0.0130173
-0.0125041
-0.0119268
-0.0112812
-0.0105624
-0.00976464
-0.00888225
-0.00791071
-0.00684803
-0.00569809
-0.00447437
-0.00320544
-0.00194077
-0.000752018
0.000270374
0.00103299
0.00147719
0.00162333
0.00156762
0.00142143
0.00127509
0.00119699
-0.000826603
-0.000851889
-0.000902021
-0.000964308
-0.00102351
-0.00107721
-0.00112702
-0.00117464
-0.00122139
-0.00126826
-0.00131599
-0.00136511
-0.00141604
-0.00146911
-0.00152465
-0.00158308
-0.001645
-0.00171135
-0.00178349
-0.00186335
-0.00195354
-0.00205735
-0.00217882
-0.00232267
-0.00249428
-0.00269958
-0.00294498
-0.00323707
-0.00358288
-0.00398995
-0.00446243
-0.00500508
-0.00562053
-0.00630628
-0.00705664
-0.00786095
-0.00870367
-0.00956547
-0.0104251
-0.0112617
-0.0120565
-0.0127941
-0.0134635
-0.0140577
-0.0145725
-0.0150062
-0.0153584
-0.0156306
-0.0158248
-0.0159434
-0.0159893
-0.0159658
-0.0158757
-0.015722
-0.0155076
-0.0152345
-0.0149046
-0.0145188
-0.0140771
-0.0135784
-0.0130202
-0.0123987
-0.0117086
-0.0109434
-0.0100956
-0.00915812
-0.00812473
-0.0069927
-0.00576721
-0.00446583
-0.00312428
-0.00180443
-0.000595109
0.00039412
0.00106035
0.00136505
0.00137539
0.00121743
0.00103205
0.000936093
-0.000947628
-0.000972547
-0.00102222
-0.00108453
-0.00114449
-0.00119953
-0.00125111
-0.00130084
-0.00135002
-0.00139961
-0.00145035
-0.00150279
-0.00155735
-0.00161442
-0.0016744
-0.0017378
-0.00180537
-0.00187822
-0.00195795
-0.00204677
-0.00214762
-0.0022642
-0.00240097
-0.00256317
-0.00275671
-0.00298813
-0.00326438
-0.00359245
-0.0039808
-0.00443586
-0.00496194
-0.00556472
-0.00624411
-0.00699639
-0.00781346
-0.0086816
-0.00958217
-0.0104933
-0.0113924
-0.0122579
-0.013072
-0.0138209
-0.0144953
-0.01509
-0.0156018
-0.01603
-0.0163754
-0.0166398
-0.0168256
-0.0169357
-0.0169732
-0.0169416
-0.0168442
-0.0166844
-0.0164651
-0.0161893
-0.0158592
-0.0154763
-0.0150414
-0.0145538
-0.0140117
-0.0134118
-0.0127489
-0.0120163
-0.0112057
-0.010308
-0.00931446
-0.00821745
-0.00701452
-0.00571379
-0.00433841
-0.00293571
-0.0015874
-0.000401868
0.000498522
0.00100509
0.00112078
0.000973797
0.000757263
0.00063855
-0.00107372
-0.00109816
-0.00114713
-0.00120919
-0.00126968
-0.00132587
-0.00137908
-0.00143084
-0.00148238
-0.00153467
-0.00158842
-0.00164422
-0.00170251
-0.00176374
-0.00182837
-0.00189702
-0.00197059
-0.00205037
-0.00213819
-0.00223654
-0.00234869
-0.00247871
-0.00263149
-0.00281272
-0.00302887
-0.00328698
-0.00359443
-0.00395911
-0.00438981
-0.0048917
-0.00547104
-0.00613161
-0.00687159
-0.00768588
-0.00856358
-0.00948796
-0.0104377
-0.0113891
-0.0123185
-0.0132051
-0.0140319
-0.014787
-0.0154629
-0.0160554
-0.0165627
-0.0169848
-0.0173229
-0.0175792
-0.0177565
-0.0178578
-0.0178865
-0.0178461
-0.0177402
-0.0175726
-0.0173467
-0.0170658
-0.0167328
-0.0163498
-0.0159182
-0.0154382
-0.0149087
-0.014327
-0.0136885
-0.0129866
-0.0122129
-0.0113572
-0.0104087
-0.00935724
-0.00819409
-0.00691866
-0.00554385
-0.00410231
-0.00266238
-0.00132731
-0.000220379
0.000512016
0.00078336
0.000680131
0.000446511
0.000297832
-0.0012042
-0.00122804
-0.00127607
-0.00133762
-0.00139839
-0.00145556
-0.00151026
-0.00156393
-0.00161777
-0.0016727
-0.00172947
-0.00178866
-0.00185077
-0.00191628
-0.00198574
-0.00205989
-0.00213976
-0.00222683
-0.00232315
-0.00243148
-0.00255539
-0.0026993
-0.0028685
-0.00306913
-0.00330813
-0.003593
-0.00393144
-0.0043325
-0.00480411
-0.00535173
-0.00598224
-0.00669694
-0.00749327
-0.00836397
-0.00929542
-0.0102682
-0.0112588
-0.0122422
-0.0131947
-0.0140961
-0.014931
-0.0156892
-0.0163647
-0.0169542
-0.0174567
-0.0178728
-0.0182041
-0.0184529
-0.018622
-0.0187147
-0.0187343
-0.0186847
-0.0185697
-0.0183931
-0.018159
-0.017871
-0.0175327
-0.0171468
-0.0167155
-0.0162397
-0.0157191
-0.0151518
-0.014534
-0.0138597
-0.0131208
-0.0123067
-0.0114054
-0.0104046
-0.00929234
-0.00806022
-0.00671152
-0.0052664
-0.00377875
-0.00234613
-0.00107504
-0.000123371
0.000339998
0.000318804
9.05659e-05
-9.70188e-05
-0.00133832
-0.00136146
-0.00140834
-0.0014691
-0.00152994
-0.00158789
-0.00164393
-0.0016994
-0.00175544
-0.00181297
-0.00187274
-0.00193534
-0.0020013
-0.00207119
-0.00214562
-0.00222545
-0.00231186
-0.00240648
-0.0025116
-0.00263021
-0.00276616
-0.00292418
-0.00310993
-0.00332996
-0.0035916
-0.00390276
-0.00427157
-0.00470771
-0.00521812
-0.00580964
-0.00648788
-0.00725242
-0.00809985
-0.00902062
-0.00999865
-0.0110122
-0.0120361
-0.0130446
-0.0140144
-0.0149263
-0.0157665
-0.0165262
-0.0172006
-0.0177872
-0.0182854
-0.0186964
-0.0190218
-0.019264
-0.0194257
-0.0195102
-0.0195211
-0.0194621
-0.0193373
-0.0191509
-0.0189073
-0.0186106
-0.0182649
-0.0178738
-0.0174399
-0.0169651
-0.0164499
-0.0158933
-0.0152924
-0.0146421
-0.0139347
-0.0131602
-0.0123057
-0.0113576
-0.0103022
-0.00912614
-0.00782355
-0.00640221
-0.0048969
-0.00341394
-0.00203197
-0.000901952
-0.000231406
-0.000117954
-0.000316961
-0.000560659
-0.00147534
-0.00149767
-0.00154319
-0.00160293
-0.00166359
-0.00172214
-0.00177936
-0.00183649
-0.00189463
-0.0019547
-0.00201741
-0.00208341
-0.00215326
-0.00222757
-0.00230707
-0.0023927
-0.00248579
-0.00258815
-0.00270222
-0.00283123
-0.00297928
-0.00315138
-0.00335351
-0.00359255
-0.00387619
-0.0042126
-0.00461057
-0.00507966
-0.00562659
-0.00625892
-0.00698038
-0.00778991
-0.00868257
-0.00964678
-0.0106643
-0.0117115
-0.0127621
-0.0137901
-0.014773
-0.0156925
-0.0165365
-0.0172973
-0.0179708
-0.0185552
-0.0190504
-0.0194574
-0.0197781
-0.0200148
-0.0201701
-0.0202471
-0.0202496
-0.0201813
-0.0200464
-0.0198495
-0.0195954
-0.0192886
-0.0189339
-0.0185354
-0.0180966
-0.0176201
-0.0171073
-0.0165581
-0.0159704
-0.0153402
-0.0146606
-0.0139223
-0.0131128
-0.0122174
-0.0112207
-0.0101078
-0.00886599
-0.00749333
-0.00600167
-0.0044902
-0.00305627
-0.00179892
-0.000936836
-0.000653098
-0.00079471
-0.00110465
-0.00161449
-0.00163589
-0.00167989
-0.00173836
-0.00179862
-0.00185755
-0.00191578
-0.00197444
-0.00203458
-0.00209708
-0.00216267
-0.00223202
-0.00230574
-0.00238449
-0.00246908
-0.00256057
-0.0026604
-0.00277052
-0.00289357
-0.00303294
-0.00319294
-0.00337883
-0.00359685
-0.00385416
-0.00415871
-0.00451884
-0.00494414
-0.00544346
-0.00602405
-0.00669317
-0.00745299
-0.008302
-0.0092336
-0.0102345
-0.0112847
-0.0123592
-0.0134309
-0.0144743
-0.0154671
-0.0163926
-0.0172397
-0.0180019
-0.0186754
-0.0192588
-0.0197523
-0.0201568
-0.0204742
-0.0207066
-0.0208565
-0.0209269
-0.0209214
-0.0208439
-0.0206989
-0.020491
-0.0202256
-0.0199077
-0.0195426
-0.019135
-0.0186894
-0.018209
-0.017696
-0.0171511
-0.0165734
-0.0159597
-0.0153042
-0.0145984
-0.0138307
-0.0129861
-0.0120482
-0.011001
-0.00982825
-0.00852041
-0.00707981
-0.00554968
-0.00410472