/*--------------------------------*- C++ -*----------------------------------*\
  =========                 |
  \\      /  F ield         | OpenFOAM: The Open Source CFD Toolbox
   \\    /   O peration     | Website:  https://openfoam.org
    \\  /    A nd           | Version:  13
     \\/     M anipulation  |
\*---------------------------------------------------------------------------*/
FoamFile
{
    format      ascii;
    class       surfaceScalarField;
    location    "1.4";
    object      phi;
}
// * * * * * * * * * * * * * * * * * * * * * * * * * * * * * * * * * * * * * //

dimensions      [0 3 -1 0 0 0 0];

internalField   nonuniform List<scalar> 
12640
(
1.78288e-09
-1.78275e-09
4.07243e-09
-2.28955e-09
5.38791e-09
-1.31549e-09
5.21516e-09
1.72745e-10
3.6178e-09
1.59735e-09
9.0492e-10
2.71287e-09
-2.5952e-09
3.50012e-09
-6.63695e-09
4.04175e-09
-1.1052e-08
4.41503e-09
-1.57278e-08
4.67583e-09
-2.05942e-08
4.86636e-09
-2.56155e-08
5.02133e-09
-3.07798e-08
5.16427e-09
-3.60905e-08
5.31073e-09
-4.15616e-08
5.47104e-09
-4.72134e-08
5.65182e-09
-5.30701e-08
5.85672e-09
-5.91569e-08
6.08683e-09
-6.54979e-08
6.341e-09
-7.21141e-08
6.61615e-09
-7.90216e-08
6.90753e-09
-8.62308e-08
7.20917e-09
-9.37457e-08
7.51492e-09
-1.01565e-07
7.81926e-09
-1.09682e-07
8.11747e-09
-1.18088e-07
8.40595e-09
-1.26771e-07
8.6824e-09
-1.35716e-07
8.94566e-09
-1.44912e-07
9.19513e-09
-1.54342e-07
9.42996e-09
-1.6399e-07
9.64828e-09
-1.73836e-07
9.84641e-09
-1.83854e-07
1.00181e-08
-1.94008e-07
1.01541e-08
-2.0425e-07
1.02416e-08
-2.14514e-07
1.02644e-08
-2.24717e-07
1.02029e-08
-2.34752e-07
1.00347e-08
-2.44488e-07
9.73555e-09
-2.53768e-07
9.28027e-09
-2.62412e-07
8.6445e-09
-2.70219e-07
7.80648e-09
-2.76967e-07
6.74817e-09
-2.82418e-07
5.45123e-09
-2.86314e-07
3.89536e-09
-2.88442e-07
2.12885e-09
-2.88729e-07
2.8614e-10
-2.8682e-07
-1.90848e-09
-2.8263e-07
-4.19036e-09
-2.76058e-07
-6.57131e-09
-2.67069e-07
-8.98919e-09
-2.55682e-07
-1.13872e-08
-2.41995e-07
-1.36868e-08
-2.2621e-07
-1.57853e-08
-2.08588e-07
-1.76218e-08
-1.89446e-07
-1.91419e-08
-1.69165e-07
-2.02815e-08
-1.48179e-07
-2.09853e-08
-1.26945e-07
-2.12347e-08
-1.05909e-07
-2.10354e-08
-8.55119e-08
-2.03975e-08
-6.61618e-08
-1.93501e-08
-4.82195e-08
-1.79422e-08
-3.19813e-08
-1.62382e-08
-1.76691e-08
-1.43123e-08
-5.4265e-09
-1.22426e-08
4.69006e-09
-1.01166e-08
1.27088e-08
-8.01869e-09
1.86161e-08
-5.90735e-09
2.25599e-08
-3.9438e-09
2.46708e-08
-2.1109e-09
2.51102e-08
-4.39437e-10
2.40614e-08
1.0488e-09
2.172e-08
2.34143e-09
1.83027e-08
3.41736e-09
1.4103e-08
4.19965e-09
9.50877e-09
4.59423e-09
5.08192e-09
4.42685e-09
1.59092e-09
3.491e-09
1.59092e-09
2.35115e-09
-4.1339e-09
4.66537e-09
-4.60377e-09
4.51067e-09
-1.1608e-09
1.29347e-09
3.38994e-09
-4.70172e-09
7.59254e-09
-1.29341e-08
1.09452e-08
-2.28469e-08
1.3413e-08
-3.39713e-08
1.51661e-08
-4.59539e-08
1.63976e-08
-5.85596e-08
1.72816e-08
-7.16468e-08
1.79536e-08
-8.51334e-08
1.85079e-08
-9.89795e-08
1.90104e-08
-1.13174e-07
1.95054e-08
-1.27725e-07
2.00218e-08
-1.42649e-07
2.0576e-08
-1.57967e-07
2.11743e-08
-1.73694e-07
2.18139e-08
-1.89838e-07
2.24852e-08
-2.06395e-07
2.31729e-08
-2.23345e-07
2.38581e-08
-2.40656e-07
2.45198e-08
-2.5828e-07
2.51386e-08
-2.76159e-07
2.56986e-08
-2.9423e-07
2.61887e-08
-3.12426e-07
2.66021e-08
-3.30681e-07
2.69369e-08
-3.4893e-07
2.71942e-08
-3.67111e-07
2.73764e-08
-3.85165e-07
2.74843e-08
-4.03032e-07
2.75151e-08
-4.20645e-07
2.74599e-08
-4.3793e-07
2.73024e-08
-4.54794e-07
2.70183e-08
-4.71127e-07
2.65747e-08
-4.86794e-07
2.59316e-08
-5.01635e-07
2.50432e-08
-5.1546e-07
2.38601e-08
-5.28057e-07
2.23322e-08
-5.39188e-07
2.04117e-08
-5.48601e-07
1.80569e-08
-5.5603e-07
1.52358e-08
-5.61211e-07
1.19291e-08
-5.63888e-07
8.12888e-09
-5.63821e-07
3.82786e-09
-5.60762e-07
-9.29949e-10
-5.54502e-07
-5.97363e-09
-5.44994e-07
-1.14174e-08
-5.32087e-07
-1.70973e-08
-5.15782e-07
-2.28758e-08
-4.96122e-07
-2.86492e-08
-4.73221e-07
-3.4288e-08
-4.47284e-07
-3.96246e-08
-4.18605e-07
-4.44641e-08
-3.87555e-07
-4.86712e-08
-3.54555e-07
-5.21421e-08
-3.20082e-07
-5.47542e-08
-2.84665e-07
-5.64022e-08
-2.48888e-07
-5.70118e-08
-2.13366e-07
-5.65582e-08
-1.787e-07
-5.50628e-08
-1.45463e-07
-5.25879e-08
-1.1417e-07
-4.9235e-08
-8.52686e-08
-4.51394e-08
-5.91209e-08
-4.046e-08
-3.59962e-08
-3.53672e-08
-1.60813e-08
-3.00315e-08
5.07223e-10
-2.46072e-08
1.3873e-08
-1.92732e-08
2.39693e-08
-1.404e-08
3.09178e-08
-9.05944e-09
3.48724e-08
-4.39399e-09
3.60238e-08
-1.0263e-10
3.45667e-08
3.79846e-09
3.07904e-08
7.19373e-09
2.50523e-08
9.9377e-09
1.79172e-08
1.17294e-08
1.02811e-08
1.20629e-08
3.54855e-09
1.02236e-08
5.13947e-09
1.40293e-09
-5.53683e-09
1.19128e-09
-4.39213e-09
-2.53256e-09
2.56305e-09
-9.7679e-09
1.06253e-08
-1.99448e-08
1.77694e-08
-3.24191e-08
2.34195e-08
-4.66515e-08
2.76454e-08
-6.22162e-08
3.07308e-08
-7.8796e-08
3.29774e-08
-9.61646e-08
3.46502e-08
-1.14168e-07
3.59567e-08
-1.32707e-07
3.70477e-08
-1.51726e-07
3.80289e-08
-1.71191e-07
3.89706e-08
-1.91085e-07
3.99159e-08
-2.11395e-07
4.08854e-08
-2.32102e-07
4.18821e-08
-2.53183e-07
4.28944e-08
-2.74597e-07
4.38995e-08
-2.96292e-07
4.48676e-08
-3.182e-07
4.57659e-08
-3.40242e-07
4.6562e-08
-3.62332e-07
4.72287e-08
-3.84381e-07
4.77478e-08
-4.06302e-07
4.81098e-08
-4.28013e-07
4.83133e-08
-4.49441e-07
4.8364e-08
-4.70517e-07
4.82708e-08
-4.91184e-07
4.80429e-08
-5.11384e-07
4.76845e-08
-5.3106e-07
4.71916e-08
-5.50149e-07
4.65489e-08
-5.68575e-07
4.57278e-08
-5.86243e-07
4.46864e-08
-6.03039e-07
4.33705e-08
-6.18823e-07
4.17157e-08
-6.3343e-07
3.96507e-08
-6.46672e-07
3.71016e-08
-6.58336e-07
3.39962e-08
-6.68193e-07
3.02687e-08
-6.76e-07
2.58647e-08
-6.8151e-07
2.07452e-08
-6.84472e-07
1.48918e-08
-6.84654e-07
8.31034e-09
-6.81802e-07
9.76149e-10
-6.75811e-07
-6.92138e-09
-6.66386e-07
-1.53986e-08
-6.53466e-07
-2.43367e-08
-6.36985e-07
-3.35788e-08
-6.16916e-07
-4.29445e-08
-5.93318e-07
-5.22477e-08
-5.66308e-07
-6.12976e-08
-5.36081e-07
-6.98515e-08
-5.02927e-07
-7.76181e-08
-4.67232e-07
-8.43663e-08
-4.2943e-07
-8.99444e-08
-3.90022e-07
-9.41617e-08
-3.49576e-07
-9.68483e-08
-3.08704e-07
-9.78842e-08
-2.68047e-07
-9.72153e-08
-2.28251e-07
-9.48586e-08
-1.89939e-07
-9.08998e-08
-1.53684e-07
-8.54897e-08
-1.19988e-07
-7.8836e-08
-8.92591e-08
-7.11885e-08
-6.18069e-08
-6.28194e-08
-3.78348e-08
-5.40036e-08
-1.74427e-08
-4.49993e-08
-6.82031e-10
-3.60339e-08
1.25599e-08
-2.72819e-08
2.23634e-08
-1.8863e-08
2.88934e-08
-1.09239e-08
3.23232e-08
-3.53244e-09
3.28781e-08
3.24356e-09
3.07846e-08
9.2872e-09
2.63295e-08
1.43928e-08
1.99029e-08
1.8156e-08
1.21569e-08
1.98088e-08
4.47999e-09
1.79005e-08
9.61946e-09
-2.88903e-10
-5.24792e-09
-3.95399e-09
-7.27041e-10
-1.15532e-08
1.01622e-08
-2.23609e-08
2.1433e-08
-3.56468e-08
3.10554e-08
-5.09109e-08
3.86835e-08
-6.77751e-08
4.45097e-08
-8.59338e-08
4.88895e-08
-1.05145e-07
5.21883e-08
-1.2522e-07
5.47256e-08
-1.4602e-07
5.67567e-08
-1.67444e-07
5.84713e-08
-1.89418e-07
6.00036e-08
-2.11889e-07
6.14412e-08
-2.34808e-07
6.28345e-08
-2.58126e-07
6.42036e-08
-2.81788e-07
6.55442e-08
-3.05728e-07
6.6834e-08
-3.29866e-07
6.80383e-08
-3.54114e-07
6.91157e-08
-3.78374e-07
7.00255e-08
-4.02546e-07
7.07339e-08
-4.26533e-07
7.12159e-08
-4.50244e-07
7.14586e-08
-4.73596e-07
7.14622e-08
-4.96521e-07
7.12378e-08
-5.18961e-07
7.08036e-08
-5.4087e-07
7.01803e-08
-5.62212e-07
6.93845e-08
-5.82951e-07
6.84236e-08
-6.0305e-07
6.72905e-08
-6.22461e-07
6.59607e-08
-6.41124e-07
6.43908e-08
-6.58957e-07
6.25191e-08
-6.75854e-07
6.02677e-08
-6.91685e-07
5.7546e-08
-7.0629e-07
5.42562e-08
-7.19487e-07
5.02985e-08
-7.31069e-07
4.55777e-08
-7.40809e-07
4.00086e-08
-7.48466e-07
3.35223e-08
-7.53793e-07
2.60717e-08
-7.56536e-07
1.76354e-08
-7.56445e-07
8.21897e-09
-7.53327e-07
-2.14143e-09
-7.46894e-07
-1.33543e-08
-7.3698e-07
-2.5313e-08
-7.23442e-07
-3.78742e-08
-7.06182e-07
-5.08396e-08
-6.85146e-07
-6.398e-08
-6.60357e-07
-7.70369e-08
-6.31907e-07
-8.97478e-08
-5.99953e-07
-1.01805e-07
-5.64743e-07
-1.12828e-07
-5.26644e-07
-1.22465e-07
-4.86096e-07
-1.30493e-07
-4.43611e-07
-1.36647e-07
-3.99785e-07
-1.40674e-07
-3.5528e-07
-1.42389e-07
-3.10803e-07
-1.41692e-07
-2.6708e-07
-1.38581e-07
-2.24828e-07
-1.33152e-07
-1.84717e-07
-1.25601e-07
-1.4734e-07
-1.16213e-07
-1.13185e-07
-1.05343e-07
-8.26142e-08
-9.33904e-08
-5.58566e-08
-8.07613e-08
-3.30146e-08
-6.78413e-08
-1.40818e-08
-5.49666e-08
1.04151e-09
-4.24053e-08
1.25606e-08
-3.03821e-08
2.06575e-08
-1.90208e-08
2.55778e-08
-8.45272e-09
2.75948e-08
1.2265e-09
2.69667e-08
9.91529e-09
2.39689e-08
1.73907e-08
1.88776e-08
2.32473e-08
1.20721e-08
2.66144e-08
4.65896e-09
2.53137e-08
1.42784e-08
-2.21573e-09
-3.03219e-09
-9.34893e-09
6.40617e-09
-2.04416e-08
2.12549e-08
-3.41755e-08
3.51669e-08
-4.9876e-08
4.67558e-08
-6.71978e-08
5.60053e-08
-8.59099e-08
6.32218e-08
-1.05821e-07
6.88001e-08
-1.26762e-07
7.31299e-08
-1.48591e-07
7.65543e-08
-1.71186e-07
7.93516e-08
-1.94448e-07
8.17331e-08
-2.18292e-07
8.38478e-08
-2.42642e-07
8.57918e-08
-2.67424e-07
8.76166e-08
-2.92559e-07
8.9338e-08
-3.17959e-07
9.0944e-08
-3.43528e-07
9.24032e-08
-3.69163e-07
9.36732e-08
-3.94756e-07
9.47088e-08
-4.202e-07
9.54699e-08
-4.45394e-07
9.59275e-08
-4.70244e-07
9.60663e-08
-4.94672e-07
9.58865e-08
-5.18615e-07
9.54049e-08
-5.42027e-07
9.465e-08
-5.6488e-07
9.36566e-08
-5.87158e-07
9.24579e-08
-6.08851e-07
9.10781e-08
-6.29953e-07
8.95253e-08
-6.5045e-07
8.77874e-08
-6.70317e-07
8.58282e-08
-6.89513e-07
8.35864e-08
-7.07971e-07
8.09773e-08
-7.25599e-07
7.7896e-08
-7.42276e-07
7.42225e-08
-7.57849e-07
6.9829e-08
-7.72136e-07
6.45861e-08
-7.8493e-07
5.83711e-08
-7.95996e-07
5.10746e-08
-8.05081e-07
4.26074e-08
-8.11915e-07
3.29063e-08
-8.1622e-07
2.19397e-08
-8.17715e-07
9.71434e-09
-8.16134e-07
-3.72213e-09
-8.11193e-07
-1.82958e-08
-8.02655e-07
-3.38509e-08
-7.90319e-07
-5.02102e-08
-7.7402e-07
-6.71383e-08
-7.53645e-07
-8.4355e-08
-7.29145e-07
-1.01537e-07
-7.00555e-07
-1.18338e-07
-6.67976e-07
-1.34384e-07
-6.31602e-07
-1.49202e-07
-5.91738e-07
-1.62329e-07
-5.48818e-07
-1.73412e-07
-5.0336e-07
-1.82105e-07
-4.5599e-07
-1.88044e-07
-4.07433e-07
-1.90947e-07
-3.58489e-07
-1.90636e-07
-3.10011e-07
-1.87059e-07
-2.62864e-07
-1.80299e-07
-2.17885e-07
-1.7058e-07
-1.75834e-07
-1.58263e-07
-1.3735e-07
-1.43828e-07
-1.02911e-07
-1.2783e-07
-7.2815e-08
-1.10857e-07
-4.71813e-08
-9.3475e-08
-2.59655e-08
-7.61824e-08
-8.99035e-09
-5.93804e-08
3.99646e-09
-4.33689e-08
1.33247e-08
-2.8349e-08
1.93288e-08
-1.44568e-08
2.23526e-08
-1.79731e-09
2.2745e-08
9.52291e-09
2.08153e-08
1.93204e-08
1.6833e-08
2.72295e-08
1.10804e-08
3.2367e-08
4.41865e-09
3.19754e-08
1.86971e-08
-4.07805e-09
1.04586e-09
-1.43747e-08
1.67028e-08
-2.84081e-08
3.52884e-08
-4.45726e-08
5.13314e-08
-6.2269e-08
6.44522e-08
-8.1269e-08
7.50053e-08
-1.01448e-07
8.34004e-08
-1.227e-07
9.00521e-08
-1.4492e-07
9.53506e-08
-1.68006e-07
9.96397e-08
-1.91856e-07
1.03201e-07
-2.16375e-07
1.06252e-07
-2.41471e-07
1.08945e-07
-2.67054e-07
1.11375e-07
-2.93028e-07
1.13591e-07
-3.19293e-07
1.15603e-07
-3.45741e-07
1.17392e-07
-3.7226e-07
1.18922e-07
-3.98734e-07
1.20148e-07
-4.25052e-07
1.21027e-07
-4.51109e-07
1.21527e-07
-4.76812e-07
1.2163e-07
-5.02083e-07
1.21338e-07
-5.26868e-07
1.20671e-07
-5.51132e-07
1.19669e-07
-5.74862e-07
1.1838e-07
-5.98061e-07
1.16856e-07
-6.20747e-07
1.15143e-07
-6.42941e-07
1.13272e-07
-6.64667e-07
1.11252e-07
-6.85943e-07
1.09062e-07
-7.06767e-07
1.06653e-07
-7.27121e-07
1.0394e-07
-7.46957e-07
1.00813e-07
-7.66196e-07
9.71348e-08
-7.84724e-07
9.2751e-08
-8.02394e-07
8.74981e-08
-8.19019e-07
8.1211e-08
-8.3438e-07
7.37321e-08
-8.48225e-07
6.49195e-08
-8.60272e-07
5.46548e-08
-8.70216e-07
4.28503e-08
-8.77732e-07
2.94556e-08
-8.82484e-07
1.44665e-08
-8.84145e-07
-2.0609e-09
-8.82364e-07
-2.00768e-08
-8.76831e-07
-3.93842e-08
-8.67257e-07
-5.97841e-08
-8.5339e-07
-8.10058e-08
-8.35024e-07
-1.0272e-07
-8.12019e-07
-1.24542e-07
-7.84319e-07
-1.46038e-07
-7.5195e-07
-1.66752e-07
-7.15028e-07
-1.86125e-07
-6.73776e-07
-2.0358e-07
-6.28588e-07
-2.186e-07
-5.79963e-07
-2.30731e-07
-5.28541e-07
-2.39466e-07
-4.75102e-07
-2.44386e-07
-4.20546e-07
-2.45192e-07
-3.65871e-07
-2.41734e-07
-3.12137e-07
-2.34033e-07
-2.60416e-07
-2.22301e-07
-2.11729e-07
-2.06951e-07
-1.66971e-07
-1.88585e-07
-1.2685e-07
-1.67951e-07
-9.18308e-08
-1.45876e-07
-6.21166e-08
-1.23189e-07
-3.76604e-08
-1.00639e-07
-1.82103e-08
-7.88305e-08
-3.37627e-09
-5.8203e-08
7.3088e-09
-3.90341e-08
1.43335e-08
-2.14816e-08
1.8176e-08
-5.63976e-09
1.92858e-08
8.41305e-09
1.80629e-08
2.05433e-08
1.4843e-08
3.04494e-08
9.93405e-09
3.72759e-08
4.05338e-09
3.78561e-08
2.27504e-08
-5.7511e-09
6.79697e-09
-1.87592e-08
2.97109e-08
-3.52428e-08
5.17719e-08
-5.34483e-08
6.95369e-08
-7.28453e-08
8.38492e-08
-9.32805e-08
9.54405e-08
-1.14698e-07
1.04818e-07
-1.37053e-07
1.12407e-07
-1.60289e-07
1.18586e-07
-1.84335e-07
1.23685e-07
-2.09109e-07
1.27976e-07
-2.34524e-07
1.31667e-07
-2.60486e-07
1.34906e-07
-2.86893e-07
1.37782e-07
-3.1364e-07
1.40337e-07
-3.40612e-07
1.42575e-07
-3.67693e-07
1.44473e-07
-3.94764e-07
1.45993e-07
-4.21711e-07
1.47094e-07
-4.48425e-07
1.47742e-07
-4.74815e-07
1.47917e-07
-5.00807e-07
1.47621e-07
-5.26349e-07
1.46879e-07
-5.51414e-07
1.45737e-07
-5.76003e-07
1.44258e-07
-6.00136e-07
1.42512e-07
-6.23852e-07
1.40572e-07
-6.47205e-07
1.38496e-07
-6.70255e-07
1.36322e-07
-6.9306e-07
1.34057e-07
-7.15671e-07
1.31673e-07
-7.38117e-07
1.29099e-07
-7.60404e-07
1.26228e-07
-7.82505e-07
1.22915e-07
-8.04356e-07
1.18986e-07
-8.2585e-07
1.14245e-07
-8.46835e-07
1.08484e-07
-8.67116e-07
1.01492e-07
-8.8645e-07
9.30663e-08
-9.04553e-07
8.30226e-08
-9.21101e-07
7.12029e-08
-9.35736e-07
5.74851e-08
-9.48071e-07
4.17903e-08
-9.57695e-07
2.40903e-08
-9.64204e-07
4.44815e-09
-9.67158e-07
-1.71219e-08
-9.66155e-07
-4.0388e-08
-9.60801e-07
-6.51382e-08
-9.50738e-07
-9.1068e-08
-9.35656e-07
-1.17802e-07
-9.15303e-07
-1.44896e-07
-8.89513e-07
-1.71829e-07
-8.58217e-07
-1.98049e-07
-8.2143e-07
-2.22911e-07
-7.79295e-07
-2.45715e-07
-7.32098e-07
-2.65797e-07
-6.80297e-07
-2.82532e-07
-6.2451e-07
-2.95253e-07
-5.65531e-07
-3.03365e-07
-5.04328e-07
-3.06395e-07
-4.42027e-07
-3.04036e-07
-3.79882e-07
-2.96178e-07
-3.19234e-07
-2.82949e-07
-2.61435e-07
-2.64749e-07
-2.07758e-07
-2.42263e-07
-1.59288e-07
-2.1642e-07
-1.16826e-07
-1.88339e-07
-8.08118e-08
-1.59203e-07
-5.13021e-08
-1.30148e-07
-2.80092e-08
-1.02123e-07
-1.03956e-08
-7.58166e-08
2.21377e-09
-5.16435e-08
1.05328e-08
-2.98006e-08
1.52397e-08
-1.03467e-08
1.695e-08
6.70272e-09
1.61994e-08
2.1294e-08
1.34388e-08
3.321e-08
9.06643e-09
4.16483e-08
3.75451e-09
4.3168e-08
2.6505e-08
-7.22688e-09
1.40238e-08
-2.24719e-08
4.4956e-08
-4.09727e-08
7.02727e-08
-6.08939e-08
8.94581e-08
-8.17498e-08
1.04705e-07
-1.0343e-07
1.17121e-07
-1.25919e-07
1.27307e-07
-1.49211e-07
1.35699e-07
-1.73283e-07
1.42659e-07
-1.98091e-07
1.48493e-07
-2.23569e-07
1.53454e-07
-2.49638e-07
1.57736e-07
-2.76205e-07
1.61473e-07
-3.03167e-07
1.64744e-07
-3.30412e-07
1.67582e-07
-3.57824e-07
1.69987e-07
-3.85284e-07
1.71933e-07
-4.12677e-07
1.73386e-07
-4.39897e-07
1.74314e-07
-4.66852e-07
1.74697e-07
-4.9347e-07
1.74534e-07
-5.19701e-07
1.73852e-07
-5.45524e-07
1.72703e-07
-5.70948e-07
1.7116e-07
-5.96005e-07
1.69316e-07
-6.20758e-07
1.67265e-07
-6.45285e-07
1.651e-07
-6.69683e-07
1.62894e-07
-6.94054e-07
1.60693e-07
-7.18498e-07
1.58501e-07
-7.43102e-07
1.56277e-07
-7.67932e-07
1.53929e-07
-7.93022e-07
1.51318e-07
-8.18367e-07
1.4826e-07
-8.43914e-07
1.44532e-07
-8.69555e-07
1.39886e-07
-8.95129e-07
1.34057e-07
-9.20414e-07
1.26777e-07
-9.45133e-07
1.17785e-07
-9.68952e-07
1.06841e-07
-9.91486e-07
9.37372e-08
-1.01231e-06
7.8306e-08
-1.03095e-06
6.04317e-08
-1.04692e-06
4.00604e-08
-1.05968e-06
1.72143e-08
-1.06877e-06
-8.03193e-09
-1.07364e-06
-3.55276e-08
-1.07378e-06
-6.49957e-08
-1.06874e-06
-9.6109e-08
-1.05809e-06
-1.28449e-07
-1.04148e-06
-1.61511e-07
-1.0186e-06
-1.94701e-07
-9.89293e-07
-2.27358e-07
-9.53459e-07
-2.58745e-07
-9.1114e-07
-2.88034e-07
-8.62499e-07
-3.14438e-07
-8.07903e-07
-3.37128e-07
-7.479e-07
-3.55256e-07
-6.83242e-07
-3.68023e-07
-6.14901e-07
-3.74736e-07
-5.44069e-07
-3.74867e-07
-4.72141e-07
-3.68106e-07
-4.00685e-07
-3.54405e-07
-3.3139e-07
-3.34045e-07
-2.6596e-07
-3.07693e-07
-2.05991e-07
-2.76389e-07
-1.52818e-07
-2.41512e-07
-1.07363e-07
-2.04659e-07
-7.00167e-08
-1.67494e-07
-4.06187e-08
-1.31521e-07
-1.85447e-08
-9.78906e-08
-2.87572e-09
-6.73125e-08
7.41483e-09
-4.00911e-08
1.33183e-08
-1.62501e-08
1.5712e-08
4.30897e-09
1.53381e-08
2.16679e-08
1.2812e-08
3.5736e-08
8.66582e-09
4.57945e-08
3.61538e-09
4.82185e-08
3.01203e-08
-8.47683e-09
2.25007e-08
-2.55481e-08
6.20272e-08
-4.56991e-08
9.04237e-08
-6.70573e-08
1.10816e-07
-8.91606e-08
1.26808e-07
-1.11918e-07
1.39878e-07
-1.35336e-07
1.50725e-07
-1.59431e-07
1.59794e-07
-1.84202e-07
1.6743e-07
-2.09625e-07
1.73915e-07
-2.35647e-07
1.79477e-07
-2.62199e-07
1.84288e-07
-2.89192e-07
1.88466e-07
-3.16526e-07
1.92077e-07
-3.4409e-07
1.95147e-07
-3.71772e-07
1.97669e-07
-3.99462e-07
1.99622e-07
-4.27054e-07
2.00979e-07
-4.54459e-07
2.01719e-07
-4.81605e-07
2.01843e-07
-5.08446e-07
2.01375e-07
-5.34963e-07
2.0037e-07
-5.6117e-07
1.9891e-07
-5.8711e-07
1.97101e-07
-6.12861e-07
1.95066e-07
-6.38525e-07
1.92929e-07
-6.64231e-07
1.90806e-07
-6.90123e-07
1.88786e-07
-7.16352e-07
1.86922e-07
-7.43065e-07
1.85215e-07
-7.70396e-07
1.83607e-07
-7.98445e-07
1.81978e-07
-8.27275e-07
1.80149e-07
-8.56897e-07
1.77881e-07
-8.87257e-07
1.74893e-07
-9.18238e-07
1.70867e-07
-9.49648e-07
1.65467e-07
-9.81222e-07
1.58352e-07
-1.01263e-06
1.4919e-07
-1.04346e-06
1.37674e-07
-1.07326e-06
1.23537e-07
-1.10151e-06
1.0656e-07
-1.12767e-06
8.65843e-08
-1.15113e-06
6.35234e-08
-1.17129e-06
3.73706e-08
-1.18755e-06
8.23394e-09
-1.19929e-06
-2.3788e-08
-1.20591e-06
-5.83766e-08
-1.20685e-06
-9.5174e-08
-1.20157e-06
-1.3372e-07
-1.18963e-06
-1.73456e-07
-1.17061e-06
-2.13721e-07
-1.14421e-06
-2.53759e-07
-1.11022e-06
-2.92729e-07
-1.06858e-06
-3.29681e-07
-1.01934e-06
-3.63678e-07
-9.62724e-07
-3.93742e-07
-8.99168e-07
-4.18812e-07
-8.29324e-07
-4.37866e-07
-7.54091e-07
-4.49969e-07
-6.74644e-07
-4.54314e-07
-5.92421e-07
-4.50328e-07
-5.0913e-07
-4.37697e-07
-4.26701e-07
-4.16474e-07
-3.47229e-07
-3.87165e-07
-2.72831e-07
-3.50786e-07
-2.05501e-07
-3.08842e-07
-1.4689e-07
-2.6327e-07
-9.80494e-08
-2.16335e-07
-5.92785e-08
-1.70292e-07
-3.01102e-08
-1.27059e-07
-9.4695e-09
-8.79532e-08
4.0432e-09
-5.36038e-08
1.1864e-08
-2.40709e-08
1.52796e-08
8.93427e-10
1.53523e-08
2.15952e-08
1.29404e-08
3.8148e-08
8.76187e-09
4.9973e-08
3.66153e-09
5.33188e-08
3.37819e-08
-9.5115e-09
3.20122e-08
-2.80536e-08
8.05694e-08
-4.95445e-08
1.11915e-07
-7.20956e-08
1.33367e-07
-9.5254e-08
1.49967e-07
-1.18934e-07
1.63558e-07
-1.43148e-07
1.7494e-07
-1.67927e-07
1.84573e-07
-1.93283e-07
1.92786e-07
-2.19203e-07
1.99835e-07
-2.45649e-07
2.05923e-07
-2.72558e-07
2.11197e-07
-2.9985e-07
2.15758e-07
-3.2743e-07
2.19658e-07
-3.55198e-07
2.22915e-07
-3.83051e-07
2.25522e-07
-4.1089e-07
2.27461e-07
-4.38628e-07
2.28717e-07
-4.66198e-07
2.29289e-07
-4.93553e-07
2.29198e-07
-5.20677e-07
2.285e-07
-5.47587e-07
2.27279e-07
-5.74333e-07
2.25655e-07
-6.01002e-07
2.2377e-07
-6.27718e-07
2.21781e-07
-6.54634e-07
2.19846e-07
-6.81935e-07
2.18106e-07
-7.09819e-07
2.1667e-07
-7.38494e-07
2.15597e-07
-7.6816e-07
2.1488e-07
-7.98992e-07
2.14439e-07
-8.31126e-07
2.14113e-07
-8.64643e-07
2.13666e-07
-8.99554e-07
2.12792e-07
-9.35791e-07
2.11129e-07
-9.73198e-07
2.08275e-07
-1.01154e-06
2.03804e-07
-1.05047e-06
1.97288e-07
-1.0896e-06
1.88315e-07
-1.12843e-06
1.76505e-07
-1.16642e-06
1.61525e-07
-1.20296e-06
1.43102e-07
-1.23741e-06
1.21035e-07
-1.26909e-06
9.52071e-08
-1.29732e-06
6.55982e-08
-1.32137e-06
3.2287e-08
-1.34062e-06
-4.53814e-09
-1.35433e-06
-4.4669e-08
-1.36187e-06
-8.76344e-08
-1.36263e-06
-1.32957e-07
-1.35607e-06
-1.80022e-07
-1.34168e-06
-2.28109e-07
-1.31905e-06
-2.76383e-07
-1.28787e-06
-3.23914e-07
-1.2479e-06
-3.69649e-07
-1.1991e-06
-4.12474e-07
-1.14158e-06
-4.51271e-07
-1.07558e-06
-4.84812e-07
-1.0016e-06
-5.11845e-07
-9.20416e-07
-5.3115e-07
-8.33093e-07
-5.41637e-07
-7.41005e-07
-5.42417e-07
-6.45905e-07
-5.32796e-07
-5.49822e-07
-5.12557e-07
-4.55116e-07
-4.8187e-07
-3.64309e-07
-4.41593e-07
-2.80029e-07
-3.93123e-07
-2.04743e-07
-3.38556e-07
-1.40417e-07
-2.80661e-07
-8.82266e-08
-2.22482e-07
-4.83211e-08
-1.66964e-07
-1.98085e-08
-1.16466e-07
-1.03117e-09
-7.23812e-08
9.98676e-09
-3.50889e-08
1.51185e-08
-4.23829e-09
1.59341e-08
2.07796e-08
1.36631e-08
4.0419e-08
9.28924e-09
5.43468e-08
3.87793e-09
5.87301e-08
3.76598e-08
-1.03513e-08
4.23635e-08
-3.00602e-08
1.00278e-07
-5.26263e-08
1.34481e-07
-7.61545e-08
1.56896e-07
-1.00191e-07
1.74004e-07
-1.24647e-07
1.88013e-07
-1.49534e-07
1.99827e-07
-1.74886e-07
2.09925e-07
-2.00724e-07
2.18623e-07
-2.27043e-07
2.26154e-07
-2.53814e-07
2.32694e-07
-2.80985e-07
2.38368e-07
-3.08484e-07
2.43257e-07
-3.36229e-07
2.47402e-07
-3.64129e-07
2.50815e-07
-3.92097e-07
2.5349e-07
-4.20052e-07
2.55417e-07
-4.47932e-07
2.56596e-07
-4.75691e-07
2.57048e-07
-5.03315e-07
2.56823e-07
-5.30823e-07
2.56007e-07
-5.58267e-07
2.54723e-07
-5.85742e-07
2.53131e-07
-6.13384e-07
2.51412e-07
-6.41369e-07
2.49766e-07
-6.6991e-07
2.48387e-07
-6.99252e-07
2.47448e-07
-7.29656e-07
2.47075e-07
-7.61388e-07
2.4733e-07
-7.94699e-07
2.48191e-07
-8.29802e-07
2.49541e-07
-8.66852e-07
2.51163e-07
-9.0593e-07
2.52743e-07
-9.47024e-07
2.53886e-07
-9.90023e-07
2.54128e-07
-1.03471e-06
2.52965e-07
-1.08078e-06
2.49869e-07
-1.12781e-06
2.44316e-07
-1.1753e-06
2.35807e-07
-1.22268e-06
2.23887e-07
-1.26932e-06
2.08162e-07
-1.31452e-06
1.8831e-07
-1.35758e-06
1.64087e-07
-1.39772e-06
1.35351e-07
-1.4342e-06
1.0208e-07
-1.46626e-06
6.43469e-08
-1.49315e-06
2.23473e-08
-1.51417e-06
-2.36433e-08
-1.52859e-06
-7.32143e-08
-1.53577e-06
-1.25783e-07
-1.53509e-06
-1.80703e-07
-1.52598e-06
-2.37216e-07
-1.50793e-06
-2.94431e-07
-1.48051e-06
-3.51338e-07
-1.44335e-06
-4.06809e-07
-1.39622e-06
-4.59607e-07
-1.33908e-06
-5.08409e-07
-1.27204e-06
-5.51852e-07
-1.19539e-06
-5.88489e-07
-1.10976e-06
-6.16783e-07
-1.016e-06
-6.35398e-07
-9.15331e-07
-6.43085e-07
-8.09411e-07
-6.38717e-07
-7.00248e-07
-6.21719e-07
-5.90322e-07
-5.91797e-07
-4.82406e-07
-5.49509e-07
-3.79626e-07
-4.95903e-07
-2.85156e-07
-4.33026e-07
-2.01898e-07
-3.63919e-07
-1.32164e-07
-2.92216e-07
-7.72224e-08
-2.21906e-07
-3.69548e-08
-1.56733e-07
-9.88011e-09
-9.94559e-08
6.3882e-09
-5.13572e-08
1.44523e-08
-1.23024e-08
1.66278e-08
1.86041e-08
1.47216e-08
4.23252e-08
1.01227e-08
5.89458e-08
4.22754e-09
6.46253e-08
4.18873e-08
-1.10183e-08
5.33819e-08
-3.16348e-08
1.20895e-07
-5.50483e-08
1.57894e-07
-7.93613e-08
1.81209e-07
-1.04114e-07
1.98756e-07
-1.29207e-07
2.13106e-07
-1.54649e-07
2.25269e-07
-1.8047e-07
2.35747e-07
-2.06695e-07
2.44848e-07
-2.33326e-07
2.52785e-07
-2.60342e-07
2.5971e-07
-2.877e-07
2.65726e-07
-3.1534e-07
2.70897e-07
-3.43192e-07
2.75254e-07
-3.71183e-07
2.78806e-07
-3.99243e-07
2.8155e-07
-4.27315e-07
2.83489e-07
-4.55359e-07
2.8464e-07
-4.83361e-07
2.85051e-07
-5.11341e-07
2.84803e-07
-5.39353e-07
2.84019e-07
-5.67495e-07
2.82865e-07
-5.95909e-07
2.81544e-07
-6.24785e-07
2.80288e-07
-6.54359e-07
2.79341e-07
-6.84911e-07
2.78939e-07
-7.16749e-07
2.79286e-07
-7.50201e-07
2.80526e-07
-7.85587e-07
2.82715e-07
-8.23197e-07
2.85801e-07
-8.63266e-07
2.8961e-07
-9.05946e-07
2.93843e-07
-9.51288e-07
2.98085e-07
-9.99231e-07
3.01829e-07
-1.04959e-06
3.04492e-07
-1.10208e-06
3.05453e-07
-1.15629e-06
3.04076e-07
-1.21171e-06
2.99738e-07
-1.26776e-06
2.91853e-07
-1.32376e-06
2.79894e-07
-1.37901e-06
2.63412e-07
-1.43275e-06
2.42048e-07
-1.48419e-06
2.15521e-07
-1.53251e-06
1.83671e-07
-1.57692e-06
1.46489e-07
-1.61663e-06
1.04062e-07
-1.65086e-06
5.65795e-08
-1.67895e-06
4.43942e-09
-1.70008e-06
-5.20852e-08
-1.71364e-06
-1.12219e-07
-1.71901e-06
-1.75334e-07
-1.71558e-06
-2.4065e-07
-1.70276e-06
-3.07248e-07
-1.68003e-06
-3.74062e-07
-1.64693e-06
-4.39911e-07
-1.60305e-06
-5.03493e-07
-1.54809e-06
-5.63366e-07
-1.48192e-06
-6.18024e-07
-1.4046e-06
-6.65809e-07
-1.31645e-06
-7.04929e-07
-1.21815e-06
-7.33703e-07
-1.1108e-06
-7.50435e-07
-9.95788e-07
-7.53725e-07
-8.75059e-07
-7.42448e-07
-7.50991e-07
-7.15865e-07
-6.26486e-07
-6.74013e-07
-5.05002e-07
-6.17387e-07
-3.90203e-07
-5.47825e-07
-2.85785e-07
-4.68337e-07
-1.95187e-07
-3.82814e-07
-1.21046e-07
-2.96047e-07
-6.45967e-08
-2.13183e-07
-2.52571e-08
-1.38796e-07
-7.49224e-10
-7.58651e-08
1.21949e-08
-2.52465e-08
1.68065e-08
1.39925e-08
1.5769e-08
4.33627e-08
1.10943e-08
6.36204e-08
4.66023e-09
7.10594e-08
4.65476e-08
-1.15338e-08
6.49156e-08
-3.28358e-08
1.42197e-07
-5.68987e-08
1.81957e-07
-8.18247e-08
2.06135e-07
-1.07144e-07
2.24075e-07
-1.32745e-07
2.38707e-07
-1.58627e-07
2.51151e-07
-1.84819e-07
2.61938e-07
-2.11343e-07
2.71373e-07
-2.38208e-07
2.7965e-07
-2.65399e-07
2.86901e-07
-2.92883e-07
2.93211e-07
-3.20614e-07
2.98629e-07
-3.48538e-07
3.03178e-07
-3.76598e-07
3.06866e-07
-4.04747e-07
3.09699e-07
-4.32953e-07
3.11694e-07
-4.61204e-07
3.12891e-07
-4.89519e-07
3.13366e-07
-5.17953e-07
3.13237e-07
-5.46604e-07
3.12669e-07
-5.75615e-07
3.11876e-07
-6.05183e-07
3.11112e-07
-6.35557e-07
3.10663e-07
-6.67041e-07
3.10825e-07
-6.9998e-07
3.11878e-07
-7.34752e-07
3.14058e-07
-7.71741e-07
3.17515e-07
-8.1131e-07
3.22285e-07
-8.53772e-07
3.28263e-07
-8.99354e-07
3.35192e-07
-9.48174e-07
3.42663e-07
-1.00023e-06
3.50139e-07
-1.05538e-06
3.56977e-07
-1.11335e-06
3.62465e-07
-1.17375e-06
3.65859e-07
-1.23609e-06
3.6641e-07
-1.29975e-06
3.63399e-07
-1.36406e-06
3.56161e-07
-1.42826e-06
3.44098e-07
-1.49157e-06
3.26718e-07
-1.55316e-06
3.03638e-07
-1.61219e-06
2.74549e-07
-1.66779e-06
2.3928e-07
-1.71917e-06
1.97862e-07
-1.76552e-06
1.50418e-07
-1.80612e-06
9.7175e-08
-1.8402e-06
3.85214e-08
-1.86721e-06
-2.50745e-08
-1.88648e-06
-9.2946e-08
-1.89746e-06
-1.64354e-07
-1.89957e-06
-2.38539e-07
-1.89223e-06
-3.14592e-07
-1.87486e-06
-3.91427e-07
-1.84693e-06
-4.6785e-07
-1.80788e-06
-5.42537e-07
-1.75725e-06
-6.14001e-07
-1.69462e-06
-6.80649e-07
-1.61971e-06
-7.40725e-07
-1.53231e-06
-7.92327e-07
-1.43265e-06
-8.33358e-07
-1.32143e-06
-8.61659e-07
-1.19979e-06
-8.75365e-07
-1.06969e-06
-8.72548e-07
-9.3339e-07
-8.52163e-07
-7.93885e-07
-8.13518e-07
-6.54657e-07
-7.56616e-07
-5.19634e-07
-6.82848e-07
-3.93201e-07
-5.9477e-07
-2.79745e-07
-4.9627e-07
-1.83206e-07
-3.92586e-07
-1.06415e-07
-2.89973e-07
-5.03538e-08
-1.94857e-07
-1.36794e-08
-1.12539e-07
6.93377e-09
-4.58596e-08
1.56699e-08
5.25635e-09
1.63716e-08
4.2661e-08
1.20057e-08
6.79864e-08
5.11933e-09
7.79458e-08
5.16669e-08
-1.1918e-08
7.68336e-08
-3.37124e-08
1.63991e-07
-5.82507e-08
2.06496e-07
-8.36353e-08
2.31519e-07
-1.09383e-07
2.49823e-07
-1.3537e-07
2.64695e-07
-1.61586e-07
2.77367e-07
-1.88054e-07
2.88406e-07
-2.14795e-07
2.98114e-07
-2.41821e-07
3.06676e-07
-2.69126e-07
3.14205e-07
-2.96686e-07
3.20771e-07
-3.2447e-07
3.26412e-07
-3.52439e-07
3.31147e-07
-3.80559e-07
3.34986e-07
-4.08806e-07
3.37946e-07
-4.37174e-07
3.40061e-07
-4.65682e-07
3.414e-07
-4.94385e-07
3.42069e-07
-5.23378e-07
3.42229e-07
-5.528e-07
3.42092e-07
-5.8285e-07
3.41926e-07
-6.13781e-07
3.42043e-07
-6.45907e-07
3.42789e-07
-6.79598e-07
3.44516e-07
-7.15269e-07
3.47549e-07
-7.53356e-07
3.52145e-07
-7.94289e-07
3.58448e-07
-8.38453e-07
3.66449e-07
-8.86153e-07
3.75962e-07
-9.37578e-07
3.86617e-07
-9.92785e-07
3.9787e-07
-1.05168e-06
4.09038e-07
-1.11404e-06
4.19332e-07
-1.17948e-06
4.27905e-07
-1.24751e-06
4.33886e-07
-1.31752e-06
4.36421e-07
-1.38881e-06
4.34693e-07
-1.46061e-06
4.27964e-07
-1.53209e-06
4.15572e-07
-1.60235e-06
3.96976e-07
-1.67051e-06
3.71798e-07
-1.73568e-06
3.39722e-07
-1.79696e-06
3.00565e-07
-1.85354e-06
2.5444e-07
-1.90468e-06
2.01558e-07
-1.94973e-06
1.42221e-07
-1.98809e-06
7.6883e-08
-2.01928e-06
6.11558e-09
-2.04284e-06
-6.93885e-08
-2.05834e-06
-1.48847e-07
-2.06533e-06
-2.31554e-07
-2.06327e-06
-3.1665e-07
-2.05162e-06
-4.03084e-07
-2.02974e-06
-4.89724e-07
-1.99696e-06
-5.75314e-07
-1.95261e-06
-6.58357e-07
-1.89606e-06
-7.372e-07
-1.82672e-06
-8.10067e-07
-1.74401e-06
-8.75032e-07
-1.64765e-06
-9.29721e-07
-1.53749e-06
-9.71812e-07
-1.4139e-06
-9.9896e-07
-1.27824e-06
-1.00821e-06
-1.13266e-06
-9.97746e-07
-9.80522e-07
-9.65654e-07
-8.2538e-07
-9.11757e-07
-6.71369e-07
-8.36859e-07
-5.23301e-07
-7.42838e-07
-3.86333e-07
-6.33238e-07
-2.65521e-07
-5.13399e-07
-1.65229e-07
-3.90265e-07
-8.82857e-08
-2.718e-07
-3.50776e-08
-1.65748e-07
-3.12389e-09
-7.78133e-08
1.22263e-08
-1.00938e-08
1.6044e-08
3.88433e-08
1.265e-08
7.13804e-08
5.55136e-09
8.50444e-08
5.72183e-08
-1.21906e-08
8.90242e-08
-3.43044e-08
1.86105e-07
-5.9164e-08
2.31355e-07
-8.48678e-08
2.57223e-07
-1.10918e-07
2.75873e-07
-1.37177e-07
2.90954e-07
-1.63626e-07
3.03815e-07
-1.90279e-07
3.15059e-07
-2.17159e-07
3.24995e-07
-2.4428e-07
3.33796e-07
-2.71641e-07
3.41567e-07
-2.99233e-07
3.48363e-07
-3.27037e-07
3.54216e-07
-3.55034e-07
3.59144e-07
-3.83211e-07
3.63163e-07
-4.11569e-07
3.66303e-07
-4.4013e-07
3.68623e-07
-4.68948e-07
3.70217e-07
-4.98112e-07
3.71234e-07
-5.2776e-07
3.71877e-07
-5.5808e-07
3.72413e-07
-5.89324e-07
3.73169e-07
-6.21806e-07
3.74525e-07
-6.55905e-07
3.76889e-07
-6.92059e-07
3.8067e-07
-7.30742e-07
3.86232e-07
-7.72436e-07
3.9384e-07
-8.17594e-07
4.03606e-07
-8.66594e-07
4.15449e-07
-9.19701e-07
4.29069e-07
-9.77038e-07
4.43955e-07
-1.03857e-06
4.59406e-07
-1.10411e-06
4.74579e-07
-1.17332e-06
4.88535e-07
-1.2457e-06
5.00287e-07
-1.32066e-06
5.08843e-07
-1.39747e-06
5.13239e-07
-1.47535e-06
5.12563e-07
-1.55339e-06
5.06006e-07
-1.63067e-06
4.92859e-07
-1.7062e-06
4.72501e-07
-1.77896e-06
4.44564e-07
-1.84806e-06
4.08814e-07
-1.91258e-06
3.65085e-07
-1.97174e-06
3.13604e-07
-2.02492e-06
2.54739e-07
-2.0716e-06
1.88902e-07
-2.1114e-06
1.16684e-07
-2.1441e-06
3.8807e-08
-2.16955e-06
-4.39379e-08
-2.18764e-06
-1.30754e-07
-2.1981e-06
-2.21094e-07
-2.2006e-06
-3.14146e-07
-2.19472e-06
-4.08968e-07
-2.17981e-06
-5.04628e-07
-2.15499e-06
-6.00142e-07
-2.11914e-06
-6.94206e-07
-2.07121e-06
-7.85124e-07
-2.01046e-06
-8.70816e-07
-1.93639e-06