/*--------------------------------*- C++ -*----------------------------------*\
  =========                 |
  \\      /  F ield         | OpenFOAM: The Open Source CFD Toolbox
   \\    /   O peration     | Website:  https://openfoam.org
    \\  /    A nd           | Version:  13
     \\/     M anipulation  |
\*---------------------------------------------------------------------------*/
FoamFile
{
    format      ascii;
    class       volScalarField;
    location    "1.2";
    object      epsilon;
}
// * * * * * * * * * * * * * * * * * * * * * * * * * * * * * * * * * * * * * //

dimensions      [0 2 -3 0 0 0 0];

internalField   nonuniform List<scalar> 
6400
(
1.84492e-05
8.94068e-05
0.00018548
0.000283043
0.00037343
0.00045466
0.000527429
0.00059286
0.000651889
0.00070522
0.000753425
0.000797026
0.000836541
0.000872502
0.00090547
0.000936019
0.000964746
0.00099226
0.00101918
0.00104612
0.00107369
0.00110253
0.0011332
0.0011663
0.00120234
0.0012418
0.00128508
0.00133252
0.00138432
0.00144057
0.00150124
0.00156615
0.00163499
0.00170734
0.00178266
0.00186034
0.00193972
0.00202006
0.00210059
0.00218052
0.00225898
0.00233503
0.00240755
0.00247535
0.00253783
0.00259903
0.00265533
0.00270494
0.00274725
0.00277879
0.00279924
0.00281066
0.0028124
0.0028002
0.00277438
0.00273496
0.00268198
0.00261573
0.00253681
0.00244607
0.00234465
0.00223394
0.00211549
0.00199092
0.00186181
0.00172963
0.00159575
0.00146131
0.00132724
0.00119434
0.00106281
0.00093293
0.000804797
0.000678329
0.000554504
0.000432005
0.000311331
0.000195229
9.14983e-05
1.8801e-05
9.00956e-05
7.82461e-05
0.000115975
0.000163052
0.000209578
0.000252774
0.000292092
0.000327678
0.000359846
0.000388935
0.000415276
0.000439199
0.000461034
0.000481118
0.000499791
0.000517393
0.000534263
0.000550734
0.000567134
0.000583781
0.000600983
0.000619034
0.000638209
0.000658759
0.000680903
0.000704818
0.000730631
0.000758407
0.000788141
0.00081975
0.000853068
0.000887851
0.000923784
0.000960492
0.000997556
0.00103453
0.00107097
0.00110641
0.00114041
0.00117257
0.00120248
0.00122975
0.00125405
0.00127527
0.00129359
0.00130988
0.00132299
0.00133242
0.00133682
0.00133761
0.00133419
0.00132668
0.00131485
0.00129802
0.00127637
0.00125004
0.00121919
0.00118405
0.00114493
0.0011022
0.00105631
0.00100774
0.000956975
0.000904515
0.000850816
0.000796281
0.000741242
0.000685947
0.000630558
0.000575139
0.000519656
0.000463999
0.000408003
0.000351499
0.000294593
0.000236785
0.000178576
0.000122868
7.98992e-05
9.16946e-05
0.000193691
0.000120363
0.000134902
0.000167447
0.000203376
0.000238393
0.000271151
0.000301207
0.000328499
0.000353148
0.000375357
0.000395385
0.000413523
0.000430074
0.000445345
0.000459638
0.000473258
0.000486471
0.000499532
0.000512675
0.000526112
0.000540025
0.00055457
0.000569873
0.000586028
0.0006031
0.000621116
0.000640067
0.00065991
0.000680575
0.00070196
0.000723941
0.000746375
0.0007691
0.000791947
0.000814736
0.000837285
0.000859411
0.000880934
0.000901672
0.000921453
0.000940113
0.000957508
0.00097355
0.000988296
0.0010015
0.00101274
0.00102171
0.0010279
0.0010308
0.00103123
0.00102837
0.00102205
0.00101181
0.000997549
0.000979264
0.000957032
0.000931021
0.000901493
0.000868802
0.000833375
0.00079569
0.00075625
0.000715549
0.00067405
0.000632155
0.000590183
0.000548364
0.000506824
0.000465591
0.000424598
0.000383693
0.000342661
0.000301258
0.000259378
0.00021708
0.000175122
0.000137081
0.00011868
0.00019413
0.000311284
0.000174757
0.000171538
0.000194914
0.000224935
0.00025601
0.000285973
0.000313912
0.000339471
0.000362606
0.000383391
0.000402009
0.000418712
0.000433779
0.000447491
0.000460115
0.000471873
0.000483075
0.000493965
0.000504749
0.000515605
0.00052668
0.000538087
0.000549924
0.000562268
0.000575195
0.000588752
0.000602968
0.000617866
0.000633458
0.000649749
0.00066673
0.000684383
0.000702671
0.000721543
0.000740933
0.000760756
0.000780915
0.000801294
0.000821769
0.000842208
0.000862465
0.000882406
0.000901865
0.00092051
0.000938
0.000953929
0.000967893
0.000979449
0.000988224
0.000993436
0.000995139
0.00099337
0.000987214
0.000976403
0.000960868
0.000940672
0.000916005
0.00088719
0.000854672
0.000819004
0.000780811
0.000740752
0.000699481
0.000657606
0.000615655
0.000574055
0.000533111
0.000493004
0.000453795
0.000415434
0.000377781
0.000340638
0.000303804
0.000267153
0.000230861
0.000196162
0.000168142
0.000167238
0.000300886
0.000433994
0.000231388
0.000211813
0.000227988
0.000253725
0.000281888
0.000309805
0.000336254
0.000360659
0.00038278
0.000402628
0.000420341
0.000436129
0.000450241
0.000462946
0.000474517
0.000485244
0.000495333
0.000504991
0.000514411
0.000523772
0.000533237
0.000542897
0.000552854
0.000563195
0.00057397
0.000585303
0.000597359
0.00061024
0.000624036
0.000638832
0.000654701
0.000671696
0.000689849
0.000709168
0.000729635
0.000751206
0.000773813
0.000797359
0.000821716
0.000846726
0.000872261
0.000898143
0.000924016
0.000949498
0.000974146
0.000997451
0.00101885
0.00103774
0.00105347
0.00106541
0.00107232
0.00107449
0.00107181
0.00106298
0.00104788
0.00102658
0.000999318
0.000966564
0.000928964
0.000887325
0.000842569
0.000795668
0.000747581
0.000699193
0.000651268
0.000604409
0.000559045
0.000515427
0.000473639
0.000433625
0.00039522
0.000358195
0.00032233
0.000287533
0.00025414
0.000223761
0.000202392
0.000215155
0.00040185
0.000556875
0.000287012
0.000251836
0.000261496
0.000283558
0.000309275
0.000335476
0.000360707
0.000384236
0.000405726
0.000425091
0.000442397
0.000457805
0.00047153
0.000483816
0.000494912
0.000505063
0.000514485
0.000523381
0.000531936
0.000540311
0.000548646
0.000557119
0.000565886
0.000575108
0.000584981
0.00059567
0.000607337
0.000620131
0.000634205
0.000649711
0.000666786
0.000685546
0.00070608
0.000728453
0.000752698
0.000778822
0.000806803
0.000836584
0.000868043
0.000901022
0.000935268
0.000970441
0.00100621
0.00104212
0.00107757
0.00111188
0.00114423
0.00117373
0.00119941
0.00122027
0.00123508
0.00124218
0.00124317
0.00123609
0.00122012
0.00119536
0.00116219
0.00112129
0.00107363
0.00102046
0.000963189
0.000903318
0.000842315
0.000781521
0.000722074
0.000664856
0.00061047
0.000559247
0.000511278
0.000466456
0.000424535
0.000385197
0.000348147
0.000313262
0.000280932
0.000253004
0.000236314
0.000260274
0.000494976
0.000677708
0.000340636
0.000290447
0.000294095
0.000312891
0.000336465
0.000361161
0.000385324
0.000408109
0.000429096
0.000448124
0.0004652
0.000480438
0.000494017
0.000506149
0.000517064
0.000526986
0.000536131
0.000544704
0.000552898
0.000560898
0.000568892
0.000577078
0.000585663
0.000594866
0.000604921
0.000616062
0.000628511
0.000642526
0.000658357
0.000676227
0.000696341
0.000718877
0.000743985
0.000771787
0.000802374
0.000835803
0.000872093
0.000911219
0.000953121
0.000997661
0.0010446
0.0010936
0.00114421
0.00119581
0.00124762
0.00129865
0.00134775
0.00139357
0.00143464
0.00146938
0.0014962
0.0015124
0.00151816
0.00151401
0.00149676
0.00146649
0.00142374
0.00136952
0.00130533
0.0012331
0.00115508
0.00107365
0.000991144
0.000909694
0.000831073
0.000756618
0.000687196
0.000623234
0.000564779
0.000511585
0.000463217
0.000419155
0.000378916
0.00034224
0.000309461
0.000282554
0.000269078
0.000302469
0.000581347
0.000795123
0.000392005
0.000327232
0.000325361
0.000341189
0.000362856
0.000386216
0.000409431
0.000431562
0.000452125
0.000470905
0.000487859
0.00050306
0.000516654
0.000528828
0.00053979
0.000549754
0.000558936
0.000567547
0.000575799
0.000583907
0.000592098
0.000600618
0.000609729
0.000619718
0.000630886
0.000643547
0.000658021
0.000674639
0.000693723
0.000715584
0.000740511
0.000768776
0.00080063
0.000836301
0.000875992
0.000919881
0.000968108
0.00102077
0.00107789
0.00113941
0.00120514
0.00127472
0.00134762
0.00142304
0.0014999
0.00157681
0.00165207
0.00172369
0.00178941
0.00184677
0.00189326
0.00192565
0.0019405
0.00194196
0.00192456
0.00188721
0.00183064
0.00175631
0.00166645
0.00156409
0.00145279
0.00133643
0.00121888
0.00110367
0.000993706
0.000891161
0.000797361
0.000712864
0.000637585
0.000570974
0.000512196
0.000460317
0.00041447
0.000374084
0.00033929
0.000312087
0.000300625
0.00034219
0.00066267
0.000908369
0.000441109
0.000362067
0.000355171
0.000368257
0.000388211
0.000410386
0.000432762
0.000454322
0.00047453
0.00049313
0.000510043
0.000525309
0.000539045
0.000551417
0.000562616
0.000572853
0.000582345
0.000591316
0.000600004
0.000608659
0.000617558
0.000627001
0.000637321
0.000648878
0.000662057
0.000677263
0.000694915
0.000715439
0.000739266
0.000766821
0.000798527
0.000834801
0.000876056
0.000922704
0.000975148
0.00103377
0.00109895
0.00117097
0.00125009
0.00133639
0.00142981
0.00153001
0.00163637
0.00174785
0.00186299
0.00197981
0.00209583
0.00220807
0.00231309
0.00240712
0.00248622
0.00254641
0.0025807
0.00259167
0.00257853
0.0025343
0.00245995
0.00235739
0.00222977
0.00208157
0.00191837
0.00174644
0.00157227
0.00140191
0.0012405
0.00109181
0.000958119
0.000840288
0.000737984
0.000650052
0.000574875
0.000510702
0.000455921
0.000409346
0.00037067
0.000341739
0.000331169
0.000379963
0.000740357
0.00101704
0.000487953
0.000395102
0.000383471
0.000394019
0.000412431
0.000433561
0.000455209
0.000476282
0.000496205
0.000514691
0.000531636
0.000547055
0.000561044
0.000573751
0.000585361
0.000596081
0.000606138
0.000615775
0.000625262
0.000634896
0.000645006
0.000655965
0.000668183
0.000682108
0.000698225
0.000717048
0.000739115
0.000764987
0.000795245
0.000830488
0.00087134
0.000918449
0.000972494
0.00103418
0.00110425
0.00118344
0.00127248
0.00137206
0.00148276
0.00160497
0.00173882
0.00188404
0.00203991
0.00220505
0.00237741
0.00255418
0.00273175
0.00290572
0.00307105
0.00322216
0.00335321
0.00345833
0.00352863
0.00355822
0.00355802
0.00351169
0.00341862
0.00328098
0.00310264
0.00288958
0.00264983
0.0023931
0.00212999
0.00187099
0.00162541
0.00140044
0.00120062
0.00102772
0.000881212
0.000758897
0.000657693
0.000574289
0.000505646
0.000449401
0.000404386
0.000371965
0.000361069
0.000416206
0.000815242
0.00112094
0.000532629
0.000426438
0.000410283
0.000418465
0.000435484
0.000455697
0.000476724
0.000497399
0.000517111
0.000535555
0.000552607
0.000568266
0.000582613
0.00059579
0.000607975
0.000619382
0.000630252
0.000640859
0.000651511
0.000662559
0.000674402
0.000687491
0.000702329
0.000719473
0.000739528
0.000763147
0.000791027
0.000823916
0.000862612
0.000907974
0.000960929
0.00102248
0.00109373
0.00117584
0.00127008
0.00137774
0.00150014
0.00163854
0.00179403
0.00196741
0.00215907
0.00236877
0.00259551
0.00283737
0.00309137
0.00335343
0.00361836
0.00387996
0.00413114
0.00436412
0.00457069
0.00474248
0.00487108
0.0049403
0.00496096
0.00492704
0.00482258
0.00465045
0.00441439
0.0041209
0.00377992
0.00340472
0.00301124
0.00261674
0.00223787
0.00188876
0.00157931
0.00131442
0.00109423
0.000915233
0.000771868
0.000657948
0.000567733
0.000496626
0.000441794
0.000403544
0.000390793
0.000451196
0.000887552
0.00122
0.000575247
0.000456168
0.000435657
0.000441613
0.000457366
0.00047678
0.00049729
0.000517657
0.000537241
0.00055572
0.000572958
0.000588947
0.000603762
0.00061754
0.000630466
0.000642765
0.000654704
0.00066659
0.000678784
0.000691702
0.000705822
0.000721692
0.000739929
0.00076122
0.000786326
0.000816079
0.000851396
0.000893286
0.000942861
0.00100136
0.00107016
0.00115081
0.001245
0.00135463
0.00148172
0.00162838
0.00179674
0.0019888
0.0022063
0.00245042
0.00272164
0.00301944
0.00334212
0.00368663
0.00404851
0.00442185
0.00479945
0.00517302
0.00553336
0.00587069
0.00617484
0.00643563
0.0066429
0.00677889
0.00683543
0.00683595
0.00674173
0.00655199
0.00626874
0.00589677
0.00544505
0.00492824
0.00436663
0.00378523
0.00321116
0.00267063
0.00218505
0.00176808
0.00142427
0.00115014
0.000936854
0.000773368
0.000648978
0.000554864
0.000485014
0.000437639
0.000420917
0.000485104
0.000957037
0.00131427
0.000615928
0.000484381
0.00045965
0.000463495
0.000478092
0.000496811
0.000516903
0.000537055
0.000556596
0.000575192
0.000592704
0.000609119
0.000624515
0.000639033
0.00065287
0.000666273
0.000679541
0.00069303
0.00070716
0.000722427
0.000739407
0.000758762
0.000781248
0.000807718
0.000839132
0.000876567
0.000921236
0.000974512
0.00103796
0.00111335
0.00120272
0.00130839
0.00143293
0.00157922
0.00175033
0.00194941
0.00217958
0.00244359
0.00274361
0.00308084
0.00345521
0.0038651
0.00430713
0.00477621
0.00526559
0.00576702
0.00627113
0.00676781
0.00724652
0.00769657
0.00810717
0.00846733
0.00876594
0.00899197
0.00912142
0.00916608
0.00912279
0.00895549
0.00866395
0.00824889
0.00771321
0.00706723
0.00633018
0.00553165
0.00470848
0.00390274
0.00315516
0.00249851
0.00195169
0.00151778
0.00118664
0.000940675
0.000760772
0.000630337
0.000537343
0.000475917
0.000452179
0.000518051
0.00102314
0.00140383
0.000654786
0.000511165
0.00048232
0.000484151
0.000497683
0.000515801
0.000535568
0.000555594
0.00057518
0.000593981
0.000611858
0.000628803
0.000644899
0.000660302
0.000675228
0.000689956
0.000704827
0.000720256
0.00073674
0.000754867
0.000775331
0.000798936
0.000826609
0.000859416
0.000898576
0.000945491
0.00100178
0.00106931
0.00115028
0.00124721
0.00136304
0.00150114
0.00166528
0.00185959
0.0020884
0.00235598
0.00266625
0.00302231
0.00342598
0.00387737
0.00437449
0.00491315
0.00548693
0.00608748
0.00670505
0.00732907
0.00794861
0.00855305
0.00913237
0.00967751
0.0101795
0.0106292
0.0110174
0.0113341
0.01157
0.0116957
0.0117333
0.0116524
0.0114221
0.0110392
0.0104967
0.00979226
0.00893303
0.00794527
0.00686642
0.00575117
0.00466237
0.00366316
0.00280335
0.00210922
0.0015802
0.00119492
0.000922599
0.00073334
0.000603988
0.000520865
0.000485592
0.000550191
0.00108514
0.00148878
0.000691931
0.000536608
0.000503711
0.000503625
0.000516169
0.000533766
0.000553292
0.000573279
0.000592997
0.000612094
0.000630433
0.000648015
0.000664937
0.000681377
0.000697579
0.000713862
0.000730623
0.000748348
0.000767626
0.000789158
0.00081378
0.000842468
0.000876367
0.000916812
0.000965362
0.00102385
0.00109443
0.00117965
0.00128254
0.00140665
0.00155611
0.00173564
0.00195046
0.00220612
0.00250815
0.00286159
0.00327041
0.00373678
0.00426056
0.00483877
0.0054655
0.00613207
0.0068276
0.00753974
0.00825573
0.00896348
0.0096523
0.0103136
0.0109409
0.0115312
0.012079
0.01258
0.0130305
0.0134264
0.013761
0.0140261
0.01419
0.014252
0.0141809
0.0139328
0.0135031
0.0128751
0.0120223
0.0109576
0.0097043
0.00831415
0.00686194
0.00544312
0.00415251
0.00306496
0.00221589
0.00159677
0.00116828
0.000881346
0.00069345
0.000576347
0.00052266
0.000581807
0.00114237
0.00156919
0.000727467
0.000560819
0.000523823
0.000521974
0.00053358
0.000550724
0.000570085
0.000590113
0.00061005
0.000629533
0.000648434
0.000666765
0.000684645
0.000702279
0.00071995
0.000738029
0.000756981
0.000777376
0.000799912
0.00082543
0.000854933
0.000889614
0.000930887
0.000980429
0.00104024
0.00111271
0.00120069
0.00130765
0.00143767
0.00159562
0.00178712
0.00201847
0.00229645
0.00262782
0.00301877
0.00347397
0.00399574
0.00458316
0.00523156
0.00593238
0.00667357
0.00744041
0.00821679
0.00898665
0.00973545
0.0104514
0.0111266
0.0117573
0.012342
0.0128711
0.0133529
0.0137989
0.0142182
0.0146175
0.0150003
0.0153652
0.0157034
0.0160049
0.0162291
0.0163308
0.0162511
0.0158847
0.0152416
0.0142856
0.0130475
0.0115302
0.0098023
0.00797553
0.00618409
0.00457047
0.00324359
0.0022472
0.00155635
0.00110459
0.000820052
0.000648627
0.000565754
0.000613477
0.00119449
0.00164517
0.00076147
0.000583828
0.000542773
0.000539222
0.000549942
0.000566691
0.000585955
0.000606101
0.000626338
0.000646298
0.00066586
0.000685055
0.000704027
0.000723018
0.00074236
0.000762484
0.000783936
0.000807391
0.000833675
0.000863792
0.000898953
0.000940611
0.000990517
0.00105078
0.00112395
0.00121314
0.00132211
0.00145543
0.00161857
0.00181795
0.00206088
0.00235529
0.00270921
0.00312989
0.00362272
0.00418995
0.00482959
0.00553467
0.00629317
0.0070886
0.00790129
0.00871012
0.00949449
0.0102364
0.0109223
0.0115434
0.0120961
0.0125824
0.0130093
0.0133965
0.013761
0.014118
0.0144796
0.0148549
0.0152489
0.0156621
0.0160892
0.0165205
0.0169418
0.0173482
0.0177153
0.0178951
0.0179136
0.0174323
0.016513
0.0151168
0.0133383
0.0112615
0.00901878
0.0068151
0.00485892
0.00330053
0.00218483
0.00145552
0.00100852
0.000748234
0.000618787
0.000646323
0.00124184
0.00171682
0.000794013
0.00060569
0.000560627
0.000555406
0.000565281
0.000581685
0.000600911
0.000621243
0.000641857
0.000662382
0.000682703
0.000702877
0.000723078
0.000743592
0.000764808
0.000787233
0.000811506
0.000838422
0.000868963
0.000904324
0.000945963
0.000995655
0.00105556
0.00112833
0.00121719
0.00132615
0.0014601
0.00162495
0.0018278
0.00207679
0.00238093
0.00274941
0.00319063
0.00371071
0.00431191
0.00499109
0.00573874
0.00653884
0.00736976
0.00820594
0.00902029
0.00978678
0.0104831
0.0110929
0.0116105
0.0120351
0.0123755
0.0126513
0.0128827
0.0130847
0.0132845
0.0135054
0.0137664
0.0140838
0.0144678
0.0149256
0.0154565
0.0160518
0.0166922
0.017346
0.0179668
0.0185306
0.0190214
0.0192918
0.0193013
0.0185601
0.0170895
0.0150927
0.0126205
0.00991186
0.00726074
0.00496102
0.00320623
0.00202313
0.00130194
0.000893363
0.000688479
0.000682401
0.00128611
0.00178423
0.000825157
0.00062646
0.000577437
0.000570563
0.000579624
0.000595721
0.000614959
0.000635538
0.000656602
0.000677772
0.00069895
0.000720214
0.00074178
0.000763983
0.000787279
0.000812261
0.000839679
0.000870469
0.000905787
0.00094706
0.000996039
0.00105488
0.00112625
0.00121343
0.00132051
0.00145256
0.00161578
0.00181771
0.00206714
0.00237397
0.00274849
0.00320024
0.00373632
0.00435927
0.00506512
0.00584199
0.00666989
0.00752168
0.0083654
0.0091673
0.00989532
0.0105222
0.0110284
0.0114004
0.0116643
0.0118494
0.0119323
0.0119502
0.0119355
0.011923
0.0119391
0.0120012
0.01213
0.0123498
0.0126682
0.0130998
0.0136532
0.0143333
0.0151374
0.016049
0.017037
0.0180492
0.0190066
0.019796
0.0204092
0.0207131
0.0203741
0.0190242
0.0167195
0.0138006
0.0105692
0.00744437
0.00483023
0.00295011
0.00177466
0.00111594
0.000786737
0.000725
0.00133125
0.00184748
0.000854958
0.000646186
0.000593244
0.000584727
0.000592993
0.000608814
0.000628105
0.000648984
0.00067056
0.000692454
0.000714578
0.000737042
0.000760105
0.000784159
0.000809738
0.000837534
0.00086842
0.000903493
0.000944117
0.000991982
0.00104918
0.00111833
0.00120268
0.00130629
0.00143424
0.00159284
0.00178982
0.00203439
0.00233709
0.00270916
0.00316134
0.0037019
0.0043342
0.00505413
0.00584819
0.00669293
0.00755604
0.00839908
0.00918134
0.00986414
0.0104149
0.010812
0.0110604
0.0111665
0.0111772
0.0110653
0.0108554
0.0106284
0.010421
0.0102502
0.0101495
0.0101119
0.0101323
0.0102733
0.0105091
0.0108597
0.0113361
0.0119567
0.012739
0.0136977
0.0148375
0.0161433
0.0175636
0.0190137
0.0203545
0.0213699
0.0218793
0.0219628
0.0207652
0.0181591
0.0147214
0.0108964
0.00729427
0.00444324
0.00254992
0.00147181
0.000934267
0.000780948
0.0013846
0.00190661
0.000883456
0.00066491
0.000608086
0.000597929
0.000605411
0.000620976
0.000640353
0.000661575
0.00068372
0.000706405
0.00072956
0.000753326
0.00077801
0.000804073
0.000832131
0.000862988
0.000897658
0.000937419
0.000983869
0.001039
0.00110532
0.00118594
0.00128482
0.0014069
0.0015584
0.00174702
0.0019821
0.00227455
0.00263631
0.00307924
0.00361304
0.00424248
0.00496429
0.00576456
0.00661757
0.00748678
0.00832782
0.00909319
0.00973785
0.0102253
0.0105236
0.0106491
0.0106569
0.0104702
0.010154
0.00979636
0.00942628
0.00908583
0.00880392
0.00859366
0.00847705
0.00843336
0.00843862
0.0085574
0.00875019
0.00903034
0.00940323
0.00988408
0.0104952
0.0112705
0.0122525
0.0134821
0.0149877
0.0167488
0.0186608
0.0205578
0.0221385
0.0230393
0.0233932
0.0223416
0.0193633
0.0152783
0.010787
0.00675804
0.00381702
0.00205639
0.00116802
0.000862424
0.00145875
0.00196166
0.000910684
0.000682668
0.000621995
0.000610195
0.000616898
0.00063222
0.000651705
0.000673305
0.000696066
0.000719601
0.000743861
0.000769022
0.000795445
0.000823661
0.000854383
0.000888534
0.000927287
0.000972123
0.0010249
0.00108796
0.00116425
0.00125749
0.00137241
0.00151495
0.00169258
0.00191448
0.0021916
0.00253629
0.0029613
0.00347785
0.00409269
0.00480445
0.00560036
0.0064542
0.00732674
0.00816891
0.00892699
0.00954878
0.00998962
0.010202
0.0102662
0.0101398
0.00980608
0.00937313
0.00889341
0.00843079
0.00802101
0.00768807
0.00744387
0.00729826
0.00723649
0.00722553
0.00728948
0.00743022
0.00762707
0.00788554
0.00820582
0.0085946
0.00906334
0.00963123
0.0103294
0.0112147
0.0123735
0.0139085
0.0158636
0.0181663
0.0206414
0.0229216
0.0242661
0.0247959
0.0237658
0.0202345
0.0153249
0.0101346
0.00583117
0.00302264
0.00155345
0.000990958
0.00157407
0.00201267
0.000936664
0.000699492
0.000635002
0.000621551
0.000627472
0.000642555
0.000662162
0.000684165
0.000707578
0.000732014
0.000757443
0.000784081
0.000812346
0.000842847
0.000876399
0.000914058
0.000957168
0.00100743
0.001067
0.0011386
0.00122567
0.00133261
0.00146497
0.00162981
0.00183589
0.00209388
0.00241616
0.00281606
0.00330618
0.0038955
0.00458555
0.0053663
0.00621314
0.00708639
0.00793396
0.00869722
0.00931887
0.00972915
0.00990274
0.00991884
0.00968232
0.00926626
0.00874042
0.00818466
0.00765976
0.00721146
0.00686072
0.00661129
0.00646906
0.00641033
0.00640095
0.00645856
0.00658181
0.00675469
0.00697398
0.00723928
0.0075505
0.00791011
0.00832301
0.00879825
0.00935071
0.00999805
0.0107826
0.0117863
0.0131749
0.0151538
0.0177527
0.0207506
0.023729
0.0255452
0.026215
0.0249843
0.0205997
0.0146747
0.00887231
0.00459466
0.00219858
0.00120398
0.00176225
0.00205962
0.000961408
0.000715406
0.000647132
0.00063202
0.000637151
0.000651991
0.000671725
0.000694146
0.000718237
0.000743612
0.000770262
0.000798445
0.000828639
0.000861536
0.000898061
0.000939413
0.000987121
0.00104313
0.0011099
0.00119057
0.00128914
0.00141071
0.00156175
0.00175043
0.00198685
0.00228303
0.00265244
0.00310868
0.00366293
0.00432015
0.00507444
0.00590503
0.00677435
0.00762976
0.00840926
0.00905036
0.00946397
0.0096246
0.00961379
0.00932933
0.00885599
0.00827015
0.00765653
0.00708872
0.00661395
0.00625277
0.00600503
0.00587135
0.0058185
0.00581187
0.00586872
0.00598312
0.00614221
0.006342
0.00658141
0.00686023
0.00717862
0.00753731
0.00793765
0.00838258
0.00887848
0.00943764
0.0100682
0.0108022
0.0117151
0.0129525
0.0147818
0.0175369
0.0210284
0.0247335
0.0269371
0.0276561
0.0258453
0.0201756
0.0131428
0.00705284
0.00326323
0.00156579
0.00207064
0.00210255
0.000984923
0.000730432
0.00065841
0.000641623
0.000645949
0.000660536
0.000680394
0.000703238
0.000728023
0.000754362
0.000782271
0.000812049
0.00084424
0.000879622
0.000919237
0.000964431
0.00101693
0.00107893
0.00115324
0.00124344
0.00135408
0.00149103
0.0016617
0.00187539
0.00214342
0.00247893
0.00289599
0.00340754
0.00402195
0.00473833
0.00554162
0.0063991
0.00726046
0.00806248
0.00873853
0.009191
0.00936844
0.00935818
0.00907058
0.0085742
0.00794988
0.00729224
0.00668525
0.00618324
0.00580762
0.00555506
0.00542133
0.00536783
0.00535925
0.00540582
0.00550552
0.00564526
0.00582187
0.00603519
0.00628629
0.00657668
0.00690775
0.00728031
0.00769422
0.00814858
0.00864248
0.00917768
0.00976311
0.0104027
0.0111173
0.0119804
0.0131289
0.0148445
0.0176536
0.021649
0.0260895
0.0284556
0.029053
0.0259681
0.0186026
0.0106684
0.00495385
0.00217913
0.00255929
0.00214144
0.00100721
0.00074459
0.000668858
0.00065038
0.000653884
0.0006682
0.000688171
0.000711433
0.000736915
0.00076423
0.000793419
0.000824826
0.000859059
0.000896989
0.000939773
0.000988916
0.00104635
0.00111453
0.00119661
0.00129664
0.00141977
0.00157262
0.00176353
0.00200286
0.002303
0.00267787
0.00314147
0.00370506
0.00437282
0.00513654
0.00597082
0.00683093
0.00765521
0.00837354
0.00889681
0.00912351
0.00914326
0.00889185
0.00840483
0.00776453
0.00707276
0.00642517
0.00588729
0.00548565
0.00521651
0.00506985
0.00500727
0.00499157
0.00501721
0.00509371
0.00520563
0.00534991
0.00552729
0.00574019
0.0059919
0.00628604
0.00662596
0.00701413
0.00745134
0.00793608
0.00846424
0.00902963
0.00962675
0.0102575
0.0109263
0.011647
0.0124819
0.0135895
0.0152863
0.0181932
0.0228115
0.0277939
0.0300831
0.0302943
0.0247607
0.0155759
0.00751047
0.00317773
0.00328808
0.00217629
0.00102825
0.000757895
0.000678498
0.000658311
0.000660972
0.000674994
0.000695056
0.000718722
0.000744892
0.000773182
0.000803655
0.000836704
0.000873001
0.000913508
0.000959504
0.00101265
0.00107509
0.00114954
0.00123954
0.00134956
0.00148537
0.00165433
0.00186566
0.00213067
0.00246257
0.0028756
0.00338299
0.00399328
0.00470531
0.00550253
0.00634896
0.00718873
0.00795053
0.00855579
0.00886956
0.00894801
0.00876713
0.00832489
0.00769525
0.00698214
0.00629289
0.00570819
0.00526593
0.00496573
0.00479134
0.00471103
0.00468452
0.004685
0.00473102
0.00481051
0.00491713
0.00505216
0.00521855
0.00542052
0.00566305
0.00595151
0.00629134
0.00668742
0.00714321
0.00765954
0.00823328
0.00885621
0.00951526
0.0101955
0.0108891
0.0115861
0.0123188
0.0131554
0.0142603
0.0160055
0.0191643
0.0245529
0.0299338
0.0320048
0.0305381
0.0216064
0.0111586
0.00469351
0.0042743
0.00220711
0.00104805
0.00077036
0.000687349
0.000665438
0.00066723
0.000680929
0.000701055
0.0007251
0.000751937
0.000781184
0.00081293
0.00084761
0.000885965
0.000929045
0.000978252
0.0010354
0.00110284
0.00118358
0.00128148
0.00140148
0.00154993
0.00173488
0.00196634
0.0022564
0.0026188
0.00306759
0.0036145
0.00426451
0.00501022
0.0058264
0.00666703
0.00746739
0.00815123
0.00858906
0.00874598
0.00866433
0.00830424
0.00771842
0.00700492
0.0062788
0.00563844
0.00513999
0.0047938
0.0045782
0.00446795
0.00442029
0.00440671
0.00441622
0.00446163
0.00453051
0.00462258
0.00474101
0.0048901
0.00507511
0.005302
0.00557731
0.00590802
0.0063012
0.00676341
0.00729957
0.00791105
0.00859312
0.00933252
0.0101068
0.0108876
0.0116529
0.0123608
0.0130922
0.0139659
0.0150936
0.0170061
0.0207007
0.0270994
0.0322457
0.0335583
0.0281258
0.0160106
0.00680275
0.00550389
0.0022339
0.00106658
0.000781997
0.000695434
0.000671781
0.000672677
0.00068602
0.000706174
0.000730564
0.000758035
0.000788208
0.000821195
0.000857475
0.000897852
0.000943466
0.000995834
0.00105693
0.0011293
0.00121621
0.00132187
0.00145165
0.00161243
0.00181288
0.0020637
0.00237752
0.00276825
0.00324931
0.00383026
0.00451187
0.00528012
0.00610113
0.00691971
0.00766376
0.00824526
0.00851457
0.0085406
0.00830496
0.00780313
0.00712143
0.00637484
0.00567743
0.00510877
0.00469814
0.00443275
0.00427744
0.00420044
0.00416629
0.00415595
0.00416267
0.00419634
0.00424892
0.00432274
0.00442195
0.0045515
0.00471704
0.00492496
0.00518235
0.00549714
0.00587801
0.00633411
0.00687426
0.00750542
0.00823003
0.00904187
0.00992125
0.0108329
0.0117271
0.0125952
0.013305
0.0139805
0.0148556
0.0160936
0.0183493
0.0229951
0.0305838
0.03446
0.0338006
0.0220086
0.00954288
0.00689768
0.00225668
0.00108383
0.000792819
0.000702776
0.000677359
0.000677335
0.000690282
0.000710424
0.000735114
0.000763174
0.000794227
0.000828405
0.000866228
0.000908563
0.000956633
0.00101207
0.00107698
0.00115412
0.001247
0.00136012
0.00149928
0.00167181
0.00188692
0.00215582
0.00249146
0.00290759
0.00341652
0.00402519
0.00472979
0.00550971
0.00632329
0.00710796
0.0077862
0.00822271
0.00836815
0.00828243
0.00790881
0.00730246
0.00656725
0.00582512
0.00517965
0.00468732
0.00435341
0.00414791
0.00402978
0.00396586
0.00393358
0.00392002
0.00391804
0.00393511
0.00396997
0.00402524
0.00410546
0.00421573
0.00436173
0.00454978
0.00478707
0.00508188
0.00544381
0.0058838
0.0064138
0.00704567
0.00778905
0.00864754
0.00961264
0.0106566
0.0117292
0.0127624
0.0136879
0.0143936
0.0149984
0.0158591
0.0173048
0.0202148
0.0265745
0.0341143
0.0364799
0.0288141
0.0129957
0.00844347
0.00227546
0.00109977
0.000802843
0.00070941
0.000682174
0.000681232
0.000693738
0.000713817
0.000738755
0.000767349
0.000799219
0.00083452
0.000873808
0.000918007
0.000968416
0.00102677
0.00109532
0.00117698
0.0012755
0.00139565
0.00154358
0.00172702
0.0019556
0.00224084
0.00259581
0.00303376
0.00356552
0.00419516
0.00491418
0.0056958
0.00649152
0.00723252
0.00783549
0.00814365
0.00819095
0.0079868
0.00750606
0.00682984
0.00607438
0.00536022
0.00477495
0.00435232
0.00407837
0.0039127
0.00381439
0.00375489
0.00371672
0.00369314
0.00368301
0.00368269
0.00370035
0.00373841
0.00380129
0.00389392
0.00402173
0.00419073
0.00440784
0.00468123
0.00502076
0.00543828
0.00594784
0.00656514
0.00730611
0.00818363
0.00920189
0.0103472
0.011577
0.0128151
0.0140003
0.0149283
0.0155753
0.016072
0.0170071
0.0188412
0.0230446
0.0316814
0.0372625
0.0355059
0.0173577
0.0102901
0.00229029
0.00111439
0.000812074
0.000715346
0.000686274
0.000684388
0.000696409
0.000716371
0.000741497
0.000770557
0.000803171
0.000839508
0.00088016
0.000926099
0.000978695
0.00103978
0.00111171
0.00119758
0.00130129
0.0014279
0.00158381
0.00177707
0.00201759
0.00231707
0.00268839
0.0031441
0.00369331
0.00433709
0.00506252
0.00583732
0.0066075
0.00730137
0.00780886
0.00800808
0.00798547
0.00767855
0.00711938
0.00640231
0.00564972
0.00497505
0.0044481
0.00408318
0.0038524
0.00371116
0.0036218
0.00356068
0.00351485
0.00347947
0.00345536
0.00344506
0.00344628
0.00346891
0.00351658
0.00359376
0.00370544
0.00385721
0.0040555
0.00430804
0.0046244
0.00501659
0.00549967
0.00609185
0.00681393
0.00768699
0.00872754
0.009939
0.0112981
0.0127394
0.014148
0.0154104
0.0162861
0.0167627
0.0171724
0.0183585
0.0209831
0.0276778
0.0368251
0.039336
0.0229007
0.012525
0.00230122
0.00112765
0.000820522
0.000720605
0.000689693
0.000686832
0.00069832
0.000718106
0.000743352
0.000772801
0.000806071
0.000843343
0.000885236
0.000932765
0.000987362
0.00105093
0.00112595
0.00121561
0.001324
0.00145635
0.00161929
0.00182106
0.00207174
0.002383
0.0027674
0.00323652
0.00379769
0.00444907
0.00517381
0.00593514
0.00667494
0.00731803
0.0077363
0.00786099
0.00776163
0.00737673
0.00676417
0.00602837
0.00529258
0.0046601
0.00418398
0.00386337
0.00366168
0.00353418
0.00344729
0.00338148
0.00332695
0.00328077
0.00324382
0.00322097
0.00321284
0.0032213
0.00325583
0.00331979
0.00341763
0.00355443
0.00373606
0.00396958
0.00426392
0.00463066
0.00508493
0.00564618
0.00633839
0.00718897
0.00822519