/*--------------------------------*- C++ -*----------------------------------*\
  =========                 |
  \\      /  F ield         | OpenFOAM: The Open Source CFD Toolbox
   \\    /   O peration     | Website:  https://openfoam.org
    \\  /    A nd           | Version:  13
     \\/     M anipulation  |
\*---------------------------------------------------------------------------*/
FoamFile
{
    format      ascii;
    class       volScalarField;
    location    "1200";
    object      k;
}
// * * * * * * * * * * * * * * * * * * * * * * * * * * * * * * * * * * * * * //

dimensions      [0 2 -2 0 0 0 0];

internalField   nonuniform List<scalar> 
12225
(
0.551021
1.50036
2.12029
3.20636
3.40232
2.66632
1.8996
1.93456
1.37581
2.20302
2.82111
2.16093
1.79922
1.90699
1.5652
1.72823
1.98949
1.62013
0.205563
0.156703
0.137974
0.167302
0.217908
0.248994
0.27541
0.332224
0.391913
0.515175
0.625392
0.693142
0.76086
0.812735
0.833984
0.881154
0.916314
0.931767
0.38301
0.163591
0.0759478
0.0456577
0.0399805
0.0382086
0.0482946
0.1139
0.181408
0.253891
0.263772
0.268756
0.304147
0.320011
0.332119
0.34391
0.347598
0.350149
0.429229
0.245291
0.16037
0.109339
0.104952
0.125616
0.165975
0.208531
0.262477
0.270424
0.280524
0.299497
0.297076
0.302564
0.299609
0.291846
0.274631
0.258217
0.377575
0.305914
0.232966
0.190722
0.186529
0.207153
0.239626
0.279592
0.291837
0.305216
0.317465
0.312993
0.313647
0.318211
0.317288
0.3086
0.295437
0.280043
0.377345
0.34017
0.303483
0.271804
0.270028
0.280926
0.303415
0.30371
0.304608
0.32209
0.322058
0.323882
0.328829
0.331955
0.331505
0.324617
0.316113
0.305036
0.375513
0.364786
0.3463
0.332333
0.327504
0.328417
0.337141
0.331338
0.329623
0.33837
0.335517
0.340364
0.342211
0.341887
0.340322
0.335222
0.32958
0.321786
0.373851
0.369103
0.362514
0.354354
0.350821
0.347857
0.346565
0.344879
0.343739
0.344077
0.345802
0.347966
0.348445
0.347114
0.3454
0.341737
0.338003
0.332653
0.373529
0.370867
0.367043
0.363195
0.360445
0.3586
0.357024
0.355761
0.354701
0.353656
0.353058
0.35219
0.351473
0.349859
0.348274
0.345624
0.343096
0.339492
0.373876
0.371315
0.368671
0.366049
0.363823
0.361929
0.360338
0.358849
0.357585
0.356226
0.355112
0.353775
0.352663
0.351145
0.349777
0.347818
0.345993
0.343559
0.373873
0.371503
0.369224
0.367019
0.365012
0.363131
0.361463
0.359844
0.358406
0.356939
0.355649
0.354271
0.353064
0.351684
0.350439
0.34892
0.347505
0.34578
0.373847
0.371546
0.369369
0.367279
0.365335
0.363479
0.361771
0.36012
0.358603
0.357107
0.355743
0.354367
0.353124
0.351825
0.350636
0.349336
0.348117
0.34676
0.373834
0.371555
0.369403
0.36735
0.36542
0.363576
0.361848
0.36019
0.358638
0.357135
0.355735
0.354366
0.353098
0.351841
0.350671
0.349484
0.348361
0.347207
0.373829
0.371555
0.369405
0.367361
0.365429
0.363589
0.361851
0.36019
0.358622
0.357118
0.355699
0.354335
0.35305
0.351809
0.350638
0.3495
0.348416
0.347357
0.373827
0.371553
0.3694
0.367356
0.36542
0.36358
0.361834
0.360172
0.358595
0.357091
0.355663
0.354299
0.353004
0.351766
0.350589
0.349463
0.348387
0.347358
0.373826
0.371551
0.369395
0.36735
0.36541
0.363568
0.361818
0.360154
0.358572
0.357066
0.355632
0.354267
0.352966
0.351727
0.350544
0.349418
0.348341
0.347315
0.373825
0.37155
0.369392
0.367345
0.365403
0.363559
0.361806
0.36014
0.358555
0.357047
0.35561
0.354242
0.352939
0.351696
0.350511
0.34938
0.348302
0.347273
0.373825
0.371549
0.369391
0.367343
0.365399
0.363553
0.3618
0.360132
0.358545
0.357035
0.355597
0.354226
0.352921
0.351675
0.350488
0.349355
0.348275
0.347243
0.373825
0.371549
0.369391
0.367343
0.365399
0.363553
0.361799
0.36013
0.358543
0.357032
0.355593
0.354222
0.352915
0.351668
0.35048
0.349346
0.348264
0.347231
0.373825
0.371551
0.369392
0.367346
0.365404
0.36356
0.361806
0.360139
0.358552
0.357041
0.355602
0.35423
0.352923
0.351676
0.350488
0.349353
0.348272
0.347239
0.373825
0.371553
0.369396
0.367354
0.365413
0.363568
0.361811
0.360136
0.35854
0.35702
0.355573
0.354195
0.352883
0.351638
0.350448
0.349321
0.34824
0.347219
0.373819
0.37156
0.369406
0.367373
0.365416
0.363537
0.361713
0.359959
0.35827
0.356675
0.355158
0.353711
0.352367
0.351107
0.349919
0.348827
0.347742
0.346785
0.373774
0.37162
0.369425
0.367378
0.36523
0.363084
0.360869
0.35868
0.3565
0.354604
0.352622
0.350774
0.349198
0.34777
0.346607
0.345493
0.34423
0.343616
0.373682
0.371823
0.369285
0.3669
0.363791
0.360495
0.356811
0.352967
0.349033
0.346296
0.341659
0.338852
0.334136
0.332093
0.331219
0.327403
0.325899
0.326386
0.373815
0.371775
0.367997
0.363753
0.357329
0.349984
0.341223
0.332068
0.323268
0.314432
0.308941
0.301894
0.296985
0.292668
0.289773
0.286994
0.285939
0.282423
0.374254
0.371712
0.363307
0.350663
0.330818
0.305891
0.283817
0.259084
0.23642
0.221178
0.20581
0.196193
0.193566
0.191501
0.195836
0.205562
0.215356
0.222121
0.376487
0.373343
0.364478
0.330833
0.258097
0.197119
0.141397
0.10624
0.0790317
0.066636
0.0594365
0.0530023
0.0511551
0.0609945
0.0806758
0.106435
0.108576
0.128429
0.384299
0.381599
0.366661
0.309998
0.229337
0.155518
0.102054
0.0864429
0.0693536
0.0447375
0.0405662
0.0410048
0.0405972
0.0396713
0.0483311
0.0813666
0.119447
0.153044
0.419222
0.405119
0.419111
0.430701
0.359957
0.364814
0.362108
0.352895
0.290759
0.30392
0.309149
0.282784
0.274952
0.28487
0.327735
0.38477
0.443734
0.502033
0.948024
1.2847
1.49319
1.58907
1.60944
1.59899
1.57157
1.52475
1.47057
1.41943
1.37182
1.32756
1.28799
1.25412
1.22575
1.2043
1.18791
1.176
1.59079e-08
3.94053e-07
2.01941e-06
7.98331e-06
2.68281e-05
8.16792e-05
0.000217
0.000437735
0.000717552
0.00101607
0.00128753
0.00150123
0.00164746
0.00171008
0.00169257
0.00163153
0.00150654
0.00130565
0.00110869
0.000944457
0.000789734
0.000640192
0.000495191
0.000360734
0.000239177
0.000143207
7.76839e-05
3.96659e-05
2.01921e-05
1.08304e-05
6.36567e-06
4.47333e-06
4.47443e-06
8.13331e-06
1.98817e-05
4.91556e-05
0.000211292
0.000474065
0.000846155
0.00108749
0.00105813
0.000917556
0.000733849
0.000658704
0.000697676
0.000882553
0.001128
0.00194712
0.00362339
0.00901414
0.0273194
0.0610148
0.0962973
0.123614
0.139916
0.146815
0.13166
0.111134
0.118456
0.127705
0.135358
0.15403
0.152261
0.158851
0.173026
0.179576
0.188897
0.196829
0.204996
0.212908
0.220694
0.228384
0.235963
0.243447
0.250861
0.258179
0.265441
0.272616
0.279732
0.286769
0.293741
0.300637
0.30746
0.314206
0.320871
0.327455
0.333951
0.340357
0.346665
0.352872
0.358968
0.364948
0.370802
0.376518
0.382091
0.387505
0.392756
0.397829
0.402732
0.407465
0.412068
0.416602
0.420976
0.425201
0.429275
0.433193
0.43695
0.440546
0.44397
0.447225
0.450301
0.453202
0.455918
0.458452
0.460797
0.462955
0.464924
0.466703
0.46829
0.469683
0.470884
0.471898
0.472733
0.473384
0.473872
0.474189
0.474371
0.474401
0.474368
0.474035
0.473118
0.472831
0.471467
0.470697
0.469387
0.468236
0.466913
0.465415
0.463751
0.461942
0.460064
0.458041
0.455948
0.453765
0.451516
0.449193
0.446809
0.444365
0.441871
0.439328
0.436743
0.434114
0.431451
0.428749
0.426018
0.423257
0.420484
0.417702
0.414939
0.41222
0.40954
0.406867
0.404222
0.401589
0.39898
0.396381
0.393803
0.391235
0.388689
0.386154
0.383641
0.381133
0.378625
0.37609
0.37349
0.370714
0.367685
0.36399
0.358999
0.344134
7.93502e-08
2.25572e-06
1.51572e-05
6.45709e-05
0.000240594
0.000682372
0.00160836
0.00294916
0.00452761
0.00616469
0.00767636
0.0089314
0.00987005
0.0104783
0.010777
0.0107493
0.0106002
0.0102828
0.0097431
0.00897939
0.00799805
0.00685178
0.00557551
0.00428661
0.00299925
0.00200425
0.00127944
0.0007947
0.0004827
0.000292626
0.000184329
0.000126864
0.000106232
0.000132586
0.000266114
0.000511103
0.00219397
0.00477889
0.00808499
0.0104846
0.0112819
0.0110712
0.0106347
0.0111546
0.0136566
0.0184014
0.0251058
0.0376247
0.0587602
0.0837937
0.108876
0.13203
0.149692
0.163494
0.176416
0.191145
0.202301
0.219104
0.23576
0.254512
0.273768
0.293047
0.311155
0.3309
0.349933
0.368669
0.387145
0.405396
0.423395
0.441245
0.45891
0.476462
0.493892
0.511236
0.528499
0.545695
0.56283
0.579908
0.59693
0.613897
0.630805
0.647651
0.664429
0.681134
0.697759
0.714297
0.730741
0.747081
0.763308
0.779413
0.79538
0.811199
0.826853
0.842325
0.857595
0.872641
0.887438
0.901954
0.916158
0.930008
0.943465
0.9565
0.969303
0.981817
0.994067
1.00602
1.01767
1.029
1.04001
1.05066
1.06097
1.0709
1.08045
1.08961
1.09837
1.10671
1.11463
1.12212
1.12917
1.13577
1.14192
1.14762
1.15287
1.15767
1.16201
1.1659
1.16934
1.17234
1.17489
1.17699
1.17866
1.18001
1.18082
1.18111
1.18115
1.18079
1.1803
1.17971
1.17885
1.1776
1.17604
1.17416
1.17202
1.16959
1.16692
1.16401
1.16087
1.15752
1.15396
1.1502
1.14627
1.14215
1.13786
1.1334
1.12879
1.12402
1.11911
1.11409
1.10899
1.10386
1.09865
1.09337
1.08804
1.08263
1.07717
1.07163
1.06601
1.06032
1.05455
1.0487
1.04278
1.03676
1.03064
1.02436
1.01787
1.01101
1.00361
0.995183
0.983742
0.958458
1.92705e-07
5.71564e-06
4.33166e-05
0.00019604
0.00076712
0.00185682
0.00384136
0.0061673
0.00852029
0.0106685
0.0124749
0.0138774
0.0148706
0.0154815
0.0157616
0.0157401
0.0155958
0.0152727
0.0147791
0.014152
0.0133916
0.0124869
0.0114208
0.0101916
0.00881777
0.00723602
0.00557156
0.00406186
0.00274091
0.00181131
0.00122865
0.000887557
0.000680317
0.000626554
0.00138593
0.00303153
0.00920612
0.0173855
0.0243177
0.0290878
0.0316633
0.0332078
0.0374181
0.0479854
0.0648178
0.0821909
0.100698
0.12158
0.142002
0.161903
0.182516
0.202782
0.223896
0.246816
0.272055
0.298645
0.32536
0.353401
0.381383
0.409582
0.437543
0.464845
0.491655
0.518179
0.543836
0.569078
0.593801
0.618131
0.642123
0.665836
0.689314
0.712603
0.735731
0.758727
0.781607
0.804385
0.827069
0.849663
0.872168
0.894582
0.916901
0.93912
0.961232
0.983229
1.0051
1.02684
1.04844
1.06988
1.09115
1.11225
1.13316
1.15388
1.17437
1.19464
1.21467
1.23444
1.25395
1.27318
1.29212
1.31077
1.32911
1.34716
1.36488
1.38224
1.39924
1.41584
1.43203
1.4478
1.46312
1.47797
1.49234
1.50621
1.51956
1.53238
1.54465
1.55636
1.5675
1.57805
1.58799
1.59733
1.60606
1.61417
1.62166
1.62854
1.63479
1.64043
1.64545
1.64986
1.65367
1.65687
1.65948
1.66152
1.66296
1.66376
1.66405
1.66403
1.66349
1.66248
1.66101
1.65908
1.65669
1.6539
1.65071
1.64715
1.64323
1.63897
1.63438
1.62948
1.62429
1.61882
1.61307
1.60707
1.60081
1.59431
1.58758
1.58061
1.57344
1.56607
1.55853
1.55085
1.54302
1.53506
1.52698
1.51878
1.51046
1.50201
1.49343
1.48473
1.47589
1.46694
1.45786
1.44866
1.43933
1.42985
1.42016
1.41016
1.39967
1.38836
1.37417
1.3502
7.41811e-07
2.23312e-05
0.000174791
0.000699577
0.00213578
0.00499545
0.00851355
0.0119612
0.0149737
0.017375
0.019125
0.0202625
0.0208797
0.021044
0.0209441
0.0206472
0.0201347
0.0195077
0.0187966
0.0180184
0.0171753
0.0162618
0.0152658
0.0141628
0.0129346
0.0115552
0.010027
0.00840778
0.00685653
0.0053142
0.00412056
0.00306483
0.00267264
0.00331839
0.00707467
0.0174184
0.0316878
0.0437714
0.0530845
0.0608419
0.069518
0.0811441
0.0957463
0.111451
0.126777
0.142838
0.160778
0.181365
0.202665
0.226551
0.251978
0.27935
0.308619
0.339626
0.371819
0.404556
0.437408
0.470424
0.503216
0.53565
0.56765
0.599032
0.629863
0.660195
0.68993
0.719216
0.748084
0.776609
0.804845
0.832842
0.860645
0.888288
0.915801
0.943204
0.97051
0.99773
1.02487
1.05192
1.07889
1.10576
1.13253
1.15919
1.18574
1.21215
1.23842
1.26453
1.29047
1.31623
1.34179
1.36715
1.39229
1.4172
1.44187
1.46628
1.49042
1.51429
1.53786
1.56114
1.58409
1.60672
1.629
1.65091
1.67242
1.69351
1.71414
1.73431
1.75398
1.77313
1.79174
1.80978
1.82725
1.8441
1.86033
1.87592
1.89084
1.90508
1.91862
1.93145
1.94355
1.95491
1.96553
1.9754
1.98452
1.99289
2.0005
2.00737
2.01348
2.01885
2.02348
2.02738
2.03056
2.03304
2.0348
2.03579
2.03614
2.03605
2.03526
2.03386
2.03189
2.02935
2.02628
2.02269
2.0186
2.01405
2.00904
2.00359
1.99774
1.99148
1.98484
1.97784
1.97049
1.96281
1.95479
1.94647
1.93784
1.92891
1.91971
1.91024
1.90054
1.89062
1.88049
1.87018
1.85969
1.84904
1.83822
1.82723
1.81607
1.80473
1.79324
1.78158
1.76979
1.75785
1.74579
1.73358
1.72122
1.70864
1.69571
1.68224
1.66645
1.64374
2.48824e-06
7.45756e-05
0.000555373
0.00215724
0.00591654
0.0111541
0.0160784
0.0200543
0.0229108
0.0247334
0.0257109
0.0260485
0.0259521
0.0255891
0.0249487
0.0241797
0.0233355
0.0224546
0.0215597
0.0206609
0.0197543
0.0188316
0.0178774
0.0168681
0.0157799
0.0145807
0.0132534
0.0118241
0.0103762
0.00897397
0.00738264
0.00686615
0.00850008
0.0158568
0.0326406
0.0517487
0.0687472
0.0825183
0.093886
0.104509
0.115643
0.127581
0.140393
0.15411
0.170297
0.18964
0.211618
0.236412
0.263378
0.292632
0.323482
0.355909
0.389522
0.424006
0.458972
0.494165
0.529417
0.564666
0.599761
0.634583
0.669103
0.703217
0.736947
0.770303
0.803281
0.835936
0.868304
0.90043
0.932356
0.964121
0.995758
1.0273
1.05875
1.09015
1.12148
1.15276
1.18399
1.21516
1.24625
1.27726
1.30818
1.33899
1.36967
1.40022
1.43061
1.46083
1.49087
1.5207
1.55031
1.57969
1.60883
1.6377
1.66631
1.69462
1.72264
1.75034
1.7777
1.80472
1.83138
1.85764
1.88349
1.9089
1.93385
1.9583
1.98223
2.00562
2.02843
2.05065
2.07224
2.09318
2.11344
2.133
2.15184
2.16994
2.18726
2.2038
2.21953
2.23443
2.24848
2.26168
2.27402
2.28549
2.29609
2.30581
2.31465
2.32262
2.32971
2.33593
2.34129
2.3458
2.34947
2.35232
2.35433
2.35544
2.3558
2.35554
2.35447
2.35269
2.35023
2.3471
2.34333
2.33895
2.33398
2.32845
2.32237
2.31577
2.30868
2.3011
2.29305
2.28457
2.27566
2.26634
2.25663
2.24654
2.23608
2.22526
2.21409
2.20261
2.19083
2.17877
2.16646
2.15391
2.14114
2.12816
2.11497
2.10158
2.08798
2.07418
2.06018
2.04601
2.03167
2.01719
2.00258
1.98786
1.97304
1.95811
1.94298
1.92753
1.91029
1.88779
7.89159e-06
0.000231308
0.00165555
0.00587569
0.0134451
0.0202081
0.025087
0.0281417
0.0297766
0.0304314
0.0304083
0.030054
0.0293149
0.0283857
0.0273553
0.0262849
0.0252174
0.0241804
0.0231872
0.0222393
0.0213277
0.0204385
0.0195492
0.0186297
0.0176601
0.0165912
0.0153804
0.0139969
0.0126716
0.0119473
0.0126539
0.017282
0.0294721
0.0506533
0.0735748
0.0935384
0.109034
0.120453
0.129585
0.138367
0.148004
0.159351
0.173826
0.19146
0.212382
0.236625
0.263562
0.292785
0.323706
0.356049
0.389479
0.423843
0.45891
0.494516
0.530498
0.566754
0.603203
0.639784
0.67641
0.712994
0.749487
0.785827
0.822
0.857997
0.893815
0.929472
0.96499
1.0004
1.03572
1.07098
1.1062
1.14141
1.17661
1.21182
1.24702
1.28223
1.31742
1.35259
1.38771
1.42278
1.45776
1.49265
1.52741
1.56204
1.5965
1.63079
1.66487
1.69873
1.73235
1.76572
1.79881
1.8316
1.86409
1.89626
1.92808
1.95955
1.99063
2.02131
2.05157
2.08137
2.1107
2.13952
2.16782
2.19555
2.22269
2.24922
2.27509
2.3003
2.32479
2.34855
2.37155
2.39376
2.41515
2.43569
2.45537
2.47415
2.49202
2.50894
2.52492
2.53992
2.55394
2.56697
2.579
2.59004
2.60008
2.60911
2.61714
2.62418
2.63023
2.63531
2.63942
2.64259
2.64481
2.64598
2.6463
2.64584
2.64448
2.64228
2.63929
2.63553
2.63103
2.62582
2.61993
2.61338
2.6062
2.59841
2.59003
2.58109
2.57161
2.56161
2.55112
2.54014
2.5287
2.51682
2.50452
2.49179
2.47866
2.46516
2.45131
2.43713
2.42265
2.40789
2.39287
2.37759
2.36208
2.34633
2.33035
2.31413
2.2977
2.28106
2.26426
2.24731
2.23025
2.21311
2.19593
2.17872
2.16144
2.14402
2.12521
2.10211
2.50377e-05
0.000690066
0.00449341
0.0139178
0.0231578
0.0291678
0.0325341
0.0341702
0.0346934
0.0345171
0.0338665
0.0328165
0.0315711
0.0302324
0.0288783
0.0275646
0.0263266
0.0251825
0.0241347
0.0231749
0.0222861
0.0214429
0.0206077
0.0197194
0.0187299
0.0176491
0.0165895
0.016036
0.0166498
0.0205053
0.0300542
0.048092
0.0709923
0.0935712
0.113334
0.128186
0.138353
0.145933
0.153152
0.16188
0.173839
0.189245
0.20823
0.230712
0.256282
0.284409
0.314393
0.34578
0.378229
0.411564
0.445652
0.480416
0.51578
0.551686
0.588077
0.62491
0.662134
0.699692
0.737513
0.775533
0.813699
0.851956
0.890274
0.928627
0.967004
1.0054
1.04383
1.0823
1.12082
1.15941
1.19809
1.23685
1.27571
1.31465
1.35368
1.39278
1.43193
1.4711
1.51028
1.54942
1.58851
1.62751
1.6664
1.70516
1.74375
1.78215
1.82034
1.85829
1.89597
1.93336
1.97045
2.00722
2.04363
2.07968
2.11535
2.1506
2.18542
2.21978
2.25365
2.28702
2.31984
2.3521
2.38376
2.41478
2.44515
2.47482
2.50378
2.53198
2.55939
2.58598
2.61172
2.63658
2.66052
2.68352
2.70556
2.72659
2.7466
2.76556
2.78345
2.80025
2.81594
2.83053
2.84399
2.85633
2.86754
2.87762
2.88657
2.8944
2.90111
2.90672
2.91124
2.91468
2.91705
2.91824
2.91849
2.91778
2.91607
2.91342
2.90984
2.9054
2.90011
2.89401
2.88712
2.87949
2.87113
2.86208
2.85236
2.842
2.83102
2.81944
2.8073
2.7946
2.78139
2.76767
2.75346
2.73878
2.72364
2.70808
2.69213
2.6758
2.65914
2.64216
2.62487
2.60731
2.58947
2.57137
2.553
2.53438
2.51553
2.49646
2.47722
2.45784
2.43837
2.41884
2.39932
2.37984
2.3604
2.34094
2.32036
2.29611
7.47818e-05
0.00189799
0.0106584
0.023725
0.0318786
0.0362115
0.0382747
0.0389362
0.0387145
0.0378764
0.0365582
0.0349879
0.0333004
0.0316034
0.0299759
0.0284704
0.0271141
0.0259136
0.0248598
0.0239372
0.023132
0.0224371
0.0218254
0.0213378
0.0211314
0.0214521
0.0228611
0.0262473
0.0334004
0.0476503
0.0672309
0.0882972
0.108903
0.126574
0.13988
0.148995
0.155754
0.162829
0.172248
0.184976
0.201392
0.221413
0.244723
0.270837
0.299125
0.328992
0.359968
0.391809
0.424388
0.457655
0.491589
0.526185
0.561441
0.597356
0.63392
0.671106
0.708877
0.747189
0.785989
0.825221
0.864832
0.904773
0.945003
0.985491
1.02621
1.06716
1.10832
1.1497
1.1913
1.23312
1.27517
1.31743
1.35992
1.40261
1.44548
1.48851
1.53167
1.57491
1.61821
1.66152
1.70481
1.74803
1.79115
1.83413
1.87695
1.91958
1.96197
2.0041
2.04594
2.08747
2.12865
2.16946
2.20989
2.2499
2.28947
2.32858
2.3672
2.4053
2.44286
2.47984
2.51621
2.55195
2.58701
2.62138
2.655
2.68786
2.71992
2.75114
2.78149
2.81093
2.83942
2.86694
2.89345
2.91891
2.9433
2.96659
2.98874
3.00972
3.02952
3.04811
3.06547
3.08159
3.09646
3.11008
3.12244
3.13353
3.14336
3.15194
3.15927
3.16536
3.17022
3.17388
3.17633
3.17749
3.1776
3.1766
3.17447
3.17128
3.16706
3.16186
3.1557
3.14863
3.14067
3.13187
3.12226
3.11187
3.10072
3.08886
3.0763
3.06307
3.04921
3.03473
3.01966
3.00404
2.98787
2.97117
2.95398
2.93631
2.91821
2.89971
2.88083
2.8616
2.84203
2.82216
2.80198
2.78152
2.76077
2.73975
2.71849
2.697
2.67535
2.65355
2.63168
2.60979
2.58793
2.56617
2.54453
2.52296
2.50046
2.47463
0.000194318
0.00450333
0.01975
0.0325195
0.0391629
0.0423378
0.0435085
0.0434083
0.0425046
0.040969
0.0390839
0.0370231
0.034931
0.0329227
0.0310803
0.0294543
0.0280685
0.0269239
0.0260041
0.0252731
0.0247118
0.0243566
0.0242359
0.0246511
0.0261505
0.0296927
0.0367861
0.0484109
0.0642105
0.0820605
0.10067
0.118219
0.133285
0.145011
0.153816
0.161206
0.169274
0.179693
0.193399
0.210628
0.231205
0.254722
0.280659
0.308458
0.33759
0.367667
0.398472
0.429927
0.462025
0.49479
0.528256
0.562464
0.597451
0.633238
0.669827
0.707213
0.745375
0.784283
0.823894
0.864164
0.905044
0.946489
0.988457
1.03091
1.07383
1.11719
1.16097
1.20516
1.24977
1.29477
1.34016
1.38594
1.43207
1.47855
1.52532
1.57236
1.61962
1.66705
1.71459
1.76219
1.80979
1.85736
1.90483
1.95217
1.99935
2.04631
2.09303
2.13946
2.18557
2.23133
2.2767
2.32166
2.36619
2.41024
2.45381
2.49685
2.53933
2.58123
2.62253
2.66317
2.70314
2.7424
2.7809
2.81862
2.85553
2.89158
2.92674
2.96098
2.99425
3.02653
3.05776
3.08792
3.11696
3.14486
3.17158
3.19708
3.22133
3.2443
3.26597
3.2863
3.30527
3.32288
3.33911
3.35394
3.36738
3.37943
3.39007
3.39933
3.40719
3.41368
3.41882
3.42261
3.42505
3.42611
3.42599
3.4246
3.42197
3.41816
3.4132
3.40715
3.40003
3.3919
3.38278
3.37273
3.36177
3.34995
3.33729
3.32384
3.30963
3.29468
3.27902
3.26268
3.2457
3.2281
3.20991
3.19114
3.17183
3.15202
3.13173
3.11102
3.08989
3.06839
3.04652
3.02432
3.0018
2.97897
2.95583
2.93242
2.90875
2.88487
2.86081
2.83663
2.81238
2.78813
2.76394
2.7399
2.71601
2.69228
2.66775
2.6401
0.000433358
0.0091408
0.0290034
0.0404261
0.0458311
0.048131
0.0485968
0.0478751
0.0463124
0.0442139
0.0418163
0.0393221
0.0368989
0.0346762
0.0327439
0.0311549
0.0299429
0.0290989
0.0286465
0.0285806
0.0289964
0.0300738
0.0321339
0.0358131
0.0421728
0.0513848
0.0633381
0.077472
0.0929644
0.108578
0.123208
0.135965
0.146618
0.155581
0.163985
0.173334
0.184943
0.199548
0.217309
0.237999
0.261216
0.286488
0.313344
0.341361
0.370218
0.399728
0.429827
0.460531
0.491891
0.523972
0.556841
0.590563
0.625185
0.660742
0.697257
0.734739
0.773182
0.81257
0.852873
0.894056
0.936082
0.97891
1.0225
1.06683
1.11185
1.15754
1.20389
1.25087
1.29847
1.34666
1.39544
1.44477
1.49463
1.54497
1.59574
1.6469
1.69838
1.75011
1.80203
1.85405
1.90611
1.95815
2.0101
2.06193
2.11358
2.165
2.21615
2.26699
2.31747
2.36755
2.4172
2.46639
2.51508
2.56326
2.61087
2.65789
2.70429
2.75003
2.79508
2.83941
2.88298
2.92575
2.96769
3.00875
3.04891
3.08811
3.12634
3.16354
3.19969
3.23473
3.26864
3.30136
3.33286
3.3631
3.39206
3.41968
3.44595
3.47081
3.49425
3.51622
3.53671
3.5557
3.57318
3.58913
3.60355
3.61644
3.62779
3.63761
3.6459
3.65268
3.65796
3.66177
3.6641
3.66496
3.66447
3.66259
3.65935
3.65481
3.64901
3.64199
3.63381
3.62451
3.61413
3.60271
3.59031
3.57696
3.56271
3.54758
3.53162
3.51486
3.49734
3.47907
3.46011
3.44047
3.42018
3.39928
3.3778
3.35579
3.33328
3.31032
3.28692
3.26313
3.23895
3.21442
3.18954
3.16434
3.13883
3.11303
3.08698
3.06072
3.03429
3.00775
2.98115
2.95456
2.92806
2.90172
2.87558
2.84966
2.82306
2.79377
0.00082891
0.0158522
0.0372178
0.04768
0.052359
0.0540435
0.0539516
0.0526632
0.0505733
0.0479968
0.0452027
0.0424232
0.0398509
0.0376322
0.0358725
0.0346175
0.0339945
0.0338832
0.0343851
0.0356874
0.0380735
0.041894
0.0475042
0.0550947
0.0643983
0.0753753
0.0876231
0.100551
0.113445
0.125636
0.136736
0.146716
0.155991
0.16542
0.176043
0.18875
0.204041
0.222005
0.242432
0.264968
0.289226
0.314835
0.341471
0.36888
0.396907
0.425491
0.45465
0.484446
0.514961
0.546285
0.578501
0.611678
0.645881
0.681158
0.717546
0.755069
0.793735
0.833543
0.874478
0.916518
0.959638
1.00381
1.04899
1.09516
1.14228
1.19032
1.23927
1.28908
1.33974
1.39121
1.44346
1.49646
1.55015
1.60449
1.65939
1.7148
1.77062
1.82679
1.8832
1.93977
1.99641
2.05304
2.10958
2.166
2.22222
2.27819
2.33387
2.38919
2.4441
2.49856
2.55253
2.60598
2.65888
2.71119
2.76286
2.81387
2.86416
2.91372
2.96249
3.01046
3.05757
3.1038
3.14908
3.1934
3.2367
3.27895
3.32012
3.36017
3.39905
3.43672
3.47315
3.50828
3.54208
3.57451
3.60554
3.63512
3.66323
3.68982
3.71485
3.7383
3.76014
3.78035
3.79891
3.81582
3.83105
3.84461
3.8565
3.86673
3.87528
3.8822
3.88747
3.89114
3.89321
3.89372
3.89273
3.89022
3.88623
3.88082
3.87404
3.86594
3.85658
3.84599
3.83423
3.82135
3.8074
3.79242
3.77646
3.75957
3.74178
3.72313
3.70366
3.6834
3.66239
3.64064
3.61821
3.59512
3.57143
3.54719
3.52243
3.4972
3.47152
3.44543
3.41895
3.39209
3.36488
3.33733
3.30946
3.2813
3.25291
3.22431
3.19555
3.16669
3.13778
3.10889
3.0801
3.05149
3.0231
2.99498
2.9663
2.93525
0.00134473
0.022952
0.0448332
0.0547569
0.0589956
0.0602704
0.0597803
0.0580652
0.0555796
0.0526969
0.0497332
0.0469524
0.0445698
0.0427572
0.0417138
0.0413994
0.0418161
0.0430724
0.0453016
0.0486384
0.0532266
0.0591703
0.0664773
0.0750434
0.0846446
0.0949916
0.105709
0.116437
0.126882
0.136905
0.146588
0.156304
0.166666
0.178344
0.191876
0.207556
0.225409
0.24526
0.266835
0.289836
0.313984
0.339044
0.364831
0.391222
0.418166
0.445675
0.473806
0.502647
0.5323
0.562859
0.594417
0.627057
0.660852
0.695865
0.732144
0.769728
0.808641
0.848895
0.890494
0.933432
0.977696
1.02327
1.07012
1.11822
1.16754
1.21805
1.26972
1.32251
1.37637
1.43128
1.48718
1.54403
1.60174
1.66025
1.71945
1.77926
1.83958
1.90031
1.96134
2.02256
2.08386
2.14515
2.20636
2.26742
2.32826
2.38882
2.44903
2.50883
2.56816
2.62698
2.68524
2.74291
2.79995
2.85633
2.91198
2.96687
3.02096
3.07421
3.12658
3.17804
3.22854
3.27805
3.3265
3.37388
3.42012
3.46521
3.50909
3.55175
3.59312
3.63318
3.67187
3.70916
3.74499
3.77935
3.81218
3.84346
3.87315
3.90119
3.92757
3.95224
3.97518
3.99636
4.01576
4.03338
4.0492
4.06321
4.07542
4.08582
4.09443
4.10126
4.10632
4.10965
4.11127
4.11123
4.10958
4.10626
4.10136
4.09493
4.08703
4.0777
4.06701
4.05501
4.04175
4.02728
4.01166
3.99495
3.97719
3.95843
3.93873
3.91812
3.89664
3.87432
3.85121
3.82731
3.80267
3.77737
3.75144
3.72495
3.69793
3.67044
3.6425
3.61413
3.58536
3.55621
3.52669
3.49683
3.46665
3.4362
3.40552
3.37465
3.34363
3.31252
3.28137
3.25025
3.21923
3.18839
3.1578
3.12752
3.09677
3.06397
0.00198434
0.0296459
0.0522672
0.0620781
0.0660364
0.0670219
0.0662071
0.0641601
0.0614248
0.0584606
0.055637
0.0532363
0.0514476
0.050572
0.0504306
0.0511976
0.0528703
0.0555034
0.0591235
0.0637498
0.0693993
0.0760183
0.0834995
0.0916956
0.100419
0.109482
0.118736
0.128087
0.137536
0.147213
0.157413
0.168528
0.180948
0.194962
0.210709
0.22817
0.247209
0.267627
0.289211
0.311765
0.335128
0.359173
0.383821
0.409036
0.434828
0.46125
0.488385
0.516329
0.545188
0.575068
0.606067
0.638277
0.671783
0.70666
0.742971
0.780764
0.820076
0.860936
0.903366
0.947376
0.992965
1.04013
1.08884
1.1391
1.19086
1.2441
1.29877
1.35483
1.41222
1.47087
1.53073
1.59171
1.65372
1.71665
1.78036
1.84472
1.90964
1.97501
2.04069
2.10657
2.17253
2.23846
2.3043
2.36997
2.43538
2.50047
2.56513
2.6293
2.69291
2.75593
2.81832
2.88004
2.94104
3.00128
3.06071
3.11926
3.1769
3.23358
3.28927
3.34394
3.39752
3.44999
3.50129
3.55138
3.60022
3.64777
3.69401
3.7389
3.78239
3.82444
3.86501
3.90406
3.94155
3.97743
4.01169
4.04427
4.07515
4.10428
4.13163
4.15716
4.18084
4.20265
4.22256
4.24056
4.25665
4.27081
4.28304
4.29335
4.30173
4.3082
4.3128
4.31554
4.31647
4.31569
4.31315
4.30882
4.30281
4.29519
4.28599
4.27528
4.26312
4.24956
4.23466
4.21848
4.20108
4.18253
4.16287
4.14216
4.12045
4.0978
4.07425
4.04984
4.02459
3.9985
3.97164
3.94411
3.91595
3.88722
3.85797
3.82824
3.79807
3.76747
3.73648
3.70509
3.67333
3.64122
3.60881
3.57615
3.54327
3.51023
3.47706
3.44381
3.41052
3.37726
3.34409
3.31112
3.2784
3.24604
3.21329
3.17883
0.00280641
0.0352815
0.0593362
0.069407
0.0733041
0.0741247
0.0730562
0.0707536
0.067863
0.0649917
0.0625937
0.0609151
0.0601317
0.0600317
0.0608659
0.0626079
0.0652272
0.0686948
0.072983
0.0780654
0.0838839
0.0903627
0.0974223
0.104984
0.112982
0.121372
0.130152
0.139389
0.149217
0.15983
0.171443
0.184255
0.198398
0.213911
0.230755
0.248824
0.267983
0.288089
0.309016
0.330661
0.35295
0.37584
0.399322
0.423419
0.448177
0.473673
0.500004
0.527274
0.555587
0.585045
0.615754
0.647813
0.681316
0.71635
0.752988
0.791297
0.831333
0.873144
0.916768
0.962233
1.00955
1.05873
1.10977
1.16264
1.21732
1.27377
1.33195
1.39179
1.4532
1.51609
1.58034
1.64585
1.71247
1.78005
1.84843
1.91745
1.98698
2.05689
2.12709
2.19746
2.26789
2.33828
2.40854
2.47862
2.54841
2.6178
2.68668
2.75491
2.8225
2.8894
2.95558
3.02099
3.08558
3.1493
3.21208
3.27386
3.3346
3.39426
3.45278
3.51015
3.56631
3.62122
3.67483
3.72709
3.77798
3.82745
3.87547
3.92202
3.96706
4.01055
4.05244
4.09269
4.13127
4.16814
4.20327
4.23663
4.26818
4.29788
4.3257
4.35161
4.37556
4.39754
4.41753
4.4355
4.45146
4.46538
4.47727
4.48712
4.49494
4.50074
4.50456
4.50644
4.50642
4.50467
4.50094
4.49538
4.48807
4.47904
4.46836
4.4561
4.4423
4.42703
4.41036
4.39235
4.37305
4.35255
4.33089
4.30815
4.28437
4.25963
4.23396
4.20742
4.18003
4.15174
4.12268
4.09294
4.06259
4.03168
4.00025
3.96834
3.936
3.90325
3.87011
3.83659
3.80267
3.76842
3.7339
3.69916
3.66423
3.62916
3.59397
3.55871
3.52343
3.48817
3.45299
3.41801
3.38329
3.34897
3.31435
3.27839
0.00365945
0.0413778
0.066542
0.0768383
0.080668
0.0813299
0.0798945
0.077254
0.074366
0.0718972
0.0702133
0.0694581
0.0693536
0.0700409
0.071593
0.0739681
0.0771042
0.0809501
0.0854651
0.090613
0.0963565
0.102669
0.109535
0.116944
0.124906
0.133462
0.142686
0.152671
0.163529
0.175365
0.188251
0.202229
0.21729
0.233387
0.250441
0.268364
0.287069
0.306485
0.326559
0.34726
0.368583
0.390539
0.413161
0.436506
0.460652
0.485673
0.511659
0.538716
0.566953
0.596484
0.627423
0.659876
0.693949
0.729741
0.767342
0.806834
0.848287
0.891765
0.937323
0.985001
1.03483
1.08681
1.14095
1.19721
1.25557
1.31598
1.37838
1.44267
1.50873
1.57641
1.64554
1.71591
1.78734
1.85966
1.93268
2.00621
2.0801
2.15415
2.22837
2.30276
2.3772
2.45157
2.5258
2.59983
2.67352
2.74673
2.8193
2.89111
2.9622
3.03251
3.10196
3.17051
3.23811
3.30468
3.37017
3.43451
3.49765
3.55955
3.62017
3.67948
3.73744
3.794
3.84913
3.90277
3.95489
4.00547
4.05448
4.10189
4.14769
4.19182
4.23425
4.27494
4.31387
4.35099
4.38628
4.41971
4.45126
4.48088
4.50854
4.53421
4.55785
4.57945
4.59897
4.61641
4.63175
4.64499
4.6561
4.66509
4.67195
4.67671
4.67939
4.68007
4.6789
4.67575
4.67058
4.66352
4.65464
4.64398
4.6316
4.61757
4.60194
4.58479
4.56617
4.54617
4.52484
4.50225
4.47848
4.4536
4.42765
4.40072
4.37286
4.34413
4.31456
4.28412
4.25294
4.22108
4.18862
4.15561
4.12208
4.08809
4.05368
4.01888
3.98373
3.94821
3.91228
3.87606
3.8396
3.80296
3.76615
3.72922
3.6922
3.65512
3.61804
3.58094
3.54394
3.50714
3.47062
3.43452
3.39819
3.36097
0.00458716
0.04741
0.0737067
0.0842486
0.087999
0.0884593
0.086593
0.0837911
0.0811824
0.0793291
0.0784565
0.0782611
0.0787613
0.0800023
0.0820395
0.0848048
0.088242
0.0923107
0.0969901
0.102273
0.108158
0.114658
0.121794
0.129602
0.138128
0.147425
0.157548
0.168545
0.180451
0.193263
0.206981
0.221583
0.237016
0.253221
0.270146
0.287747
0.305995
0.324879
0.344404
0.364588
0.385463
0.40708
0.42952
0.452897
0.477264
0.502629
0.529134
0.556895
0.586024
0.616645
0.648876
0.68283
0.718621
0.756361
0.79615
0.838078
0.882224
0.928649
0.977402
1.02853
1.08207
1.13802
1.19632
1.25694
1.31983
1.38494
1.45218
1.52146
1.59263
1.66548
1.73975
1.81511
1.89122
1.96799
2.04532
2.12301
2.20082
2.27855
2.35639
2.43431
2.51212
2.58973
2.66716
2.74442
2.82126
2.89749
2.97299
3.04774
3.12162
3.19452
3.26639
3.33717
3.40681
3.47522
3.54236
3.60814
3.67254
3.73552
3.79705
3.85711
3.91566
3.97268
4.0281
4.08191
4.13406
4.18454
4.23334
4.28046
4.32585
4.36951
4.41139
4.45146
4.48968
4.52604
4.56051
4.59308
4.62372
4.65239
4.67906
4.7037
4.72628
4.74676
4.76514
4.7814
4.79553
4.80751
4.81731
4.82494
4.83037
4.83362
4.83476
4.83397
4.83119
4.82627
4.81936
4.81052
4.7998
4.78725
4.77295
4.75694
4.73929
4.72008
4.69937
4.67724
4.65375
4.62899
4.60302
4.57592
4.54776
4.5186
4.48851
4.45755
4.42578
4.39328
4.36007
4.3262
4.29173
4.2567
4.22118
4.18521
4.14884
4.11211
4.07505