/*--------------------------------*- C++ -*----------------------------------*\
  =========                 |
  \\      /  F ield         | OpenFOAM: The Open Source CFD Toolbox
   \\    /   O peration     | Website:  https://openfoam.org
    \\  /    A nd           | Version:  13
     \\/     M anipulation  |
\*---------------------------------------------------------------------------*/
FoamFile
{
    format      ascii;
    class       volScalarField;
    location    "1200";
    object      nut;
}
// * * * * * * * * * * * * * * * * * * * * * * * * * * * * * * * * * * * * * //

dimensions      [0 2 -1 0 0 0 0];

internalField   nonuniform List<scalar> 
12225
(
5.47994e-06
1.51503e-05
2.18057e-05
3.36481e-05
3.6435e-05
2.91334e-05
2.11838e-05
2.19581e-05
1.58504e-05
2.57148e-05
3.33149e-05
2.58025e-05
2.16816e-05
2.31861e-05
1.91974e-05
2.13538e-05
2.47345e-05
2.02784e-05
3.11682e-06
3.58702e-06
8.29408e-06
7.84445e-06
1.10834e-05
1.2345e-05
1.36289e-05
1.4812e-05
2.18093e-05
2.96448e-05
3.69166e-05
3.74734e-05
4.2319e-05
4.09612e-05
4.08137e-05
4.70383e-05
4.32439e-05
4.7493e-05
2.73229e-05
1.33136e-05
4.27236e-06
2.59867e-06
3.13782e-06
3.20203e-06
3.54509e-06
8.64729e-06
1.59746e-05
2.329e-05
2.58976e-05
2.82582e-05
3.43474e-05
3.91929e-05
3.82473e-05
4.05241e-05
3.99162e-05
3.99635e-05
0.000121039
4.7188e-05
3.24585e-05
1.06324e-05
1.54094e-05
1.24988e-05
1.67443e-05
2.43279e-05
4.45497e-05
4.13481e-05
4.70129e-05
6.3287e-05
8.67466e-05
8.10312e-05
8.70576e-05
9.19603e-05
8.98241e-05
8.26858e-05
0.00487591
3.87787e-05
8.47913e-05
2.81899e-05
1.98835e-05
2.31781e-05
3.37589e-05
5.14091e-05
8.84259e-05
8.07332e-05
9.37316e-05
0.000122622
0.000181288
0.000167466
0.000196963
0.000211716
0.000210158
0.000194586
0.00464238
9.06504e-05
0.000185653
6.17909e-05
5.10024e-05
5.90198e-05
8.18003e-05
0.000107128
0.000171894
0.000156497
0.000173001
0.000228431
0.000327891
0.000303276
0.000351962
0.00036416
0.000366611
0.00035373
0.00577294
0.000680732
0.000198599
0.000224164
0.000166206
0.000165599
0.000198596
0.000233106
0.000327008
0.000289992
0.000309005
0.000386484
0.000499007
0.000466851
0.000517632
0.000530653
0.000529661
0.000516015
0.00110009
0.00104834
0.000754854
0.000509101
0.000453706
0.000398689
0.000395124
0.000418158
0.000499889
0.000456712
0.000475383
0.000544403
0.000634312
0.000613798
0.000653368
0.000661376
0.000661582
0.000649877
0.000868126
0.000902911
0.000873596
0.000789087
0.000706598
0.000641293
0.000621382
0.00061072
0.000623763
0.000676796
0.000642686
0.000657841
0.00070461
0.000747353
0.000736145
0.000750148
0.000751788
0.000739154
0.000848947
0.000860602
0.000855073
0.000833014
0.000808182
0.000778675
0.000775357
0.000776547
0.000775107
0.000789102
0.000782264
0.000771761
0.000775879
0.000792777
0.000806746
0.000799633
0.000798637
0.000794545
0.000852157
0.000851363
0.000848225
0.000848445
0.000841522
0.000834028
0.000829275
0.00082813
0.000827774
0.000829868
0.000830999
0.000831481
0.000831953
0.000832614
0.000833147
0.000832594
0.000829384
0.000825776
0.000851697
0.000850941
0.000849557
0.000848084
0.000846162
0.000844251
0.000842492
0.000841706
0.000841216
0.000841122
0.00084139
0.000840985
0.000841298
0.000840624
0.000840734
0.000840001
0.000839255
0.000838033
0.000851571
0.000850794
0.000849821
0.000848879
0.000847857
0.000846973
0.00084605
0.000845402
0.000844833
0.000844254
0.000844042
0.000843386
0.000843196
0.000842693
0.000842272
0.000841954
0.000841412
0.000841118
0.000851542
0.000850699
0.00084987
0.000849057
0.000848284
0.000847547
0.000846852
0.000846194
0.000845631
0.00084499
0.000844561
0.000843956
0.00084352
0.000843055
0.000842581
0.000842205
0.000841764
0.00084144
0.000851541
0.000850674
0.000849866
0.000849072
0.000848342
0.000847621
0.000846962
0.000846305
0.00084572
0.000845112
0.000844589
0.000844039
0.000843543
0.000843062
0.000842596
0.000842174
0.000841745
0.000841371
0.000851539
0.000850672
0.000849856
0.000849071
0.000848334
0.000847623
0.000846955
0.000846308
0.000845702
0.000845113
0.00084456
0.000844025
0.000843517
0.000843032
0.000842565
0.000842125
0.000841698
0.000841298
0.000851538
0.000850673
0.000849852
0.000849069
0.000848327
0.000847617
0.000846944
0.000846299
0.000845686
0.000845099
0.00084454
0.000844004
0.000843494
0.000843004
0.000842537
0.00084209
0.000841663
0.000841254
0.000851539
0.000850677
0.000849857
0.000849077
0.000848334
0.000847627
0.000846952
0.000846308
0.000845694
0.000845106
0.000844546
0.000844009
0.000843496
0.000843006
0.000842537
0.000842088
0.000841659
0.000841248
0.000851537
0.000850674
0.000849851
0.000849069
0.000848324
0.000847615
0.000846938
0.000846294
0.000845677
0.000845088
0.000844525
0.000843987
0.000843472
0.00084298
0.000842509
0.000842059
0.000841628
0.000841215
0.000851537
0.000850674
0.00084985
0.000849072
0.000848325
0.000847619
0.000846933
0.000846286
0.000845653
0.00084506
0.000844482
0.000843945
0.00084342
0.000842933
0.000842455
0.000842016
0.000841578
0.000841182
0.000851546
0.000850662
0.000849871
0.000849078
0.000848345
0.00084757
0.000846769
0.000845979
0.000845149
0.000844429
0.000843685
0.000843107
0.000842477
0.000842011
0.000841455
0.00084113
0.000840613
0.00084044
0.000851523
0.00085064
0.000850045
0.00084906
0.000848239
0.000846251
0.000844183
0.000841505
0.000838929
0.000836597
0.000834525
0.000833003
0.000831404
0.000830377
0.000829166
0.000829015
0.000828235
0.000828914
0.00085101
0.000851086
0.000851623
0.000849894
0.000843547
0.000832466
0.000820682
0.000806285
0.000793745
0.000782146
0.000772666
0.000764007
0.000755671
0.000748304
0.000743536
0.000740949
0.000732952
0.000731404
0.000848651
0.000855639
0.000846889
0.000835428
0.000804153
0.000754127
0.000703874
0.000658667
0.000622927
0.000594462
0.000570778
0.000552941
0.000536842
0.000524319
0.00051873
0.000511476
0.00050688
0.000506994
0.000849839
0.000849468
0.000799783
0.00073623
0.00064181
0.000529316
0.000430265
0.000369562
0.000320127
0.000288125
0.000268498
0.000252185
0.000248253
0.000242678
0.000242149
0.000242661
0.000241374
0.000238567
0.000792072
0.000822952
0.00071636
0.000420686
0.000473574
0.000373949
0.000217524
0.000217606
0.000168596
0.000139557
0.000115849
0.00010052
8.06603e-05
8.22984e-05
8.33318e-05
8.18941e-05
8.43219e-05
9.57233e-05
0.000490203
0.000816124
0.00064299
0.000359112
0.000246351
0.000146502
0.000102428
6.11137e-05
1.54762e-05
1.80448e-05
1.29186e-05
8.61055e-06
7.35e-06
9.69344e-06
1.33449e-05
1.77142e-05
1.96527e-05
2.31463e-05
0.000204911
0.000529644
0.000229982
0.000243306
0.000148207
7.68832e-05
4.84556e-05
3.45372e-05
1.62217e-05
6.45348e-06
7.63983e-06
7.67925e-06
7.45066e-06
7.27149e-06
7.02522e-06
1.36158e-05
1.74766e-05
2.19195e-05
6.0032e-05
6.248e-05
6.50083e-05
5.62349e-05
4.2757e-05
3.95494e-05
3.48919e-05
3.42705e-05
2.74948e-05
2.8204e-05
2.8295e-05
2.50439e-05
2.35337e-05
2.48675e-05
2.809e-05
3.23195e-05
3.68068e-05
4.13142e-05
1.23805e-05
1.69441e-05
1.99375e-05
2.15044e-05
2.20855e-05
2.22455e-05
2.21589e-05
2.17791e-05
2.12631e-05
2.07604e-05
2.0279e-05
1.98175e-05
1.93967e-05
1.9034e-05
1.87289e-05
1.85082e-05
1.83491e-05
1.82437e-05
1.38774e-12
1.56728e-10
8.02496e-10
3.16973e-09
1.06426e-08
3.2373e-08
8.59296e-08
1.73182e-07
2.83628e-07
4.01258e-07
5.07987e-07
5.91751e-07
6.48781e-07
6.72804e-07
6.6528e-07
6.40671e-07
5.91015e-07
5.11703e-07
4.34083e-07
3.69414e-07
3.08586e-07
2.499e-07
1.93101e-07
1.40525e-07
9.30755e-08
5.56705e-08
3.01672e-08
1.53872e-08
7.8245e-09
4.19229e-09
2.46137e-09
1.72777e-09
1.72628e-09
3.13441e-09
7.65336e-09
1.89007e-08
8.11505e-08
1.81863e-07
3.24228e-07
4.16214e-07
4.04496e-07
3.50339e-07
2.7986e-07
2.50897e-07
2.65416e-07
3.35335e-07
4.28063e-07
7.3798e-07
1.37156e-06
3.40777e-06
1.03148e-05
2.30069e-05
3.62634e-05
4.64889e-05
5.25496e-05
4.90463e-05
3.94368e-05
3.03632e-05
2.99659e-05
3.02785e-05
3.03196e-05
3.28611e-05
3.11339e-05
3.12512e-05
3.29107e-05
3.31304e-05
3.38843e-05
3.44106e-05
3.49976e-05
3.55568e-05
3.61077e-05
3.66543e-05
3.71927e-05
3.77248e-05
3.82543e-05
3.87767e-05
3.92982e-05
3.98142e-05
4.03292e-05
4.08405e-05
4.13505e-05
4.18582e-05
4.23642e-05
4.28688e-05
4.33718e-05
4.38737e-05
4.43742e-05
4.48737e-05
4.53718e-05
4.58688e-05
4.63641e-05
4.68577e-05
4.73491e-05
4.78379e-05
4.83243e-05
4.88074e-05
4.92879e-05
4.97651e-05
5.0241e-05
5.07169e-05
5.11985e-05
5.16928e-05
5.21874e-05
5.26855e-05
5.31884e-05
5.36969e-05
5.42114e-05
5.47331e-05
5.52618e-05
5.57992e-05
5.63448e-05
5.69005e-05
5.74661e-05
5.80432e-05
5.86321e-05
5.92341e-05
5.98499e-05
6.04806e-05
6.11269e-05
6.17899e-05
6.2471e-05
6.31716e-05
6.38939e-05
6.46384e-05
6.54087e-05
6.62052e-05
6.70339e-05
6.78939e-05
6.87991e-05
6.97171e-05
7.06062e-05
7.16487e-05
7.25899e-05
7.36859e-05
7.47645e-05
7.59379e-05
7.71513e-05
7.74443e-05
7.71926e-05
7.69289e-05
7.66565e-05
7.63718e-05
7.60808e-05
7.57806e-05
7.54745e-05
7.51611e-05
7.48418e-05
7.45167e-05
7.41866e-05
7.38514e-05
7.35122e-05
7.31683e-05
7.28211e-05
7.24695e-05
7.21153e-05
7.17574e-05
7.13987e-05
7.1038e-05
7.06804e-05
7.03265e-05
6.99775e-05
6.96272e-05
6.92809e-05
6.8934e-05
6.85907e-05
6.82466e-05
6.79056e-05
6.75641e-05
6.72254e-05
6.68866e-05
6.65502e-05
6.62132e-05
6.58764e-05
6.55366e-05
6.5191e-05
6.48294e-05
6.44444e-05
6.39989e-05
6.34375e-05
6.20026e-05
6.92215e-12
1.13194e-09
1.52796e-08
8.01329e-08
3.49387e-07
1.11003e-06
2.59714e-06
4.7832e-06
7.46237e-06
1.05297e-05
1.36495e-05
1.65637e-05
1.9047e-05
2.09203e-05
2.20372e-05
2.23704e-05
2.20612e-05
2.12323e-05
1.94695e-05
1.62993e-05
1.27056e-05
9.42478e-06
6.67534e-06
4.54237e-06
2.87209e-06
1.78687e-06
1.08742e-06
6.76165e-07
4.20622e-07
2.7077e-07
1.90723e-07
1.52643e-07
1.55405e-07
2.24689e-07
5.12668e-07
1.08383e-06
4.86835e-06
1.05293e-05
1.73634e-05
2.12892e-05
2.15016e-05
2.00223e-05
1.72768e-05
1.5641e-05
1.61569e-05
1.70128e-05
1.77591e-05
2.21253e-05
3.11648e-05
4.17125e-05
5.30115e-05
6.38828e-05
7.32267e-05
8.16815e-05
9.06419e-05
0.000101118
0.000108742
0.000117537
0.000132416
0.00014363
0.000161192
0.000173143
0.000185266
0.000199293
0.000211274
0.000223091
0.000234487
0.00024551
0.000255934
0.000266141
0.00027596
0.000285549
0.000294862
0.000303985
0.000312896
0.000321654
0.000330245
0.000338707
0.000347032
0.000355244
0.00036334
0.000371332
0.000379219
0.000387008
0.000394701
0.000402301
0.000409811
0.000417234
0.000424572
0.000431826
0.000438997
0.000446082
0.000453079
0.000459982
0.000466781
0.000473459
0.000479991
0.000486334
0.00049243
0.000498181
0.000503469
0.000508135
0.000512762
0.000517219
0.000521587
0.000525816
0.000529929
0.000533908
0.000537755
0.000541463
0.000545031
0.000548453
0.000551725
0.000554844
0.000557806
0.000560608
0.000563246
0.000565717
0.000568018
0.000570146
0.000572098
0.000573874
0.000575473
0.000576896
0.00057814
0.000579203
0.000580084
0.00058079
0.000581347
0.000581732
0.000581932
0.000582074
0.000581909
0.000581622
0.000581163
0.000580604
0.000580108
0.000579806
0.0005795
0.000578978
0.000578317
0.000577554
0.000576687
0.000575713
0.000574659
0.000573515
0.00057229
0.000570986
0.000569609
0.000568162
0.000566649
0.000565071
0.000563432
0.000561727
0.000559962
0.000558134
0.000556254
0.000554323
0.000552356
0.00055037
0.000548352
0.0005463
0.000544225
0.000542117
0.000539985
0.000537814
0.000535612
0.000533366
0.000531085
0.000528756
0.000526388
0.000523963
0.000521471
0.000518883
0.00051617
0.000513216
0.000509927
0.000505964
0.000500541
0.000485234
1.68107e-11
2.8472e-09
5.36634e-08
3.13703e-07
1.16344e-06
2.79179e-06
5.99612e-06
1.04783e-05
1.60578e-05
2.24246e-05
2.92344e-05
3.59672e-05
4.20737e-05
4.72099e-05
5.11393e-05
5.37059e-05
5.52428e-05
5.56375e-05
5.44497e-05
5.16384e-05
4.75944e-05
4.16912e-05
3.46824e-05
2.75316e-05
2.08347e-05
1.5043e-05
1.02425e-05
6.86011e-06
4.34763e-06
2.85782e-06
1.97995e-06
1.51475e-06
1.28846e-06
1.35926e-06
3.43293e-06
8.13419e-06
2.45081e-05
4.45308e-05
5.83384e-05
6.25692e-05
5.74418e-05
4.47601e-05
3.90378e-05
4.14751e-05
4.84659e-05
5.60153e-05
6.65339e-05
7.89824e-05
9.1476e-05
0.000105318
0.000122812
0.000141666
0.00016319
0.000187455
0.000215287
0.000244738
0.000273964
0.000302417
0.000334573
0.000362847
0.000394402
0.000421189
0.000446631
0.00047383
0.00049753
0.00052097
0.000543498
0.000564934
0.000585683
0.000605821
0.000625386
0.00064449
0.000663163
0.000681476
0.000699452
0.000717136
0.000734543
0.000751701
0.000768618
0.000785311
0.000801786
0.000818052
0.000834111
0.00084997
0.000865629
0.000881092
0.000896358
0.000911429
0.000926303
0.000940978
0.000955449
0.000969705
0.000983735
0.000997524
0.00101105
0.00102428
0.00103719
0.00104974
0.00106187
0.00107357
0.0010848
0.00109569
0.0011064
0.00111684
0.00112705
0.00113699
0.00114666
0.00115604
0.00116514
0.00117394
0.00118242
0.00119059
0.00119844
0.00120594
0.00121311
0.00121992
0.00122637
0.00123246
0.00123817
0.00124351
0.00124846
0.00125304
0.00125722
0.00126103
0.00126445
0.00126748
0.00127013
0.0012724
0.00127433
0.00127588
0.00127707
0.00127795
0.0012784
0.00127852
0.00127829
0.001278
0.00127753
0.0012769
0.001276
0.00127487
0.0012733
0.00127165
0.00126969
0.0012675
0.00126515
0.0012626
0.00125987
0.00125698
0.00125392
0.00125071
0.00124736
0.00124386
0.00124023
0.00123645
0.00123253
0.00122847
0.00122428
0.00121998
0.00121558
0.00121109
0.00120652
0.00120188
0.00119718
0.00119241
0.00118759
0.00118268
0.00117771
0.00117265
0.00116751
0.00116227
0.00115695
0.00115152
0.00114595
0.00114017
0.00113411
0.00112757
0.0011203
0.00111152
0.00109925
0.00107147
6.47122e-11
1.09777e-08
1.76157e-07
7.3942e-07
2.42044e-06
6.57771e-06
1.31637e-05
2.2016e-05
3.25124e-05
4.35928e-05
5.43368e-05
6.42505e-05
7.2799e-05
7.94782e-05
8.45037e-05
8.78938e-05
8.94183e-05
8.94513e-05
8.81294e-05
8.53456e-05
8.11692e-05
7.56279e-05
6.89359e-05
6.04497e-05
5.08956e-05
4.11951e-05
3.19266e-05
2.41403e-05
1.79703e-05
1.30962e-05
9.85296e-06
7.39734e-06
6.68057e-06
8.73851e-06
1.78427e-05
3.78983e-05
5.9205e-05
7.39147e-05
7.65295e-05
7.28552e-05
7.09116e-05
7.24266e-05
7.76258e-05
8.65258e-05
9.89274e-05
0.000112699
0.00012585
0.000148534
0.000170188
0.000199364
0.000231492
0.000267609
0.000306947
0.00034919
0.000393533
0.000438129
0.00048216
0.000524841
0.000568168
0.000608166
0.000649203
0.000686801
0.000722802
0.000758342
0.00079212
0.000824639
0.000856104
0.00088655
0.000916198
0.000945122
0.000973406
0.00100113
0.00102836
0.00105513
0.00108149
0.00110747
0.00113309
0.00115837
0.00118331
0.00120794
0.00123224
0.00125624
0.00127992
0.00130329
0.00132636
0.00134911
0.00137154
0.00139366
0.00141546
0.00143693
0.00145806
0.00147885
0.00149928
0.00151933
0.00153899
0.00155823
0.00157705
0.00159542
0.00161333
0.00163078
0.00164782
0.00166449
0.00168083
0.00169679
0.00171237
0.00172756
0.00174233
0.00175668
0.0017706
0.00178406
0.00179705
0.00180957
0.0018216
0.00183313
0.00184414
0.00185463
0.00186459
0.001874
0.00188287
0.00189117
0.00189892
0.0019061
0.00191271
0.00191877
0.00192426
0.00192919
0.00193356
0.00193739
0.00194069
0.00194345
0.00194569
0.00194744
0.00194864
0.00194931
0.00194953
0.00194948
0.0019492
0.00194845
0.00194728
0.0019457
0.00194369
0.00194133
0.00193862
0.00193558
0.00193225
0.00192863
0.00192474
0.00192058
0.00191617
0.00191153
0.00190667
0.00190159
0.00189629
0.00189079
0.00188507
0.00187915
0.00187303
0.00186675
0.0018603
0.0018537
0.00184698
0.00184014
0.0018332
0.00182616
0.00181902
0.00181176
0.00180439
0.00179689
0.00178927
0.00178151
0.00177363
0.0017656
0.00175736
0.00174887
0.00173998
0.00173047
0.00171998
0.00170749
0.00169025
0.00165739
2.17063e-10
3.25795e-08
3.88761e-07
1.85846e-06
6.3889e-06
1.54812e-05
2.88281e-05
4.48283e-05
6.17407e-05
7.79192e-05
9.20937e-05
0.000103475
0.000112003
0.000118045
0.00012138
0.000122678
0.000122327
0.000120636
0.000117821
0.000113976
0.000108807
0.000103045
9.62443e-05
8.79583e-05
7.83421e-05
6.76447e-05
5.63801e-05
4.58719e-05
3.68417e-05
2.96645e-05
2.32708e-05
2.0321e-05
2.21766e-05
3.34084e-05
5.70265e-05
7.67011e-05
8.75712e-05
9.24606e-05
9.48688e-05
9.81073e-05
0.000104362
0.000114732
0.000130152
0.000141445
0.000156074
0.000181071
0.000210176
0.000245124
0.000283601
0.00032873
0.00037599
0.000426831
0.00047946
0.000533524
0.000587924
0.000641673
0.000694351
0.000745541
0.000796088
0.0008438
0.000891665
0.000937026
0.000980725
0.00102336
0.00106452
0.00110449
0.0011434
0.00118133
0.00121843
0.00125478
0.00129046
0.00132552
0.00136003
0.00139402
0.00142754
0.00146059
0.0014932
0.00152537
0.00155712
0.00158845
0.00161936
0.00164985
0.00167992
0.00170956
0.00173878
0.00176758
0.00179593
0.00182385
0.00185133
0.00187837
0.00190494
0.00193106
0.0019567
0.00198186
0.00200653
0.00203071
0.00205438
0.00207755
0.00210022
0.00212241
0.00214413
0.0021654
0.0021862
0.00220652
0.00222634
0.00224565
0.00226444
0.00228268
0.00230036
0.00231746
0.00233398
0.00234989
0.00236519
0.00237986
0.00239388
0.00240726
0.00241997
0.002432
0.00244336
0.00245402
0.00246399
0.00247327
0.00248186
0.00248975
0.00249695
0.00250347
0.0025093
0.00251446
0.00251896
0.00252281
0.00252602
0.00252862
0.0025306
0.00253184
0.00253272
0.00253315
0.00253297
0.0025323
0.00253111
0.00252942
0.00252723
0.0025246
0.00252152
0.00251805
0.00251419
0.00250996
0.00250538
0.00250046
0.00249523
0.00248969
0.00248386
0.00247774
0.00247135
0.00246469
0.00245776
0.00245056
0.00244312
0.00243544
0.00242756
0.00241948
0.00241123
0.00240282
0.00239427
0.00238558
0.00237675
0.00236776
0.00235862
0.00234932
0.00233985
0.00233022
0.0023204
0.00231039
0.00230016
0.00228963
0.00227867
0.00226707
0.00225442
0.00223972
0.00221989
0.00218685
6.88426e-10
8.06126e-08
9.74617e-07
4.93773e-06
1.62447e-05
3.4549e-05
5.66027e-05
7.9213e-05
9.88383e-05
0.000114134
0.000125643
0.000134554
0.000140621
0.000144446
0.000146332
0.000146533
0.000145268
0.000142728
0.00013912
0.000134486
0.000128827
0.000122599
0.000115399
0.000107034
9.76134e-05
8.28113e-05
6.81809e-05
5.43114e-05
4.26398e-05
3.51939e-05
3.30658e-05
3.88357e-05
5.53754e-05
7.83854e-05
9.65976e-05
0.000108179
0.000115027
0.000120298
0.000127646
0.00013981
0.000156274
0.00016599
0.000182603
0.000208198
0.000238606
0.000276896
0.000320144
0.000368983
0.000421367
0.000477638
0.000535399
0.000595102
0.000655431
0.00071602
0.000776137
0.000835292
0.00089319
0.000949457
0.00100474
0.00105849
0.00111111
0.00116196
0.00121139
0.0012596
0.00130655
0.00135238
0.0013972
0.0014411
0.00148416
0.00152647
0.00156808
0.00160905
0.00164943
0.00168923
0.00172849
0.00176721
0.00180541
0.0018431
0.00188026
0.00191691
0.00195304
0.00198864
0.00202371
0.00205825
0.00209225
0.00212572
0.00215864
0.00219101
0.00222284
0.00225411
0.00228483
0.00231499
0.00234458
0.0023736
0.00240206
0.00242995
0.00245726
0.00248402
0.00251021
0.00253586
0.00256096
0.00258551
0.0026095
0.00263291
0.00265573
0.00267795
0.00269955
0.00272053
0.00274085
0.00276052
0.0027795
0.0027978
0.00281539
0.00283227
0.00284842
0.00286384
0.00287852
0.00289243
0.00290559
0.00291797
0.00292959
0.00294043
0.00295049
0.00295978
0.00296831
0.00297606
0.00298306
0.00298931
0.00299481
0.00299959
0.00300365
0.00300706
0.00300985
0.00301183
0.00301319
0.00301403
0.00301421
0.00301381
0.00301282
0.00301127
0.00300917
0.00300656
0.00300344
0.00299986
0.00299584
0.0029914
0.00298654
0.00298129
0.00297567
0.00296969
0.00296336
0.0029567
0.00294971
0.0029424
0.00293478
0.00292685
0.00291863
0.00291014
0.00290139
0.00289241
0.00288323
0.00287384
0.00286428
0.00285454
0.00284463
0.00283453
0.00282424
0.00281376
0.00280308
0.00279222
0.00278116
0.00276989
0.00275838
0.00274658
0.00273438
0.00272158
0.00270781
0.00269217
0.00267204
0.00264076
2.18418e-09
2.04225e-07
2.56528e-06
1.34958e-05
3.56285e-05
6.42142e-05
9.2525e-05
0.000116089
0.000134212
0.000147277
0.000156207
0.00016147
0.000164037
0.000164775
0.000164192
0.000162545
0.00015997
0.000156536
0.000152178
0.000146819
0.000140621
0.000133515
0.000125128
0.000110573
9.43558e-05
7.97287e-05
6.61516e-05
5.52381e-05
4.95704e-05
5.3729e-05
6.7425e-05
8.85059e-05
0.000110094
0.000124487
0.000135113
0.000143082
0.000151468
0.000164116
0.000179451
0.000188218
0.000204894
0.000229614
0.000259551
0.000297576
0.00034145
0.000392011
0.000446733
0.000505218
0.00056603
0.00062882
0.000692482
0.000756869
0.000821266
0.000885341
0.000948622
0.00101062
0.00107166
0.00113167
0.00119036
0.00124769
0.00130379
0.00135852
0.001412
0.00146431
0.00151552
0.00156569
0.00161492
0.00166328
0.00171082
0.00175762
0.00180371
0.00184915
0.00189396
0.00193816
0.00198176
0.00202477
0.00206718
0.002109
0.00215022
0.00219084
0.00223083
0.00227021
0.00230896
0.00234708
0.00238456
0.00242141
0.00245761
0.00249318
0.0025281
0.00256239
0.00259603
0.00262903
0.0026614
0.00269313
0.00272422
0.00275467
0.0027845
0.00281368
0.00284223
0.00287013
0.00289741
0.00292406
0.00295008
0.00297545
0.00300017
0.00302423
0.00304761
0.00307031
0.00309231
0.0031136
0.00313419
0.00315406
0.00317319
0.00319157
0.00320918
0.00322601
0.00324206
0.00325731
0.00327176
0.00328539
0.00329821
0.00331021
0.0033214
0.00333177
0.00334132
0.00335006
0.00335799
0.00336513
0.00337147
0.00337703
0.00338189
0.00338607
0.00338948
0.00339203
0.00339395
0.00339524
0.00339584
0.00339578
0.00339509
0.0033938
0.00339191
0.00338948
0.00338654
0.00338312
0.00337921
0.00337484
0.00337001
0.00336476
0.00335908
0.00335301
0.00334656
0.00333973
0.00333254
0.00332499
0.0033171
0.00330886
0.00330031
0.00329144
0.0032823
0.0032729
0.00326325
0.00325338
0.00324331
0.00323302
0.00322253
0.00321183
0.00320092
0.0031898
0.00317846
0.00316691
0.00315516
0.00314319
0.003131
0.00311854
0.00310573
0.00309241
0.0030783
0.00306261
0.00304337
0.00301516
6.52362e-09
5.37117e-07
6.83803e-06
2.90754e-05
6.19023e-05
9.41759e-05
0.000120916
0.000141527
0.000157239
0.0001674
0.00017309
0.000175688
0.000176244
0.000175331
0.000173356
0.00017053
0.000166869
0.000162239
0.000156697
0.000150471
0.000143561
0.000135758
0.000121596
0.000105821
9.26073e-05
8.29469e-05
7.87392e-05
8.10341e-05
8.2423e-05
9.75843e-05
0.000121033
0.00014384
0.000160573
0.000170167
0.000179949
0.000192572
0.00020026
0.000208569
0.00022387
0.000246196
0.000274675
0.000310606
0.000352719
0.00040175
0.000456009
0.000514884
0.000576541
0.00064038
0.000705571
0.000771695
0.000838191
0.000904775
0.000971077
0.00103648
0.00110112
0.00116523
0.00122811
0.00128992
0.00135056
0.00141002
0.00146834
0.00152549
0.00158154
0.00163654
0.00169054
0.0017436
0.00179579
0.00184714
0.00189773
0.00194759
0.00199677
0.00204529
0.00209318
0.00214043
0.00218706
0.00223306
0.00227841
0.00232311
0.00236714
0.00241049
0.00245315
0.0024951
0.00253635
0.00257689
0.00261671
0.00265581
0.00269418
0.00273184
0.00276879
0.00280503
0.00284057
0.0028754
0.00290954
0.00294298
0.00297574
0.00300782
0.00303921
0.00306992
0.00309992
0.00312925
0.00315791
0.00318591
0.00321324
0.0032399
0.00326588
0.00329117
0.00331576
0.00333965
0.00336282
0.00338527
0.00340698
0.00342794
0.00344815
0.00346758
0.00348624
0.00350411
0.00352118
0.00353744
0.00355289
0.00356751
0.0035813
0.00359426
0.00360639
0.00361767
0.00362813
0.00363775
0.00364654
0.00365451
0.00366166
0.00366806
0.00367368
0.00367857
0.00368267
0.00368587
0.00368845
0.00369032
0.00369146
0.00369191
0.0036917
0.00369085
0.00368938
0.00368731
0.00368466
0.00368149
0.00367779
0.0036736
0.00366892
0.00366378
0.00365819
0.00365218
0.00364574
0.00363891
0.00363168
0.00362407
0.00361608
0.00360773
0.00359903
0.00359001
0.00358068
0.00357107
0.0035612
0.00355109
0.00354074
0.00353016
0.00351936
0.00350833
0.00349707
0.00348557
0.00347386
0.00346193
0.00344978
0.00343743
0.00342486
0.00341205
0.00339895
0.00338545
0.00337135
0.00335618
0.00333824
0.00331366
1.69514e-08
1.32847e-06
1.5349e-05
4.92978e-05
8.92708e-05
0.000124195
0.000150386
0.000168028
0.000178367
0.000184153
0.000186383
0.000185969
0.000183704
0.000180329
0.000176268
0.000171655
0.000166444
0.000160623
0.00015409
0.000146715
0.000138339
0.000127538
0.000113314
0.000103264
9.83797e-05
9.35809e-05
9.66818e-05
0.00010906
0.000128053
0.000148512
0.00016866
0.000186151
0.000199758
0.000208571
0.000216576
0.00022589
0.00023991
0.000259455
0.000285496
0.0003184
0.000357672
0.000403415
0.000454795
0.00051144
0.000571936
0.000635288
0.000700364
0.000766651
0.000833655
0.000901031
0.000968441
0.00103539
0.00110169
0.00116785
0.00123308
0.00129746
0.00136084
0.0014232
0.00148452
0.00154479
0.00160402
0.00166222
0.00171944
0.00177572
0.00183111
0.00188564
0.00193937
0.00199234
0.00204458
0.00209615
0.00214707
0.00219737
0.00224707
0.00229616
0.00234463
0.00239245
0.00243961
0.00248609
0.00253186
0.00257691
0.00262121
0.00266475
0.00270752
0.00274951
0.00279073
0.0028312
0.00287095
0.00290991
0.00294809
0.00298549
0.00302212
0.003058
0.00309312
0.0031275
0.00316115
0.00319407
0.00322627
0.00325776
0.00328857
0.00331868
0.0033481
0.00337684
0.00340489
0.00343226
0.00345893
0.0034849
0.00351017
0.00353474
0.00355859
0.00358172
0.00360412
0.00362578
0.00364669
0.00366684
0.00368623
0.00370484
0.00372267
0.0037397
0.00375592
0.00377133
0.00378592
0.00379969
0.00381262
0.00382472
0.00383598
0.00384641
0.00385601
0.00386478
0.00387276
0.00387993
0.00388631
0.00389193
0.00389674
0.00390068
0.00390397
0.00390649
0.00390827
0.00390934
0.00390973
0.00390945
0.00390852
0.00390698
0.00390485
0.00390216
0.00389892
0.00389515
0.00389087
0.00388611
0.00388088
0.0038752
0.00386908
0.00386254
0.00385558
0.00384822
0.00384047
0.00383234
0.00382384
0.00381501
0.00380585
0.00379641
0.00378669
0.00377671
0.00376649
0.00375602
0.00374532
0.00373437
0.00372319
0.00371177
0.00370012
0.00368825
0.00367617
0.00366389
0.00365141
0.00363873
0.00362581
0.00361258
0.00359892
0.00358435
0.00356759
0.00354614
3.78042e-08
3.06318e-06
2.78164e-05
7.09836e-05
0.000113344
0.000147377
0.000171241
0.000186176
0.00019355
0.000195367
0.000193578
0.000189596
0.000184374
0.000178489
0.000172262
0.000165525
0.000158645
0.000151146
0.000143657
0.00013612
0.000128579
0.000121138
0.000114839
0.000111802
0.000115286
0.000124411
0.000138076
0.000154724
0.00017256
0.000189687
0.000204756
0.000216444
0.00022693
0.000238517
0.000252366
0.000270213
0.000293537
0.00032305
0.000358857
0.000400705
0.000448109
0.000500717
0.000557795
0.000618585
0.000681971
0.000747092
0.000813247
0.000880034
0.000947114
0.00101424
0.00108076
0.00114708
0.00121301
0.00127826
0.00134268
0.00140622
0.00146883
0.00153049
0.00159119
0.00165093
0.00170973
0.00176759
0.00182457
0.00188072
0.00193607
0.00199069
0.0020446
0.00209784
0.00215039
0.00220236
0.00225378
0.00230465
0.002355
0.00240484
0.00245419
0.00250312
0.00255148
0.00259915
0.00264606
0.00269219
0.00273751
0.002782
0.00282564
0.00286842
0.00291035
0.00295142
0.00299161
0.00303097
0.00306953
0.00310732
0.00314433
0.00318058
0.00321607
0.00325083
0.00328485
0.00331814
0.00335072
0.0033826
0.00341378
0.00344427
0.00347406
0.00350316
0.00353157
0.00355929
0.00358632
0.00361267
0.00363833
0.00366329
0.00368756
0.00371113
0.00373399
0.00375614
0.00377757
0.00379827
0.00381823
0.00383745
0.00385591
0.0038736
0.00389052
0.00390665
0.00392198
0.00393651
0.00395023
0.00396313
0.0039752
0.00398645
0.00399688
0.00400652
0.00401533
0.00402332
0.00403052
0.00403695
0.00404256
0.00404734
0.00405142
0.00405471
0.00405725
0.00405905
0.00406015
0.00406057
0.00406033
0.00405945
0.00405796
0.00405588
0.00405323
0.00405004
0.00404633
0.00404211
0.0040374
0.00403223
0.0040266
0.00402053
0.00401403
0.00400711
0.00399978
0.00399206
0.00398397
0.00397553
0.00396677
0.0039577
0.00394836
0.00393875
0.00392889
0.00391878
0.00390843
0.00389783
0.00388699
0.00387591
0.0038646
0.00385308
0.00384136
0.00382944
0.00381734
0.00380506
0.0037926
0.00377991
0.00376692
0.00375328
0.00373794
0.00372003
7.23103e-08
6.30919e-06
4.24779e-05
9.43126e-05
0.000139584
0.000171567
0.000191634
0.000201485
0.000204075
0.000201824
0.000196562
0.000189576
0.000181744
0.00017325
0.00016496
0.000156499
0.000148618
0.000141565
0.000135942
0.000131412
0.000128709
0.000128942
0.000132878
0.000140591
0.000151094
0.0001641
0.000178685
0.000193882
0.000208512
0.000221347
0.000233108
0.000246368
0.000261193
0.000278558
0.000299875
0.000326372
0.000358514
0.000396276
0.000439353
0.00048733
0.00053975
0.000596144
0.000655842
0.000718083
0.000782031
0.00084703
0.000912597
0.000978415
0.001044
0.00110918
0.00117438
0.00123893
0.00130283
0.00136596
0.00142822
0.00148958
0.00155002
0.00160956
0.00166821
0.00172599
0.00178292
0.00183896
0.0018942
0.00194874
0.00200264
0.00205594
0.00210874
0.0021612
0.00221348
0.00226532
0.00231668
0.00236757
0.00241799
0.00246794
0.00251741
0.0025663
0.00261459
0.00266225
0.0027092
0.00275542
0.00280087
0.00284552
0.00288932
0.00293226
0.00297435
0.0030156
0.00305604
0.00309567
0.0031345
0.00317254
0.0032098
0.00324629
0.00328203
0.00331701
0.00335127
0.00338479
0.0034176
0.00344969
0.00348108
0.00351177
0.00354177
0.00357109
0.00359972
0.00362767
0.00365495
0.00368156
0.00370751
0.00373278
0.00375739
0.00378133
0.0038046
0.00382718
0.00384909
0.0038703
0.00389082
0.00391063
0.00392972
0.00394808
0.00396571
0.00398259
0.00399871
0.00401406
0.00402862
0.00404238
0.00405535
0.0040675
0.00407888
0.00408943
0.00409915
0.00410809
0.00411623
0.00412358
0.00413011
0.00413586
0.00414086
0.00414505
0.00414847
0.00415114
0.00415309
0.00415434
0.00415491
0.00415483
0.00415411
0.00415279
0.00415088
0.00414841
0.00414539
0.00414186
0.00413782
0.0041333
0.00412831
0.00412287
0.00411698
0.00411066
0.00410391
0.00409675
0.00408922
0.00408134
0.00407313
0.00406461
0.00405582
0.00404676
0.00403744
0.00402788
0.00401807
0.00400801
0.00399772
0.00398719
0.00397644
0.00396548
0.00395432
0.00394298
0.00393148
0.00391982
0.00390801
0.00389605
0.00388389
0.00387128
0.0038573
0.0038425
1.17308e-07
1.05681e-05
5.49731e-05
0.000111285
0.000158412
0.000189883
0.000206695
0.000212919
0.000212049
0.000206769
0.000199041
0.000189965
0.000180771
0.000171922
0.000164172
0.000157474
0.000152276
0.000149134
0.000147808
0.000148587
0.000151789
0.000157562
0.000165776
0.000176039
0.00018778
0.000200573
0.000213619
0.000226059
0.000238179
0.000251847
0.000267646
0.000285134
0.000305361
0.000329615
0.00035851
0.000392366