/*--------------------------------*- C++ -*----------------------------------*\
  =========                 |
  \\      /  F ield         | OpenFOAM: The Open Source CFD Toolbox
   \\    /   O peration     | Website:  https://openfoam.org
    \\  /    A nd           | Version:  13
     \\/     M anipulation  |
\*---------------------------------------------------------------------------*/
FoamFile
{
    format      ascii;
    class       volScalarField;
    location    "1200";
    object      omega;
}
// * * * * * * * * * * * * * * * * * * * * * * * * * * * * * * * * * * * * * //

dimensions      [0 0 -1 0 0 0 0];

internalField   nonuniform List<scalar> 
12225
(
31477.7
31477.7
31477.7
31477.7
31477.7
41165.1
49244.6
44386.7
37566.3
31477.7
31477.7
43139.7
42539.5
46583.2
48786.9
48110
47834.5
47384.2
65952.8
43686.2
16635.2
21327.4
19660.8
20169.6
20207.9
22429.3
17970
17378.2
16940.7
18496.9
17979.2
19841.6
20433.9
18732.7
21189.5
19619.1
14017.9
12287.5
17776.5
17569.7
12741.5
11932.6
13623
13171.8
11356
10901.3
10185.2
9510.72
8855.02
8165.04
8683.45
8486.57
8708.2
8761.73
3546.2
5198.15
4940.78
10283.5
6810.91
10050.3
9912.28
8571.67
5891.78
6540.2
5966.96
4732.36
3424.64
3733.92
3441.5
3173.61
3057.44
3122.87
0.391217
7888.72
2747.53
6765.62
9381.12
8937.46
7098.17
5438.56
3300.36
3780.55
3386.95
2552.5
1730.11
1900.15
1610.9
1457.61
1405.79
1439.17
0.39773
3752.55
1634.68
4398.77
5294.41
4759.86
3709.21
2835.02
1772.07
2058.12
1861.6
1417.85
1002.86
1094.56
941.877
891.413
862.258
862.343
0.38057
535.873
1743.71
1482.54
1970.47
1983.21
1697.62
1421.4
1008
1166.83
1085.8
880.667
685.784
732.327
657.459
631.715
622.248
623.597
339.837
352.083
480.243
696.039
773.235
872.502
877.104
824.758
687.631
753.379
727.418
639.169
549.327
565.518
528.646
516.706
510.902
511.871
430.271
410.746
420.152
460.272
510.113
559.183
574.566
582.528
568.647
522.544
549.347
535.372
498.819
468.132
473.105
460.742
456.374
459.297
440.399
431.46
431.158
439.427
450.174
464.801
464.739
462.109
461.337
451.433
453.955
458.4
454.533
442.931
433.565
434.972
433.23
432.397
438.737
436.362
435.29
432.579
433.752
435.395
435.878
434.526
432.976
430.116
427.978
426.072
424.38
422.386
420.621
419.076
418.992
418.733
438.944
436.63
434.778
433.069
431.756
430.534
429.406
427.845
426.292
424.56
422.803
421.372
419.737
418.528
417.06
415.876
414.793
413.779
438.994
436.716
434.684
432.747
430.992
429.266
427.692
426.058
424.507
423.018
421.466
420.171
418.762
417.52
416.339
415.087
414.02
412.792
439.002
436.764
434.66
432.669
430.787
428.99
427.289
425.659
424.088
422.63
421.165
419.85
418.543
417.303
416.148
414.981
413.911
412.813
439
436.775
434.657
432.656
430.746
428.941
427.214
425.582
424.012
422.537
421.108
419.766
418.477
417.247
416.082
414.953
413.886
412.848
439
436.774
434.656
432.649
430.739
428.927
427.199
425.559
423.994
422.507
421.086
419.736
418.446
417.217
416.044
414.924
413.855
412.833
439
436.772
434.655
432.645
430.734
428.918
427.191
425.547
423.982
422.491
421.07
419.716
418.425
417.193
416.018
414.897
413.826
412.803
439
436.769
434.65
432.638
430.726
428.907
427.178
425.532
423.966
422.473
421.051
419.695
418.402
417.168
415.992
414.868
413.796
412.771
439
436.771
434.653
432.641
430.73
428.912
427.184
425.538
423.972
422.479
421.057
419.7
418.408
417.173
415.996
414.871
413.799
412.773
439.001
436.772
434.656
432.644
430.735
428.918
427.196
425.552
423.994
422.503
421.088
419.731
418.443
417.205
416.032
414.901
413.833
412.799
438.996
436.78
434.65
432.65
430.737
428.954
427.284
425.704
424.233
422.795
421.452
420.107
418.864
417.616
416.478
415.3
414.269
413.139
439
436.801
434.572
432.682
430.793
429.585
428.477
427.756
427.057
426.341
425.581
424.622
423.822
422.829
422.013
420.773
419.859
418.361
439.212
436.642
433.79
432.264
432.969
436.155
439.718
444.855
449.137
453.374
456.371
459.124
462.103
464.744
466.16
466.284
469.65
469.804
440.325
434.556
436.048
439.176
452.391
478.03
506.925
535.881
560.311
582.537
598.585
612.818
622.411
633.38
638.519
640.113
642.951
643.766
439.865
437.656
460.121
494.076
556.752
661.2
793.052
898.546
1009.81
1091.3
1150.63
1197.11
1196.3
1206
1196.67
1182.7
1184.63
1183.83
472.5
451.681
507.157
833.551
698.556
818.003
1304.76
1190.61
1402.29
1584.86
1776.54
1951.79
2399.76
2326.91
2350.07
2510.09
2553.97
2320.45
768.023
457.458
566.849
921.251
1047.68
1345.5
1380.45
1738.39
5106.67
3692.81
4600.85
6155.51
6959.88
6292.35
6045.44
6008.46
5524.75
5548.58
1875.44
720.483
1594.31
1274.11
1547.41
2022.78
2106.14
2502.89
4275.35
6932.31
5309.83
5339.69
5448.81
5455.73
6879.65
5975.88
6834.67
6982.08
6983.31
6483.98
6447.03
7658.96
8418.66
9224.26
10378
10297.3
10575.1
10775.8
10925.9
11291.5
11683.3
11455.5
11540.6
11402.2
11695.5
11422.1
18117.5
23996.9
25801.7
26663.7
26885.5
26801.9
26527.1
26115
25664
25225.8
24807
24412.2
24059.6
23762.1
23514.8
23333.4
23191.4
23094.1
11463.2
2514.24
2516.41
2518.61
2520.83
2523.07
2525.32
2527.6
2529.9
2532.22
2534.57
2536.93
2539.31
2541.72
2544.15
2546.6
2549.08
2551.57
2554.09
2556.64
2559.2
2561.79
2564.41
2567.05
2569.71
2572.4
2575.12
2577.86
2580.62
2583.41
2586.23
2589.08
2591.95
2594.85
2597.77
2600.73
2603.71
2606.72
2609.76
2612.82
2615.92
2619.05
2622.2
2625.39
2628.61
2631.86
2635.14
2638.45
2641.79
2645.17
2648.58
2652.02
2655.5
2659.01
2662.55
2666.13
2669.74
3258.87
3141.38
3349.4
3155.19
3277.98
3413.48
3236.57
3400.41
3473.41
3559.27
3638.43
3714.88
3789.08
3860.56
3930.2
3998.03
4064.01
4128.73
4191.8
4253.77
4314.35
4373.87
4432.2
4489.49
4545.71
4600.9
4655.09
4708.26
4760.46
4811.66
4861.88
4911.1
4959.32
5006.49
5052.59
5097.59
5141.45
5184.14
5225.57
5265.77
5304.65
5342.3
5378.75
5414.29
5449.34
5483.24
5516.18
5548.09
5579
5608.85
5637.67
5665.4
5692.08
5717.65
5742.14
5765.51
5787.78
5808.91
5828.94
5847.85
5865.64
5882.33
5897.89
5912.34
5925.69
5938.02
5949.27
5959.6
5968.93
5977.61
5985.66
5992.08
5997.02
6002.41
6003.73
6008.52
6007.97
6009.95
6010.49
6010.64
6009.67
6007.71
6004.79
6001.63
5997.51
5992.95
5987.87
5982.36
5976.4
5970.04
5963.3
5956.22
5948.81
5941.09
5933.09
5924.8
5916.26
5907.45
5898.45
5889.24
5879.98
5870.64
5861.52
5852.46
5843.51
5834.53
5825.69
5816.83
5808.07
5799.27
5790.58
5781.87
5773.28
5764.69
5756.15
5747.5
5738.62
5729.16
5718.3
5705.46
5687.44
5659.11
5550.32
11463.2
1992.78
991.985
805.797
688.617
614.731
619.28
616.567
606.726
585.46
562.391
539.214
518.195
500.869
489.037
480.514
480.489
484.3
500.428
550.906
629.489
726.996
835.24
943.694
1044.27
1121.65
1176.58
1175.3
1147.59
1080.72
966.478
831.113
683.583
590.085
519.076
471.573
450.66
453.867
465.633
492.485
524.698
552.945
615.55
713.16
845.246
1081.62
1413.69
1700.52
1885.46
2008.84
2053.81
2066.75
2044.22
2001.61
1946.3
1890.31
1860.37
1864.13
1780.45
1772
1698.4
1692.52
1679.5
1660.37
1656.3
1652.55
1651.03
1651.24
1654.31
1657.94
1662.96
1668.58
1674.99
1681.78
1689.06
1696.53
1704.28
1712.13
1720.1
1728.1
1736.13
1744.13
1752.1
1760
1767.82
1775.53
1783.12
1790.56
1797.83
1804.92
1811.81
1818.5
1824.96
1831.21
1837.25
1843.12
1848.86
1854.6
1860.49
1866.81
1873.93
1882.37
1890.36
1898.26
1905.85
1913.25
1920.39
1927.3
1933.98
1940.42
1946.62
1952.59
1958.32
1963.82
1969.09
1974.13
1978.95
1983.54
1987.92
1992.08
1996.03
1999.79
2003.35
2006.72
2009.92
2012.94
2015.82
2018.52
2020.99
2023.26
2025.42
2027.25
2029.21
2030.72
2032.39
2033.72
2034.63
2034.66
2034.25
2033.93
2033.56
2032.99
2032.32
2031.54
2030.63
2029.6
2028.47
2027.22
2025.88
2024.43
2022.88
2021.25
2019.52
2017.71
2015.83
2013.88
2011.87
2009.82
2007.74
2005.66
2003.55
2001.42
1999.24
1997.04
1994.81
1992.56
1990.27
1987.98
1985.65
1983.33
1981
1978.69
1976.4
1974.17
1971.97
1969.95
1968.15
1966.91
1965.36
1975.25
11463.2
2007.46
807.192
624.922
659.357
665.103
640.641
588.577
530.602
475.749
426.719
385.835
353.441
327.93
308.209
293.079
282.315
274.504
271.427
274.06
281.368
299.51
329.296
370.179
423.225
481.021
543.962
592.098
630.438
633.808
620.548
585.944
528.009
460.951
403.716
372.69
375.636
390.414
416.839
464.891
551.225
675.224
845.776
1038.34
1204.16
1342.91
1470.12
1539.33
1552.34
1537.27
1486.14
1431.41
1371.99
1316.67
1263.69
1220.26
1187.6
1168.59
1139.91
1128.8
1109.38
1103.65
1100.81
1093.6
1093.07
1092.34
1092.55
1094.17
1096.37
1099.06
1102.22
1105.69
1109.43
1113.36
1117.46
1121.66
1125.96
1130.32
1134.72
1139.14
1143.57
1148
1152.4
1156.78
1161.12
1165.42
1169.66
1173.85
1177.97
1182.02
1186
1189.92
1193.79
1197.61
1201.39
1205.18
1208.98
1212.86
1216.83
1220.95
1225.22
1229.51
1233.61
1237.63
1241.5
1245.26
1248.88
1252.37
1255.74
1258.99
1262.1
1265.09
1267.95
1270.69
1273.3
1275.79
1278.16
1280.4
1282.53
1284.53
1286.42
1288.21
1289.87
1291.44
1292.89
1294.25
1295.5
1296.65
1297.68
1298.61
1299.45
1300.15
1300.81
1301.32
1301.77
1302.07
1302.11
1301.96
1301.73
1301.37
1301.11
1300.59
1300.1
1299.53
1298.84
1298.09
1297.26
1296.35
1295.37
1294.32
1293.19
1292
1290.74
1289.43
1288.06
1286.66
1285.19
1283.69
1282.13
1280.54
1278.91
1277.22
1275.48
1273.7
1271.87
1270
1268.08
1266.13
1264.14
1262.13
1260.09
1258.04
1256.02
1254.06
1252.22
1250.61
1249.37
1249.07
1250.09
1260.13
11463.2
2034.24
992.247
946.116
882.396
759.451
646.744
543.298
460.553
398.575
351.971
315.367
286.814
264.777
247.848
234.911
225.175
218.082
213.284
211.123
211.599
215.023
221.45
234.29
254.139
280.498
314.065
348.289
381.547
405.782
418.205
414.316
400.061
379.743
396.503
459.609
535.221
592.188
651.931
731.001
845.772
982.754
1087.77
1160.77
1224.13
1267.43
1277.54
1221.03
1190.83
1136.37
1088.5
1043.87
1005.45
972.61
944.823
923.371
907.183
896.317
885.682
880.762
874.379
872.206
871.419
870.577
870.992
872.159
873.823
875.99
878.461
881.201
884.158
887.283
890.548
893.92
897.38
900.907
904.487
908.105
911.75
915.412
919.082
922.753
926.416
930.067
933.699
937.308
940.889
944.44
947.957
951.441
954.892
958.314
961.71
965.084
968.445
971.799
975.153
978.514
981.881
985.245
988.581
991.841
994.998
998.065
1001.03
1003.91
1006.68
1009.36
1011.94
1014.42
1016.8
1019.08
1021.26
1023.34
1025.32
1027.2
1028.98
1030.65
1032.23
1033.7
1035.08
1036.36
1037.54
1038.63
1039.62
1040.52
1041.33
1042.04
1042.66
1043.19
1043.62
1043.96
1044.22
1044.37
1044.43
1044.41
1044.15
1043.84
1043.45
1042.99
1042.49
1041.91
1041.26
1040.54
1039.74
1038.87
1037.93
1036.92
1035.84
1034.69
1033.47
1032.19
1030.85
1029.45
1027.99
1026.48
1024.92
1023.3
1021.63
1019.92
1018.15
1016.33
1014.45
1012.53
1010.55
1008.54
1006.47
1004.37
1002.22
1000.04
997.83
995.614
993.412
991.262
989.219
987.383
985.894
985.213
985.918
991.76
11463.2
2289.04
1428.57
1160.77
926.067
720.493
557.734
447.358
371.08
317.423
279.182
251.737
231.709
216.773
205.543
197.1
190.763
186.135
182.987
181.273
181.553
182.752
185.75
191.774
201.423
215.548
235.072
257.763
281.644
302.516
317.249
337.101
371.955
451.871
549.726
622.423
688.189
760.784
838.242
909.635
971.289
1025.1
1069.02
1089.54
1091.12
1047.33
1006.86
964.456
928.692
890.191
860.347
833.841
812.418
794.727
780.665
770.119
762.463
757.39
753.386
752.054
750.397
750.478
751.431
752.722
754.594
756.853
759.408
762.215
765.208
768.356
771.632
775.012
778.478
782.013
785.607
789.247
792.924
796.629
800.354
804.092
807.837
811.581
815.321
819.05
822.765
826.461
830.134
833.782
837.402
840.992
844.554
848.087
851.591
855.066
858.514
861.934
865.324
868.68
871.993
875.25
878.44
881.549
884.571
887.507
890.354
893.112
895.779
898.353
900.833
903.219
905.509
907.703
909.798
911.793
913.688
915.481
917.172
918.759
920.243
921.623
922.901
924.076
925.15
926.121
926.991
927.761
928.43
928.999
929.468
929.837
930.11
930.276
930.348
930.328
930.145
929.883
929.531
929.075
928.537
927.92
927.231
926.464
925.623
924.704
923.707
922.634
921.487
920.268
918.976
917.612
916.179
914.679
913.115
911.49
909.805
908.061
906.258
904.398
902.482
900.513
898.489
896.41
894.277
892.094
889.861
887.581
885.255
882.886
880.476
878.033
875.568
873.093
870.627
868.203
865.872
863.716
861.853
860.611
860.535
863.244
11463.2
2869.37
1698.67
1189.96
827.662
584.912
443.213
355.266
301.265
266.629
242.022
223.36
208.468
196.514
186.94
179.379
173.592
169.415
166.67
165.365
165.554
166.71
169.405
174.055
180.919
191.097
205.689
224.689
248.56
281.967
331.182
399.273
501.214
600.083
671.287
735.807
795.031
843.538
882.208
916.382
947.084
960.008
951.933
919.607
890.096
854.562
823.261
793.49
768.228
745.437
727.456
712.219
700.165
690.645
683.511
678.511
675.336
673.842
673.217
673.593
674.537
676.293
678.561
681.167
684.105
687.285
690.659
694.19
697.845
701.603
705.449
709.367
713.347
717.379
721.455
725.566
729.706
733.866
738.041
742.224
746.408
750.589
754.76
758.917
763.055
767.171
771.26
775.318
779.343
783.331
787.282
791.194
795.066
798.895
802.679
806.415
810.1
813.727
817.287
820.774
824.182
827.505
830.741
833.887
836.941
839.902
842.767
845.534
848.201
850.766
853.228
855.587
857.837
859.979
862.009
863.926
865.729
867.416
868.986
870.439
871.774
872.992
874.094
875.078
875.946
876.698
877.334
877.855
878.262
878.557
878.739
878.795
878.718
878.53
878.24
877.84
877.335
876.725
876.02
875.222
874.337
873.364
872.309
871.166
869.938
868.626
867.234
865.763
864.213
862.587
860.886
859.113
857.271
855.363
853.391
851.354
849.255
847.093
844.872
842.593
840.257
837.864
835.416
832.916
830.367
827.769
825.124
822.435
819.703
816.936
814.143
811.337
808.536
805.77
803.08
800.535
798.224
796.389
795.349
796.022
11463.2
3378.95
1751.63
1031.27
649.979
454.227
351.625
294.345
258.497
234.368
216.806
203.236
192.463
183.477
175.881
169.581
164.572
160.873
158.596
157.847
158.483
160.603
164.693
171.03
180.466
193.453
212.058
239.946
282.685
348.275
445.742
543.376
618.075
681.257
734.979
776.463
808.339
835.364
853.446
860.067
848.437
824.187
802.269
775.304
750.569
725.513
703.761
684.417
668.213
654.502
643.557
634.741
628.03
623.133
619.928
618.341
617.859
618.285
619.572
621.577
624.1
627.119
630.508
634.172
638.069
642.145
646.366
650.703
655.136
659.65
664.233
668.874
673.566
678.301
683.072
687.873
692.696
697.534
702.38
707.227
712.069
716.899
721.712
726.503
731.266
735.998
740.693
745.348
749.956
754.516
759.025
763.48
767.879
772.219
776.497
780.709
784.852
788.923
792.918
796.834
800.662
804.395
808.031
811.568
815.003
818.333
821.555
824.665
827.662
830.542
833.299
835.93
838.436
840.816
843.068
845.189
847.177
849.031
850.75
852.332
853.779
855.089
856.264
857.303
858.207
858.977
859.612
860.116
860.489
860.733
860.834
860.786
860.618
860.324
859.909
859.374
858.72
857.952
857.074
856.091
855.007
853.821
852.529
851.135
849.646
848.065
846.395
844.637
842.794
840.868
838.86
836.775
834.614
832.382
830.08
827.709
825.269
822.764
820.195
817.564
814.874
812.125
809.32
806.461
803.551
800.591
797.583
794.528
791.43
788.296
785.134
781.957
778.781
775.633
772.546
769.575
766.787
764.361
762.433
761.521
11463.2
3533.65
1558.69
815.98
514.982
384.509
316.54
275.114
246.215
226.262
211.209
199.148
188.945
180.25
172.915
166.952
162.488
159.725
158.649
159.083
161.13
165.273
172.012
182.292
198.697
224.076
262.503
323.904
405.231
488.299
555.475
613.855
664.257
705.52
737.816
764.49
777.76
780.697
769.409
751.335
733.2
712.841
693.819
674.144
655.963
638.963
624.357
611.838
601.482
593.052
586.488
581.564
578.163
576.333
575.703
575.946
577.209
579.254
581.97
585.255
588.987
593.102
597.521
602.18
607.034
612.044
617.18
622.422
627.75
633.15
638.614
644.13
649.692
655.291
660.923
666.579
672.253
677.934
683.615
689.289
694.947
700.583
706.19
711.764
717.297
722.784
728.225
733.608
738.93
744.187
749.374
754.49
759.532
764.496
769.378
774.175
778.885
783.505
788.037
792.47
796.796
801.01
805.11
809.091
812.953
816.69
820.301
823.782
827.13
830.341
833.414
836.345
839.131
841.771
844.263
846.602
848.788
850.819
852.692
854.407
855.965
857.364
858.606
859.691
860.62
861.393
862.013
862.48
862.796
862.952
862.956
862.803
862.509
862.073
861.501
860.792
859.951
858.981
857.887
856.674
855.347
853.909
852.365
850.709
848.949
847.089
845.131
843.079
840.934
838.698
836.375
833.967
831.478
828.913
826.272
823.558
820.77
817.913
814.989
812
808.949
805.838
802.667
799.441
796.163
792.833
789.453
786.026
782.555
779.048
775.512
771.959
768.406
764.873
761.391
758.001
754.749
751.736
749.035
746.797
11463.2
3389.86
1286.72
659.653
438.698
340.897
289.313
258.34
238.298
222.472
209.696
199.082
190.148
182.571
176.324
171.59
168.637
167.622
168.759
172.26
178.632
189.262
205.336
229.013
265.812
317.294
380.486
443.891
501.437
552.553
596.881
635.07
667.233
695.261
710.218
713.646
705.573
692.577
677.415
661.518
646.416
631.415
617.112
603.118
590.258
578.741
568.95
560.786
554.216
549.137
545.471
543.237
542.305
542.227
543.216
545.073
547.731
551.07
554.99
559.407
564.236
569.411
574.87
580.56
586.438
592.471
598.631
604.899
611.257
617.689
624.182
630.724
637.308
643.922
650.559
657.218
663.886
670.551
677.205
683.838
690.442
697.009
703.533
710.007
716.423
722.773
729.039
735.234
741.353
747.391
753.344
759.209
764.983
770.661
776.238
781.712
787.079
792.333
797.468
802.48
807.365
812.118
816.736
821.216
825.553
829.745
833.789
837.68
841.416
844.994
848.408
851.657
854.738
857.648
860.385
862.946
865.329
867.531
869.551
871.388
873.042
874.514
875.803
876.912
877.841
878.592
879.167
879.566
879.784
879.831
879.707
879.412
878.954
878.337
877.566
876.643
875.572
874.356
873.003
871.516
869.902
868.162
866.302
864.324
862.232
860.031
857.723
855.313
852.803
850.195
847.493
844.699
841.818
838.855
835.811
832.688
829.489
826.216
822.873
819.463
815.988
812.449
808.85
805.192
801.48
797.715
793.898
790.032
786.124
782.178
778.204
774.212
770.216
766.237
762.297
758.432
754.674
751.122
747.773
744.501
11463.2
2984.09
1042.67
569.514
404.354
326.583
283.791
257.149
239.278
226.311
216.018
207.4
200.13
194.277
190.082
188.218
188.741
192.522
199.409
209.967
225.514
248.261
279.817
320.325
365.809
413.025
458.72
500.71
538.735
572.406
601.728
628.174
646.094
652.286
649.792
641.47
630.049
617.701
605.558
593.951
582.93
572.155
561.754
551.843
542.864
535.045
528.532
523.311
519.358
516.616
515.233
514.841
515.398
516.906
519.302
522.491
526.392
530.921
535.996
541.546
547.504
553.81
560.406
567.243
574.279
581.479
588.814
596.267
603.829
611.464
619.156
626.893
634.661
642.441
650.213
657.941
665.645
673.341
681.023
688.676
696.292
703.862
711.38
718.837
726.227
733.544
740.79
747.943
754.991
761.928
768.749
775.453
782.036
788.494
794.823
801.018
807.076
812.993
818.764
824.388
829.86
835.176
840.332
845.324
850.148
854.801
859.28
863.58
867.698
871.63
875.373
878.922
882.276
885.431
888.385
891.136
893.681
896.018
898.145
900.061
901.767
903.263
904.55
905.631
906.508
907.182
907.654
907.921
907.994
907.878
907.565
907.064
906.381
905.522
904.491
903.292
901.93
900.409
898.736
896.916
894.955
892.857
890.627
888.27
885.79
883.191
880.479
877.656
874.726
871.693
868.559
865.327
862.003
858.591
855.092
851.511
847.849
844.112
840.303
836.424
832.479
828.468
824.393
820.259
816.068
811.822
807.523
803.175
798.784
794.357
789.902
785.428
780.949
776.481
772.045
767.668
763.376
759.244
755.244
751.008
11463.2
2512.55
876.17
505.553
375.107
315
281.535
261.375
247.817
237.815
229.967
223.779
219.269
217.213
217.462
221.2
228.738
239.348
252.939
271.569
295.811
324.907
357.502
391.88
426.215
459.327
490.379
518.62
544.069
567.6
586.578
595.517
597.226
593.844
587.056
578.326
569.132
560.229
551.792
543.714
535.852
528.12
520.66
513.702
507.533
502.333
498.194
495.133
493.258
492.513
492.6
493.715
495.751
498.666
502.406
506.902
512.081
517.87
524.202
531.011
538.241
545.856
553.79
561.981
570.387
578.968
587.68
596.464
605.262
614.133
623.072
632.064
641.092
650.131
659.167
668.2
677.209
686.182
695.115
703.985
712.781
721.499
730.133
738.678
747.126
755.468
763.691
771.784
779.742
787.559
795.231
802.758
810.135
817.358
824.423
831.326
838.063
844.631
851.027
857.248
863.289
869.146
874.814
880.289
885.566
890.642
895.514
900.177
904.63
908.866
912.882
916.673
920.238
923.574
926.678
929.55
932.186
934.584
936.742
938.66
940.338
941.778
942.981
943.952
944.691
945.203
945.482
945.543
945.387
945.013
944.426
943.633
942.639
941.452
940.078
938.521
936.786
934.88
932.809
930.579
928.197
925.667
922.996
920.189
917.25
914.186
911.001
907.7
904.287
900.765
897.137
893.408
889.581
885.66
881.65
877.554
873.377
869.124
864.797
860.401
855.937
851.406
846.81
842.153
837.436
832.663
827.837
822.962
818.046
813.095
808.117
803.12
798.117
793.121
788.15
783.227
778.371
773.642
769.009
763.891
11463.2
2171.82
815.547
492.041
372.419
317.408
289.221
272.71
262.107
254.859
249.864
247.163
246.554
248.701
254.086
262.896
274.608
288.817
306.489
327.34
350.663
375.536
401.006
426.288
450.766
473.6
494.851
515.074
532.716
543.603
547.696
548.176
545.801
541.068
535.205
528.986
522.891
517.039
511.362
505.76
500.193
494.725
489.533
484.841
480.862
477.741
475.581
474.553
474.379
475.19
476.933
479.607
483.169
487.583
492.824
498.845
505.542
512.85
520.704
529.035
537.757
546.737
555.997
565.553
575.375
585.425
595.665
606.069
616.627
627.267
637.947
648.64
659.337
669.985
680.554
691.029
701.393
711.631
721.734
731.72
741.595
751.361
761.019
770.569
780.001
789.3
798.452
807.443
816.265
824.913
833.384
841.678
849.791
857.718
865.455
872.998
880.343
887.488
894.43
901.167
907.694
914.006
920.097
925.962
931.598
937
942.166
947.093
951.776
956.21
960.392
964.318
967.984
971.388
974.529
977.406
980.017
982.359
984.431
986.232
987.764
989.028
990.026
990.767
991.249
991.478
991.456
991.189
990.68
989.934
988.958
987.757
986.34
984.715
982.888
980.867
978.657
976.265
973.697
970.961
968.064
965.011
961.81
958.465
954.984
951.372
947.634
943.777
939.803
935.719
931.526
927.23
922.833
918.339
913.754
909.083
904.334
899.509
894.612
889.646
884.613
879.513
874.347
869.118
863.828
858.482
853.083
847.638
842.155
836.639
831.098
825.539
819.972
814.41
808.868
803.364
797.916
792.572
787.315
781.374
11463.2
1877.88
741.42
470.43
370.511
324.617
300.905
287.53
279.551
275.009
273.144
273.12
275.808
281.13
289.154
299.645
312.298
327.174
343.856
361.813
380.669
399.7
418.322
436.113
453.342
470.207
485.299
496.523
502.524
505.072
505.809
504.848
502.388
499.091
495.457
491.741
488.043
484.354
480.639
476.9
473.2
469.675
466.502
463.867
461.951
461.014
460.864
461.731
463.637
466.465
470.186
474.783
480.219
486.43
493.293
500.741
508.884
517.7
527.133
537.123
547.614
558.592
569.982
581.719
593.756
606.048
618.536
631.174
643.936
656.72
669.44
682.035
694.439
706.637
718.613
730.357
741.865
753.141
764.207
775.097
785.837
796.442
806.923
817.29
827.531
837.623
847.539
857.255
866.767
876.072
885.168
894.054
902.727
911.182
919.415
927.419
935.192
942.734
950.042
957.113
963.943
970.528
976.86
982.935
988.748
994.297
999.576
1004.59
1009.32
1013.77
1017.95
1021.83
1025.42
1028.72
1031.72
1034.43
1036.85
1038.96
1040.78
1042.29
1043.51
1044.44
1045.07
1045.42
1045.48
1045.27
1044.79
1044.04
1043.03
1041.76
1040.25
1038.5
1036.52
1034.31
1031.9
1029.29
1026.47
1023.47
1020.29
1016.93
1013.4
1009.72
1005.88
1001.89
997.77
993.513
989.128
984.622
980.001
975.269
970.43
965.489
960.45
955.309
950.08
944.771
939.388
933.934
928.411
922.82
917.164
911.442
905.656
899.808
893.897
887.93
881.915
875.859
869.768
863.648
857.505
851.345
845.178
839.013
832.865
826.751
820.684
814.707
808.83
802.111
11463.2
1889.23
743.478
474.545
379.01
336.417
315.371
304.127
298.094
295.426
294.878
296.775
301.097
307.625
316.097
326.207
337.704
350.347
363.791
377.691
391.637
405.304
418.875
432.547
444.862
454.431
461.199
465.815
468.715
470.043
470.454
470.157
469.151
467.771
466.189
464.48
462.68
460.813
458.925
457.111
455.53
454.455
453.957
453.959
454.753
456.383
458.795
461.929
465.616
470.195
475.724
482.202
489.607
497.902
507.081
517.138
527.994
539.608
551.902
564.801
578.244
592.178
606.519
621.184
636.112
651.287
666.571
681.842
696.974
711.897
726.548
740.858
754.764
768.237
781.264
793.844
805.992
817.729
829.133
840.314
851.344
862.238
873.025
883.74
894.361
904.843
915.134
925.179
934.991
944.572
953.917
963.025
971.894
980.516
988.886
996.999
1004.85
1012.45
1019.78
1026.85
1033.66
1040.19
1046.44
1052.42
1058.1
1063.49
1068.59
1073.39
1077.89
1082.09
1085.98
1089.55
1092.81
1095.74
1098.36
1100.65
1102.63
1104.28
1105.61
1106.61
1107.3
1107.67
1107.7
1107.47
1106.92
1106.07
1104.92
1103.5
1101.8
1099.83
1097.6
1095.12
1092.41
1089.47
1086.31
1082.94
1079.38
1075.62
1071.68
1067.56
1063.27
1058.83
1054.23
1049.48
1044.6
1039.59
1034.45
1029.19
1023.82
1018.34
1012.77
1007.1
1001.33
995.468
989.526
983.514
977.435
971.291
965.082
958.809
952.474
946.078
939.62
933.103
926.523
919.893
913.221
906.514
899.778
893.017
886.237
879.441
872.639
865.838
859.052
852.3
845.595
838.969
832.476
825.019
11463.2
1836.96
732.731
479.075
389.522
349.816
330.25
319.868
314.516
312.344
312.084
314.456
318.933
325.132
332.641
341.131
350.405
360.249
370.43
380.71
391.197
401.785
411.235
419.055
425.553
431.009
435.495
439.001
441.75
443.894
445.642
447.117
448.443
449.558
450.491
451.294
452.021
452.73
453.488
454.355
455.348
456.328
457.842
460.116
463.428
467.792
473.121
479.433
486.827
495.235
504.678
515.164
526.667
539.129
552.517
566.794
581.921
597.894
614.498
631.608
649.123
666.946
684.977
703.111
721.238
739.201
756.949
774.404
791.462
808.022
823.981
839.235
853.703
867.389
880.333
892.572
904.14
915.016
925.405
935.634
945.873
956.013
966.117
976.316
986.53
996.656
1006.62
1016.4
1025.94
1035.24
1044.28
1053.06
1061.58
1069.82
1077.79
1085.47
1092.87
1099.99
1106.82
1113.38
1119.65
1125.63
1131.33
1136.72
1141.81
1146.59
1151.07
1155.23
1159.08
1162.61
1165.82
1168.71
1171.26
1173.48
1175.35
1176.9
1178.11
1179
1179.54
1179.73
1179.6
1179.14
1178.34
1177.23
1175.79
1174.05
1172
1169.66
1167.04
1164.14
1160.97
1157.55
1153.89
1150
1145.89
1141.57
1137.06
1132.35
1127.47
1122.41
1117.18
1111.8
1106.27
1100.6
1094.8
1088.87
1082.83
1076.68
1070.42
1064.07
1057.62
1051.09
1044.49
1037.82
1031.1
1024.33
1017.49
1010.59
1003.64
996.623
989.552
982.424
975.243
968.009
960.716
953.384
946.021
938.629
931.213
923.779
916.327
908.863
901.396
893.927
886.479
879.071
871.714
864.43
857.326
849.173
11463.7
1819.72
733.786
487.801
400.195
361.51
342.758
332.381
326.755
324.378
323.944
325.867
329.612
334.716
340.759
347.493
354.802
362.568
370.697
378.604
386.236
393.339
400.211
406.716
412.825
418.602
424.065
429.226
434.114
438.692
442.95
446.802
450.039
453.071
456.061
459.087
462.229
465.571
469.208
473.24
477.801
483.147
489.379
496.731
505.46
515.4
526.389
538.459
551.634
565.852
581.11
597.462
614.918
633.214
652.206
671.769
691.744
711.957
732.382
752.937
773.522
794.043
814.41
834.538
854.34
873.731
892.642
911.007
928.749
945.783
962.012
977.294
991.471
1004.66
1017
1028.55
1039.35
1049.45
1058.94
1067.95
1076.59
1084.97
1093.34
1102.24
1111.29
1120.27
1129.09
1137.74
1146.15
1154.28
1162.12
1169.68
1176.96
1183.95
1190.64
1197.03
1203.12
1208.92
1214.44
1219.68
1224.65
1229.33
1233.73
1237.83
1241.64
1245.15
1248.35
1251.25
1253.84
1256.14
1258.12
1259.78
1261.14
1262.13
1262.79
1263.13
1263.14
1262.86
1262.2
1261.2
1259.88
1258.23
1256.25
1253.94
1251.31
1248.38
1245.15
1241.62
1237.82
1233.74
1229.41
1224.82
1220
1214.96
1209.71
1204.26
1198.62
1192.81
1186.82
1180.66
1174.36
1167.91
1161.32
1154.61
1147.77
1140.83
1133.78
1126.63
1119.39
1112.07
1104.67
1097.19
1089.66
1082.09
1074.48
1066.83
1059.12
1051.36
1043.55
1035.69
1027.78
1019.82
1011.82
1003.79
995.739
987.666
979.569
971.448
963.307
955.15
946.98
938.805
930.633
922.467
914.334
906.252
898.232
890.282
882.562
873.752
11462.8
1800.92
735.418
493.465
407.498
369.457
351.004
340.427
334.6
332.064
331.496
333.087
336.44
341.113
346.759
353.11
359.996
367.225
374.635
382.449
390.364
398.129
405.825
413.451
421.029
428.594
436.17
443.787
451.462
459.064
466.645
474.26
482.101
490.172
498.543
507.303
516.542
526.359
536.861
548.159
560.37
573.635
587.939
603.265
619.429
636.448
654.442
673.421
693.293
713.952
735.324
757.409
779.792
802.404
825.122
847.818
870.355
892.6
914.468
935.883
956.787
977.144
996.92
1016.09
1034.63
1052.52
1069.74
1086.27
1102.1
1117.19
1131.51
1145.05
1157.74
1169.52
1180.59
1191.02
1200.8
1210
1218.56
1226.39
1233.51
1240.33
1247.3
1254.44
1261.42
1268.15
1274.58
1280.73
1286.59
1292.16
1297.46
1302.5
1307.28
1311.78
1316.03
1320.01
1323.74
1327.23
1330.49
1333.52
1336.34
1338.91
1341.25
1343.36
1345.21
1346.79
1348.12
1349.2
1350.02
1350.57
1350.86
1350.85
1350.63
1350
1349.09
1347.9
1346.41
1344.63
1342.54
1340.14
1337.43
1334.41
1331.08
1327.46
1323.54
1319.34
1314.86
1310.12
1305.12
1299.87
1294.39
1288.68
1282.76
1276.64
1270.33
1263.84
1257.18
1250.37
1243.4
1236.29
1229.04
1221.67
1214.18
1206.57
1198.86
1191.05
1183.15
1175.17
1167.1
1158.97
1150.76
1142.49
1134.15
1125.76
1117.33
1108.84
1100.3
1091.72
1083.09
1074.41
1065.69
1056.92
1048.12
1039.29
1030.46
1021.62
1012.75
1003.86
994.96
986.047
977.13
968.22
959.326
950.478
941.679
932.945
924.283
915.694
907.378
897.985
11461.8
1788.39
737.903
495.954
412.127
374.966
357.258
347.177
342.287
340.625
340.842
343.527
347.895
353.517
360.259
368.259
377.188
386.277
396.001
406.698
418.217
430.025
442.187
454.854
468.047
481.756
495.965
510.65
525.749
541.356
557.539
574.346
591.858
609.99
628.743
648.154
668.273
689.173
710.975
733.767
757.441
781.927
807.05
832.62
858.415
884.404
910.839
937.793
964.688
991.26
1017.27
1042.25
1066.2
1089.15
1111.06
1131.91
1151.66
1170.3
1187.89
1204.44
1220.03
1234.7
1248.52
1261.54
1273.81
1285.38
1296.28
1306.55
1316.21
1325.28
1333.8
1341.89
1349.68
1357.21
1364.42
1371.19
1377.41
1382.91
1387.92
1392.63
1397.19
1402.01
1406.8
1410.84
1414.27
1417.27
1419.94
1422.35
1424.52
1426.49
1428.27
1429.85
1431.25
1432.47
1433.53
1434.43
1435.18
1435.81
1436.3
1436.67
1436.89
1436.96
1436.86
1436.68
1436.29
1435.68
1434.91
1433.96
1432.83
1431.5
1429.95
1428.18
1426.18
1423.92
1421.42
1418.67
1415.68
1412.44
1408.93
1405.15
1401.11
1396.81
1392.24
1387.42
1382.35