/*--------------------------------*- C++ -*----------------------------------*\
  =========                 |
  \\      /  F ield         | OpenFOAM: The Open Source CFD Toolbox
   \\    /   O peration     | Website:  https://openfoam.org
    \\  /    A nd           | Version:  13
     \\/     M anipulation  |
\*---------------------------------------------------------------------------*/
FoamFile
{
    format      ascii;
    class       volScalarField;
    location    "1200";
    object      p;
}
// * * * * * * * * * * * * * * * * * * * * * * * * * * * * * * * * * * * * * //

dimensions      [0 2 -2 0 0 0 0];

internalField   nonuniform List<scalar> 
12225
(
-4.36251
-5.22299
-5.61229
-5.74714
-5.8816
-6.03028
-6.15653
-6.26161
-6.35272
-6.43268
-6.51026
-6.58444
-6.64986
-6.71007
-6.77134
-6.83788
-6.91564
-7.01689
-4.64428
-5.25201
-5.58217
-5.71558
-5.84826
-5.99156
-6.11972
-6.2253
-6.31516
-6.39857
-6.4769
-6.54981
-6.61542
-6.67622
-6.73877
-6.80598
-6.87675
-6.93449
-4.81314
-5.2535
-5.56785
-5.72316
-5.85791
-5.99748
-6.1233
-6.22672
-6.31557
-6.39862
-6.47517
-6.54452
-6.60802
-6.66855
-6.72915
-6.79096
-6.8524
-6.9029
-4.94225
-5.27349
-5.57239
-5.73469
-5.86121
-5.99159
-6.11299
-6.21538
-6.3041
-6.38607
-6.46135
-6.52997
-6.59337
-6.6538
-6.7133
-6.77237
-6.8294
-6.87746
-5.0698
-5.31823
-5.5869
-5.74626
-5.8664
-5.99045
-6.10887
-6.21064
-6.29911
-6.38015
-6.45476
-6.52312
-6.58618
-6.64576
-6.7035
-6.75954
-6.81234
-6.85716
-5.18507
-5.36939
-5.60198
-5.75683
-5.87422
-5.99305
-6.10747
-6.20736
-6.29471
-6.37447
-6.44804
-6.51561
-6.57786
-6.63625
-6.69208
-6.74521
-6.79446
-6.8369
-5.28837
-5.42324
-5.62109
-5.76991
-5.88501
-5.9983
-6.10793
-6.20532
-6.29117
-6.36943
-6.4417
-6.50827
-6.5696
-6.62686
-6.68094
-6.73166
-6.77826
-6.81893
-5.37976
-5.47878
-5.6457
-5.78605
-5.89779
-6.00537
-6.1098
-6.20413
-6.28799
-6.36439
-6.43502
-6.50025
-6.56043
-6.61639
-6.66874
-6.7174
-6.76188
-6.8011
-5.4593
-5.53407
-5.67418
-5.80407
-5.91138
-6.01323
-6.11224
-6.20304
-6.28456
-6.35897
-6.42783
-6.49155
-6.55045
-6.60507
-6.65583
-6.70273
-6.74556
-6.78359
-5.52915
-5.58735
-5.70446
-5.82275
-5.92471
-6.02091
-6.1145
-6.20154
-6.28056
-6.35295
-6.42
-6.48216
-6.53969
-6.59295
-6.64226
-6.68763
-6.72903
-6.76602
-5.59187
-5.63797
-5.73554
-5.8418
-5.93762
-6.02824
-6.11654
-6.19969
-6.27605
-6.34635
-6.41158
-6.47218
-6.52831
-6.58024
-6.62818
-6.6722
-6.71238
-6.74838
-5.64401
-5.68174
-5.76438
-5.85979
-5.94946
-6.03496
-6.11848
-6.19796
-6.27174
-6.34005
-6.4036
-6.46271
-6.51755
-6.56826
-6.61502
-6.65791
-6.69706
-6.7323
-5.69094
-5.72241
-5.79257
-5.87784
-5.96129
-6.04179
-6.1207
-6.19651
-6.26764
-6.33391
-6.39573
-6.45336
-6.50685
-6.55635
-6.60197
-6.64382
-6.68206
-6.7166
-5.73874
-5.76481
-5.82345
-5.89829
-5.97476
-6.04975
-6.12366
-6.19538
-6.26343
-6.32729
-6.38709
-6.44293
-6.49487
-6.54295
-6.5873
-6.62801
-6.66529
-6.69906
-5.78549
-5.80696
-5.85556
-5.92036
-5.98942
-6.05857
-6.12731
-6.19465
-6.25925
-6.32036
-6.37784
-6.43165
-6.48181
-6.52831
-6.57127
-6.61076
-6.647
-6.67998
-5.82835
-5.84608
-5.8865
-5.94233
-6.00414
-6.06749
-6.13114
-6.19408
-6.25505
-6.31321
-6.36816
-6.4198
-6.46801
-6.51285
-6.55431
-6.59257
-6.62771
-6.65988
-5.86327
-5.87821
-5.91253
-5.9612
-6.01674
-6.0749
-6.13401
-6.19294
-6.25049
-6.30576
-6.35824
-6.40768
-6.454
-6.49713
-6.53716
-6.57413
-6.60824
-6.63954
-5.88419
-5.8974
-5.928
-5.97216
-6.02353
-6.07808
-6.13398
-6.18999
-6.24496
-6.29795
-6.34841
-6.39603
-6.4407
-6.48235
-6.52106
-6.55687
-6.58997
-6.62044
-5.8812
-5.89415
-5.92421
-5.96777
-6.01851
-6.07243
-6.12765
-6.18294
-6.23714
-6.28931
-6.33889
-6.38559
-6.42932
-6.47003
-6.50782
-6.54275
-6.57503
-6.6048
-5.84611
-5.86109
-5.89538
-5.94397
-5.9992
-6.05673
-6.115
-6.17285
-6.22907
-6.28267
-6.33321
-6.38046
-6.42442
-6.46507
-6.50259
-6.53705
-6.56875
-6.59788
-5.79664
-5.81502
-5.85651
-5.9134
-5.97556
-6.03862
-6.10163
-6.16361
-6.22314
-6.27925
-6.3316
-6.38015
-6.42489
-6.46595
-6.50346
-6.53773
-6.56892
-6.59751
-5.73337
-5.75732
-5.8102
-5.87885
-5.94981
-6.0196
-6.0886
-6.15581
-6.21949
-6.27875
-6.33348
-6.38374
-6.42958
-6.47117
-6.50877
-6.54274
-6.57341
-6.60128
-5.65816
-5.69085
-5.76028
-5.84356
-5.92404
-6.00118
-6.07703
-6.15006
-6.21819
-6.28084
-6.3382
-6.39045
-6.43761
-6.4798
-6.51746
-6.55098
-6.5809
-6.60778
-5.57157
-5.61741
-5.70935
-5.80856
-5.89788
-5.98277
-6.06647
-6.1459
-6.21862
-6.28471
-6.34484
-6.39916
-6.44768
-6.49062
-6.52837
-6.56156
-6.59074
-6.61679
-5.47379
-5.54032
-5.66027
-5.77415
-5.86982
-5.96223
-6.05474
-6.1414
-6.2193
-6.28939
-6.35266
-6.40924
-6.45915
-6.50264
-6.54023
-6.57266
-6.60068
-6.6254
-5.36658
-5.46743
-5.61957
-5.74616
-5.84598
-5.94464
-6.04468
-6.13762
-6.22044
-6.29466
-6.36148
-6.42074
-6.47235
-6.51671
-6.55439
-6.58625
-6.61326
-6.63693
-5.25938
-5.39858
-5.58756
-5.72305
-5.82889
-5.9362
-6.04302
-6.14025
-6.22639
-6.30341
-6.37226
-6.43289
-6.48507
-6.52901
-6.56576
-6.59631
-6.62167
-6.64398
-5.13723
-5.35467
-5.57322
-5.70106
-5.81034
-5.92911
-6.04441
-6.14668
-6.23711
-6.31831
-6.39027
-6.45293
-6.50583
-6.54896
-6.58399
-6.61255
-6.63584
-6.6564
-4.92545
-5.33737
-5.58918
-5.69713
-5.79903
-5.92095
-6.03911
-6.14279
-6.2346
-6.31831
-6.39409
-6.46029
-6.51582
-6.56057
-6.59563
-6.6229
-6.64444
-6.66133
-4.647
-5.25703
-5.57115
-5.68853
-5.7973
-5.92792
-6.05403
-6.16391
-6.25896
-6.34458
-6.42467
-6.49549
-6.55463
-6.60243
-6.63751
-6.66191
-6.68008
-6.69129
-7.52517
-7.52526
-7.52529
-7.52526
-7.52499
-7.52389
-7.52156
-7.51841
-7.51538
-7.5134
-7.51345
-7.51576
-7.51988
-7.5251
-7.53067
-7.53595
-7.54041
-7.54362
-7.54551
-7.54638
-7.54649
-7.54603
-7.5452
-7.54427
-7.54347
-7.54291
-7.54259
-7.54239
-7.54215
-7.54178
-7.54126
-7.5406
-7.53977
-7.53868
-7.53733
-7.53586
-7.5347
-7.53452
-7.5357
-7.53794
-7.54045
-7.54253
-7.5441
-7.54556
-7.54732
-7.54984
-7.5534
-7.5573
-7.56062
-7.56336
-7.5679
-7.57803
-7.59701
-7.62439
-7.65958
-7.70318
-7.7555
-7.81542
-7.8812
-7.951
-8.02295
-8.0949
-8.16525
-8.23308
-8.29758
-8.35795
-8.4138
-8.46504
-8.5116
-8.55354
-8.59092
-8.62382
-8.65229
-8.67639
-8.69616
-8.7116
-8.7227
-8.72946
-8.73184
-8.72981
-8.72334
-8.7124
-8.69697
-8.67698
-8.65238
-8.62308
-8.58904
-8.55021
-8.50658
-8.4581
-8.40468
-8.34624
-8.28271
-8.21403
-8.14016
-8.06106
-7.97674
-7.88719
-7.79241
-7.69233
-7.58666
-7.4751
-7.35761
-7.23425
-7.10502
-6.96989
-6.82884
-6.68187
-6.52899
-6.37022
-6.2056
-6.0352
-5.85909
-5.67737
-5.49018
-5.29768
-5.10006
-4.89749
-4.69018
-4.47831
-4.26209
-4.04178
-3.81767
-3.59005
-3.3592
-3.1254
-2.88894
-2.65008
-2.40911
-2.16628
-1.92189
-1.67617
-1.42939
-1.18179
-0.933573
-0.685002
-0.436304
-0.187637
0.061034
0.309658
0.558022
0.805936
1.05325
1.29986
1.54569
1.79065
2.03469
2.27776
2.51981
2.76082
3.00074
3.23956
3.47725
3.71377
3.9491
4.18319
4.41601
4.64753
4.87771
5.10653
5.33393
5.55988
5.78432
6.00719
6.22842
6.44789
6.6655
6.88111
7.09458
7.30575
7.51445
7.72049
7.92367
8.12377
8.32057
8.51384
8.70346
8.88918
9.07387
9.24749
-7.52628
-7.52644
-7.52677
-7.52713
-7.52713
-7.52637
-7.52457
-7.52224
-7.52054
-7.5204
-7.52213
-7.52559
-7.53032
-7.5357
-7.54113
-7.54612
-7.55033
-7.55354
-7.55556
-7.55621
-7.55554
-7.55385
-7.55152
-7.54899
-7.54666
-7.54481
-7.5435
-7.54259
-7.54187
-7.5412
-7.54056
-7.53996
-7.53934
-7.53857
-7.53757
-7.53657
-7.53613
-7.53688
-7.5389
-7.54156
-7.54386
-7.54507
-7.5453
-7.54509
-7.54439
-7.54353
-7.54418
-7.54872
-7.55598
-7.56238
-7.56951
-7.5807
-7.59711
-7.62097
-7.6555
-7.70183
-7.75835
-7.82259
-7.89234
-7.96502
-8.03815
-8.11021
-8.18018
-8.24689
-8.30918
-8.3669
-8.42021
-8.46906
-8.51352
-8.55367
-8.58955
-8.62123
-8.64874
-8.6721
-8.69131
-8.70635
-8.7172
-8.72382
-8.72615
-8.72416
-8.71779
-8.70701
-8.69179
-8.67206
-8.64778
-8.61886
-8.58526
-8.54693
-8.50384
-8.45595
-8.40318
-8.34547
-8.28274
-8.21494
-8.14198
-8.06382
-7.98039
-7.8916
-7.79732
-7.6974
-7.59182
-7.48068
-7.36395
-7.24151
-7.11327
-6.97917
-6.83917
-6.69325
-6.54142
-6.3837
-6.22011
-6.05073
-5.87563
-5.6949
-5.50867
-5.31709
-5.12035
-4.91863
-4.71212
-4.50101
-4.28551
-4.06589
-3.84241
-3.61538
-3.38507
-3.15176
-2.91574
-2.67728
-2.43666
-2.19415
-1.95001
-1.70451
-1.45788
-1.21036
-0.962142
-0.713423
-0.464366
-0.215178
0.0338672
0.282602
0.530974
0.778893
1.02622
1.27285
1.5187
1.76371
2.00779
2.2509
2.493
2.73405
2.97402
3.21289
3.45062
3.6872
3.92259
4.15674
4.38963
4.62122
4.85147
5.08035
5.30782
5.53383
5.75835
5.98129
6.20259
6.42215
6.63986
6.85559
7.06919
7.28051
7.48939
7.69565
7.89909
8.09956
8.29687
8.49082
8.6814
8.86785
9.05517
9.22827
-7.5275
-7.52749
-7.52752
-7.5276
-7.52767
-7.52768
-7.52785
-7.52868
-7.53065
-7.53389
-7.53823
-7.54333
-7.54879
-7.55421
-7.55922
-7.56352
-7.56693
-7.56932
-7.57061
-7.57076
-7.56975
-7.5677
-7.56477
-7.56116
-7.55709
-7.55281
-7.54861
-7.54474
-7.54141
-7.53872
-7.53667
-7.53506
-7.53361
-7.53227
-7.53133
-7.53137
-7.53295
-7.53617
-7.54021
-7.54354
-7.5447
-7.54321
-7.54059
-7.53896
-7.53911
-7.54005
-7.54222
-7.54855
-7.55956
-7.57446
-7.59399
-7.61891
-7.64964
-7.68687
-7.73121
-7.7822
-7.83855
-7.89881
-7.96152
-8.02534
-8.08898
-8.15148
-8.21222
-8.27058
-8.32595
-8.378
-8.4266
-8.47161
-8.51299
-8.55068
-8.58463
-8.61481
-8.64116
-8.66366
-8.68223
-8.69683
-8.70739
-8.71384
-8.71613
-8.71417
-8.70792
-8.69733
-8.68233
-8.66288
-8.63892
-8.61039
-8.57723
-8.53939
-8.49683
-8.44952
-8.39738
-8.34034
-8.27835
-8.21135
-8.13925
-8.062
-7.9795
-7.89169
-7.79843
-7.69962
-7.59522
-7.48527
-7.36973
-7.2485
-7.1215
-6.98865
-6.84992
-6.70529
-6.55475
-6.39831
-6.23601
-6.06789
-5.89405
-5.71455
-5.52953
-5.33913
-5.14352
-4.94289
-4.73742
-4.52731
-4.31277
-4.09405
-3.87144
-3.64522
-3.41567
-3.18307
-2.9477
-2.70985
-2.46978
-2.22778
-1.98411
-1.73903
-1.49278
-1.24559
-0.997692
-0.749292
-0.500581
-0.251737
-0.00296864
0.245563
0.493769
0.741512
0.988679
1.23516
1.48088
1.72575
1.96972
2.21271
2.4547
2.69564
2.9355
3.17426
3.41189
3.64837
3.88366
4.11772
4.35052
4.58202
4.81218
5.04097
5.26835
5.49426
5.71867
5.9415
6.16268
6.38212
6.5997
6.81531
7.02879
7.24
7.44877
7.65495
7.85834
8.05874
8.25603
8.45005
8.64112
8.82788
9.01796
9.18678
-7.52856
-7.5283
-7.52796
-7.52794
-7.52898
-7.53147
-7.53531
-7.54015
-7.54564
-7.55148
-7.5574
-7.56316
-7.56856
-7.57341
-7.57756
-7.58086
-7.58321
-7.58455
-7.58485
-7.58409
-7.58226
-7.57943
-7.57568
-7.57109
-7.56575
-7.55976
-7.55331
-7.54665
-7.54009
-7.53399
-7.52862
-7.52416
-7.5208
-7.51888
-7.51902
-7.52171
-7.52639
-7.53154
-7.53545
-7.53726
-7.53702
-7.53572
-7.53517
-7.53646
-7.54012
-7.54676
-7.55713
-7.57206
-7.59202
-7.61697
-7.64655
-7.6803
-7.71812
-7.75987
-7.80535
-7.85418
-7.90584
-7.95974
-8.01514
-8.07128
-8.12743
-8.1829
-8.23711
-8.28956
-8.33984
-8.38761
-8.43263
-8.4747
-8.51368
-8.54944
-8.58186
-8.61085
-8.6363
-8.65812
-8.67621
-8.69048
-8.70085
-8.70721
-8.7095
-8.70763
-8.70153
-8.69114
-8.67639
-8.65724
-8.63362
-8.60547
-8.57275
-8.53539
-8.49336
-8.44662
-8.39508
-8.33871
-8.27743
-8.21118
-8.1399
-8.06349
-7.98189
-7.89499
-7.8027
-7.70494
-7.60165
-7.49284
-7.37844
-7.25837
-7.13254
-7.00089
-6.86336
-6.71994
-6.57061
-6.41538
-6.25428
-6.08735
-5.91466
-5.73631
-5.5524
-5.36308
-5.16851
-4.96887
-4.76435
-4.55513
-4.34144
-4.12354
-3.9017
-3.67621
-3.44733
-3.21537
-2.98058
-2.74327
-2.50371
-2.26217
-2.01892
-1.77422
-1.52832
-1.28145
-1.03384
-0.78571
-0.537266
-0.288696
-0.040173
0.208158
0.456183
0.703752
0.95075
1.19708
1.44264
1.68737
1.93119
2.17404
2.4159
2.6567
2.89643
3.13505
3.37255
3.60889
3.84405
4.07799
4.31067
4.54205
4.77209
5.00076
5.228
5.45379
5.67806
5.90074
6.12178
6.34106
6.55848
6.77392
6.98723
7.19827
7.40687
7.6129
7.81616
8.0165
8.21378
8.40783
8.5991
8.78565
8.97643
9.13899
-7.53071
-7.53016
-7.52978
-7.53101
-7.5349
-7.54087
-7.54788
-7.55521
-7.56241
-7.5692
-7.57543
-7.58104
-7.58597
-7.59015
-7.5935
-7.59595
-7.59742
-7.59787
-7.59728
-7.59562
-7.59289
-7.58913
-7.58439
-7.5787
-7.57214
-7.56477
-7.55665
-7.54796
-7.53895
-7.53005
-7.52183
-7.51495
-7.51025
-7.50865
-7.51054
-7.51468
-7.51925
-7.52328
-7.52635
-7.52851
-7.53033
-7.53283
-7.53717
-7.54425
-7.55515
-7.57054
-7.59038
-7.61409
-7.64133
-7.67183
-7.70522
-7.74133
-7.78011
-7.82152
-7.86544
-7.91162
-7.9597
-8.00925
-8.05977
-8.11074
-8.16166
-8.21203
-8.26143
-8.30946
-8.35578
-8.40008
-8.44211
-8.48165
-8.51852
-8.55255
-8.58357
-8.61143
-8.63599
-8.65713
-8.6747
-8.68858
-8.69867
-8.70486
-8.70704
-8.70514
-8.69906
-8.68875
-8.67412
-8.65513
-8.63171
-8.60382
-8.57139
-8.53438
-8.49275
-8.44644
-8.3954
-8.33956
-8.27887
-8.21326
-8.14266
-8.06697
-7.98615
-7.90007
-7.80867
-7.71185
-7.60957
-7.50175
-7.38835
-7.26927
-7.14445
-7.0138
-6.87729
-6.73489
-6.58656
-6.43233
-6.2722
-6.10622
-5.93446
-5.757
-5.57396
-5.38547
-5.19169
-4.99279
-4.78896
-4.58039
-4.36732
-4.15
-3.92871
-3.70372
-3.47532
-3.24379
-3.00941
-2.77247
-2.53325
-2.29203
-2.04908
-1.80466
-1.55901
-1.31238
-1.06499
-0.817065
-0.568818
-0.320435
-0.0720944
0.176063
0.423897
0.671284
0.918089
1.16424
1.40961
1.65416
1.89779
2.14047
2.38214
2.62277
2.86232
3.10077
3.3381
3.57429
3.80928
4.04307
4.2756
4.50684
4.73674
4.96527
5.19239
5.41805
5.64219
5.86476
6.08567
6.30483
6.52213
6.73746
6.95066
7.16161
7.37015
7.5761
7.77933
7.97964
8.17693
8.37092
8.56209
8.74791
8.93823
9.09399
-7.53473
-7.53386
-7.53426
-7.53835
-7.54539
-7.55353
-7.56182
-7.56977
-7.57713
-7.5838
-7.58978
-7.59505
-7.59956
-7.60324
-7.60602
-7.60785
-7.60867
-7.60846
-7.60718
-7.60483
-7.60141
-7.59695
-7.59147
-7.58496
-7.57744
-7.56895
-7.55965
-7.54969
-7.53933
-7.5291
-7.51981
-7.51242
-7.50807
-7.50704
-7.50829
-7.5104
-7.51289
-7.51598
-7.51996
-7.52505
-7.53126
-7.53926
-7.55029
-7.56515
-7.5839
-7.60619
-7.63161
-7.65984
-7.69053
-7.72351
-7.75854
-7.79555
-7.83444
-7.87513
-7.9175
-7.96138
-8.00649
-8.05255
-8.09923
-8.14618
-8.19304
-8.23947
-8.28513
-8.32972
-8.37292
-8.41446
-8.4541
-8.4916
-8.52675
-8.55933
-8.58917
-8.61607
-8.63986
-8.66037
-8.67745
-8.69094
-8.70073
-8.70668
-8.70868
-8.70665
-8.70048
-8.69012
-8.67549
-8.65653
-8.63318
-8.6054
-8.57313
-8.53633
-8.49495
-8.44896
-8.39827
-8.34285
-8.28262
-8.21752
-8.14747
-8.07239
-7.99221
-7.90683
-7.81616
-7.72014
-7.61868
-7.5117
-7.39913
-7.28088
-7.15688
-7.02706
-6.89137
-6.74976
-6.60223
-6.44875
-6.28936
-6.1241
-5.95301
-5.77618
-5.59374
-5.40581
-5.21254
-5.01412
-4.81071
-4.60253
-4.38981
-4.17282
-3.95184
-3.72712
-3.49897
-3.26766
-3.03349
-2.79673
-2.55769
-2.31663
-2.07384
-1.82958
-1.58407
-1.33759
-1.09035
-0.842584
-0.594492
-0.346262
-0.0980799
0.149903
0.397546
0.644727
0.891321
1.13725
1.3824
1.62671
1.87011
2.11255
2.35398
2.59437
2.83368
3.0719
3.30901
3.54497
3.77976
4.01334
4.24567
4.47671
4.70644
4.9348
5.16175
5.38726
5.61126
5.83369
6.05448
6.27353
6.49073
6.70596
6.91909
7.12997
7.33845
7.54437
7.74756
7.94783
8.14506
8.33889
8.52976
8.71464
8.90433
9.05348
-7.53981
-7.5393
-7.5417
-7.54845
-7.55691
-7.56539
-7.57348
-7.58105
-7.58806
-7.59445
-7.60017
-7.60517
-7.60937
-7.6127
-7.61509
-7.6165
-7.61689
-7.61622
-7.61449
-7.61168
-7.60782
-7.60291
-7.59692
-7.58977
-7.58154
-7.57239
-7.56252
-7.55219
-7.54171
-7.53173
-7.52323
-7.51713
-7.51341
-7.5112
-7.51
-7.51008
-7.51197
-7.51602
-7.52205
-7.53024
-7.54126
-7.55551
-7.57296
-7.59347
-7.61689
-7.64292
-7.67122
-7.70162
-7.73394
-7.76803
-7.80373
-7.84091
-7.87947
-7.9193
-7.96029
-8.0023
-8.04514
-8.08863
-8.13252
-8.17659
-8.22057
-8.26419
-8.30719
-8.34929
-8.39023
-8.42977
-8.46765
-8.50363
-8.5375
-8.56901
-8.59795
-8.62411
-8.64729
-8.66729
-8.68395
-8.69709
-8.70656
-8.71224
-8.714
-8.71176
-8.70542
-8.6949
-8.68015
-8.66109
-8.63768
-8.60988
-8.57762
-8.54089
-8.49963
-8.45381
-8.40335
-8.34822
-8.28832
-8.22362
-8.154
-8.07941
-7.99975
-7.91494
-7.82489
-7.72952
-7.62873
-7.52244
-7.41055
-7.29297
-7.16964
-7.04047
-6.90541
-6.76442
-6.61748
-6.46456
-6.3057
-6.14091
-5.97027
-5.79385
-5.61176
-5.42415
-5.23115
-5.03295
-4.82972
-4.62169
-4.4091
-4.19222
-3.97131
-3.74666
-3.51855
-3.28728
-3.05313
-2.8164
-2.57737
-2.33635
-2.09359
-1.84937
-1.60392
-1.35751
-1.11037
-0.862712
-0.614741
-0.366654
-0.118626
0.129169
0.376611
0.623558
0.869914
1.11557
1.36045
1.60447
1.84758
2.08972
2.33085
2.57094
2.80996
3.04789
3.28471
3.52041
3.75493
3.98825
4.22033
4.45113
4.68062
4.90876
5.13551
5.36083
5.58466
5.80695
6.02761
6.24654
6.46364
6.67878
6.89183
7.10265
7.31108
7.51696
7.72011
7.92034
8.11747
8.31108
8.50157
8.6855
8.87467
9.01765
-7.54386
-7.54449
-7.54935
-7.55725
-7.56549
-7.57339
-7.58094
-7.58811
-7.59483
-7.601
-7.60653
-7.61134
-7.61534
-7.61846
-7.62064
-7.62182
-7.62197
-7.62106
-7.61908
-7.61605
-7.61197
-7.60677
-7.60038
-7.5929
-7.58456
-7.5755
-7.56588
-7.55603
-7.54652
-7.53815
-7.53143
-7.52602
-7.52124
-7.51723
-7.51501
-7.51508
-7.51755
-7.52299
-7.5318
-7.54389
-7.55913
-7.57729
-7.59823
-7.62171
-7.6475
-7.67539
-7.70517
-7.73667
-7.76974
-7.80423
-7.84003
-7.877
-7.91507
-7.95412
-7.99405
-8.03473
-8.07603
-8.1178
-8.15987
-8.20205
-8.24414
-8.28591
-8.32714
-8.36761
-8.40707
-8.44528
-8.482
-8.517
-8.55002
-8.58083
-8.60918
-8.63484
-8.6576
-8.67724
-8.69356
-8.70639
-8.71556
-8.72095
-8.72243
-8.71991
-8.7133
-8.70253
-8.68754
-8.66826
-8.64467
-8.6167
-8.58434
-8.54753
-8.50627
-8.46049
-8.41014
-8.35515
-8.29548
-8.23105
-8.16176
-8.08755
-8.00831
-7.92397
-7.83443
-7.73958
-7.63934
-7.53359
-7.42224
-7.3052
-7.18239
-7.05373
-6.91916
-6.77862
-6.6321
-6.47957
-6.32105
-6.15656
-5.98617
-5.80996
-5.62803
-5.44052
-5.24759
-5.0494
-4.84615
-4.63807
-4.42541
-4.20844
-3.98743
-3.76267
-3.53443
-3.30303
-3.06876
-2.83191
-2.59279
-2.35168
-2.10886
-1.86459
-1.61914
-1.37275
-1.12565
-0.878063
-0.63019
-0.382232
-0.134369
0.113236
0.360454
0.607156
0.853239
1.0986
1.34317
1.58686
1.82963
2.07142
2.31221
2.55194
2.79062
3.02821
3.26471
3.50008
3.7343
3.9673
4.19907
4.42958
4.65879
4.88667
5.11319
5.33829
5.56194
5.78406
6.00458
6.22338
6.44036
6.65541
6.86838
7.07915
7.28754
7.49339
7.69652
7.8967
8.09372
8.28709
8.47719
8.6602
8.84899
8.98639
-7.54513
-7.54728
-7.55373
-7.56148
-7.56908
-7.57647
-7.58367
-7.5906
-7.59715
-7.60322
-7.60869
-7.61344
-7.61739
-7.62047
-7.6226
-7.62375
-7.62387
-7.62294
-7.62095
-7.6179
-7.61376
-7.60846
-7.60203
-7.59474
-7.58676
-7.57823
-7.56952
-7.56105
-7.55323
-7.54629
-7.54
-7.53414
-7.52882
-7.52474
-7.52289
-7.52388
-7.52807
-7.53576
-7.54688
-7.56117
-7.57846
-7.59849
-7.62102
-7.64584
-7.67272
-7.70147
-7.7319
-7.76386
-7.7972
-7.83179
-7.86752
-7.90428
-7.94197
-7.98048
-8.01972
-8.05958
-8.09996
-8.14071
-8.18171
-8.22279
-8.26377
-8.30448
-8.34472
-8.38427
-8.42292
-8.46042
-8.49654
-8.53104
-8.56365
-8.59411
-8.62217
-8.64757
-8.67009
-8.68949
-8.70557
-8.71813
-8.72701
-8.73208
-8.73322
-8.73034
-8.72338
-8.71226
-8.69692
-8.67732
-8.65341
-8.62516
-8.59255
-8.55555
-8.51416
-8.46831
-8.41795
-8.36302
-8.30347
-8.23921
-8.17016
-8.09622
-8.01732
-7.93335
-7.8442
-7.74977
-7.64996
-7.54464
-7.43372
-7.31711
-7.1947
-7.06643
-6.93221
-6.792
-6.64576
-6.49347
-6.33514
-6.1708
-6.0005
-5.82434
-5.6424
-5.45484
-5.26179
-5.06344
-4.86001
-4.65172
-4.43884
-4.22162
-4.00036
-3.77533
-3.54684
-3.31518
-3.08068
-2.84361
-2.6043
-2.36303
-2.12008
-1.87571
-1.6302
-1.38379
-1.13671
-0.889163
-0.641381
-0.393551
-0.145864
0.101536
0.348502
0.594931
0.840701
1.08574
1.32994
1.57327
1.81565
2.05706
2.29744
2.53679
2.77507
3.01227
3.2484
3.48342
3.71727
3.94992
4.18134
4.41152
4.64042
4.86802
5.09428
5.31915
5.5426
5.76456
5.98494
6.20361
6.42049
6.63545
6.84836
7.05908
7.26744
7.47328
7.6764
7.87653
8.07345
8.26657
8.4563
8.63845
8.82696
8.95945
-7.54219
-7.54566
-7.55245
-7.55972
-7.56696
-7.57415
-7.58124
-7.58813
-7.5947
-7.60084
-7.60641
-7.61131
-7.61542
-7.61866
-7.62097
-7.62228
-7.62255
-7.62176
-7.61989
-7.61693
-7.61286
-7.6077
-7.6016
-7.59479
-7.58749
-7.58
-7.57259
-7.56537
-7.55837
-7.55169
-7.5454
-7.53969
-7.53504
-7.53214
-7.5317
-7.53416
-7.53978
-7.54872
-7.56093
-7.57622
-7.59439
-7.6152
-7.6384
-7.66376
-7.69107
-7.72015
-7.75083
-7.78296
-7.81639
-7.85101
-7.88671
-7.92336
-7.96086
-7.99912
-8.03805
-8.07755
-8.11752
-8.15783
-8.19837
-8.239
-8.27955
-8.31987
-8.35975
-8.39901
-8.43742
-8.47475
-8.51076
-8.54519
-8.57776
-8.6082
-8.63622
-8.66157
-8.68399
-8.70325
-8.71913
-8.73143
-8.74
-8.7447
-8.74544
-8.74214
-8.73474
-8.72318
-8.70741
-8.68737
-8.66304
-8.6344
-8.60143
-8.56413
-8.52251
-8.4765
-8.42603
-8.37107
-8.31154
-8.24737
-8.17847
-8.10474
-8.02608
-7.94239
-7.85356
-7.75946
-7.65999
-7.55501
-7.44443
-7.32814
-7.20605
-7.07806
-6.9441
-6.8041
-6.65803
-6.50587
-6.34762
-6.1833
-6.01298
-5.83673
-5.65465
-5.46689
-5.2736
-5.07497
-4.87122
-4.6626
-4.44936
-4.23179
-4.01016
-3.78476
-3.55592
-3.32393
-3.08912
-2.85177
-2.61221
-2.37073
-2.1276
-1.88312
-1.63752
-1.39106
-1.14397
-0.896474
-0.648783
-0.401098
-0.153598
0.093568
0.340264
0.586381
0.831816
1.07649
1.32031
1.56322
1.80518
2.04614
2.28608
2.52498
2.76282
2.99959
3.23532
3.46995
3.7034
3.93566
4.1667
4.39651
4.62507
4.85235
5.07834
5.30297
5.52621
5.74801
5.96825
6.18681
6.40358
6.61845
6.8313
7.04198
7.25034
7.45617
7.65929
7.85939
8.05619
8.24908
8.43844
8.61981
8.80808
8.93638
-7.53328
-7.53746
-7.54408
-7.55129
-7.55866
-7.56602
-7.57327
-7.58035
-7.58716
-7.59357
-7.59944
-7.60466
-7.60908
-7.61262
-7.6152
-7.61676
-7.61727
-7.6167
-7.61505
-7.61233
-7.60857
-7.60388
-7.59843
-7.59243
-7.58602
-7.57933
-7.57251
-7.56567
-7.55891
-7.55242
-7.54651
-7.54158
-7.53806
-7.53641
-7.53717
-7.54074
-7.54735
-7.5571
-7.56997
-7.58581
-7.60441
-7.62555
-7.64901
-7.67455
-7.70202
-7.73123
-7.76201
-7.79424
-7.82776
-7.86246
-7.89821
-7.93491
-7.97246
-8.01076
-8.04973
-8.08927
-8.12928
-8.16964
-8.21024
-8.25096
-8.29164
-8.33211
-8.37218
-8.41164
-8.45028
-8.48787
-8.52414
-8.55883
-8.59165
-8.62231
-8.65051
-8.67596
-8.69841
-8.7176
-8.73331
-8.74535
-8.75356
-8.75784
-8.7581
-8.7543
-8.74637
-8.73428
-8.71797
-8.6974
-8.67255
-8.6434
-8.60996
-8.57226
-8.53031
-8.48406
-8.43342
-8.37836
-8.31879
-8.25465
-8.18583
-8.11225
-8.03378
-7.95031
-7.86173
-7.76789
-7.66869
-7.56399
-7.45368
-7.33765
-7.21581
-7.08803
-6.95425
-6.81439
-6.66841
-6.51628
-6.35802
-6.19364
-6.0232
-5.84677
-5.66446
-5.47641
-5.28277
-5.08377
-4.87962
-4.67059
-4.45693
-4.23893
-4.01686
-3.79105
-3.56181
-3.32945
-3.09428
-2.85664
-2.61681
-2.3751
-2.1318
-1.88718
-1.64149
-1.39498
-1.14789
-0.90045
-0.652868
-0.405352
-0.158065
0.0888325
0.335225
0.580989
0.826045
1.0703
1.31369
1.55614
1.79763
2.03811
2.27757
2.51597
2.75333
2.98963
3.22493
3.45915
3.69217
3.92399
4.15462
4.38404
4.61224
4.83921
5.0649
5.2893
5.51234
5.73399
5.95412
6.17256
6.38923
6.60404
6.81684
7.02751
7.23586
7.44172
7.64485
7.84494
8.04165
8.23432
8.42334
8.604
8.79205
8.91686
-7.51694
-7.52122
-7.52801
-7.53589
-7.54393
-7.55175
-7.55936
-7.56678
-7.57398
-7.58083
-7.58718
-7.59284
-7.59768
-7.60159
-7.60453
-7.60645
-7.60731
-7.6071
-7.60585
-7.60358
-7.60035
-7.59627
-7.59145
-7.58601
-7.58009
-7.5738
-7.56726
-7.56061
-7.55409
-7.54803
-7.54272
-7.53852
-7.53584
-7.53517
-7.53692
-7.5414
-7.54883
-7.55925
-7.57264
-7.58885
-7.60771
-7.62901
-7.65257
-7.6782
-7.70574
-7.73503
-7.76593
-7.79827
-7.83194
-7.8668
-7.90275
-7.93969
-7.97752
-8.01616
-8.05549
-8.09542
-8.13583
-8.17663
-8.2177
-8.2589
-8.30009
-8.3411
-8.38174
-8.4218
-8.46105
-8.49924
-8.5361
-8.57134
-8.60466
-8.63575
-8.66427
-8.68993
-8.71245
-8.73158
-8.74709
-8.7588
-8.76654
-8.77025
-8.7699
-8.76546
-8.7569
-8.74419
-8.72726
-8.70607
-8.68059
-8.65083
-8.61681
-8.57863
-8.53632
-8.48979
-8.43897
-8.38376
-8.32413
-8.25998
-8.19122
-8.11775
-8.03945
-7.95617
-7.8678
-7.77419
-7.67522
-7.57076
-7.46069
-7.3449
-7.22326
-7.09567
-6.96202
-6.82225
-6.67631
-6.52418
-6.36586
-6.20137
-6.03076
-5.85409
-5.67148
-5.48308
-5.28906
-5.08964
-4.88506
-4.67558
-4.46147
-4.24302
-4.02052
-3.79429
-3.56465
-3.33193
-3.09644
-2.85849
-2.61841
-2.3765
-2.13304
-1.8883
-1.64251
-1.39594
-1.14887
-0.901516
-0.654087
-0.406774
-0.159747
0.0868475
0.332886
0.578262
0.822887
1.06668
1.30959
1.55154
1.79251
2.03246
2.27139
2.50926
2.74609
2.98189
3.21677
3.45059
3.68315
3.9145
4.14469
4.3737
4.60154
4.82817
5.05358
5.27773
5.50057
5.72211
5.94213
6.16046
6.37704
6.59178
6.80456
7.01522
7.2236
7.42948
7.63266
7.83275
8.02938
8.22184
8.41055
8.59058
8.77841
8.90042
-7.49274
-7.49688
-7.50451
-7.51372
-7.52273
-7.53113
-7.53919
-7.54711
-7.55493
-7.5625
-7.56956
-7.57584
-7.58121
-7.58561
-7.58901
-7.59138
-7.59271
-7.59299
-7.59223
-7.59047
-7.58775
-7.58416
-7.57978
-7.57472
-7.56907
-7.56297
-7.55659
-7.55018
-7.54399
-7.5383
-7.53346
-7.52987
-7.52796
-7.52814
-7.53075
-7.53605
-7.54418
-7.55517
-7.56897
-7.58545
-7.60447
-7.62586
-7.64948
-7.67515
-7.70276
-7.73215
-7.7632
-7.79576
-7.82968
-7.86484
-7.90114
-7.93847
-7.97676
-8.0159
-8.05578
-8.09632
-8.1374
-8.17893
-8.22077
-8.26278
-8.3048
-8.34667
-8.3882
-8.42916
-8.4693
-8.50837
-8.54606
-8.58208
-8.61607
-8.64767
-8.6765
-8.70225
-8.72469
-8.74358
-8.75871
-8.76986
-8.7769
-8.77986
-8.77876
-8.77363
-8.76442
-8.75108
-8.73352
-8.7117
-8.68558
-8.65514
-8.62049
-8.5818
-8.53912
-8.49232
-8.44126
-8.38589
-8.32618
-8.26201
-8.19332
-8.11997
-8.04184
-7.95876
-7.87059
-7.7772
-7.67845
-7.57424
-7.46442
-7.34887
-7.22745
-7.10003
-6.96651
-6.82683
-6.68092
-6.52879
-6.37041
-6.20581
-6.03502
-5.85811
-5.6752
-5.48644
-5.29203
-5.0922
-4.8872
-4.67729
-4.46276
-4.24389
-4.02098
-3.79436
-3.56436
-3.3313
-3.09551
-2.8573
-2.61702
-2.37494
-2.13138
-1.88657
-1.64073
-1.39416
-1.14718
-0.899981
-0.652779
-0.405746
-0.159058
0.0871536
0.33276
0.577671
0.82179
1.06506
1.30741
1.5488
1.78918
2.02856
2.26689
2.50419
2.74044
2.97573
3.21025
3.44372
3.67581
3.90668
4.13641
4.36502
4.59248
4.8188
5.04393
5.26785
5.49053
5.712
5.93199
6.15023
6.36673
6.58143
6.7942
7.00488
7.21329
7.41923
7.62248
7.82261
8.01918
8.21145
8.39988
8.57933
8.7669
8.88678
-7.46164
-7.46605
-7.47511
-7.48602
-7.4961
-7.50516
-7.51395
-7.52267
-7.53125
-7.53968
-7.54774
-7.55497
-7.56102
-7.5659
-7.56976
-7.57263
-7.57448
-7.57526
-7.57498
-7.57367
-7.57135
-7.56809
-7.56395
-7.55905
-7.55352
-7.54753
-7.54128
-7.53502
-7.52902
-7.52364
-7.51926
-7.51628
-7.51508
-7.51601
-7.51937
-7.52533
-7.53401
-7.5454
-7.55948
-7.57614
-7.59527
-7.61673
-7.64039
-7.6661
-7.69376
-7.72325
-7.75444
-7.78718
-7.82135
-7.85685
-7.89357
-7.93141
-7.97027
-8.01005
-8.05065
-8.09198
-8.13393
-8.17639
-8.21921
-8.26226
-8.30534
-8.34828
-8.39086
-8.43284
-8.47396
-8.51394
-8.55245
-8.58916
-8.62369
-8.65562
-8.68454
-8.7101
-8.73214
-8.75052
-8.765
-8.77528
-8.78132
-8.78332
-8.78148
-8.77575
-8.76607
-8.75229
-8.73428
-8.71198
-8.68535
-8.65434
-8.61912
-8.57998
-8.53697
-8.48984
-8.43846
-8.38283
-8.32295
-8.25874
-8.19009
-8.11687
-8.0389
-7.95599
-7.86799
-7.77478
-7.67625
-7.57227
-7.4627
-7.3474
-7.22619
-7.09894
-6.96554
-6.82592
-6.68006
-6.52792
-6.36949
-6.20479
-6.03384
-5.85671
-5.67353
-5.48445
-5.2897
-5.08949
-4.8841
-4.67379
-4.45884
-4.23954
-4.01622
-3.7892
-3.55882
-3.32541
-3.08931
-2.85085
-2.61037
-2.36819
-2.12459
-1.87985
-1.63419
-1.38787
-1.14115
-0.894271
-0.647438
-0.400839
-0.154636
0.0910333
0.336057
0.580339
0.8238
1.06637
1.30801
1.54867
1.78831
2.02693
2.26452
2.50106
2.73656
2.97115
3.20516
3.43817
3.66971
3.90005
4.1293
4.35748
4.58458
4.81057
5.03544
5.25913
5.48169
5.70324
5.92329
6.14146
6.35791
6.57259
6.78538
6.99612
7.2046
7.41063
7.61402
7.81423
8.01075
8.20285
8.39102
8.56996
8.7572
8.8756
-7.42631
-7.43159
-7.44262
-7.45562
-7.46687
-7.47637
-7.48557
-7.49521
-7.50506
-7.51469
-7.52383
-7.53208
-7.53894
-7.54429
-7.54855
-7.55187
-7.55416
-7.55537
-7.55547
-7.55445
-7.55235
-7.54921
-7.54515
-7.54027
-7.53472
-7.52869
-7.52242
-7.5162
-7.51037
-7.50529
-7.50134
-7.49889
-7.49829
-7.49981
-7.50369
-7.51008
-7.51905
-7.53063
-7.54478
-7.56145
-7.58053
-7.60192
-7.6255
-7.65117
-7.67883
-7.70835
-7.73961
-7.7725
-7.80691
-7.84276
-7.87992
-7.9183
-7.9578
-7.99833
-8.03977
-8.08201
-8.12493
-8.16838
-8.2122
-8.25623
-8.30027
-8.34413
-8.38757
-8.43035
-8.4722
-8.51281
-8.55184
-8.58894
-8.6237
-8.65561
-8.68413
-8.70897
-8.73019
-8.7478
-8.7614
-8.77049
-8.77507
-8.77582
-8.77324
-8.76717
-8.75731
-8.7434
-8.72523
-8.70273
-8.676
-8.64518
-8.61027
-8.57139
-8.52837
-8.48116
-8.4296
-8.37378
-8.31373
-8.24942
-8.18074
-8.10754
-8.02961
-7.94679
-7.85888
-7.76579
-7.66741
-7.5636
-7.45422
-7.33909
-7.21805
-7.09091
-6.9576
-6.81803
-6.67218
-6.52
-6.3615
-6.19668
-6.02556
-5.84821
-5.66475
-5.47536
-5.28026
-5.07967
-4.87386
-4.66311
-4.44772
-4.22798
-4.00421
-3.77678
-3.546
-3.31223
-3.07581
-2.8371
-2.59643
-2.35413
-2.11051
-1.86583
-1.62037
-1.37434
-1.12794
-0.881418
-0.635005
-0.388897
-0.143245
0.101813
0.346176
0.589745
0.832455
1.07424
1.31505
1.55486
1.79364
2.03137
2.26804
2.50364
2.73817
2.97165
3.2041
3.4356
3.66617
3.89577
4.1244
4.35201
4.5786
4.80414
5.02858
5.25191
5.4742
5.69569
5.91575
6.13384
6.35024
6.56494
6.77778
6.98862
7.19722
7.40342
7.60705
7.80743
8.00392
8.19588
8.38383
8.56229
8.74915
8.8667
-7.38907
-7.39553
-7.40898
-7.42397
-7.43565
-7.44558
-7.4559
-7.4668
-7.47782
-7.4886
-7.49885
-7.50811
-7.51577
-7.52172
-7.52649
-7.5303
-7.53304
-7.53461
-7.53497
-7.53413
-7.53212
-7.52899
-7.52485
-7.51982
-7.51409
-7.5079
-7.5015
-7.49523
-7.48942
-7.48444
-7.48066
-7.47842
-7.478
-7.47968
-7.48363
-7.49
-7.49886
-7.51023
-7.52411
-7.54044
-7.55918
-7.58025
-7.60359
-7.62909
-7.65666
-7.68617
-7.71751
-7.75058
-7.78528
-7.82151
-7.85916
-7.89812
-7.93828
-7.97951
-8.02169
-8.0647
-8.10839
-8.1526
-8.19716
-8.24188
-8.28657
-8.33102
-8.37499
-8.41823
-8.46044
-8.50135
-8.5406
-8.57783
-8.61254
-8.64399
-8.67136
-8.69439
-8.71383
-8.7305
-8.744
-8.75355
-8.75877
-8.75985
-8.75719
-8.7508
-8.74055
-8.72623
-8.7076
-8.68464
-8.6576
-8.62676
-8.59212
-8.55329
-8.51022
-8.46285
-8.41117
-8.35524
-8.29513
-8.23078
-8.16209
-8.08891
-8.01107
-7.92837
-7.84065
-7.7478
-7.6497
-7.54618
-7.43708
-7.32223
-7.20145
-7.07457
-6.94148
-6.80212
-6.65644
-6.5044
-6.34597
-6.18118
-6.01003
-5.8326
-5.649
-5.45942
-5.26408
-5.06322
-4.85711
-4.64605