/*--------------------------------*- C++ -*----------------------------------*\
  =========                 |
  \\      /  F ield         | OpenFOAM: The Open Source CFD Toolbox
   \\    /   O peration     | Website:  https://openfoam.org
    \\  /    A nd           | Version:  13
     \\/     M anipulation  |
\*---------------------------------------------------------------------------*/
FoamFile
{
    format      ascii;
    class       surfaceScalarField;
    location    "1200";
    object      phi;
}
// * * * * * * * * * * * * * * * * * * * * * * * * * * * * * * * * * * * * * //

dimensions      [0 3 -1 0 0 0 0];

internalField   nonuniform List<scalar> 
24170
(
3.04277e-06
1.45642e-07
2.88599e-06
1.56786e-07
2.7467e-06
1.39272e-07
2.6226e-06
1.24087e-07
2.51359e-06
1.09035e-07
2.41832e-06
9.52729e-08
2.33873e-06
7.95966e-08
2.27718e-06
6.1559e-08
2.23148e-06
4.56887e-08
2.19803e-06
3.34488e-08
2.17294e-06
2.51003e-08
2.155e-06
1.79374e-08
2.14143e-06
1.35802e-08
2.12874e-06
1.2697e-08
2.11833e-06
1.04147e-08
2.11041e-06
7.91929e-09
2.10543e-06
4.98897e-09
-6.03769e-10
2.10603e-06
3.49523e-06
6.76675e-08
3.54647e-06
1.05552e-07
3.57558e-06
1.1016e-07
3.58623e-06
1.1346e-07
3.58023e-06
1.15055e-07
3.56194e-06
1.13575e-07
3.53637e-06
1.05182e-07
3.50633e-06
9.1608e-08
3.47196e-06
8.00713e-08
3.43478e-06
7.06425e-08
3.3963e-06
6.35924e-08
3.35725e-06
5.70014e-08
3.31965e-06
5.11914e-08
3.28486e-06
4.74861e-08
3.25257e-06
4.27131e-08
3.22333e-06
3.71579e-08
3.19745e-06
3.08682e-08
2.35636e-08
3.17328e-06
3.67747e-06
5.27182e-08
3.69294e-06
9.00961e-08
3.70917e-06
9.39144e-08
3.72611e-06
9.64982e-08
3.74239e-06
9.87988e-08
3.75763e-06
9.83319e-08
3.76982e-06
9.29957e-08
3.77677e-06
8.46767e-08
3.77886e-06
7.79691e-08
3.77712e-06
7.23813e-08
3.773e-06
6.77083e-08
3.76661e-06
6.33873e-08
3.75866e-06
5.91413e-08
3.7506e-06
5.5549e-08
3.74211e-06
5.12027e-08
3.7333e-06
4.59569e-08
3.7242e-06
3.99753e-08
3.29777e-08
3.71479e-06
3.93594e-06
4.21725e-08
3.94444e-06
8.15956e-08
3.95089e-06
8.74534e-08
3.95747e-06
8.99246e-08
3.9645e-06
9.17762e-08
3.97219e-06
9.06358e-08
3.9798e-06
8.53868e-08
3.98636e-06
7.81128e-08
3.99218e-06
7.21504e-08
3.99707e-06
6.74962e-08
4.00118e-06
6.36069e-08
4.0045e-06
6.00634e-08
4.00708e-06
5.65584e-08
4.00941e-06
5.32171e-08
4.01133e-06
4.92782e-08
4.01273e-06
4.45569e-08
4.0135e-06
3.92025e-08
3.34384e-08
4.01303e-06
4.21549e-06
3.38139e-08
4.22459e-06
7.2509e-08
4.23084e-06
8.11805e-08
4.23669e-06
8.40501e-08
4.24256e-06
8.59244e-08
4.24839e-06
8.48071e-08
4.25363e-06
8.01495e-08
4.2579e-06
7.38484e-08
4.26179e-06
6.82494e-08
4.2655e-06
6.37871e-08
4.26915e-06
5.99495e-08
4.27276e-06
5.64488e-08
4.27624e-06
5.30831e-08
4.27967e-06
4.97815e-08
4.28289e-06
4.6052e-08
4.28572e-06
4.17293e-08
4.28794e-06
3.6975e-08
3.21551e-08
4.28923e-06
4.51526e-06
2.76386e-08
4.52434e-06
6.34322e-08
4.53086e-06
7.46466e-08
4.53684e-06
7.80691e-08
4.54281e-06
7.99528e-08
4.54853e-06
7.9077e-08
4.5535e-06
7.51754e-08
4.5575e-06
6.98418e-08
4.56098e-06
6.47645e-08
4.56428e-06
6.04903e-08
4.56756e-06
5.66626e-08
4.57087e-06
5.31419e-08
4.57416e-06
4.97905e-08
4.57746e-06
4.64806e-08
4.58062e-06
4.28836e-08
4.58347e-06
3.88775e-08
4.58583e-06
3.46142e-08
3.04343e-08
4.58755e-06
4.83747e-06
2.28942e-08
4.84579e-06
5.51189e-08
4.8525e-06
6.79243e-08
4.8585e-06
7.20493e-08
4.86451e-06
7.39521e-08
4.87027e-06
7.33175e-08
4.87536e-06
7.00904e-08
4.87962e-06
6.55899e-08
4.88332e-06
6.10549e-08
4.88676e-06
5.70485e-08
4.89009e-06
5.33289e-08
4.89337e-06
4.98653e-08
4.89659e-06
4.65681e-08
4.89977e-06
4.32959e-08
4.90282e-06
3.98327e-08
4.90559e-06
3.61075e-08
4.90796e-06
3.2247e-08
2.85262e-08
4.90987e-06
5.18355e-06
1.89293e-08
5.19087e-06
4.77987e-08
5.19761e-06
6.11731e-08
5.20366e-06
6.60009e-08
5.20965e-06
6.79583e-08
5.21544e-06
6.75335e-08
5.22066e-06
6.48676e-08
5.2252e-06
6.10442e-08
5.22921e-06
5.70435e-08
5.23289e-06
5.33603e-08
5.23638e-06
4.98394e-08
5.23975e-06
4.64945e-08
5.24303e-06
4.32943e-08
5.24621e-06
4.01153e-08
5.24923e-06
3.68146e-08
5.25197e-06
3.33599e-08
5.25437e-06
2.98486e-08
2.64964e-08
5.2564e-06
5.55453e-06
1.57337e-08
5.56114e-06
4.1202e-08
5.56789e-06
5.44173e-08
5.57408e-06
5.98073e-08
5.58009e-06
6.19449e-08
5.58587e-06
6.17624e-08
5.59113e-06
5.96142e-08
5.59582e-06
5.63596e-08
5.60004e-06
5.28213e-08
5.60395e-06
4.94396e-08
5.60763e-06
4.61663e-08
5.61113e-06
4.29929e-08
5.6145e-06
3.99208e-08
5.61774e-06
3.68755e-08
5.62079e-06
3.37629e-08
5.62358e-06
3.05747e-08
5.62604e-06
2.73853e-08
2.43538e-08
5.62819e-06
5.95234e-06
1.31726e-08
5.95829e-06
3.52548e-08
5.96488e-06
4.7822e-08
5.97118e-06
5.35078e-08
5.97728e-06
5.58434e-08
5.98311e-06
5.59351e-08
5.98846e-06
5.42701e-08
5.99327e-06
5.15508e-08
5.99763e-06
4.84565e-08
6.0017e-06
4.53653e-08
6.00553e-06
4.23332e-08
6.00917e-06
3.93609e-08
6.01264e-06
3.64498e-08
6.01595e-06
3.35643e-08
6.01906e-06
3.06552e-08
6.02191e-06
2.77263e-08
6.02446e-06
2.48356e-08
2.20982e-08
6.02671e-06
6.37895e-06
1.10382e-08
6.38423e-06
2.99806e-08
6.39052e-06
4.15359e-08
6.39678e-06
4.72369e-08
6.40293e-06
4.97e-08
6.40882e-06
5.00469e-08
6.41429e-06
4.88065e-08
6.41927e-06
4.65746e-08
6.42381e-06
4.39083e-08
6.42804e-06
4.11361e-08
6.43202e-06
3.83561e-08
6.43578e-06
3.56017e-08
6.43935e-06
3.28812e-08
6.44273e-06
3.01825e-08
6.44589e-06
2.74887e-08
6.44881e-06
2.48122e-08
6.45145e-06
2.2197e-08
1.97315e-08
6.45382e-06
5.7424e-06
9.4716e-09
5.7464e-06
2.59917e-08
5.75141e-06
3.65169e-08
5.75661e-06
4.20416e-08
5.76177e-06
4.45369e-08
5.76677e-06
4.50523e-08
5.77147e-06
4.41114e-08
5.7758e-06
4.22394e-08
5.7798e-06
3.99095e-08
5.78352e-06
3.74123e-08
5.78702e-06
3.48638e-08
5.79031e-06
3.23132e-08
5.79341e-06
2.97766e-08
5.79633e-06
2.72608e-08
5.79906e-06
2.47611e-08
5.80158e-06
2.22977e-08
5.80387e-06
1.99029e-08
1.76549e-08
5.80595e-06
6.99973e-06
7.89432e-09
7.00388e-06
2.18484e-08
7.00929e-06
3.11106e-08
7.01507e-06
3.62613e-08
7.02091e-06
3.86927e-08
7.02663e-06
3.93308e-08
7.03208e-06
3.86737e-08
7.03715e-06
3.71609e-08
7.04188e-06
3.51858e-08
7.04629e-06
3.29992e-08
7.05043e-06
3.07256e-08
7.05432e-06
2.84201e-08
7.05799e-06
2.61164e-08
7.06142e-06
2.38253e-08
7.06462e-06
2.15619e-08
7.06758e-06
1.93423e-08
7.07029e-06
1.7197e-08
1.51885e-08
7.07275e-06
8.53243e-06
6.318e-09
8.53667e-06
1.76074e-08
8.5424e-06
2.53754e-08
8.54874e-06
2.99308e-08
8.55526e-06
3.21721e-08
8.56173e-06
3.28607e-08
8.56797e-06
3.24392e-08
8.57386e-06
3.12655e-08
8.5794e-06
2.96482e-08
8.5846e-06
2.78012e-08
8.58949e-06
2.58417e-08
8.59408e-06
2.38322e-08
8.59838e-06
2.18097e-08
8.60241e-06
1.97976e-08
8.60616e-06
1.78142e-08
8.60963e-06
1.58803e-08
8.61281e-06
1.40156e-08
1.22782e-08
8.61572e-06
1.04008e-05
4.74685e-09
1.04051e-05
1.33145e-08
1.04111e-05
1.93652e-08
1.0418e-05
2.308e-08
1.04252e-05
2.4974e-08
1.04324e-05
2.56095e-08
1.04395e-05
2.53517e-08
1.04463e-05
2.44728e-08
1.04527e-05
2.32048e-08
1.04588e-05
2.17165e-08
1.04646e-05
2.0109e-08
1.04699e-05
1.84453e-08
1.0475e-05
1.67593e-08
1.04797e-05
1.50824e-08
1.04841e-05
1.34302e-08
1.04882e-05
1.18265e-08
1.04919e-05
1.02828e-08
8.8507e-09
1.04953e-05
1.26784e-05
3.17698e-09
1.26827e-05
8.9605e-09
1.2689e-05
1.30913e-08
1.26964e-05
1.57087e-08
1.27043e-05
1.70657e-08
1.27124e-05
1.75179e-08
1.27204e-05
1.73277e-08
1.27282e-05
1.6685e-08
1.27357e-05
1.57461e-08
1.27427e-05
1.46282e-08
1.27494e-05
1.34114e-08
1.27557e-05
1.21412e-08
1.27617e-05
1.08533e-08
1.27672e-05
9.56751e-09
1.27723e-05
8.30591e-09
1.2777e-05
7.07998e-09
1.27814e-05
5.90574e-09
4.81854e-09
1.27855e-05
1.54548e-05
1.5779e-09
1.54593e-05
4.4575e-09
1.54659e-05
6.45759e-09
1.54739e-05
7.71947e-09
1.54827e-05
8.32524e-09
1.54917e-05
8.44277e-09
1.55008e-05
8.21525e-09
1.55098e-05
7.7439e-09
1.55184e-05
7.11141e-09
1.55267e-05
6.37952e-09
1.55345e-05
5.59144e-09
1.55419e-05
4.77371e-09
1.55488e-05
3.9453e-09
1.55552e-05
3.11996e-09
1.55612e-05
2.30914e-09
1.55668e-05
1.52263e-09
1.55719e-05
7.67373e-10
7.80618e-11
1.55767e-05
1.88393e-05
-1.33179e-10
1.88442e-05
-4.3452e-10
1.88516e-05
-8.53446e-10
1.88605e-05
-1.22693e-09
1.88704e-05
-1.59466e-09
1.88808e-05
-1.96201e-09
1.88914e-05
-2.32124e-09
1.89018e-05
-2.6653e-09
1.89119e-05
-2.99125e-09
1.89216e-05
-3.30054e-09
1.89308e-05
-3.59663e-09
1.89394e-05
-3.88478e-09
1.89475e-05
-4.16771e-09
1.89551e-05
-4.44817e-09
1.89621e-05
-4.72557e-09
1.89687e-05
-4.99868e-09
1.89747e-05
-5.26581e-09
-5.49499e-09
1.89803e-05
2.29654e-05
-2.17253e-09
2.29712e-05
-6.29844e-09
2.298e-05
-9.63377e-09
2.29908e-05
-1.19864e-08
2.30027e-05
-1.35411e-08
2.30153e-05
-1.45119e-08
2.3028e-05
-1.50401e-08
2.30406e-05
-1.52317e-08
2.30528e-05
-1.51755e-08
2.30644e-05
-1.49511e-08
2.30754e-05
-1.46235e-08
2.30858e-05
-1.42388e-08
2.30954e-05
-1.38332e-08
2.31044e-05
-1.34309e-08
2.31128e-05
-1.30497e-08
2.31205e-05
-1.26976e-08
2.31276e-05
-1.23811e-08
-1.20653e-08
2.31341e-05
1.68125e-05
-3.92151e-09
1.68173e-05
-1.1183e-08
1.68245e-05
-1.68113e-08
1.68331e-05
-2.06068e-08
1.68426e-05
-2.29664e-08
1.68524e-05
-2.43049e-08
1.68622e-05
-2.48812e-08
1.68718e-05
-2.48709e-08
1.68811e-05
-2.44413e-08
1.68899e-05
-2.37357e-08
1.68981e-05
-2.28644e-08
1.69058e-05
-2.19067e-08
1.69129e-05
-2.09252e-08
1.69194e-05
-1.9962e-08
1.69254e-05
-1.90505e-08
1.69309e-05
-1.8206e-08
1.6936e-05
-1.74398e-08
-1.6711e-08
1.69406e-05
1.46365e-05
-5.81188e-09
1.46416e-05
-1.63362e-08
1.46489e-05
-2.41389e-08
1.46575e-05
-2.91381e-08
1.46666e-05
-3.20938e-08
1.4676e-05
-3.36672e-08
1.46852e-05
-3.41724e-08
1.46942e-05
-3.38642e-08
1.47028e-05
-3.29884e-08
1.47108e-05
-3.1752e-08
1.47182e-05
-3.0304e-08
1.47251e-05
-2.87529e-08
1.47313e-05
-2.71811e-08
1.4737e-05
-2.56548e-08
1.47422e-05
-2.4219e-08
1.47469e-05
-2.29009e-08
1.47512e-05
-2.17125e-08
-2.06057e-08
1.47551e-05
1.27423e-05
-8.01695e-09
1.2748e-05
-2.2044e-08
1.27558e-05
-3.18597e-08
1.27644e-05
-3.77458e-08
1.27733e-05
-4.10789e-08
1.27824e-05
-4.27225e-08
1.27912e-05
-4.3034e-08
1.27997e-05
-4.23179e-08
1.28076e-05
-4.09192e-08
1.2815e-05
-3.91028e-08
1.28217e-05
-3.70398e-08
1.28278e-05
-3.48625e-08
1.28333e-05
-3.26793e-08
1.28382e-05
-3.05798e-08
1.28426e-05
-2.86198e-08
1.28466e-05
-2.68406e-08
1.28501e-05
-2.52559e-08
-2.38022e-08
1.28533e-05
1.10937e-05
-1.07449e-08
1.11002e-05
-2.85602e-08
1.11083e-05
-4.00233e-08
1.1117e-05
-4.64143e-08
1.11258e-05
-4.98636e-08
1.11345e-05
-5.14217e-08
1.11428e-05
-5.13866e-08
1.11506e-05
-5.01609e-08
1.11579e-05
-4.81875e-08
1.11646e-05
-4.57597e-08
1.11706e-05
-4.30717e-08
1.1176e-05
-4.0258e-08
1.11808e-05
-3.74545e-08
1.11849e-05
-3.47736e-08
1.11886e-05
-3.22951e-08
1.11918e-05
-3.00626e-08
1.11947e-05
-2.81018e-08
-2.63234e-08
1.11972e-05
9.65875e-06
-1.42808e-08
9.66618e-06
-3.60071e-08
9.67468e-06
-4.85486e-08
9.68319e-06
-5.49226e-08
9.69159e-06
-5.82667e-08
9.69976e-06
-5.95889e-08
9.70748e-06
-5.91073e-08
9.71463e-06
-5.73139e-08
9.7212e-06
-5.47555e-08
9.72718e-06
-5.17457e-08
9.73256e-06
-4.84482e-08
9.73731e-06
-4.50172e-08
9.74145e-06
-4.15967e-08
9.74501e-06
-3.83402e-08
9.74806e-06
-3.53445e-08
9.75066e-06
-3.26679e-08
9.7529e-06
-3.03499e-08
-2.82747e-08
9.75485e-06
8.41018e-06
-1.91104e-08
8.41836e-06
-4.4191e-08
8.42688e-06
-5.70577e-08
8.43492e-06
-6.29673e-08
8.44282e-06
-6.61684e-08
8.45051e-06
-6.72741e-08
8.45768e-06
-6.62731e-08
8.46425e-06
-6.38827e-08
8.47025e-06
-6.07566e-08
8.47569e-06
-5.71778e-08
8.48055e-06
-5.33014e-08
8.4848e-06
-4.92639e-08
8.48843e-06
-4.52284e-08
8.49146e-06
-4.13735e-08
8.49396e-06
-3.7847e-08
8.49601e-06
-3.47232e-08
8.49772e-06
-3.20634e-08
-2.971e-08
8.49916e-06
7.32351e-06
-2.53319e-08
7.33252e-06
-5.32065e-08
7.34103e-06
-6.55776e-08
7.34867e-06
-7.059e-08
7.35604e-06
-7.35394e-08
7.36322e-06
-7.44429e-08
7.36983e-06
-7.28766e-08
7.37584e-06
-6.98856e-08
7.38132e-06
-6.623e-08
7.38629e-06
-6.21417e-08
7.39073e-06
-5.77408e-08
7.39461e-06
-5.3133e-08
7.39786e-06
-4.84775e-08
7.40052e-06
-4.40276e-08
7.40264e-06
-3.99688e-08
7.40433e-06
-3.64077e-08
7.40573e-06
-3.34599e-08
-3.08866e-08
7.40691e-06
6.37698e-06
-3.22478e-08
6.38854e-06
-6.47544e-08
6.39733e-06
-7.43546e-08
6.4054e-06
-7.86333e-08
6.41293e-06
-8.10689e-08
6.41979e-06
-8.12966e-08
6.42612e-06
-7.92076e-08
6.43204e-06
-7.5798e-08
6.4376e-06
-7.17843e-08
6.44285e-06
-6.73788e-08
6.44776e-06
-6.26496e-08
6.45219e-06
-5.7549e-08
6.45605e-06
-5.2328e-08
6.45937e-06
-4.73435e-08
6.46221e-06
-4.28091e-08
6.4647e-06
-3.88955e-08
6.467e-06
-3.57488e-08
-3.3115e-08
6.46924e-06
5.55929e-06
-4.60713e-08
5.57587e-06
-8.13175e-08
5.58931e-06
-8.77724e-08
5.60395e-06
-9.32502e-08
5.61899e-06
-9.60957e-08
5.6338e-06
-9.61042e-08
5.64824e-06
-9.36433e-08
5.66207e-06
-8.96243e-08
5.67511e-06
-8.48102e-08
5.68706e-06
-7.93283e-08
5.69775e-06
-7.33244e-08
5.70688e-06
-6.6673e-08
5.71432e-06
-5.97585e-08
5.72012e-06
-5.31357e-08
5.72433e-06
-4.70097e-08
5.72702e-06
-4.15861e-08
5.72839e-06
-3.71007e-08
-3.35949e-08
5.72887e-06
4.875e-06
-9.34579e-08
4.92183e-06
-1.28128e-07
4.96146e-06
-1.27379e-07
4.99126e-06
-1.23025e-07
5.01287e-06
-1.1769e-07
5.02678e-06
-1.10014e-07
5.03389e-06
-1.00749e-07
5.03467e-06
-9.03918e-08
5.0299e-06
-8.00384e-08
5.02125e-06
-7.06704e-08
5.00975e-06
-6.18084e-08
4.9961e-06
-5.30138e-08
4.98041e-06
-4.40499e-08
4.96238e-06
-3.50952e-08
4.94228e-06
-2.69098e-08
4.92089e-06
-2.01833e-08
4.89862e-06
-1.48174e-08
-1.08452e-08
4.87588e-06
4.10922e-06
3.98109e-06
3.85372e-06
3.73069e-06
3.613e-06
3.50299e-06
3.40224e-06
3.31185e-06
3.23181e-06
3.16115e-06
3.09934e-06
3.04633e-06
3.00228e-06
2.96719e-06
2.94028e-06
2.9201e-06
2.90528e-06
2.89444e-06
-7.7366e-09
7.73682e-09
-2.10123e-08
1.32731e-08
-3.56295e-08
1.46183e-08
-4.83339e-08
1.26986e-08
-5.42668e-08
5.93516e-09
-4.76242e-08
-6.6528e-09
-2.61441e-08
-2.14733e-08
8.05234e-09
-3.42069e-08
5.11147e-08
-4.30529e-08
9.84495e-08
-4.7342e-08
1.45766e-07
-4.73067e-08
1.89999e-07
-4.42382e-08
2.2917e-07
-3.91618e-08
2.62011e-07
-3.28455e-08
2.87828e-07
-2.58082e-08
3.0618e-07
-1.83569e-08
3.1682e-07
-1.06323e-08
3.19433e-07
-2.61751e-09
3.13821e-07
5.61938e-09
3.00056e-07
1.37603e-08
2.78659e-07
2.14046e-08
2.50466e-07
2.81904e-08
2.1674e-07
3.37323e-08
1.79141e-07
3.75949e-08
1.39811e-07
3.93361e-08
1.01193e-07
3.86111e-08
6.58853e-08
3.53139e-08
3.61099e-08
2.97671e-08
1.32766e-08
2.28404e-08
-2.48564e-09
1.57564e-08
-1.19778e-08
9.50429e-09
-1.59911e-08
4.01367e-09
-1.4517e-08
-1.45494e-09
-6.72789e-09
-7.78499e-09
8.71092e-09
-1.54113e-08
3.27159e-08
-2.40037e-08
6.34556e-08
-3.07147e-08
9.59798e-08
-3.25289e-08
1.24701e-07
-2.87003e-08
1.45377e-07
-2.06833e-08
1.56275e-07
-1.08803e-08
1.58803e-07
-2.53268e-09
1.5642e-07
2.40079e-09
1.52641e-07
3.77193e-09
1.50544e-07
2.12789e-09
1.49534e-07
9.92539e-10
1.41931e-07
7.65958e-09
1.1929e-07
2.26239e-08
7.38784e-08
4.54983e-08
1.91766e-09
7.19788e-08
-9.22908e-08
9.42985e-08
-2.04381e-07
1.12113e-07
-3.30758e-07
1.26437e-07
-4.66883e-07
1.36152e-07
-6.08534e-07
1.41701e-07
-7.53016e-07
1.44515e-07
-8.96104e-07
1.43131e-07
-1.03481e-06
1.38741e-07
-1.16636e-06
1.31587e-07
-1.28967e-06
1.23339e-07
-1.40437e-06
1.14725e-07
-1.50959e-06
1.05252e-07
-1.60642e-06
9.68493e-08
-1.69512e-06
8.87228e-08
-1.77634e-06
8.12377e-08
-1.85121e-06
7.48782e-08
-1.9203e-06
6.9108e-08
-1.98433e-06
6.40393e-08
-2.04389e-06
5.95702e-08
-2.09953e-06
5.56456e-08
-2.1517e-06
5.2179e-08
-2.2008e-06
4.9099e-08
-2.24713e-06
4.6338e-08
-2.29097e-06
4.38389e-08
-2.33253e-06
4.15527e-08
-2.37197e-06
3.94395e-08
-2.40945e-06
3.7467e-08
-2.44506e-06
3.56083e-08
-2.47891e-06
3.38439e-08
-2.51108e-06
3.21539e-08
-2.54161e-06
3.05277e-08
-2.57057e-06
2.89503e-08
-2.59798e-06
2.74174e-08
-2.6239e-06
2.59174e-08
-2.64835e-06
2.44513e-08
-2.67136e-06
2.30096e-08
-2.69294e-06
2.15924e-08
-2.71311e-06
2.01888e-08
-2.73187e-06
1.87957e-08
-2.74923e-06
1.74081e-08
-2.76521e-06
1.60197e-08
-2.77979e-06
1.46274e-08
-2.79297e-06
1.32233e-08
-2.80471e-06
1.18e-08
-2.815e-06
1.03461e-08
-2.82379e-06
8.8526e-09
-2.83103e-06
7.30501e-09
-2.83665e-06
5.69073e-09
-2.84057e-06
3.99136e-09
-2.84271e-06
2.21451e-09
-2.84307e-06
4.27634e-10
-2.84181e-06
-1.19022e-09
-2.83914e-06
-2.62036e-09
-2.83511e-06
-3.98977e-09
-2.82974e-06
-5.34403e-09
-2.82301e-06
-6.7037e-09
-2.81493e-06
-8.06729e-09
-2.80548e-06
-9.43922e-09
-2.79464e-06
-1.0814e-08
-2.78243e-06
-1.21952e-08
-2.76883e-06
-1.35762e-08
-2.75384e-06
-1.49595e-08
-2.73747e-06
-1.63381e-08
-2.71972e-06
-1.77136e-08
-2.70059e-06
-1.90802e-08
-2.6801e-06
-2.04379e-08
-2.65826e-06
-2.17817e-08
-2.63509e-06
-2.31101e-08
-2.6106e-06
-2.4417e-08
-2.58483e-06
-2.56985e-08
-2.5578e-06
-2.69492e-08
-2.52953e-06
-2.81639e-08
-2.50008e-06
-2.93481e-08
-2.46946e-06
-3.04936e-08
-2.43774e-06
-3.16128e-08
-2.40493e-06
-3.26885e-08
-2.37111e-06
-3.37342e-08
-2.33629e-06
-3.4726e-08
-2.30055e-06
-3.56858e-08
-2.26391e-06
-3.65976e-08
-2.22643e-06
-3.74697e-08
-2.18813e-06
-3.82912e-08
-2.1491e-06
-3.90732e-08
-2.10937e-06
-3.97837e-08
-2.06902e-06
-4.04369e-08
-2.02813e-06
-4.09913e-08
-1.9868e-06
-4.1461e-08
-1.94498e-06
-4.19483e-08
-1.90259e-06
-4.25101e-08
-1.85969e-06
-4.30082e-08
-1.81635e-06
-4.34197e-08
-1.77262e-06
-4.37874e-08
-1.72853e-06
-4.41172e-08
-1.68411e-06
-4.44173e-08
-1.6394e-06
-4.46906e-08
-1.5944e-06
-4.49456e-08
-1.54915e-06
-4.51822e-08
-1.50365e-06
-4.54069e-08
-1.45792e-06
-4.56217e-08
-1.41195e-06
-4.5831e-08
-1.36577e-06
-4.60374e-08
-1.31936e-06
-4.62424e-08
-1.27273e-06
-4.64484e-08
-1.22588e-06
-4.66531e-08
-1.17882e-06
-4.68594e-08
-1.13154e-06
-4.70649e-08
-1.08405e-06
-4.72779e-08
-1.03632e-06
-4.74981e-08
-9.88361e-07
-4.77359e-08
-9.40136e-07
-4.7989e-08
-8.91646e-07
-4.82689e-08
-8.42841e-07
-4.85729e-08
-7.93716e-07
-4.89109e-08
-7.4422e-07
-4.92744e-08
-6.9435e-07
-4.96697e-08
-6.44061e-07
-5.00828e-08
-5.93358e-07
-5.05198e-08
-5.42202e-07
-5.09698e-08
-4.90601e-07
-5.14396e-08
-4.38522e-07
-5.19151e-08
-3.85979e-07
-5.24025e-08
-3.32967e-07
-5.28715e-08
-2.79548e-07
-5.33019e-08
-2.25782e-07
-5.36504e-08
-1.71863e-07
-5.3828e-08
-1.18198e-07
-5.35819e-08
-6.52587e-08
-5.28767e-08
-1.47053e-08
-5.04938e-08
3.31889e-08
-4.784e-08
-2.50322e-08
5.82733e-08
-3.38391e-09
1.11222e-08
-9.40608e-09
1.92919e-08
-1.2351e-08
1.75687e-08
-5.55739e-09
5.89565e-09
1.59844e-08
-1.56005e-08
5.16706e-08
-4.23466e-08
9.74174e-08
-6.72149e-08
1.47963e-07
-8.47568e-08
1.98362e-07
-9.34472e-08
2.45311e-07
-9.42934e-08
2.87279e-07
-8.92704e-08
3.23495e-07
-8.04562e-08
3.53814e-07
-6.94765e-08
3.78387e-07
-5.74199e-08
3.97533e-07
-4.49501e-08
4.11607e-07
-3.24326e-08
4.21023e-07
-2.00436e-08
4.26284e-07
-7.88e-09
4.27815e-07
4.09348e-09
4.25597e-07
1.59772e-08
4.19248e-07
2.77581e-08
4.08191e-07
3.92481e-08
3.91865e-07
5.00628e-08
3.69845e-07
5.96149e-08
3.42043e-07
6.71421e-08
3.08865e-07
7.17886e-08
2.71406e-07
7.27769e-08
2.31504e-07
6.96672e-08
1.91807e-07
6.2544e-08
1.55553e-07
5.20095e-08
1.26196e-07
3.88737e-08
1.06459e-07
2.37539e-08
9.80783e-08
6.94764e-09
1.01164e-07
-1.08622e-08
1.14818e-07
-2.90427e-08
1.35456e-07
-4.46394e-08
1.57106e-07
-5.23482e-08
1.73599e-07
-4.90248e-08
1.81734e-07
-3.68223e-08
1.8077e-07
-1.97257e-08
1.71208e-07
-1.30199e-09
1.55003e-07
1.36669e-08
1.3236e-07
2.50758e-08
9.58718e-08
4.02538e-08
3.55938e-08
6.24573e-08
-5.6107e-08
9.27022e-08
-1.76984e-07
1.28574e-07
-3.18175e-07
1.6383e-07
-4.69346e-07
1.96694e-07
-6.23765e-07
2.26414e-07
-7.79505e-07
2.5006e-07
-9.33963e-07
2.66587e-07
-1.08367e-06
2.76167e-07
-1.22586e-06
2.78362e-07
-1.35775e-06
2.73607e-07
-1.4769e-06
2.63684e-07
-1.58351e-06
2.49762e-07
-1.67797e-06
2.3322e-07
-1.76179e-06
2.15428e-07
-1.83589e-06
1.9746e-07
-1.90158e-06
1.8044e-07
-1.96084e-06
1.64528e-07
-2.01427e-06
1.50287e-07
-2.06312e-06
1.3759e-07
-2.10825e-06
1.2638e-07
-2.15007e-06
1.16709e-07
-2.18924e-06
1.08287e-07
-2.22614e-06
1.00941e-07
-2.26106e-06
9.44978e-08
-2.29421e-06
8.88066e-08
-2.32576e-06
8.37337e-08
-2.35583e-06
7.91652e-08
-2.38449e-06
7.50047e-08
-2.41183e-06
7.11728e-08
-2.43788e-06
6.76047e-08
-2.46269e-06
6.42486e-08
-2.48629e-06
6.10633e-08
-2.5087e-06
5.80153e-08
-2.52994e-06
5.50795e-08
-2.55003e-06
5.2234e-08
-2.56897e-06
4.94637e-08
-2.58678e-06
4.67538e-08
-2.60346e-06
4.40956e-08
-2.61902e-06
4.14793e-08
-2.63347e-06
3.89003e-08
-2.64681e-06
3.6351e-08
-2.65903e-06
3.38267e-08
-2.67015e-06
3.13187e-08
-2.68015e-06
2.88213e-08
-2.68904e-06
2.63279e-08
-2.69681e-06
2.38335e-08
-2.70349e-06
2.1334e-08
-2.70905e-06
1.88222e-08
-2.71351e-06
1.62926e-08
-2.71685e-06
1.37376e-08
-2.71911e-06
1.11554e-08
-2.7203e-06
8.54303e-09
-2.72047e-06
5.9086e-09
-2.71969e-06
3.26449e-09
-2.71806e-06
6.42329e-10
-2.71565e-06
-1.93947e-09
-2.71228e-06
-4.5119e-09
-2.70775e-06
-7.11772e-09
-2.70197e-06
-9.74844e-09
-2.6949e-06
-1.23994e-08
-2.68652e-06
-1.50705e-08
-2.67682e-06
-1.77589e-08
-2.66578e-06
-2.04634e-08
-2.65341e-06
-2.31797e-08
-2.63968e-06
-2.59064e-08
-2.62461e-06
-2.86374e-08
-2.60817e-06
-3.13705e-08
-2.59039e-06
-3.40979e-08
-2.57125e-06
-3.68173e-08
-2.55078e-06
-3.95203e-08
-2.52898e-06
-4.2204e-08
-2.50585e-06
-4.48594e-08
-2.48144e-06
-4.74822e-08
-2.45574e-06
-5.00622e-08
-2.4288e-06
-5.25919e-08
-2.40062e-06
-5.50607e-08
-2.37124e-06
-5.7464e-08
-2.34071e-06
-5.97995e-08
-2.30905e-06
-6.2066e-08
-2.27631e-06
-6.42646e-08
-2.24254e-06
-6.6387e-08
-2.20776e-06
-6.84334e-08
-2.17204e-06
-7.03921e-08
-2.13541e-06
-7.227e-08
-2.09792e-06
-7.40576e-08
-2.05962e-06
-7.57595e-08
-2.02055e-06
-7.73656e-08
-1.98076e-06
-7.88827e-08
-1.94029e-06
-8.02902e-08
-1.89919e-06
-8.15957e-08
-1.85746e-06
-8.27907e-08
-1.8151e-06
-8.38998e-08
-1.77217e-06
-8.49582e-08
-1.72878e-06
-8.5983e-08
-1.68494e-06
-8.69116e-08
-1.64066e-06
-8.77433e-08
-1.59599e-06
-8.84926e-08
-1.55094e-06
-8.91783e-08
-1.50555e-06
-8.98028e-08
-1.45984e-06
-9.03839e-08
-1.41382e-06
-9.09211e-08
-1.36752e-06
-9.14312e-08
-1.32095e-06
-9.19112e-08
-1.27411e-06
-9.23804e-08
-1.22701e-06
-9.28332e-08
-1.17966e-06
-9.32889e-08
-1.13204e-06
-9.37383e-08
-1.08417e-06
-9.41977e-08
-1.03603e-06
-9.46521e-08
-9.87634e-07
-9.5115e-08
-9.38971e-07
-9.55744e-08
-8.90046e-07
-9.60508e-08
-8.40843e-07
-9.65388e-08
-7.9136e-07
-9.70612e-08
-7.41571e-07
-9.76135e-08
-6.91464e-07
-9.82182e-08
-6.41004e-07
-9.88709e-08
-5.90175e-07
-9.95875e-08
-5.38939e-07
-1.00358e-07
-4.87279e-07
-1.01187e-07
-4.35164e-07
-1.02057e-07
-3.82584e-07
-1.0297e-07
-3.29514e-07
-1.03916e-07
-2.75946e-07
-1.04894e-07
-2.21861e-07
-1.05892e-07
-1.6726e-07
-1.06907e-07
-1.12142e-07
-1.079e-07
-5.65543e-08
-1.08811e-07
-5.95631e-10
-1.0954e-07
5.55753e-08
-1.09941e-07
1.11743e-07
-1.09704e-07
1.67345e-07
-1.08443e-07
2.21981e-07
-1.05103e-07
2.72205e-07
-9.80389e-08
-7.40858e-08
3.21277e-07
4.47602e-10
1.06772e-08
3.8631e-09
1.58759e-08
1.77698e-08
3.66703e-09
4.9662e-08
-2.59997e-08
9.84734e-08
-6.44087e-08
1.55272e-07
-9.9149e-08
2.10557e-07
-1.22496e-07
2.58734e-07
-1.32937e-07
2.98003e-07
-1.32713e-07
3.28864e-07
-1.25157e-07
3.52792e-07
-1.13196e-07
3.71249e-07
-9.89148e-08
3.85399e-07
-8.36234e-08
3.96043e-07
-6.80644e-08
4.03728e-07
-5.26322e-08
4.08815e-07
-3.75209e-08
4.11593e-07
-2.28181e-08
4.12283e-07
-8.56985e-09
4.11173e-07
5.20784e-09
4.08602e-07
1.85484e-08
4.04858e-07
3.15056e-08
4.00025e-07
4.40825e-08
3.93914e-07
5.61782e-08
3.86009e-07
6.75225e-08
3.7553e-07
7.76257e-08
3.61576e-07
8.57448e-08
3.43443e-07
9.09153e-08
3.21031e-07
9.20831e-08
2.95214e-07
8.83679e-08
2.67956e-07
7.92725e-08
2.42007e-07
6.48317e-08
2.2013e-07
4.56385e-08
2.04301e-07
2.27909e-08
1.9548e-07
-2.03337e-09
1.91442e-07
-2.49908e-08
1.85837e-07
-3.90315e-08
1.72774e-07
-3.92766e-08
1.50664e-07
-2.69152e-08
1.20312e-07
-6.46054e-09
8.16934e-08
1.88899e-08
3.17592e-08
4.86486e-08
-3.6238e-08
8.16695e-08
-1.28282e-07
1.17137e-07
-2.44659e-07
1.56639e-07
-3.81277e-07
1.99087e-07
-5.30258e-07
2.41691e-07
-6.82904e-07
2.81232e-07
-8.34005e-07
3.14938e-07
-9.78494e-07
3.41195e-07
-1.11178e-06
3.59709e-07
-1.23177e-06
3.70063e-07
-1.33769e-06
3.72515e-07
-1.42923e-06
3.67717e-07
-1.50738e-06
3.56531e-07
-1.57413e-06
3.4037e-07
-1.63146e-06
3.21028e-07
-1.68163e-06
2.99947e-07
-1.72664e-06
2.78249e-07
-1.76814e-06
2.56935e-07
-1.80726e-06
2.366e-07
-1.84462e-06
2.17813e-07
-1.88082e-06
2.00739e-07
-1.91596e-06
1.85437e-07
-1.95022e-06
1.71864e-07
-1.98369e-06
1.59857e-07
-2.01625e-06
1.49281e-07
-2.04792e-06
1.39955e-07
-2.07865e-06
1.31684e-07
-2.10845e-06
1.24301e-07
-2.13729e-06
1.17652e-07
-2.16516e-06
1.11607e-07
-2.19205e-06
1.06055e-07
-2.21795e-06
1.00902e-07
-2.24284e-06
9.60701e-08
-2.26674e-06
9.14964e-08
-2.28962e-06
8.71297e-08
-2.31149e-06
8.29298e-08
-2.33234e-06
7.88643e-08
-2.35217e-06
7.49081e-08
-2.37098e-06
7.1041e-08
-2.38877e-06
6.72474e-08
-2.40553e-06
6.35145e-08
-2.42127e-06
5.98327e-08
-2.43598e-06
5.61936e-08
-2.44967e-06
5.25912e-08
-2.46234e-06
4.90192e-08
-2.47398e-06
4.54715e-08
-2.48459e-06
4.19416e-08
-2.49418e-06
3.84219e-08
-2.50273e-06
3.49062e-08
-2.51026e-06
3.1389e-08
-2.51677e-06
2.78646e-08
-2.52225e-06
2.43291e-08
-2.52671e-06
2.07742e-08
-2.53013e-06
1.71979e-08
-2.53254e-06
1.35948e-08
-2.53393e-06
9.96907e-09
-2.53431e-06
6.32153e-09
-2.53368e-06
2.66347e-09
-2.532e-06
-1.00283e-09
-2.52922e-06
-4.68558e-09
-2.52529e-06
-8.41833e-09
-2.52018e-06
-1.22172e-08
-2.51385e-06
-1.60706e-08
-2.50627e-06
-1.99693e-08
-2.49743e-06
-2.39053e-08
-2.48732e-06
-2.78743e-08
-2.47591e-06
-3.18696e-08
-2.46319e-06
-3.58875e-08
-2.44917e-06
-3.99208e-08
-2.43383e-06
-4.39646e-08
-2.41718e-06
-4.80102e-08
-2.39921e-06
-5.20507e-08
-2.37993e-06
-5.60772e-08
-2.35934e-06
-6.00812e-08
-2.33747e-06
-6.40532e-08
-2.31431e-06
-6.79841e-08
-2.2899e-06
-7.18632e-08
-2.26425e-06
-7.56789e-08
-2.23738e-06
-7.94187e-08
-2.20932e-06
-8.30698e-08
-2.1801e-06
-8.66255e-08
-2.14976e-06
-9.00791e-08
-2.11833e-06
-9.34311e-08
-2.08585e-06
-9.66745e-08
-2.05237e-06
-9.98067e-08
-2.01793e-06
-1.02819e-07
-1.98258e-06
-1.05707e-07
-1.94634e-06
-1.08467e-07
-1.90928e-06
-1.11098e-07
-1.87143e-06
-1.13596e-07
-1.83284e-06
-1.1596e-07
-1.79355e-06
-1.18189e-07
-1.75359e-06
-1.20275e-07
-1.71301e-06
-1.22216e-07
-1.67184e-06
-1.2402e-07
-1.63009e-06
-1.25703e-07
-1.58783e-06
-1.27283e-07
-1.5451e-06
-1.28768e-07
-1.50193e-06
-1.30132e-07
-1.45833e-06
-1.31376e-07
-1.41433e-06
-1.32516e-07
-1.36995e-06
-1.33564e-07
-1.32522e-06
-1.34534e-07
-1.28016e-06
-1.35436e-07
-1.23478e-06
-1.36283e-07
-1.1891e-06
-1.37086e-07
-1.14313e-06
-1.37854e-07
-1.09687e-06
-1.386e-07
-1.05034e-06
-1.39333e-07
-1.00352e-06
-1.40064e-07
-9.56414e-07
-1.40797e-07
-9.09021e-07
-1.4154e-07
-8.61337e-07
-1.42287e-07
-8.13358e-07
-1.43041e-07
-7.65083e-07
-1.43799e-07
-7.16508e-07
-1.44573e-07
-6.67625e-07
-1.45372e-07
-6.18423e-07
-1.46212e-07
-5.68887e-07
-1.47103e-07
-5.18998e-07
-1.48061e-07
-4.68733e-07
-1.49094e-07
-4.18067e-07
-1.50213e-07
-3.66974e-07
-1.51414e-07
-3.1543e-07
-1.52696e-07
-2.63415e-07
-1.54043e-07
-2.10911e-07
-1.55446e-07
-1.57901e-07
-1.56901e-07
-1.04373e-07
-1.584e-07
-5.03171e-08
-1.59929e-07
4.25995e-09
-1.61467e-07
5.93519e-08
-1.62977e-07
1.1494e-07
-1.64387e-07
1.70975e-07
-1.65564e-07
2.27331e-07
-1.66287e-07
2.83804e-07
-1.6617e-07
3.40026e-07
-1.6466e-07
3.95605e-07
-1.60676e-07
4.49584e-07
-1.52008e-07
-1.29664e-07
5.05174e-07
-5.47397e-11
1.07356e-08
1.234e-08
3.48243e-09
5.02982e-08
-3.42862e-08
1.10001e-07
-8.57043e-08
1.75232e-07
-1.29637e-07
2.32139e-07
-1.56058e-07
2.7491e-07
-1.65265e-07
3.04075e-07
-1.62104e-07
3.22961e-07
-1.51596e-07
3.35085e-07
-1.37283e-07
3.431e-07
-1.21207e-07
3.48607e-07
-1.04423e-07
3.52451e-07
-8.74647e-08
3.54995e-07
-7.06097e-08
3.56379e-07
-5.4014e-08
3.56635e-07
-3.77774e-08
3.55791e-07
-2.19706e-08
3.53874e-07
-6.6527e-09
3.50961e-07
8.12459e-09
3.47174e-07
2.23362e-08
3.42723e-07
3.59609e-08
3.37837e-07
4.89709e-08
3.32709e-07
6.13111e-08
3.2739e-07
7.28453e-08
3.21704e-07
8.3318e-08
3.15202e-07
9.22522e-08
3.07204e-07
9.89214e-08
2.96956e-07
1.02338e-07
2.83977e-07
1.01358e-07
2.68293e-07
9.49651e-08
2.5065e-07
8.24882e-08
2.32284e-07
6.40157e-08
2.14281e-07
4.08095e-08
1.95274e-07
1.69824e-08
1.6932e-07
9.75583e-10
1.31581e-07
-1.28862e-09
8.20933e-08
1.02211e-08
2.1421e-08
3.37582e-08
-5.2533e-08
6.75024e-08
-1.42458e-07
1.08818e-07
-2.48845e-07
1.55044e-07
-3.70514e-07
2.03343e-07
-5.04681e-07
2.51311e-07
-6.45334e-07
2.97297e-07
-7.85953e-07
3.39713e-07
-9.20463e-07
3.76204e-07
-1.04364e-06
4.04419e-07
-1.1526e-06
4.239e-07
-1.24636e-06
4.34961e-07
-1.32473e-06
4.38085e-07
-1.38887e-06
4.34216e-07
-1.44075e-06
4.24399e-07
-1.48278e-06
4.09752e-07
-1.51768e-06
3.91448e-07
-1.54804e-06
3.70742e-07
-1.57585e-06
3.48844e-07
-1.60257e-06
3.26677e-07
-1.62922e-06
3.04913e-07
-1.65635e-06
2.84082e-07
-1.68423e-06
2.64488e-07
-1.7128e-06
2.46388e-07
-1.74191e-06
2.29864e-07
-1.77136e-06
2.14895e-07
-1.80092e-06
2.01434e-07
-1.83041e-06
1.89348e-07
-1.85962e-06
1.78502e-07
-1.88841e-06
1.68747e-07
-1.91665e-06
1.59929e-07
-1.94425e-06
1.51903e-07
-1.97114e-06
1.44539e-07
-1.99725e-06
1.37723e-07
-2.02255e-06
1.31353e-07
-2.04699e-06
1.25347e-07
-2.07055e-06
1.19633e-07
-2.09321e-06
1.14154e-07
-2.11495e-06
1.08864e-07
-2.13574e-06
1.03725e-07
-2.15559e-06
9.8709e-08
-2.17448e-06
9.37931e-08
-2.1924e-06
8.89596e-08
-2.20935e-06
8.41946e-08
-2.22532e-06
7.9487e-08
-2.24032e-06
7.4828e-08
-2.25433e-06
7.02106e-08
-2.26737e-06
6.56287e-08
-2.27943e-06
6.10769e-08
-2.2905e-06
5.65492e-08
-2.30059e-06
5.2039e-08
-2.30969e-06
4.75397e-08
-2.31781e-06
4.30426e-08
-2.32495e-06
3.85424e-08
-2.3311e-06
3.40323e-08
-2.33626e-06
2.95067e-08
-2.34042e-06
2.49582e-08
-2.34358e-06
2.0382e-08
-2.34574e-06
1.57726e-08
-2.34687e-06
1.11295e-08
-2.34697e-06
6.44994e-09
-2.34602e-06
1.7359e-09
-2.34398e-06
-3.02008e-09
-2.34082e-06
-7.83035e-09
-2.33651e-06
-1.27153e-08
-2.33105e-06
-1.76814e-08
-2.3244e-06
-2.27208e-08
-2.31654e-06
-2.78243e-08
-2.30747e-06
-3.2982e-08
-2.29716e-06
-3.81875e-08
-2.28559e-06
-4.34315e-08
-2.27277e-06
-4.87083e-08
-2.25868e-06
-5.40075e-08
-2.24331e-06
-5.93225e-08
-2.22667e-06
-6.46407e-08
-2.20876e-06
-6.99538e-08
-2.18957e-06
-7.52478e-08
-2.16912e-06
-8.05127e-08
-2.14742e-06
-8.57337e-08
-2.12448e-06
-9.08998e-08
-2.10032e-06
-9.59954e-08