/*--------------------------------*- C++ -*----------------------------------*\
  =========                 |
  \\      /  F ield         | OpenFOAM: The Open Source CFD Toolbox
   \\    /   O peration     | Website:  https://openfoam.org
    \\  /    A nd           | Version:  13
     \\/     M anipulation  |
\*---------------------------------------------------------------------------*/
FoamFile
{
    format      ascii;
    class       volVectorField;
    location    "1200";
    object      U;
}
// * * * * * * * * * * * * * * * * * * * * * * * * * * * * * * * * * * * * * //

dimensions      [0 1 -1 0 0 0 0];

internalField   nonuniform List<vector> 
12225
(
(9.75158 0.0437139 0)
(9.28583 0.0888767 0)
(8.83463 0.095579 0)
(8.41518 0.0873564 0)
(8.04495 0.0827616 0)
(7.72737 0.0862415 0)
(7.44797 0.0722717 0)
(7.22625 0.0444506 0)
(7.05958 0.0278678 0)
(6.94052 0.01706 0)
(6.84893 0.0188739 0)
(6.78229 0.0188671 0)
(6.73795 0.0154017 0)
(6.69653 0.022731 0)
(6.65763 0.0204365 0)
(6.63089 0.0110728 0)
(6.60886 0.00205716 0)
(6.6021 -0.00318158 0)
(10.1088 0.0572621 0)
(10.3121 0.0922636 0)
(10.4393 0.0917573 0)
(10.4936 0.090168 0)
(10.4968 0.0868341 0)
(10.4592 0.0807988 0)
(10.3891 0.0757209 0)
(10.3071 0.0702609 0)
(10.2151 0.0620889 0)
(10.1068 0.0548922 0)
(9.99892 0.0471914 0)
(9.88147 0.0410723 0)
(9.76982 0.0377612 0)
(9.66301 0.0329814 0)
(9.56448 0.0301641 0)
(9.47324 0.029695 0)
(9.39326 0.027033 0)
(9.32078 0.0192871 0)
(10.0072 0.0451621 0)
(10.0535 0.0660037 0)
(10.1072 0.0682762 0)
(10.1519 0.0734976 0)
(10.1964 0.0796859 0)
(10.2401 0.0834042 0)
(10.2784 0.0827493 0)
(10.305 0.0788503 0)
(10.3177 0.0754129 0)
(10.3171 0.0718063 0)
(10.3094 0.0686679 0)
(10.2949 0.0651885 0)
(10.2744 0.0618907 0)
(10.252 0.0604467 0)
(10.2297 0.0574398 0)
(10.2055 0.0525188 0)
(10.1814 0.0469407 0)
(10.1551 0.0397898 0)
(10.0047 0.0280853 0)
(10.0339 0.0523251 0)
(10.0585 0.0588631 0)
(10.0748 0.0644816 0)
(10.0907 0.0693225 0)
(10.1091 0.0715075 0)
(10.1287 0.0698474 0)
(10.1467 0.0659702 0)
(10.1628 0.0633625 0)
(10.1769 0.061897 0)
(10.1885 0.0608097 0)
(10.198 0.0597431 0)
(10.2054 0.0585476 0)
(10.2114 0.057473 0)
(10.2168 0.0554835 0)
(10.221 0.0522461 0)
(10.2238 0.0476203 0)
(10.2244 0.0417192 0)
(10.0042 0.0239455 0)
(10.0272 0.0501726 0)
(10.0498 0.058416 0)
(10.065 0.0629396 0)
(10.0777 0.0666439 0)
(10.0911 0.0683559 0)
(10.1043 0.067145 0)
(10.1155 0.0641677 0)
(10.1251 0.0616496 0)
(10.1344 0.0599298 0)
(10.1432 0.0587141 0)
(10.1519 0.0576586 0)
(10.1604 0.0565098 0)
(10.1685 0.0552937 0)
(10.1764 0.0533138 0)
(10.1836 0.0502919 0)
(10.1897 0.0463212 0)
(10.1941 0.0416637 0)
(10.0036 0.0194157 0)
(10.0206 0.0445298 0)
(10.0411 0.0535442 0)
(10.0562 0.0578957 0)
(10.0686 0.0615295 0)
(10.0812 0.0633653 0)
(10.0931 0.0626111 0)
(10.103 0.0603268 0)
(10.1112 0.0581368 0)
(10.1188 0.0565658 0)
(10.126 0.055271 0)
(10.1334 0.0541001 0)
(10.1408 0.0528933 0)
(10.1481 0.0515419 0)
(10.1552 0.0495874 0)
(10.1619 0.0468095 0)
(10.1677 0.0433089 0)
(10.1724 0.0394599 0)
(10.0029 0.0160045 0)
(10.0159 0.0382465 0)
(10.0336 0.0480631 0)
(10.048 0.0528234 0)
(10.0599 0.0565602 0)
(10.0718 0.0584758 0)
(10.083 0.0581755 0)
(10.0927 0.0565727 0)
(10.1009 0.0548164 0)
(10.1083 0.0534113 0)
(10.1153 0.052103 0)
(10.1222 0.0508591 0)
(10.1289 0.049576 0)
(10.1355 0.0481155 0)
(10.142 0.0461756 0)
(10.148 0.0436064 0)
(10.1533 0.0405149 0)
(10.1579 0.0372392 0)
(10.0023 0.0132909 0)
(10.0129 0.0334574 0)
(10.0278 0.0437733 0)
(10.0411 0.0489061 0)
(10.0525 0.0524202 0)
(10.0637 0.0542274 0)
(10.0743 0.0541638 0)
(10.0838 0.0530103 0)
(10.092 0.0515599 0)
(10.0995 0.0502591 0)
(10.1063 0.0489293 0)
(10.113 0.0476204 0)
(10.1194 0.0462653 0)
(10.1256 0.0447313 0)
(10.1316 0.0428122 0)
(10.1372 0.0404185 0)
(10.1422 0.037639 0)
(10.1465 0.0347554 0)
(10.0015 0.0109932 0)
(10.01 0.0292904 0)
(10.0232 0.0396098 0)
(10.0357 0.0449133 0)
(10.0466 0.0482496 0)
(10.057 0.0500034 0)
(10.067 0.0501573 0)
(10.0759 0.0492979 0)
(10.084 0.0480529 0)
(10.0913 0.0468203 0)
(10.0981 0.0455517 0)
(10.1046 0.0442376 0)
(10.1108 0.0428554 0)
(10.1168 0.0413024 0)
(10.1224 0.0394378 0)
(10.1277 0.0372158 0)
(10.1324 0.0347101 0)
(10.1366 0.0321325 0)
(10.001 0.00912704 0)
(10.0078 0.0250574 0)
(10.0192 0.0350302 0)
(10.0308 0.0405272 0)
(10.0413 0.0438862 0)
(10.0511 0.0456592 0)
(10.0606 0.0460154 0)
(10.0691 0.0453832 0)
(10.0768 0.0443399 0)
(10.0839 0.0432162 0)
(10.0906 0.0420259 0)
(10.0968 0.0407302 0)
(10.1028 0.0393443 0)
(10.1085 0.0377977 0)
(10.1139 0.0360041 0)
(10.1189 0.0339424 0)
(10.1234 0.0316722 0)
(10.1275 0.0293512 0)
(10.0007 0.00762246 0)
(10.0062 0.0213177 0)
(10.0158 0.030494 0)
(10.0264 0.0359049 0)
(10.0362 0.0392348 0)
(10.0456 0.041062 0)
(10.0545 0.0416065 0)
(10.0627 0.0412636 0)
(10.0702 0.0404535 0)
(10.0771 0.0394505 0)
(10.0835 0.0383184 0)
(10.0896 0.0370783 0)
(10.0953 0.0357164 0)
(10.1008 0.0342047 0)
(10.1059 0.0324956 0)
(10.1107 0.0305852 0)
(10.115 0.0285216 0)
(10.119 0.0264222 0)
(10.0006 0.00646162 0)
(10.0052 0.0182965 0)
(10.0134 0.0266194 0)
(10.0228 0.0317818 0)
(10.032 0.034985 0)
(10.0408 0.0367998 0)
(10.0493 0.0374716 0)
(10.0572 0.0373218 0)
(10.0644 0.0366952 0)
(10.0712 0.0358192 0)
(10.0774 0.0347755 0)
(10.0834 0.0335926 0)
(10.0889 0.0322762 0)
(10.0942 0.0308153 0)
(10.0991 0.0291911 0)
(10.1037 0.0274129 0)
(10.1079 0.0255164 0)
(10.1117 0.0236035 0)
(10.0005 0.00545346 0)
(10.0043 0.0156164 0)
(10.0114 0.0230287 0)
(10.0198 0.027828 0)
(10.0283 0.0308494 0)
(10.0366 0.0326037 0)
(10.0446 0.0333347 0)
(10.0521 0.0333131 0)
(10.0591 0.0328239 0)
(10.0657 0.0320609 0)
(10.0718 0.031111 0)
(10.0775 0.0300093 0)
(10.0829 0.028769 0)
(10.088 0.02739 0)
(10.0927 0.0258704 0)
(10.0971 0.0242228 0)
(10.1012 0.0224807 0)
(10.1049 0.0207311 0)
(10.0004 0.00446678 0)
(10.0036 0.0128682 0)
(10.0095 0.0191993 0)
(10.017 0.0234787 0)
(10.0247 0.0262212 0)
(10.0324 0.0278487 0)
(10.0398 0.0285918 0)
(10.047 0.02867 0)
(10.0537 0.0283049 0)
(10.06 0.0276551 0)
(10.0659 0.0268064 0)
(10.0715 0.0257965 0)
(10.0767 0.0246485 0)
(10.0816 0.0233706 0)
(10.0861 0.0219736 0)
(10.0904 0.0204736 0)
(10.0943 0.018897 0)
(10.0978 0.0173204 0)
(10.0003 0.00348444 0)
(10.003 0.0100704 0)
(10.0079 0.0151695 0)
(10.0144 0.0187552 0)
(10.0213 0.0210975 0)
(10.0284 0.0225106 0)
(10.0353 0.023194 0)
(10.042 0.0233174 0)
(10.0484 0.0230428 0)
(10.0544 0.0224964 0)
(10.0601 0.0217511 0)
(10.0655 0.0208502 0)
(10.0705 0.019816 0)
(10.0752 0.0186681 0)
(10.0796 0.0174187 0)
(10.0836 0.0160893 0)
(10.0874 0.0146964 0)
(10.0908 0.0133104 0)
(10.0003 0.00250045 0)
(10.0025 0.00723685 0)
(10.0066 0.0109654 0)
(10.0122 0.0136717 0)
(10.0184 0.0154668 0)
(10.0248 0.0165525 0)
(10.0312 0.0170813 0)
(10.0374 0.0171738 0)
(10.0435 0.0169422 0)
(10.0492 0.0164759 0)
(10.0547 0.0158341 0)
(10.0598 0.0150536 0)
(10.0646 0.0141575 0)
(10.0692 0.0131648 0)
(10.0734 0.0120912 0)
(10.0772 0.0109535 0)
(10.0808 0.00976773 0)
(10.0842 0.00858798 0)
(10.0002 0.00150317 0)
(10.0021 0.00434148 0)
(10.0056 0.00656668 0)
(10.0105 0.00820615 0)
(10.0161 0.0092853 0)
(10.0219 0.0099086 0)
(10.0278 0.0101703 0)
(10.0337 0.0101443 0)
(10.0394 0.00989721 0)
(10.0449 0.00948184 0)
(10.0501 0.0089381 0)
(10.055 0.0082883 0)
(10.0597 0.00755229 0)
(10.064 0.00674155 0)
(10.068 0.00587089 0)
(10.0718 0.00495015 0)
(10.0752 0.00399246 0)
(10.0784 0.0030422 0)
(10.0002 0.000455732 0)
(10.0018 0.00128443 0)
(10.005 0.00184731 0)
(10.0094 0.00222376 0)
(10.0146 0.00240116 0)
(10.02 0.00240717 0)
(10.0256 0.0022769 0)
(10.0312 0.00203672 0)
(10.0367 0.00171011 0)
(10.042 0.00131419 0)
(10.047 0.000860357 0)
(10.0518 0.000354818 0)
(10.0562 -0.000197955 0)
(10.0604 -0.000794433 0)
(10.0643 -0.00143042 0)
(10.0679 -0.0021008 0)
(10.0712 -0.00280142 0)
(10.0742 -0.00349108 0)
(10.0002 -0.000733003 0)
(10.0018 -0.00217888 0)
(10.0049 -0.00352616 0)
(10.0093 -0.004634 0)
(10.0144 -0.00554519 0)
(10.0198 -0.00630229 0)
(10.0253 -0.00693374 0)
(10.0308 -0.00746024 0)
(10.0363 -0.00790398 0)
(10.0415 -0.00828799 0)
(10.0464 -0.00863417 0)
(10.0511 -0.00896193 0)
(10.0555 -0.00928653 0)
(10.0595 -0.00962128 0)
(10.0633 -0.0099747 0)
(10.0668 -0.0103524 0)
(10.07 -0.0107588 0)
(10.073 -0.0111553 0)
(10.0002 -0.00193272 0)
(10.0021 -0.0056556 0)
(10.0056 -0.0088897 0)
(10.0105 -0.0114348 0)
(10.016 -0.0133811 0)
(10.0218 -0.0148564 0)
(10.0276 -0.0159443 0)
(10.0335 -0.0167108 0)
(10.0391 -0.0172222 0)
(10.0445 -0.017543 0)
(10.0496 -0.0177311 0)
(10.0543 -0.0178306 0)
(10.0587 -0.0178823 0)
(10.0628 -0.0179153 0)
(10.0665 -0.017957 0)
(10.0699 -0.0180225 0)
(10.0731 -0.0181272 0)
(10.0759 -0.0182303 0)
(10.0003 -0.00308407 0)
(10.0025 -0.00891489 0)
(10.0068 -0.0138015 0)
(10.0124 -0.0175106 0)
(10.0186 -0.0202451 0)
(10.025 -0.0222441 0)
(10.0314 -0.0236346 0)
(10.0377 -0.0245182 0)
(10.0437 -0.025001 0)
(10.0494 -0.0251872 0)
(10.0547 -0.0251624 0)
(10.0596 -0.024996 0)
(10.064 -0.0247481 0)
(10.0681 -0.024468 0)
(10.0718 -0.0241965 0)
(10.0752 -0.0239629 0)
(10.0783 -0.0237883 0)
(10.081 -0.0236287 0)
(10.0004 -0.00437797 0)
(10.0033 -0.0124365 0)
(10.0086 -0.0188882 0)
(10.0153 -0.0235711 0)
(10.0224 -0.0269277 0)
(10.0296 -0.0293228 0)
(10.0366 -0.0309085 0)
(10.0434 -0.031809 0)
(10.0499 -0.0321836 0)
(10.0559 -0.0321719 0)
(10.0614 -0.0318793 0)
(10.0665 -0.0313955 0)
(10.071 -0.0307958 0)
(10.0751 -0.0301564 0)
(10.0788 -0.0295369 0)
(10.0821 -0.0289813 0)
(10.085 -0.0285216 0)
(10.0876 -0.0281063 0)
(10.0005 -0.00592648 0)
(10.0046 -0.0164162 0)
(10.0113 -0.0243331 0)
(10.0194 -0.0298051 0)
(10.0274 -0.0336306 0)
(10.0353 -0.0362909 0)
(10.043 -0.037925 0)
(10.0503 -0.0387087 0)
(10.0572 -0.0388692 0)
(10.0635 -0.0385764 0)
(10.0692 -0.0379502 0)
(10.0743 -0.0370825 0)
(10.0789 -0.0360798 0)
(10.083 -0.0350349 0)
(10.0865 -0.034024 0)
(10.0896 -0.0331174 0)
(10.0923 -0.0323482 0)
(10.0947 -0.0316564 0)
(10.0007 -0.00785339 0)
(10.0065 -0.020953 0)
(10.0151 -0.0301291 0)
(10.0245 -0.0361469 0)
(10.0334 -0.0402773 0)
(10.0419 -0.0430722 0)
(10.0501 -0.0446274 0)
(10.0579 -0.0451763 0)
(10.065 -0.045025 0)
(10.0715 -0.0443852 0)
(10.0774 -0.0433707 0)
(10.0827 -0.042085 0)
(10.0873 -0.0406388 0)
(10.0913 -0.0391664 0)
(10.0947 -0.0377633 0)
(10.0976 -0.0364999 0)
(10.1001 -0.0354493 0)
(10.1022 -0.0345052 0)
(10.001 -0.0102557 0)
(10.0095 -0.0258893 0)
(10.02 -0.035762 0)
(10.0306 -0.041775 0)
(10.04 -0.0459306 0)
(10.0491 -0.0489051 0)
(10.058 -0.0505211 0)
(10.0663 -0.0509949 0)
(10.0738 -0.0507094 0)
(10.0806 -0.0498453 0)
(10.0867 -0.0485219 0)
(10.0921 -0.0468362 0)
(10.0968 -0.0449235 0)
(10.1008 -0.042949 0)
(10.104 -0.0410599 0)
(10.1067 -0.0393619 0)
(10.109 -0.0379441 0)
(10.1108 -0.0366966 0)
(10.0014 -0.0131462 0)
(10.0134 -0.0307403 0)
(10.0265 -0.0414136 0)
(10.0382 -0.0473892 0)
(10.0481 -0.0516267 0)
(10.0578 -0.0543248 0)
(10.0673 -0.0555181 0)
(10.076 -0.0556723 0)
(10.0839 -0.0551369 0)
(10.091 -0.0540711 0)
(10.0974 -0.0525291 0)
(10.1031 -0.0505827 0)
(10.108 -0.0483664 0)
(10.1121 -0.0460681 0)
(10.1153 -0.0438554 0)
(10.1179 -0.0418497 0)
(10.12 -0.0402126 0)
(10.1217 -0.0387495 0)
(10.0028 -0.0192027 0)
(10.0179 -0.0369938 0)
(10.0363 -0.046725 0)
(10.0498 -0.0527275 0)
(10.0618 -0.0575832 0)
(10.0726 -0.0605315 0)
(10.0829 -0.0614168 0)
(10.0928 -0.0610156 0)
(10.1017 -0.0598578 0)
(10.1102 -0.0581133 0)
(10.1182 -0.0558664 0)
(10.1256 -0.0531631 0)
(10.1321 -0.0501432 0)
(10.1377 -0.0471093 0)
(10.1425 -0.0442975 0)
(10.1467 -0.0418747 0)
(10.1504 -0.0400494 0)
(10.1537 -0.0386247 0)
(10.0116 -0.0262798 0)
(10.0367 -0.0521331 0)
(10.0675 -0.0566243 0)
(10.0926 -0.0604498 0)
(10.1188 -0.0643896 0)
(10.1454 -0.0676667 0)
(10.1722 -0.0691162 0)
(10.1979 -0.0692194 0)
(10.2223 -0.0687384 0)
(10.2449 -0.0677043 0)
(10.2654 -0.0659201 0)
(10.2834 -0.0632886 0)
(10.2984 -0.0600083 0)
(10.3103 -0.056409 0)
(10.3194 -0.0528999 0)
(10.3255 -0.0498611 0)
(10.3292 -0.0474613 0)
(10.3305 -0.0456018 0)
(10.0333 -0.0319126 0)
(10.1455 -0.0612696 0)
(10.2444 -0.0682986 0)
(10.3139 -0.0728863 0)
(10.3643 -0.0763508 0)
(10.4014 -0.0782638 0)
(10.4229 -0.0785191 0)
(10.4317 -0.0775112 0)
(10.4264 -0.0756763 0)
(10.4121 -0.073205 0)
(10.3906 -0.0700976 0)
(10.3644 -0.0658891 0)
(10.3342 -0.0608084 0)
(10.2995 -0.0554769 0)
(10.2596 -0.0501014 0)
(10.2163 -0.0450242 0)
(10.1709 -0.0407443 0)
(10.1244 -0.0374333 0)
(9.89445 -0.0430542 0)
(9.63002 -0.0815857 0)
(9.32686 -0.0936347 0)
(9.0264 -0.0958498 0)
(8.73542 -0.0942733 0)
(8.46259 -0.0896498 0)
(8.21228 -0.0831367 0)
(7.98329 -0.0751298 0)
(7.78158 -0.0664188 0)
(7.60216 -0.0580904 0)
(7.44448 -0.0502448 0)
(7.3076 -0.04246 0)
(7.19181 -0.0342781 0)
(7.09729 -0.0256777 0)
(7.02439 -0.0173584 0)
(6.9692 -0.0101261 0)
(6.92776 -0.00398255 0)
(6.89926 0.000958226 0)
(-0.00260451 0.00716415 -1.02282e-18)
(-0.0121363 0.0120601 1.14691e-18)
(-0.025097 0.013315 0)
(-0.0389555 0.0115918 0)
(-0.0492775 0.00622504 0)
(-0.0488301 -0.00282655 -8.0816e-19)
(-0.0339662 -0.0151685 0)
(-0.00782759 -0.028218 0)
(0.0264677 -0.0381934 0)
(0.0660724 -0.0432718 0)
(0.108198 -0.0440019 4.35544e-19)
(0.149509 -0.0414833 0)
(0.187293 -0.0367168 0)
(0.219882 -0.0304845 0)
(0.246398 -0.0233425 0)
(0.266402 -0.0156524 2.45176e-19)
(0.279581 -0.00762163 0)
(0.286048 0.000783485 0)
(0.284953 0.00951526 0)
(0.276245 0.0181488 0)
(0.260475 0.0259721 0)
(0.238246 0.03221 0)
(0.21037 0.0361595 0)
(0.1781 0.0372269 3.32089e-19)
(0.143122 0.0349945 -3.8594e-19)
(0.107539 0.029412 4.64417e-19)
(0.073688 0.0210231 5.79913e-19)
(0.0439175 0.0112191 0)
(0.0201191 0.00227897 0)
(0.00317769 -0.00358348 -1.3199e-18)
(-0.00767639 -0.0062538 -1.42947e-18)
(-0.0139821 -0.00766016 0)
(-0.0154602 -0.00920722 0)
(-0.0108226 -0.0119289 -1.38238e-18)
(-6.44134e-05 -0.0161429 0)
(0.0182667 -0.0215836 0)
(0.0431058 -0.0263395 7.60633e-19)
(0.0719594 -0.0284944 0)
(0.100151 -0.0265465 4.8969e-19)
(0.123231 -0.020908 8.75669e-19)
(0.138071 -0.0133114 0)
(0.144347 -0.00614134 0)
(0.143834 -0.00136314 0)
(0.140275 0.000168858 0)
(0.137282 -0.00240507 0)
(0.136239 -0.00973129 8.70045e-19)
(0.133467 -0.0204793 8.72691e-19)
(0.121921 -0.0275237 8.96835e-19)
(0.0946298 -0.0202832 0)
(0.0459272 0.00118853 -1.18444e-18)
(-0.0357013 0.021416 0)
(-0.13395 0.043038 5.24582e-19)
(-0.242069 0.0655866 3.59237e-19)
(-0.362187 0.0832838 0)
(-0.490865 0.096681 0)
(-0.622361 0.108247 0)
(-0.754168 0.112703 1.66332e-19)
(-0.884631 0.112608 0)
(-1.00873 0.107309 0)
(-1.12665 0.100762 0)
(-1.23624 0.0937152 0)
(-1.33786 0.0843409 0)
(-1.43126 0.077406 0)
(-1.51718 0.0699808 0)
(-1.59607 0.0628794 0)
(-1.66882 0.0575955 -9.60485e-20)
(-1.73604 0.0527255 0)
(-1.79845 0.0484943 0)
(-1.85659 0.0447603 8.87475e-20)
(-1.91098 0.0415064 8.68469e-20)
(-1.96207 0.0386459 0)
(-2.01025 0.0361209 -8.3565e-20)
(-2.05584 0.0338765 8.21216e-20)
(-2.09909 0.0318618 0)
(-2.14022 0.0300373 -7.95203e-20)
(-2.1794 0.0283697 0)
(-2.21677 0.0268317 0)
(-2.25245 0.0254014 7.61212e-20)
(-2.28652 0.024062 0)
(-2.31905 0.0227985 -7.40752e-20)
(-2.35012 0.0216011 0)
(-2.37976 0.020459 7.21428e-20)
(-2.40802 0.0193676 7.12072e-20)
(-2.43493 0.0183171 7.02887e-20)
(-2.46052 0.0173046 1.38765e-19)
(-2.48481 0.0163209 -1.36974e-19)
(-2.50782 0.015363 0)
(-2.52955 0.0144217 0)
(-2.55004 0.013492 0)
(-2.56926 0.0125682 -1.29934e-19)
(-2.58722 0.0116417 -1.28194e-19)
(-2.60393 0.0107048 1.26459e-19)
(-2.61937 0.00974794 0)
(-2.63353 0.00876196 -1.22993e-19)
(-2.64638 0.00773896 -1.2126e-19)
(-2.65788 0.0066758 -1.19529e-19)
(-2.66799 0.00557296 0)
(-2.67664 0.00444177 0)
(-2.68378 0.00330419 0)
(-2.68931 0.00220532 -1.12643e-19)
(-2.69315 0.0012013 0)
(-2.69528 0.000351414 0)
(-2.69611 -0.000388941 1.07412e-19)
(-2.69566 -0.00109847 0)
(-2.69396 -0.00179838 0)
(-2.69098 -0.00250018 1.0194e-19)
(-2.68673 -0.00320285 0)
(-2.68118 -0.00390891 0)
(-2.67434 -0.00461533 -9.61647e-20)
(-2.66618 -0.0053242 -9.41515e-20)
(-2.6567 -0.00603169 0)
(-2.64589 -0.00673953 8.99652e-20)
(-2.63375 -0.00744366 0)
(-2.62028 -0.00814514 -8.55323e-20)
(-2.60547 -0.00883997 0)
(-2.58934 -0.00952762 -8.08147e-20)
(-2.57188 -0.0102041 -7.83386e-20)
(-2.55312 -0.0108681 0)
(-2.53305 -0.0115167 0)
(-2.51171 -0.0121476 0)
(-2.4891 -0.0127578 0)
(-2.46525 -0.0133452 0)
(-2.44019 -0.013911 0)
(-2.41395 -0.0144518 0)
(-2.38657 -0.0149721 -5.52879e-20)
(-2.35808 -0.0154633 5.19662e-20)
(-2.32852 -0.0159287 0)
(-2.29792 -0.0163529 0)
(-2.26634 -0.0167513 0)
(-2.2338 -0.0171243 0)
(-2.20034 -0.0174569 6.7707e-20)
(-2.16602 -0.0177569 0)
(-2.13085 -0.0180083 -5.18472e-20)
(-2.09492 -0.0181798 4.36358e-20)
(-2.05825 -0.0182628 0)
(-2.02094 -0.0181657 0)
(-1.98309 -0.01788 0)
(-1.9447 -0.0176826 -8.93309e-21)
(-1.90569 -0.0177754 2.0693e-22)
(-1.86604 -0.0179103 0)
(-1.82583 -0.0179829 1.91078e-20)
(-1.78512 -0.0180366 2.88843e-20)
(-1.74393 -0.0180741 -3.88902e-20)
(-1.70231 -0.0180977 0)
(-1.66028 -0.0181106 0)
(-1.61785 -0.0181166 -7.04081e-20)
(-1.57504 -0.0181174 0)
(-1.53187 -0.0181163 0)
(-1.48835 -0.0181153 0)
(-1.44448 -0.018117 0)
(-1.40027 -0.0181232 1.28982e-19)
(-1.3557 -0.0181355 1.41823e-19)
(-1.3108 -0.0181555 0)
(-1.26554 -0.0181837 1.68902e-19)
(-1.21993 -0.0182225 0)
(-1.17398 -0.018273 0)
(-1.12766 -0.0183398 2.13695e-19)
(-1.08099 -0.0184248 0)
(-1.03393 -0.0185329 2.46989e-19)
(-0.986476 -0.0186649 0)
(-0.938604 -0.0188255 0)
(-0.890281 -0.0190163 3.03562e-19)
(-0.841478 -0.0192414 0)
(-0.792158 -0.0194993 3.46906e-19)
(-0.742289 -0.0197925 0)
(-0.691841 -0.0201183 0)
(-0.640791 -0.02048 0)
(-0.589113 -0.0208761 -4.52508e-19)
(-0.536787 -0.0213099 0)
(-0.483792 -0.0217793 5.18298e-19)
(-0.430112 -0.0222874 0)
(-0.375741 -0.022825 0)
(-0.3207 -0.0233836 0)
(-0.265044 -0.0239478 0)
(-0.208878 -0.0245101 0)
(-0.152476 -0.0249455 0)
(-0.0963631 -0.0251185 0)
(-0.0425371 -0.0245999 -1.90092e-18)
(0.0169925 -0.0225334 0)
(0.0345998 -0.0115026 0)
(-0.000185821 0.019377 3.11956e-18)
(-0.00576988 0.0339548 -3.66391e-18)
(-0.0118976 0.0353299 0)
(-0.0125863 0.0265059 2.59668e-18)
(0.000424439 0.00581532 0)
(0.0286624 -0.0292967 7.86603e-19)
(0.0663015 -0.0691793 -9.92476e-19)
(0.109604 -0.102387 -7.07685e-19)
(0.1547 -0.123256 0)
(0.198229 -0.1312 -4.6042e-19)
(0.237976 -0.128597 -2.01022e-19)
(0.272929 -0.118668 0)
(0.302717 -0.104214 0)
(0.327326 -0.0872889 0)
(0.346955 -0.0692369 0)
(0.361905 -0.0508425 -1.54829e-19)
(0.372539 -0.0324948 0)
(0.379053 -0.0143713 3.14126e-19)
(0.382302 0.00356027 0)
(0.382353 0.0212134 0)
(0.378895 0.0382791 -3.25778e-19)
(0.371466 0.0543149 0)
(0.359528 0.0686379 3.46747e-19)
(0.342583 0.0803306 -1.81257e-19)
(0.320346 0.0883182 1.92346e-19)
(0.292903 0.0915238 -2.07616e-19)
(0.260928 0.0891398 -2.28894e-19)
(0.22579 0.0810507 0)
(0.18954 0.0680532 0)
(0.154846 0.0517864 3.55801e-19)
(0.124665 0.0339504 -4.27253e-19)
(0.102032 0.0156074 0)
(0.0890961 -0.00318954 0)
(0.087077 -0.0222157 5.79391e-19)
(0.0956544 -0.0410149 0)
(0.112519 -0.0589213 0)
(0.132922 -0.0711332 -3.48104e-19)
(0.150801 -0.0719647 0)
(0.161951 -0.0614329 2.69344e-19)
(0.165116 -0.0436609 -5.29558e-19)
(0.16047 -0.0239644 0)
(0.14912 -0.00870985 0)
(0.132131 -0.000247127 -1.30499e-18)
(0.10717 0.00371571 -1.44032e-18)
(0.0667688 0.00928398 -1.67488e-18)
(0.00104331 0.0270041 8.45819e-19)
(-0.100413 0.0637868 -5.8141e-19)
(-0.224626 0.107675 -1.11742e-18)
(-0.357327 0.151994 5.23403e-19)
(-0.495641 0.192812 1.98275e-19)
(-0.638292 0.22574 0)
(-0.780657 0.250042 -1.3358e-19)
(-0.920217 0.266102 1.16912e-19)
(-1.05488 0.273382 0)
(-1.18165 0.272268 0)
(-1.29694 0.265067 0)
(-1.40102 0.252968 -8.23727e-20)
(-1.49341 0.237315 0)
(-1.57596 0.219801 1.50461e-19)
(-1.64877 0.201497 0)
(-1.71361 0.183931 1.40341e-19)
(-1.77167 0.167282 0)
(-1.82424 0.152059 -1.32725e-19)
(-1.87243 0.138388 0)
(-1.91669 0.126282 1.27281e-19)
(-1.95788 0.115723 -6.24876e-20)
(-1.99648 0.106477 0)
(-2.03289 0.0984239 -1.20561e-19)
(-2.06744 0.0913869 -5.93312e-20)
(-2.10035 0.0852107 -5.84506e-20)
(-2.13177 0.0797517 0)
(-2.16183 0.0748855 -5.67584e-20)
(-2.19063 0.0705043 -5.6066e-20)
(-2.21822 0.0665207 0)
(-2.24467 0.0628617 5.46278e-20)
(-2.27 0.0594691 -1.07794e-19)
(-2.29426 0.0562967 0)
(-2.31746 0.0533063 -5.26123e-20)
(-2.33961 0.0504698 0)
(-2.36073 0.0477614 1.53903e-19)
(-2.38084 0.0451648 0)
(-2.39993 0.0426626 -1.50129e-19)
(-2.41802 0.0402469 -4.944e-20)
(-2.43511 0.0379057 4.87562e-20)
(-2.4512 0.0356357 9.62733e-20)
(-2.4663 0.0334269 -9.50327e-20)
(-2.48041 0.0312754 0)
(-2.49351 0.0291712 0)
(-2.50562 0.0271093 0)
(-2.51672 0.0250844 2.70234e-19)
(-2.52682 0.0230914 8.88305e-20)
(-2.53591 0.0211261 -8.75521e-20)
(-2.54399 0.0191807 0)
(-2.55107 0.0172469 -8.49369e-20)
(-2.55713 0.015314 8.36713e-20)
(-2.56218 0.0133743 8.23629e-20)
(-2.56625 0.0114175 0)
(-2.56934 0.00944033 0)
(-2.57153 0.00744296 0)
(-2.57287 0.00545139 7.7089e-20)
(-2.57348 0.00351028 0)
(-2.57341 0.00167873 -1.4877e-19)
(-2.57228 -6.34402e-05 -2.18944e-19)
(-2.57 -0.00176712 1.4318e-19)
(-2.56652 -0.00344917 0)
(-2.56182 -0.00511796 6.88052e-20)
(-2.55587 -0.00677212 0)
(-2.54866 -0.00841312 1.31644e-19)
(-2.54019 -0.0100373 -6.44274e-20)
(-2.53042 -0.0116457 -6.29201e-20)
(-2.51937 -0.0132333 0)
(-2.50701 -0.0148005 -1.78887e-19)
(-2.49335 -0.0163421 1.16118e-19)
(-2.47838 -0.0178581 5.62355e-20)
(-2.46211 -0.0193437 0)
(-2.44453 -0.0207982 5.2774e-20)
(-2.42566 -0.0222163 1.53356e-19)
(-2.40551 -0.0235965 0)
(-2.38409 -0.0249327 9.49716e-20)
(-2.36142 -0.0262216 9.11235e-20)
(-2.33752 -0.0274572 8.71757e-20)
(-2.31239 -0.0286374 0)
(-2.28609 -0.0297636 0)
(-2.25864 -0.0308343 0)
(-2.23007 -0.0318548 -3.54895e-20)
(-2.20042 -0.0328176 -3.26296e-20)
(-2.16972 -0.0337286 0)
(-2.13802 -0.034578 -5.67011e-20)
(-2.10536 -0.0353751 -5.19668e-20)
(-2.07176 -0.0361102 0)
(-2.03728 -0.036794 -4.15414e-20)
(-2.00196 -0.037416 -7.45448e-20)
(-1.96583 -0.0379889 3.15059e-20)
(-1.92895 -0.0385006 2.78378e-20)
(-1.89134 -0.0389662 0)
(-1.85303 -0.0393948 0)
(-1.81402 -0.039807 0)
(-1.77431 -0.0401828 5.39165e-21)
(-1.73401 -0.0404939 -1.46461e-21)
(-1.69317 -0.0407248 9.30378e-21)
(-1.65178 -0.0408976 -1.08042e-20)
(-1.60989 -0.041025 1.48397e-20)
(-1.56751 -0.0411168 2.1776e-20)
(-1.52467 -0.0411771 0)
(-1.48139 -0.041215 0)
(-1.43768 -0.0412322 -3.70671e-20)
(-1.39357 -0.0412355 0)
(-1.34907 -0.0412256 0)
(-1.30417 -0.0412105 1.09628e-19)
(-1.25889 -0.0411894 0)
(-1.21323 -0.04117 6.56835e-20)
(-1.16718 -0.0411493 -7.29384e-20)
(-1.12073 -0.0411339 0)
(-1.07389 -0.0411178 8.34407e-20)
(-1.02664 -0.0411068 0)
(-0.978989 -0.041096 0)
(-0.930925 -0.041095 -1.03233e-19)
(-0.88244 -0.0411016 2.17682e-19)
(-0.833522 -0.041126 -1.15959e-19)
(-0.784151 -0.0411664 0)
(-0.734304 -0.0412334 0)
(-0.683954 -0.0413243 1.3446e-19)
(-0.633067 -0.0414466 0)
(-0.58161 -0.0415951 1.48429e-19)
(-0.529551 -0.041773 0)
(-0.476858 -0.0419716 0)
(-0.423506 -0.0421928 0)
(-0.369471 -0.0424319 1.80116e-19)
(-0.314729 -0.0426906 0)
(-0.259259 -0.0429629 -1.96561e-19)
(-0.203046 -0.0432505 0)
(-0.146079 -0.0435408 0)
(-0.0883709 -0.0438104 4.4487e-19)
(-0.029981 -0.0440136 -4.63803e-19)
(0.0289517 -0.0440591 0)
(0.0882191 -0.0438093 0)
(0.147711 -0.0431511 0)
(0.205493 -0.0416803 1.44782e-18)
(0.266862 -0.0384177 0)
(0.305877 -0.0273302 -1.00112e-18)
(0.000379404 0.0219765 3.14868e-22)
(0.000686452 0.038229 5.07615e-18)
(0.00622529 0.0314151 0)
(0.0251768 -0.000175867 -3.52579e-18)
(0.0629545 -0.0568687 0)
(0.112551 -0.120344 0)
(0.164036 -0.171606 -3.55286e-22)
(0.210615 -0.201864 4.0544e-19)
(0.24946 -0.211406 3.47543e-19)
(0.280413 -0.20497 3.09899e-19)
(0.304555 -0.188093 0)
(0.323272 -0.165384 0)
(0.33775 -0.140015 -2.56798e-19)
(0.34884 -0.1139 -4.98606e-19)
(0.357107 -0.08808 4.90542e-19)
(0.362933 -0.063054 0)
(0.366585 -0.0390175 4.91284e-19)
(0.36826 -0.0160439 -2.49154e-19)
(0.368181 0.00589347 0)
(0.366681 0.0269305 5.09625e-19)
(0.364016 0.0472173 2.58706e-19)
(0.360376 0.0667414 -5.32769e-19)
(0.355753 0.0852241 -2.76222e-19)
(0.349827 0.102051 0)
(0.341992 0.116251 6.08527e-19)
(0.331429 0.126538 6.43466e-19)
(0.317323 0.131492 0)
(0.299194 0.129873 7.37875e-19)
(0.27733 0.121026 0)
(0.252992 0.105108 8.91606e-19)
(0.228433 0.0830745 5.01081e-19)
(0.206397 0.0562431 0)
(0.189484 0.0260541 0)
(0.178693 -0.00628955 0)
(0.17415 -0.0392839 0)
(0.171496 -0.0659475 0)
(0.163712 -0.0760519 0)
(0.147241 -0.0668418 8.36579e-19)
(0.12326 -0.0446927 -1.22904e-18)
(0.092202 -0.0161719 0)
(0.0540734 0.0152042 0)
(0.00489801 0.0451148 0)
(-0.0677237 0.0748665 6.29012e-22)
(-0.16452 0.115373 7.09652e-19)
(-0.280591 0.165961 1.04352e-18)
(-0.411287 0.220802 -8.00188e-19)
(-0.550162 0.275427 -3.19782e-19)
(-0.690261 0.324968 2.64434e-19)
(-0.825863 0.365819 4.92746e-22)
(-0.953319 0.39735 1.99402e-19)
(-1.06938 0.418164 0)
(-1.17299 0.428084 1.63189e-19)
(-1.26362 0.427665 1.10843e-21)
(-1.34155 0.417766 0)
(-1.40807 0.400133 0)
(-1.46499 0.377169 -1.2675e-19)
(-1.51467 0.350988 0)
(-1.55871 0.323352 0)
(-1.59911 0.295833 1.13054e-19)
(-1.63686 0.269452 2.17071e-19)
(-1.67286 0.245068 -1.04832e-19)
(-1.70765 0.222955 0)
(-1.74153 0.203321 9.95379e-20)
(-1.77463 0.186079 0)
(-1.80702 0.170986 9.55789e-20)
(-1.83868 0.157869 9.33707e-20)
(-1.86958 0.146439 -1.83275e-19)
(-1.89969 0.136426 -8.99548e-20)
(-1.929 0.127601 0)
(-1.9575 0.119756 1.73747e-19)
(-1.98516 0.112719 0)
(-2.01197 0.106343 2.5242e-19)
(-2.03792 0.100508 1.65669e-19)
(-2.063 0.0951137 1.63198e-19)
(-2.08721 0.0900817 -1.60811e-19)
(-2.11053 0.0853478 2.37814e-19)
(-2.13297 0.0808621 0)
(-2.15451 0.0765844 0)
(-2.17516 0.0724838 -1.51864e-19)
(-2.1949 0.0685346 -2.24654e-19)
(-2.21374 0.0647179 0)
(-2.23168 0.061017 7.28157e-20)
(-2.2487 0.0574201 0)
(-2.26481 0.0539166 -2.12126e-19)
(-2.28001 0.0504997 -7.77851e-23)
(-2.29429 0.0471611 7.13439e-23)
(-2.30766 0.0438939 1.3522e-19)
(-2.32011 0.04069 0)
(-2.33163 0.0375416 -1.31111e-19)
(-2.34222 0.0344421 -4.94478e-23)
(-2.35189 0.0313864 0)
(-2.36062 0.0283698 0)
(-2.36843 0.0253879 0)
(-2.37531 0.0224349 1.20833e-19)
(-2.38124 0.0195078 0)
(-2.38624 0.0166045 0)
(-2.39031 0.013728 0)
(-2.39345 0.0108831 0)
(-2.39565 0.0080793 0)
(-2.3969 0.00532245 1.08372e-19)
(-2.39717 0.0026054 0)
(-2.3964 -0.000106216 1.04012e-19)
(-2.39453 -0.00282973 1.01827e-19)
(-2.39152 -0.00554926 -9.9633e-20)
(-2.38736 -0.00825818 0)
(-2.38202 -0.0109524 -9.52063e-20)
(-2.37547 -0.0136289 0)
(-2.36769 -0.0162841 -9.07082e-20)
(-2.35868 -0.0189152 8.84238e-20)
(-2.34842 -0.0215187 2.58684e-19)
(-2.33691 -0.0240905 0)
(-2.32412 -0.0266265 2.44592e-19)
(-2.31006 -0.0291215 7.94429e-20)
(-2.29473 -0.0315713 0)
(-2.27813 -0.0339704 1.48565e-19)
(-2.26026 -0.0363143 1.43503e-19)
(-2.24113 -0.0385976 -2.07192e-19)
(-2.22076 -0.0408152 0)
(-2.19915 -0.0429599 -6.3497e-20)
(-2.17632 -0.0450251 -6.07431e-20)
(-2.15229 -0.0470035 -1.74605e-19)
(-2.12708 -0.048892 0)
(-2.10072 -0.0506891 0)
(-2.07325 -0.0523962 0)
(-2.04469 -0.0540127 -4.70894e-20)
(-2.01509 -0.0555368 0)
(-1.98447 -0.0569667 0)
(-1.95288 -0.0582996 3.6847e-20)
(-1.92035 -0.0595367 3.36562e-20)
(-1.88693 -0.0606773 0)
(-1.85264 -0.0617229 0)
(-1.81754 -0.0626719 4.77771e-20)
(-1.78165 -0.0635277 0)
(-1.74502 -0.0642837 -3.45079e-20)
(-1.70767 -0.0649412 -2.8848e-20)
(-1.66964 -0.0655048 0)
(-1.63095 -0.0659894 0)
(-1.59163 -0.0664141 8.68268e-21)
(-1.55174 -0.0667855 -1.02069e-21)
(-1.5113 -0.0670793 -1.01757e-21)
(-1.47033 -0.067297 0)
(-1.42885 -0.0674499 -3.73747e-20)
(-1.38688 -0.0675486 0)
(-1.34444 -0.0675997 0)
(-1.30155 -0.0676122 0)
(-1.25822 -0.0675923 4.58072e-20)
(-1.21447 -0.0675483 0)
(-1.17031 -0.0674837 -1.16027e-19)
(-1.12574 -0.067408 -6.55559e-20)
(-1.08077 -0.0673231 0)
(-1.03538 -0.0672378 -7.86296e-20)
(-0.989577 -0.0671516 0)
(-0.943353 -0.0670706 0)
(-0.8967 -0.0669899 -2.92562e-19)
(-0.849612 -0.0669132 2.07418e-19)
(-0.802081 -0.0668373 0)
(-0.754103 -0.066771 2.33496e-19)
(-0.705667 -0.0667155 -1.24251e-19)
(-0.65676 -0.0666815 0)
(-0.607365 -0.0666704 0)
(-0.557458 -0.0666925 0)
(-0.507015 -0.0667487 -4.50159e-19)
(-0.456004 -0.0668449 0)
(-0.404396 -0.0669775 -1.64193e-19)
(-0.352158 -0.0671463 0)
(-0.299261 -0.0673422 0)
(-0.24568 -0.0675623 0)
(-0.191392 -0.0678032 0)
(-0.136376 -0.0680637 0)
(-0.0806119 -0.0683361 0)
(-0.0240882 -0.0686123 -4.2486e-19)
(0.0331839 -0.0688682 0)
(0.0912123 -0.0690726 -2.22177e-19)
(0.149972 -0.0691734 6.74196e-19)
(0.209391 -0.0690716 0)
(0.269261 -0.0685978 0)
(0.329534 -0.067527 -4.68379e-19)
(0.388678 -0.0653581 -4.77809e-19)
(0.450854 -0.0611361 4.84889e-19)
(0.500001 -0.0499157 5.00206e-19)
(-0.00103904 0.0219308 -6.27006e-18)
(0.00190193 0.0258162 -8.04343e-18)
(0.0224144 -0.0136746 -3.52938e-18)
(0.0680677 -0.0926603 -9.47425e-19)
(0.126981 -0.177569 0)
(0.183507 -0.240679 8.70055e-19)
(0.228347 -0.272639 -3.52062e-19)
(0.259877 -0.277451 0)
(0.280533 -0.263938 -2.71222e-19)
(0.293763 -0.240207 0)
(0.302414 -0.211729 4.70618e-19)
(0.30833 -0.181604 0)
(0.312525 -0.151413 2.16727e-19)
(0.315479 -0.121885 4.24852e-19)
(0.317375 -0.0933443 -4.21248e-19)
(0.318262 -0.0659309 0)
(0.318156 -0.0397036 -4.27485e-19)
(0.317071 -0.0146969 0)
(0.315051 0.0090809 0)
(0.312194 0.0316637 -4.46533e-19)
(0.308622 0.0530946 0)
(0.304547 0.0733973 -6.46513e-22)
(0.300186 0.0925138 0)
(0.295676 0.110197 0)
(0.290981 0.125943 5.43749e-22)
(0.28583 0.13889 -5.66578e-19)
(0.279697 0.147785 -6.07576e-19)
(0.271854 0.15108 -6.534e-19)
(0.261653 0.147243 0)
(0.248795 0.135063 -1.54606e-18)
(0.233709 0.114094 0)
(0.217353 0.0850037 -9.61088e-19)
(0.201144 0.049496 0)
(0.185604 0.0104699 0)
(0.166478 -0.0242399 1.07692e-18)
(0.137693 -0.0407948 0)
(0.0978126 -0.0342301 -8.38827e-19)
(0.0484 -0.00956019 -6.81044e-22)
(-0.0108598 0.0274642 1.61712e-18)
(-0.084106 0.0735825 -1.37479e-18)
(-0.172814 0.128028 0)
(-0.276505 0.187999 0)
(-0.394067 0.249636 -3.61545e-19)
(-0.520356 0.311817 0)
(-0.649562 0.372721 -2.50248e-19)
(-0.775987 0.427793 2.15491e-19)
(-0.894428 0.472338 1.89883e-19)
(-1.00072 0.505222 0)
(-1.09363 0.526317 -1.5431e-19)
(-1.17247 0.536019 -1.41771e-19)
(-1.23756 0.535165 2.64919e-19)
(-1.29065 0.52496 -1.23128e-19)
(-1.33364 0.506941 -1.16034e-19)
(-1.36897 0.482797 0)
(-1.39908 0.454492 0)