/*--------------------------------*- C++ -*----------------------------------*\
  =========                 |
  \\      /  F ield         | OpenFOAM: The Open Source CFD Toolbox
   \\    /   O peration     | Website:  https://openfoam.org
    \\  /    A nd           | Version:  13
     \\/     M anipulation  |
\*---------------------------------------------------------------------------*/
FoamFile
{
    format      ascii;
    class       volScalarField;
    location    "1";
    object      epsilon;
}
// * * * * * * * * * * * * * * * * * * * * * * * * * * * * * * * * * * * * * //

dimensions      [0 2 -3 0 0 0 0];

internalField   nonuniform List<scalar> 
6400
(
2.60414e-05
0.000125554
0.000258925
0.000393287
0.000516244
0.000625713
0.000722787
0.000809034
0.000885793
0.000954124
0.00101489
0.00106885
0.0011167
0.00115909
0.00119667
0.00123007
0.00125992
0.0012868
0.00131129
0.00133393
0.00135522
0.00137564
0.00139565
0.00141566
0.00143605
0.00145719
0.00147941
0.00150304
0.00152838
0.00155571
0.00158531
0.00161741
0.00165223
0.00168996
0.00173073
0.00177463
0.00182164
0.00187168
0.00192455
0.00197991
0.00203727
0.00209597
0.00215511
0.00221367
0.00227162
0.00232996
0.00238549
0.00243717
0.0024839
0.00252467
0.00255866
0.00258429
0.00259871
0.00260488
0.00260269
0.00258906
0.00256442
0.00252888
0.00248267
0.00242613
0.00235976
0.00228416
0.00219999
0.00210801
0.00200896
0.00190353
0.00179233
0.00167587
0.00155454
0.00142858
0.00129813
0.00116325
0.00102373
0.00087951
0.000730683
0.000578374
0.000423292
0.000268863
0.000127055
2.62678e-05
0.000126395
0.000111148
0.00016515
0.00023059
0.000293808
0.000351418
0.000402962
0.000448818
0.000489534
0.000525644
0.000557641
0.000585983
0.0006111
0.000633396
0.000653257
0.000671052
0.00068713
0.000701816
0.000715414
0.000728203
0.000740436
0.000752342
0.000764128
0.000775974
0.00078804
0.000800467
0.000813375
0.000826867
0.000841027
0.000855922
0.000871604
0.000888103
0.000905432
0.000923577
0.000942503
0.000962143
0.000982402
0.00100315
0.00102421
0.00104539
0.00106644
0.00108708
0.00110699
0.00112603
0.00114425
0.00116179
0.00117764
0.00119151
0.00120312
0.00121229
0.00121834
0.0012206
0.00122005
0.00121612
0.0012089
0.00119786
0.00118304
0.0011645
0.00114233
0.00111665
0.0010876
0.00105536
0.00102009
0.000981988
0.000941204
0.000897882
0.000852119
0.000803968
0.000753426
0.000700427
0.000644844
0.000586485
0.000525085
0.000460377
0.000392103
0.00032041
0.00024583
0.000171773
0.00011224
0.000127023
0.00026825
0.000169439
0.000191966
0.000236939
0.000284636
0.000329816
0.000371096
0.000408184
0.00044119
0.00047037
0.000496052
0.000518594
0.000538367
0.000555721
0.000570991
0.000584501
0.000596549
0.000607412
0.000617338
0.000626554
0.000635256
0.000643615
0.000651782
0.000659881
0.00066802
0.000676286
0.000684752
0.000693474
0.000702496
0.000711851
0.000721564
0.000731647
0.000742108
0.000752943
0.00076414
0.000775679
0.000787527
0.000799637
0.000811948
0.000824382
0.000836845
0.000849228
0.000861414
0.000873317
0.000884888
0.000895916
0.000906077
0.000915152
0.000922923
0.000929188
0.000933573
0.000935472
0.000935574
0.000933483
0.000928978
0.000921864
0.000912091
0.00089966
0.000884606
0.000866992
0.00084691
0.000824471
0.000799799
0.000773017
0.000744243
0.000713575
0.000681083
0.000646802
0.000610725
0.000572793
0.000532896
0.000490869
0.000446491
0.000399491
0.000349752
0.000297492
0.000243828
0.000193269
0.000166073
0.000264873
0.000423628
0.000241819
0.000240372
0.000272122
0.000310806
0.000349583
0.000386037
0.000419321
0.000449204
0.000475681
0.000498936
0.000519224
0.000536798
0.000552032
0.000565264
0.000576793
0.000586897
0.000595832
0.000603828
0.000611093
0.000617801
0.000624104
0.000630136
0.000636008
0.000641813
0.000647631
0.000653532
0.000659576
0.000665808
0.000672274
0.000679016
0.000686073
0.00069348
0.000701271
0.000709474
0.000718114
0.000727205
0.000736753
0.000746743
0.000757144
0.000767905
0.000778956
0.000790212
0.000801584
0.000812883
0.000823892
0.000834357
0.000844034
0.000852668
0.000859998
0.000865739
0.000869431
0.000870897
0.000870598
0.000867939
0.000862775
0.000855047
0.000844742
0.000831891
0.000816562
0.000798855
0.000778896
0.000756828
0.000732798
0.000706952
0.00067942
0.000650305
0.00061968
0.000587577
0.000553983
0.000518839
0.000482048
0.000443488
0.000403064
0.000360779
0.000317023
0.000273427
0.000236128
0.00023113
0.000403664
0.000578783
0.000314287
0.000291617
0.000313131
0.000345236
0.000379265
0.000412163
0.000442657
0.000470228
0.000494784
0.000516406
0.000535286
0.0005517
0.000565893
0.000578131
0.000588687
0.00059782
0.00060577
0.00061276
0.000618996
0.000624637
0.000629825
0.000634686
0.000639332
0.000643855
0.000648331
0.000652811
0.000657364
0.000662088
0.000667055
0.000672335
0.000677997
0.000684107
0.000690731
0.000697931
0.000705765
0.000714277
0.000723495
0.000733424
0.000744045
0.000755307
0.000767132
0.000779423
0.000792006
0.00080466
0.000817135
0.000829159
0.000840444
0.000850695
0.000859611
0.000866895
0.000872246
0.000875124
0.000875856
0.000874284
0.000869987
0.000862925
0.000853095
0.000840541
0.000825355
0.000807673
0.000787661
0.00076551
0.00074142
0.000715591
0.000688208
0.000659433
0.000629389
0.000598161
0.000565785
0.000532257
0.000497532
0.000461559
0.000424323
0.000385972
0.000347138
0.000309915
0.000281711
0.000293568
0.000530714
0.000728306
0.000383092
0.000341004
0.000353682
0.00038037
0.000410575
0.000440643
0.000469013
0.000494986
0.000518305
0.000538946
0.000557023
0.000572729
0.000586286
0.000597934
0.000607922
0.000616489
0.000623858
0.000630234
0.000635791
0.000640704
0.000645125
0.000649184
0.000652996
0.000656664
0.000660286
0.000663964
0.000667787
0.000671827
0.000676174
0.000680923
0.000686181
0.000692033
0.000698574
0.000705899
0.000714089
0.000723213
0.000733312
0.000744402
0.00075646
0.000769421
0.000783176
0.000797556
0.000812362
0.000827343
0.00084221
0.000856641
0.000870295
0.000882818
0.000893855
0.000903058
0.000910098
0.000914418
0.000915981
0.000915086
0.000911066
0.000903887
0.00089356
0.00088016
0.000863819
0.000844725
0.00082311
0.000799236
0.000773381
0.000745823
0.000716824
0.000686618
0.000655398
0.000623308
0.000590444
0.000556849
0.000522533
0.000487498
0.000451799
0.000415688
0.000379969
0.000347075
0.000325487
0.000350733
0.000644419
0.000870169
0.000447387
0.000387342
0.000392234
0.000414322
0.000441328
0.000469035
0.000495636
0.000520283
0.000542604
0.000562491
0.000579987
0.00059523
0.000608405
0.000619726
0.000629415
0.000637695
0.000644775
0.00065085
0.000656099
0.000660688
0.000664766
0.000668467
0.000671913
0.000675219
0.000678494
0.000681851
0.000685396
0.000689236
0.000693488
0.00069827
0.000703707
0.000709939
0.000717097
0.000725301
0.000734655
0.00074524
0.000757103
0.000770253
0.000784652
0.000800211
0.000816784
0.000834173
0.00085213
0.000870353
0.000888493
0.000906165
0.000922957
0.000938442
0.000952189
0.000963778
0.000972818
0.00097874
0.000981158
0.000980752
0.000976642
0.000968788
0.000957219
0.000942046
0.000923463
0.000901735
0.000877183
0.000850171
0.000821084
0.000790307
0.000758207
0.00072511
0.000691296
0.000656982
0.000622322
0.000587411
0.000552304
0.000517043
0.000481733
0.000446694
0.000412854
0.000382926
0.000366271
0.000402855
0.000747703
0.00100372
0.000507215
0.000430375
0.000428383
0.000446475
0.000470753
0.000496455
0.00052155
0.00054507
0.000566555
0.000585829
0.000602882
0.000617806
0.000630752
0.000641906
0.000651468
0.000659642
0.000666627
0.00067261
0.000677767
0.00068226
0.000686242
0.00068985
0.000693218
0.000696471
0.000699735
0.00070314
0.000706816
0.000710901
0.000715542
0.000720893
0.000727116
0.000734375
0.000742832
0.000752635
0.000763909
0.000776748
0.000791206
0.000807289
0.000824946
0.000844066
0.00086447
0.000885918
0.000908106
0.000930665
0.000953175
0.000975168
0.000996141
0.00101557
0.00103292
0.00104766
0.00105932
0.0010673
0.00107084
0.00107091
0.00106651
0.00105753
0.00104401
0.00102612
0.00100413
0.000978415
0.000949428
0.000917675
0.000883694
0.000848018
0.000811155
0.00077356
0.000735618
0.000697635
0.000659832
0.000622353
0.000585287
0.000548705
0.00051274
0.000477755
0.000444766
0.00041678
0.000403854
0.000450288
0.000842173
0.0011289
0.000562873
0.000470148
0.000462094
0.000476647
0.000498567
0.000522553
0.000546361
0.000568917
0.000589694
0.000608463
0.000625171
0.000639874
0.000652692
0.000663787
0.000673339
0.000681537
0.000688568
0.000694613
0.000699845
0.000704428
0.000708514
0.000712252
0.000715785
0.000719255
0.000722807
0.000726593
0.00073077
0.000735511
0.000740996
0.000747417
0.000754973
0.000763867
0.000774292
0.000786427
0.000800421
0.000816386
0.000834386
0.000854426
0.000876445
0.000900309
0.000925808
0.000952654
0.000980479
0.00100884
0.00103723
0.00106507
0.00109175
0.00111659
0.00113894
0.00115811
0.00117347
0.0011844
0.00118971
0.00119048
0.00118579
0.0011753
0.00115907
0.00113735
0.00111051
0.00107909
0.00104371
0.00100511
0.000964038
0.000921248
0.00087745
0.000833276
0.000789256
0.000745804
0.000703216
0.000661684
0.00062132
0.000582207
0.000544484
0.000508534
0.000475441
0.00044854
0.000438462
0.000493771
0.000930001
0.00124595
0.000614619
0.00050699
0.000493417
0.000504817
0.000524683
0.000547194
0.000569903
0.000591639
0.000611819
0.000630174
0.000646616
0.000661172
0.000673939
0.000685057
0.000694689
0.00070301
0.0007102
0.000716434
0.000721883
0.000726713
0.000731083
0.000735152
0.000739077
0.000743019
0.000747145
0.000751634
0.000756679
0.000762487
0.00076928
0.000777293
0.00078677
0.000797956
0.000811085
0.000826374
0.000844006
0.000864118
0.000886792
0.000912041
0.000939803
0.000969927
0.00100217
0.00103621
0.0010716
0.00110782
0.00114424
0.00118017
0.00121483
0.00124737
0.00127693
0.00130261
0.00132356
0.001339
0.00134735
0.00134944
0.00134479
0.00133254
0.00131279
0.00128583
0.00125221
0.00121267
0.00116815
0.00111967
0.00106835
0.00101526
0.000961425
0.000907733
0.000854916
0.000803533
0.000753971
0.000706461
0.00066112
0.000618015
0.000577264
0.000539243
0.000505086
0.000478434
0.000470518
0.000534069
0.00101299
0.00135519
0.000662761
0.000541147
0.000522479
0.000531039
0.000549101
0.000570341
0.000592115
0.000613161
0.000632847
0.000650869
0.000667115
0.000681589
0.000694369
0.000705576
0.000715363
0.000723893
0.000731338
0.000737872
0.000743666
0.000748891
0.000753714
0.000758308
0.000762846
0.000767513
0.000772504
0.000778031
0.000784326
0.000791639
0.000800241
0.00081042
0.000822471
0.000836695
0.00085338
0.000872792
0.00089516
0.000920664
0.000949421
0.000981468
0.00101676
0.00105514
0.00109637
0.00114006
0.00118572
0.00123272
0.00128034
0.00132768
0.00137379
0.00141757
0.00145787
0.00149349
0.00152322
0.00154595
0.00155973
0.00156452
0.00156086
0.00154693
0.00152277
0.00148876
0.00144566
0.00139454
0.00133675
0.00127385
0.00120747
0.00113925
0.00107067
0.00100305
0.000937409
0.000874524
0.000814881
0.000758738
0.000706182
0.000657213
0.000611875
0.000570493
0.000534218
0.000506941
0.000500566
0.0005719
0.00109258
0.00145702
0.000707591
0.000572839
0.000549424
0.0005554
0.000571864
0.000592006
0.000612988
0.000633461
0.000652747
0.000670514
0.00068663
0.000701082
0.000713932
0.000725291
0.000735299
0.000744115
0.000751906
0.000758844
0.000765105
0.000770867
0.000776311
0.000781623
0.000787001
0.000792657
0.000798819
0.00080574
0.000813698
0.000822998
0.000833968
0.00084696
0.000862339
0.000880473
0.000901721
0.00092642
0.000954871
0.00098732
0.00102395
0.00106485
0.00111003
0.00115936
0.00121262
0.0012694
0.00132917
0.00139123
0.00145468
0.00151848
0.00158138
0.00164197
0.00169868
0.00174985
0.00179374
0.00182865
0.00185236
0.00186265
0.00186203
0.00184726
0.00181801
0.0017747
0.00171833
0.00165045
0.00157311
0.00148867
0.00139967
0.00130864
0.00121788
0.00112938
0.00104468
0.000964825
0.000890458
0.000821823
0.000758901
0.00070153
0.000649584
0.000603244
0.000563602
0.000534714
0.000529219
0.00060792
0.00116988
0.00155187
0.000749376
0.000602261
0.000574394
0.000577997
0.000593034
0.000612224
0.000632539
0.000652544
0.000671518
0.000689105
0.000705155
0.000719642
0.000732619
0.000744188
0.000754483
0.000763658
0.000771881
0.000779327
0.000786177
0.00079262
0.000798854
0.000805086
0.000811541
0.000818464
0.000826126
0.000834829
0.000844908
0.000856733
0.000870705
0.000887258
0.00090684
0.000929914
0.000956935
0.000988345
0.00102455
0.00106591
0.00111271
0.00116516
0.00122337
0.00128731
0.00135681
0.00143154
0.00151094
0.00159427
0.00168051
0.00176839
0.00185634
0.00194251
0.00202476
0.00210071
0.00216777
0.00222325
0.00226462
0.0022871
0.0022928
0.00227988
0.00224568
0.00219053
0.00211573
0.00202352
0.00191695
0.00179974
0.00167594
0.0015496
0.0014245
0.00130378
0.00118986
0.00108431
0.000987929
0.000900898
0.000822937
0.000753539
0.000692208
0.00063881
0.000594233
0.00056254
0.000557134
0.000642712
0.00124565
0.00164013
0.000788357
0.000629591
0.000597519
0.000598931
0.000612683
0.000631044
0.0006508
0.000670432
0.000689175
0.000706651
0.000722697
0.000737277
0.000750438
0.000762275
0.000772922
0.000782531
0.000791272
0.000799328
0.000806891
0.000814164
0.000821364
0.000828727
0.000836511
0.000845003
0.000854524
0.000865437
0.000878147
0.000893105
0.000910806
0.000931782
0.000956598
0.00098584
0.0010201
0.00105997
0.00110602
0.00115879
0.00121875
0.00128631
0.00136177
0.00144531
0.00153693
0.00163646
0.00174345
0.00185717
0.00197652
0.00210003
0.00222573
0.00235118
0.00247343
0.00258903
0.00269414
0.00278458
0.00285635
0.00290343
0.0029224
0.00291722
0.00288043
0.00281153
0.002712
0.00258489
0.00243474
0.00226732
0.00208918
0.00190707
0.00172735
0.0015554
0.00139526
0.00124946
0.00111913
0.00100424
0.000903952
0.000817056
0.000742316
0.00067894
0.000627339
0.00059132
0.000585001
0.000676908
0.00132073
0.00172216
0.000824748
0.000654998
0.000618903
0.000618306
0.000630888
0.000648522
0.000667812
0.000687153
0.000705739
0.000723171
0.000739273
0.000754004
0.000767404
0.000779569
0.000790633
0.000800751
0.000810101
0.000818874
0.000827276
0.000835533
0.000843886
0.000852604
0.000861987
0.000872373
0.000884147
0.000897744
0.000913657
0.000932438
0.000954699
0.000981103
0.00101237
0.00104925
0.00109253
0.00114302
0.00120155
0.00126892
0.00134591
0.00143327
0.00153167
0.00164164
0.00176356
0.00189759
0.00204356
0.00220091
0.00236857
0.00254487
0.00272737
0.00291284
0.00309715
0.00327534
0.00344163
0.00358964
0.00371266
0.00380445
0.00385257
0.00386398
0.00383238
0.0037509
0.00362094
0.00344631
0.00323331
0.00299051
0.00272825
0.00245779
0.00219014
0.00193495
0.00169959
0.00148868
0.0013041
0.0011455
0.00101099
0.000897941
0.000803644
0.000726012
0.00066445
0.000622088
0.000613559
0.000711062
0.0013954
0.00179829
0.000858745
0.000678638
0.000638638
0.000636217
0.000647724
0.000664717
0.000683619
0.000702743
0.00072124
0.000738689
0.000754905
0.000769841
0.000783537
0.000796091
0.000807638
0.000818343
0.000828392
0.000837992
0.000847368
0.000856769
0.000866471
0.000876783
0.000888056
0.000900691
0.000915148
0.000931954
0.000951711
0.000975097
0.00100287
0.00103587
0.00107501
0.00112129
0.00117576
0.00123955
0.00131385
0.0013999
0.00149897
0.00161235
0.0017413
0.001887
0.00205049
0.00223254
0.00243355
0.00265333
0.00289097
0.00314456
0.00341104
0.003686
0.00396363
0.00423673
0.00449682
0.00473451
0.00493978
0.00510308
0.00520921
0.00525136
0.00524083
0.00515583
0.0049954
0.0047635
0.00446762
0.00411912
0.00373306
0.00332719
0.0029203
0.00252999
0.00217064
0.0018518
0.00157774
0.00134807
0.00115913
0.00100558
0.000881891
0.000783415
0.000707548
0.000656027
0.000643444
0.000745025
0.00146802
0.00186885
0.000890509
0.000700612
0.000656874
0.000652743
0.000663259
0.000679683
0.000698267
0.000717236
0.000735704
0.000753228
0.000769613
0.000784809
0.000798858
0.000811861
0.00082396
0.000835331
0.000846174
0.000856713
0.0008672
0.000877915
0.000889173
0.000901332
0.000914807
0.000930074
0.000947686
0.000968282
0.000992597
0.00102147
0.00105585
0.0010968
0.0011455
0.00120328
0.00127156
0.00135194
0.00144615
0.00155608
0.00168374
0.00183128
0.00200089
0.00219481
0.0024151
0.00266357
0.00294145
0.00324914
0.00358582
0.00394911
0.00433477
0.00473648
0.00514586
0.00555255
0.00594462
0.00630897
0.00663194
0.00689943
0.0070989
0.00720241
0.00722963
0.00716576
0.0069896
0.00670489
0.00631837
0.0058418
0.00529346
0.00469794
0.00408457
0.00348395
0.00292409
0.00242615
0.00200184
0.00165311
0.00137436
0.00115569
0.00098619
0.000856279
0.000759411
0.00069458
0.00067521
0.000778708
0.00153739
0.00193415
0.00092019
0.000721032
0.00067372
0.000667966
0.000677561
0.000693479
0.0007118
0.000730671
0.000749162
0.000766813
0.000783419
0.000798928
0.000813384
0.000826896
0.000839617
0.000851734
0.000863466
0.000875063
0.000886804
0.000899008
0.000912039
0.000926314
0.000942323
0.000960635
0.000981914
0.00100694
0.0010366
0.00107196
0.00111418
0.00116464
0.00122488
0.00129664
0.00138191
0.00148292
0.0016022
0.00174256
0.00190713
0.00209932
0.00232276
0.00258119
0.00287819
0.0032169
0.00359953
0.00402685
0.00449755
0.00500776
0.00555073
0.00611678
0.00669367
0.00726711
0.00782148
0.00834054
0.00880816
0.00920849
0.00952635
0.00973448
0.00981999
0.00981553
0.00966309
0.00935983
0.00890889
0.00831653
0.00759792
0.00677923
0.00589892
0.00500299
0.00414109
0.00335765
0.00268409
0.00213378
0.00170282
0.00137557
0.00113189
0.00095284
0.000824248
0.000739688
0.000709529
0.000811934
0.00160197
0.00199443
0.000947921
0.000740001
0.000689267
0.000681963
0.000690696
0.000706157
0.000724263
0.000743082
0.000761644
0.000779468
0.000796342
0.000812214
0.000827132
0.000841213
0.000854623
0.000867567
0.000880287
0.00089306
0.000906202
0.000920077
0.000935106
0.00095178
0.000970675
0.000992471
0.00101797
0.00104811
0.00108401
0.00112694
0.00117842
0.00124017
0.00131423
0.00140293
0.00150898
0.00163552
0.00178618
0.00196511
0.002177
0.00242706
0.00272088
0.00306415
0.00346229
0.00391969
0.00443895
0.00501993
0.00565893
0.00634817
0.00707594
0.00782716
0.00858467
0.00933036
0.0100464
0.0107162
0.0113254
0.0118591
0.0123022
0.0126414
0.0128411
0.0129135
0.0128548
0.0126067
0.0121695
0.0115372
0.0107112
0.00970402
0.00855419
0.00731468
0.00605799
0.00486272
0.00380009
0.00291685
0.00222678
0.00171397
0.0013458
0.00108696
0.000908797
0.000794314
0.000747365
0.000844509
0.00165998
0.00204994
0.000973822
0.000757613
0.000703597
0.000694806
0.000702724
0.000717769
0.000735699
0.000754505
0.000773178
0.000791216
0.000808402
0.000824683
0.000840113
0.000854821
0.000868988
0.00088284
0.000896645
0.000910713
0.000925405
0.000941137
0.000958397
0.000977762
0.000999912
0.00102566
0.00105596
0.00109198
0.00113505
0.00118678
0.00124907
0.00132415
0.00141466
0.00152372
0.00165503
0.00181296
0.00200262
0.00222998
0.00250183
0.00282571
0.00320959
0.00366131
0.00418769
0.00479326
0.00547881
0.00624013
0.00706722
0.00794447
0.00885216
0.00976843
0.0106718
0.011543
0.0123662
0.0131304
0.0138319
0.0144579
0.0150009
0.0154538
0.0158081
0.0160273
0.0161122
0.0160322
0.0157334
0.0152021
0.0144294
0.013378
0.0120705
0.0105485
0.00888715
0.00719447
0.00559632
0.00420449
0.00308831
0.00225814
0.00167593
0.00128291
0.00102444
0.000863288
0.000790294
0.000876359
0.00170972
0.00210088
0.000997999
0.000773955
0.000716785
0.000706559
0.000713702
0.000728363
0.000746149
0.000764973
0.00078379
0.000802079
0.000819614
0.000836347
0.000852337
0.000867727
0.000882716
0.000897554
0.000912539
0.000928023
0.000944413
0.000962189
0.000981918
0.00100427
0.00103006
0.00106024
0.00109597
0.00113864
0.00118992
0.00125178
0.00132662
0.00141729
0.00152723
0.00166058
0.00182233
0.00201845
0.00225602
0.00254334
0.00288978
0.00330557
0.00380104
0.00438545
0.00506521
0.0058418
0.00670969
0.00765517
0.00865657
0.00968639
0.0107151
0.0117148
0.0126638
0.0135494
0.0143617
0.0150893
0.0157233
0.0162862
0.0167964
0.0172657
0.0176991
0.0180927
0.0184376
0.0186857
0.0187971
0.0186764
0.0182087
0.0173849
0.0161508
0.0145778
0.0126639
0.0105279
0.00833279
0.0062687
0.00451145
0.0031593
0.0022089
0.00158437
0.00119115
0.000954873
0.000841075
0.000907769
0.00174992
0.00214745
0.00102055
0.000789102
0.000728898
0.000717283
0.000723684
0.000737986
0.000755651
0.000774519
0.000793506
0.000812075
0.000829994
0.000847215
0.000863809
0.000879932
0.000895804
0.000911702
0.000927962
0.000944976
0.000963211
0.000983217
0.00100565
0.0010313
0.0010611
0.00109621
0.00113801
0.00118818
0.00124874
0.00132215
0.00141141
0.00152015
0.00165283
0.00181487
0.00201289
0.0022549
0.00255042
0.00291046
0.0033473
0.00387364
0.00450111
0.00523804
0.00608641
0.0070389
0.00807689
0.0091707
0.0102824
0.0113713
0.0123999
0.0133391
0.0141695
0.0148817
0.015482
0.0159926
0.0164547
0.0168899
0.0173174
0.0177524
0.0182036
0.0186714
0.0191477
0.0196179
0.0200752
0.0204961
0.0207045
0.0207191
0.0201244
0.0189303
0.0170905
0.01479
0.0121427
0.00937507
0.00679193
0.00465714
0.00309658
0.0020708
0.00144507
0.00108372
0.000904702
0.000939761
0.00178032
0.00218982
0.00104155
0.000803126
0.000739999
0.000727036
0.00073272
0.000746682
0.000764242
0.000783172
0.00080235
0.000821223
0.000839553
0.000857295
0.00087453
0.000891432
0.000908243
0.000925273
0.000942893
0.00096155
0.00098177
0.00100419
0.00102955
0.00105879
0.001093
0.00113354
0.00118206
0.00124057
0.00131154
0.00139799
0.00150365
0.00163313
0.00179211
0.00198761
0.00222825
0.00252446
0.00288854
0.00333446
0.00387702
0.00453018
0.00530422
0.00620192
0.00721432
0.0083177
0.00947332
0.010631
0.0117364
0.0127396
0.0136045
0.0143152
0.0148672
0.0152831
0.0156023
0.0158531
0.0160803
0.0163204
0.0166062
0.016964
0.0174121
0.0179576
0.0185958
0.0193061
0.0200504
0.020771
0.0214391
0.0220204
0.0223527
0.0223794
0.021466
0.0195363
0.0168587
0.0136215
0.0102088
0.00707154
0.00458527
0.00288418
0.00185246
0.00127644
0.000990365
0.000974624
0.0018026
0.00222814
0.00106108
0.00081609
0.000750145
0.00073587
0.000740856
0.00075449
0.000771957
0.000790961
0.000810345
0.000829539
0.000848301
0.00086659
0.0008845
0.000902221
0.000920021
0.000938244
0.000957306
0.000977706
0.00100004
0.00102504
0.00105356
0.00108666
0.00112565
0.00117211
0.00122798
0.00129569
0.0013782
0.00147922
0.00160334
0.00175631
0.00194531
0.00217925
0.00246905
0.00282787
0.00327091
0.00381471
0.00447534
0.00526528
0.00618875
0.00723624
0.00838
0.00957276
0.0107517
0.0118474
0.0127956
0.0135458
0.0140784
0.0144299
0.0145937
0.014631
0.0145976
0.0145217
0.0144814
0.0144813
0.0145757
0.0147946
0.0151592
0.0156845
0.0163832
0.0172584
0.0182999
0.0194705
0.0207011
0.0218887
0.0228783
0.0236584
0.0240414
0.0236514
0.021892
0.0187443
0.0148434
0.0107112
0.00701725
0.00426319
0.00253416
0.00158225
0.00111518
0.00101646
0.00182148
0.00226256
0.00107921
0.000828054
0.000759392
0.000743834
0.000748137
0.000761451
0.00077883
0.000797914
0.000817512
0.000837039
0.000856248
0.000875105
0.000893714
0.000912286
0.000931118
0.000950589
0.000971162
0.000993396
0.00101797
0.00104569
0.00107757
0.00111481
0.00115892
0.00121176
0.0012756
0.00135333
0.00144849
0.00156556
0.00171017
0.00188939
0.00211211
0.00238937
0.00273465
0.00316387
0.0036948
0.00434535
0.00513038
0.00605646
0.00711532
0.0082776
0.00948989
0.0106781
0.0117577
0.0126483
0.013295
0.0136446
0.0137646
0.0137422
0.0134986
0.0131345
0.0127706
0.012451
0.0122095
0.0120916
0.0120577
0.0121596
0.0124232
0.0128403
0.0134358
0.0142329
0.0152618
0.0165468
0.0180887
0.0198406
0.0216749
0.0234099
0.0247247
0.025379
0.0255228
0.0239773
0.0203595
0.0156765
0.0107493
0.00656086
0.00370128
0.00209233
0.00131047
0.00107455
0.00184599
0.00229322
0.00109599
0.000839072
0.000767789
0.000750975
0.000754606
0.000767601
0.000784893
0.000804057
0.000823872
0.000843736
0.000863402
0.000882839
0.000902165
0.000921614
0.00094151
0.000962272
0.000984413
0.00100856
0.00103546
0.00106606
0.00110146
0.00114307
0.00119262
0.00125224
0.00132462
0.00141312
0.00152196
0.0016565
0.0018235
0.00203156
0.00229143
0.00261646
0.00302271
0.00352857
0.00415336
0.0049143
0.00582118
0.00686901
0.00803019
0.0092493
0.0104446
0.0115187
0.0123767
0.0129157
0.0131323
0.0131453
0.0128527
0.0123515
0.011788
0.0112297
0.010744
0.010367
0.0101237
0.0100138
0.00998691
0.0100821
0.0103071
0.0106392
0.0110948
0.0116891
0.0124545
0.0134512
0.0147632
0.0164689
0.0185699
0.0209769
0.0234404
0.0255546
0.0267591
0.0272238
0.0258388
0.0216026
0.0159468
0.0101888
0.005689
0.00297053
0.00163515
0.00116604
0.00189168
0.00232024
0.00111149
0.000849194
0.000775383
0.000757337
0.000760302
0.000772977
0.000790177
0.000809416
0.000829445
0.000849646
0.00086977
0.000889792
0.000909846
0.000930186
0.000951169
0.000973254
0.000997007
0.00102312
0.00105244
0.001086
0.00112508
0.00117125
0.00122649
0.00129326
0.00137465
0.00147457
0.00159799
0.00175122
0.0019423
0.00218141
0.00248134
0.00285771
0.00332892
0.00391508
0.00463543
0.00550338
0.00651903
0.00766003
0.00887403
0.0100774
0.0111638
0.0120228
0.0124988
0.0126576
0.0125515
0.0120779
0.0114242
0.0107046
0.01003
0.00946327
0.00903491
0.00875906
0.00863104
0.008593
0.00863665
0.00880285
0.0090461
0.00936848
0.00977162
0.0102627
0.0108566
0.0115695
0.0124447
0.0135732
0.0151402
0.0173227
0.0201557
0.0233231
0.0263882
0.0282063
0.028887
0.0274517
0.0222858
0.0154239
0.00893992
0.00448944
0.00219937
0.00132262
0.00198395
0.00234376
0.00112575
0.000858468
0.00078222
0.000762962
0.000765265
0.000777614
0.000794712
0.000814018
0.000834251
0.000854782
0.000875359
0.000895965
0.000916748
0.000937985
0.000960065
0.000983489
0.00100888
0.001037
0.00106878
0.00110539
0.00114824
0.00119912
0.00126024
0.00133441
0.00142518
0.00153704
0.00167574
0.00184862
0.00206506
0.00233691
0.00267894
0.00310888
0.00364692
0.00431364
0.00512591
0.0060898
0.007191
0.00838526
0.00959338
0.010706
0.0115987
0.0120805
0.0122291
0.0120444
0.0114937
0.0107336
0.00991362
0.00915705
0.00854033
0.00809036
0.007814
0.00768883
0.00765343
0.00769457
0.00784249
0.0080616
0.00834324
0.00868575
0.009088
0.00955188
0.0100833
0.0106927
0.0113887
0.0122052
0.0132126
0.0145515
0.0165022
0.0194701
0.0232797
0.0272869
0.0297194
0.030552
0.0286836
0.0220858
0.0138561
0.00705759
0.0031914
0.0016019
0.00216374
0.0023639
0.00113882
0.000866938
0.000788344
0.000767893
0.000769533
0.000781547
0.000798531
0.000817888
0.000838311
0.000859159
0.000880178
0.000901357
0.000922861
0.00094499
0.000968165
0.00099293
0.00101996
0.0010501
0.00108438
0.00112406
0.00117074
0.00122639
0.00129351
0.00137525
0.00147562
0.00159974
0.00175416
0.0019473
0.00218988
0.00249539
0.00288042
0.00336445
0.00396854
0.00471217
0.00560724
0.00664889
0.00780479
0.00900674
0.0101506
0.011107
0.01166
0.0118391
0.0116606
0.0110946
0.0102791
0.00938495
0.00856023
0.00789578
0.00742087
0.00713992
0.0070143
0.00697874
0.00701416
0.00714813
0.00734812
0.00760547
0.00791771
0.00828375
0.00870283
0.00917454
0.00969904
0.010279
0.0109237
0.0116337
0.0124263
0.0133608
0.0145803
0.0163477
0.0191986
0.0235323
0.0284719
0.0313666
0.032201
0.0292087
0.0204968
0.0111525
0.00489592
0.00211041
0.00249301
0.00238078
0.00115074
0.000874646
0.000793797
0.000772168
0.000773144
0.000784811
0.000801663
0.000821054
0.000841648
0.000862794
0.000884235
0.00090597
0.000928178
0.000951182
0.000975436
0.00100153
0.00103019
0.00106234
0.00109909
0.00114185
0.00119235
0.00125279
0.00132592
0.00141526
0.00152529
0.00166175
0.00183203
0.00204558
0.00231442
0.00265359
0.00308119
0.00361782
0.00428435
0.00509736
0.00606123
0.00715739
0.0083335
0.00949865
0.0105312
0.0112152
0.0114644
0.011367
0.010853
0.0100331
0.00908887
0.00819568
0.00746976
0.00695173
0.00664312
0.00650304
0.00645965
0.00647351
0.00658031
0.00675023
0.00697281
0.0072476
0.00757606
0.00796025
0.00840177
0.00890073
0.00945496
0.0100602
0.0107118
0.0114099
0.0121601
0.0129581
0.0138579
0.0149927
0.0166564
0.0194096
0.0242255
0.030119
0.0331696
0.0337302
0.0281965
0.0171122
0.00767845
0.00301836
0.00305267
0.00239452
0.00116155
0.000881632
0.000798618
0.000775828
0.000776137
0.000787441
0.000804142
0.000823543
0.000844284
0.000865703
0.000887542
0.000909807
0.000932692
0.000956543
0.000981846
0.00100923
0.00103949
0.00107361
0.00111279
0.00115857
0.00121283
0.00127797
0.00135703
0.00145386
0.00157342
0.00172205
0.00190795
0.00214155
0.00243608
0.00280784
0.00327609
0.00386179
0.00458443
0.00545597
0.00647124
0.00759627
0.0087585
0.00984675
0.0107035
0.0110845
0.0111069
0.0107191
0.00995653
0.00899646
0.00803714
0.00723064
0.00664433
0.00627812
0.00610237
0.00603611
0.00602675
0.0060876
0.00621457
0.00638806
0.0066086
0.00687996
0.00720742
0.00759676
0.0080531
0.00857956
0.00917583
0.0098366
0.0105509
0.0113037
0.0120815
0.0128827
0.0136933
0.0145836
0.0156733
0.0173069
0.0201696
0.025661
0.0322471
0.0351329
0.0345646
0.0247299
0.0119556
0.00453938
0.00391739
0.00240524
0.00117128
0.000887935
0.000802852
0.000778904
0.000778549
0.000789473
0.000805999
0.000825384
0.000846245
0.000867906
0.000890112
0.000912873
0.000936399
0.000961057
0.000987366
0.001016
0.00104779
0.00108381
0.00112534
0.00117403
0.00123193
0.00130163
0.0013864
0.00149046
0.00161921
0.00177956
0.00198043
0.00223317
0.00255201
0.00295426
0.00345978
0.00408911
0.00485925
0.00577614
0.00682391
0.00795314
0.00907336
0.0100559
0.0106525
0.0108249
0.0106248
0.00999441
0.00907404
0.00806867
0.00716821
0.00648327
0.00603327
0.0057934
0.0056883
0.0056562
0.0056638
0.00573815
0.0058564
0.00601402
0.00621612
0.00646944
0.00678208
0.0071627
0.00761976
0.0081606
0.00878976
0.00950657
0.0103022
0.0111573
0.0120427
0.012926
0.0137661
0.0145608
0.0154478
0.0165569
0.0182446
0.0214521
0.0280058
0.0348458
0.0371347
0.0329537
0.018014
0.00685857
0.00508895
0.00241308
0.00117998
0.000893593
0.000806538
0.000781432
0.00078042
0.000790944
0.000807269
0.000826609
0.000847556
0.000869426
0.000891961
0.000915178
0.000939299
0.000964715
0.000991971
0.00102178
0.00105503
0.00109284
0.00113661
0.00118807
0.00124941
0.0013234
0.00141359
0.00152446
0.00166184
0.00183316
0.00204797
0.00231837
0.0026594
0.00308898
0.00362706
0.00429303
0.00510045
0.00604839
0.00710995
0.00822116
0.00927734
0.0101173
0.0104865
0.0104899
0.0100715
0.00927059
0.00827041
0.00728536
0.00647882
0.005916
0.00557828
0.00541283