/*--------------------------------*- C++ -*----------------------------------*\
  =========                 |
  \\      /  F ield         | OpenFOAM: The Open Source CFD Toolbox
   \\    /   O peration     | Website:  https://openfoam.org
    \\  /    A nd           | Version:  13
     \\/     M anipulation  |
\*---------------------------------------------------------------------------*/
FoamFile
{
    format      ascii;
    class       volScalarField;
    location    "1";
    object      k;
}
// * * * * * * * * * * * * * * * * * * * * * * * * * * * * * * * * * * * * * //

dimensions      [0 2 -2 0 0 0 0];

internalField   nonuniform List<scalar> 
6400
(
5.07647e-07
2.4476e-06
5.04773e-06
7.6673e-06
1.00647e-05
1.21991e-05
1.4092e-05
1.57738e-05
1.72707e-05
1.86033e-05
1.97886e-05
2.08411e-05
2.17744e-05
2.26013e-05
2.33346e-05
2.39865e-05
2.45691e-05
2.50939e-05
2.55721e-05
2.60142e-05
2.64302e-05
2.68295e-05
2.72208e-05
2.76121e-05
2.80111e-05
2.84248e-05
2.886e-05
2.93228e-05
2.98192e-05
3.03547e-05
3.09347e-05
3.15638e-05
3.22464e-05
3.2986e-05
3.37853e-05
3.46459e-05
3.55675e-05
3.65485e-05
3.75847e-05
3.86696e-05
3.97937e-05
4.09436e-05
4.21018e-05
4.32484e-05
4.43828e-05
4.55243e-05
4.66106e-05
4.76209e-05
4.85341e-05
4.93303e-05
4.99936e-05
5.04924e-05
5.07719e-05
5.0891e-05
5.08454e-05
5.05761e-05
5.00915e-05
4.93938e-05
4.84873e-05
4.73793e-05
4.60792e-05
4.45989e-05
4.29514e-05
4.11516e-05
3.92141e-05
3.71524e-05
3.49784e-05
3.27022e-05
3.03313e-05
2.78708e-05
2.53232e-05
2.26896e-05
1.99663e-05
1.71519e-05
1.42483e-05
1.12774e-05
8.25295e-06
5.2417e-06
2.47694e-06
5.12073e-07
2.464e-06
2.02943e-05
4.21662e-05
6.27824e-05
8.0836e-05
9.64297e-05
0.00010995
0.00012175
0.000132098
0.000141199
0.00014921
0.000156264
0.000162477
0.000167955
0.000172794
0.000177088
0.000180924
0.000184381
0.000187538
0.000190465
0.000193227
0.000195887
0.0001985
0.000201119
0.000203791
0.00020656
0.000209467
0.00021255
0.000215843
0.000219378
0.000223183
0.000227282
0.000231696
0.000236439
0.000241517
0.000246928
0.000252662
0.000258693
0.000264986
0.000271488
0.000278135
0.000284841
0.000291501
0.000297987
0.000304152
0.000309909
0.000315251
0.000320081
0.000324305
0.00032784
0.000330628
0.00033245
0.000333128
0.000333123
0.000332124
0.000330019
0.000326825
0.000322552
0.000317213
0.000310836
0.000303452
0.000295103
0.000285833
0.000275689
0.000264716
0.000252952
0.000240426
0.000227154
0.000213134
0.000198346
0.00018275
0.00016628
0.000148843
0.000130326
0.000110587
8.94536e-05
6.6913e-05
4.33781e-05
2.03955e-05
2.47634e-06
5.22973e-06
4.33267e-05
8.60204e-05
0.000123055
0.000154122
0.000180392
0.000202853
0.000222222
0.000239014
0.000253614
0.000266326
0.000277396
0.00028704
0.000295446
0.000302785
0.000309216
0.000314883
0.000319923
0.000324457
0.000328602
0.000332462
0.000336133
0.000339702
0.000343251
0.000346852
0.000350572
0.000354473
0.000358609
0.000363031
0.000367786
0.000372911
0.000378443
0.000384406
0.000390818
0.000397686
0.000405005
0.000412756
0.000420903
0.000429393
0.000438158
0.00044711
0.000456145
0.000465143
0.000473972
0.000482503
0.000490614
0.00049818
0.000505064
0.000511131
0.00051625
0.000520303
0.000523118
0.000524397
0.000524584
0.000523392
0.000520655
0.000516365
0.000510523
0.000503138
0.000494235
0.000483849
0.000472029
0.000458827
0.0004443
0.000428499
0.00041147
0.000393242
0.000373825
0.000353203
0.000331324
0.000308099
0.000283388
0.000256994
0.00022865
0.000197998
0.000164556
0.000127715
8.68628e-05
4.28152e-05
5.16411e-06
8.25968e-06
6.67648e-05
0.000126634
0.000174949
0.000214271
0.000247175
0.000275192
0.000299286
0.000320117
0.00033817
0.000353827
0.000367402
0.000379168
0.000389364
0.000398211
0.000405905
0.00041263
0.000418554
0.00042383
0.000428602
0.000432998
0.00043714
0.000441135
0.000445084
0.000449079
0.000453204
0.000457537
0.000462149
0.000467103
0.000472458
0.000478265
0.000484566
0.000491397
0.000498778
0.000506719
0.000515212
0.000524233
0.000533738
0.000543664
0.000553927
0.000564425
0.000575035
0.000585624
0.000596042
0.00060614
0.000615758
0.000624732
0.000632895
0.000640084
0.000646141
0.000650918
0.00065423
0.000655769
0.00065597
0.000654476
0.000651154
0.000645981
0.000638948
0.000630064
0.000619357
0.000606868
0.000592654
0.000576778
0.000559307
0.000540305
0.000519828
0.000497914
0.000474577
0.000449798
0.000423518
0.000395626
0.000365948
0.00033423
0.000300114
0.000263091
0.000222417
0.000176927
0.000124688
6.41379e-05
7.87069e-06
1.12859e-05
8.89101e-05
0.000162847
0.000219554
0.000264773
0.000302358
0.000334306
0.000361777
0.000385531
0.000406113
0.000423954
0.000439408
0.000452783
0.000464351
0.000474362
0.00048304
0.000490594
0.000497215
0.000503078
0.000508347
0.000513171
0.000517686
0.00052202
0.000526289
0.000530601
0.000535055
0.000539744
0.000544753
0.000550159
0.000556034
0.000562438
0.000569424
0.000577031
0.000585283
0.00059419
0.00060374
0.000613903
0.000624623
0.000635825
0.00064741
0.000659257
0.000671229
0.000683169
0.00069491
0.000706276
0.00071708
0.000727134
0.000736249
0.000744239
0.000750927
0.000756149
0.000759672
0.000761229
0.000761274
0.000759328
0.000755317
0.000749207
0.000740989
0.000730674
0.000718295
0.000703903
0.000687563
0.000669352
0.000649353
0.000627644
0.000604295
0.000579356
0.000552853
0.000524773
0.000495057
0.000463588
0.000430174
0.000394527
0.000356227
0.000314654
0.000268848
0.00021717
0.000156542
8.29435e-05
1.03487e-05
1.42028e-05
0.000109353
0.000195182
0.000258722
0.00030865
0.000349914
0.000384931
0.000415042
0.000441097
0.000463696
0.000483304
0.000500302
0.000515023
0.000527761
0.000538781
0.000548329
0.00055663
0.000563893
0.00057031
0.00057606
0.000581309
0.000586208
0.0005909
0.000595517
0.000600182
0.000605008
0.000610101
0.000615561
0.000621479
0.000627936
0.000635003
0.000642738
0.000651185
0.000660369
0.000670293
0.000680942
0.000692273
0.000704219
0.000716689
0.000729566
0.000742712
0.000755968
0.000769159
0.000782095
0.000794577
0.000806397
0.000817347
0.000827218
0.00083581
0.00084293
0.000848398
0.000851924
0.000853358
0.000853061
0.000850525
0.0008457
0.000838553
0.000829076
0.000817287
0.000803226
0.000786954
0.000768553
0.000748114
0.000725736
0.000701514
0.000675536
0.000647868
0.000618547
0.000587572
0.000554886
0.00052037
0.00048382
0.000444918
0.000403191
0.000357919
0.000307947
0.000251228
0.000183733
9.93137e-05
1.25666e-05
1.69708e-05
0.000128097
0.00022421
0.000293601
0.000347545
0.000391915
0.000429498
0.000461811
0.000489792
0.000514092
0.000535208
0.000553544
0.000569449
0.000583232
0.000595174
0.000605533
0.000614547
0.000622439
0.000629414
0.000635665
0.000641371
0.000646699
0.000651805
0.000656836
0.00066193
0.000667214
0.00067281
0.000678829
0.000685374
0.000692534
0.000700389
0.000709001
0.000718412
0.000728645
0.000739698
0.000751544
0.000764128
0.000777367
0.000791153
0.000805349
0.000819798
0.00083432
0.00084872
0.000862787
0.000876302
0.00088904
0.000900774
0.00091128
0.000920342
0.000927756
0.000933327
0.000936705
0.000937914
0.000937113
0.000933857
0.000928093
0.000919791
0.000908948
0.000895591
0.000879771
0.000861566
0.000841072
0.000818401
0.00079367
0.000766995
0.000738483
0.000708218
0.000676252
0.000642593
0.000607189
0.00056992
0.000530565
0.000488782
0.000444046
0.000395541
0.000341936
0.000280831
0.000207413
0.000113688
1.45816e-05
1.95769e-05
0.000145265
0.000250404
0.000324942
0.000382441
0.000429551
0.000469385
0.000503619
0.00053328
0.000559071
0.000581518
0.000601049
0.000618028
0.000632775
0.000645583
0.00065672
0.000666436
0.000674964
0.000682521
0.000689312
0.00069553
0.000701353
0.000706954
0.000712492
0.000718119
0.000723978
0.000730203
0.000736917
0.000744233
0.000752248
0.000761046
0.000770688
0.000781217
0.000792646
0.000804966
0.000818134
0.000832081
0.000846707
0.000861883
0.000877455
0.000893244
0.000909051
0.00092466
0.000939843
0.000954361
0.000967973
0.000980436
0.000991512
0.00100097
0.0010086
0.00101418
0.00101731
0.0010182
0.00101679
0.0010127
0.00100588
0.000996291
0.000983951
0.000968894
0.000951188
0.000930929
0.000908235
0.000883241
0.00085609
0.000826924
0.00079587
0.000763033
0.000728481
0.000692231
0.000654239
0.000614375
0.000572408
0.000527966
0.000480471
0.000429023
0.000372132
0.000307098
0.000228451
0.000126587
1.6425e-05
2.20201e-05
0.000161
0.000274142
0.000353277
0.000413989
0.000463583
0.000505452
0.000541418
0.000572591
0.000599726
0.000623382
0.000644007
0.00066198
0.000677634
0.000691272
0.000703171
0.000713591
0.000722774
0.000730948
0.000738329
0.000745123
0.000751521
0.00075771
0.000763862
0.000770144
0.000776713
0.000783713
0.000791279
0.000799532
0.000808574
0.000818489
0.000829338
0.000841155
0.000853945
0.000867686
0.000882319
0.000897758
0.000913885
0.000930551
0.000947582
0.000964782
0.000981931
0.000998795
0.00101513
0.00103068
0.00104518
0.00105839
0.00107004
0.0010799
0.00108772
0.00109329
0.00109613
0.00109668
0.00109459
0.00108959
0.0010816
0.0010706
0.00105661
0.00103968
0.00101989
0.000997379
0.000972285
0.000944777
0.000915032
0.000883222
0.000849507
0.000814014
0.00077683
0.000737983
0.000697432
0.000655041
0.000610562
0.00056359
0.0005135
0.000459311
0.000399398
0.000330798
0.000247481
0.000138395
1.81393e-05
2.43046e-05
0.000175439
0.000295725
0.000379008
0.000442657
0.000494536
0.000538282
0.000575845
0.000608412
0.000636788
0.000661564
0.000683211
0.000702124
0.000718647
0.000733092
0.000745748
0.000756882
0.000766746
0.00077558
0.00078361
0.000791053
0.000798116
0.000804996
0.000811883
0.000818955
0.000826381
0.000834319
0.00084291
0.00085228
0.000862535
0.000873756
0.000885999
0.000899287
0.000913616
0.000928944
0.000945201
0.000962279
0.000980043
0.000998326
0.00101694
0.00103566
0.00105426
0.00107249
0.00109008
0.00110676
0.00112227
0.00113632
0.00114866
0.00115903
0.00116717
0.00117279
0.00117542
0.00117566
0.00117292
0.00116699
0.00115777
0.00114523
0.0011294
0.00111036
0.00108822
0.00106315
0.00103532
0.00100495
0.000972281
0.000937519
0.000900867
0.000862489
0.000822494
0.000780926
0.000737743
0.000692802
0.000645832
0.000596397
0.000543821
0.000487048
0.000424331
0.00035248
0.000264969
0.000149399
1.97595e-05
2.64371e-05
0.000188706
0.000315404
0.000402448
0.000468798
0.000522799
0.000568297
0.000607355
0.000641231
0.000670773
0.000696607
0.000719225
0.000739038
0.000756405
0.000771649
0.000785065
0.000796931
0.000807511
0.000817053
0.000825797
0.000833971
0.000841796
0.000849483
0.000857234
0.000865242
0.000873687
0.000882734
0.000892534
0.000903213
0.000914877
0.000927602
0.000941434
0.000956388
0.000972441
0.00098954
0.00100759
0.00102648
0.00104605
0.00106612
0.00108648
0.0011069
0.00112713
0.00114691
0.00116597
0.00118401
0.00120076
0.00121592
0.00122922
0.00124037
0.00124911
0.00125506
0.00125775
0.00125786
0.00125463
0.00124788
0.00123744
0.00122328
0.00120542
0.00118396
0.00115907
0.00113094
0.00109984
0.00106604
0.00102986
0.000991585
0.000951481
0.000909763
0.000866581
0.000821995
0.000775967
0.00072834
0.000678818
0.000626922
0.000571923
0.000512689
0.000447361
0.000372544
0.000281255
0.000159813
2.13138e-05
2.84253e-05
0.000200913
0.000333383
0.00042385
0.000492692
0.000548672
0.000595818
0.000636291
0.000671408
0.000702063
0.00072891
0.000752464
0.000773154
0.000791352
0.000807391
0.000821579
0.000834205
0.00084554
0.000855847
0.000865376
0.00087437
0.000883062
0.000891678
0.000900433
0.000909532
0.000919164
0.000929503
0.000940703
0.00095289
0.000966165
0.000980599
0.000996225
0.00101304
0.00103102
0.00105009
0.00107014
0.00109105
0.00111263
0.00113471
0.00115705
0.00117943
0.00120158
0.00122324
0.00124411
0.00126392
0.00128235
0.00129911
0.00131389
0.00132639
0.00133628
0.0013432
0.00134651
0.0013469
0.00134363
0.00133637
0.00132491
0.00130912
0.00128904
0.00126479
0.00123657
0.00120467
0.00116943
0.00113126
0.00109059
0.00104782
0.00100335
0.000957473
0.0009104
0.000862225
0.000812917
0.000762298
0.000710033
0.000655592
0.000598177
0.000536571
0.000468801
0.000391277
0.000296583
0.00016979
2.28234e-05
3.02773e-05
0.000212156
0.000349838
0.000443424
0.000514567
0.000572398
0.0006211
0.000662918
0.000699225
0.000730951
0.000758779
0.000783247
0.000804799
0.000823824
0.000840666
0.000855646
0.000869062
0.000881201
0.000892334
0.000902726
0.000912635
0.000922306
0.00093198
0.000941885
0.000952236
0.000963232
0.000975051
0.000987846
0.00100174
0.00101684
0.00103319
0.00105082
0.00106972
0.00108984
0.00111111
0.00113339
0.00115656
0.00118043
0.00120481
0.00122948
0.0012542
0.00127871
0.00130274
0.00132602
0.00134824
0.0013691
0.0013883
0.00140548
0.00142031
0.0014324
0.00144139
0.00144645
0.00144792
0.00144549
0.00143844
0.00142647
0.0014093
0.0013869
0.00135942
0.00132712
0.00129038
0.0012497
0.00120565
0.00115886
0.00110997
0.00105955
0.00100807
0.000955846
0.000903044
0.000849643
0.000795438
0.000740033
0.000682817
0.000622898
0.000558953
0.000488874
0.000408872
0.00031111
0.000179425
2.43031e-05
3.20008e-05
0.000222521
0.000364915
0.000461346
0.000534614
0.000594176
0.00064435
0.000687453
0.000724905
0.00075767
0.000786456
0.000811823
0.000834233
0.000854087
0.000871747
0.000887544
0.00090179
0.000914783
0.00092681
0.00093815
0.000949073
0.000959842
0.000970709
0.000981915
0.000993684
0.00100622
0.00101971
0.0010343
0.00105011
0.00106724
0.00108572
0.00110558
0.00112679
0.0011493
0.00117301
0.00119781
0.00122355
0.00125007
0.00127716
0.00130463
0.00133224
0.00135976
0.00138693
0.0014135
0.00143918
0.00146366
0.00148663
0.00150772
0.00152652
0.00154256
0.00155534
0.00156415
0.00156818
0.00156809
0.00156258
0.00155117
0.00153331
0.00150879
0.00147774
0.00144049
0.00139753
0.00134952
0.00129732
0.00124188
0.00118418
0.00112516
0.00106558
0.00100601
0.000946728
0.000887765
0.000828874
0.000769563
0.000709089
0.000646413
0.000580056
0.000507737
0.000425444
0.000324909
0.000188729
2.57698e-05
3.36028e-05
0.000232084
0.000378741
0.000477764
0.000552993
0.000614174
0.000665741
0.000710073
0.000748631
0.000782407
0.000812135
0.000838393
0.000861661
0.000882357
0.000900854
0.000917499
0.000932618
0.000946523
0.000959516
0.000971891
0.000983933
0.000995921
0.00100812
0.00102078
0.00103413
0.0010484
0.00106374
0.00108033
0.00109826
0.00111763
0.00113847
0.00116079
0.00118457
0.00120973
0.00123619
0.00126385
0.00129257
0.00132219
0.00135254
0.00138346
0.00141475
0.00144621
0.00147764
0.00150882
0.00153951
0.00156942
0.00159821
0.00162548
0.00165071
0.00167332
0.00169259
0.00170776
0.0017176
0.00172155
0.00171979
0.00171081
0.00169372
0.00166788
0.00163335
0.00159047
0.0015398
0.00148219
0.00141881
0.00135107
0.0012805
0.00120864
0.00113685
0.00106615
0.000997157
0.00093001
0.00086444
0.000799802
0.000735134
0.000669149
0.000600119
0.000525515
0.000441046
0.000337974
0.000197634
2.72273e-05
3.50898e-05
0.000240907
0.000391423
0.000492806
0.000569842
0.000632535
0.00068542
0.000730929
0.000770556
0.000805321
0.000835978
0.000863123
0.000887255
0.000908805
0.000928164
0.000945692
0.000961732
0.00097661
0.000990645
0.00100415
0.00101742
0.00103075
0.00104441
0.00105868
0.00107379
0.00108995
0.00110735
0.00112612
0.00114639
0.00116822
0.00119165
0.00121669
0.0012433
0.00127143
0.00130101
0.00133195
0.00136414
0.00139746
0.00143181
0.00146707
0.00150311
0.00153982
0.00157708
0.00161476
0.00165265
0.00169052
0.00172799
0.00176457
0.00179961
0.00183228
0.00186161
0.00188648
0.00190576
0.00191739
0.00192136
0.00191751
0.00190359
0.00187826
0.0018413
0.001793
0.00173388
0.00166482
0.00158721
0.00150291
0.00141418
0.00132348
0.00123317
0.00114524
0.00106104
0.00098113
0.000905319
0.00083277
0.000762159
0.000691779
0.000619482
0.000542347
0.000455694
0.00035025
0.000206077
2.86441e-05
3.64682e-05
0.00024905
0.000403053
0.000506582
0.000585281
0.000649384
0.000703513
0.000750147
0.00079081
0.000826542
0.000858117
0.000886149
0.000911153
0.000933576
0.000953824
0.000972275
0.000989285
0.0010052
0.00102036
0.00103508
0.00104968
0.00106448
0.00107975
0.00109578
0.00111281
0.00113104
0.00115067
0.00117184
0.00119464
0.00121916
0.00124542
0.00127344
0.0013032
0.00133467
0.00136779
0.00140253
0.00143883
0.00147663
0.00151593
0.00155669
0.00159892
0.00164263
0.00168783
0.00173448
0.00178246
0.00183151
0.00188118
0.00193079
0.00197942
0.00202591
0.0020689
0.00210691
0.00213837
0.00216177
0.00217401
0.00217711
0.00216943
0.00214759
0.00211078
0.0020592
0.00199307
0.00191293
0.00182003
0.00171634
0.00160464
0.00148842
0.00137152
0.0012576
0.00114962
0.00104933
0.0009571
0.000872022
0.000792283
0.000715473
0.000638722
0.000558456
0.000469411
0.000361654
0.000213953
2.99967e-05
3.77438e-05
0.000256561
0.000413711
0.000519187
0.000599412
0.000664828
0.000720131
0.00076784
0.000809503
0.000846182
0.000878666
0.000907586
0.000933471
0.000956787
0.000977954
0.000997367
0.0010154
0.00103242
0.00104877
0.00106481
0.00108085
0.00109724
0.00111425
0.00113219
0.00115129
0.00117177
0.00119381
0.00121755
0.00124311
0.00127054
0.0012999
0.0013312
0.00136447
0.00139969
0.00143687
0.00147604
0.00151722
0.00156048
0.00160592
0.00165368
0.00170392
0.00175684
0.00181258
0.00187118
0.00193252
0.00199622
0.00206156
0.00212748
0.0021926
0.00225529
0.00231379
0.00236629
0.0024111
0.00244664
0.00247017
0.00248021
0.00248087
0.00246596
0.00243354
0.00238339
0.00231525
0.00222879
0.00212441
0.00200351
0.00186843
0.0017231
0.00157275
0.00142317
0.00128013
0.0011481
0.00102937
0.000923807
0.000829262
0.000742312
0.00065888
0.000574276
0.000482288
0.0003721
0.000221129
3.12548e-05
3.89217e-05
0.000263484
0.000423468
0.000530704
0.000612326
0.00067896
0.000735368
0.000784102
0.000826733
0.000864337
0.000897721
0.00092753
0.000954308
0.000978536
0.00100065
0.00102107
0.00104018
0.00105836
0.00107599
0.00109343
0.00111102
0.00112911
0.001148
0.00116798
0.0011893
0.00121219
0.00123682
0.00126333
0.00129184
0.00132243
0.00135516
0.00139008
0.00142724
0.0014667
0.00150855
0.0015529
0.00159991
0.00164979
0.00170284
0.00175939
0.00181981
0.00188445
0.00195354
0.00202708
0.00210471
0.00218562
0.00226852
0.00235167
0.00243306
0.00251059
0.00258222
0.00264618
0.00270104
0.00274543
0.00277827
0.00279675
0.00280321
0.00279802
0.00277505
0.00273332
0.00267199
0.00258913
0.0024836
0.00235565
0.00220574
0.00203626
0.00185289
0.00166253
0.00147426
0.00129697
0.00113744
0.000998732
0.00087968
0.00077601
0.000681854
0.000590642
0.000494583
0.000381553
0.000227466
3.23841e-05
4.00064e-05
0.000269856
0.000432383
0.000541205
0.000624103
0.000691865
0.000749309
0.000799019
0.000842583
0.000881092
0.000915365
0.000946063
0.000973744
0.000998904
0.001022
0.00104346
0.0010637
0.00108311
0.00110209
0.00112102
0.00114026
0.00116016
0.00118104
0.00120319
0.00122688
0.00125232
0.0012797
0.00130917
0.00134085
0.00137484
0.00141123
0.00145013
0.00149163
0.00153589
0.0015831
0.0016335
0.00168742
0.00174529
0.00180761
0.00187492
0.00194778
0.00202659
0.00211144
0.00220193
0.00229704
0.00239505
0.00249366
0.00259028
0.00268233
0.00276749
0.00284397
0.00291068
0.00296722
0.00301292
0.00304776
0.0030716
0.00308333
0.00308638
0.00307699
0.00305158
0.00300843
0.00294337
0.00285217
0.00273415
0.00258834
0.00241143
0.00220866
0.00198446
0.00175001
0.00151813
0.00130249
0.0011134
0.000954633
0.00082306
0.000711039
0.000609129
0.000506879
0.000390101
0.000232856
3.33513e-05
4.1002e-05
0.000275711
0.000440511
0.000550757
0.000634813
0.000703614
0.000762028
0.000812665
0.000857127
0.000896518
0.00093167
0.000963255
0.000991847
0.00101796
0.00104206
0.00106461
0.00108602
0.00110672
0.00112712
0.00114762
0.00116859
0.0011904
0.00121338
0.00123783
0.00126401
0.00129215
0.00132244
0.00135504
0.0013901
0.00142774
0.00146812
0.00151137
0.00155771
0.00160738
0.00166071
0.00171813
0.00178017
0.00184748
0.00192077
0.00200076
0.00208799
0.00218261
0.00228413
0.00239117
0.00250143
0.00261181
0.00271879
0.00281902
0.00290974
0.00298912
0.00305638
0.00311047
0.00315133
0.00318168
0.00320386
0.00321961
0.00323038
0.00323672
0.003239
0.00323486
0.00322164
0.00319612
0.00315118
0.00307495
0.00296038
0.00280229
0.002607
0.00237194
0.00210754
0.00182574
0.00154634
0.00128991
0.00107129
0.000894383
0.000752386
0.000632586
0.000520343
0.000398069
0.000237271
3.41323e-05
4.19122e-05
0.000281077
0.000447899
0.000559414
0.000644518
0.000714273
0.000773592
0.000825105
0.000870429
0.000910678
0.000946695
0.000979165
0.00100868
0.00103575
0.00106089
0.00108455
0.00110718
0.00112923
0.00115111
0.00117325
0.00119604
0.00121985
0.00124503
0.00127187
0.00130066
0.00133162
0.00136497
0.00140088
0.00143952
0.00148108
0.00152575
0.00157378
0.00162546
0.00168118
0.00174146
0.00180691
0.00187828
0.00195642
0.00204219
0.00213622
0.0022387
0.00234899
0.00246532
0.00258465
0.00270287
0.00281532
0.00291749
0.00300593
0.00307846
0.00313346
0.00317254
0.00319904
0.00321603
0.00322685
0.00323464
0.00324147
0.00324831
0.00325698
0.00326707
0.00327626
0.00328124
0.00328248
0.00327548
0.00325649
0.00321404
0.00313252
0.00298801
0.00277819
0.00251823
0.00221142
0.00187926
0.00154968
0.00125225
0.00100694
0.000815942
0.00066603
0.000537142
0.000406206
0.000240833
3.4723e-05
4.27403e-05
0.000285982
0.00045459
0.000567229
0.000653273
0.0007239
0.000784059
0.000836399
0.000882547
0.000923628
0.000960496
0.000993844
0.00102428
0.00105233
0.00107852
0.00110333
0.00112722
0.00115066
0.00117408
0.00119792
0.00122259
0.00124848
0.00127593
0.00130526
0.00133675
0.00137066
0.00140719
0.00144657
0.00148901
0.00153473
0.00158403
0.00163723
0.00169478
0.00175723
0.00182525
0.00189968
0.00198146
0.00207153
0.00217061
0.00227892
0.00239568
0.00251871
0.00264424
0.00276704
0.00288113
0.00298074
0.00306093
0.00312033
0.00315856
0.00317373
0.00317585
0.00316878
0.00315377
0.00313761
0.00312523
0.00311955
0.00311852
0.00312781
0.0031483
0.0031766
0.00321087
0.00324682
0.00327721
0.00329233
0.00329638
0.00328001
0.00323309
0.00312606
0.00292511
0.00263579
0.00228586
0.00190052
0.00151917
0.00118342
0.000917565
0.000717997
0.000561119
0.000415968
0.000243923
3.51575e-05
4.34894e-05
0.000290447
0.00046062
0.000574246
0.00066113
0.000732547
0.000793482
0.000846598
0.000893532
0.000935418
0.000973117
0.00100734
0.00103869
0.00106773
0.00109499
0.00112097
0.00114615
0.00117101
0.00119601
0.00122161
0.00124822
0.00127624
0.00130603
0.00133792
0.0013722
0.00140914
0.00144898
0.00149198
0.00153839
0.00158853
0.00164276
0.00170155
0.00176547
0.00183524
0.00191173
0.00199593
0.00208884
0.00219126
0.00230344
0.00242452
0.00255203
0.00268155
0.00280682
0.00292044
0.00301502
0.00308564
0.00312402
0.0031352
0.00313042
0.00310402
0.0030624
0.00301364
0.00296601
0.00292385
0.00289108
0.00287223
0.0028651
0.00286771
0.00289138
0.00292912
0.00298173
0.00304683
0.00312025
0.00319472
0.0032593
0.0032952
0.00330629
0.00328285
0.00321032
0.00303153
0.0027189
0.00232333
0.00187989
0.00144667
0.00107937
0.000802277
0.000598856
0.00042996
0.000247332
3.55299e-05
4.41624e-05
0.000294492
0.000466025
0.000580507
0.000668132
0.000740263
0.00080191
0.000855751
0.000903431
0.000946091
0.0009846
0.00101968
0.00105194
0.00108198
0.00111032
0.00113748
0.00116397
0.00119029
0.00121691
0.00124429
0.00127288
0.00130307
0.00133525
0.00136975
0.00140688
0.00144693
0.00149017
0.00153691
0.00158747
0.00164224
0.00170169
0.00176642
0.00183715
0.00191475
0.00200024
0.00209464
0.00219882
0.00231307
0.00243659
0.0025668
0.00269885
0.00282564
0.00293852
0.00302883
0.0030853
0.00310467
0.00310198
0.00306968
0.00301136
0.00293454
0.00285322
0.00277648
0.00270934
0.00265533
0.00261646
0.00259485
0.0025863
0.00258637
0.00260658
0.00264011
0.00268954
0.00275623
0.00284182
0.00294552
0.00305865
0.00317007
0.00325955
0.00330222
0.00330994
0.00326379
0.00310547
0.00276853
0.00231508
0.00180726
0.00132576
0.00093914
0.000661222
0.000452677
0.00025249
3.60188e-05
4.47618e-05
0.000298138
0.000470836
0.00058605
0.000674323
0.00074709
0.000809388
0.000863902
0.000912286
0.000955687
0.000994982
0.0010309
0.00106407
0.00109509
0.00112451
0.00115287
0.00118068
0.00120847
0.00123672
0.00126592
0.0012965
0.0013289
0.00136349
0.00140063
0.00144065
0.00148386
0.00153058
0.00158116
0.00163601
0.00169559
0.00176049
0.00183144
0.0019093
0.00199505
0.00208975
0.00219429
0.00230907
0.00243343
0.00256488
0.00269851
0.00282671
0.00293974
0.00302718
0.00307218
0.00308242
0.00306383
0.00300743
0.00291813
0.00281358
0.002708
0.00261094
0.00252959
0.0024672
0.00242375
0.0024005
0.00239235
0.0023929
0.00240772
0.0024327
0.00246425
0.00250296
0.00254942
0.00260641
0.00267924
0.00277793
0.00290662
0.00305572
0.0031954
0.00329088
0.00332548
0.00329427
0.00314463
0.0027735
0.00224876
0.00167225
0.00115346
0.000764997
0.000491605
0.000261842
3.69324e-05
4.52904e-05
0.000301399
0.000475081
0.00059091
0.00067974
0.000753071
0.000815955
0.000871091
0.000920136
0.000964242
0.00100429
0.00104103
0.00107509
0.00110709
0.00113759
0.00116714
0.00119628
0.00122554
0.00125543
0.00128644
0.00131903
0.00135363
0.00139064
0.00143043
0.00147334
0.00151974
0.00156998
0.00162448
0.0016837
0.00174822
0.00181873
0.00189608
0.00198121
0.00207517
0.00217889
0.00229288
0.0024167
0.00254818
0.00268266
0.00281249
0.00292737
0.00301495
0.00305569
0.00306156
0.00303101
0.00295418
0.00284285
0.00271754
0.0025931
0.0024829
0.00239464
0.00233118
0.00229318
0.00227685
0.00227344
0.00228243
0.00230294
0.00233045
0.0023626
0.00239729
0.00243409
0.00247296
0.00251492
0.00256209
0.00261857
0.00269125
0.00279195
0.00294158
0.00312122
0.00326416
0.0033278
0.00330901
0.00315185
0.00272022
0.00210932
0.00146605
0.00093287
0.000558587
0.000279416
3.87725e-05
4.57503e-05
0.000304293
0.000478786
0.00059512
0.000684421
0.000758242
0.000821652
0.000877356
0.000927016
0.00097179
0.00101257
0.00105009
0.00108503
0.00111799
0.00114955
0.00118028
0.00121074
0.00124146
0.00127298
0.00130579
0.00134037
0.00137716
0.00141657
0.00145899
0.00150479
0.00155438
0.00160814
0.00166657
0.0017302
0.00179972
0.0018759
0.00195967
0.00205203
0.00215394
0.00226603
0.00238811
0.0025185
0.00265311
0.00278475
0.00290303
0.00299486
0.00303807
0.00304383
0.00300811
0.00291944
0.00279384
0.00265159
0.00251187
0.00239055
0.00229706
0.00223364
0.00220229
0.00219177
0.002193
0.00221074
0.00223801
0.00227183
0.00230834
0.00234588
0.00238398
0.00242183
0.00245891
0.00249549
0.00253272
0.00257247
0.00261543
0.00266999
0.00274666
0.00286235
0.00304834
0.00323835
0.00332633
0.00331176
0.003121
0.00258958
0.00187822
0.00118818
0.000670637
0.000311589
4.23485e-05
4.61442e-05
0.000306833
0.000481978
0.000598711
0.0006884
0.000762641
0.000826516
0.000882734
0.000932963
0.000978362
0.00101983
0.00105812
0.0010939
0.00112779
0.00116039
0.00119228
0.00122404
0.0012562
0.00128932
0.00132391
0.00136044
0.00139938
0.00144115
0.00148616
0.00153481
0.00158754
0.0016448
0.00170713
0.00177516
0.00184963
0.00193142
0.00202148
0.00212077
0.00223002
0.00234935
0.00247758
0.00261141
0.00274459
0.00286733
0.00296665
0.00301871
0.0030289
0.00299615
0.00290507
0.00277209
0.00261724
0.0024634
0.00232989
0.00222841
0.0021643
0.00213522
0.00212701
0.00213287
0.00215583
0.0021886
0.00222756
0.00227023
0.00231569
0.00236239
0.00240854
0.00245256
0.00249237
0.00252658
0.00255531
0.0025802
0.00260738
0.00264108
0.00268475
0.00274036
0.00283497
0.00300043
0.00321982
0.00332402
0.00329607
0.00302821
0.00235656
0.00154235
0.000848363
0.000367606
4.888e-05
4.64743e-05
0.000309032
0.000484679
0.000601713
0.000691709
0.000766302
0.000830581
0.00088726
0.000938009
0.000983991
0.00102611
0.00106512
0.00110171
0.00113651
0.00117012
0.00120314
0.00123616
0.00126973
0.00130441
0.00134072
0.00137916
0.00142018
0.00146425
0.00151178
0.00156321
0.001619
0.00167967
0.00174582
0.00181814
0.00189745
0.00198465
0.00208068
0.00218636
0.00230203
0.00242708
0.00255906
0.00269289
0.00282011
0.00292866
0.00299512
0.00301437
0.0029927
0.002909
0.0027761
0.00261359
0.00244655
0.00229848
0.00218477
0.00211424
0.00208299
0.00207454
0.00208147
0.00210631
0.00214174
0.00218404
0.00223132
0.00228264
0.00233727
0.00239432
0.00245203
0.00250833
0.00256041
0.00260468
0.00263992
0.00266162
0.0026719
0.00267756
0.00268548
0.00271108
0.00275549
0.00283283
0.0029736
0.00320607
0.00331523
0.00324305
0.00282659
0.00197866
0.00110858
0.000458513
5.99526e-05
4.6743e-05
0.000310905
0.000486914
0.000604155
0.000694383
0.00076926
0.000833884
0.00089097
0.000942188
0.000988707
0.00103143
0.00107113
0.00110849
0.00114415
0.00117874
0.00121285
0.00124708
0.00128201
0.00131819
0.00135616
0.00139643
0.00143947
0.00148573
0.00153568
0.00158978
0.00164853
0.00171249
0.00178232
0.00185876
0.00194266
0.00203494
0.00213645
0.00224774
0.00236866
0.00249762
0.00263079
0.0027612
0.00287852
0.00296409
0.00299731
0.00299205
0.00292545
0.00280168
0.00263832
0.00246074
0.00229619
0.00216522
0.00208018
0.00204155
0.00203015
0.00203384
0.00205692
0.00209172
0.00213355
0.00218052
0.0022317
0.00228671
0.00234555
0.00240818
0.00247474
0.00254392
0.00261362
0.00267949
0.00273447
0.00277305
0.00279071
0.00279408
0.00278053
0.00275789
0.00274819
0.00278054
0.00283391
0.00296438
0.00319147
0.00328747
0.00312724
0.00244268
0.00144965
0.00059165
7.70043e-05
4.69528e-05
0.000312464
0.000488705
0.000606065
0.000696452
0.00077155
0.000836459
0.000893897
0.000945534
0.000992542
0.00103583
0.00107617
0.00111425
0.00115073
0.00118624
0.00122139
0.00125678
0.001293
0.00133062
0.00137017
0.00141217
0.00145712
0.00150548
0.00155772
0.00161435
0.0016759
0.00174298
0.00181627
0.00189657
0.00198474
0.00208165
0.00218799
0.00230397
0.00242876
0.00255976
0.00269162
0.00281549
0.0029187
0.00297539
0.00298668
0.00294613
0.00284168
0.00268687
0.00250468
0.0023243
0.00217232
0.00206435
0.00201062
0.00199176
0.00199023
0.00200718
0.00203838
0.00207711
0.00212089
0.00216895
0.00222123
0.00227806
0.00233978
0.0024065
0.00247787
0.00255358
0.00263316
0.00271613
0.0027966
0.00286672
0.00291185
0.0029301
0.00292972
0.00289596
0.00283537
0.00279817
0.00279453
0.00284049
0.00297296
0.00317252
0.0032263
0.00285658
0.00184262
0.000761431
0.000100034
4.71062e-05
0.000313722
0.000490074
0.000607471
0.000697949
0.000773204
0.000838342
0.000896076
0.000948081
0.000995526
0.00103933
0.00108026
0.00111902
0.00115626
0.00119264
0.00122876