/*--------------------------------*- C++ -*----------------------------------*\
  =========                 |
  \\      /  F ield         | OpenFOAM: The Open Source CFD Toolbox
   \\    /   O peration     | Website:  https://openfoam.org
    \\  /    A nd           | Version:  13
     \\/     M anipulation  |
\*---------------------------------------------------------------------------*/
FoamFile
{
    format      ascii;
    class       volScalarField;
    location    "1";
    object      nut;
}
// * * * * * * * * * * * * * * * * * * * * * * * * * * * * * * * * * * * * * //

dimensions      [0 2 -1 0 0 0 0];

internalField   nonuniform List<scalar> 
6400
(
8.90638e-10
4.2943e-09
8.85647e-09
1.3453e-08
1.76598e-08
2.14055e-08
2.47273e-08
2.7679e-08
3.03062e-08
3.26452e-08
3.47258e-08
3.65735e-08
3.82119e-08
3.96639e-08
4.09515e-08
4.20965e-08
4.31198e-08
4.40419e-08
4.48823e-08
4.56595e-08
4.63911e-08
4.70936e-08
4.77821e-08
4.8471e-08
4.91737e-08
4.99026e-08
5.06694e-08
5.14852e-08
5.23603e-08
5.33047e-08
5.43275e-08
5.54373e-08
5.66414e-08
5.79464e-08
5.93567e-08
6.08749e-08
6.2501e-08
6.42317e-08
6.60596e-08
6.79732e-08
6.99554e-08
7.1983e-08
7.40245e-08
7.60449e-08
7.80432e-08
8.00537e-08
8.19659e-08
8.37437e-08
8.53498e-08
8.67491e-08
8.79142e-08
8.87877e-08
8.92752e-08
8.94822e-08
8.93971e-08
8.89183e-08
8.80604e-08
8.68276e-08
8.52278e-08
8.32733e-08
8.09814e-08
7.83727e-08
7.54706e-08
7.2301e-08
6.889e-08
6.52613e-08
6.14361e-08
5.7432e-08
5.32627e-08
4.89368e-08
4.4459e-08
3.98313e-08
3.50471e-08
3.01042e-08
2.50056e-08
1.97904e-08
1.44817e-08
9.19718e-09
4.3459e-09
8.98425e-10
4.32309e-09
3.33494e-07
9.6893e-07
1.53843e-06
2.00165e-06
2.38144e-06
2.70003e-06
2.97241e-06
3.20815e-06
3.4136e-06
3.59321e-06
3.75038e-06
3.8879e-06
4.00822e-06
4.11356e-06
4.20597e-06
4.2874e-06
4.35967e-06
4.42449e-06
4.48351e-06
4.53829e-06
4.59028e-06
4.64087e-06
4.6914e-06
4.74312e-06
4.79724e-06
4.85494e-06
4.91733e-06
4.9855e-06
5.0605e-06
5.14333e-06
5.23492e-06
5.33611e-06
5.44762e-06
5.56999e-06
5.70354e-06
5.84833e-06
6.00409e-06
6.17017e-06
6.34549e-06
6.52854e-06
6.71721e-06
6.90841e-06
7.09722e-06
7.27618e-06
7.44016e-06
7.59526e-06
7.73866e-06
7.8676e-06
7.9792e-06
8.0752e-06
8.14935e-06
8.18626e-06
8.21252e-06
8.21206e-06
8.18303e-06
8.12597e-06
8.04086e-06
7.92784e-06
7.78733e-06
7.61997e-06
7.42659e-06
7.2082e-06
6.96588e-06
6.70069e-06
6.41358e-06
6.10529e-06
5.77622e-06
5.42634e-06
5.05509e-06
4.66126e-06
4.24293e-06
3.79724e-06
3.32039e-06
2.80708e-06
2.24766e-06
1.63918e-06
9.85893e-07
3.33551e-07
4.3449e-09
9.17618e-09
9.97104e-07
3.46913e-06
5.75182e-06
7.51071e-06
8.87985e-06
9.97977e-06
1.08883e-05
1.16537e-05
1.2307e-05
1.28689e-05
1.33541e-05
1.37736e-05
1.41365e-05
1.44505e-05
1.47225e-05
1.49588e-05
1.51652e-05
1.53474e-05
1.55104e-05
1.56595e-05
1.57993e-05
1.59345e-05
1.60694e-05
1.62084e-05
1.63556e-05
1.65148e-05
1.66899e-05
1.68844e-05
1.71018e-05
1.73452e-05
1.76174e-05
1.79207e-05
1.8257e-05
1.86273e-05
1.90319e-05
1.94699e-05
1.99395e-05
2.04374e-05
2.09593e-05
2.14994e-05
2.20508e-05
2.26049e-05
2.31513e-05
2.36785e-05
2.41799e-05
2.46519e-05
2.50866e-05
2.54766e-05
2.58142e-05
2.6098e-05
2.63276e-05
2.64536e-05
2.65318e-05
2.65395e-05
2.64652e-05
2.63099e-05
2.60732e-05
2.57554e-05
2.53568e-05
2.48786e-05
2.43223e-05
2.36897e-05
2.29829e-05
2.22038e-05
2.1354e-05
2.04344e-05
1.9445e-05
1.83842e-05
1.72485e-05
1.60317e-05
1.47244e-05
1.3313e-05
1.17782e-05
1.0088e-05
8.19212e-06
6.02068e-06
3.51356e-06
9.93438e-07
9.06143e-09
1.44939e-08
1.65901e-06
6.00428e-06
1.01228e-05
1.32948e-05
1.5729e-05
1.76556e-05
1.92251e-05
2.05313e-05
2.1637e-05
2.25829e-05
2.33976e-05
2.41043e-05
2.47167e-05
2.52474e-05
2.57082e-05
2.61097e-05
2.64619e-05
2.6774e-05
2.70547e-05
2.73128e-05
2.75566e-05
2.7794e-05
2.80327e-05
2.828e-05
2.85432e-05
2.88289e-05
2.91434e-05
2.9493e-05
2.98829e-05
3.03179e-05
3.0802e-05
3.13381e-05
3.1928e-05
3.25717e-05
3.32676e-05
3.40121e-05
3.47998e-05
3.56232e-05
3.64728e-05
3.73376e-05
3.82048e-05
3.90604e-05
3.98885e-05
4.06781e-05
4.14183e-05
4.20996e-05
4.27116e-05
4.32451e-05
4.36918e-05
4.40462e-05
4.43067e-05
4.44403e-05
4.44828e-05
4.44162e-05
4.42296e-05
4.3923e-05
4.3496e-05
4.29483e-05
4.228e-05
4.14919e-05
4.0585e-05
3.95606e-05
3.84201e-05
3.71647e-05
3.57951e-05
3.43111e-05
3.27106e-05
3.09894e-05
2.91401e-05
2.71506e-05
2.50029e-05
2.267e-05
2.01113e-05
1.72668e-05
1.4044e-05
1.03036e-05
5.92573e-06
1.60183e-06
1.38117e-08
1.98062e-08
2.2637e-06
8.18449e-06
1.38548e-05
1.82757e-05
2.16941e-05
2.4404e-05
2.66108e-05
2.8448e-05
3e-05
3.13249e-05
3.24633e-05
3.3444e-05
3.42927e-05
3.50296e-05
3.56718e-05
3.62341e-05
3.67302e-05
3.71727e-05
3.7573e-05
3.79436e-05
3.82962e-05
3.86418e-05
3.8991e-05
3.93541e-05
3.97414e-05
4.01634e-05
4.0629e-05
4.11438e-05
4.17142e-05
4.23454e-05
4.30414e-05
4.38042e-05
4.4634e-05
4.55282e-05
4.64818e-05
4.7487e-05
4.85337e-05
4.96092e-05
5.06993e-05
5.1788e-05
5.28583e-05
5.38921e-05
5.48746e-05
5.57929e-05
5.66349e-05
5.73897e-05
5.80474e-05
5.85994e-05
5.90386e-05
5.93595e-05
5.95464e-05
5.95942e-05
5.95514e-05
5.93539e-05
5.90184e-05
5.85427e-05
5.79254e-05
5.71652e-05
5.6261e-05
5.52118e-05
5.40167e-05
5.26747e-05
5.11847e-05
4.95456e-05
4.77551e-05
4.58103e-05
4.37061e-05
4.1435e-05
3.89853e-05
3.63401e-05
3.34742e-05
3.03507e-05
2.69153e-05
2.30863e-05
1.87393e-05
1.36962e-05
7.82886e-06
2.10911e-06
1.81615e-08
2.49275e-08
2.8093e-06
1.00545e-05
1.70333e-05
2.25408e-05
2.68395e-05
3.02637e-05
3.30554e-05
3.53767e-05
3.73357e-05
3.90065e-05
4.04422e-05
4.16818e-05
4.2757e-05
4.36932e-05
4.4512e-05
4.52325e-05
4.58722e-05
4.64475e-05
4.69747e-05
4.74678e-05
4.79405e-05
4.84065e-05
4.88789e-05
4.93702e-05
4.98921e-05
5.04547e-05
5.10678e-05
5.17414e-05
5.24825e-05
5.32961e-05
5.41842e-05
5.51474e-05
5.61827e-05
5.72836e-05
5.844e-05
5.96391e-05
6.08652e-05
6.21007e-05
6.33266e-05
6.45238e-05
6.56736e-05
6.67596e-05
6.77661e-05
6.86797e-05
6.94896e-05
7.01869e-05
7.07646e-05
7.12174e-05
7.15415e-05
7.17342e-05
7.17722e-05
7.16737e-05
7.15017e-05
7.11467e-05
7.06521e-05
7.00147e-05
6.92321e-05
6.83015e-05
6.72195e-05
6.59821e-05
6.45851e-05
6.30236e-05
6.12923e-05
5.93854e-05
5.72964e-05
5.50175e-05
5.25392e-05
4.98495e-05
4.69323e-05
4.37654e-05
4.03177e-05
3.65451e-05
3.23831e-05
2.77361e-05
2.24619e-05
1.63664e-05
9.33435e-06
2.53096e-06
2.20552e-08
2.9788e-08
3.30094e-06
1.16804e-05
1.97794e-05
2.62377e-05
3.13231e-05
3.53965e-05
3.87266e-05
4.14979e-05
4.38371e-05
4.58324e-05
4.75476e-05
4.90307e-05
5.03191e-05
5.14436e-05
5.24301e-05
5.33016e-05
5.40789e-05
5.47815e-05
5.5428e-05
5.60357e-05
5.66211e-05
5.72003e-05
5.77889e-05
5.84013e-05
5.9051e-05
5.97501e-05
6.05093e-05
6.13379e-05
6.22424e-05
6.32263e-05
6.429e-05
6.54287e-05
6.66341e-05
6.78944e-05
6.9194e-05
7.05146e-05
7.18357e-05
7.31357e-05
7.43932e-05
7.55878e-05
7.6701e-05
7.77169e-05
7.8622e-05
7.94063e-05
8.00629e-05
8.05873e-05
8.09776e-05
8.12333e-05
8.13554e-05
8.13455e-05
8.11739e-05
8.08912e-05
8.0554e-05
8.00284e-05
7.93762e-05
7.85944e-05
7.76801e-05
7.66284e-05
7.54332e-05
7.40868e-05
7.25804e-05
7.09036e-05
6.90453e-05
6.69933e-05
6.47346e-05
6.22548e-05
5.95382e-05
5.65667e-05
5.33183e-05
4.97654e-05
4.58714e-05
4.1586e-05
3.68376e-05
3.15221e-05
2.5488e-05
1.85361e-05
1.05709e-05
2.88752e-06
2.55931e-08
3.4365e-08
3.7443e-06
1.31123e-05
2.21831e-05
2.94831e-05
3.5276e-05
3.99413e-05
4.37674e-05
4.69571e-05
4.96517e-05
5.19515e-05
5.393e-05
5.56424e-05
5.71323e-05
5.84352e-05
5.95813e-05
6.0597e-05
6.15064e-05
6.23321e-05
6.30949e-05
6.38151e-05
6.45118e-05
6.52033e-05
6.59072e-05
6.66396e-05
6.74155e-05
6.82477e-05
6.9147e-05
7.01214e-05
7.11754e-05
7.23091e-05
7.35185e-05
7.47941e-05
7.6122e-05
7.74841e-05
7.88588e-05
8.02221e-05
8.15491e-05
8.28152e-05
8.39976e-05
8.50759e-05
8.60338e-05
8.68587e-05
8.7542e-05
8.80794e-05
8.847e-05
8.87159e-05
8.88215e-05
8.87927e-05
8.86364e-05
8.83593e-05
8.79267e-05
8.74234e-05
8.6892e-05
8.61887e-05
8.53819e-05
8.4474e-05
8.34614e-05
8.23376e-05
8.10935e-05
7.97173e-05
7.81946e-05
7.65089e-05
7.46414e-05
7.25719e-05
7.02785e-05
6.77384e-05
6.49271e-05
6.18182e-05
5.83823e-05
5.45849e-05
5.03832e-05
4.57209e-05
4.05209e-05
3.46735e-05
2.80225e-05
2.03653e-05
1.16306e-05
3.20279e-06
2.88306e-08
3.86565e-08
4.14461e-06
1.43866e-05
2.43077e-05
3.23611e-05
3.87948e-05
4.4002e-05
4.82868e-05
5.18661e-05
5.48936e-05
5.748e-05
5.97069e-05
6.16365e-05
6.33177e-05
6.47906e-05
6.60893e-05
6.72437e-05
6.82811e-05
6.92265e-05
7.01037e-05
7.09352e-05
7.17425e-05
7.25461e-05
7.33651e-05
7.4217e-05
7.51174e-05
7.60791e-05
7.71119e-05
7.82213e-05
7.94084e-05
8.06688e-05
8.19925e-05
8.33636e-05
8.47613e-05
8.61607e-05
8.75338e-05
8.88517e-05
9.00862e-05
9.12112e-05
9.22045e-05
9.30484e-05
9.3731e-05
9.42454e-05
9.45902e-05
9.47686e-05
9.47875e-05
9.46569e-05
9.43889e-05
9.39964e-05
9.34927e-05
9.28895e-05
9.21504e-05
9.13909e-05
9.0636e-05
8.97523e-05
8.87907e-05
8.77706e-05
8.6688e-05
8.5535e-05
8.43e-05
8.29673e-05
8.15171e-05
7.99259e-05
7.81665e-05
7.6209e-05
7.40208e-05
7.15676e-05
6.88139e-05
6.57221e-05
6.22526e-05
5.83619e-05
5.3999e-05
4.91011e-05
4.35852e-05
3.73368e-05
3.01966e-05
2.19568e-05
1.25718e-05
3.49107e-06
3.1842e-08
4.26698e-08
4.50702e-06
1.55246e-05
2.62014e-05
3.49336e-05
4.19509e-05
4.76564e-05
5.23664e-05
5.63095e-05
5.96499e-05
6.25067e-05
6.4969e-05
6.7105e-05
6.89688e-05
7.06047e-05
7.20505e-05
7.33394e-05
7.45015e-05
7.55648e-05
7.65553e-05
7.74981e-05
7.84165e-05
7.93328e-05
8.02675e-05
8.12387e-05
8.22619e-05
8.33489e-05
8.4507e-05
8.57383e-05
8.70386e-05
8.83972e-05
8.97968e-05
9.12138e-05
9.26196e-05
9.39821e-05
9.52675e-05
9.64431e-05
9.74789e-05
9.83496e-05
9.90362e-05
9.95263e-05
9.98146e-05
9.99028e-05
9.97983e-05
9.95133e-05
9.90641e-05
9.84695e-05
9.77494e-05
9.69247e-05
9.60156e-05
9.50314e-05
9.39474e-05
9.29022e-05
9.18961e-05
9.08281e-05
8.97075e-05
8.8582e-05
8.74474e-05
8.62959e-05
8.51146e-05
8.38852e-05
8.25833e-05
8.1179e-05
7.96367e-05
7.79156e-05
7.59711e-05
7.3755e-05
7.12172e-05
6.83059e-05
6.49678e-05
6.11466e-05
5.67808e-05
5.17982e-05
4.61085e-05
3.95914e-05
3.20838e-05
2.33717e-05
1.34294e-05
3.76134e-06
3.46889e-08
4.64165e-08
4.83569e-06
1.65447e-05
2.78992e-05
3.72467e-05
4.47981e-05
5.09634e-05
5.60689e-05
6.03527e-05
6.39876e-05
6.71004e-05
6.97865e-05
7.21197e-05
7.41586e-05
7.59517e-05
7.75402e-05
7.89606e-05
8.02456e-05
8.14259e-05
8.25299e-05
8.35846e-05
8.46154e-05
8.56458e-05
8.66971e-05
8.77874e-05
8.8931e-05
9.01375e-05
9.14103e-05
9.27461e-05
9.41341e-05
9.55556e-05
9.69844e-05
9.83882e-05
9.97302e-05
0.000100971
0.000102074
0.000103002
0.000103727
0.000104226
0.000104488
0.000104507
0.000104288
0.000103843
0.000103189
0.00010235
0.000101352
0.000100222
9.89883e-05
9.76795e-05
9.63217e-05
9.49232e-05
9.34689e-05
9.2111e-05
9.08295e-05
8.95787e-05
8.82933e-05
8.70607e-05
8.58786e-05
8.47411e-05
8.36362e-05
8.25454e-05
8.14422e-05
8.02926e-05
7.90539e-05
7.76757e-05
7.61003e-05
7.42641e-05
7.20994e-05
6.95359e-05
6.65021e-05
6.29244e-05
5.87262e-05
5.38225e-05
4.81122e-05
4.14668e-05
3.37164e-05
2.464e-05
1.42227e-05
4.01925e-06
3.74204e-08
4.991e-08
5.13422e-06
1.74621e-05
2.94279e-05
3.93358e-05
4.73779e-05
5.3969e-05
5.94431e-05
6.40466e-05
6.79595e-05
7.13152e-05
7.42149e-05
7.67372e-05
7.8945e-05
8.08906e-05
8.26185e-05
8.41682e-05
8.55752e-05
8.68725e-05
8.80909e-05
8.92592e-05
9.04043e-05
9.15506e-05
9.27192e-05
9.39275e-05
9.51876e-05
9.65049e-05
9.78777e-05
9.92955e-05
0.000100739
0.000102179
0.000103581
0.000104902
0.000106098
0.000107125
0.00010794
0.00010851
0.00010881
0.000108823
0.000108546
0.000107986
0.000107158
0.000106088
0.000104805
0.000103343
0.000101739
0.000100029
9.82486e-05
9.64313e-05
9.46077e-05
9.27951e-05
9.09709e-05
8.92861e-05
8.77159e-05
8.62912e-05
8.48453e-05
8.34982e-05
8.22587e-05
8.11253e-05
8.00896e-05
7.91361e-05
7.82407e-05
7.73696e-05
7.64781e-05
7.55093e-05
7.43949e-05
7.30557e-05
7.14044e-05
6.93482e-05
6.67915e-05
6.36376e-05
5.97882e-05
5.51396e-05
4.95754e-05
4.29541e-05
3.50951e-05
2.57685e-05
1.49589e-05
4.26794e-06
4.00739e-08
5.31645e-08
5.4057e-06
1.82891e-05
3.08086e-05
4.12289e-05
4.97232e-05
5.67094e-05
6.25281e-05
6.74321e-05
7.1608e-05
7.51949e-05
7.82988e-05
8.1003e-05
8.33744e-05
8.54686e-05
8.73335e-05
8.90113e-05
9.05402e-05
9.19555e-05
9.32899e-05
9.45739e-05
9.58353e-05
9.70988e-05
9.83849e-05
9.97086e-05
0.000101078
0.000102494
0.000103947
0.000105417
0.000106875
0.000108281
0.00010959
0.00011075
0.000111709
0.00011242
0.000112841
0.000112942
0.000112704
0.000112123
0.000111206
0.000109974
0.000108459
0.000106698
0.000104735
0.000102616
0.000100386
9.80909e-05
9.57711e-05
9.34638e-05
9.1201e-05
8.90099e-05
8.68634e-05
8.48676e-05
8.30379e-05
8.14221e-05
7.98732e-05
7.84033e-05
7.70878e-05
7.5928e-05
7.49211e-05
7.40583e-05
7.33232e-05
7.26897e-05
7.21189e-05
7.15561e-05
7.09292e-05
7.01482e-05
6.9107e-05
6.76875e-05
6.57643e-05
6.32091e-05
5.98933e-05
5.5686e-05
5.04475e-05
4.40171e-05
3.61975e-05
2.67463e-05
1.56355e-05
4.50809e-06
4.26747e-08
5.61935e-08
5.6528e-06
1.90357e-05
3.20585e-05
4.29483e-05
5.18604e-05
5.92142e-05
6.53553e-05
7.05424e-05
7.49675e-05
7.87746e-05
8.20746e-05
8.49544e-05
8.74848e-05
8.97247e-05
9.17249e-05
9.35302e-05
9.51815e-05
9.67161e-05
9.81685e-05
9.95703e-05
0.00010095
0.000102331
0.000103733
0.000105167
0.000106637
0.000108134
0.00010964
0.000111125
0.000112549
0.000113859
0.000114999
0.000115911
0.000116537
0.000116829
0.000116749
0.000116274
0.000115397
0.000114128
0.00011249
0.000110522
0.000108271
0.000105791
0.000103139
0.000100373
9.75491e-05
9.47166e-05
9.19208e-05
8.9199e-05
8.65817e-05
8.40923e-05
8.17299e-05
7.94832e-05
7.74766e-05
7.56863e-05
7.4101e-05
7.25327e-05
7.11282e-05
6.99033e-05
6.88613e-05
6.80018e-05
6.73205e-05
6.6807e-05
6.6439e-05
6.61777e-05
6.59613e-05
6.57014e-05
6.52815e-05
6.4561e-05
6.33807e-05
6.1572e-05
5.89638e-05
5.5385e-05
5.06611e-05
4.46016e-05
3.69843e-05
2.75489e-05
1.62408e-05
4.73576e-06
4.52533e-08
5.90094e-08
5.87774e-06
1.971e-05
3.3193e-05
4.45122e-05
5.38111e-05
6.15074e-05
6.79508e-05
7.34049e-05
7.80664e-05
8.20839e-05
8.55722e-05
8.86221e-05
9.13076e-05
9.36907e-05
9.5825e-05
9.7758e-05
9.95326e-05
0.000101188
0.000102761
0.000104282
0.000105781
0.00010728
0.000108794
0.00011033
0.000111884
0.000113439
0.000114966
0.000116422
0.000117754
0.000118898
0.000119789
0.00012036
0.000120555
0.000120326
0.000119645
0.000118499
0.000116899
0.000114873
0.000112463
0.000109729
0.000106737
0.000103557
0.000100261
9.6918e-05
9.35906e-05
9.03329e-05
8.71888e-05
8.41917e-05
8.13647e-05
7.87208e-05
7.62662e-05
7.39669e-05
7.18453e-05
6.99684e-05
6.83749e-05
6.68178e-05
6.53289e-05
6.40128e-05
6.28741e-05
6.19177e-05
6.1151e-05
6.05825e-05
6.02159e-05
6.00421e-05
6.00298e-05
6.01148e-05
6.01921e-05
6.01131e-05
5.96908e-05
5.87106e-05
5.69454e-05
5.41661e-05
5.01446e-05
4.4645e-05
3.74068e-05
2.81422e-05
1.67553e-05
4.94379e-06
4.78137e-08
6.16234e-08
6.08245e-06
2.03187e-05
3.42247e-05
4.59353e-05
5.55933e-05
6.36091e-05
7.03361e-05
7.60422e-05
8.09284e-05
8.51472e-05
8.88169e-05
9.20318e-05
9.4869e-05
9.73933e-05
9.9661e-05
0.000101722
0.000103621
0.0001054
0.000107094
0.000108737
0.000110355
0.000111969
0.000113588
0.000115214
0.000116833
0.000118418
0.000119925
0.0001213
0.000122475
0.000123378
0.000123933
0.000124072
0.000123739
0.000122896
0.000121526
0.000119636
0.000117255
0.000114434
0.000111242
0.000107758
0.00010407
0.000100266
9.6431e-05
9.26434e-05
8.8969e-05
8.54604e-05
8.21551e-05
7.90757e-05
7.62311e-05
7.36186e-05
7.12268e-05
6.90402e-05
6.69817e-05
6.5107e-05
6.35248e-05
6.21036e-05
6.05837e-05
5.91822e-05
5.79204e-05
5.68008e-05
5.58345e-05
5.50437e-05
5.44558e-05
5.40971e-05
5.39819e-05
5.40964e-05
5.43812e-05
5.47155e-05
5.4911e-05
5.47183e-05
5.3847e-05
5.19897e-05
4.88386e-05
4.40867e-05
3.74145e-05
2.84883e-05
1.71589e-05
5.13016e-06
5.03015e-08
6.40467e-08
6.26869e-06
2.08684e-05
3.51609e-05
4.72312e-05
5.7222e-05
6.55361e-05
7.25295e-05
7.84737e-05
8.35736e-05
8.7985e-05
9.18298e-05
9.52052e-05
9.81911e-05
0.000100855
0.000103256
0.000105445
0.00010747
0.000109373
0.000111191
0.000112955
0.000114691
0.000116414
0.00011813
0.00011983
0.000121489
0.000123067
0.00012451
0.000125745
0.000126695
0.000127276
0.00012741
0.000127028
0.000126082
0.000124545
0.00012242
0.000119736
0.00011655
0.000112939
0.000108999
0.000104833
0.000100551
9.6258e-05
9.20494e-05
8.80065e-05
8.41924e-05
8.06499e-05
7.74012e-05
7.44498e-05
7.17837e-05
6.93794e-05
6.72063e-05
6.52304e-05
6.34192e-05
6.16526e-05
6.00915e-05
5.88104e-05
5.74158e-05
5.59587e-05
5.45992e-05
5.33205e-05
5.21241e-05
5.10332e-05
5.00851e-05
4.93274e-05
4.88143e-05
4.85933e-05
4.86789e-05
4.90271e-05
4.95042e-05
4.98717e-05
4.97965e-05
4.88837e-05
4.67163e-05
4.28796e-05
3.6961e-05
2.85514e-05
1.74337e-05
5.29061e-06
5.26749e-08
6.62896e-08
6.43792e-06
2.1364e-05
3.60089e-05
4.84104e-05
5.871e-05
6.73026e-05
7.45463e-05
8.07157e-05
8.60189e-05
9.06151e-05
9.46289e-05
9.81605e-05
0.000101292
0.000104095
0.000106628
0.000108947
0.000111099
0.000113127
0.000115068
0.000116953
0.000118803
0.000120629
0.000122428
0.00012418
0.00012585
0.000127383
0.000128708
0.000129743
0.000130396
0.000130577
0.000130208
0.000129225
0.000127592
0.000125303
0.000122383
0.000118892
0.000114916
0.000110563
0.000105959
0.000101233
9.65138e-05
9.19177e-05
8.75443e-05
8.34691e-05
7.9741e-05
7.63816e-05
7.33874e-05
7.07354e-05
6.83885e-05
6.63021e-05
6.44305e-05
6.27308e-05
6.11642e-05
5.96357e-05
5.81156e-05
5.69032e-05
5.57319e-05
5.43007e-05
5.29072e-05
5.15432e-05
5.01829e-05
4.88402e-05
4.75477e-05
4.63466e-05
4.52994e-05
4.44971e-05
4.40193e-05
4.39256e-05
4.41979e-05
4.46922e-05
4.51063e-05
4.49927e-05
4.38139e-05
4.10049e-05
3.60102e-05
2.83013e-05
1.75627e-05
5.42017e-06
5.4881e-08
6.83608e-08
6.59139e-06
2.18098e-05
3.67755e-05
4.9482e-05
6.00682e-05
6.89209e-05
7.63997e-05
8.27821e-05
8.82789e-05
9.30523e-05
9.72296e-05
0.000100913
0.000104189
0.000107128
0.000109794
0.000112242
0.000114522
0.000116676
0.000118741
0.000120744
0.000122703
0.00012462
0.000126485
0.000128265
0.000129911
0.000131354
0.000132509
0.000133278
0.000133563
0.000133272
0.000132327
0.000130677
0.000128305
0.00012523
0.000121508
0.000117232
0.000112523
0.000107525
0.00010239
9.72708e-05
9.23097e-05
8.76265e-05
8.33113e-05
7.94201e-05
7.5973e-05
7.29589e-05
7.03414e-05
6.80682e-05
6.60801e-05
6.43176e-05
6.27293e-05
6.12718e-05
5.98975e-05
5.8579e-05
5.72224e-05
5.59447e-05
5.48706e-05
5.36709e-05
5.23067e-05
5.09695e-05
4.95765e-05
4.81176e-05
4.6626e-05
4.51231e-05
4.36244e-05
4.22423e-05
4.1063e-05
4.02266e-05
3.98388e-05
3.99198e-05
4.03147e-05
4.06339e-05
4.02715e-05
3.84956e-05
3.45482e-05
2.77159e-05
1.75315e-05
5.51404e-06
5.68594e-08
7.02684e-08
6.73017e-06
2.22092e-05
3.74665e-05
5.04536e-05
6.13056e-05
7.04012e-05
7.81011e-05
8.46849e-05
9.03661e-05
9.53095e-05
9.96449e-05
0.000103477
0.000106894
0.000109969
0.000112767
0.000115345
0.000117752
0.000120032
0.000122219
0.000124336
0.000126395
0.000128391
0.000130301
0.000132082
0.000133667
0.000134973
0.0001359
0.000136342
0.000136194
0.000135363
0.000133783
0.00013142
0.00012828
0.000124415
0.000119918
0.000114919
0.000109577
0.000104069
9.85736e-05
9.32584e-05
8.82675e-05
8.37085e-05
7.96462e-05
7.61003e-05
7.30504e-05
7.04454e-05
6.82163e-05
6.62892e-05
6.45922e-05
6.30627e-05
6.16586e-05
6.03482e-05
5.90658e-05
5.78226e-05
5.66047e-05
5.53668e-05
5.42326e-05
5.31661e-05
5.2016e-05
5.08077e-05
4.95578e-05
4.81604e-05
4.66272e-05
4.50709e-05
4.33577e-05
4.16208e-05
3.9881e-05
3.83113e-05
3.70647e-05
3.63144e-05
3.61264e-05
3.63215e-05
3.63788e-05
3.54677e-05
3.25969e-05
2.67853e-05
1.73304e-05
5.56844e-06
5.85523e-08
7.20195e-08
6.85519e-06
2.25653e-05
3.80867e-05
5.13318e-05
6.24301e-05
7.17525e-05
7.966e-05
8.64343e-05
9.22913e-05
9.73979e-05
0.000101886
0.000105863
0.000109419
0.000112628
0.000115558
0.000118265
0.0001208
0.000123205
0.00012551
0.000127735
0.000129884
0.000131943
0.000133876
0.000135625
0.00013711
0.000138231
0.000138877
0.000138933
0.000138292
0.000136869
0.000134611
0.000131509
0.0001276
0.000122974
0.000117763
0.00011214
0.000106301
0.000100449
9.4783e-05
8.94718e-05
8.46445e-05
8.0378e-05
7.6694e-05
7.3564e-05
7.09219e-05
6.86803e-05
6.67486e-05
6.50451e-05
6.34989e-05
6.20493e-05
6.06301e-05
5.92326e-05
5.79447e-05
5.67244e-05
5.55435e-05
5.43958e-05
5.32722e-05
5.2187e-05
5.10799e-05
4.99904e-05
4.89101e-05
4.78515e-05
4.67347e-05
4.53696e-05
4.37597e-05
4.19597e-05
3.99836e-05
3.79708e-05
3.60021e-05
3.43301e-05
3.3193e-05
3.26941e-05
3.25922e-05
3.21564e-05
3.02353e-05
2.55197e-05
1.6956e-05
5.58155e-06
5.9918e-08
7.36205e-08
6.96726e-06
2.28807e-05
3.86405e-05
5.21221e-05
6.34485e-05
7.29824e-05
8.10849e-05
8.80394e-05
9.40637e-05
9.93269e-05
0.000103963
0.000108082
0.000111773
0.000115116
0.000118176
0.000121012
0.000123673
0.0001262
0.000128619
0.000130944
0.000133171
0.000135274
0.000137205
0.000138891
0.000140235
0.000141125
0.00014144
0.000141058
0.000139877
0.000137824
0.000134866
0.000131023
0.000126372
0.000121043
0.000115213
0.000109094
0.000102914
9.68979e-05
9.12461e-05
8.61126e-05
8.15916e-05
7.77113e-05
7.4439e-05
7.16953e-05
6.93749e-05
6.73675e-05
6.55818e-05
6.39415e-05
6.23644e-05
6.087e-05
5.94916e-05
5.82055e-05
5.6952e-05
5.57528e-05
5.46064e-05
5.34932e-05
5.24464e-05
5.14496e-05
5.04526e-05
4.9393e-05
4.83046e-05
4.71111e-05
4.60975e-05
4.48717e-05
4.38839e-05
4.24471e-05
4.06455e-05
3.85893e-05
3.62467e-05
3.39033e-05
3.18224e-05
3.03043e-05
2.94692e-05
2.8935e-05
2.76275e-05
2.3961e-05
1.64146e-05
5.55465e-06
6.0951e-08
7.50774e-08
7.06709e-06
2.31578e-05
3.91316e-05
5.28295e-05
6.43667e-05
7.40976e-05
8.23831e-05
8.95078e-05
9.56914e-05
0.000101105
0.000105884
0.00011014
0.000113966
0.000117439
0.000120629
0.000123592
0.000126378
0.000129022
0.000131549
0.000133965
0.000136256
0.000138384
0.000140287
0.000141876
0.000143041
0.000143658
0.000143596
0.000142735
0.000140981
0.000138276
0.000134617
0.000130058
0.000124719
0.000118773
0.000112442
0.000105971
9.96151e-05
9.36035e-05
8.81213e-05
8.32866e-05
7.91417e-05
7.56554e-05
7.27397e-05
7.0274e-05
6.81324e-05
6.61899e-05
6.44111e-05
6.27223e-05
6.09751e-05
5.93952e-05
5.79211e-05
5.64659e-05
5.50993e-05
5.3861e-05
5.2742e-05
5.15953e-05
5.05674e-05
4.96758e-05
4.88375e-05
4.80612e-05
4.73191e-05
4.65364e-05
4.55033e-05
4.44112e-05
4.33176e-05
4.2037e-05
4.09719e-05
3.94171e-05
3.70884e-05
3.45237e-05
3.18428e-05
2.93723e-05
2.74887e-05
2.6272e-05
2.5046e-05
2.22e-05
1.57242e-05
5.4943e-06
6.17136e-08
7.63955e-08
7.1553e-06
2.33986e-05
3.95633e-05
5.34582e-05
6.51898e-05
7.5104e-05
8.3561e-05
9.08465e-05
9.71816e-05
0.000102739
0.000107657
0.000112047
0.000116003
0.000119606
0.000122922
0.000126011
0.000128918
0.000131676
0.000134304
0.0001368
0.000139139
0.000141271
0.00014312
0.000144581
0.000145531
0.000145836
0.000145363
0.000143994
0.000141647
0.000138289
0.000133949
0.000128722
0.000122771
0.000116315
0.000109614
0.000102942
9.65619e-05
9.06929e-05
8.54849e-05
8.1003e-05
7.72274e-05
7.40684e-05
7.13941e-05
6.90557e-05
6.69688e-05
6.48431e-05
6.28374e-05
6.11202e-05
5.94192e-05
5.76889e-05
5.59946e-05
5.45219e-05
5.31303e-05
5.19465e-05
5.09393e-05
4.99366e-05
4.88241e-05
4.79713e-05
4.71324e-05
4.63636e-05
4.56553e-05
4.50034e-05
4.43726e-05
4.36789e-05
4.27153e-05
4.15851e-05
4.03446e-05
3.92178e-05
3.77815e-05
3.54942e-05
3.27288e-05
2.96939e-05
2.68419e-05
2.45949e-05
2.2859e-05
2.03992e-05
1.49195e-05
5.41644e-06
6.23742e-08
7.75796e-08
7.23247e-06
2.36049e-05
3.99385e-05
5.40121e-05
6.59224e-05
7.60067e-05
8.46242e-05
9.20613e-05
9.85404e-05
0.000104236
0.000109287
0.000113807
0.000117891
0.00012162
0.000125062
0.000128273
0.000131297
0.000134163
0.000136884
0.000139448
0.000141819
0.000143935
0.000145704
0.000147008
0.000147713
0.000147677
0.000146766
0.000144872
0.000141931
0.000137938
0.000132958
0.00012713
0.000120661
0.000113811
0.000106874
0.000100137
9.38581e-05
8.82245e-05
8.33357e-05
7.91946e-05
7.57205e-05
7.2779e-05
7.02216e-05
6.77334e-05
6.52508e-05
6.3469e-05
6.1612e-05
5.93901e-05
5.74162e-05
5.57826e-05
5.43277e-05
5.30597e-05
5.19733e-05
5.09549e-05
5.02578e-05
4.95084e-05
4.84608e-05
4.76222e-05
4.669e-05
4.57406e-05
4.47988e-05
4.39262e-05
4.31678e-05
4.24372e-05
4.17276e-05
4.08469e-05
3.9694e-05
3.88515e-05
3.75628e-05
3.61989e-05
3.38823e-05
3.07698e-05
2.73465e-05
2.41107e-05
2.14463e-05
1.88065e-05
1.40732e-05
5.33954e-06
6.32516e-08
7.86346e-08
7.29909e-06
2.37784e-05
4.02597e-05
5.44945e-05
6.65685e-05
7.68104e-05
8.55778e-05
9.31575e-05
9.97733e-05
0.000105601
0.00011078
0.000115426
0.000119635
0.000123487
0.000127051
0.00013038
0.000133517
0.000136485
0.000139289
0.000141909
0.000144297
0.000146377
0.000148043
0.000149166
0.000149601
0.000149203
0.00014784
0.000145419
0.000141898
0.000137304
0.000131741
0.000125393
0.00011851
0.000111386
0.000104335
9.76462e-05
9.1552e-05
8.6195e-05
8.16138e-05
7.7749e-05
7.44677e-05
7.16e-05
6.86326e-05
6.6208e-05
6.43329e-05
6.19248e-05
5.96288e-05
5.76824e-05
5.59886e-05
5.46346e-05
5.36015e-05
5.28439e-05
5.22247e-05
5.17902e-05
5.15774e-05
5.11138e-05
5.06197e-05
5.00622e-05
4.926e-05
4.82357e-05
4.69678e-05
4.54532e-05
4.37607e-05
4.21717e-05
4.09457e-05
4.00617e-05
3.92038e-05
3.81416e-05
3.71947e-05
3.58765e-05
3.44438e-05
3.20473e-05
2.85402e-05
2.47014e-05
2.1048e-05
1.77308e-05
1.3302e-05
5.29186e-06
6.48946e-08
7.95648e-08
7.35565e-06
2.39205e-05
4.05293e-05
5.49085e-05
6.71318e-05
7.75191e-05
8.64262e-05
9.414e-05
0.000100885
0.000106838
0.000112141
0.000116909
0.000121239
0.000125211
0.000128893
0.000132337
0.000135581
0.000138644
0.000141522
0.000144185
0.000146575
0.0001486
0.000150144
0.000151066
0.000151214
0.000150442
0.000148626
0.00014569
0.000141618
0.000136472
0.000130397
0.00012362
0.000116426
0.000109137
0.000102074
9.55119e-05
8.96434e-05
8.45556e-05
8.02239e-05
7.65334e-05
7.32808e-05
6.98967e-05
6.7493e-05
6.5323e-05
6.2578e-05
6.02226e-05
5.81792e-05
5.65344e-05
5.53171e-05
5.45358e-05
5.41341e-05
5.40331e-05
5.40567e-05
5.41333e-05
5.42865e-05
5.42233e-05
5.40332e-05
5.36234e-05
5.29318e-05
5.19584e-05
5.06974e-05
4.92012e-05
4.7473e-05
4.54662e-05
4.30545e-05
4.04989e-05
3.86374e-05
3.7593e-05
3.63393e-05
3.53355e-05
3.41142e-05
3.2569e-05
2.98828e-05
2.59615e-05
2.16374e-05
1.74459e-05
1.27681e-05
5.31264e-06
6.81962e-08
8.03744e-08
7.40258e-06
2.40326e-05
4.07495e-05
5.52568e-05
6.76155e-05
7.81366e-05
8.71735e-05
9.5013e-05
0.00010188
0.000107953
0.000113374
0.000118259
0.000122706
0.000126794
0.00013059
0.000134144
0.00013749
0.000140639
0.000143582
0.000146277
0.000148654
0.000150611
0.000152017
0.000152724
0.000152576
0.000151429
0.00014917
0.000145744
0.000141162
0.000135525
0.000129017
0.000121901
0.000114495
0.000107134
0.000100134
9.37398e-05
8.80975e-05
8.32334e-05
7.9063e-05
7.53998e-05
7.16189e-05
6.90239e-05
6.65942e-05
6.36876e-05
6.11208e-05
5.89532e-05
5.72804e-05
5.61671e-05
5.5605e-05
5.55009e-05
5.58622e-05
5.62308e-05
5.65541e-05
5.71656e-05
5.74793e-05
5.76198e-05
5.74786e-05
5.70228e-05
5.62833e-05
5.52638e-05
5.39669e-05
5.24162e-05
5.06928e-05
4.87974e-05
4.6595e-05
4.40911e-05
4.11445e-05
3.78723e-05
3.59247e-05
3.45889e-05
3.35069e-05
3.23088e-05
3.05631e-05
2.73268e-05
2.29138e-05
1.80031e-05
1.26834e-05
5.45469e-06
7.45956e-08
8.10677e-08
7.4403e-06
2.41162e-05
4.09224e-05
5.55422e-05
6.80229e-05
7.86664e-05
8.78235e-05
9.57805e-05
0.000102763
0.000108949
0.000114483
0.000119481
0.00012404
0.00012824
0.000132146
0.000135804
0.000139245
0.000142474
0.000145471
0.000148187
0.00015054
0.000152416
0.000153674
0.00015416
0.000153715
0.000152202
0.000149522
0.000145641
0.000140602
0.000134541
0.00012768
0.000120314
0.00011278
0.000105418
9.85252e-05
9.23092e-05
8.68632e-05
8.21544e-05
7.80335e-05
7.38393e-05
7.08131e-05
6.82421e-05
6.51381e-05
6.23367e-05
5.99756e-05
5.81941e-05
5.70727e-05
5.66029e-05
5.68097e-05
5.74689e-05
5.80495e-05
5.86671e-05
5.96343e-05
6.03093e-05
6.07752e-05
6.09898e-05
6.0954e-05
6.06341e-05
5.99916e-05
5.90062e-05
5.76417e-05
5.58928e-05
5.37971e-05
5.1503e-05
4.92388e-05
4.69863e-05
4.44922e-05
4.13431e-05
3.76765e-05
3.44305e-05
3.27711e-05
3.17032e-05
3.03644e-05
2.82554e-05
2.43844e-05
1.9197e-05
1.32304e-05
5.76291e-06
8.62542e-08
8.16488e-08
7.46919e-06
2.41723e-05
4.10499e-05
5.57671e-05
6.83568e-05
7.91118e-05
8.83798e-05
9.64461e-05
0.000103537
0.000109831
0.000115472
0.000120577
0.000125244
0.000129551
0.000133561
0.000137318
0.000140847
0.000144148
0.000147192
0.00014992
0.00015224
0.000154026
0.000155132
0.000155396
0.000154663
0.000152801
0.000149731
0.00014544
0.000140004
0.00013359
0.000126454
0.000118915
0.000111322
0.000104007
9.72395e-05
9.11856e-05
8.58908e-05
8.12677e-05
7.66648e-05
7.2917e-05
7.03101e-05
6.70016e-05
6.39089e-05
6.12748e-05
5.9271e-05
5.80146e-05
5.75106e-05
5.78709e-05
5.8782e-05
5.95621e-05
6.03632e-05
6.16803e-05
6.2738e-05
6.35985e-05
6.42628e-05
6.47026e-05
6.48959e-05
6.48156e-05
6.44054e-05
6.36189e-05
6.24026e-05
6.06937e-05
5.85549e-05
5.58793e-05
5.28378e-05
4.97941e-05
4.6837e-05
4.41211e-05
4.1026e-05
3.72105e-05
3.285e-05
3.07148e-05
2.98215e-05
2.80629e-05
2.5502e-05
2.05912e-05
1.44047e-05
6.26867e-06
1.05969e-07
8.21219e-08
7.48965e-06
2.42025e-05
4.11339e-05
5.59339e-05
6.862e-05
7.9476e-05
8.88456e-05
9.70133e-05
0.000104205
0.0001106
0.000116343
0.000121551
0.00012632
0.000130729
0.000134838
0.000138688
0.0001423
0.000145665
0.000148748
0.000151481
0.00015376
0.000155454
0.000156407
0.000156457
0.000155451
0.000153269
0.000149847
0.000145198
0.000139426
0.000132731
0.000125392
0.000117747
0.000110144
0.000102902
9.62558e-05
9.03312e-05
8.51432e-05
8.03029e-05
7.5541e-05
7.26882e-05
6.93481e-05
6.59056e-05
6.29201e-05
6.05764e-05
5.90416e-05
5.83538e-05
5.8613e-05
5.97493e-05
6.07858e-05
6.16762e-05
6.31821e-05
6.46848e-05
6.59229e-05
6.69875e-05
6.78276e-05
6.84035e-05
6.86992e-05
6.87055e-05
6.84446e-05
6.78865e-05
6.7001e-05
6.56904e-05
6.37821e-05
6.12263e-05
5.80167e-05
5.45401e-05
5.08149e-05
4.69388e-05
4.33686e-05
4.02052e-05