/*--------------------------------*- C++ -*----------------------------------*\
  =========                 |
  \\      /  F ield         | OpenFOAM: The Open Source CFD Toolbox
   \\    /   O peration     | Website:  https://openfoam.org
    \\  /    A nd           | Version:  13
     \\/     M anipulation  |
\*---------------------------------------------------------------------------*/
FoamFile
{
    format      ascii;
    class       volScalarField;
    location    "1";
    object      p;
}
// * * * * * * * * * * * * * * * * * * * * * * * * * * * * * * * * * * * * * //

dimensions      [0 2 -2 0 0 0 0];

internalField   nonuniform List<scalar> 
6400
(
-4.42325e-09
-1.73155e-06
-6.37851e-06
-1.2934e-05
-2.00887e-05
-2.69189e-05
-3.28232e-05
-3.74872e-05
-4.07163e-05
-4.24011e-05
-4.24886e-05
-4.09555e-05
-3.77929e-05
-3.29972e-05
-2.65649e-05
-1.84892e-05
-8.75713e-06
2.65164e-06
1.57667e-05
3.06275e-05
4.7285e-05
6.58015e-05
8.62519e-05
0.000108724
0.000133317
0.000160144
0.000189328
0.000221001
0.000255305
0.000292385
0.000332387
0.000375454
0.000421718
0.000471301
0.000524298
0.000580781
0.000640783
0.000704296
0.000771262
0.000841569
0.000915048
0.000991436
0.00107033
0.0011515
0.00123464
0.00131912
0.0014043
0.00148961
0.00157439
0.00165796
0.0017396
0.00181858
0.00189425
0.00196593
0.00203296
0.00209478
0.00215092
0.00220099
0.00224472
0.00228194
0.0023126
0.00233679
0.00235468
0.00236658
0.00237285
0.00237399
0.00237057
0.00236318
0.0023525
0.00233922
0.00232406
0.00230775
0.00229108
0.0022748
0.00225969
0.0022465
0.00223604
0.00222891
0.00222547
0.00222564
1.65485e-06
-9.23771e-08
-4.14974e-06
-9.77992e-06
-1.57347e-05
-2.14438e-05
-2.64113e-05
-3.02942e-05
-3.28782e-05
-3.40405e-05
-3.3709e-05
-3.18424e-05
-2.84166e-05
-2.34155e-05
-1.68259e-05
-8.63301e-06
1.18178e-06
1.26433e-05
2.57844e-05
4.06468e-05
5.72824e-05
7.57539e-05
9.61352e-05
0.000118512
0.000142983
0.000169655
0.000198647
0.000230088
0.000264112
0.000300856
0.00034046
0.000383058
0.000428775
0.000477722
0.00052999
0.000585642
0.000644707
0.000707174
0.000772986
0.000842033
0.000914146
0.000989085
0.00106656
0.00114629
0.00122779
0.00131049
0.00139397
0.00147766
0.00156091
0.00164306
0.00172339
0.0018012
0.00187583
0.00194664
0.00201298
0.00207431
0.00213015
0.00218013
0.00222395
0.00226145
0.00229257
0.00231735
0.00233597
0.00234871
0.00235597
0.00235819
0.00235592
0.00234974
0.00234032
0.00232833
0.00231449
0.00229954
0.00228424
0.00226934
0.00225564
0.00224389
0.00223463
0.00222844
0.00222553
0.00222575
6.33443e-06
3.90262e-06
-1.99682e-07
-5.11769e-06
-9.93778e-06
-1.42287e-05
-1.77448e-05
-2.02851e-05
-2.16856e-05
-2.18286e-05
-2.06315e-05
-1.80367e-05
-1.40036e-05
-8.50199e-06
-1.50608e-06
7.00887e-06
1.70694e-05
2.87063e-05
4.19564e-05
5.68639e-05
7.34817e-05
9.18716e-05
0.000112106
0.000134267
0.000158447
0.000184749
0.000213285
0.000244172
0.000277538
0.00031351
0.000352216
0.00039378
0.000438318
0.000485932
0.000536703
0.000590689
0.000647918
0.000708377
0.000772015
0.000838731
0.000908374
0.00098074
0.00105556
0.00113247
0.0012112
0.0012912
0.00137196
0.00145296
0.00153363
0.00161333
0.00169144
0.00176731
0.00184026
0.00190967
0.00197498
0.00203564
0.00209117
0.0021412
0.00218543
0.00222367
0.00225584
0.00228198
0.00230221
0.00231679
0.00232606
0.00233045
0.00233045
0.00232664
0.00231963
0.00231008
0.00229868
0.00228613
0.00227316
0.00226048
0.00224875
0.0022386
0.00223062
0.00222514
0.00222236
0.00222221
1.30969e-05
9.64902e-06
4.65782e-06
-3.68992e-07
-4.44915e-06
-7.4601e-06
-9.50372e-06
-1.05812e-05
-1.06246e-05
-9.55385e-06
-7.29557e-06
-3.78803e-06
1.01983e-06
7.17029e-06
1.46996e-05
2.36407e-05
3.40269e-05
4.58936e-05
5.92808e-05
7.42337e-05
9.08047e-05
0.000109054
0.00012905
0.000150871
0.000174604
0.000200344
0.000228195
0.000258267
0.000290675
0.000325539
0.000362977
0.000403106
0.000446034
0.000491857
0.000540656
0.000592487
0.000647382
0.00070534
0.00076632
0.000830243
0.00089698
0.000966333
0.00103804
0.00111195
0.00118762
0.00126462
0.0013425
0.00142077
0.00149889
0.00157627
0.00165233
0.00172645
0.00179799
0.00186635
0.00193096
0.00199129
0.00204687
0.0020973
0.00214228
0.0021816
0.00221514
0.00224291
0.00226502
0.00228167
0.00229318
0.00229994
0.00230242
0.00230116
0.00229675
0.00228981
0.00228101
0.002271
0.00226045
0.00225
0.0022402
0.00223154
0.00222438
0.00221908
0.00221597
0.00221514
2.05339e-05
1.57342e-05
9.28089e-06
3.1932e-06
-1.04958e-06
-3.52854e-06
-4.67959e-06
-4.72107e-06
-3.70814e-06
-1.62914e-06
1.55317e-06
5.88392e-06
1.14088e-05
1.81702e-05
2.62062e-05
3.55529e-05
4.62461e-05
5.83228e-05
7.18229e-05
8.67903e-05
0.000103275
0.000121333
0.000141028
0.000162435
0.000185633
0.000210711
0.000237766
0.000266904
0.000298234
0.000331868
0.000367923
0.00040651
0.000447737
0.000491704
0.000538495
0.000588177
0.000640795
0.000696363
0.000754864
0.000816242
0.000880399
0.000947179
0.00101638
0.00108777
0.00116102
0.00123575
0.00131154
0.00138792
0.00146438
0.00154037
0.00161529
0.00168855
0.00175955
0.00182766
0.0018923
0.00195293
0.00200906
0.00206028
0.00210627
0.00214678
0.00218168
0.00221095
0.00223468
0.00225305
0.00226635
0.00227497
0.00227935
0.00228003
0.00227757
0.00227258
0.0022657
0.00225754
0.00224871
0.00223978
0.00223121
0.00222334
0.0022164
0.00221071
0.00220685
0.00220514
2.72963e-05
2.11692e-05
1.28044e-05
4.92943e-06
-2.76935e-07
-2.98496e-06
-3.90272e-06
-3.44795e-06
-1.80572e-06
9.50306e-07
4.80254e-06
9.76249e-06
1.5855e-05
2.31103e-05
3.15603e-05
4.12371e-05
5.21738e-05
6.44049e-05
7.79672e-05
9.29012e-05
0.000109252
0.000127073
0.000146422
0.000167366
0.00018998
0.000214348
0.000240564
0.000268727
0.000298946
0.000331332
0.000366002
0.00040307
0.00044265
0.00048485
0.000529768
0.000577487
0.000628069
0.000681554
0.00073795
0.00079723
0.000859325
0.000924117
0.000991436
0.00106106
0.0011327
0.00120601
0.0012806
0.00135602
0.00143176
0.00150729
0.001582
0.00165529
0.00172658
0.00179521
0.00186055
0.00192203
0.00197915
0.00203147
0.00207863
0.00212037
0.00215653
0.00218707
0.00221207
0.0022317
0.00224626
0.00225612
0.00226174
0.00226364
0.0022624
0.00225862
0.00225289
0.00224582
0.00223797
0.00222983
0.00222179
0.00221409
0.00220682
0.00220033
0.00219548
0.0021929
3.22789e-05
2.49224e-05
1.44565e-05
4.41265e-06
-2.26288e-06
-5.75219e-06
-6.96661e-06
-6.48827e-06
-4.62132e-06
-1.52631e-06
2.71731e-06
8.07837e-06
1.45526e-05
2.21497e-05
3.08873e-05
4.07875e-05
5.18756e-05
6.41795e-05
7.77303e-05
9.25634e-05
0.000108719
0.000126244
0.000145192
0.000165626
0.000187615
0.000211239
0.00023659
0.000263765
0.000292872
0.000324026
0.000357347
0.000392959
0.000430986
0.000471549
0.000514765
0.000560737
0.000609553
0.000661279
0.000715953
0.000773576
0.000834111
0.000897469
0.00096351
0.00103204
0.00110279
0.00117545
0.00124963
0.0013249
0.00140075
0.00147663
0.00155193
0.00162603
0.00169832
0.00176814
0.00183477
0.00189758
0.00195607
0.00200976
0.00205823
0.00210121
0.00213852
0.0021701
0.00219602
0.00221647
0.00223174
0.00224225
0.00224845
0.0022509
0.00225018
0.00224688
0.00224162
0.00223497
0.00222746
0.00221952
0.00221148
0.0022035
0.00219561
0.00218813
0.00218229
0.00217892
3.46076e-05
2.61191e-05
1.35354e-05
1.18299e-06
-7.23728e-06
-1.187e-05
-1.37686e-05
-1.36416e-05
-1.18924e-05
-8.76144e-06
-4.3896e-06
1.1459e-06
7.80689e-06
1.55782e-05
2.44589e-05
3.44567e-05
4.55857e-05
5.78643e-05
7.13157e-05
8.59681e-05
0.000101856
0.000119019
0.000137508
0.000157378
0.000178697
0.000201544
0.000226005
0.000252182
0.000280182
0.000310125
0.000342142
0.000376365
0.000412936
0.000451995
0.000493679
0.000538118
0.000585428
0.000635705
0.000689016
0.000745396
0.000804835
0.000867276
0.000932604
0.00100065
0.00107117
0.00114385
0.00121834
0.00129418
0.00137088
0.00144786
0.00152448
0.00160009
0.00167408
0.00174572
0.0018142
0.00187883
0.00193907
0.00199439
0.00204433
0.00208858
0.00212693
0.00215932
0.00218581
0.00220662
0.00222208
0.00223261
0.00223873
0.00224103
0.00224011
0.00223661
0.00223114
0.00222428
0.00221652
0.00220828
0.00219985
0.00219131
0.00218265
0.00217423
0.00216751
0.00216357
3.35647e-05
2.4053e-05
9.43609e-06
-5.2182e-06
-1.55044e-05
-2.15005e-05
-2.43525e-05
-2.48613e-05
-2.3509e-05
-2.06037e-05
-1.63425e-05
-1.0847e-05
-4.19033e-06
3.58559e-06
1.24588e-05
2.24204e-05
3.34708e-05
4.56174e-05
5.88738e-05
7.32597e-05
8.88022e-05
0.000105536
0.000123503
0.000142757
0.000163362
0.000185394
0.00020894
0.000234102
0.000260994
0.000289743
0.000320491
0.000353387
0.000388591
0.000426266
0.000466578
0.000509684
0.000555733
0.000604852
0.000657141
0.000712666
0.000771446
0.000833452
0.000898592
0.000966715
0.0010376
0.00111095
0.00118639
0.00126349
0.00134173
0.00142051
0.00149915
0.00157698
0.00165335
0.00172745
0.00179839
0.00186536
0.00192778
0.00198505
0.00203666
0.00208225
0.00212157
0.00215455
0.00218127
0.00220198
0.00221703
0.00222693
0.00223226
0.00223365
0.0022318
0.00222736
0.00222099
0.00221327
0.00220472
0.00219573
0.00218656
0.00217728
0.00216784
0.00215863
0.00215129
0.00214698
2.85988e-05
1.81759e-05
1.66453e-06
-1.51981e-05
-2.73688e-05
-3.48433e-05
-3.88223e-05
-4.01719e-05
-3.94335e-05
-3.69699e-05
-3.30261e-05
-2.77645e-05
-2.1291e-05
-1.36742e-05
-4.95776e-06
4.83172e-06
1.56799e-05
2.75818e-05
4.05404e-05
5.45665e-05
6.96788e-05
8.59047e-05
0.000103282
0.000121857
0.000141693
0.000162863
0.000185456
0.000209578
0.000235349
0.000262909
0.000292412
0.000324029
0.000357942
0.000394344
0.000433429
0.000475391
0.000520409
0.000568647
0.000620236
0.000675272
0.000733802
0.000795821
0.00086126
0.000929983
0.00100178
0.00107637
0.00115338
0.00123237
0.0013128
0.00139407
0.00147543
0.00155618
0.00163561
0.00171287
0.00178692
0.00185683
0.00192194
0.00198157
0.00203514
0.00208221
0.0021225
0.00215591
0.00218253
0.00220265
0.0022167
0.00222526
0.00222902
0.0022287
0.00222508
0.00221891
0.00221089
0.00220166
0.00219175
0.00218156
0.00217136
0.00216121
0.00215105
0.00214128
0.00213361
0.00212912
1.92998e-05
8.07402e-06
-1.01666e-05
-2.90949e-05
-4.31028e-05
-5.20956e-05
-5.73019e-05
-5.96312e-05
-5.9668e-05
-5.78176e-05
-5.43647e-05
-4.95062e-05
-4.33781e-05
-3.60738e-05
-2.76583e-05
-1.81757e-05
-7.65545e-06
3.88461e-06
1.64363e-05
3.00006e-05
4.45877e-05
6.02176e-05
7.69215e-05
9.47429e-05
0.00011374
0.000133986
0.000155572
0.00017861
0.00020323
0.000229586
0.000257851
0.00028822
0.000320905
0.000356129
0.000394123
0.000435115
0.000479321
0.000526938
0.000578128
0.000633015
0.000691672
0.000754112
0.000820285
0.000890072
0.000963274
0.00103962
0.00111873
0.00120018
0.00128342
0.0013678
0.00145255
0.0015369
0.00162009
0.00170124
0.00177915
0.00185272
0.00192113
0.00198366
0.00203962
0.00208846
0.00212984
0.00216361
0.00218989
0.00220899
0.00222143
0.00222791
0.00222925
0.00222631
0.00222002
0.00221123
0.00220074
0.00218928
0.0021774
0.00216555
0.00215402
0.00214288
0.00213209
0.00212203
0.00211434
0.00210989
5.37056e-06
-6.55422e-06
-2.63497e-05
-4.71774e-05
-6.29351e-05
-7.34353e-05
-7.99153e-05
-8.33115e-05
-8.42386e-05
-8.31339e-05
-8.03135e-05
-7.60035e-05
-7.03653e-05
-6.35154e-05
-5.5538e-05
-4.64943e-05
-3.64285e-05
-2.53713e-05
-1.33424e-05
-3.50704e-07
1.36049e-05
2.8537e-05
4.44703e-05
6.1444e-05
7.95135e-05
9.87529e-05
0.000119258
0.000141146
0.000164564
0.000189681
0.000216695
0.000245831
0.000277333
0.000311461
0.000348484
0.000388668
0.000432263
0.000479497
0.000530562
0.000585604
0.000644714
0.000707924
0.000775197
0.000846426
0.000921427
0.000999933
0.00108159
0.00116596
0.0012525
0.00134055
0.0014293
0.00151788
0.00160551
0.00169128
0.00177387
0.00185195
0.00192444
0.00199057
0.00204954
0.00210066
0.00214347
0.00217775
0.00220359
0.00222135
0.00223164
0.00223532
0.00223336
0.00222685
0.00221687
0.00220447
0.0021906
0.00217607
0.00216155
0.00214753
0.00213433
0.00212206
0.00211072
0.00210064
0.00209323
0.00208904
-1.3396e-05
-2.59184e-05
-4.70965e-05
-6.96494e-05
-8.70471e-05
-9.90108e-05
-0.000106773
-0.000111285
-0.000113181
-0.000112922
-0.000110849
-0.000107211
-0.000102191
-9.59255e-05
-8.85165e-05
-8.00409e-05
-7.05569e-05
-6.01078e-05
-4.87247e-05
-3.64266e-05
-2.32215e-05
-9.10452e-06
5.94288e-06
2.19556e-05
3.89876e-05
5.71148e-05
7.64385e-05
9.70889e-05
0.000119227
0.000143048
0.000168779
0.000196676
0.000227024
0.000260123
0.000296278
0.000335794
0.000378954
0.000426012
0.00047718
0.000532621
0.000592438
0.000656671
0.000725296
0.000798214
0.000875255
0.000956171
0.00104063
0.00112819
0.00121835
0.00131044
0.00140364
0.00149701
0.00158967
0.00168072
0.00176884
0.00185237
0.0019299
0.00200054
0.0020634
0.00211762
0.00216252
0.00219779
0.00222342
0.00223979
0.00224762
0.00224789
0.00224183
0.00223075
0.00221602
0.00219892
0.00218063
0.00216211
0.00214417
0.00212736
0.00211208
0.0020985
0.00208664
0.00207679
0.00206997
0.00206626
-3.71343e-05
-5.01545e-05
-7.2551e-05
-9.66563e-05
-0.000115574
-0.000128937
-0.000137964
-0.000143613
-0.00014653
-0.000147192
-0.000145958
-0.000143097
-0.000138809
-0.000133249
-0.000126532
-0.000118752
-0.000109978
-0.000100268
-8.96616e-05
-7.81895e-05
-6.58682e-05
-5.27008e-05
-3.86746e-05
-2.37582e-05
-7.89803e-06
8.98565e-06
2.70033e-05
4.63001e-05
6.70592e-05
8.95034e-05
0.000113895
0.000140529
0.000169732
0.000201845
0.000237213
0.000276171
0.00031903
0.000366062
0.00041749
0.000473481
0.000534138
0.000599503
0.000669553
0.000744198
0.000823285
0.00090659
0.000993812
0.00108456
0.00117834
0.00127455
0.0013724
0.00147087
0.00156898
0.0016658
0.00176019
0.00185021
0.00193392
0.00201017
0.00207809
0.00213659
0.00218472
0.00222192
0.00224809
0.00226353
0.002269
0.00226563
0.00225488
0.00223839
0.00221785
0.00219492
0.00217107
0.00214752
0.00212525
0.00210496
0.0020871
0.00207191
0.0020595
0.00205008
0.00204413
0.00204117
-6.59075e-05
-7.93504e-05
-0.000102805
-0.000128294
-0.000148607
-0.000163294
-0.000173553
-0.000180341
-0.00018431
-0.000185949
-0.00018563
-0.000183636
-0.000180184
-0.000175441
-0.000169537
-0.000162577
-0.000154646
-0.00014581
-0.000136121
-0.00012562
-0.000114332
-0.000102267
-8.94188e-05
-7.57579e-05
-6.12294e-05
-4.5747e-05
-2.91876e-05
-1.13864e-05
7.86698e-06
2.88294e-05
5.18022e-05
7.71251e-05
0.000105166
0.000136307
0.000170928
0.000209389
0.000252017
0.000299086
0.000350816
0.00040736
0.000468809
0.00053519
0.00060647
0.000682569
0.000763348
0.000848621
0.000938145
0.0010316
0.00112856
0.00122849
0.0013307
0.00143423
0.00153793
0.00164078
0.00174184
0.00183933
0.00193056
0.0020138
0.00208825
0.00215265
0.00220566
0.00224639
0.00227451
0.00229019
0.00229413
0.00228755
0.00227209
0.00224972
0.00222257
0.00219276
0.00216219
0.00213249
0.00210488
0.00208025
0.00205919
0.002042
0.0020289
0.00202003
0.00201526
0.0020132
-9.97348e-05
-0.000113544
-0.000137904
-0.000164616
-0.000186199
-0.000202128
-0.000213577
-0.000221493
-0.000226532
-0.00022919
-0.000229849
-0.000228803
-0.000226281
-0.000222461
-0.000217488
-0.000211476
-0.000204522
-0.000196704
-0.000188084
-0.000178712
-0.000168623
-0.000157834
-0.000146343
-0.000134121
-0.00012111
-0.000107214
-9.22928e-05
-7.61566e-05
-5.85625e-05
-3.92145e-05
-1.77673e-05
6.16393e-06
3.29896e-05
6.31277e-05
9.69838e-05
0.000134931
0.000177293
0.00022433
0.000276232
0.000333118
0.00039504
0.000461992
0.000533918
0.000610739
0.000692331
0.000778567
0.000869291
0.000964292
0.00106328
0.00116586
0.00127148
0.00137935
0.00148834
0.00159718
0.00170494
0.00181048
0.00191074
0.00200281
0.00208566
0.00215813
0.00221836
0.00226497
0.0022973
0.00231529
0.00231947
0.00231103
0.00229173
0.0022638
0.00222981
0.00219242
0.00215415
0.00211716
0.00208313
0.00205323
0.0020282
0.0020085
0.00199445
0.00198615
0.00198275
0.0019818
-0.000138608
-0.000152722
-0.000177849
-0.000205632
-0.000228366
-0.000245454
-0.000258044
-0.00026707
-0.000273189
-0.000276899
-0.000278591
-0.000278566
-0.000277063
-0.000274271
-0.000270344
-0.00026541
-0.000259574
-0.000252924
-0.000245536
-0.000237467
-0.00022876
-0.00021944
-0.000209507
-0.000198933
-0.000187653
-0.000175556
-0.000162481
-0.000148208
-0.000132457
-0.000114887
-9.51086e-05
-7.2691e-05
-4.71863e-05
-1.81496e-05
1.48359e-05
5.21364e-05
9.40491e-05
0.00014079
0.000192488
0.000249193
0.000310886
0.0003775
0.000448935
0.000525082
0.000605873
0.000691244
0.000781164
0.000875586
0.000974438
0.00107756
0.00118464
0.00129514
0.00140821
0.00152248
0.00163672
0.00175031
0.00186085
0.00196418
0.00205818
0.00214171
0.00221252
0.00226852
0.00230856
0.00233213
0.00233946
0.0023316
0.00231041
0.00227829
0.00223818
0.00219326
0.00214675
0.00210158
0.00206009
0.0020239
0.00199404
0.00197117
0.00195575
0.0019479
0.001946
0.00194634
-0.000182484
-0.000196842
-0.000222609
-0.00025132
-0.000275091
-0.000293257
-0.000306937
-0.000317052
-0.000324255
-0.000329045
-0.000331818
-0.000332883
-0.000332485
-0.000330824
-0.000328062
-0.000324337
-0.000319765
-0.000314446
-0.000308463
-0.000301884
-0.000294761
-0.000287124
-0.000278975
-0.000270282
-0.000260971
-0.000250914
-0.000239922
-0.000227742
-0.000214051
-0.000198464
-0.000180542
-0.000159818
-0.000135814
-0.000108073
-7.61893e-05
-3.98313e-05
1.23711e-06
4.71463e-05
9.79208e-05
0.000153491
0.000213721
0.000278438
0.000347467
0.000420656
0.00049801
0.000579541
0.000665379
0.000755696
0.000850756
0.000950755
0.00105579
0.00116576
0.00128018
0.00139817
0.00151823
0.00163935
0.00176057
0.00187794
0.00198709
0.00208605
0.00217246
0.00224333
0.00229666
0.00233118
0.00234643
0.00234318
0.00232333
0.00228951
0.00224509
0.00219369
0.00213924
0.00208552
0.00203574
0.0019923
0.00195668
0.00192984
0.00191247
0.00190478
0.00190435
0.00190612
-0.000231288
-0.000245832
-0.000272119
-0.000301625
-0.000326324
-0.00034549
-0.000360212
-0.000371394
-0.000379682
-0.000385578
-0.000389479
-0.000391699
-0.000392492
-0.000392064
-0.000390588
-0.000388209
-0.000385055
-0.000381236
-0.000376844
-0.000371959
-0.000366639
-0.000360918
-0.000354799
-0.000348245
-0.000341169
-0.00033342
-0.000324781
-0.000314958
-0.000303586
-0.000290231
-0.000274417
-0.000255644
-0.00023342
-0.000207301
-0.000176922
-0.000142024
-0.000102481
-5.83026e-05
-9.63174e-06
4.32782e-05
0.000100102
0.000160502
0.000224194
0.000291001
0.000360841
0.000433925
0.000510587
0.000591325
0.000676811
0.000767754
0.000864905
0.000968825
0.0010798
0.00119769
0.00132142
0.00144934
0.00158091
0.00171395
0.001843
0.00196374
0.0020731
0.0021673
0.00224286
0.00229723
0.0023286
0.0023371
0.00232421
0.00229294
0.00224726
0.00219142
0.00213022
0.00206833
0.00200997
0.00195849
0.00191618
0.00188446
0.00186439
0.00185638
0.00185715
0.00186049
-0.000284919
-0.000299595
-0.00032629
-0.000356464
-0.00038199
-0.000402083
-0.000417799
-0.000430025
-0.0004394
-0.000446426
-0.000451501
-0.000454943
-0.000457013
-0.000457923
-0.000457855
-0.000456965
-0.00045539
-0.000453249
-0.000450648
-0.000447673
-0.00044439
-0.000440838
-0.000437018
-0.000432884
-0.000428334
-0.000423193
-0.000417208
-0.000410047
-0.000401298
-0.00039049
-0.000377112
-0.000360647
-0.000340618
-0.00031662
-0.000288372
-0.000255743
-0.000218777
-0.0001777
-0.000132906
-8.49213e-05
-3.43454e-05
1.82285e-05
7.23162e-05
0.000127642
0.000184175
0.000242118
0.000302045
0.000365029
0.0004322
0.000505079
0.000585328
0.000674545
0.000774362
0.000885603
0.00100791
0.00114015
0.00128143
0.00143054
0.0015831
0.00173309
0.0018755
0.00200523
0.00211649
0.00220428
0.00226532
0.0022982
0.00230263
0.00228214
0.00224078
0.00218395
0.00211809
0.0020492
0.00198255
0.00192263
0.00187275
0.00183517
0.00181151
0.00180248
0.00180455
0.00180892
-0.000343255
-0.00035801
-0.000385008
-0.000415729
-0.000441986
-0.000462936
-0.000479603
-0.000492853
-0.000503318
-0.000511498
-0.000517793
-0.000522524
-0.000525957
-0.000528313
-0.00052978
-0.000530526
-0.000530697
-0.000530424
-0.000529822
-0.000528987
-0.000527993
-0.000526879
-0.000525645
-0.000524236
-0.00052253
-0.000520325
-0.000517333
-0.000513183
-0.000507423
-0.000499549
-0.000489033
-0.000475366
-0.000458111
-0.000436953
-0.000411746
-0.000382555
-0.000349681
-0.000313662
-0.000275253
-0.00023537
-0.000195006
-0.000155119
-0.000116506
-7.96725e-05
-4.47282e-05
-1.12659e-05
2.17165e-05
5.54277e-05
9.17251e-05
0.000133871
0.000184806
0.000247307
0.00032404
0.000417461
0.000529
0.000659025
0.00080738
0.000972929
0.0011518
0.00133762
0.00152365
0.00170274
0.00186733
0.00200911
0.00212154
0.00219883
0.00223875
0.00224419
0.00221825
0.00216768
0.0021013
0.00202753
0.00195345
0.00188501
0.00182686
0.00178236
0.0017538
0.00174257
0.00174486
0.00175053
-0.000406152
-0.000420934
-0.000448134
-0.00047929
-0.000506185
-0.000527928
-0.000545505
-0.00055976
-0.00057132
-0.00058068
-0.000588242
-0.00059433
-0.000599215
-0.000603125
-0.000606259
-0.000608792
-0.000610883
-0.000612674
-0.000614289
-0.000615836
-0.000617393
-0.000619004
-0.000620663
-0.000622304
-0.000623786
-0.000624877
-0.000625259
-0.000624522
-0.000622185
-0.000617723
-0.000610614
-0.000600389
-0.000586694
-0.000569356
-0.000548439
-0.000524291
-0.000497575
-0.000469267
-0.000440619
-0.000413087
-0.000388212
-0.000367473
-0.000352116
-0.000342989
-0.000340381
-0.00034388
-0.000352081
-0.000362807
-0.000373157
-0.000378925
-0.0003755
-0.000357428
-0.000320418
-0.000259469
-0.00017114
-5.33271e-05
9.58192e-05
0.000276268
0.000483999
0.000712215
0.000952654
0.00119582
0.00143208
0.00165131
0.00184138
0.00199182
0.00209682
0.0021535
0.00216362
0.00213442
0.00207673
0.00200277
0.00192313
0.00184644
0.00177931
0.00172653
0.00169167
0.00167695
0.00167857
0.00168505
-0.000473444
-0.000488206
-0.000515509
-0.000546991
-0.000574439
-0.000596913
-0.000615361
-0.000630607
-0.000643267
-0.000653835
-0.000662712
-0.000670226
-0.000676654
-0.00068223
-0.000687163
-0.000691639
-0.000695828
-0.000699884
-0.000703944
-0.000708122
-0.000712506
-0.00071714
-0.000722014
-0.000727052
-0.00073209
-0.000736874
-0.000741053
-0.00074419
-0.000745787
-0.000745322
-0.000742305
-0.000736346
-0.000727232
-0.000714999
-0.00070001
-0.000683005
-0.000665137
-0.000647971
-0.000633425
-0.000623677
-0.000621012
-0.000627619
-0.00064538
-0.000675634
-0.000718961
-0.00077497
-0.000842076
-0.000916568
-0.000993779
-0.0010684
-0.00113351
-0.00118173
-0.00120339
-0.00119189
-0.00114174
-0.00104876
-0.000909275
-0.0007213
-0.00048788
-0.000215951
8.58793e-05
0.000407668
0.000738529
0.00106254
0.0013584
0.00161468
0.00182026
0.00196632
0.00204763
0.00206647
0.00203576
0.00197222
0.00189178
0.00180815
0.00173151
0.00166901
0.00162591
0.00160584
0.00160547
0.00161215
-0.000544946
-0.00055964
-0.000586953
-0.000618658
-0.000646575
-0.000669721
-0.000689005
-0.000705228
-0.000718997
-0.000730801
-0.000741043
-0.000750053
-0.000758113
-0.000765468
-0.000772335
-0.000778912
-0.000785381
-0.000791908
-0.000798642
-0.000805709
-0.000813202
-0.000821169
-0.000829595
-0.000838393
-0.000847382
-0.000856287
-0.000864734
-0.000872272
-0.000878403
-0.000882634
-0.000884547
-0.000883882
-0.000880629
-0.00087512
-0.000868118
-0.000860885
-0.000855219
-0.000853441
-0.000858336
-0.000873017
-0.000900736
-0.00094463
-0.00100745
-0.00109126
-0.00119715
-0.0013239
-0.00146941
-0.00163009
-0.00179771
-0.00196347
-0.00211856
-0.00225174
-0.00235102
-0.00240613
-0.00240973
-0.00235654
-0.00224142
-0.00206087
-0.00181547
-0.00150957
-0.00114899
-0.000740103
-0.000292764
0.000159365
0.000593186
0.000995144
0.00134335
0.00162263
0.00181915
0.00192852
0.00195763
0.00192599
0.0018566
0.00177062
0.00168504
0.00161144
0.00155732
0.00152959
0.00152545
0.0015315
-0.000620456
-0.000635035
-0.000662267
-0.000694093
-0.000722399
-0.000746163
-0.000766249
-0.000783437
-0.000798324
-0.000811394
-0.000823049
-0.000833625
-0.000843409
-0.000852656
-0.000861591
-0.000870426
-0.000879356
-0.000888561
-0.000898202
-0.000908418
-0.000919308
-0.000930924
-0.000943249
-0.000956187
-0.000969546
-0.000983034
-0.000996269
-0.0010088
-0.00102016
-0.00102991
-0.00103775
-0.00104362
-0.00104778
-0.00105095
-0.00105442
-0.00106012
-0.00107065
-0.00108929
-0.00111991
-0.00116678
-0.0012344
-0.00132712
-0.00144886
-0.00160246
-0.00178839
-0.00200642
-0.00225309
-0.00252065
-0.00279897
-0.00307658
-0.00334063
-0.00357628
-0.00376836
-0.00390528
-0.00397722
-0.00397532
-0.00389277
-0.00372711
-0.00347716
-0.00314252
-0.00272602
-0.00223373
-0.00169766
-0.00113118
-0.000535304
5.4056e-05
0.0005907
0.0010512
0.00141312
0.0016655
0.001804
0.00184247
0.00180762
0.00173116
0.00164032
0.00155475
0.00148761
0.00144868
0.00143831
0.00144253
-0.00069975
-0.000714169
-0.000741231
-0.000773079
-0.000801698
-0.000826025
-0.000846883
-0.000865025
-0.000881038
-0.000895402
-0.000908519
-0.00092073
-0.000932328
-0.000943576
-0.000954713
-0.000965961
-0.000977532
-0.000989619
-0.0010024
-0.00101602
-0.0010306
-0.00104618
-0.00106276
-0.00108023
-0.0010984
-0.00111696
-0.00113555
-0.00115374
-0.0011711
-0.00118732
-0.00120226
-0.0012161
-0.00122948
-0.00124361
-0.00126044
-0.0012827
-0.001314
-0.00135876
-0.00142215
-0.0015099
-0.00162799
-0.00178229
-0.00197781
-0.00221767
-0.00250358
-0.00283321
-0.00319905
-0.00359093
-0.00399668
-0.00440006
-0.00478255
-0.00512618
-0.00541414
-0.00563024
-0.0057646
-0.0058073
-0.00575459
-0.00560517
-0.00535685
-0.00500825
-0.00456219
-0.00403024
-0.00341804
-0.00272893
-0.00199026
-0.00123732
-0.000498977
0.000181407
0.000760955
0.00121491
0.00152291
0.00168571
0.00172554
0.00168134
0.00159501
0.00149968
0.00141719
0.00136313
0.00134346
0.00134416
-0.000782589
-0.000796803
-0.000823606
-0.000855382
-0.000884238
-0.000909076
-0.000930674
-0.000949759
-0.000966907
-0.000982593
-0.00099722
-0.00101113
-0.00102463
-0.00103798
-0.00105145
-0.00106526
-0.00107965
-0.00109482
-0.00111096
-0.00112825
-0.00114679
-0.00116666
-0.00118785
-0.00121025
-0.00123368
-0.00125785
-0.0012824
-0.00130696
-0.0013312
-0.00135494
-0.00137828
-0.00140172
-0.00142635
-0.001454
-0.00148739
-0.00153021
-0.00158725
-0.00166429
-0.00176803
-0.00190583
-0.00208546
-0.00231442
-0.00259876
-0.00294231
-0.00334473
-0.00380026
-0.0043001
-0.00482984
-0.00536981
-0.00589877
-0.00639435
-0.00683542
-0.00720321
-0.00748421
-0.00767191
-0.00775216
-0.00772172
-0.00758044
-0.00732763
-0.00696516
-0.00649956
-0.00594131
-0.00528151
-0.00452212
-0.00368893
-0.00280809
-0.00189919
-0.00101436
-0.00018838
0.000514457
0.0010528
0.00140481
0.00157645
0.00160388
0.00154202
0.00144369
0.00134543
0.00127233
0.00123946
0.00123432
-0.000868713
-0.000882682
-0.000909138
-0.000940748
-0.000969766
-0.000995064
-0.00101737
-0.00103739
-0.00105568
-0.00107271
-0.00108889
-0.00110456
-0.00112004
-0.0011356
-0.00115152
-0.00116804
-0.0011854
-0.00120385
-0.00122357
-0.00124476
-0.00126755
-0.00129202
-0.00131816
-0.0013459
-0.00137506
-0.00140537
-0.00143652
-0.00146823
-0.00150028
-0.00153269
-0.00156585
-0.00160065
-0.00163874
-0.00168264
-0.00173597
-0.00180356
-0.00189152
-0.00200718
-0.00215888
-0.00235581
-0.002608
-0.00292463
-0.00331156
-0.00377186
-0.0043027
-0.00489621
-0.00553773
-0.00620615
-0.00687602
-0.00752053
-0.00811445
-0.00863578
-0.00906766
-0.00939379
-0.00962087
-0.00972834
-0.00971671
-0.00958648
-0.00933794
-0.00897253
-0.00849235
-0.00789862
-0.00719917
-0.00640224
-0.00551808
-0.00455767
-0.00353139
-0.00247274
-0.0014319
-0.000475738
0.000333449
0.000937698
0.00131128
0.00146899
0.00146721
0.00138074
0.00126936
0.00117409
0.00112421
0.00110958
-0.000957846
-0.000971526
-0.000997555
-0.00102891
-0.00105801
-0.00108372
-0.0011067
-0.00112764
-0.00114707
-0.00116547
-0.00118324
-0.00120073
-0.00121826
-0.00123613
-0.0012546
-0.00127396
-0.00129446
-0.00131635
-0.00133986
-0.00136518
-0.00139248
-0.00142184
-0.00145329
-0.00148676
-0.0015221
-0.0015591
-0.00159752
-0.00163717
-0.00167801
-0.0017203
-0.00176477
-0.00181278
-0.00186659
-0.00192954
-0.00200625
-0.00210279
-0.00222675
-0.00238712
-0.00259393
-0.00285868
-0.00319416
-0.00360854
-0.0041082
-0.00469476
-0.00536217
-0.00609713
-0.00687803
-0.00767662
-0.00846195
-0.00920377
-0.00987564
-0.0104572
-0.0109359
-0.0113059
-0.0115432
-0.0116623
-0.01166
-0.0115367
-0.0112937
-0.0109329
-0.0104556
-0.00986224
-0.00915567
-0.0083392
-0.00741584
-0.00638957
-0.00528499
-0.00411579
-0.00291349
-0.0017372
-0.000663616
0.00022982
0.000872321
0.00123396
0.00134924
0.00130132
0.00118392
0.00106599
0.000993072
0.000964456
-0.0010497
-0.00106304
-0.00108857
-0.00111957
-0.0011487
-0.00117476
-0.00119838
-0.00122022
-0.0012408
-0.00126058
-0.00127997
-0.00129933
-0.00131898
-0.00133922
-0.00136036
-0.00138267
-0.00140644
-0.00143193
-0.0014594
-0.00148907
-0.00152111
-0.00155565
-0.00159272
-0.0016323
-0.00167429
-0.00171852
-0.00176486
-0.00181326
-0.00186389
-0.00191728
-0.00197455
-0.0020376
-0.00210938
-0.0021941
-0.00229747
-0.00242689
-0.00259151
-0.00280196
-0.00307016
-0.00341117
-0.00383697
-0.00435621
-0.0049758
-0.00569314
-0.00649794
-0.00736978
-0.00827923
-0.00919174
-0.010072
-0.0108884
-0.0116156
-0.0122364
-0.0127405
-0.0131213
-0.0133714
-0.0134947
-0.0134933
-0.01337
-0.0131276
-0.012769
-0.0122962
-0.0117103
-0.0110122
-0.0102018
-0.00927788
-0.00824068
-0.00709612
-0.00585531
-0.00454883
-0.00321259
-0.00191154
-0.000738257
0.000210219
0.000847584
0.00115339
0.0011925
0.00108381
0.00094209
0.000839651
0.000791726
-0.00114396
-0.00115693
-0.00118188
-0.00121245
-0.00124151
-0.00126787
-0.0012921
-0.00131482
-0.00133654
-0.00135772
-0.00137875
-0.00140001
-0.00142183
-0.00144452
-0.0014684
-0.00149376
-0.00152092
-0.00155015
-0.00158174
-0.00161594
-0.00165294
-0.0016929
-0.0017359
-0.00178194
-0.00183099
-0.00188298
-0.00193788
-0.00199581
-0.00205718
-0.00212285
-0.00219437
-0.00227421
-0.00236605
-0.00247503
-0.00260799
-0.00277371
-0.00298284
-0.00324759
-0.00358303
-0.00400542
-0.00452538
-0.00515461
-0.00589585
-0.00674281
-0.00767909
-0.00867626
-0.00969778
-0.0107039
-0.0116571
-0.0125262
-0.0132893
-0.0139325
-0.0144473
-0.0148297
-0.0150787
-0.0151974
-0.0151899
-0.0150607
-0.0148143
-0.0144548
-0.0139852
-0.0134073
-0.0127214
-0.011926
-0.0110183
-0.00999524
-0.0088551
-0.0076002
-0.00624296
-0.0048081
-0.00334588
-0.00193835
-0.000696547
0.000258493
0.000831947
0.00102723
0.000962784
0.000797782
0.000654195
0.000583485
-0.00124032
-0.00125287
-0.00127717
-0.00130722