/*--------------------------------*- C++ -*----------------------------------*\
  =========                 |
  \\      /  F ield         | OpenFOAM: The Open Source CFD Toolbox
   \\    /   O peration     | Website:  https://openfoam.org
    \\  /    A nd           | Version:  13
     \\/     M anipulation  |
\*---------------------------------------------------------------------------*/
FoamFile
{
    format      ascii;
    class       surfaceScalarField;
    location    "1";
    object      phi;
}
// * * * * * * * * * * * * * * * * * * * * * * * * * * * * * * * * * * * * * //

dimensions      [0 3 -1 0 0 0 0];

internalField   nonuniform List<scalar> 
12640
(
1.12272e-09
-1.12263e-09
2.20037e-09
-1.07765e-09
2.26648e-09
-6.61114e-11
1.0893e-09
1.17717e-09
-1.17341e-09
2.26271e-09
-4.27691e-09
3.10349e-09
-7.99263e-09
3.71572e-09
-1.21353e-08
4.14265e-09
-1.65687e-08
4.43342e-09
-2.11979e-08
4.62918e-09
-2.59574e-08
4.75947e-09
-3.08021e-08
4.84478e-09
-3.57013e-08
4.8992e-09
-4.06339e-08
4.93255e-09
-4.55857e-08
4.95178e-09
-5.05476e-08
4.96198e-09
-5.55145e-08
4.96689e-09
-6.04838e-08
4.96929e-09
-6.54551e-08
4.97123e-09
-7.04292e-08
4.97417e-09
-7.54083e-08
4.97906e-09
-8.03947e-08
4.98638e-09
-8.53908e-08
4.99611e-09
-9.03985e-08
5.00773e-09
-9.54187e-08
5.02021e-09
-1.00451e-07
5.03202e-09
-1.05492e-07
5.04106e-09
-1.10536e-07
5.04462e-09
-1.15576e-07
5.03934e-09
-1.20597e-07
5.02127e-09
-1.25583e-07
4.98581e-09
-1.30511e-07
4.9278e-09
-1.35352e-07
4.8416e-09
-1.40073e-07
4.72117e-09
-1.44634e-07
4.56029e-09
-1.48986e-07
4.35276e-09
-1.53079e-07
4.09263e-09
-1.56854e-07
3.77458e-09
-1.60248e-07
3.39431e-09
-1.63197e-07
2.94895e-09
-1.65634e-07
2.4369e-09
-1.67489e-07
1.85505e-09
-1.68691e-07
1.20169e-09
-1.69206e-07
5.15187e-10
-1.69004e-07
-2.02147e-10
-1.67992e-07
-1.01177e-09
-1.66159e-07
-1.83295e-09
-1.63492e-07
-2.66686e-09
-1.5999e-07
-3.50218e-09
-1.55662e-07
-4.32834e-09
-1.50528e-07
-5.13335e-09
-1.44631e-07
-5.89692e-09
-1.38025e-07
-6.60604e-09
-1.30769e-07
-7.25575e-09
-1.22942e-07
-7.82716e-09
-1.14634e-07
-8.30832e-09
-1.0594e-07
-8.69368e-09
-9.6963e-08
-8.9773e-09
-8.78074e-08
-9.15559e-09
-7.85803e-08
-9.2271e-09
-6.9388e-08
-9.19233e-09
-6.03349e-08
-9.05307e-09
-5.15221e-08
-8.81278e-09
-4.304e-08
-8.48217e-09
-3.49676e-08
-8.07241e-09
-2.73779e-08
-7.5897e-09
-2.03376e-08
-7.04028e-09
-1.39079e-08
-6.42974e-09
-8.14597e-09
-5.76188e-09
-3.10862e-09
-5.03735e-09
1.14746e-09
-4.25608e-09
4.57024e-09
-3.42278e-09
7.07802e-09
-2.50779e-09
8.58714e-09
-1.50912e-09
9.03117e-09
-4.44025e-10
8.35299e-09
6.78178e-10
6.62147e-09
1.73152e-09
4.10702e-09
2.51445e-09
1.49818e-09
2.60883e-09
1.49818e-09
1.09433e-09
-2.21696e-09
1.36854e-09
-1.35187e-09
-5.16018e-10
1.81845e-09
-4.66899e-09
5.33014e-09
-1.07685e-08
8.36222e-09
-1.83591e-08
1.06941e-08
-2.70336e-08
1.23902e-08
-3.64804e-08
1.35894e-08
-4.64709e-08
1.44239e-08
-5.6839e-08
1.49973e-08
-6.74653e-08
1.53858e-08
-7.82645e-08
1.5644e-08
-8.91757e-08
1.58104e-08
-1.00155e-07
1.59121e-08
-1.11172e-07
1.59685e-08
-1.22203e-07
1.59934e-08
-1.33233e-07
1.59969e-08
-1.4425e-07
1.59862e-08
-1.55245e-07
1.59663e-08
-1.66212e-07
1.59403e-08
-1.77142e-07
1.59098e-08
-1.88031e-07
1.58748e-08
-1.98869e-07
1.58341e-08
-2.09646e-07
1.57849e-08
-2.20348e-07
1.57228e-08
-2.30959e-07
1.56423e-08
-2.41454e-07
1.5536e-08
-2.51804e-07
1.53951e-08
-2.61974e-07
1.52094e-08
-2.7192e-07
1.49671e-08
-2.81589e-07
1.46552e-08
-2.90921e-07
1.42598e-08
-2.99846e-07
1.37664e-08
-3.08286e-07
1.31606e-08
-3.16154e-07
1.24285e-08
-3.23359e-07
1.15575e-08
-3.29803e-07
1.0537e-08
-3.35388e-07
9.35953e-09
-3.40015e-07
8.02127e-09
-3.43589e-07
6.52273e-09
-3.46021e-07
4.86884e-09
-3.47234e-07
3.06853e-09
-3.47165e-07
1.13274e-09
-3.45745e-07
-9.05367e-10
-3.42936e-07
-3.01069e-09
-3.3875e-07
-5.19745e-09
-3.33166e-07
-7.41765e-09
-3.26199e-07
-9.63389e-09
-3.17885e-07
-1.18154e-08
-3.08281e-07
-1.39331e-08
-2.97456e-07
-1.59576e-08
-2.855e-07
-1.78537e-08
-2.72506e-07
-1.95997e-08
-2.58586e-07
-2.11759e-08
-2.43866e-07
-2.25468e-08
-2.28482e-07
-2.36931e-08
-2.12572e-07
-2.4603e-08
-1.96284e-07
-2.5266e-08
-1.79763e-07
-2.56761e-08
-1.63159e-07
-2.58314e-08
-1.46616e-07
-2.57348e-08
-1.30276e-07
-2.53931e-08
-1.14272e-07
-2.4817e-08
-9.8735e-08
-2.40191e-08
-8.37911e-08
-2.30163e-08
-6.95552e-08
-2.18256e-08
-5.6133e-08
-2.04625e-08
-4.36234e-08
-1.89393e-08
-3.21217e-08
-1.72636e-08
-2.17233e-08
-1.54358e-08
-1.25315e-08
-1.34479e-08
-4.67115e-09
-1.12831e-08
1.72754e-09
-8.90648e-09
6.51333e-09
-6.29492e-09
9.48582e-09
-3.41651e-09
1.04893e-08
-3.25338e-10
9.40671e-09
2.81414e-09
6.47232e-09
5.44883e-09
2.58586e-09
6.4953e-09
4.08404e-09
5.39647e-11
-2.27093e-09
-1.87905e-09
5.8114e-10
-6.42508e-09
6.36448e-09
-1.32668e-08
1.21718e-08
-2.19049e-08
1.70004e-08
-3.19252e-08
2.07144e-08
-4.2997e-08
2.3462e-08
-5.48589e-08
2.54513e-08
-6.73067e-08
2.68717e-08
-8.01834e-08
2.7874e-08
-9.337e-08
2.85725e-08
-1.06777e-07
2.90509e-08
-1.20337e-07
2.93701e-08
-1.33998e-07
2.95739e-08
-1.47724e-07
2.96935e-08
-1.61482e-07
2.97518e-08
-1.7525e-07
2.97647e-08
-1.89007e-07
2.97434e-08
-2.02736e-07
2.96951e-08
-2.16419e-07
2.96239e-08
-2.3004e-07
2.9531e-08
-2.43581e-07
2.9415e-08
-2.57019e-07
2.9272e-08
-2.70329e-07
2.90957e-08
-2.83484e-07
2.88772e-08
-2.96447e-07
2.86051e-08
-3.09177e-07
2.82659e-08
-3.21625e-07
2.78434e-08
-3.33735e-07
2.73195e-08
-3.45442e-07
2.66741e-08
-3.56673e-07
2.58858e-08
-3.67345e-07
2.49326e-08
-3.77372e-07
2.37926e-08
-3.86656e-07
2.2445e-08
-3.95099e-07
2.08716e-08
-4.02599e-07
1.90573e-08
-4.09054e-07
1.69921e-08
-4.14366e-07
1.46715e-08
-4.18443e-07
1.20978e-08
-4.212e-07
9.28039e-09
-4.22568e-07
6.23643e-09
-4.22489e-07
2.98965e-09
-4.20911e-07
-4.45561e-10
-4.17826e-07
-3.98949e-09
-4.13198e-07
-7.63893e-09
-4.07047e-07
-1.13482e-08
-3.99397e-07
-1.50681e-08
-3.90283e-07
-1.87479e-08
-3.79759e-07
-2.23399e-08
-3.67894e-07
-2.57976e-08
-3.54776e-07
-2.90759e-08
-3.405e-07
-3.21294e-08
-3.25173e-07
-3.4927e-08
-3.08916e-07
-3.74328e-08
-2.91863e-07
-3.95998e-08
-2.74153e-07
-4.1403e-08
-2.55931e-07
-4.28244e-08
-2.37348e-07
-4.38496e-08
-2.18553e-07
-4.44703e-08
-1.99701e-07
-4.46844e-08
-1.80939e-07
-4.44966e-08
-1.62414e-07
-4.39177e-08
-1.44267e-07
-4.2964e-08
-1.2663e-07
-4.16559e-08
-1.09629e-07
-4.00177e-08
-9.33793e-08
-3.80753e-08
-7.79883e-08
-3.58535e-08
-6.35547e-08
-3.33729e-08
-5.01713e-08
-3.0647e-08
-3.7928e-08
-2.76791e-08
-2.69165e-08
-2.44594e-08
-1.72369e-08
-2.09627e-08
-8.99816e-09
-1.71452e-08
-2.33596e-09
-1.29571e-08
2.60381e-09
-8.35628e-09
5.63996e-09
-3.3615e-09
6.60449e-09
1.84961e-09
5.38959e-09
6.66373e-09
2.44331e-09
9.44157e-09
6.52735e-09
-1.31687e-09
-9.54053e-10
-5.67505e-09
4.93931e-09
-1.26316e-08
1.33211e-08
-2.14343e-08
2.09745e-08
-3.16415e-08
2.72076e-08
-4.29724e-08
3.20453e-08
-5.5211e-08
3.57006e-08
-6.81757e-08
3.84159e-08
-8.17122e-08
4.04082e-08
-9.56923e-08
4.18541e-08
-1.10011e-07
4.28916e-08
-1.24586e-07
4.36253e-08
-1.39348e-07
4.41327e-08
-1.54246e-07
4.44717e-08
-1.69237e-07
4.46841e-08
-1.84285e-07
4.48e-08
-1.99361e-07
4.48406e-08
-2.14438e-07
4.48205e-08
-2.29491e-07
4.47484e-08
-2.44496e-07
4.46288e-08
-2.59427e-07
4.44617e-08
-2.74255e-07
4.42435e-08
-2.88951e-07
4.39672e-08
-3.03477e-07
4.36221e-08
-3.17794e-07
4.31941e-08
-3.31855e-07
4.26658e-08
-3.45606e-07
4.20167e-08
-3.58985e-07
4.12233e-08
-3.71926e-07
4.02597e-08
-3.84349e-07
3.90979e-08
-3.96173e-07
3.77093e-08
-4.07305e-07
3.6065e-08
-4.17651e-07
3.41378e-08
-4.27108e-07
3.1903e-08
-4.35578e-07
2.93407e-08
-4.42957e-07
2.6437e-08
-4.4915e-07
2.31852e-08
-4.54066e-07
1.95874e-08
-4.57623e-07
1.56546e-08
-4.5975e-07
1.14076e-08
-4.6039e-07
6.87614e-09
-4.59498e-07
2.09717e-09
-4.57059e-07
-2.88465e-09
-4.53037e-07
-8.01072e-09
-4.47444e-07
-1.32327e-08
-4.40298e-07
-1.84943e-08
-4.31633e-07
-2.37328e-08
-4.21496e-07
-2.88849e-08
-4.09947e-07
-3.38886e-08
-3.97061e-07
-3.86836e-08
-3.82926e-07
-4.32112e-08
-3.67639e-07
-4.74161e-08
-3.5131e-07
-5.1256e-08
-3.34063e-07
-5.46804e-08
-3.1603e-07
-5.7632e-08
-2.97354e-07
-6.00798e-08
-2.78179e-07
-6.19992e-08
-2.58657e-07
-6.33711e-08
-2.38943e-07
-6.41848e-08
-2.1919e-07
-6.44375e-08
-1.99551e-07
-6.41355e-08
-1.80175e-07
-6.32934e-08
-1.61206e-07
-6.19334e-08
-1.42778e-07
-6.0084e-08
-1.25017e-07
-5.77788e-08
-1.08038e-07
-5.5054e-08
-9.19465e-08
-5.1945e-08
-7.68362e-08
-4.84832e-08
-6.27912e-08
-4.46919e-08
-4.98881e-08
-4.05823e-08
-3.81979e-08
-3.61497e-08
-2.77898e-08
-3.13708e-08
-1.8733e-08
-2.6202e-08
-1.11028e-08
-2.05874e-08
-4.98572e-09
-1.44733e-08
-4.94304e-10
-7.85291e-09
2.22327e-09
-8.67965e-10
2.95598e-09
5.93102e-09
1.68904e-09
1.07085e-08
8.21639e-09
-2.63202e-09
1.67797e-09
-9.17209e-09
1.14794e-08
-1.80672e-08
2.22161e-08
-2.83736e-08
3.12809e-08
-3.9723e-08
3.8557e-08
-5.19419e-08
4.42643e-08
-6.49067e-08
4.86653e-08
-7.85049e-08
5.20142e-08
-9.26312e-08
5.45345e-08
-1.0719e-07
5.64124e-08
-1.22095e-07
5.77974e-08
-1.37276e-07
5.8806e-08
-1.52671e-07
5.95273e-08
-1.68228e-07
6.00285e-08
-1.83903e-07
6.03592e-08
-1.99658e-07
6.05555e-08
-2.1546e-07
6.06428e-08
-2.31278e-07
6.06379e-08
-2.4708e-07
6.0551e-08
-2.62838e-07
6.03861e-08
-2.78518e-07
6.01416e-08
-2.94086e-07
5.98114e-08
-3.09503e-07
5.93847e-08
-3.24727e-07
5.88463e-08
-3.3971e-07
5.81765e-08
-3.54396e-07
5.73517e-08
-3.68723e-07
5.63444e-08
-3.82624e-07
5.51239e-08
-3.96021e-07
5.3657e-08
-4.08832e-07
5.19088e-08
-4.20967e-07
4.9844e-08
-4.3233e-07
4.74283e-08
-4.42822e-07
4.46304e-08
-4.52344e-07
4.14241e-08
-4.60792e-07
3.77896e-08
-4.68071e-07
3.37159e-08
-4.74088e-07
2.92022e-08
-4.78759e-07
2.42582e-08
-4.8201e-07
1.89054e-08
-4.83778e-07
1.31762e-08
-4.84016e-07
7.11347e-09
-4.82687e-07
7.68611e-10
-4.79774e-07
-5.7983e-09
-4.75263e-07
-1.25212e-08
-4.69164e-07
-1.93317e-08
-4.615e-07
-2.61583e-08
-4.52307e-07
-3.29257e-08
-4.41634e-07
-3.95582e-08
-4.29542e-07
-4.59807e-08
-4.16105e-07
-5.21202e-08
-4.01411e-07
-5.79055e-08
-3.85556e-07
-6.32711e-08
-3.6865e-07
-6.81618e-08
-3.50818e-07
-7.25122e-08
-3.32194e-07
-7.62558e-08
-3.1292e-07
-7.93536e-08
-2.93147e-07
-8.17731e-08
-2.73028e-07
-8.34899e-08
-2.52723e-07
-8.44896e-08
-2.32392e-07
-8.47684e-08
-2.12194e-07
-8.43337e-08
-1.92283e-07
-8.3204e-08
-1.72809e-07
-8.14078e-08
-1.5391e-07
-7.89827e-08
-1.35716e-07
-7.59732e-08
-1.18342e-07
-7.24277e-08
-1.01892e-07
-6.83954e-08
-8.64531e-08
-6.39217e-08
-7.21013e-08
-5.90437e-08
-5.88978e-08
-5.37857e-08
-4.68923e-08
-4.81552e-08
-3.61242e-08
-4.21389e-08
-2.66241e-08
-3.5702e-08
-1.84183e-08
-2.87932e-08
-1.15345e-08
-2.13572e-08
-6.01797e-09
-1.33694e-08
-1.96968e-09
-4.91626e-09
3.92617e-10
3.56872e-09
8.08131e-10
1.0293e-08
9.02452e-09
-3.77114e-09
5.44911e-09
-1.20809e-08
1.97891e-08
-2.2516e-08
3.26512e-08
-3.40317e-08
4.27967e-08
-4.63087e-08
5.08341e-08
-5.92382e-08
5.71937e-08
-7.27577e-08
6.21849e-08
-8.6808e-08
6.60645e-08
-1.01325e-07
6.90519e-08
-1.16245e-07
7.13317e-08
-1.31503e-07
7.30555e-08
-1.47041e-07
7.43443e-08
-1.62807e-07
7.5293e-08
-1.78752e-07
7.59742e-08
-1.94836e-07
7.64426e-08
-2.11018e-07
7.67382e-08
-2.27265e-07
7.68894e-08
-2.43542e-07
7.69147e-08
-2.59815e-07
7.68242e-08
-2.7605e-07
7.66213e-08
-2.92211e-07
7.63026e-08
-3.08259e-07
7.58589e-08
-3.24149e-07
7.52755e-08
-3.39835e-07
7.45323e-08
-3.55263e-07
7.36041e-08
-3.70372e-07
7.24609e-08
-3.85096e-07
7.10685e-08
-3.99361e-07
6.9389e-08
-4.13087e-07
6.73822e-08
-4.26184e-07
6.50065e-08
-4.38561e-07
6.22208e-08
-4.50119e-07
5.89863e-08
-4.60758e-07
5.5269e-08
-4.70375e-07
5.10418e-08
-4.78873e-07
4.62869e-08
-4.86155e-07
4.09977e-08
-4.92132e-07
3.51796e-08
-4.96725e-07
2.88515e-08
-4.99865e-07
2.20452e-08
-5.01494e-07
1.48048e-08
-5.01566e-07
7.18585e-09
-5.00051e-07
-7.46854e-10
-4.96929e-07
-8.92033e-09
-4.92194e-07
-1.72558e-08
-4.85855e-07
-2.56708e-08
-4.77933e-07
-3.408e-08
-4.68463e-07
-4.23956e-08
-4.57492e-07
-5.05295e-08
-4.45078e-07
-5.83944e-08
-4.31294e-07
-6.59045e-08
-4.16223e-07
-7.29762e-08
-3.99961e-07
-7.95333e-08
-3.82617e-07
-8.55061e-08
-3.64317e-07
-9.08125e-08
-3.45195e-07
-9.53772e-08
-3.25399e-07
-9.91502e-08
-3.05082e-07
-1.02089e-07
-2.84408e-07
-1.04164e-07
-2.63544e-07
-1.05354e-07
-2.42659e-07
-1.05653e-07
-2.21922e-07
-1.05071e-07
-2.01498e-07
-1.03628e-07
-1.81545e-07
-1.01361e-07
-1.62209e-07
-9.83181e-08
-1.43627e-07
-9.45559e-08
-1.25916e-07
-9.01386e-08
-1.09179e-07
-8.51325e-08
-9.34995e-08
-7.96009e-08
-7.89433e-08
-7.35998e-08
-6.55568e-08
-6.71723e-08
-5.33685e-08
-6.03435e-08
-4.23901e-08
-5.31173e-08
-3.26177e-08
-4.54744e-08
-2.40359e-08
-3.7375e-08
-1.66248e-08
-2.87683e-08
-1.03784e-08
-1.96159e-08
-5.34624e-09
-9.94837e-09
-1.72767e-09
-4.98504e-11
3.88723e-11
8.52645e-09
9.06339e-09
-4.70124e-09
1.01503e-08
-1.43942e-08
2.94821e-08
-2.60464e-08
4.43035e-08
-3.85515e-08
5.53018e-08
-5.16128e-08
6.38954e-08
-6.51535e-08
7.07344e-08
-7.91477e-08
7.6179e-08
-9.35723e-08
8.04891e-08
-1.08396e-07
8.38757e-08
-1.2358e-07
8.6516e-08
-1.39082e-07
8.85573e-08
-1.54858e-07
9.01196e-08
-1.70863e-07
9.12987e-08
-1.87059e-07
9.21695e-08
-2.03405e-07
9.2789e-08
-2.19866e-07
9.31992e-08
-2.36406e-07
9.34298e-08
-2.52992e-07
9.34998e-08
-2.69586e-07
9.34191e-08
-2.86154e-07
9.31894e-08
-3.02657e-07
9.28052e-08
-3.19052e-07
9.22541e-08
-3.35294e-07
9.1517e-08
-3.5133e-07
9.0569e-08
-3.67105e-07
8.9379e-08
-3.82555e-07
8.79105e-08
-3.97609e-07
8.61226e-08
-4.1219e-07
8.39703e-08
-4.26214e-07
8.14062e-08
-4.3959e-07
7.83825e-08
-4.52222e-07
7.48525e-08
-4.6401e-07
7.07738e-08
-4.74851e-07
6.61103e-08
-4.84644e-07
6.08353e-08
-4.93291e-07
5.49335e-08
-5.00696e-07
4.84032e-08
-5.06774e-07
4.12571e-08
-5.11445e-07
3.35229e-08
-5.14643e-07
2.52429e-08
-5.16311e-07
1.64725e-08
-5.16404e-07
7.27929e-09
-5.14891e-07
-2.25955e-09
-5.11753e-07
-1.20588e-08
-5.06981e-07
-2.20274e-08
-5.00582e-07
-3.20701e-08
-4.92573e-07
-4.20892e-08
-4.82984e-07
-5.1985e-08
-4.71856e-07
-6.16573e-08
-4.59244e-07
-7.10063e-08
-4.45215e-07
-7.99337e-08
-4.29848e-07
-8.83431e-08
-4.13235e-07
-9.61458e-08
-3.95485e-07
-1.03256e-07
-3.76723e-07
-1.09575e-07
-3.57086e-07
-1.15014e-07
-3.36726e-07
-1.1951e-07
-3.15805e-07
-1.2301e-07
-2.94497e-07
-1.25472e-07
-2.7298e-07
-1.2687e-07
-2.51439e-07
-1.27195e-07
-2.30056e-07
-1.26454e-07
-2.09011e-07
-1.24673e-07
-1.88477e-07
-1.21895e-07
-1.68613e-07
-1.18182e-07
-1.49565e-07
-1.13605e-07
-1.31456e-07
-1.08247e-07
-1.14391e-07
-1.02197e-07
-9.84513e-08
-9.5541e-08
-8.36926e-08
-8.83586e-08
-7.01476e-08
-8.07173e-08
-5.78249e-08
-7.26662e-08
-4.67103e-08
-6.42319e-08
-3.67689e-08
-5.54157e-08
-2.79499e-08
-4.61941e-08
-2.01946e-08
-3.65235e-08
-1.34576e-08
-2.63529e-08
-7.75119e-09
-1.56548e-08
-3.25401e-09
-4.54702e-09
-5.11318e-10
5.78375e-09
8.55208e-09
-5.43282e-09
1.55832e-08
-1.61909e-08
4.02401e-08
-2.88007e-08
5.69133e-08
-4.21162e-08
6.86173e-08
-5.58451e-08
7.76243e-08
-6.99221e-08
8.48113e-08
-8.43396e-08
9.05966e-08
-9.90974e-08
9.52469e-08
-1.14187e-07
9.89656e-08
-1.29592e-07
1.0192e-07
-1.45285e-07
1.0425e-07
-1.61237e-07
1.06072e-07
-1.77415e-07
1.07477e-07
-1.93787e-07
1.08541e-07
-2.10318e-07
1.0932e-07
-2.26975e-07
1.09857e-07
-2.43727e-07
1.10181e-07
-2.60538e-07
1.10311e-07
-2.77373e-07
1.10255e-07
-2.94198e-07
1.10013e-07
-3.1097e-07
1.09578e-07
-3.27648e-07
1.08932e-07
-3.44184e-07
1.08053e-07
-3.60524e-07
1.06909e-07
-3.76611e-07
1.05465e-07
-3.92377e-07
1.03677e-07
-4.07751e-07
1.01496e-07
-4.22651e-07
9.88711e-08
-4.36992e-07
9.57473e-08
-4.5068e-07
9.20703e-08
-4.63616e-07
8.77887e-08
-4.75699e-07
8.28563e-08
-4.86824e-07
7.72356e-08
-4.9689e-07
7.09009e-08
-5.05796e-07
6.38399e-08
-5.13449e-07
5.60563e-08
-5.19762e-07
4.75701e-08
-5.24657e-07
3.84178e-08
-5.28066e-07
2.86517e-08
-5.29932e-07
1.83381e-08
-5.30208e-07
7.55575e-09
-5.28861e-07
-3.60671e-09
-5.25867e-07
-1.50526e-08
-5.21215e-07
-2.66795e-08
-5.14905e-07
-3.83807e-08
-5.06947e-07
-5.00472e-08
-4.97364e-07
-6.15677e-08
-4.8619e-07
-7.28307e-08
-4.73473e-07
-8.37241e-08
-4.5927e-07
-9.41365e-08
-4.43655e-07
-1.03958e-07
-4.26714e-07
-1.13086e-07
-4.08553e-07
-1.21418e-07
-3.89294e-07
-1.28833e-07
-3.69077e-07
-1.35231e-07
-3.48059e-07
-1.40528e-07
-3.26414e-07
-1.44655e-07
-3.04328e-07
-1.47559e-07
-2.81995e-07
-1.49203e-07
-2.59619e-07
-1.49571e-07
-2.37403e-07
-1.48669e-07
-2.1555e-07
-1.46526e-07
-1.94252e-07
-1.43193e-07
-1.73688e-07
-1.38746e-07
-1.54017e-07
-1.33275e-07
-1.35376e-07
-1.26888e-07
-1.17874e-07
-1.19699e-07
-1.01591e-07
-1.11824e-07
-8.65768e-08
-1.03373e-07
-7.28512e-08
-9.44429e-08
-6.04041e-08
-8.51133e-08
-4.91975e-08
-7.54385e-08
-3.91684e-08
-6.54448e-08
-3.02347e-08
-5.51278e-08
-2.23057e-08
-4.44525e-08
-1.5304e-08
-3.33546e-08
-9.21403e-09
-2.17448e-08
-4.19449e-09
-9.56657e-09
-8.54834e-10
2.4441e-09
7.69724e-09
-5.99635e-09
2.15795e-08
-1.75649e-08
5.18087e-08
-3.09229e-08
7.02713e-08
-4.48979e-08
8.25923e-08
-5.91914e-08
9.19177e-08
-7.37372e-08
9.93571e-08
-8.85347e-08
1.05394e-07
-1.03596e-07
1.10308e-07
-1.18928e-07
1.14298e-07
-1.34529e-07
1.17521e-07
-1.50387e-07
1.20109e-07
-1.66486e-07
1.2217e-07
-1.82803e-07
1.23794e-07
-1.99312e-07
1.2505e-07
-2.15986e-07
1.25994e-07
-2.32797e-07
1.26668e-07
-2.49715e-07
1.27099e-07
-2.66708e-07
1.27304e-07
-2.83744e-07
1.27291e-07
-3.00786e-07
1.27056e-07
-3.17795e-07
1.26587e-07
-3.34729e-07
1.25866e-07
-3.5154e-07
1.24863e-07
-3.68173e-07
1.23543e-07
-3.84569e-07
1.21861e-07
-4.0066e-07
1.19768e-07
-4.16373e-07
1.17209e-07
-4.31625e-07
1.14123e-07
-4.46326e-07
1.10448e-07
-4.60381e-07
1.06125e-07
-4.73689e-07
1.01097e-07
-4.86146e-07
9.53136e-08
-4.97648e-07
8.87371e-08
-5.08089e-07
8.13425e-08
-5.17371e-07
7.31212e-08
-5.25397e-07
6.40823e-08
-5.3208e-07
5.42531e-08
-5.3734e-07
4.36786e-08
-5.41109e-07
3.24206e-08
-5.43327e-07
2.05555e-08
-5.43943e-07
8.17247e-09
-5.42921e-07
-4.6295e-09
-5.4023e-07
-1.77434e-08
-5.35853e-07
-3.10565e-08
-5.29782e-07
-4.4452e-08
-5.22018e-07
-5.78106e-08
-5.12575e-07
-7.10109e-08
-5.01475e-07
-8.39304e-08
-4.88754e-07
-9.64455e-08
-4.74459e-07
-1.08432e-07
-4.58652e-07
-1.19765e-07
-4.41411e-07
-1.30328e-07
-4.22833e-07
-1.39996e-07
-4.03037e-07
-1.48629e-07
-3.82162e-07
-1.56107e-07
-3.60371e-07
-1.62319e-07
-3.37848e-07
-1.67178e-07
-3.14795e-07
-1.70611e-07
-2.9143e-07
-1.72568e-07
-2.6798e-07
-1.73021e-07
-2.44677e-07
-1.71971e-07
-2.21755e-07
-1.69448e-07
-1.99435e-07
-1.65514e-07
-1.77923e-07
-1.60257e-07
-1.57403e-07
-1.53795e-07
-1.38028e-07
-1.46263e-07
-1.19919e-07
-1.37809e-07
-1.03158e-07
-1.28585e-07
-8.77918e-08
-1.18739e-07
-7.3829e-08
-1.08406e-07
-6.12421e-08
-9.77002e-08
-4.99706e-08
-8.671e-08
-3.99255e-08
-7.54899e-08
-3.09961e-08
-6.40572e-08
-2.30626e-08
-5.2386e-08
-1.60192e-08
-4.03979e-08
-9.82392e-09
-2.79401e-08
-4.61434e-09
-1.47761e-08
-1.00929e-09
-1.16096e-09
6.68795e-09
-6.42318e-09
2.80027e-08
-1.8601e-08
6.39865e-08
-3.25384e-08
8.42087e-08
-4.70444e-08
9.70983e-08
-6.18092e-08
1.06683e-07
-7.67597e-08
1.14308e-07
-9.18948e-08
1.20529e-07
-1.07232e-07
1.25645e-07
-1.22787e-07
1.29853e-07
-1.38569e-07
1.33303e-07
-1.54579e-07
1.36119e-07
-1.7081e-07
1.38401e-07
-1.87247e-07
1.40231e-07
-2.03875e-07
1.41678e-07
-2.20672e-07
1.42791e-07
-2.37615e-07
1.43611e-07
-2.54678e-07
1.44162e-07
-2.71834e-07
1.4446e-07
-2.89051e-07
1.44508e-07
-3.06297e-07
1.44301e-07
-3.23534e-07
1.43824e-07
-3.4072e-07
1.43052e-07
-3.57807e-07
1.41951e-07
-3.74743e-07
1.40478e-07
-3.91467e-07
1.38585e-07
-4.07911e-07
1.36212e-07
-4.23999e-07
1.33297e-07
-4.39647e-07
1.29771e-07
-4.54765e-07
1.25566e-07
-4.69254e-07
1.20614e-07
-4.83011e-07
1.14854e-07
-4.95931e-07
1.08233e-07
-5.07906e-07
1.00712e-07
-5.18832e-07
9.22684e-08
-5.28607e-07
8.28959e-08
-5.37134e-07
7.26097e-08
-5.44325e-07
6.14441e-08
-5.50099e-07
4.94522e-08
-5.54383e-07
3.67046e-08
-5.57114e-07
2.32871e-08
-5.5824e-07
9.29807e-09
-5.57715e-07
-5.15416e-09
-5.55505e-07
-1.99536e-08
-5.51583e-07
-3.49786e-08
-5.45931e-07
-5.0104e-08
-5.38539e-07
-6.5202e-08
-5.29408e-07
-8.01426e-08
-5.18544e-07
-9.47942e-08
-5.05966e-07
-1.09023e-07
-4.91706e-07
-1.22692e-07
-4.75808e-07
-1.35663e-07
-4.58334e-07
-1.47801e-07
-4.39369e-07
-1.58961e-07
-4.1902e-07
-1.68978e-07
-3.9742e-07
-1.77707e-07
-3.74735e-07
-1.85004e-07
-3.51162e-07
-1.90751e-07
-3.26921e-07
-1.94852e-07
-3.02257e-07
-1.97233e-07
-2.77429e-07
-1.97849e-07
-2.52709e-07
-1.96691e-07
-2.28372e-07
-1.93786e-07
-2.04682e-07
-1.89203e-07
-1.81887e-07
-1.83053e-07
-1.60204e-07
-1.75478e-07
-1.39814e-07
-1.66653e-07
-1.20856e-07
-1.56767e-07
-1.03423e-07
-1.46019e-07
-8.75583e-08
-1.34603e-07
-7.32628e-08
-1.22701e-07
-6.04921e-08
-1.10471e-07
-4.91637e-08
-9.80384e-08
-3.91627e-08
-8.54909e-08
-3.03504e-08
-7.28695e-08
-2.2578e-08
-6.01584e-08
-1.57105e-08
-4.72655e-08
-9.67538e-09
-3.39752e-08
-4.57868e-09
-1.98728e-08
-1.00215e-09
-4.73749e-09
5.6858e-09
-6.74076e-09
3.47435e-08
-1.93695e-08
7.66152e-08
-3.37494e-08
9.85886e-08
-4.86766e-08
1.12025e-07
-6.38287e-08
1.21835e-07
-7.91226e-08
1.29602e-07
-9.45527e-08
1.35959e-07
-1.10137e-07
1.41229e-07
-1.25896e-07
1.45612e-07
-1.41848e-07
1.49255e-07
-1.57999e-07
1.5227e-07
-1.74353e-07
1.54754e-07
-1.90903e-07
1.56782e-07
-2.07641e-07
1.58415e-07
-2.24552e-07
1.59702e-07
-2.41619e-07
1.60677e-07
-2.5882e-07
1.61363e-07
-2.76132e-07
1.61772e-07
-2.93528e-07
1.61905e-07
-3.10978e-07
1.61751e-07
-3.28446e-07
1.61293e-07
-3.45894e-07
1.60499e-07
-3.63274e-07
1.59331e-07
-3.80535e-07
1.57739e-07
-3.97616e-07
1.55666e-07
-4.1445e-07
1.53046e-07
-4.30959e-07
1.49806e-07
-4.47059e-07
1.45871e-07
-4.62655e-07
1.41163e-07
-4.7765e-07
1.35609e-07
-4.91938e-07
1.29142e-07
-5.05411e-07
1.21707e-07
-5.17963e-07
1.13264e-07
-5.29487e-07
1.03792e-07
-5.39879e-07
9.32887e-08
-5.49044e-07
8.17747e-08
-5.56891e-07
6.9291e-08
-5.63337e-07
5.58983e-08
-5.68308e-07
4.16755e-08
-5.71738e-07
2.67165e-08
-5.73568e-07
1.1128e-08
-5.73748e-07
-4.97357e-09
-5.72237e-07
-2.14648e-08
-5.68998e-07
-3.82174e-08
-5.64002e-07
-5.50998e-08
-5.57226e-07
-7.19783e-08
-5.48651e-07
-8.87176e-08
-5.38266e-07
-1.0518e-07
-5.26065e-07
-1.21224e-07
-5.12054e-07
-1.36702e-07
-4.96253e-07
-1.51465e-07
-4.78696e-07
-1.65358e-07
-4.59446e-07
-1.78211e-07
-4.38586e-07
-1.89838e-07
-4.16238e-07
-2.00055e-07
-3.92561e-07
-2.08681e-07
-3.67762e-07
-2.15551e-07
-3.42081e-07
-2.20532e-07
-3.15795e-07
-2.23519e-07
-2.89207e-07
-2.24438e-07
-2.62641e-07
-2.23257e-07
-2.3643e-07
-2.19997e-07
-2.10901e-07
-2.14732e-07
-1.86361e-07
-2.07593e-07
-1.63079e-07
-1.9876e-07
-1.4128e-07
-1.88452e-07
-1.21132e-07
-1.76915e-07
-1.02743e-07
-1.64407e-07
-8.6164e-08
-1.51182e-07
-7.13846e-08
-1.37481e-07
-5.8344e-08
-1.23512e-07
-4.69358e-08
-1.09446e-07
-3.70171e-08
-9.54096e-08
-2.84188e-08
-8.14679e-08
-2.09603e-08
-6.76169e-08
-1.44733e-08
-5.37525e-08
-8.84721e-09
-3.96012e-08
-4.13847e-09
-2.45816e-08
-8.54364e-10
-8.0216e-09
4.83144e-09
-6.97186e-09
4.17153e-08
-1.99259e-08
8.95693e-08
-3.46368e-08
1.13299e-07
-4.98914e-08
1.2728e-07
-6.53553e-08
1.37299e-07
-8.09346e-08
1.45181e-07
-9.6617e-08
1.51642e-07
-1.12419e-07
1.57031e-07
-1.28362e-07
1.61556e-07
-1.44469e-07
1.65361e-07
-1.60753e-07
1.68555e-07
-1.77224e-07
1.71225e-07
-1.93883e-07
1.73441e-07
-2.10728e-07
1.7526e-07
-2.27751e-07
1.76725e-07
-2.4494e-07
1.77866e-07
-2.62279e-07
1.78703e-07
-2.7975e-07
1.79243e-07
-2.9733e-07
1.79485e-07
-3.14992e-07
1.79413e-07
-3.32705e-07
1.79005e-07
-3.50431e-07
1.78225e-07
-3.68127e-07
1.77027e-07
-3.85742e-07
1.75354e-07
-4.03217e-07
1.73141e-07
-4.20482e-07
1.70312e-07
-4.37462e-07
1.66786e-07
-4.5407e-07
1.62479e-07
-4.70212e-07
1.57305e-07
-4.85788e-07
1.51184e-07
-5.00691e-07
1.44045e-07
-5.14814e-07
1.3583e-07
-5.2805e-07
1.26499e-07
-5.40291e-07
1.16033e-07
-5.51435e-07
1.04433e-07
-5.61386e-07
9.17259e-08
-5.70054e-07
7.79582e-08
-5.77354e-07
6.31983e-08
-5.83211e-07
4.75325e-08
-5.87556e-07
3.10623e-08
-5.9033e-07
1.39016e-08
-5.91477e-07
-3.82671e-09
-5.90948e-07
-2.19937e-08
-5.88699e-07
-4.04665e-08
-5.84688e-07
-5.91108e-08
-5.78875e-07
-7.77915e-08
-5.7122e-07
-9.63721e-08
-5.61686e-07
-1.14714e-07
-5.50234e-07
-1.32675e-07
-5.36834e-07
-1.50103e-07
-5.21463e-07
-1.66836e-07
-5.04116e-07
-1.82706e-07
-4.84812e-07
-1.97515e-07
-4.63599e-07
-2.1105e-07
-4.40567e-07
-2.23088e-07
-4.15855e-07
-2.33392e-07
-3.89672e-07
-2.41734e-07
-3.6228e-07
-2.47924e-07
-3.33989e-07
-2.5181e-07
-3.05156e-07
-2.5327e-07
-2.76178e-07
-2.52235e-07
-2.4747e-07
-2.48704e-07
-2.19451e-07
-2.42751e-07
-1.92514e-07
-2.3453e-07
-1.67011e-07
-2.24263e-07
-1.43233e-07
-2.12231e-07
-1.21396e-07
-1.98752e-07
-1.01637e-07
-1.84165e-07
-8.40152e-08
-1.68805e-07
-6.85129e-08
-1.52983e-07
-5.50487e-08
-1.36976e-07
-4.34868e-08
-1.21008e-07
-3.36497e-08
-1.05247e-07
-2.53318e-08
-8.97858e-08
-1.83148e-08
-7.46339e-08
-1.239e-08
-5.96773e-08
-7.39887e-09
-4.45923e-08
-3.33045e-09
-2.865e-08
-5.79348e-10
-1.07727e-08
4.25209e-09
-7.13496e-09
4.88503e-08
-2.03131e-08
1.02747e-07
-3.52629e-08
1.28249e-07
-5.0765e-08
1.42782e-07
-6.64733e-08
1.53007e-07
-8.22836e-08
1.60991e-07
-9.81764e-08
1.67535e-07
-1.14164e-07
1.73019e-07
-1.3027e-07
1.77662e-07
-1.46517e-07
1.81608e-07
-1.62924e-07
1.84962e-07
-1.79506e-07
1.87807e-07
-1.96271e-07
1.90206e-07
-2.13221e-07
1.92211e-07
-2.30356e-07
1.9386e-07
-2.47669e-07
1.95179e-07
-2.65151e-07
1.96185e-07
-2.82788e-07
1.9688e-07
-3.00561e-07
1.97258e-07
-3.18448e-07
1.97301e-07
-3.36422e-07
1.96979e-07
-3.54449e-07
1.96252e-07
-3.72487e-07
1.95065e-07
-3.90487e-07
1.93355e-07
-4.08392e-07
1.91046e-07
-4.26134e-07
1.88054e-07
-4.43635e-07
1.84288e-07
-4.6081e-07
1.79654e-07
-4.77564e-07
1.74059e-07
-4.93797e-07
1.67417e-07
-5.09403e-07
1.59651e-07
-5.24276e-07
1.50703e-07
-5.38309e-07
1.40532e-07
-5.51397e-07
1.29121e-07
-5.6344e-07
1.16477e-07
-5.74344e-07
1.0263e-07
-5.8402e-07
8.76342e-08
-5.92387e-07
7.15648e-08
-5.9937e-07
5.45151e-08
-6.04901e-07
3.6594e-08
-6.08921e-07
1.79214e-08
-6.11374e-07
-1.37424e-09
-6.12206e-07
-2.11611e-08
-6.11368e-07
-4.1305e-08
-6.08805e-07
-6.16737e-08
-6.0446e-07
-8.21366e-08
-5.98267e-07
-1.02565e-07
-5.90154e-07
-1.22827e-07
-5.80039e-07
-1.4279e-07
-5.67837e-07
-1.62305e-07
-5.53462e-07
-1.81211e-07
-5.36844e-07
-1.99323e-07
-5.17936e-07
-2.16423e-07
-4.96719e-07
-2.32267e-07
-4.73225e-07
-2.46582e-07
-4.47553e-07
-2.59064e-07
-4.19893e-07
-2.69394e-07
-3.90519e-07
-2.77299e-07
-3.59777e-07
-2.82552e-07
-3.2809e-07
-2.84957e-07
-2.95949e-07
-2.84377e-07
-2.63887e-07
-2.80766e-07
-2.32454e-07
-2.74184e-07
-2.02179e-07
-2.64805e-07
-1.73538e-07
-2.52903e-07
-1.4693e-07
-2.38839e-07
-1.22651e-07
-2.23031e-07
-1.00887e-07
-2.05929e-07
-8.1714e-08
-1.87977e-07
-6.51071e-08
-1.6959e-07
-5.09558e-08
-1.51127e-07
-3.9083e-08
-1.32881e-07
-2.9264e-08
-1.15066e-07
-2.12441e-08
-9.78057e-08
-1.47559e-08
-8.1122e-08
-9.5403e-09
-6.4893e-08
-5.37976e-09
-4.87528e-08
-2.17934e-09
-3.18504e-08
-1.86524e-10
-1.27655e-08
4.06557e-09
-7.24392e-09
5.60942e-08
-2.05631e-08
1.16067e-07
-3.56757e-08
1.43362e-07
-5.13566e-08
1.58463e-07
-6.72492e-08
1.68899e-07
-8.324e-08
1.76982e-07
-9.93025e-08
1.83597e-07
-1.15445e-07
1.89161e-07
-1.31689e-07
1.93906e-07
-1.48059e-07
1.97978e-07
-1.64578e-07
2.01481e-07
-1.81264e-07
2.04492e-07
-1.98129e-07
2.07072e-07
-2.15184e-07
2.09266e-07
-2.32432e-07
2.11108e-07
-2.49873e-07
2.1262e-07
-2.67502e-07
2.13814e-07
-2.85312e-07
2.14689e-07
-3.03289e-07
2.15235e-07
-3.21416e-07
2.15428e-07
-3.39668e-07
2.15232e-07
-3.58017e-07
2.146e-07
-3.76423e-07
2.13471e-07
-3.9484e-07
2.11772e-07
-4.13212e-07
2.09417e-07
-4.31472e-07
2.06314e-07
-4.49545e-07
2.0236e-07
-4.67344e-07
1.97453e-07
-4.84777e-07
1.91492e-07
-5.01744e-07
1.84384e-07
-5.18144e-07
1.76051e-07
-5.33872e-07
1.66431e-07
-5.48825e-07
1.55485e-07
-5.62903e-07
1.43199e-07
-5.7601e-07
1.29585e-07
-5.88058e-07
1.14678e-07
-5.98963e-07
9.85394e-08
-6.08651e-07
8.12522e-08
-6.17053e-07
6.29171e-08
-6.24109e-07
4.365e-08
-6.29765e-07
2.35773e-08
-6.3397e-07
2.83126e-09
-6.36676e-07
-1.8455e-08
-6.3783e-07
-4.0151e-08
-6.37371e-07
-6.2133e-08
-6.35223e-07
-8.42846e-08
-6.31291e-07
-1.06496e-07
-6.25458e-07
-1.28661e-07
-6.17581e-07
-1.50667e-07
-6.07498e-07
-1.72389e-07
-5.95032e-07
-1.93676e-07
-5.80011e-07
-2.14344e-07
-5.62277e-07
-2.34157e-07
-5.41712e-07
-2.52832e-07
-5.18247e-07
-2.70047e-07
-4.91902e-07
-2.85409e-07
-4.62813e-07
-2.98483e-07
-4.31245e-07
-3.08866e-07
-3.97575e-07
-3.16222e-07
-3.62295e-07
-3.20237e-07
-3.26013e-07
-3.20658e-07
-2.89425e-07
-3.17354e-07
-2.53268e-07
-3.10342e-07
-2.18273e-07
-2.998e-07
-1.85119e-07
-2.86057e-07
-1.5438e-07
-2.69578e-07
-1.26489e-07
-2.50922e-07
-1.01721e-07
-2.30697e-07
-8.01879e-08
-2.0951e-07
-6.18565e-08
-1.87921e-07
-4.65733e-08
-1.6641e-07
-3.40982e-08
-1.45356e-07
-2.41343e-08
-1.2503e-07
-1.63549e-08
-1.05585e-07
-1.04242e-08
-8.70527e-08
-6.01663e-09
-6.93006e-08
-2.84208e-09
-5.19274e-08
-7.08132e-10
-3.39844e-08
3.25723e-10
-1.37994e-08
4.39129e-09
-7.30598e-09
6.34002e-08
-2.07006e-08
1.29461e-07
-3.59123e-08
1.58574e-07
-5.17121e-08
1.74263e-07
-6.77351e-08
1.84922e-07
-8.38595e-08
1.93106e-07
-1.00052e-07
1.9979e-07
-1.16318e-07
2.05427e-07
-1.32675e-07
2.10264e-07
-1.4915e-07
2.14453e-07
-1.65766e-07
2.18097e-07
-1.82546e-07
2.21271e-07
-1.99506e-07
2.24032e-07
-2.16662e-07
2.26421e-07
-2.34022e-07
2.28468e-07
-2.51592e-07
2.3019e-07
-2.69374e-07
2.31596e-07
-2.87364e-07
2.32679e-07
-3.05555e-07
2.33426e-07
-3.23933e-07
2.33806e-07
-3.42481e-07
2.3378e-07
-3.61171e-07
2.3329e-07
-3.7997e-07
2.32269e-07
-3.98832e-07
2.30634e-07
-4.17705e-07
2.2829e-07
-4.36524e-07
2.25132e-07
-4.55214e-07
2.21051e-07
-4.73694e-07
2.15932e-07
-4.91872e-07
2.0967e-07
-5.09653e-07
2.02166e-07
-5.2694e-07
1.93338e-07
-5.43635e-07
1.83125e-07
-5.59641e-07
1.71491e-07
-5.74867e-07
1.58425e-07
-5.89226e-07
1.43944e-07
-6.02639e-07
1.28091e-07
-6.15034e-07
1.10935e-07
-6.26351e-07
9.2569e-08
-6.36536e-07
7.31019e-08
-6.45545e-07
5.26589e-08
-6.53341e-07
3.13734e-08
-6.59891e-07
9.38162e-09
-6.65162e-07
-1.31846e-08
-6.69108e-07
-3.62044e-08
-6.7167e-07
-5.95718e-08
-6.72755e-07
-8.31995e-08
-6.72234e-07
-1.07016e-07
-6.69933e-07
-1.30962e-07
-6.65625e-07
-1.54974e-07
-6.59039e-07
-1.78975e-07
-6.49865e-07