/*--------------------------------*- C++ -*----------------------------------*\
  =========                 |
  \\      /  F ield         | OpenFOAM: The Open Source CFD Toolbox
   \\    /   O peration     | Website:  https://openfoam.org
    \\  /    A nd           | Version:  13
     \\/     M anipulation  |
\*---------------------------------------------------------------------------*/
FoamFile
{
    format      ascii;
    class       volVectorField;
    location    "1";
    object      U;
}
// * * * * * * * * * * * * * * * * * * * * * * * * * * * * * * * * * * * * * //

dimensions      [0 1 -1 0 0 0 0];

internalField   nonuniform List<vector> 
6400
(
(4.02902e-05 -4.01319e-05 0)
(0.000145891 -4.34769e-05 0)
(0.000198602 -2.69459e-05 0)
(0.000155172 -5.38638e-06 0)
(1.35623e-05 1.2118e-05 0)
(-0.000205642 2.46303e-05 0)
(-0.000482064 3.34072e-05 0)
(-0.000799045 3.91674e-05 0)
(-0.00114392 4.26304e-05 0)
(-0.00150774 4.46147e-05 0)
(-0.00188423 4.56807e-05 0)
(-0.00226907 4.61847e-05 0)
(-0.00265931 4.63588e-05 0)
(-0.00305292 4.63576e-05 0)
(-0.00344854 4.62906e-05 0)
(-0.00384526 4.62405e-05 0)
(-0.00424253 4.62729e-05 0)
(-0.00464005 4.64415e-05 0)
(-0.00503772 4.67912e-05 0)
(-0.00543556 4.736e-05 0)
(-0.00583371 4.81812e-05 0)
(-0.00623234 4.92819e-05 0)
(-0.00663166 5.06834e-05 0)
(-0.00703184 5.23999e-05 0)
(-0.00743301 5.44391e-05 0)
(-0.00783519 5.68007e-05 0)
(-0.00823823 5.94755e-05 0)
(-0.00864183 6.2443e-05 0)
(-0.00904542 6.56693e-05 0)
(-0.00944813 6.91058e-05 0)
(-0.00984878 7.26869e-05 0)
(-0.0102458 7.63277e-05 0)
(-0.0106371 7.99226e-05 0)
(-0.0110202 8.33429e-05 0)
(-0.0113922 8.64364e-05 0)
(-0.0117495 8.90269e-05 0)
(-0.0120881 9.0916e-05 0)
(-0.0124038 9.18866e-05 0)
(-0.0126915 9.17151e-05 0)
(-0.0129462 9.01852e-05 0)
(-0.0131624 8.70112e-05 0)
(-0.0133345 8.15396e-05 0)
(-0.0134611 7.32541e-05 0)
(-0.0135263 6.44086e-05 0)
(-0.0135408 5.61719e-05 0)
(-0.0134933 4.51456e-05 0)
(-0.0133792 3.24009e-05 0)
(-0.0131992 1.75661e-05 0)
(-0.0129522 1.24724e-06 0)
(-0.0126386 -1.59273e-05 0)
(-0.0122595 -3.3483e-05 0)
(-0.0118178 -5.08676e-05 0)
(-0.0113163 -6.73783e-05 0)
(-0.0107608 -8.30428e-05 0)
(-0.0101563 -9.73832e-05 0)
(-0.00950949 -0.000109813 0)
(-0.00882794 -0.000120121 0)
(-0.00811959 -0.000128061 0)
(-0.00739275 -0.000133476 0)
(-0.00665594 -0.000136282 0)
(-0.00591769 -0.000136453 0)
(-0.00518641 -0.000133993 0)
(-0.00447015 -0.00012903 0)
(-0.00377737 -0.000122218 0)
(-0.00311408 -0.000113795 0)
(-0.00248653 -0.000103902 0)
(-0.0019003 -9.26961e-05 0)
(-0.00136051 -8.03391e-05 0)
(-0.000871829 -6.69542e-05 0)
(-0.000438627 -5.25599e-05 0)
(-6.46731e-05 -3.74205e-05 0)
(0.00024369 -2.22931e-05 0)
(0.000481301 -5.50821e-06 0)
(0.000643351 1.26664e-05 0)
(0.00072286 3.05411e-05 0)
(0.000713643 4.71956e-05 0)
(0.000616071 6.16393e-05 0)
(0.00043883 6.91059e-05 0)
(0.000218635 6.2968e-05 0)
(3.64042e-05 3.67153e-05 0)
(4.43405e-05 -0.000146626 0)
(0.000134763 -0.000133699 0)
(7.87115e-05 1.75985e-05 0)
(-0.000166773 0.000202378 0)
(-0.000586242 0.000365458 0)
(-0.00114219 0.000492173 0)
(-0.00179916 0.000584098 0)
(-0.00252863 0.000648242 0)
(-0.00330962 0.000692189 0)
(-0.00412653 0.00072192 0)
(-0.00496816 0.000741769 0)
(-0.00582654 0.000754771 0)
(-0.00669594 0.000763032 0)
(-0.00757229 0.000768024 0)
(-0.00845267 0.000770795 0)
(-0.00933499 0.000772102 0)
(-0.0102177 0.000772501 0)
(-0.0110999 0.0007724 0)
(-0.0119805 0.000772094 0)
(-0.0128592 0.000771788 0)
(-0.0137352 0.000771609 0)
(-0.0146082 0.00077161 0)
(-0.0154775 0.000771769 0)
(-0.0163423 0.000771987 0)
(-0.0172019 0.00077209 0)
(-0.0180549 0.000771822 0)
(-0.0188996 0.000770848 0)
(-0.0197341 0.000768739 0)
(-0.0205557 0.000764976 0)
(-0.0213613 0.000758948 0)
(-0.022147 0.00074996 0)
(-0.0229083 0.000737238 0)
(-0.02364 0.00071995 0)
(-0.0243361 0.000697223 0)
(-0.0249901 0.000668174 0)
(-0.0255947 0.000631945 0)
(-0.0261425 0.000587748 0)
(-0.0266254 0.000534916 0)
(-0.0270356 0.00047295 0)
(-0.0273652 0.000401573 0)
(-0.0276069 0.000320733 0)
(-0.0277539 0.000230547 0)
(-0.027801 0.000131536 0)
(-0.0277415 2.68123e-05 0)
(-0.027573 -8.31511e-05 0)
(-0.0272934 -0.000198917 0)
(-0.0269021 -0.000318692 0)
(-0.0263993 -0.00043993 0)
(-0.0257871 -0.000560757 0)
(-0.0250691 -0.000679315 0)
(-0.0242504 -0.000793635 0)
(-0.0233375 -0.000901229 0)
(-0.0223376 -0.00100085 0)
(-0.0212587 -0.00109163 0)
(-0.0201108 -0.00117093 0)
(-0.0189042 -0.00123747 0)
(-0.0176499 -0.00129058 0)
(-0.0163595 -0.00132954 0)
(-0.0150446 -0.00135393 0)
(-0.0137171 -0.00136362 0)
(-0.0123887 -0.00135873 0)
(-0.0110711 -0.00133963 0)
(-0.00977529 -0.00130687 0)
(-0.00851127 -0.00126129 0)
(-0.00728999 -0.00120419 0)
(-0.00612093 -0.00113657 0)
(-0.00501285 -0.00105933 0)
(-0.0039739 -0.000973219 0)
(-0.00301178 -0.000878683 0)
(-0.00213402 -0.000775771 0)
(-0.00134835 -0.000664116 0)
(-0.000663755 -0.000543267 0)
(-8.96815e-05 -0.000410534 0)
(0.000361142 -0.000265044 0)
(0.000674474 -0.000106622 0)
(0.000837013 6.06562e-05 0)
(0.000834602 0.00022287 0)
(0.000667029 0.000347282 0)
(0.000370181 0.000372527 0)
(6.17257e-05 0.000218216 0)
(2.81639e-05 -0.000200842 0)
(-2.0929e-05 -7.78213e-05 0)
(-0.000286185 0.000279616 0)
(-0.000749798 0.000662002 0)
(-0.00137669 0.000986748 0)
(-0.00213013 0.00123617 0)
(-0.0029795 0.00141872 0)
(-0.00390124 0.00154902 0)
(-0.00487703 0.00164059 0)
(-0.00589261 0.00170415 0)
(-0.00693712 0.00174769 0)
(-0.00800235 0.00177696 0)
(-0.00908215 0.0017961 0)
(-0.0101719 0.00180798 0)
(-0.011268 0.0018147 0)
(-0.0123679 0.00181774 0)
(-0.0134694 0.00181819 0)
(-0.0145708 0.00181679 0)
(-0.0156706 0.00181405 0)
(-0.0167674 0.00181028 0)
(-0.01786 0.00180561 0)
(-0.0189469 0.0018 0)
(-0.0200265 0.00179325 0)
(-0.021097 0.00178502 0)
(-0.0221563 0.00177478 0)
(-0.0232017 0.00176187 0)
(-0.0242304 0.00174545 0)
(-0.0252385 0.00172453 0)
(-0.0262221 0.00169795 0)
(-0.0271762 0.00166442 0)
(-0.0280952 0.00162255 0)
(-0.028973 0.00157085 0)
(-0.0298028 0.00150783 0)
(-0.0305771 0.00143202 0)
(-0.0312881 0.00134204 0)
(-0.0319278 0.00123673 0)
(-0.0324879 0.00111517 0)
(-0.0329604 0.000976808 0)
(-0.0333376 0.000821507 0)
(-0.0336124 0.000649611 0)
(-0.0337786 0.000461984 0)
(-0.033831 0.000260033 0)
(-0.0337654 4.56584e-05 0)
(-0.0335791 -0.000178932 0)
(-0.0332705 -0.000411225 0)
(-0.032839 -0.000649104 0)
(-0.0322863 -0.000888857 0)
(-0.0316147 -0.001127 0)
(-0.0308279 -0.00136032 0)
(-0.0299308 -0.00158572 0)
(-0.0289295 -0.00180017 0)
(-0.0278318 -0.00200038 0)
(-0.0266456 -0.00218422 0)
(-0.0253796 -0.00234942 0)
(-0.0240446 -0.00249265 0)
(-0.0226514 -0.00261207 0)
(-0.0212114 -0.00270649 0)
(-0.0197364 -0.00277491 0)
(-0.0182384 -0.00281675 0)
(-0.0167298 -0.00283187 0)
(-0.0152224 -0.00282059 0)
(-0.0137283 -0.00278362 0)
(-0.012259 -0.00272208 0)
(-0.0108253 -0.00263729 0)
(-0.00943752 -0.00253086 0)
(-0.00810545 -0.00240452 0)
(-0.00683795 -0.00225985 0)
(-0.00564323 -0.00209816 0)
(-0.0045289 -0.00192025 0)
(-0.00350219 -0.00172615 0)
(-0.00257024 -0.00151501 0)
(-0.00174067 -0.00128494 0)
(-0.00102159 -0.00103265 0)
(-0.000422633 -0.000754881 0)
(4.49343e-05 -0.000448601 0)
(0.000367793 -0.000116566 0)
(0.00053161 0.000223838 0)
(0.000522597 0.000523185 0)
(0.000340114 0.000665937 0)
(6.52999e-05 0.00043357 0)
(3.41681e-06 -0.000153195 0)
(-0.000223943 0.000176992 0)
(-0.000696218 0.000748265 0)
(-0.00133258 0.00129532 0)
(-0.0020977 0.00174558 0)
(-0.00296428 0.00209325 0)
(-0.0039113 0.00235294 0)
(-0.00492284 0.00254317 0)
(-0.00598568 0.00268066 0)
(-0.00708863 0.00277889 0)
(-0.00822243 0.0028482 0)
(-0.00937963 0.00289632 0)
(-0.0105543 0.00292891 0)
(-0.0117416 0.00295012 0)
(-0.0129379 0.00296293 0)
(-0.0141401 0.00296948 0)
(-0.0153456 0.00297128 0)
(-0.0165523 0.00296938 0)
(-0.017758 0.00296443 0)
(-0.0189608 0.00295676 0)
(-0.0201588 0.00294644 0)
(-0.0213498 0.0029333 0)
(-0.0225314 0.00291689 0)
(-0.023701 0.00289655 0)
(-0.0248557 0.00287135 0)
(-0.0259918 0.00284017 0)
(-0.0271054 0.00280164 0)
(-0.0281919 0.00275417 0)
(-0.0292462 0.00269597 0)
(-0.0302623 0.00262512 0)
(-0.031234 0.00253959 0)
(-0.0321541 0.00243732 0)
(-0.0330151 0.0023163 0)
(-0.0338092 0.00217468 0)
(-0.0345283 0.00201089 0)
(-0.0351642 0.00182373 0)
(-0.0357089 0.00161248 0)
(-0.036155 0.001377 0)
(-0.0364953 0.00111781 0)
(-0.0367239 0.000836099 0)
(-0.0368355 0.00053374 0)
(-0.036826 0.000213259 0)
(-0.0366932 -0.000122325 0)
(-0.0364348 -0.000469629 0)
(-0.0360499 -0.000824607 0)
(-0.0355397 -0.00118358 0)
(-0.0349064 -0.00154209 0)
(-0.0341532 -0.00189556 0)
(-0.0332844 -0.00223957 0)
(-0.0323054 -0.00256985 0)
(-0.0312227 -0.0028822 0)
(-0.0300437 -0.00317264 0)
(-0.0287768 -0.00343824 0)
(-0.0274312 -0.00367548 0)
(-0.0260173 -0.00388025 0)
(-0.0245462 -0.00405032 0)
(-0.0230293 -0.004184 0)
(-0.0214785 -0.00427998 0)
(-0.0199061 -0.00433748 0)
(-0.0183244 -0.00435636 0)
(-0.0167459 -0.00433704 0)
(-0.0151825 -0.00428054 0)
(-0.0136461 -0.0041884 0)
(-0.0121477 -0.00406256 0)
(-0.0106979 -0.00390531 0)
(-0.00930625 -0.00371909 0)
(-0.0079816 -0.00350627 0)
(-0.00673187 -0.00326886 0)
(-0.00556417 -0.00300825 0)
(-0.00448489 -0.00272493 0)
(-0.00349985 -0.00241818 0)
(-0.00261462 -0.00208587 0)
(-0.00183461 -0.00172432 0)
(-0.00116548 -0.00132911 0)
(-0.000613509 -0.000896145 0)
(-0.000186435 -0.000425811 0)
(0.000105277 6.86454e-05 0)
(0.00024786 0.000538499 0)
(0.000223519 0.00083851 0)
(5.54064e-05 0.000603975 0)
(-2.01855e-05 7.30622e-06 0)
(-0.000418092 0.000622459 0)
(-0.00106537 0.00139023 0)
(-0.00183549 0.0020648 0)
(-0.00270365 0.00261055 0)
(-0.00364973 0.00303659 0)
(-0.00465995 0.00336186 0)
(-0.00572487 0.00360639 0)
(-0.00683596 0.00378803 0)
(-0.00798518 0.00392151 0)
(-0.00916531 0.00401854 0)
(-0.0103701 0.0040881 0)
(-0.0115942 0.00413695 0)
(-0.0128332 0.00417018 0)
(-0.0140833 0.00419152 0)
(-0.0153412 0.00420364 0)
(-0.0166042 0.00420843 0)
(-0.0178696 0.00420718 0)
(-0.019135 0.00420065 0)
(-0.020398 0.00418919 0)
(-0.0216562 0.00417274 0)
(-0.0229068 0.00415093 0)
(-0.0241471 0.00412303 0)
(-0.0253737 0.00408803 0)
(-0.026583 0.00404456 0)
(-0.0277709 0.003991 0)
(-0.0289327 0.0039254 0)
(-0.0300633 0.00384562 0)
(-0.0311568 0.00374929 0)
(-0.0322069 0.00363388 0)
(-0.0332065 0.0034968 0)
(-0.0341484 0.00333553 0)
(-0.0350246 0.00314769 0)
(-0.0358272 0.00293122 0)
(-0.0365479 0.0026845 0)
(-0.0371789 0.00240651 0)
(-0.0377125 0.00209692 0)
(-0.0381415 0.00175619 0)
(-0.0384597 0.0013856 0)
(-0.0386616 0.00098728 0)
(-0.0387426 0.000564137 0)
(-0.0386994 0.000119755 0)
(-0.03853 -0.000341682 0)
(-0.038233 -0.000815262 0)
(-0.0378082 -0.00129618 0)
(-0.0372571 -0.0017793 0)
(-0.0365819 -0.00225913 0)
(-0.0357861 -0.00273008 0)
(-0.0348741 -0.00318666 0)
(-0.0338513 -0.00362354 0)
(-0.0327242 -0.00403551 0)
(-0.0315002 -0.00441776 0)
(-0.0301874 -0.00476641 0)
(-0.0287953 -0.00507688 0)
(-0.0273344 -0.00534418 0)
(-0.0258156 -0.00556558 0)
(-0.0242507 -0.0057388 0)
(-0.022652 -0.00586215 0)
(-0.0210319 -0.00593463 0)
(-0.0194034 -0.00595601 0)
(-0.0177792 -0.00592682 0)
(-0.016172 -0.0058484 0)
(-0.0145938 -0.00572276 0)
(-0.0130563 -0.00555252 0)
(-0.0115702 -0.00534075 0)
(-0.0101454 -0.00509081 0)
(-0.00879065 -0.004806 0)
(-0.00751355 -0.00448932 0)
(-0.00632067 -0.00414311 0)
(-0.00521742 -0.00376868 0)
(-0.00420822 -0.00336602 0)
(-0.0032966 -0.00293352 0)
(-0.0024853 -0.00246793 0)
(-0.00177645 -0.00196479 0)
(-0.001172 -0.00141963 0)
(-0.000674657 -0.000831132 0)
(-0.000290148 -0.000208515 0)
(-2.88287e-05 0.000407801 0)
(8.99792e-05 0.000868643 0)
(4.1976e-05 0.000703439 0)
(-4.18607e-05 0.00026847 0)
(-0.00058359 0.0012244 0)
(-0.00136976 0.00217017 0)
(-0.0022461 0.00294256 0)
(-0.00319786 0.00355904 0)
(-0.0042083 0.0040451 0)
(-0.0052681 0.00442345 0)
(-0.00637242 0.00471451 0)
(-0.00751658 0.00493606 0)
(-0.00869541 0.00510308 0)
(-0.00990376 0.00522776 0)
(-0.0111367 0.00531971 0)
(-0.0123899 0.00538639 0)
(-0.0136592 0.00543346 0)
(-0.0149412 0.00546514 0)
(-0.0162326 0.00548452 0)
(-0.0175304 0.00549377 0)
(-0.0188321 0.00549433 0)
(-0.0201347 0.00548702 0)
(-0.0214358 0.00547214 0)
(-0.0227324 0.00544952 0)
(-0.0240215 0.00541854 0)
(-0.0253 0.00537818 0)
(-0.0265641 0.00532703 0)
(-0.0278098 0.00526331 0)
(-0.0290325 0.00518487 0)
(-0.0302273 0.00508923 0)
(-0.0313884 0.00497365 0)
(-0.0325097 0.0048352 0)
(-0.0335844 0.00467081 0)
(-0.0346053 0.00447742 0)
(-0.0355647 0.00425209 0)
(-0.0364546 0.00399219 0)
(-0.0372669 0.00369556 0)
(-0.0379934 0.00336069 0)
(-0.0386264 0.00298684 0)
(-0.0391584 0.0025742 0)
(-0.0395827 0.0021239 0)
(-0.0398933 0.00163807 0)
(-0.040085 0.00111978 0)
(-0.0401537 0.00057297 0)
(-0.0400965 2.3128e-06 0)
(-0.0399112 -0.000586886 0)
(-0.0395968 -0.00118877 0)
(-0.0391535 -0.00179729 0)
(-0.0385825 -0.00240617 0)
(-0.037886 -0.00300888 0)
(-0.0370672 -0.00359884 0)
(-0.0361305 -0.00416957 0)
(-0.0350809 -0.00471471 0)
(-0.033925 -0.00522809 0)
(-0.0326697 -0.00570406 0)
(-0.0313229 -0.00613766 0)
(-0.0298946 -0.00652302 0)
(-0.028395 -0.00685448 0)
(-0.0268353 -0.00712855 0)
(-0.0252276 -0.00734228 0)
(-0.0235848 -0.00749349 0)
(-0.02192 -0.00758086 0)
(-0.0202468 -0.00760401 0)
(-0.0185786 -0.00756357 0)
(-0.0169291 -0.00746118 0)
(-0.015311 -0.00729939 0)
(-0.0137367 -0.00708159 0)
(-0.0122176 -0.00681179 0)
(-0.0107637 -0.00649444 0)
(-0.00938399 -0.00613406 0)
(-0.00808593 -0.00573492 0)
(-0.00687545 -0.00530065 0)
(-0.00575704 -0.00483384 0)
(-0.00473367 -0.00433568 0)
(-0.00380692 -0.00380567 0)
(-0.00297704 -0.00324155 0)
(-0.00224313 -0.00263957 0)
(-0.00160351 -0.00199543 0)
(-0.00105693 -0.0013066 0)
(-0.000605342 -0.000577892 0)
(-0.00025588 0.0001615 0)
(-2.4975e-05 0.000774139 0)
(3.0589e-05 0.000734293 0)
(-6.02512e-05 0.000611492 0)
(-0.000716928 0.00195067 0)
(-0.00161115 0.00305894 0)
(-0.00257276 0.00390727 0)
(-0.00359436 0.0045753 0)
(-0.00465995 0.00510588 0)
(-0.00576248 0.00552556 0)
(-0.00690011 0.00585493 0)
(-0.00807094 0.00611118 0)
(-0.0092722 0.00630884 0)
(-0.0105006 0.00645994 0)
(-0.0117526 0.00657421 0)
(-0.0130247 0.00665936 0)
(-0.0143135 0.00672133 0)
(-0.0156159 0.00676464 0)
(-0.0169289 0.00679263 0)
(-0.0182497 0.00680762 0)
(-0.0195754 0.00681115 0)
(-0.0209033 0.00680403 0)
(-0.0222306 0.00678647 0)
(-0.0235542 0.00675812 0)
(-0.024871 0.00671813 0)
(-0.0261775 0.00666516 0)
(-0.0274697 0.00659741 0)
(-0.0287434 0.00651263 0)
(-0.0299937 0.00640816 0)
(-0.0312153 0.00628101 0)
(-0.0324024 0.00612787 0)
(-0.0335483 0.00594523 0)
(-0.0346462 0.00572949 0)
(-0.0356885 0.00547716 0)
(-0.0366673 0.00518497 0)
(-0.0375745 0.0048501 0)
(-0.0384019 0.00447039 0)
(-0.0391414 0.00404451 0)
(-0.0397853 0.0035721 0)
(-0.0403262 0.0030539 0)
(-0.0407576 0.00249176 0)
(-0.0410736 0.00188864 0)
(-0.0412692 0.00124856 0)
(-0.0413403 0.000576432 0)
(-0.041284 -0.000122034 0)
(-0.0410982 -0.000840502 0)
(-0.0407818 -0.00157215 0)
(-0.0403347 -0.00230985 0)
(-0.0397578 -0.00304627 0)
(-0.0390531 -0.00377389 0)
(-0.0382234 -0.00448519 0)
(-0.0372726 -0.00517267 0)
(-0.0362054 -0.00582897 0)
(-0.0350279 -0.00644693 0)
(-0.0337468 -0.00701996 0)
(-0.0323697 -0.00754191 0)
(-0.0309066 -0.00800549 0)
(-0.029368 -0.00840432 0)
(-0.0277649 -0.00873389 0)
(-0.0261104 -0.00899041 0)
(-0.0244178 -0.00917108 0)
(-0.0227012 -0.00927411 0)
(-0.0209753 -0.0092989 0)
(-0.0192548 -0.00924611 0)
(-0.0175542 -0.00911768 0)
(-0.0158878 -0.00891675 0)
(-0.014269 -0.0086476 0)
(-0.0127099 -0.00831539 0)
(-0.0112214 -0.00792593 0)
(-0.00981267 -0.00748525 0)
(-0.00849117 -0.00699927 0)
(-0.00726237 -0.0064733 0)
(-0.00612984 -0.00591164 0)
(-0.00509519 -0.00531717 0)
(-0.00415816 -0.004691 0)
(-0.00331673 -0.00403231 0)
(-0.0025673 -0.00333853 0)
(-0.0019052 -0.00260585 0)
(-0.00132601 -0.00183072 0)
(-0.000828879 -0.00101337 0)
(-0.000418676 -0.000170203 0)
(-0.000108658 0.000586744 0)
(2.23494e-05 0.000712331 0)
(-7.47852e-05 0.00101983 0)
(-0.000821061 0.00277348 0)
(-0.00179866 0.00403357 0)
(-0.00282874 0.00494318 0)
(-0.0039089 0.00564908 0)
(-0.00502232 0.00621207 0)
(-0.00616283 0.00666308 0)
(-0.00733026 0.00702303 0)
(-0.00852463 0.00730846 0)
(-0.00974495 0.00753314 0)
(-0.0109895 0.00770858 0)
(-0.012256 0.00784424 0)
(-0.0135419 0.00794776 0)
(-0.0148445 0.00802513 0)
(-0.0161613 0.00808094 0)
(-0.0174895 0.00811861 0)
(-0.0188266 0.00814053 0)
(-0.0201697 0.00814823 0)
(-0.0215163 0.00814245 0)
(-0.0228635 0.00812328 0)
(-0.0242082 0.00809016 0)
(-0.0255471 0.00804197 0)
(-0.0268767 0.00797702 0)
(-0.0281929 0.00789309 0)
(-0.0294912 0.00778747 0)
(-0.0307667 0.00765699 0)
(-0.0320138 0.00749808 0)
(-0.0332265 0.00730686 0)
(-0.034398 0.00707928 0)
(-0.0355211 0.00681123 0)
(-0.036588 0.00649879 0)
(-0.0375908 0.00613841 0)
(-0.0385212 0.00572714 0)
(-0.0393709 0.00526287 0)
(-0.0401317 0.0047445 0)
(-0.0407959 0.00417209 0)
(-0.0413562 0.00354697 0)
(-0.0418059 0.00287169 0)
(-0.0421393 0.00215005 0)
(-0.0423513 0.00138693 0)
(-0.0424377 0.000588211 0)
(-0.0423954 -0.000239464 0)
(-0.0422221 -0.0010888 0)
(-0.0419163 -0.00195203 0)
(-0.0414776 -0.00282106 0)
(-0.0409065 -0.0036876 0)
(-0.0402043 -0.0045432 0)
(-0.0393732 -0.00537937 0)
(-0.0384164 -0.00618766 0)
(-0.0373382 -0.00695966 0)
(-0.036144 -0.00768715 0)
(-0.0348399 -0.00836252 0)
(-0.0334333 -0.00897825 0)
(-0.0319338 -0.00952558 0)
(-0.0303521 -0.00999711 0)
(-0.0286993 -0.010387 0)
(-0.0269893 -0.0106905 0)
(-0.0252363 -0.0109038 0)
(-0.0234556 -0.0110245 0)
(-0.0216632 -0.0110518 0)
(-0.0198756 -0.010986 0)
(-0.018109 -0.0108295 0)
(-0.0163793 -0.010586 0)
(-0.0147015 -0.0102609 0)
(-0.0130893 -0.00986076 0)
(-0.0115544 -0.00939298 0)
(-0.0101069 -0.00886553 0)
(-0.00875419 -0.00828641 0)
(-0.00750163 -0.00766308 0)
(-0.00635196 -0.00700201 0)
(-0.00530553 -0.00630822 0)
(-0.00436035 -0.00558485 0)
(-0.00351231 -0.00483292 0)
(-0.00275542 -0.00405128 0)
(-0.00208243 -0.0032368 0)
(-0.00148633 -0.00238486 0)
(-0.000963992 -0.0014909 0)
(-0.000518785 -0.00055758 0)
(-0.000160535 0.00033721 0)
(1.74751e-05 0.000654384 0)
(-8.5863e-05 0.00147928 0)
(-0.000900873 0.00367026 0)
(-0.00194229 0.0050756 0)
(-0.00302703 0.00603737 0)
(-0.00415595 0.00677185 0)
(-0.0053106 0.00735829 0)
(-0.00648485 0.00783257 0)
(-0.00767932 0.00821641 0)
(-0.0088952 0.00852581 0)
(-0.0101328 0.00877376 0)
(-0.0113915 0.00897108 0)
(-0.0126703 0.00912674 0)
(-0.0139674 0.00924808 0)
(-0.015281 0.00934092 0)
(-0.0166089 0.00940977 0)
(-0.0179489 0.009458 0)
(-0.0192986 0.00948794 0)
(-0.0206557 0.00950102 0)
(-0.0220176 0.00949789 0)
(-0.0233814 0.00947843 0)
(-0.0247443 0.00944186 0)
(-0.026103 0.00938675 0)
(-0.0274538 0.00931103 0)
(-0.0287927 0.00921205 0)
(-0.0301151 0.0090866 0)
(-0.031416 0.00893096 0)
(-0.0326898 0.00874099 0)
(-0.0339301 0.00851222 0)
(-0.0351301 0.00824001 0)
(-0.0362823 0.00791977 0)
(-0.0373789 0.00754717 0)
(-0.0384116 0.00711839 0)
(-0.0393721 0.00663039 0)
(-0.0402518 0.00608112 0)
(-0.0410427 0.00546977 0)
(-0.0417368 0.00479683 0)
(-0.0423268 0.00406419 0)
(-0.0428061 0.00327514 0)
(-0.0431685 0.00243424 0)
(-0.043409 0.00154723 0)
(-0.0435232 0.000620822 0)
(-0.0435076 -0.000337434 0)
(-0.0433595 -0.00131937 0)
(-0.043077 -0.00231637 0)
(-0.0426591 -0.00331945 0)
(-0.0421055 -0.00431945 0)
(-0.0414168 -0.00530706 0)
(-0.0405945 -0.00627288 0)
(-0.0396407 -0.00720748 0)
(-0.0385589 -0.00810142 0)
(-0.0373535 -0.00894533 0)
(-0.0360299 -0.0097305 0)
(-0.0345947 -0.0104478 0)
(-0.0330572 -0.011087 0)
(-0.0314276 -0.0116392 0)
(-0.0297174 -0.0120969 0)
(-0.027941 -0.0124539 0)
(-0.0261138 -0.0127053 0)
(-0.0242527 -0.0128477 0)
(-0.0223756 -0.0128796 0)
(-0.020501 -0.0128011 0)
(-0.0186475 -0.0126148 0)
(-0.0168336 -0.0123251 0)
(-0.0150765 -0.0119385 0)
(-0.013392 -0.0114634 0)
(-0.0117935 -0.0109092 0)
(-0.0102922 -0.0102863 0)
(-0.00889608 -0.00960522 0)
(-0.00761048 -0.00887618 0)
(-0.00643751 -0.00810833 0)
(-0.00537638 -0.00730926 0)
(-0.0044235 -0.00648457 0)
(-0.00357277 -0.00563742 0)
(-0.002816 -0.0047683 0)
(-0.00214358 -0.00387477 0)
(-0.0015462 -0.00295112 0)
(-0.00101855 -0.00198769 0)
(-0.000562544 -0.000972833 0)
(-0.000184365 5.38645e-05 0)
(1.57879e-05 0.000577066 0)
(-9.40829e-05 0.00197783 0)
(-0.000961068 0.00462302 0)
(-0.00205091 0.00617007 0)
(-0.00317885 0.00717879 0)
(-0.00434786 0.00793586 0)
(-0.00553757 0.00853937 0)
(-0.00674143 0.00903073 0)
(-0.00796028 0.00943293 0)
(-0.0091959 0.00976172 0)
(-0.0104494 0.0100294 0)
(-0.0117213 0.0102461 0)
(-0.0130112 0.0104202 0)
(-0.0143182 0.0105585 0)
(-0.0156412 0.0106667 0)
(-0.0169787 0.0107489 0)
(-0.0183288 0.0108085 0)
(-0.0196896 0.0108475 0)
(-0.0210589 0.0108673 0)
(-0.0224345 0.0108682 0)
(-0.0238137 0.0108501 0)
(-0.0251938 0.0108118 0)
(-0.0265716 0.0107515 0)
(-0.0279436 0.0106668 0)
(-0.0293056 0.0105545 0)
(-0.0306533 0.0104109 0)
(-0.0319815 0.0102318 0)
(-0.0332844 0.0100122 0)
(-0.0345556 0.00974725 0)
(-0.0357882 0.00943161 0)
(-0.0369745 0.00906019 0)
(-0.0381064 0.00862825 0)
(-0.0391756 0.00813174 0)
(-0.0401736 0.00756752 0)
(-0.0410917 0.00693368 0)
(-0.0419217 0.00622965 0)
(-0.0426556 0.0054564 0)
(-0.043286 0.00461638 0)
(-0.0438061 0.00371354 0)
(-0.0442098 0.0027532 0)
(-0.0444915 0.00174185 0)
(-0.0446467 0.00068702 0)
(-0.0446715 -0.000402974 0)
(-0.0445627 -0.00151918 0)
(-0.0443178 -0.00265219 0)
(-0.0439351 -0.0037923 0)
(-0.0434134 -0.00492957 0)
(-0.0427523 -0.0060539 0)
(-0.0419522 -0.00715511 0)
(-0.0410139 -0.00822284 0)
(-0.0399396 -0.00924663 0)
(-0.0387323 -0.0102159 0)
(-0.0373959 -0.0111208 0)
(-0.0359363 -0.0119504 0)
(-0.0343612 -0.0126926 0)
(-0.0326805 -0.0133369 0)
(-0.0309055 -0.0138734 0)
(-0.029051 -0.014294 0)
(-0.0271339 -0.0145921 0)
(-0.0251728 -0.014763 0)
(-0.0231878 -0.0148039 0)
(-0.0212006 -0.0147145 0)
(-0.019233 -0.0144974 0)
(-0.0173069 -0.0141576 0)
(-0.015443 -0.0137032 0)
(-0.0136599 -0.0131444 0)
(-0.0119739 -0.0124934 0)
(-0.0103977 -0.0117636 0)
(-0.00894068 -0.0109686 0)
(-0.00760833 -0.0101221 0)
(-0.00640237 -0.00923651 0)
(-0.00532096 -0.00832254 0)
(-0.00435893 -0.00738865 0)
(-0.00350822 -0.00644045 0)
(-0.00275848 -0.00548023 0)
(-0.00209778 -0.0045063 0)
(-0.00151448 -0.0035118 0)
(-0.00100084 -0.00248194 0)
(-0.000556566 -0.00139049 0)
(-0.000184162 -0.00023851 0)
(1.6689e-05 0.000494204 0)
(-0.00010001 0.00250578 0)
(-0.00100567 0.00561758 0)
(-0.00213175 0.00730494 0)
(-0.00329336 0.00835798 0)
(-0.00449481 0.00913404 0)
(-0.00571383 0.00975029 0)
(-0.00694324 0.0102542 0)
(-0.00818369 0.0106704 0)
(-0.00943724 0.0110147 0)
(-0.0107055 0.011299 0)
(-0.0119896 0.0115328 0)
(-0.0132899 0.0117237 0)
(-0.0146063 0.0118782 0)
(-0.0159381 0.0120014 0)
(-0.0172844 0.0120974 0)
(-0.0186439 0.012169 0)
(-0.020015 0.0122181 0)
(-0.0213961 0.012246 0)
(-0.022785 0.0122528 0)
(-0.0241795 0.0122379 0)
(-0.025577 0.0121998 0)
(-0.0269745 0.0121365 0)
(-0.0283686 0.0120451 0)
(-0.0297553 0.0119219 0)
(-0.0311303 0.0117625 0)
(-0.0324884 0.0115621 0)
(-0.0338237 0.0113152 0)
(-0.0351299 0.0110161 0)
(-0.0363997 0.0106589 0)
(-0.0376254 0.0102381 0)
(-0.0387989 0.00974843 0)
(-0.0399115 0.00918564 0)
(-0.0409547 0.00854656 0)
(-0.0419198 0.00782937 0)
(-0.0427984 0.00703383 0)
(-0.0435826 0.00616132 0)
(-0.0442648 0.00521486 0)
(-0.044838 0.00419902 0)
(-0.0452961 0.0031198 0)
(-0.0456333 0.00198441 0)
(-0.0458447 0.000801066 0)
(-0.045926 -0.000421211 0)
(-0.0458735 -0.00167281 0)
(-0.0456841 -0.00294368 0)
(-0.0453552 -0.00422351 0)
(-0.0448847 -0.00550177 0)
(-0.0442709 -0.00676777 0)
(-0.0435125 -0.00801067 0)
(-0.042609 -0.00921937 0)
(-0.0415603 -0.0103825 0)
(-0.0403673 -0.0114884 0)
(-0.039032 -0.0125257 0)
(-0.037558 -0.0134815 0)
(-0.0359515 -0.0143421 0)
(-0.0342207 -0.0150945 0)
(-0.0323761 -0.0157257 0)
(-0.0304325 -0.0162249 0)
(-0.0284082 -0.0165831 0)
(-0.0263239 -0.0167935 0)
(-0.0242028 -0.0168516 0)
(-0.0220701 -0.0167559 0)
(-0.0199526 -0.0165086 0)
(-0.0178768 -0.0161154 0)
(-0.0158683 -0.0155859 0)
(-0.0139506 -0.0149329 0)
(-0.0121435 -0.0141719 0)
(-0.0104628 -0.0133199 0)
(-0.00891983 -0.012395 0)
(-0.00752073 -0.0114148 0)
(-0.00626705 -0.010396 0)
(-0.00515589 -0.00935289 0)
(-0.00418038 -0.00829739 0)
(-0.00333036 -0.00723781 0)
(-0.00259308 -0.00617844 0)
(-0.00195416 -0.00511843 0)
(-0.00139935 -0.00404987 0)
(-0.000917949 -0.00295304 0)
(-0.000506343 -0.00178773 0)
(-0.000162765 -0.000517454 0)
(1.96523e-05 0.000417743 0)
(-0.000104149 0.00305538 0)
(-0.00103795 0.00664272 0)
(-0.00219051 0.00847036 0)
(-0.00337784 0.00956684 0)
(-0.004605 0.01036 0)
(-0.00584802 0.0109863 0)
(-0.00709899 0.0114995 0)
(-0.00835822 0.0119264 0)
(-0.00962775 0.0122833 0)
(-0.0109095 0.0125816 0)
(-0.012205 0.0128304 0)
(-0.0135152 0.0130368 0)
(-0.0148404 0.0132067 0)
(-0.0161807 0.0133448 0)
(-0.0175356 0.0134548 0)
(-0.0189044 0.0135392 0)
(-0.0202859 0.0135997 0)
(-0.0216787 0.0136373 0)
(-0.0230813 0.0136517 0)
(-0.0244915 0.0136421 0)
(-0.0259072 0.0136068 0)
(-0.0273256 0.0135431 0)
(-0.0287435 0.0134477 0)
(-0.030157 0.0133163 0)
(-0.0315619 0.013144 0)
(-0.0329529 0.0129252 0)
(-0.0343244 0.0126538 0)
(-0.0356698 0.0123233 0)
(-0.0369817 0.0119272 0)
(-0.0382525 0.0114594 0)
(-0.0394738 0.0109144 0)
(-0.0406371 0.0102876 0)
(-0.0417336 0.00957587 0)
(-0.0427547 0.00877751 0)
(-0.0436921 0.00789258 0)
(-0.0445378 0.00692288 0)
(-0.0452843 0.00587198 0)
(-0.0459245 0.00474504 0)
(-0.0464522 0.00354867 0)
(-0.0468616 0.00229071 0)
(-0.0471475 0.000980004 0)
(-0.0473053 -0.000373844 0)
(-0.0473309 -0.00176069 0)
(-0.0472206 -0.00317004 0)
(-0.0469709 -0.00459118 0)
(-0.0465787 -0.00601325 0)
(-0.0460407 -0.00742527 0)
(-0.0453538 -0.00881605 0)
(-0.044515 -0.0101741 0)
(-0.0435214 -0.0114873 0)
(-0.0423709 -0.0127431 0)
(-0.041062 -0.0139286 0)
(-0.0395951 -0.0150291 0)
(-0.0379728 -0.0160286 0)
(-0.0362009 -0.0169111 0)
(-0.034288 -0.0176601 0)
(-0.0322474 -0.0182604 0)
(-0.0300988 -0.0186994 0)
(-0.0278649 -0.0189673 0)
(-0.0255725 -0.0190567 0)
(-0.0232521 -0.018964 0)
(-0.0209364 -0.0186902 0)
(-0.0186594 -0.0182416 0)
(-0.0164538 -0.0176293 0)
(-0.0143499 -0.0168693 0)
(-0.0123737 -0.0159813 0)
(-0.0105455 -0.0149874 0)
(-0.00887977 -0.013911 0)
(-0.00738413 -0.0127751 0)
(-0.00606011 -0.0116015 0)
(-0.00490358 -0.0104093 0)
(-0.00390561 -0.00921417 0)
(-0.0030534 -0.00802762 0)
(-0.00233135 -0.00685608 0)
(-0.00172209 -0.00569969 0)
(-0.00120828 -0.00454966 0)
(-0.000775553 -0.00338188 0)
(-0.000415758 -0.00214341 0)
(-0.000122083 -0.000763043 0)
(2.44015e-05 0.000358285 0)
(-0.00010694 0.00362046 0)
(-0.00106047 0.00768954 0)
(-0.00223158 0.00965828 0)
(-0.00343795 0.0107985 0)
(-0.00468494 0.0116081 0)
(-0.0059471 0.0122429 0)
(-0.00721581 0.0127633 0)
(-0.00849092 0.0131986 0)
(-0.00977436 0.0135657 0)
(-0.0110682 0.0138761 0)
(-0.0123741 0.0141383 0)
(-0.0136935 0.014359 0)
(-0.0150273 0.0145437 0)
(-0.0163759 0.0146967 0)
(-0.0177394 0.0148211 0)
(-0.0191175 0.0149192 0)
(-0.0205095 0.0149925 0)
(-0.0219146 0.0150415 0)
(-0.0233314 0.0150657 0)
(-0.0247583 0.0150639 0)
(-0.0261934 0.0150339 0)
(-0.0276342 0.0149728 0)
(-0.0290777 0.0148765 0)
(-0.0305203 0.0147403 0)
(-0.0319578 0.0145585 0)
(-0.0333851 0.0143247 0)
(-0.0347965 0.0140321 0)
(-0.0361854 0.0136734 0)
(-0.0375445 0.0132417 0)
(-0.038866 0.0127302 0)
(-0.0401417 0.012133 0)
(-0.0413631 0.0114454 0)
(-0.0425214 0.0106643 0)
(-0.0436083 0.00978801 0)
(-0.0446156 0.00881704 0)
(-0.0455353 0.00775359 0)
(-0.0463602 0.00660172 0)
(-0.0470834 0.00536716 0)
(-0.0476987 0.00405709 0)
(-0.0482005 0.00267995 0)
(-0.0485837 0.0012451 0)
(-0.0488436 -0.000237383 0)
(-0.048976 -0.00175699 0)
(-0.0489768 -0.003303 0)
(-0.0488417 -0.00486461 0)
(-0.0485666 -0.00643105 0)
(-0.0481464 -0.00799151 0)
(-0.0475756 -0.00953502 0)
(-0.0468481 -0.0110502 0)
(-0.045957 -0.0125249 0)
(-0.0448954 -0.013946 0)
(-0.0436571 -0.0152992 0)
(-0.0422365 -0.0165678 0)
(-0.0406311 -0.0177337 0)
(-0.0388412 -0.018777 0)
(-0.0368725 -0.0196768 0)
(-0.0347345 -0.0204113 0)
(-0.0324469 -0.0209631 0)
(-0.0300346 -0.0213174 0)
(-0.0275285 -0.0214622 0)
(-0.0249653 -0.0213901 0)
(-0.0223865 -0.0210996 0)
(-0.0198361 -0.0205967 0)
(-0.0173578 -0.0198944 0)
(-0.0149925 -0.0190124 0)
(-0.0127757 -0.0179758 0)
(-0.0107355 -0.0168136 0)
(-0.00889116 -0.0155563 0)
(-0.00725319 -0.0142345 0)
(-0.00582332 -0.0128765 0)
(-0.00459581 -0.0115073 0)
(-0.00355878 -0.0101475 0)
(-0.00269582 -0.00881188 0)
(-0.00198737 -0.00750939 0)
(-0.00141219 -0.00624118 0)
(-0.000948951 -0.00499779 0)
(-0.000578755 -0.00375142 0)
(-0.000287656 -0.00243824 0)
(-6.32003e-05 -0.000956759 0)
(3.07483e-05 0.000325594 0)
(-0.000108735 0.00419622 0)
(-0.00107508 0.00875076 0)
(-0.0022583 0.010862 0)
(-0.00347806 0.012047 0)
(-0.00473972 0.0128732 0)
(-0.00601659 0.0135158 0)
(-0.00729939 0.0140423 0)
(-0.00858753 0.0144844 0)
(-0.00988268 0.0148602 0)
(-0.0111869 0.0151811 0)
(-0.0125021 0.0154556 0)
(-0.01383 0.0156899 0)
(-0.0151719 0.0158891 0)
(-0.0165286 0.0160569 0)
(-0.0179007 0.0161964 0)
(-0.0192883 0.0163093 0)
(-0.0206912 0.0163969 0)
(-0.022109 0.0164592 0)
(-0.0235408 0.0164955 0)
(-0.0249854 0.0165042 0)
(-0.0264411 0.0164827 0)
(-0.0279058 0.0164274 0)
(-0.0293769 0.0163338 0)
(-0.0308509 0.0161964 0)
(-0.0323237 0.0160088 0)
(-0.0337904 0.0157639 0)
(-0.0352453 0.0154541 0)
(-0.036682 0.0150713 0)
(-0.0380933 0.0146079 0)
(-0.0394713 0.0140567 0)
(-0.0408081 0.0134114 0)
(-0.0420953 0.0126673 0)
(-0.0433246 0.0118212 0)
(-0.0444878 0.0108717 0)
(-0.045577 0.00981963 0)
(-0.046585 0.00866763 0)
(-0.0475047 0.00742027 0)
(-0.0483298 0.00608385 0)
(-0.0490546 0.00466612 0)
(-0.049674 0.00317607 0)
(-0.0501835 0.00162356 0)
(-0.0505789 1.9018e-05 0)
(-0.0508563 -0.00162686 0)
(-0.0510117 -0.00330343 0)
(-0.0510408 -0.00500027 0)
(-0.0509381 -0.00670727 0)
(-0.050697 -0.00841458 0)
(-0.0503089 -0.0101124 0)
(-0.0497635 -0.0117904 0)
(-0.0490483 -0.0134373 0)
(-0.0481497 -0.0150403 0)
(-0.0470538 -0.0165842 0)
(-0.0457463 -0.018051 0)
(-0.044216 -0.0194196 0)
(-0.0424546 -0.020666 0)
(-0.0404615 -0.0217632 0)
(-0.0382407 -0.0226815 0)
(-0.0358077 -0.023395 0)
(-0.0331895 -0.0238816 0)
(-0.0304207 -0.0241223 0)
(-0.0275454 -0.0241025 0)
(-0.0246165 -0.0238163 0)
(-0.0216921 -0.0232675 0)
(-0.0188321 -0.0224705 0)