/*--------------------------------*- C++ -*----------------------------------*\
  =========                 |
  \\      /  F ield         | OpenFOAM: The Open Source CFD Toolbox
   \\    /   O peration     | Website:  https://openfoam.org
    \\  /    A nd           | Version:  13
     \\/     M anipulation  |
\*---------------------------------------------------------------------------*/
FoamFile
{
    format      ascii;
    class       volScalarField;
    location    "2";
    object      epsilon;
}
// * * * * * * * * * * * * * * * * * * * * * * * * * * * * * * * * * * * * * //

dimensions      [0 2 -3 0 0 0 0];

internalField   nonuniform List<scalar> 
1600
(
1.30991e-05
5.89242e-05
0.00011323
0.000165351
0.000215407
0.000264773
0.000312772
0.000357965
0.000400037
0.000441689
0.000488199
0.000545938
0.000622232
0.000729235
0.000879679
0.00108671
0.001359
0.00169208
0.00206522
0.00245146
0.00283365
0.00321155
0.00359454
0.00400056
0.00446111
0.00503575
0.00557548
0.00600166
0.00622623
0.00630896
0.00608101
0.00546738
0.00441588
0.00307854
0.00189307
0.000965138
0.00043166
0.000192135
7.65261e-05
1.72727e-05
6.38963e-05
5.94324e-05
9.05384e-05
0.000129715
0.000172736
0.000219729
0.000272352
0.000333264
0.000406663
0.000498503
0.000622261
0.000795685
0.00104079
0.00136047
0.00174058
0.00214624
0.00253299
0.00286405
0.00312149
0.00332298
0.00349244
0.00365072
0.0038148
0.00399617
0.00419572
0.00440114
0.00462569
0.00482813
0.00498028
0.00504324
0.00498917
0.0046905
0.00409853
0.00317184
0.00204694
0.00105644
0.00045089
0.000197426
8.59539e-05
6.83735e-05
0.000156693
0.000104772
0.000133898
0.00018157
0.000238491
0.000303304
0.000378483
0.000469807
0.000587859
0.000749834
0.000972728
0.00126504
0.0016099
0.00197233
0.00230532
0.00257395
0.00276422
0.00290043
0.00301798
0.00309699
0.00314168
0.00319883
0.00327762
0.00338805
0.00353615
0.00372591
0.00394514
0.00418696
0.0044362
0.00466187
0.00477684
0.00480282
0.00457257
0.00414423
0.00323178
0.00187378
0.00074455
0.00026468
0.000114591
0.000121713
0.000284831
0.000165705
0.000194609
0.000253224
0.00032602
0.000410887
0.000511447
0.000636427
0.000800062
0.00101858
0.00129878
0.00162522
0.00195795
0.00224887
0.00246303
0.00259652
0.00267978
0.00270455
0.00269467
0.0026734
0.00266809
0.00268642
0.00273319
0.00280751
0.00290762
0.00303213
0.00318213
0.00335905
0.00356385
0.00379843
0.00405935
0.00430656
0.00442527
0.00441396
0.00408422
0.00319669
0.00141344
0.000423981
0.000146449
0.000135979
0.000437274
0.000235674
0.000261674
0.000330267
0.000418168
0.000522804
0.000649051
0.000807441
0.00101208
0.00127181
0.00157606
0.00188856
0.00216075
0.00235375
0.00244517
0.0024796
0.00245824
0.00238233
0.00232346
0.00229008
0.00227864
0.00228801
0.0023336
0.00239904
0.00249027
0.00260246
0.00273446
0.00288635
0.00305739
0.00324735
0.00345677
0.00367784
0.00391942
0.00417241
0.00428144
0.00407109
0.00286603
0.000828982
0.000205583
0.000128695
0.000602117
0.000310344
0.000330746
0.000407819
0.000509345
0.00063243
0.00078304
0.000971917
0.00120937
0.00149286
0.00179519
0.00207038
0.00225453
0.00232765
0.00234241
0.00227432
0.00217713
0.00208654
0.00203496
0.00201533
0.00201427
0.00205194
0.00211623
0.00219922
0.00230206
0.00242128
0.00255812
0.00271345
0.00288774
0.00307883
0.00328537
0.00349266
0.00369986
0.00391288
0.00413605
0.004253
0.00399815
0.00179034
0.00034818
0.000124778
0.000767361
0.00038532
0.000397842
0.000481594
0.000594872
0.000734369
0.000906616
0.00112094
0.00138145
0.00167382
0.00195948
0.00216467
0.00224105
0.0022515
0.00217293
0.00205129
0.00193525
0.00186586
0.00183837
0.00183428
0.00186503
0.00192748
0.0020064
0.00210119
0.0022114
0.00233743
0.00248181
0.00264726
0.00283566
0.00304679
0.00327048
0.00348633
0.00368759
0.00387743
0.00406391
0.00422767
0.00428607
0.00343282
0.000749279
0.000167034
0.000922543
0.000456266
0.000459338
0.000547725
0.000670543
0.000823779
0.0010138
0.00124732
0.00152139
0.00181081
0.00206222
0.00217286
0.00219484
0.00212906
0.00199609
0.00185362
0.00175557
0.00171322
0.00170208
0.00171655
0.00176721
0.00183339
0.00191173
0.0020038
0.0021115
0.0022389
0.00239126
0.00257387
0.00279048
0.00304084
0.00331802
0.00362761
0.00388987
0.00408844
0.00421463
0.00432813
0.00438715
0.00417261
0.00157369
0.000316195
0.00105924
0.000518949
0.000512542
0.000603092
0.000732892
0.000896636
0.00109979
0.0013459
0.00162576
0.00190687
0.00209245
0.00214612
0.00211754
0.00199716
0.00183665
0.00169741
0.00162568
0.00159904
0.00159553
0.00162056
0.00166828
0.00172331
0.00178832
0.0018665
0.00196256
0.00208312
0.00223586
0.00242913
0.00267085
0.00296572
0.00331001
0.00368574
0.00409515
0.00441141
0.00457508
0.00463824
0.0046501
0.00443708
0.00304107
0.000758775
0.0011713
0.000571448
0.000555184
0.00064553
0.000779539
0.000950202
0.00116156
0.00141384
0.00169159
0.00195209
0.00208041
0.00210067
0.00202855
0.00187369
0.0017034
0.00157907
0.00152229
0.00150213
0.00150003
0.00152062
0.00155359
0.00159026
0.00163593
0.00169544
0.0017754
0.00188382
0.00202991
0.00222442
0.0024792
0.00280558
0.00320971
0.00368297
0.00419058
0.00468649
0.00497391
0.0050827
0.00509935
0.00495174
0.00428587
0.00179245
0.0012552
0.000612604
0.000586186
0.000674026
0.000809287
0.000983111
0.00119775
0.00144993
0.00171945
0.00195495
0.00205005
0.00204582
0.00194032
0.00176718
0.00159729
0.001485
0.00143333
0.00141271
0.00140765
0.00141428
0.00142886
0.00144574
0.00147143
0.00151193
0.0015747
0.00166831
0.00180283
0.0019906
0.00224661
0.00258797
0.00303066
0.0035806
0.00421725
0.00489676
0.00538288
0.00556509
0.00557745
0.00532734
0.00482025
0.00298751
0.00130963
0.000642295
0.000605484
0.000688111
0.000820285
0.000991961
0.0012034
0.00145019
0.00171471
0.00193271
0.00200349
0.00198455
0.00186065
0.00168053
0.00151492
0.00140734
0.00135445
0.00132837
0.00131546
0.00130905
0.0013059
0.00130503
0.00131318
0.00133648
0.00138296
0.00146116
0.00158147
0.00175706
0.00200511
0.00234757
0.00280977
0.00341348
0.00415909
0.00499758
0.00578211
0.00614291
0.00620013
0.00591347
0.00549157
0.00416087
0.00133676
0.000661349
0.00061332
0.000688049
0.000817018
0.00098577
0.00119349
0.00143499
0.00168961
0.00188706
0.00194919
0.00192281
0.0017928
0.00161265
0.00145014
0.00134294
0.00128507
0.00125205
0.00122988
0.00121109
0.00119331
0.00117984
0.00117514
0.00118341
0.00121547
0.00127915
0.00138464
0.00154533
0.00177948
0.00211239
0.00257732
0.00321124
0.00403835
0.00503175
0.00609484
0.00672675
0.00686591
0.00651305
0.00596076
0.00516919
0.00133231
0.0006701
0.000612105
0.000681417
0.000804451
0.000966812
0.00116642
0.00139697
0.00163662
0.00182496
0.00188833
0.00186253
0.00173618
0.00156205
0.00140133
0.00129092
0.00122613
0.00118564
0.00115516
0.0011271
0.0010997
0.00107543
0.00106221
0.0010602
0.00107999
0.00113092
0.00122253
0.00136794
0.00158555
0.00190243
0.00235797
0.00300357
0.00389055
0.00503192
0.00633374
0.00733691
0.00764106
0.00725302
0.00655323
0.00615654
0.00131419
0.000671668
0.00060593
0.000665473
0.000779
0.000931635
0.00111989
0.00133718
0.0015634
0.00175015
0.00182182
0.00180453
0.00169008
0.00152612
0.00136761
0.00125174
0.00117878
0.00113085
0.00109369
0.00105949
0.00102624
0.00099599
0.000975108
0.0009677
0.000978179
0.00101869
0.00109839
0.00122984
0.00143084
0.00172874
0.00216673
0.00280759
0.00372694
0.00497719
0.0065066
0.00791994
0.00846111
0.00805422
0.00720132
0.00709845
0.00127763
0.000668854
0.000593162
0.000642382
0.000745889
0.000887268
0.00106232
0.00126492
0.00147746
0.00166278
0.00174961
0.0017471
0.00165226
0.00150248
0.00134767
0.00122562
0.00114393
0.00108858
0.00104596
0.00100802
0.000972006
0.000939214
0.000913979
0.000902921
0.000907683
0.000940536
0.0010109
0.00113074
0.00131685
0.00159554
0.00201203
0.00263795
0.00357174
0.00490722
0.0066376
0.00847229
0.00934759
0.00902463
0.00787217
0.00803713
0.00122592
0.000661642
0.000576638
0.000615547
0.000708076
0.000837033
0.000997649
0.00118451
0.00138328
0.00156397
0.00167035
0.00168728
0.00161832
0.00148857
0.00134252
0.0012164
0.00112318
0.00105921
0.00101146
0.000971008
0.000934198
0.000901309
0.000875267
0.000862152
0.000865065
0.000894198
0.000958822
0.00106947
0.00124116
0.00150186
0.00189541
0.0024995
0.00343276
0.00483178
0.00675148
0.00895837
0.0102526
0.0100756
0.0086316
0.00897268
0.00116259
0.000650233
0.00055803
0.000586919
0.000668094
0.000784042
0.000929577
0.00110001
0.00128412
0.00145809
0.00158109
0.00162282
0.0015838
0.00147936
0.0013462
0.00122041
0.00112188
0.00104703
0.000991144
0.000947454
0.00091033
0.0008786
0.000854217
0.000841652
0.000846212
0.000874519
0.000936568
0.00104168
0.00120264
0.00144393
0.00181391
0.0023921
0.00331328
0.00475474
0.00684198
0.00940348
0.0111962
0.0112254
0.00948662
0.00992007
0.00110537
0.000639522
0.000539013
0.00055818
0.000628046
0.000730896
0.00086124
0.00101502
0.00118372
0.00134933
0.00148169
0.00154946
0.0015415
0.00147096
0.00135604
0.00123401
0.00113016
0.00105022
0.00098921
0.000940299
0.000901021
0.000869776
0.000847349
0.000837224
0.000843633
0.000871649
0.00093258
0.00103467
0.00118923
0.0014158
0.00176159
0.0023118
0.00321258
0.00467788
0.00690636
0.00979276
0.0121556
0.0124408
0.0104404
0.0108806
0.00104989
0.000628745
0.000521105
0.000530722
0.00058953
0.000679632
0.000795128
0.000932454
0.0010853
0.00124061
0.00137612
0.00146481
0.0014885
0.00145208
0.00136779
0.00125954
0.00115348
0.00106564
0.000998177
0.000945826
0.000904921
0.000873735
0.000853035
0.000846683
0.000855679
0.000885593
0.000947052
0.0010456
0.00119153
0.0014066
0.00173031
0.00225179
0.00312608
0.00460012
0.00694408
0.0101503
0.0131058
0.0137472
0.0115041
0.011861
0.000993954
0.000617792
0.000504768
0.0005057
0.000553488
0.000631664
0.000733068
0.000854568
0.000991511
0.00113467
0.00126804
0.0013703
0.00142252
0.00141685
0.00136894
0.00128616
0.00119062
0.00110079
0.00102496
0.000966058
0.00092192
0.000890217
0.000871438
0.000869517
0.000881141
0.000913719
0.000976218
0.00107152
0.0012091
0.0014087
0.00171177
0.0022041
0.00304735
0.00451747
0.00695716
0.0104692
0.0140339
0.0151232
0.0126796
0.0128617
0.000938356
0.000605818
0.000489959
0.000483195
0.000520901
0.000587974
0.000676289
0.000782928
0.00090439
0.00103422
0.0011612
0.00126946
0.00134234
0.00136825
0.0013532
0.00130076
0.00122612
0.00114596
0.00107133
0.00100869
0.00095992
0.000925783
0.000906757
0.000906382
0.000918873
0.000952019
0.00101308
0.00110353
0.00123191
0.00141614
0.00169783
0.00216047
0.00296916
0.00442429
0.00694648
0.0107469
0.0149331
0.0165826
0.0139791
0.0138832
0.000884387
0.000592605
0.000476497
0.000463242
0.000492151
0.000549093
0.000625488
0.000718484
0.000825322
0.000941452
0.00105912
0.00116695
0.00125171
0.00130208
0.00131368
0.00129358
0.00124686
0.00118482
0.00111999
0.00106062
0.00101155
0.000975544
0.000954502
0.000952582
0.000963747
0.000994012
0.00105039
0.00113353
0.00125015
0.00141918
0.00168019
0.00211283
0.00288307
0.00431052
0.00688758
0.0109683
0.0157798
0.0181025
0.0154111
0.0149236
0.000833218
0.000578001
0.00046409
0.000445748
0.000467367
0.000515059
0.000580891
0.000661643
0.000755048
0.000857821
0.000964584
0.00106735
0.0011562
0.00122144
0.00125682
0.00126272
0.00124273
0.00120319
0.00115496
0.0011053
0.00106074
0.00102565
0.00100323
0.000997983
0.0010063
0.00103117
0.00107959
0.00115199
0.00125736
0.00141283
0.00165303
0.00205517
0.00278315
0.00417065
0.00677746
0.0111058
0.0165589
0.0196574
0.0170038
0.0159784
0.000785785
0.000561944
0.000452376
0.000430442
0.000446232
0.000485789
0.000542409
0.000612391
0.000693763
0.00078405
0.00087945
0.000974361
0.00106158
0.00113342
0.00118366
0.0012097
0.00121316
0.0011967
0.00116474
0.0011286
0.00109268
0.00106162
0.00103959
0.00103115
0.00103617
0.00105434
0.00109299
0.00115682
0.00125167
0.00139244
0.0016123
0.0019837
0.00266623
0.00400157
0.0066106
0.0111567
0.0172569
0.0212137
0.0187663
0.0170436
0.000742711
0.000544481
0.00044097
0.000416939
0.000428276
0.000460983
0.000509725
0.000570413
0.000641246
0.000720252
0.000804639
0.000890416
0.000972383
0.00104469
0.00110197
0.00114076
0.00116029
0.00116273
0.00115106
0.0011268
0.00109918
0.00107388
0.00105417
0.00104415
0.00104658
0.0010596
0.00109026
0.00114495
0.00122895
0.00135615
0.00155663
0.0018975
0.00253158
0.00380165
0.00637704
0.0111215
0.0178464
0.0227595
0.0206958
0.0181094
0.000704333
0.00052574
0.000429499
0.000404799
0.000412967
0.000440193
0.000482372
0.000535211
0.000597009
0.000666101
0.000740338
0.000816778
0.000891625
0.000960497
0.00101904
0.00106386
0.00109326
0.00110748
0.00110863
0.00110114
0.00108443
0.0010645
0.00104718
0.00103649
0.00103681
0.00104537
0.00106895
0.00111561
0.00119017
0.00130521
0.00148757
0.00179832
0.00238182
0.00357267
0.00607067
0.0109263
0.0182399
0.0242577
0.0227707
0.0191673
0.000670833
0.000505932
0.000417628
0.000393569
0.000399762
0.00042291
0.000459818
0.0005062
0.000560426
0.000621023
0.000686242
0.000753825
0.000820925
0.000884239
0.000940362
0.000986322
0.00102017
0.00104134
0.00105055
0.00104963
0.00104366
0.00103169
0.00101873
0.00100892
0.00100747
0.00101339
0.00103222
0.00107205
0.00113887
0.0012433
0.00140891
0.00169002
0.00222001
0.00331854
0.00570061
0.0105867
0.0184072
0.025662
0.0249834
0.0202048
0.000642284
0.000485302
0.000405087
0.00038283
0.000388163
0.000408638
0.000441548
0.000482817
0.000530874
0.000584371
0.000641821
0.000701409
0.00076093
0.000817851
0.000869526
0.00091352
0.000948003
0.00097207
0.000985847
0.000990246
0.000988077
0.000981831
0.000972743
0.000965218
0.000963858
0.000968721
0.000984872
0.00102
0.00108062
0.00117598
0.00132638
0.00157889
0.0020533
0.00304789
0.00527295
0.0100858
0.0184155
0.0269135
0.027288
0.0212128
0.000619014
0.000464245
0.000391736
0.000372259
0.000377783
0.000396978
0.000427159
0.000464629
0.000507872
0.000555632
0.000606596
0.000659253
0.000711838
0.000762372
0.000808793
0.000849165
0.000881935
0.000906173
0.000921723
0.00092918
0.000929753
0.000926776
0.000920882
0.000915571
0.000914928
0.000919484
0.000934331
0.000966603
0.00102251
0.0011104
0.00124752
0.00147336
0.00189193
0.00277426
0.00480136
0.00941541
0.0180148
0.0279019
0.0296462
0.0221815
0.000601238
0.000442991
0.000377507
0.00036167
0.000368429
0.000387756
0.000416536
0.00045156
0.000491353
0.000534726
0.000580512
0.000627428
0.000674032
0.000718754
0.00075998
0.0007962
0.000826172
0.000849102
0.000864764
0.000873546
0.000876365
0.000875216
0.000872162
0.000869125
0.000869584
0.000874861
0.000889818
0.000920933
0.000973606
0.00105589
0.00118234
0.00138486
0.00174996
0.00251785
0.00431596
0.00861959
0.0172946
0.0285536
0.0319882
0.0231056
0.000589899
0.00042206
0.000362579
0.000351151
0.000360303
0.000381353
0.000410368
0.000444535
0.000482342
0.000522716
0.000564712
0.000607273
0.000649175
0.000689157
0.000725966
0.000758445
0.000785659
0.000807005
0.000822311
0.000831887
0.000836557
0.000837644
0.000837095
0.000836969
0.000839316
0.000846911
0.000863798
0.000895333
0.000947247
0.00102769
0.00114925
0.00133777
0.00166002
0.0023168
0.00386516
0.00777243
0.0162904
0.0288742
0.0342073
0.0239867
0.000590182
0.000401815
0.000347394
0.000341447
0.000354913
0.000380037
0.000410895
0.000445696
0.000483407
0.000523032
0.000563481
0.000603647
0.000642684
0.00067966
0.000713655
0.000743833
0.000769534
0.000790362
0.000806243
0.000817478
0.000824798
0.000829324
0.000832569
0.000836368
0.00084255
0.000854176
0.000874942
0.000909688
0.000964399
0.0010467
0.00116819
0.00134955
0.00164347
0.00222727
0.00358324
0.00702259
0.0151541
0.0290149
0.0361349
0.0248407
0.000606366
0.000384277
0.000333308
0.000335329
0.00035574
0.000384962
0.000419283
0.00045685
0.000496444
0.000537176
0.000578291
0.000619003
0.000658455
0.000695856
0.000730459
0.00076162
0.000788867
0.000811962
0.000830946
0.000846181
0.000858422
0.000868805
0.000878773
0.000890188
0.000905438
0.000927179
0.000958783
0.00100496
0.0010721
0.00116851
0.00130488
0.00150004
0.00179483
0.0023303
0.00353676
0.00668015
0.0144027
0.0291063
0.0375341
0.0257205
0.000644215
0.000369958
0.000326522
0.000338649
0.000367761
0.000406023
0.000448815
0.000494094
0.000540691
0.000587843
0.000634956
0.000681522
0.000726934
0.000770599
0.000811998
0.000850721
0.000886545
0.000919444
0.000949608
0.000977525
0.00100405
0.00103047
0.00105832
0.00108963
0.00112699
0.00117338
0.00123258
0.00130991
0.0014126
0.0015511
0.00173861
0.00199529
0.00235453
0.00293646
0.00411966
0.00699346
0.0142176
0.0294661
0.0382253
0.0267208
0.000714791
0.000370109
0.000336107
0.000365843
0.000416028
0.00047561
0.000540045
0.000607123
0.000675679
0.000745019
0.000814696
0.000884413
0.000953901
0.00102287
0.00109112
0.00115853
0.00122526
0.00129155
0.00135797
0.00142547
0.00149544
0.00156965
0.0016504
0.00174054
0.00184361
0.00196392
0.00210705
0.00228057
0.00249371
0.00276352
0.00310677
0.00356336
0.00414462
0.00501943
0.0064201
0.00940958
0.0161464
0.0310085
0.0385604
0.0273589
0.000817841
0.000396568
0.000402305
0.000491273
0.00060517
0.000732682
0.000869855
0.00101434
0.0011645
0.0013192
0.00147796
0.00164068
0.00180758
0.00197886
0.00215503
0.00233658
0.0025247
0.00272035
0.00292551
0.00314241
0.00337435
0.00362451
0.00389778
0.00419879
0.00453447
0.00491113
0.00533889
0.00582931
0.00639317
0.0070638
0.00784836
0.00883811
0.00996694
0.0115396
0.0134604
0.0169634
0.0229099
0.0354463
0.0394394
0.0276407
0.00105537
0.000535892
0.000766614
0.00114022
0.00155608
0.0020093
0.00250151
0.00302825
0.00358229
0.00415701
0.00474947
0.00535811
0.00598367
0.00662607
0.00728728
0.00796774
0.00867102
0.00939857
0.0101561
0.0109458
0.0117758
0.0126476
0.0135726
0.0145503
0.0155975
0.0167092
0.0179099
0.0191927
0.0205812
0.0220996
0.0237204
0.0256028
0.0274515
0.0300021
0.0325196
0.036671
0.0403518
0.0451814
0.042579
0.0276005
0.00167301
0.00125876
0.0029852
0.00526659
0.00750069
0.00977674
0.0121569
0.0146216
0.0171248
0.0196205
0.0220881
0.024514
0.0269004
0.0292412
0.0315439
0.0338022
0.036028
0.0382154
0.0403841
0.0425209
0.0446564
0.046764
0.0488915
0.0509852
0.0531262
0.0552142
0.057389
0.0594726
0.0616872
0.0637672
0.0659172
0.067998
0.0699156
0.0722693
0.0726582
0.0710935
0.0659657
0.0549011
0.0452838
0.0257288
0.00117065
0.00211458
0.00342873
0.00473602
0.00597366
0.00710695
0.00815938
0.00915821
0.0101244
0.0110639
0.0119834
0.0128793
0.01376
0.0146178
0.015467
0.0162927
0.0171176
0.0179152
0.0187221
0.0194954
0.0202909
0.0210434
0.0218351
0.0225712
0.0233673
0.0240923
0.0248994
0.0256202
0.0264378
0.0271591
0.0279557
0.0286359
0.0293049
0.0298793
0.0302922
0.0308649
0.0308301
0.0303309
0.0287742
0.0235476
)
;

boundaryField
{
    movingWall
    {
        type            epsilonWallFunction;
        value           nonuniform List<scalar> 
40
(
0.00117065
0.00211458
0.00342873
0.00473602
0.00597366
0.00710695
0.00815938
0.00915821
0.0101244
0.0110639
0.0119834
0.0128793
0.01376
0.0146178
0.015467
0.0162927
0.0171176
0.0179152
0.0187221
0.0194954
0.0202909
0.0210434
0.0218351
0.0225712
0.0233673
0.0240923
0.0248994
0.0256202
0.0264378
0.0271591
0.0279557
0.0286359
0.0293049
0.0298793
0.0302922
0.0308649
0.0308301
0.0303309
0.0287742
0.0235476
)
;
    }
    fixedWalls
    {
        type            epsilonWallFunction;
        value           nonuniform List<scalar> 
120
(
1.30991e-05
6.38963e-05
0.000156693
0.000284831
0.000437274
0.000602117
0.000767361
0.000922543
0.00105924
0.0011713
0.0012552
0.00130963
0.00133676
0.00133231
0.00131419
0.00127763
0.00122592
0.00116259
0.00110537
0.00104989
0.000993954
0.000938356
0.000884387
0.000833218
0.000785785
0.000742711
0.000704333
0.000670833
0.000642284
0.000619014
0.000601238
0.000589899
0.000590182
0.000606366
0.000644215
0.000714791
0.000817841
0.00105537
0.00167301
0.00117065
1.72727e-05
6.83735e-05
0.000121713
0.000135979
0.000128695
0.000124778
0.000167034
0.000316195
0.000758775
0.00179245
0.00298751
0.00416087
0.00516919
0.00615654
0.00709845
0.00803713
0.00897268
0.00992007
0.0108806
0.011861
0.0128617
0.0138832
0.0149236
0.0159784
0.0170436
0.0181094
0.0191673
0.0202048
0.0212128
0.0221815
0.0231056
0.0239867
0.0248407
0.0257205
0.0267208
0.0273589
0.0276407
0.0276005
0.0257288
0.0235476
1.30991e-05
5.89242e-05
0.00011323
0.000165351
0.000215407
0.000264773
0.000312772
0.000357965
0.000400037
0.000441689
0.000488199
0.000545938
0.000622232
0.000729235
0.000879679
0.00108671
0.001359
0.00169208
0.00206522
0.00245146
0.00283365
0.00321155
0.00359454
0.00400056
0.00446111
0.00503575
0.00557548
0.00600166
0.00622623
0.00630896
0.00608101
0.00546738
0.00441588
0.00307854
0.00189307
0.000965138
0.00043166
0.000192135
7.65261e-05
1.72727e-05
)
;
    }
    frontAndBack
    {
        type            empty;
    }
}


// ************************************************************************* //
