/*--------------------------------*- C++ -*----------------------------------*\
  =========                 |
  \\      /  F ield         | OpenFOAM: The Open Source CFD Toolbox
   \\    /   O peration     | Website:  https://openfoam.org
    \\  /    A nd           | Version:  13
     \\/     M anipulation  |
\*---------------------------------------------------------------------------*/
FoamFile
{
    format      ascii;
    class       volScalarField;
    location    "2";
    object      nut;
}
// * * * * * * * * * * * * * * * * * * * * * * * * * * * * * * * * * * * * * //

dimensions      [0 2 -1 0 0 0 0];

internalField   nonuniform List<scalar> 
1600
(
7.17558e-09
3.23046e-08
6.21318e-08
9.08896e-08
1.18646e-07
1.46075e-07
1.72722e-07
1.97762e-07
2.21092e-07
2.4436e-07
2.70559e-07
3.03195e-07
3.46176e-07
4.06104e-07
4.89972e-07
6.05223e-07
7.56649e-07
9.41351e-07
1.14727e-06
1.35927e-06
1.56861e-06
1.77593e-06
1.9867e-06
2.21098e-06
2.46623e-06
2.78531e-06
3.08358e-06
3.32109e-06
3.44859e-06
3.49658e-06
3.38231e-06
3.05015e-06
2.47708e-06
1.72885e-06
1.06358e-06
5.40048e-07
2.39736e-07
1.0567e-07
4.17748e-08
9.41466e-09
3.50331e-08
1.97509e-06
4.49602e-06
6.0741e-06
7.27493e-06
8.25743e-06
8.97962e-06
9.39712e-06
9.54261e-06
9.5563e-06
9.51627e-06
9.47095e-06
9.41972e-06
9.54559e-06
9.94736e-06
1.07206e-05
1.1914e-05
1.35214e-05
1.54967e-05
1.76767e-05
1.99207e-05
2.21394e-05
2.42449e-05
2.61433e-05
2.77064e-05
2.88242e-05
2.95782e-05
3.01963e-05
3.02833e-05
3.02469e-05
2.94026e-05
2.7476e-05
2.44926e-05
1.97029e-05
1.5054e-05
1.01843e-05
6.05166e-06
3.19045e-06
1.34993e-06
3.71578e-08
8.60566e-08
5.62301e-06
1.31248e-05
1.7425e-05
2.00065e-05
2.15131e-05
2.21089e-05
2.19494e-05
2.13194e-05
2.05783e-05
2.01271e-05
2.01107e-05
2.05179e-05
2.12177e-05
2.22766e-05
2.37665e-05
2.56816e-05
2.77091e-05
2.94967e-05
3.13931e-05
3.34844e-05
3.53121e-05
3.68886e-05
3.81464e-05
3.90125e-05
3.93464e-05
3.94571e-05
3.91678e-05
3.82533e-05
3.68981e-05
3.5625e-05
3.25354e-05
2.93941e-05
2.3814e-05
1.73125e-05
1.26477e-05
8.55803e-06
6.02019e-06
3.13414e-06
6.60355e-08
1.57016e-07
9.29493e-06
2.09438e-05
2.7091e-05
3.03116e-05
3.17367e-05
3.18026e-05
3.09248e-05
2.96906e-05
2.87264e-05
2.8414e-05
2.87317e-05
2.9471e-05
3.04994e-05
3.18194e-05
3.33492e-05
3.47597e-05
3.64073e-05
3.81924e-05
3.99806e-05
4.15766e-05
4.29502e-05
4.40574e-05
4.48333e-05
4.51918e-05
4.52554e-05
4.49545e-05
4.41646e-05
4.27852e-05
4.06761e-05
3.819e-05
3.50029e-05
3.1451e-05
2.66702e-05
2.03412e-05
1.30799e-05
8.26073e-06
5.30999e-06
3.18074e-06
7.35691e-08
2.41807e-07
1.28416e-05
2.80709e-05
3.56336e-05
3.9177e-05
4.03182e-05
3.97953e-05
3.82954e-05
3.66521e-05
3.55958e-05
3.53936e-05
3.58353e-05
3.65926e-05
3.75279e-05
3.87803e-05
3.97639e-05
4.09087e-05
4.27816e-05
4.45842e-05
4.62762e-05
4.77714e-05
4.92226e-05
5.01557e-05
5.08632e-05
5.12261e-05
5.11812e-05
5.06212e-05
4.95356e-05
4.78156e-05
4.54758e-05
4.28136e-05
3.93345e-05
3.50468e-05
3.01342e-05
2.44918e-05
1.72634e-05
8.70765e-06
4.1988e-06
2.1831e-06
6.96313e-08
3.33827e-07
1.61277e-05
3.44703e-05
4.32119e-05
4.69266e-05
4.77079e-05
4.66073e-05
4.45681e-05
4.25984e-05
4.14353e-05
4.1194e-05
4.14961e-05
4.23175e-05
4.29172e-05
4.32186e-05
4.45079e-05
4.62795e-05
4.83175e-05
4.99939e-05
5.1678e-05
5.37736e-05
5.52898e-05
5.64667e-05
5.74837e-05
5.80553e-05
5.80604e-05
5.74747e-05
5.62396e-05
5.42106e-05
5.14249e-05
4.82986e-05
4.45273e-05
3.98052e-05
3.4297e-05
2.81443e-05
2.15694e-05
1.32539e-05
4.53739e-06
1.4804e-06
6.82276e-08
4.26296e-07
1.9045e-05
4.00856e-05
4.98833e-05
5.37251e-05
5.41506e-05
5.25198e-05
5.00024e-05
4.77196e-05
4.63684e-05
4.59487e-05
4.62078e-05
4.64632e-05
4.65022e-05
4.73384e-05
4.89165e-05
5.11623e-05
5.28577e-05
5.4643e-05
5.71677e-05
5.93411e-05
6.13683e-05
6.32526e-05
6.46834e-05
6.55879e-05
6.59662e-05
6.5741e-05
6.48513e-05
6.31922e-05
6.0404e-05
5.6869e-05
5.32419e-05
4.83715e-05
4.1923e-05
3.39331e-05
2.52648e-05
1.64462e-05
7.01606e-06
1.6625e-06
9.24451e-08
5.13258e-07
2.15305e-05
4.48707e-05
5.56703e-05
5.96673e-05
5.9799e-05
5.77105e-05
5.47609e-05
5.21433e-05
5.05228e-05
4.98798e-05
4.97682e-05
4.96095e-05
4.98861e-05
5.09653e-05
5.2961e-05
5.52239e-05
5.67565e-05
5.93563e-05
6.24842e-05
6.51271e-05
6.75175e-05
6.95521e-05
7.10489e-05
7.19628e-05
7.23084e-05
7.21362e-05
7.14473e-05
7.02206e-05
6.82406e-05
6.47057e-05
5.98871e-05
5.55231e-05
5.00674e-05
4.27293e-05
3.26454e-05
2.1452e-05
1.08482e-05
2.33181e-06
1.75722e-07
5.89953e-07
2.35808e-05
4.87815e-05
6.05907e-05
6.48214e-05
6.47628e-05
6.23095e-05
5.89715e-05
5.59865e-05
5.40076e-05
5.30621e-05
5.26972e-05
5.24809e-05
5.28169e-05
5.41083e-05
5.66123e-05
5.86029e-05
6.05521e-05
6.39835e-05
6.73762e-05
7.01781e-05
7.28169e-05
7.50293e-05
7.67086e-05
7.77609e-05
7.8181e-05
7.79568e-05
7.70872e-05
7.56602e-05
7.39191e-05
7.14738e-05
6.71867e-05
6.13082e-05
5.60479e-05
4.97545e-05
4.0426e-05
2.77428e-05
1.44484e-05
3.16487e-06
4.22785e-07
6.52848e-07
2.5158e-05
5.18562e-05
6.46773e-05
6.92472e-05
6.91303e-05
6.64231e-05
6.27485e-05
5.93991e-05
5.70273e-05
5.58339e-05
5.53308e-05
5.48974e-05
5.5393e-05
5.69347e-05
5.96814e-05
6.16072e-05
6.40869e-05
6.7927e-05
7.15254e-05
7.467e-05
7.7589e-05
7.99745e-05
8.17838e-05
8.30498e-05
8.3709e-05
8.36826e-05
8.2935e-05
8.14561e-05
7.92396e-05
7.66409e-05
7.35325e-05
6.79557e-05
6.15768e-05
5.59847e-05
4.75951e-05
3.49028e-05
2.00693e-05
6.3973e-06
9.92849e-07
6.99924e-07
2.62659e-05
5.41481e-05
6.79794e-05
7.30113e-05
7.29849e-05
7.01543e-05
6.6257e-05
6.26528e-05
5.96585e-05
5.82626e-05
5.75331e-05
5.70743e-05
5.75111e-05
5.94263e-05
6.22736e-05
6.43586e-05
6.73364e-05
7.14367e-05
7.5292e-05
7.85346e-05
8.146e-05
8.39485e-05
8.60092e-05
8.75725e-05
8.85173e-05
8.87468e-05
8.8193e-05
8.68314e-05
8.469e-05
8.18208e-05
7.85219e-05
7.42321e-05
6.68831e-05
6.10473e-05
5.39388e-05
4.14507e-05
2.51994e-05
8.34805e-06
1.64463e-06
7.30407e-07
2.69401e-05
5.57344e-05
7.06271e-05
7.63761e-05
7.6697e-05
7.39527e-05
6.9873e-05
6.56709e-05
6.19814e-05
6.06024e-05
5.94746e-05
5.89037e-05
5.93435e-05
6.13997e-05
6.43692e-05
6.67135e-05
6.99631e-05
7.40663e-05
7.77925e-05
8.10839e-05
8.41589e-05
8.68739e-05
8.92314e-05
9.11231e-05
9.2439e-05
9.30483e-05
9.28226e-05
9.16776e-05
8.96137e-05
8.6718e-05
8.3098e-05
7.91668e-05
7.29909e-05
6.51746e-05
5.91208e-05
4.77615e-05
3.10696e-05
1.17873e-05
2.28729e-06
7.45486e-07
2.72467e-05
5.67391e-05
7.27391e-05
7.90394e-05
7.96684e-05
7.6999e-05
7.27486e-05
6.82312e-05
6.43143e-05
6.27301e-05
6.1261e-05
6.05282e-05
6.09153e-05
6.28998e-05
6.58995e-05
6.85123e-05
7.1732e-05
7.56489e-05
7.93462e-05
8.27246e-05
8.57716e-05
8.85413e-05
9.12105e-05
9.34642e-05
9.52499e-05
9.64082e-05
9.67248e-05
9.60056e-05
9.41654e-05
9.12823e-05
8.75706e-05
8.3234e-05
7.83076e-05
6.95723e-05
6.32404e-05
5.30118e-05
3.61323e-05
1.46744e-05
2.8376e-06
7.42764e-07
2.70804e-05
5.68124e-05
7.34103e-05
8.04512e-05
8.16757e-05
7.94039e-05
7.53307e-05
7.08022e-05
6.65808e-05
6.47051e-05
6.2982e-05
6.19929e-05
6.22434e-05
6.39375e-05
6.68534e-05
6.96822e-05
7.27243e-05
7.63863e-05
7.99503e-05
8.32495e-05
8.63193e-05
8.89591e-05
9.17388e-05
9.43794e-05
9.67184e-05
9.86081e-05
9.97306e-05
9.97259e-05
9.83472e-05
9.55755e-05
9.16561e-05
8.69479e-05
8.19307e-05
7.43371e-05
6.64965e-05
5.7648e-05
4.0956e-05
1.77691e-05
3.37958e-06
7.32375e-07
2.67804e-05
5.66417e-05
7.42017e-05
8.21562e-05
8.40048e-05
8.21293e-05
7.82526e-05
7.37216e-05
6.91387e-05
6.68295e-05
6.47142e-05
6.34293e-05
6.34095e-05
6.46676e-05
6.7267e-05
7.01404e-05
7.3036e-05
7.63486e-05
7.96576e-05
8.27561e-05
8.56537e-05
8.82601e-05
9.08598e-05
9.38136e-05
9.67403e-05
9.95162e-05
0.000101713
0.000102755
0.000102172
9.97691e-05
9.57815e-05
9.0777e-05
8.52788e-05
7.85267e-05
6.94133e-05
6.14216e-05
4.51332e-05
2.05064e-05
3.89483e-06
7.11486e-07
2.6254e-05
5.60844e-05
7.45266e-05
8.34347e-05
8.61233e-05
8.48774e-05
8.13562e-05
7.68803e-05
7.20148e-05
6.90609e-05
6.66189e-05
6.49572e-05
6.45233e-05
6.54091e-05
6.73605e-05
6.9951e-05
7.27263e-05
7.56595e-05
7.86029e-05
8.13875e-05
8.40097e-05
8.64789e-05
8.88922e-05
9.19872e-05
9.54643e-05
9.92091e-05
0.000102691
0.000105056
0.000105583
0.000103802
9.98287e-05
9.43879e-05
8.83227e-05
8.19723e-05
7.2119e-05
6.44675e-05
4.851e-05
2.32706e-05
4.4104e-06
6.82123e-07
2.54347e-05
5.50341e-05
7.42194e-05
8.40955e-05
8.76952e-05
8.72044e-05
8.42084e-05
7.99635e-05
7.51791e-05
7.15218e-05
6.8786e-05
6.66115e-05
6.5593e-05
6.58976e-05
6.73429e-05
6.94592e-05
7.19021e-05
7.44577e-05
7.70149e-05
7.94338e-05
8.17127e-05
8.39468e-05
8.62397e-05
8.92793e-05
9.31132e-05
9.7756e-05
0.000102696
0.000106911
0.000108893
0.000107947
0.000104042
9.80466e-05
9.12133e-05
8.43764e-05
7.49607e-05
6.68547e-05
5.1317e-05
2.56998e-05
4.923e-06
6.46097e-07
2.45653e-05
5.37105e-05
7.35256e-05
8.43863e-05
8.89738e-05
8.9353e-05
8.70254e-05
8.317e-05
7.86466e-05
7.448e-05
7.13364e-05
6.86822e-05
6.70381e-05
6.65547e-05
6.73798e-05
6.88389e-05
7.075e-05
7.29717e-05
7.51488e-05
7.72155e-05
7.91864e-05
8.11861e-05
8.33635e-05
8.62359e-05
9.05279e-05
9.61386e-05
0.000102443
0.000108261
0.000111935
0.000111931
0.000108204
0.000101607
9.3941e-05
8.63656e-05
7.7462e-05
6.86762e-05
5.37292e-05
2.79921e-05
5.44338e-06
6.13706e-07
2.34677e-05
5.21488e-05
7.25015e-05
8.43397e-05
8.99675e-05
9.13085e-05
8.97775e-05
8.64755e-05
8.22867e-05
7.80262e-05
7.43982e-05
7.14701e-05
6.90645e-05
6.78894e-05
6.77861e-05
6.87309e-05
7.00881e-05
7.15146e-05
7.32323e-05
7.50208e-05
7.68137e-05
7.87738e-05
8.09033e-05
8.39833e-05
8.89206e-05
9.52086e-05
0.000102333
0.000109138
0.000114129
0.000115388
0.000112115
0.000105156
9.65685e-05
8.81156e-05
7.95208e-05
7.00046e-05
5.57354e-05
3.00208e-05
5.97023e-06
5.82285e-07
2.22038e-05
5.03392e-05
7.11809e-05
8.39882e-05
9.0682e-05
9.30532e-05
9.24263e-05
8.98307e-05
8.61096e-05
8.19929e-05
7.80985e-05
7.48698e-05
7.21038e-05
7.00465e-05
6.9023e-05
6.90076e-05
6.98807e-05
7.10558e-05
7.23418e-05
7.3694e-05
7.52647e-05
7.72163e-05
7.92322e-05
8.24411e-05
8.77321e-05
9.46004e-05
0.000102714
0.000110786
0.000116801
0.000119072
0.000116121
0.000108635
9.895e-05
8.96808e-05
8.10116e-05
7.10792e-05
5.74148e-05
3.19045e-05
6.50868e-06
5.50599e-07
2.08916e-05
4.83575e-05
6.95646e-05
8.33887e-05
9.11292e-05
9.45712e-05
9.49319e-05
9.31681e-05
9.00672e-05
8.63006e-05
8.24212e-05
7.88062e-05
7.61653e-05
7.33982e-05
7.15404e-05
7.05642e-05
7.03293e-05
7.09924e-05
7.20177e-05
7.32145e-05
7.47114e-05
7.66608e-05
7.86642e-05
8.2172e-05
8.78128e-05
9.50836e-05
0.000103845
0.000112782
0.000119832
0.00012277
0.000120011
0.000111872
0.000101042
9.08025e-05
8.19239e-05
7.18738e-05
5.87837e-05
3.3617e-05
7.05773e-06
5.19138e-07
1.96198e-05
4.62945e-05
6.77514e-05
8.25258e-05
9.13103e-05
9.58473e-05
9.72564e-05
9.6425e-05
9.40829e-05
9.08505e-05
8.7239e-05
8.35339e-05
8.06189e-05
7.78741e-05
7.54689e-05
7.38083e-05
7.28293e-05
7.24651e-05
7.27319e-05
7.35909e-05
7.50656e-05
7.71999e-05
7.94476e-05
8.33436e-05
8.92561e-05
9.67853e-05
0.000105871
0.000115265
0.000122948
0.000126362
0.000123614
0.000114931
0.000102984
9.14294e-05
8.24118e-05
7.24464e-05
5.99023e-05
3.52294e-05
7.61867e-06
4.88652e-07
1.84345e-05
4.42334e-05
6.58146e-05
8.14178e-05
9.12283e-05
9.68676e-05
9.93644e-05
9.9541e-05
9.80717e-05
9.55305e-05
9.2405e-05
8.90872e-05
8.57868e-05
8.32581e-05
8.06996e-05
7.85493e-05
7.70731e-05
7.62105e-05
7.59842e-05
7.64289e-05
7.76764e-05
7.98623e-05
8.2147e-05
8.60716e-05
9.20826e-05
9.96397e-05
0.000108741
0.000118333
0.000126223
0.000129689
0.000126858
0.000117664
0.000104576
9.19968e-05
8.22759e-05
7.27977e-05
6.07937e-05
3.67334e-05
8.18952e-06
4.59796e-07
1.73609e-05
4.22422e-05
6.38141e-05
8.00801e-05
9.09136e-05
9.76275e-05
0.000101226
0.00010246
0.00010195
0.000100223
9.77334e-05
9.48753e-05
9.17216e-05
8.89599e-05
8.67605e-05
8.45565e-05
8.28426e-05
8.16356e-05
8.10673e-05
8.1193e-05
8.21654e-05
8.42927e-05
8.6549e-05
9.02443e-05
9.61073e-05
0.000103505
0.000112479
0.000121796
0.00012928
0.000132641
0.00012979
0.00011994
0.000105701
9.20148e-05
8.18395e-05
7.29998e-05
6.1537e-05
3.8126e-05
8.76854e-06
4.33082e-07
1.64128e-05
4.03754e-05
6.18123e-05
7.85746e-05
9.03788e-05
9.81267e-05
0.000102819
0.000105135
0.000105642
0.000104821
0.000103092
0.000100818
9.82824e-05
9.55903e-05
9.32068e-05
9.13126e-05
8.95087e-05
8.83421e-05
8.75808e-05
8.74633e-05
8.8164e-05
9.01003e-05
9.22473e-05
9.55608e-05
0.000101079
0.000108167
0.00011649
0.000125044
0.000132129
0.000135373
0.000132178
0.000121677
0.000106361
9.16905e-05
8.13802e-05
7.29968e-05
6.2128e-05
3.94327e-05
9.35293e-06
4.08848e-07
1.55976e-05
3.86753e-05
5.9871e-05
7.69756e-05
8.9651e-05
9.83758e-05
0.000104133
0.000107532
0.000109085
0.000109231
0.000108353
0.000106791
0.00010486
0.000102571
0.000100407
9.84371e-05
9.68998e-05
9.5468e-05
9.47972e-05
9.46792e-05
9.5185e-05
9.67669e-05
9.87612e-05
0.000101584
0.000106466
0.000112946
0.000120416
0.000128271
0.000134828
0.000137547
0.000133917
0.00012279
0.000106485
9.08815e-05
8.00727e-05
7.24462e-05
6.25594e-05
4.07054e-05
9.93779e-06
3.87276e-07
1.49179e-05
3.71745e-05
5.80502e-05
7.53636e-05
8.87782e-05
9.84042e-05
0.000105177
0.000109635
0.000112239
0.000113382
0.000113411
0.000112636
0.000111338
0.000109757
0.00010781
0.000106085
0.000104523
0.00010339
0.000102268
0.000101916
0.000102318
0.000103607
0.00010542
0.000107772
0.000111931
0.000117674
0.000124328
0.000131312
0.000136986
0.000139024
0.0001349
0.000123188
0.000106099
8.98294e-05
7.88215e-05
7.16951e-05
6.28084e-05
4.19641e-05
1.05179e-05
3.68459e-07
1.43749e-05
3.58983e-05
5.64073e-05
7.38244e-05
8.78297e-05
9.82653e-05
0.000105984
0.000111457
0.000115089
0.00011723
0.000118189
0.000118243
0.000117648
0.000116631
0.000115374
0.000113792
0.000112403
0.000111234
0.000110491
0.000109732
0.00010972
0.000110539
0.000112054
0.000113967
0.000117308
0.000122215
0.000127918
0.000133763
0.000138385
0.000139624
0.000135006
0.000122859
0.000105166
8.8318e-05
7.72707e-05
7.11677e-05
6.28482e-05
4.32047e-05
1.1087e-05
3.52423e-07
1.39703e-05
3.48687e-05
5.49999e-05
7.2449e-05
8.68976e-05
9.80409e-05
0.000106621
0.00011304
0.00011765
0.000120758
0.000122633
0.000123524
0.000123656
0.000123238
0.000122453
0.000121459
0.000120203
0.000119009
0.000118169
0.000117575
0.000117205
0.000117538
0.000118581
0.000119892
0.000122332
0.000126201
0.000130737
0.000135297
0.000138729
0.000139085
0.000134027
0.000121686
0.000103638
8.62954e-05
7.52032e-05
6.95323e-05
6.25481e-05
4.44243e-05
1.16397e-05
3.39329e-07
1.37104e-05
3.41109e-05
5.38909e-05
7.13374e-05
8.60965e-05
9.7841e-05
0.000107179
0.000114449
0.000119952
0.000123954
0.00012669
0.000128375
0.000129211
0.000129383
0.000129063
0.000128404
0.000127543
0.00012651
0.000125446
0.000124771
0.000124076
0.00012391
0.000124368
0.000125101
0.000126614
0.000129159
0.000132325
0.000135459
0.000137584
0.000137004
0.000131604
0.000119416
0.00010141
8.38418e-05
7.28773e-05
6.79282e-05
6.18662e-05
4.56151e-05
1.21708e-05
3.29307e-07
1.36162e-05
3.36659e-05
5.31599e-05
7.06055e-05
8.55605e-05
9.77864e-05
0.000107744
0.000115719
0.00012197
0.000126729
0.0001302
0.000132571
0.000134017
0.000134704
0.000134787
0.000134407
0.000133695
0.000132757
0.000131652
0.000130761
0.000129858
0.000129075
0.000128704
0.000128744
0.000129211
0.00013031
0.00013194
0.00013355
0.000134289
0.000132743
0.000127137
0.000115553
9.81365e-05
8.07502e-05
6.9966e-05
6.57669e-05
6.10721e-05
4.67177e-05
1.26773e-05
3.22747e-07
1.36966e-05
3.35891e-05
5.29153e-05
7.03872e-05
8.54053e-05
9.79139e-05
0.000108247
0.000116671
0.000123415
0.000128688
0.000132653
0.000135491
0.000137356
0.000138391
0.000138733
0.000138509
0.000137836
0.000136812
0.00013549
0.000134227
0.000132883
0.000131501
0.000130282
0.000129462
0.000128896
0.000128495
0.000128439
0.000128422
0.000127609
0.000124924
0.000118991
0.000108447
9.28807e-05
7.6781e-05
6.62319e-05
6.32082e-05
6.04635e-05
4.76516e-05
1.31603e-05
3.22673e-07
1.41098e-05
3.40419e-05
5.33436e-05
7.07771e-05
8.5508e-05
9.791e-05
0.000108203
0.000116607
0.000123345
0.000128595
0.000132609
0.000135547
0.000137513
0.000138622
0.000138985
0.000138708
0.000137892
0.000136625
0.000134948
0.000133209
0.000131266
0.000129186
0.000127136
0.000125314
0.000123731
0.000121977
0.0001203
0.000118739
0.000116617
0.000113131
0.000107327
9.81238e-05
8.43893e-05
7.00204e-05
6.13215e-05
6.01966e-05
5.91231e-05
4.81083e-05
1.36283e-05
3.31276e-07
1.47537e-05
3.52505e-05
5.43706e-05
7.10954e-05
8.53203e-05
9.71744e-05
0.000106879
0.000114707
0.000120914
0.000125725
0.000129292
0.000131705
0.000133182
0.000133853
0.000133815
0.000133161
0.000131974
0.000130322
0.000128245
0.00012599
0.000123491
0.000120742
0.000117879
0.000114975
0.000112168
0.000109122
0.000106005
0.000103032
9.97933e-05
9.59456e-05
9.08856e-05
8.40034e-05
7.45479e-05
6.42248e-05
5.66244e-05
5.67093e-05
5.77896e-05
4.77258e-05
1.41108e-05
3.51834e-07
1.5539e-05
3.64598e-05
5.49457e-05
7.06339e-05
8.33091e-05
9.34328e-05
0.000101365
0.000107482
0.00011213
0.000115578
0.000117961
0.000119436
0.000120067
0.000119965
0.000119238
0.000117963
0.000116199
0.000113992
0.000111334
0.000108336
0.000105184
0.000101738
9.81698e-05
9.45812e-05
9.10262e-05
8.74007e-05
8.38705e-05
8.05637e-05
7.72988e-05
7.39197e-05
7.01274e-05
6.57399e-05
6.03811e-05
5.48717e-05
5.2016e-05
5.47912e-05
5.65414e-05
4.71999e-05
1.46592e-05
3.90308e-07
1.63475e-05
3.73334e-05
5.38667e-05
6.61225e-05
7.5022e-05
8.14451e-05
8.60207e-05
8.91965e-05
9.12866e-05
9.25143e-05
9.30437e-05
9.29947e-05
9.24341e-05
9.14099e-05
8.99648e-05
8.81415e-05
8.59841e-05
8.35342e-05
8.08521e-05
7.79768e-05
7.50159e-05
7.19829e-05
6.89537e-05
6.60046e-05
6.32013e-05
6.05612e-05
5.81525e-05
5.60558e-05
5.42556e-05
5.27727e-05
5.1414e-05
5.02824e-05
4.88717e-05
4.77005e-05
4.79381e-05
5.15437e-05
5.40993e-05
4.56188e-05
1.50086e-05
4.46598e-07
1.74288e-05
3.57807e-05
4.58153e-05
5.15638e-05
5.49155e-05
5.6777e-05
5.76935e-05
5.80044e-05
5.79147e-05
5.75477e-05
5.69859e-05
5.62753e-05
5.54425e-05
5.44993e-05
5.3457e-05
5.23267e-05
5.11281e-05
4.98802e-05
4.86196e-05
4.73663e-05
4.61607e-05
4.50315e-05
4.40164e-05
4.31402e-05
4.24472e-05
4.19549e-05
4.17008e-05
4.17081e-05
4.20233e-05
4.27264e-05
4.37145e-05
4.51443e-05
4.66032e-05
4.80474e-05
4.95626e-05
5.22429e-05
5.24723e-05
4.41163e-05
1.51629e-05
5.76722e-07
1.80563e-05
2.7165e-05
2.92223e-05
3.03241e-05
3.09862e-05
3.13827e-05
3.16514e-05
3.18777e-05
3.21056e-05
3.2352e-05
3.26269e-05
3.29298e-05
3.32616e-05
3.36181e-05
3.39994e-05
3.44032e-05
3.48347e-05
3.52955e-05
3.57982e-05
3.63461e-05
3.69544e-05
3.7626e-05
3.83821e-05
3.92209e-05
4.01673e-05
4.12178e-05
4.24023e-05
4.36973e-05
4.52196e-05
4.69766e-05
4.88725e-05
5.09453e-05
5.29557e-05
5.46198e-05
5.54708e-05
5.56944e-05
5.0674e-05
4.09923e-05
1.51389e-05
9.15736e-07
1.8066e-05
2.11034e-05
2.3135e-05
2.51729e-05
2.69661e-05
2.86059e-05
3.01343e-05
3.15675e-05
3.29188e-05
3.42022e-05
3.54324e-05
3.66201e-05
3.77738e-05
3.88993e-05
4.00017e-05
4.10844e-05
4.21525e-05
4.32089e-05
4.42585e-05
4.53036e-05
4.63493e-05
4.73969e-05
4.84507e-05
4.95139e-05
5.05853e-05
5.16803e-05
5.27714e-05
5.39215e-05
5.5008e-05
5.61346e-05
5.71866e-05
5.8309e-05
5.94612e-05
5.98143e-05
5.89093e-05
5.59001e-05
4.82703e-05
3.51693e-05
1.41104e-05
6.40586e-07
1.15756e-06
1.87727e-06
2.59393e-06
3.2724e-06
3.89346e-06
4.47008e-06
5.01711e-06
5.546e-06
6.06004e-06
6.56297e-06
7.05277e-06
7.53413e-06
8.00284e-06
8.46685e-06
8.91787e-06
9.36856e-06
9.80425e-06
1.02453e-05
1.06679e-05
1.1103e-05
1.15145e-05
1.1948e-05
1.2351e-05
1.27873e-05
1.31849e-05
1.36277e-05
1.40238e-05
1.44727e-05
1.48698e-05
1.53078e-05
1.56833e-05
1.60516e-05
1.63699e-05
1.65976e-05
1.69163e-05
1.68984e-05
1.66264e-05
1.57746e-05
1.29111e-05
)
;

boundaryField
{
    movingWall
    {
        type            nutkWallFunction;
        Cmu             0.09;
        kappa           0.41;
        E               9.8;
        value           uniform 0;
    }
    fixedWalls
    {
        type            nutkWallFunction;
        Cmu             0.09;
        kappa           0.41;
        E               9.8;
        value           uniform 0;
    }
    frontAndBack
    {
        type            empty;
    }
}


// ************************************************************************* //
