/*--------------------------------*- C++ -*----------------------------------*\
  =========                 |
  \\      /  F ield         | OpenFOAM: The Open Source CFD Toolbox
   \\    /   O peration     | Website:  https://openfoam.org
    \\  /    A nd           | Version:  13
     \\/     M anipulation  |
\*---------------------------------------------------------------------------*/
FoamFile
{
    format      ascii;
    class       volScalarField;
    location    "2";
    object      p;
}
// * * * * * * * * * * * * * * * * * * * * * * * * * * * * * * * * * * * * * //

dimensions      [0 2 -2 0 0 0 0];

internalField   nonuniform List<scalar> 
1600
(
6.33206e-08
-1.68614e-05
-5.15843e-05
-9.90534e-05
-0.000158371
-0.00023179
-0.000321948
-0.000431303
-0.000562246
-0.000714847
-0.000887234
-0.00107487
-0.00127007
-0.00145995
-0.00162739
-0.00176293
-0.00186974
-0.00196157
-0.00205603
-0.00215454
-0.00223269
-0.00224865
-0.00215663
-0.00191059
-0.00147054
-0.000832873
-1.60459e-05
0.000950139
0.00199291
0.00301462
0.0038881
0.00449455
0.00476339
0.00470627
0.0043925
0.0040716
0.00382741
0.00370172
0.0036596
0.00364994
1.57868e-05
-1.9051e-06
-3.312e-05
-7.56195e-05
-0.000130222
-0.00019953
-0.000286197
-0.000392418
-0.000519761
-0.00066739
-0.000831358
-0.00100505
-0.00118261
-0.00136176
-0.00154096
-0.00171291
-0.00187293
-0.00202545
-0.00217622
-0.00232182
-0.00244006
-0.00249216
-0.00243276
-0.00221684
-0.00181332
-0.00122414
-0.000450532
0.000472921
0.00148709
0.00250159
0.00340202
0.00407203
0.00442392
0.00444393
0.00421704
0.00392352
0.00372001
0.00363447
0.00361489
0.00361701
5.16653e-05
2.8972e-05
-2.82981e-06
-4.15301e-05
-8.94683e-05
-0.000151095
-0.000229315
-0.000326438
-0.000444351
-0.000583402
-0.000741404
-0.000914382
-0.00109985
-0.00129948
-0.00151729
-0.00175397
-0.00200501
-0.00226387
-0.00252058
-0.00275787
-0.00294757
-0.00305284
-0.00303483
-0.00285733
-0.00249843
-0.00196165
-0.0012445
-0.000369111
0.000616563
0.00163841
0.00260078
0.00339302
0.00390809
0.00409612
0.00400882
0.00379328
0.00361005
0.00353945
0.00353845
0.00354373
0.000100233
7.03346e-05
3.20971e-05
-5.87337e-06
-4.75335e-05
-0.000100414
-0.00016867
-0.000255847
-0.000365857
-0.000502095
-0.000666139
-0.000858693
-0.00108257
-0.00134333
-0.00164573
-0.00198795
-0.00235971
-0.00274512
-0.00312327
-0.0034662
-0.00373865
-0.00390337
-0.00393265
-0.00380453
-0.00350506
-0.00302022
-0.00235617
-0.00153457
-0.000589695
0.000427271
0.00144084
0.00235556
0.00307853
0.00353217
0.00369294
0.00364468
0.00354026
0.0034559
0.0034509
0.00344896
0.000150696
0.00010955
5.9301e-05
1.71426e-05
-2.19313e-05
-6.91744e-05
-0.000130885
-0.000213024
-0.000322871
-0.00046803
-0.000655132
-0.000890524
-0.00118144
-0.00153505
-0.00195262
-0.00242495
-0.00293361
-0.00345211
-0.00394932
-0.00439029
-0.00473701
-0.00496178
-0.00504454
-0.00496904
-0.00472269
-0.00429613
-0.00369626
-0.00294397
-0.00206353
-0.00108668
-6.27658e-05
0.000945014
0.00186389
0.00261001
0.00311707
0.00337199
0.00344573
0.00341253
0.0033714
0.00334925
0.000185059
0.000132157
6.64749e-05
1.61967e-05
-2.4519e-05
-7.09693e-05
-0.000132139
-0.000217068
-0.000337115
-0.000504783
-0.000732079
-0.00103038
-0.00140938
-0.00187459
-0.0024219
-0.0030334
-0.00367961
-0.004324
-0.00492765
-0.00545188
-0.00586796
-0.00615852
-0.0062989
-0.00626896
-0.00606265
-0.00568379
-0.00514366
-0.00445447
-0.00363445
-0.00270912
-0.00170897
-0.00066949
0.000371495
0.00135788
0.0022073
0.0028396
0.00321113
0.00336689
0.00328952
0.00323666
0.00019031
0.000125183
4.24561e-05
-1.88643e-05
-6.54383e-05
-0.000116575
-0.000184185
-0.000280586
-0.000421332
-0.000623895
-0.000905419
-0.00128048
-0.0017594
-0.00234471
-0.00302496
-0.00377229
-0.00454628
-0.0053032
-0.0059996
-0.0065984
-0.00707358
-0.00740175
-0.0075664
-0.00756286
-0.00739224
-0.0070585
-0.00657325
-0.00594794
-0.00519579
-0.00433136
-0.00336968
-0.002327
-0.00122501
-9.804e-05
0.00100568
0.00199447
0.00274094
0.0031673
0.00321474
0.00309479
0.000155061
7.85386e-05
-2.11166e-05
-9.55094e-05
-0.000151851
-0.000213002
-0.000293752
-0.000409549
-0.000579853
-0.000826729
-0.00117136
-0.00163021
-0.00221292
-0.00291707
-0.00372314
-0.00459295
-0.00547654
-0.0063243
-0.00709063
-0.00773937
-0.00824557
-0.00859198
-0.00877034
-0.00878159
-0.00863137
-0.00832811
-0.00788362
-0.00730992
-0.00661813
-0.00581691
-0.00491185
-0.00390595
-0.00280206
-0.00160827
-0.000350388
0.000898325
0.0019953
0.00276625
0.00312852
0.00291129
7.22246e-05
-1.3722e-05
-0.000128744
-0.000217304
-0.000286691
-0.000362426
-0.000461882
-0.000603209
-0.000809112
-0.00110545
-0.00151653
-0.00205938
-0.00274146
-0.00355518
-0.00447244
-0.00544436
-0.00641398
-0.00732772
-0.00814018
-0.00881737
-0.00933794
-0.00969088
-0.00987348
-0.00989017
-0.00974976
-0.00946406
-0.00904653
-0.00851016
-0.00786557
-0.00711892
-0.00627071
-0.00531632
-0.00424734
-0.00305349
-0.0017343
-0.00033002
0.00103373
0.00215351
0.00278679
0.00260318
-6.05532e-05
-0.000152991
-0.000280755
-0.000383623
-0.000468402
-0.000562123
-0.000684179
-0.000854717
-0.00109872
-0.00144537
-0.00192094
-0.00254161
-0.00331238
-0.00422012
-0.00522808
-0.00627904
-0.00731093
-0.00826861
-0.00910859
-0.00979981
-0.0103249
-0.0106771
-0.0108576
-0.0108734
-0.0107358
-0.0104588
-0.0100579
-0.00954732
-0.00893861
-0.00823773
-0.00744345
-0.00654682
-0.00553229
-0.00437816
-0.00306125
-0.00158677
-6.06431e-05
0.00130528
0.00221929
0.00255398
-0.000240772
-0.000336573
-0.000473573
-0.000589935
-0.000691207
-0.00080475
-0.000951241
-0.00115211
-0.00143382
-0.00182788
-0.00236098
-0.00304837
-0.00389209
-0.00487383
-0.00594993
-0.00705736
-0.00813079
-0.00911543
-0.00997006
-0.0106666
-0.0111908
-0.0115389
-0.0117142
-0.0117255
-0.0115859
-0.0113115
-0.0109192
-0.0104254
-0.00984302
-0.00917916
-0.00843326
-0.00759556
-0.00664744
-0.00556169
-0.00430038
-0.00283557
-0.00123992
0.000259369
0.00149282
0.00229951
-0.000461819
-0.000558233
-0.000700495
-0.000828456
-0.000946035
-0.00107982
-0.00125095
-0.0014813
-0.00179783
-0.00223263
-0.0028125
-0.00355203
-0.00444911
-0.00548288
-0.00660488
-0.00774858
-0.00884696
-0.00984632
-0.0107075
-0.0114048
-0.0119261
-0.0122689
-0.0124381
-0.0124434
-0.0122994
-0.0120236
-0.0116348
-0.0111513
-0.010588
-0.00995418
-0.00925097
-0.0084698
-0.0075918
-0.00658857
-0.00541872
-0.00403564
-0.00245004
-0.000914171
0.000449469
0.00142604
-0.000714722
-0.000809333
-0.000953218
-0.00109052
-0.00122336
-0.00137644
-0.00157069
-0.00182767
-0.0021734
-0.00263907
-0.00325278
-0.00402853
-0.00495591
-0.00602044
-0.00716774
-0.00833015
-0.00944041
-0.0104458
-0.0113086
-0.0120046
-0.0125226
-0.0128609
-0.0130244
-0.0130239
-0.0128746
-0.0125956
-0.0122074
-0.0117304
-0.0111817
-0.0105731
-0.00990804
-0.0091805
-0.00837319
-0.00745836
-0.00639732
-0.00513653
-0.00364777
-0.00213189
-0.000822031
0.000113044
-0.000989656
-0.00108012
-0.00122236
-0.00136639
-0.00151239
-0.0016824
-0.00189636
-0.00217483
-0.00254201
-0.0030274
-0.0036601
-0.00445655
-0.00539469
-0.00646661
-0.00762058
-0.00878616
-0.00989745
-0.0109021
-0.0117632
-0.0124571
-0.0129725
-0.0133075
-0.0134669
-0.0134616
-0.0133076
-0.0130251
-0.0126368
-0.012165
-0.0116291
-0.0110431
-0.0104131
-0.00973594
-0.00899744
-0.00817211
-0.00722564
-0.00610814
-0.00478089
-0.00333766
-0.00216634
-0.0013623
-0.00127578
-0.00136011
-0.00149763
-0.00164512
-0.00180105
-0.0019844
-0.00221346
-0.0025073
-0.00288811
-0.00338258
-0.00401889
-0.00481475
-0.00575238
-0.00681171
-0.00795252
-0.00910648
-0.0102087
-0.0112065
-0.0120628
-0.0127539
-0.0132674
-0.0136007
-0.0137579
-0.0137496
-0.0135925
-0.0133081
-0.0129209
-0.0124553
-0.0119327
-0.0113689
-0.0107724
-0.010143
-0.00946989
-0.00873145
-0.00789769
-0.00692728
-0.00577741
-0.00447506
-0.00346023
-0.0028018
-0.00156273
-0.00163947
-0.0017695
-0.00191694
-0.00207924
-0.00227195
-0.00251122
-0.00281422
-0.00320102
-0.00369479
-0.00432097
-0.00509676
-0.00601745
-0.0070491
-0.00815886
-0.00928681
-0.0103692
-0.0113534
-0.0122012
-0.0128878
-0.0133997
-0.0137325
-0.0138894
-0.0138807
-0.0137233
-0.0134399
-0.0130569
-0.0126007
-0.012094
-0.0115541
-0.0109911
-0.0104073
-0.00979541
-0.0091379
-0.00840808
-0.00757264
-0.00659325
-0.00548744
-0.00461895
-0.00407674
-0.0018415
-0.00191001
-0.0020304
-0.00217467
-0.00233961
-0.00253736
-0.00278171
-0.00308773
-0.00347306
-0.00395736
-0.00456282
-0.00530565
-0.00618796
-0.00717618
-0.00824054
-0.00932827
-0.0103793
-0.0113415
-0.0121756
-0.0128549
-0.0133639
-0.0136968
-0.0138554
-0.0138492
-0.0136954
-0.0134175
-0.0130436
-0.0126014
-0.0121152
-0.0116025
-0.0110745
-0.010535
-0.00998002
-0.00939613
-0.00876007
-0.0080445
-0.00721782
-0.00630916
-0.005586
-0.00513743
-0.00210729
-0.00216458
-0.00227421
-0.00241242
-0.00257629
-0.00277473
-0.00301913
-0.00332226
-0.00369923
-0.00416668
-0.00474315
-0.00544335
-0.00627088
-0.00720045
-0.00820508
-0.00923863
-0.0102457
-0.0111758
-0.0119888
-0.012656
-0.0131598
-0.0134923
-0.0136541
-0.0136539
-0.0135082
-0.0132418
-0.0128833
-0.0124613
-0.0120014
-0.0115208
-0.0110301
-0.0105341
-0.0100315
-0.00951311
-0.00896026
-0.00834984
-0.00765698
-0.00691893
-0.0063282
-0.00595967
-0.00235261
-0.00239971
-0.00249706
-0.00262614
-0.0027853
-0.00298031
-0.00322006
-0.0035151
-0.00387793
-0.00432244
-0.00486343
-0.00551393
-0.00627703
-0.00713605
-0.00806796
-0.00903359
-0.0099836
-0.01087
-0.0116524
-0.0123007
-0.0127951
-0.0131256
-0.0132915
-0.0133004
-0.013168
-0.0129196
-0.0125841
-0.0121903
-0.011763
-0.011319
-0.0108682
-0.0104153
-0.00996093
-0.00950015
-0.00901956
-0.00850009
-0.00792235
-0.0073214
-0.0068496
-0.00655011
-0.00257103
-0.00261044
-0.00269397
-0.00281297
-0.0029646
-0.00315252
-0.0033836
-0.00366621
-0.00401035
-0.0044273
-0.00492871
-0.00552475
-0.00621899
-0.00700057
-0.00785046
-0.00873667
-0.00961691
-0.0104473
-0.0111884
-0.0118093
-0.0122885
-0.0126143
-0.0127842
-0.0128047
-0.012691
-0.0124675
-0.0121623
-0.0118037
-0.011415
-0.011012
-0.0106032
-0.0101926
-0.00978223
-0.00937133
-0.00895191
-0.00850789
-0.00802547
-0.00753647
-0.00716249
-0.00692293
-0.00276361
-0.00279498
-0.00286535
-0.00297243
-0.00311389
-0.00329169
-0.0035108
-0.00377762
-0.00409993
-0.00448648
-0.00494619
-0.00548668
-0.00611107
-0.00681279
-0.00757614
-0.00837568
-0.00917643
-0.00993986
-0.0106292
-0.0112138
-0.0116712
-0.0119884
-0.0121615
-0.0121953
-0.0121046
-0.0119115
-0.0116427
-0.0113245
-0.0109787
-0.0106192
-0.010253
-0.00988307
-0.00951231
-0.00914299
-0.00877579
-0.00839269
-0.00798814
-0.00758964
-0.00729423
-0.00710418
-0.00293201
-0.00295471
-0.00301162
-0.00310524
-0.00323432
-0.0033995
-0.00360405
-0.00385267
-0.00415119
-0.00450615
-0.00492412
-0.00541059
-0.00596755
-0.00659091
-0.00726832
-0.00797931
-0.00869582
-0.00938517
-0.0100146
-0.0105551
-0.0109845
-0.011289
-0.0114635
-0.0115115
-0.0114455
-0.0112858
-0.0110564
-0.0107812
-0.0104796
-0.0101636
-0.00983854
-0.00950641
-0.00917056
-0.00883669
-0.00850786
-0.00817488
-0.00783359
-0.00750786
-0.00727057
-0.00711919
-0.00307568
-0.0030902
-0.00313363
-0.00321284
-0.0033279
-0.00347856
-0.00366667
-0.0038955
-0.00416929
-0.00449274
-0.00487047
-0.0053061
-0.00580068
-0.00635077
-0.00694708
-0.00757306
-0.00820628
-0.00881973
-0.00938523
-0.00987688
-0.0102737
-0.0105617
-0.0107352
-0.0107961
-0.0107544
-0.0106277
-0.0104373
-0.010204
-0.00994462
-0.00966932
-0.00938187
-0.00908335
-0.00877687
-0.00847026
-0.00817109
-0.00787648
-0.00758508
-0.00731584
-0.00712523
-0.00699642
-0.0031956
-0.00320261
-0.00323297
-0.00329733
-0.00339724
-0.00353199
-0.0037024
-0.00391061
-0.00415954
-0.00445245
-0.00479239
-0.00518149
-0.00562
-0.00610459
-0.00662767
-0.00717608
-0.00773178
-0.00827278
-0.00877539
-0.00921716
-0.00957916
-0.00984811
-0.0100177
-0.0100886
-0.0100686
-0.00997174
-0.00981669
-0.00962106
-0.00939908
-0.0091592
-0.00890426
-0.00863419
-0.00835122
-0.00806458
-0.00778627
-0.00751945
-0.00726394
-0.00703245
-0.00688566
-0.00676195
-0.00329378
-0.00329391
-0.00331181
-0.00336126
-0.00344529
-0.00356316
-0.00371511
-0.00390241
-0.00412697
-0.00439094
-0.00469617
-0.00504367
-0.00543282
-0.00586046
-0.00631995
-0.00680064
-0.00728772
-0.00776336
-0.00820796
-0.00860233
-0.00892999
-0.0091788
-0.00934218
-0.00941952
-0.00941648
-0.00934508
-0.00921982
-0.00905556
-0.00886432
-0.00865344
-0.00842481
-0.00817715
-0.00791173
-0.00763883
-0.00737458
-0.00712605
-0.00689318
-0.00668382
-0.00657349
-0.00644266
-0.00337251
-0.00336642
-0.00337263
-0.00340733
-0.00347504
-0.00357543
-0.00370853
-0.00387506
-0.00407615
-0.00431314
-0.00458697
-0.00489782
-0.00524443
-0.0056236
-0.00602935
-0.0064527
-0.00688139
-0.00730072
-0.00769455
-0.0080466
-0.00834247
-0.0085715
-0.00872729
-0.00880802
-0.008818
-0.00876604
-0.00866405
-0.00852429
-0.00835689
-0.00816806
-0.00795894
-0.00772749
-0.00747403
-0.00720918
-0.00695217
-0.00671363
-0.00649319
-0.006291
-0.00621269
-0.00605879
-0.00343426
-0.00342264
-0.00341795
-0.00343819
-0.00348938
-0.00357196
-0.0036861
-0.00383224
-0.00401103
-0.00422316
-0.00446895
-0.00474792
-0.00505837
-0.00539691
-0.00575813
-0.00613415
-0.00651461
-0.00688704
-0.007238
-0.00755397
-0.00782221
-0.00803394
-0.00818142
-0.00826289
-0.00828176
-0.00824431
-0.00815975
-0.00803813
-0.0078879
-0.00771431
-0.00751825
-0.0072973
-0.00705091
-0.00678941
-0.00653379
-0.00629779
-0.00608054
-0.00586961
-0.00582171
-0.00562556
-0.00348155
-0.00346509
-0.00345029
-0.00345638
-0.00349097
-0.00355557
-0.00365082
-0.00377715
-0.00393491
-0.00412438
-0.00434537
-0.00459692
-0.00487697
-0.00518201
-0.00550687
-0.00584449
-0.00618592
-0.00652049
-0.00683649
-0.00712254
-0.00736824
-0.00756407
-0.00770318
-0.007785
-0.00781019
-0.00778335
-0.00771149
-0.00760261
-0.00746376
-0.00729956
-0.00711093
-0.00689554
-0.00665235
-0.00639095
-0.0061329
-0.0058931
-0.00566799
-0.00542915
-0.00541084
-0.00514125
-0.00351701
-0.00349635
-0.00347207
-0.00346423
-0.00348215
-0.00352868
-0.00360524
-0.00371246
-0.00385055
-0.00401952
-0.00421878
-0.00444698
-0.00470174
-0.00497944
-0.00527507
-0.00558206
-0.00589241
-0.00619687
-0.00648527
-0.00674731
-0.00697381
-0.00715665
-0.00729024
-0.00737173
-0.00740134
-0.00738236
-0.00731971
-0.00721948
-0.00708759
-0.00692816
-0.00674235
-0.00652831
-0.00628487
-0.00602058
-0.00575641
-0.00550692
-0.00526717
-0.00498
-0.00497512
-0.00458166
-0.00354339
-0.00351906
-0.00348563
-0.00346384
-0.00346489
-0.00349331
-0.00355145
-0.0036403
-0.00376012
-0.00391067
-0.00409105
-0.00429954
-0.00453349
-0.00478915
-0.00506155
-0.00534451
-0.00563065
-0.00591162
-0.00617852
-0.00642214
-0.00663407
-0.00680725
-0.00693629
-0.00701765
-0.0070509
-0.00703812
-0.00698249
-0.00688834
-0.00676054
-0.00660271
-0.00641625
-0.00620008
-0.00595324
-0.00568302
-0.00540889
-0.00514407
-0.00488366
-0.0045111
-0.00449463
-0.00389513
-0.00356353
-0.00353583
-0.00349316
-0.00345704
-0.00344085
-0.00345106
-0.00349105
-0.0035623
-0.00366515
-0.00379919
-0.00396323
-0.00415521
-0.00437219
-0.00461025
-0.00486445
-0.00512882
-0.00539645
-0.00565966
-0.00591036
-0.00614031
-0.00634176
-0.00650818
-0.00663435
-0.00671664
-0.00675375
-0.00674666
-0.00669715
-0.00660809
-0.00648319
-0.00632543
-0.0061363
-0.00591548
-0.00566235
-0.00538287
-0.0050946
-0.00480912
-0.00451867
-0.00398951
-0.00394723
-0.00302009
-0.00358091
-0.00354964
-0.00349683
-0.0034455
-0.00341141
-0.0034031
-0.00342504
-0.00347924
-0.00356615
-0.00368521
-0.00383494
-0.00401298
-0.00421611
-0.00444023
-0.00468037
-0.00493068
-0.00518455
-0.00543482
-0.005674
-0.00589457
-0.00608935
-0.00625214
-0.00637781
-0.00646262
-0.00650474
-0.0065041
-0.00646125
-0.00637779
-0.00625614
-0.00609838
-0.00590576
-0.00567849
-0.00541638
-0.00512379
-0.00481493
-0.00449787
-0.00415248
-0.00339628
-0.003344
-0.00190979
-0.00359881
-0.00356385
-0.00349899
-0.00343078
-0.00337751
-0.00334989
-0.00335352
-0.00339083
-0.0034624
-0.00356752
-0.0037044
-0.0038704
-0.00406205
-0.00427507
-0.00450445
-0.00474441
-0.00498858
-0.00523011
-0.00546199
-0.00567723
-0.00586915
-0.00603189
-0.00616034
-0.00624979
-0.00629899
-0.00630693
-0.0062727
-0.00619681
-0.0060803
-0.00592396
-0.00572821
-0.00549295
-0.0052175
-0.00490385
-0.00456382
-0.00419511
-0.00374053
-0.00272717
-0.00271386
-0.000538166
-0.00362231
-0.0035819
-0.00350234
-0.00341408
-0.00333926
-0.00329058
-0.00327462
-0.00329428
-0.00335023
-0.00344156
-0.00356626
-0.00372141
-0.0039033
-0.00410748
-0.00432885
-0.00456173
-0.0047999
-0.00503669
-0.00526539
-0.00547944
-0.00567246
-0.00583871
-0.00597335
-0.00607206
-0.00613217
-0.00615171
-0.00612941
-0.00606456
-0.00595663
-0.00580464
-0.00560725
-0.00536269
-0.005069
-0.00472364
-0.00433143
-0.00386945
-0.00324615
-0.00194929
-0.00191175
0.00118065
-0.00366303
-0.00361091
-0.00351145
-0.00339467
-0.00329323
-0.00321904
-0.0031795
-0.0031783
-0.00321636
-0.00329266
-0.00340486
-0.0035497
-0.0037232
-0.00392072
-0.00413706
-0.00436654
-0.00460305
-0.00483986
-0.00507041
-0.00528843
-0.00548783
-0.00566297
-0.00580886
-0.00592135
-0.0059967
-0.00603228
-0.00602611
-0.00597605
-0.00588008
-0.00573515
-0.00553745
-0.00528083
-0.00495998
-0.00456258
-0.00407951
-0.00345104
-0.00256441
-0.000934935
-0.000425062
0.0036467
-0.00374344
-0.00366708
-0.00352876
-0.00337133
-0.00322865
-0.00311812
-0.0030468
-0.00301927
-0.00303644
-0.00309671
-0.00319704
-0.00333354
-0.0035017
-0.00369655
-0.00391264
-0.00414421
-0.00438531
-0.00462953
-0.00486966
-0.00509891
-0.00531112
-0.00550052
-0.0056624
-0.00579253
-0.00588631
-0.00594003
-0.00595095
-0.00591586
-0.00583125
-0.00569139
-0.00548921
-0.00521186
-0.00484427
-0.00435055
-0.00369654
-0.00275453
-0.00139945
0.000879996
0.00248322
0.00820885
-0.00390607
-0.00376744
-0.00354399
-0.0033144
-0.00311533
-0.00296379
-0.00286435
-0.00281726
-0.00282109
-0.00287288
-0.00296861
-0.00310366
-0.00327303
-0.00347139
-0.00369302
-0.00393186
-0.00418137
-0.00443527
-0.00468716
-0.00493022
-0.00515778
-0.00536362
-0.00554241
-0.0056893
-0.00579948
-0.00586848
-0.00589263
-0.00586733
-0.0057876
-0.00564354
-0.00542305
-0.00510031
-0.00464597
-0.00397811
-0.00301491
-0.00150437
0.000710114
0.00435344
0.00830277
0.0176569
-0.00428632
-0.00397526
-0.00360654
-0.00327298
-0.0030118
-0.00282282
-0.00269844
-0.00263761
-0.00263536
-0.00268606
-0.0027839
-0.00292321
-0.00309839
-0.00330375
-0.00353334
-0.00378091
-0.00403975
-0.00430316
-0.00456487
-0.00481829
-0.00505671
-0.00527357
-0.00546304
-0.0056196
-0.00573828
-0.00581392
-0.0058421
-0.00581653
-0.00573075
-0.00556859
-0.00531206
-0.00491611
-0.00432749
-0.00339755
-0.00197738
0.000398329
0.00404381
0.0103063
0.018812
0.0348756
-0.00519452
-0.00420902
-0.00359847
-0.00318771
-0.00288751
-0.00267352
-0.00253598
-0.00246991
-0.0024675
-0.00252065
-0.00262217
-0.00276593
-0.00294604
-0.00315669
-0.0033917
-0.00364476
-0.00390916
-0.00417808
-0.00444493
-0.004703
-0.00494569
-0.00516624
-0.00535893
-0.00551765
-0.00563784
-0.00571317
-0.00573929
-0.00570664
-0.00560672
-0.00541896
-0.0051222
-0.00465949
-0.00394707
-0.00280206
-0.00090658
0.0025192
0.00825731
0.0186761
0.034386
0.0598327
-0.00685687
-0.00308212
-0.00227989
-0.00211533
-0.00195027
-0.00179141
-0.00169504
-0.00167579
-0.00172204
-0.00181896
-0.00195716
-0.00213137
-0.00233752
-0.00257095
-0.0028262
-0.00309722
-0.00337763
-0.00366095
-0.00394054
-0.00421009
-0.00446288
-0.00469306
-0.00489409
-0.00506126
-0.00518827
-0.00527117
-0.00530189
-0.00527419
-0.00517136
-0.0049746
-0.00464035
-0.00411703
-0.00331472
-0.00210021
4.15145e-05
0.00431015
0.0128104
0.027957
0.0521665
0.0836303
)
;

boundaryField
{
    movingWall
    {
        type            zeroGradient;
    }
    fixedWalls
    {
        type            zeroGradient;
    }
    frontAndBack
    {
        type            empty;
    }
}


// ************************************************************************* //
