/*--------------------------------*- C++ -*----------------------------------*\
  =========                 |
  \\      /  F ield         | OpenFOAM: The Open Source CFD Toolbox
   \\    /   O peration     | Website:  https://openfoam.org
    \\  /    A nd           | Version:  13
     \\/     M anipulation  |
\*---------------------------------------------------------------------------*/
FoamFile
{
    format      ascii;
    class       surfaceScalarField;
    location    "2";
    object      phi;
}
// * * * * * * * * * * * * * * * * * * * * * * * * * * * * * * * * * * * * * //

dimensions      [0 3 -1 0 0 0 0];

internalField   nonuniform List<scalar> 
760
(
-2.61037e-08
2.61013e-08
-1.27441e-07
1.01337e-07
-2.79503e-07
1.52063e-07
-4.58798e-07
1.79294e-07
-6.59068e-07
2.0027e-07
-8.84207e-07
2.25139e-07
-1.1421e-06
2.57894e-07
-1.44095e-06
2.98848e-07
-1.78546e-06
3.44513e-07
-2.17162e-06
3.86155e-07
-2.57808e-06
4.06467e-07
-2.95469e-06
3.7661e-07
-3.22669e-06
2.71998e-07
-3.32465e-06
9.79548e-08
-3.15468e-06
-1.69971e-07
-2.70594e-06
-4.48734e-07
-1.99607e-06
-7.09871e-07
-1.13114e-06
-8.64926e-07
-3.6568e-07
-7.65464e-07
-3.6568e-07
-1.04615e-07
1.30716e-07
-2.87277e-07
2.84e-07
-5.13974e-07
3.78759e-07
-7.73202e-07
4.38522e-07
-1.06268e-06
4.89746e-07
-1.38486e-06
5.47321e-07
-1.74226e-06
6.15293e-07
-2.13357e-06
6.90158e-07
-2.55159e-06
7.62538e-07
-2.98193e-06
8.16492e-07
-3.39938e-06
8.23918e-07
-3.76266e-06
7.39886e-07
-4.00883e-06
5.18166e-07
-4.05461e-06
1.43744e-07
-3.87423e-06
-3.50358e-07
-3.4401e-06
-8.82863e-07
-2.7533e-06
-1.39667e-06
-1.82511e-06
-1.79312e-06
-7.55405e-07
-1.83517e-06
-1.12108e-06
-1.66257e-07
2.96973e-07
-3.81038e-07
4.9878e-07
-6.21037e-07
6.18758e-07
-8.89684e-07
7.0717e-07
-1.18914e-06
7.89204e-07
-1.52078e-06
8.78956e-07
-1.88469e-06
9.79206e-07
-2.27828e-06
1.08375e-06
-2.69575e-06
1.18001e-06
-3.12696e-06
1.24769e-06
-3.55054e-06
1.2475e-06
-3.92031e-06
1.10965e-06
-4.1635e-06
7.61363e-07
-4.21671e-06
1.96948e-07
-4.07281e-06
-4.94258e-07
-3.71391e-06
-1.24176e-06
-3.12002e-06
-1.99057e-06
-2.27812e-06
-2.63502e-06
-1.17215e-06
-2.94114e-06
-2.29323e-06
-1.94577e-07
4.9155e-07
-4.19028e-07
7.23232e-07
-6.55828e-07
8.55558e-07
-9.13477e-07
9.64818e-07
-1.1971e-06
1.07283e-06
-1.50868e-06
1.19054e-06
-1.84877e-06
1.3193e-06
-2.21726e-06
1.45223e-06
-2.61305e-06
1.57581e-06
-3.02947e-06
1.66411e-06
-3.44055e-06
1.65859e-06
-3.78733e-06
1.45644e-06
-4.00039e-06
9.74418e-07
-4.04279e-06
2.39353e-07
-3.91407e-06
-6.22984e-07
-3.60391e-06
-1.55192e-06
-3.09225e-06
-2.50222e-06
-2.35248e-06
-3.37479e-06
-1.33977e-06
-3.95385e-06
-3.633e-06
-1.97439e-07
6.88989e-07
-4.16167e-07
9.41961e-07
-6.39734e-07
1.07913e-06
-8.76129e-07
1.20121e-06
-1.13129e-06
1.32799e-06
-1.40808e-06
1.46732e-06
-1.70827e-06
1.61949e-06
-2.03399e-06
1.77795e-06
-2.38616e-06
1.92798e-06
-2.75639e-06
2.03434e-06
-3.1125e-06
2.01469e-06
-3.39396e-06
1.7379e-06
-3.5464e-06
1.12685e-06
-3.55885e-06
2.51809e-07
-3.43496e-06
-7.46876e-07
-3.17112e-06
-1.81575e-06
-2.75137e-06
-2.92198e-06
-2.1289e-06
-3.99726e-06
-1.2289e-06
-4.85385e-06
-4.86189e-06
-1.8377e-07
8.72759e-07
-3.85448e-07
1.14364e-06
-5.87517e-07
1.28119e-06
-7.95368e-07
1.40907e-06
-1.01407e-06
1.5467e-06
-1.24651e-06
1.69976e-06
-1.49472e-06
1.8677e-06
-1.76092e-06
2.04415e-06
-2.04521e-06
2.21227e-06
-2.33617e-06
2.3253e-06
-2.6037e-06
2.28223e-06
-2.80102e-06
1.93522e-06
-2.89729e-06
1.22312e-06
-2.89371e-06
2.48233e-07
-2.7917e-06
-8.48881e-07
-2.59053e-06
-2.01692e-06
-2.27271e-06
-3.2398e-06
-1.78708e-06
-4.48289e-06
-1.04922e-06
-5.59172e-06
-5.91111e-06
-1.60056e-07
1.03281e-06
-3.36671e-07
1.32025e-06
-5.11039e-07
1.45556e-06
-6.85206e-07
1.58323e-06
-8.62331e-07
1.72382e-06
-1.04429e-06
1.88172e-06
-1.23209e-06
2.0555e-06
-1.42637e-06
2.23843e-06
-1.62727e-06
2.41317e-06
-1.82e-06
2.51802e-06
-1.98924e-06
2.45147e-06
-2.11006e-06
2.05603e-06
-2.16857e-06
1.28163e-06
-2.166e-06
2.45673e-07
-2.10231e-06
-9.12577e-07
-1.97844e-06
-2.14079e-06
-1.77859e-06
-3.43964e-06
-1.44874e-06
-4.81275e-06
-8.67607e-07
-6.17285e-06
-6.77872e-06
-1.30756e-07
1.16357e-06
-2.77373e-07
1.46687e-06
-4.20169e-07
1.59836e-06
-5.57776e-07
1.72084e-06
-6.91001e-07
1.85705e-06
-8.20152e-07
2.01088e-06
-9.44785e-07
2.18013e-06
-1.06381e-06
2.35745e-06
-1.1741e-06
2.52346e-06
-1.26536e-06
2.60928e-06
-1.34117e-06
2.52728e-06
-1.397e-06
2.11186e-06
-1.43216e-06
1.31679e-06
-1.44392e-06
2.57434e-07
-1.42881e-06
-9.27685e-07
-1.38412e-06
-2.18548e-06
-1.29251e-06
-3.53126e-06
-1.10124e-06
-5.00402e-06
-7.1507e-07
-6.55902e-06
-7.49379e-06
-9.93594e-08
1.26293e-06
-2.13834e-07
1.58135e-06
-3.23528e-07
1.70805e-06
-4.24022e-07
1.82133e-06
-5.13813e-07
1.94684e-06
-5.91515e-07
2.08858e-06
-6.55102e-07
2.24372e-06
-7.01525e-07
2.40388e-06
-7.26157e-07
2.54809e-06
-7.28101e-07
2.61123e-06
-7.1827e-07
2.51745e-06
-7.17302e-07
2.11089e-06
-7.36511e-07
1.336e-06
-7.70615e-07
2.91537e-07
-8.11006e-07
-8.87294e-07
-8.49504e-07
-2.14698e-06
-8.63665e-07
-3.5171e-06
-7.98587e-07
-5.06909e-06
-5.68727e-07
-6.78888e-06
-8.06251e-06
-6.86433e-08
1.33157e-06
-1.51405e-07
1.66411e-06
-2.28471e-07
1.78512e-06
-2.9316e-07
1.88602e-06
-3.42087e-07
1.99577e-06
-3.72458e-07
2.11895e-06
-3.81045e-07
2.2523e-06
-3.63751e-07
2.38658e-06
-3.16609e-07
2.50095e-06
-2.46298e-07
2.54092e-06
-1.65974e-07
2.43713e-06
-1.16058e-07
2.06097e-06
-1.17687e-07
1.33763e-06
-1.72566e-07
3.46416e-07
-2.68025e-07
-7.91836e-07
-3.87682e-07
-2.02733e-06
-5.00851e-07
-3.40393e-06
-5.49271e-07
-5.02067e-06
-4.51736e-07
-6.88642e-06
-8.51425e-06
-4.10673e-08
1.37264e-06
-9.46494e-08
1.71769e-06
-1.41204e-07
1.83167e-06
-1.72755e-07
1.91758e-06
-1.84642e-07
2.00765e-06
-1.73401e-07
2.10771e-06
-1.35484e-07
2.21439e-06
-6.7061e-08
2.31816e-06
3.47762e-08
2.39911e-06
1.61045e-07
2.41465e-06
2.94992e-07
2.30318e-06
3.90654e-07
1.96531e-06
4.05116e-07
1.32317e-06
3.3243e-07
4.19102e-07
1.88941e-07
-6.48346e-07
-1.52452e-09
-1.83686e-06
-2.0264e-07
-3.20281e-06
-3.45425e-07
-4.87789e-06
-3.61273e-07
-6.87057e-06
-8.87552e-06
-1.88833e-08
1.39152e-06
-4.76401e-08
1.74645e-06
-6.70594e-08
1.85109e-06
-6.89092e-08
1.91942e-06
-4.79426e-08
1.98669e-06
-8.2739e-10
2.06059e-06
7.50741e-08
2.13849e-06
1.82416e-07
2.21082e-06
3.22126e-07
2.2594e-06
4.85717e-07
2.25105e-06
6.53273e-07
2.13563e-06
7.80303e-07
1.83828e-06
8.13358e-07
1.29011e-06
7.33878e-07
4.98582e-07
5.56478e-07
-4.70947e-07
3.11912e-07
-1.59229e-06
4.54966e-08
-2.9364e-06
-1.84081e-07
-4.64831e-06
-2.95014e-07
-6.75963e-06
-9.17054e-06
-5.46211e-09
1.39699e-06
-1.47456e-08
1.75573e-06
-1.0794e-08
1.84714e-06
1.39968e-08
1.89463e-06
6.35416e-08
1.93714e-06
1.40886e-07
1.98325e-06
2.47739e-07
2.03163e-06
3.84773e-07
2.07378e-06
5.50227e-07
2.09395e-06
7.3531e-07
2.06597e-06
9.19753e-07
1.95118e-06
1.06366e-06
1.69438e-06
1.11397e-06
1.2398e-06
1.03976e-06
5.72787e-07
8.47655e-07
-2.78837e-07
5.67645e-07
-1.31228e-06
2.41185e-07
-2.60994e-06
-5.79991e-08
-4.34913e-06
-2.3987e-07
-6.57776e-06
-9.41041e-06
-4.81822e-09
1.4018e-06
-1.94875e-09
1.75286e-06
2.20427e-08
1.82315e-06
7.0932e-08
1.84574e-06
1.47503e-07
1.86057e-06
2.52611e-07
1.87814e-06
3.86199e-07
1.89805e-06
5.46925e-07
1.91306e-06
7.3101e-07
1.90986e-06
9.28948e-07
1.86803e-06
1.12142e-06
1.75871e-06
1.27364e-06
1.54216e-06
1.33834e-06
1.1751e-06
1.27909e-06
6.32039e-07
1.09081e-06
-9.0559e-08
7.96519e-07
-1.01799e-06
4.32782e-07
-2.2462e-06
7.52784e-08
-3.99163e-06
-1.60852e-07
-6.34163e-06
-9.57126e-06
-2.15599e-08
1.42336e-06
-1.15774e-08
1.74288e-06
2.85808e-08
1.78299e-06
1.02024e-07
1.7723e-06
2.05955e-07
1.75664e-06
3.387e-07
1.7454e-06
4.98125e-07
1.73862e-06
6.80965e-07
1.73022e-06
8.81718e-07
1.70911e-06
1.09039e-06
1.65936e-06
1.28921e-06
1.55989e-06
1.44885e-06
1.38252e-06
1.52912e-06
1.09483e-06
1.49324e-06
6.67918e-07
1.32456e-06
7.81212e-08
1.03339e-06
-7.26818e-07
6.4881e-07
-1.86162e-06
2.55316e-07
-3.59813e-06
-1.5592e-08
-6.07073e-06
-9.58685e-06
-6.06229e-08
1.48399e-06
-5.21088e-08
1.73436e-06
8.88869e-09
1.72199e-06
1.11118e-07
1.67007e-06
2.47317e-07
1.62044e-06
4.11963e-07
1.58075e-06
6.00995e-07
1.54959e-06
8.0977e-07
1.52144e-06
1.03165e-06
1.48723e-06
1.25644e-06
1.43458e-06
1.46796e-06
1.34836e-06
1.64207e-06
1.20842e-06
1.74521e-06
9.91688e-07
1.74337e-06
6.69756e-07
1.60928e-06
2.12211e-07
1.33911e-06
-4.56651e-07
9.42102e-07
-1.46461e-06
4.95167e-07
-3.1512e-06
1.2504e-07
-5.7006e-06
-9.46181e-06
-1.65648e-07
1.64964e-06
-1.42289e-07
1.71101e-06
-3.29518e-08
1.61265e-06
1.22497e-07
1.51462e-06
3.07844e-07
1.43509e-06
5.17866e-07
1.37073e-06
7.48927e-07
1.31853e-06
9.96404e-07
1.27396e-06
1.25326e-06
1.23037e-06
1.50988e-06
1.17796e-06
1.75138e-06
1.10686e-06
1.958e-06
1.0018e-06
2.10017e-06
8.49518e-07
2.14839e-06
6.21527e-07
2.06711e-06
2.935e-07
1.83616e-06
-2.25703e-07
1.42491e-06
-1.05337e-06
8.84253e-07
-2.61054e-06
3.27015e-07
-5.14336e-06
-9.13479e-06
-3.12237e-07
1.96187e-06
-1.89477e-07
1.58825e-06
3.42841e-08
1.38889e-06
2.87377e-07
1.26153e-06
5.60221e-07
1.16225e-06
8.51326e-07
1.07962e-06
1.15754e-06
1.01231e-06
1.47403e-06
9.57479e-07
1.79376e-06
9.10639e-07
2.10869e-06
8.63023e-07
2.40484e-06
8.10721e-07
2.66785e-06
7.38788e-07
2.87084e-06
6.46527e-07
2.98965e-06
5.02718e-07
2.97998e-06
3.03165e-07
2.82742e-06
-7.31425e-08
2.39893e-06
-6.24874e-07
1.70761e-06
-1.91922e-06
7.74001e-07
-4.20975e-06
-8.36079e-06
-2.24129e-07
2.186e-06
1.22073e-07
1.24204e-06
5.56366e-07
9.546e-07
1.00131e-06
8.16589e-07
1.44457e-06
7.18991e-07
1.8853e-06
6.38887e-07
2.32399e-06
5.73624e-07
2.75709e-06
5.24374e-07
3.17988e-06
4.87851e-07
3.59009e-06
4.52816e-07
3.97272e-06
4.28089e-07
4.32797e-06
3.83538e-07
4.6191e-06
3.554e-07
4.85245e-06
2.69363e-07
4.94387e-06
2.1175e-07
4.85756e-06
1.316e-08
4.53481e-06
-3.02121e-07
3.74526e-06
-1.12967e-06
2.12256e-06
-2.58705e-06
-6.23823e-06
2.186e-06
3.42804e-06
4.38265e-06
5.19923e-06
5.91822e-06
6.55711e-06
7.13074e-06
7.65511e-06
8.14296e-06
8.59578e-06
9.02387e-06
9.4074e-06
9.7628e-06
1.00322e-05
1.02439e-05
1.02571e-05
9.95496e-06
8.82529e-06
6.23823e-06
)
;

boundaryField
{
    movingWall
    {
        type            calculated;
        value           uniform 0;
    }
    fixedWalls
    {
        type            calculated;
        value           uniform 0;
    }
    frontAndBack
    {
        type            empty;
    }
}


// ************************************************************************* //
