/*--------------------------------*- C++ -*----------------------------------*\
  =========                 |
  \\      /  F ield         | OpenFOAM: The Open Source CFD Toolbox
   \\    /   O peration     | Website:  https://openfoam.org
    \\  /    A nd           | Version:  13
     \\/     M anipulation  |
\*---------------------------------------------------------------------------*/
FoamFile
{
    format      ascii;
    class       volVectorField;
    location    "2";
    object      U;
}
// * * * * * * * * * * * * * * * * * * * * * * * * * * * * * * * * * * * * * //

dimensions      [0 1 -1 0 0 0 0];

internalField   nonuniform List<vector> 
1600
(
(0.000452918 -0.000476617 0)
(0.00132137 -0.000433743 0)
(0.0016305 -0.000300515 0)
(0.00144105 -0.000223093 0)
(0.00100352 -0.000227336 0)
(0.000530413 -0.000278818 0)
(0.000111372 -0.000347106 0)
(-0.000239902 -0.000422909 0)
(-0.000564542 -0.000491567 0)
(-0.00095933 -0.000536553 0)
(-0.00160096 -0.000541029 0)
(-0.00273966 -0.000489358 0)
(-0.00466893 -0.000340533 0)
(-0.00768286 2.05231e-05 0)
(-0.0122363 0.000775257 0)
(-0.0187171 0.00201778 0)
(-0.027233 0.00361691 0)
(-0.0375957 0.00520176 0)
(-0.0490718 0.00628452 0)
(-0.0605804 0.00660765 0)
(-0.0711395 0.00624803 0)
(-0.0801177 0.00539842 0)
(-0.0871452 0.00421196 0)
(-0.0917943 0.00286252 0)
(-0.0938506 0.0015557 0)
(-0.0938964 -0.000223755 0)
(-0.0905734 -0.00167461 0)
(-0.0850333 -0.00339107 0)
(-0.0763972 -0.0049801 0)
(-0.0653959 -0.00651643 0)
(-0.0519866 -0.00769509 0)
(-0.0371187 -0.0082935 0)
(-0.0215936 -0.00786357 0)
(-0.00657403 -0.00617055 0)
(0.0049626 -0.00381749 0)
(0.0112444 -0.000468757 0)
(0.0116062 0.00163266 0)
(0.00895968 0.00203558 0)
(0.00443379 0.00162007 0)
(0.000985614 0.0010839 0)
(0.000396327 -0.00133815 0)
(0.000622466 -0.000819817 0)
(-0.000276453 0.000262736 0)
(-0.00195798 0.000965377 0)
(-0.0041087 0.00124287 0)
(-0.00647192 0.00127896 0)
(-0.00893661 0.00122343 0)
(-0.0115031 0.00117944 0)
(-0.0142833 0.0012641 0)
(-0.0175149 0.00162459 0)
(-0.0215639 0.00242655 0)
(-0.0268785 0.00379624 0)
(-0.0338955 0.00578228 0)
(-0.0428445 0.00836063 0)
(-0.0534715 0.0113133 0)
(-0.0651876 0.0141645 0)
(-0.0773034 0.0163602 0)
(-0.0891068 0.0174547 0)
(-0.100065 0.0173073 0)
(-0.109806 0.0160651 0)
(-0.118052 0.0139576 0)
(-0.124562 0.0111962 0)
(-0.129158 0.0079865 0)
(-0.131657 0.00448877 0)
(-0.131922 0.000797669 0)
(-0.129953 -0.00311589 0)
(-0.125495 -0.0071803 0)
(-0.118613 -0.0113384 0)
(-0.109116 -0.0154696 0)
(-0.0971289 -0.019338 0)
(-0.0827727 -0.0225784 0)
(-0.0663561 -0.024582 0)
(-0.0485226 -0.0245205 0)
(-0.0300586 -0.0214893 0)
(-0.0127085 -0.0153978 0)
(0.000850948 -0.0067338 0)
(0.00790431 0.00102638 0)
(0.00808086 0.004939 0)
(0.00515063 0.00596997 0)
(0.001121 0.00421153 0)
(6.47144e-05 -0.00141125 0)
(-0.00113605 0.000309978 0)
(-0.00339277 0.00237295 0)
(-0.0062879 0.00366653 0)
(-0.00964499 0.0043046 0)
(-0.0133012 0.00458004 0)
(-0.0172306 0.00474534 0)
(-0.0215095 0.00502222 0)
(-0.0263285 0.00565841 0)
(-0.031994 0.00692397 0)
(-0.0388578 0.00903201 0)
(-0.0471725 0.0120076 0)
(-0.0569695 0.0156191 0)
(-0.0680097 0.0194378 0)
(-0.0797957 0.0229706 0)
(-0.0916934 0.0257274 0)
(-0.103087 0.0272963 0)
(-0.113552 0.02747 0)
(-0.122867 0.0262181 0)
(-0.130872 0.0236679 0)
(-0.137432 0.0200832 0)
(-0.142475 0.0157275 0)
(-0.14593 0.0108267 0)
(-0.147708 0.00552888 0)
(-0.147765 -0.0001362 0)
(-0.146116 -0.0061989 0)
(-0.142505 -0.0124765 0)
(-0.136846 -0.0189068 0)
(-0.129004 -0.0253528 0)
(-0.118809 -0.0315252 0)
(-0.106207 -0.0369263 0)
(-0.0912692 -0.0409685 0)
(-0.0742372 -0.0425334 0)
(-0.0553724 -0.0401778 0)
(-0.035054 -0.0324376 0)
(-0.0155412 -0.0192313 0)
(-0.00126789 -0.00463094 0)
(0.00372784 0.00470658 0)
(0.00312315 0.00825035 0)
(0.000845013 0.00671823 0)
(-0.000373259 -0.000359123 0)
(-0.00295156 0.00277845 0)
(-0.00624049 0.00552228 0)
(-0.0100085 0.00724924 0)
(-0.0142335 0.00824932 0)
(-0.0188347 0.00887617 0)
(-0.0238628 0.00945322 0)
(-0.029445 0.0102976 0)
(-0.0357931 0.0117539 0)
(-0.0431701 0.0141365 0)
(-0.0517733 0.0175674 0)
(-0.061608 0.0218441 0)
(-0.072455 0.0264758 0)
(-0.0839178 0.0308569 0)
(-0.0954859 0.0344155 0)
(-0.10665 0.0366907 0)
(-0.117034 0.0374141 0)
(-0.126382 0.0365154 0)
(-0.134507 0.034049 0)
(-0.14132 0.0301911 0)
(-0.146779 0.025223 0)
(-0.15085 0.0194421 0)
(-0.153521 0.0130724 0)
(-0.154801 0.00625359 0)
(-0.154727 -0.00099746 0)
(-0.153229 -0.00861745 0)
(-0.150478 -0.0165732 0)
(-0.146358 -0.024928 0)
(-0.140811 -0.0335858 0)
(-0.133614 -0.0423051 0)
(-0.124473 -0.0506187 0)
(-0.11285 -0.0575753 0)
(-0.0981524 -0.0616106 0)
(-0.0805957 -0.0613338 0)
(-0.0601688 -0.0546401 0)
(-0.036873 -0.039166 0)
(-0.0137549 -0.0164102 0)
(-0.00154304 0.00088413 0)
(0.00101778 0.00853392 0)
(0.000446289 0.00803157 0)
(-0.000820318 0.00175595 0)
(-0.00449759 0.00630211 0)
(-0.00856 0.00953675 0)
(-0.0130079 0.0116347 0)
(-0.0179131 0.0130346 0)
(-0.0232384 0.0141194 0)
(-0.0290837 0.015258 0)
(-0.0355961 0.0168313 0)
(-0.0429644 0.0192255 0)
(-0.0513604 0.0227122 0)
(-0.0608294 0.0272588 0)
(-0.071221 0.0324533 0)
(-0.0822173 0.037643 0)
(-0.0934085 0.0421356 0)
(-0.104345 0.0453583 0)
(-0.114645 0.0469638 0)
(-0.124026 0.0467483 0)
(-0.132212 0.0446718 0)
(-0.139055 0.0409179 0)
(-0.144551 0.0357946 0)
(-0.148675 0.0296458 0)
(-0.151599 0.022602 0)
(-0.153564 0.0148895 0)
(-0.154403 0.00679755 0)
(-0.154158 -0.00163898 0)
(-0.15281 -0.0103714 0)
(-0.150538 -0.0194006 0)
(-0.147293 -0.0287414 0)
(-0.143072 -0.0384243 0)
(-0.137809 -0.0484676 0)
(-0.131365 -0.0586363 0)
(-0.123416 -0.0683947 0)
(-0.11336 -0.0764738 0)
(-0.0998642 -0.0803862 0)
(-0.0821107 -0.0774515 0)
(-0.0599198 -0.0647529 0)
(-0.0324468 -0.038978 0)
(-0.00798919 -0.0086547 0)
(-0.000217818 0.00644031 0)
(0.00049643 0.00848881 0)
(-0.00121153 0.00472317 0)
(-0.00569647 0.0106125 0)
(-0.0103065 0.0142023 0)
(-0.0152581 0.0166179 0)
(-0.0206616 0.0184246 0)
(-0.0264956 0.0200162 0)
(-0.0328837 0.0217835 0)
(-0.0399696 0.0241355 0)
(-0.047898 0.0274506 0)
(-0.0567515 0.0319121 0)
(-0.066469 0.0373246 0)
(-0.0768281 0.0431131 0)
(-0.0874854 0.0485185 0)
(-0.098048 0.0528303 0)
(-0.108175 0.0555309 0)
(-0.117508 0.0562842 0)
(-0.125694 0.0549301 0)
(-0.132557 0.0515378 0)
(-0.138081 0.0464347 0)
(-0.1423 0.0399869 0)
(-0.145319 0.0324985 0)
(-0.147278 0.0243532 0)
(-0.14808 0.0157418 0)
(-0.147887 0.00669493 0)
(-0.146989 -0.00262991 0)
(-0.145538 -0.0121718 0)
(-0.143479 -0.0219864 0)
(-0.140944 -0.0321385 0)
(-0.137924 -0.0426605 0)
(-0.134376 -0.0535281 0)
(-0.130139 -0.0645831 0)
(-0.124896 -0.075434 0)
(-0.118079 -0.0855344 0)
(-0.109049 -0.0936054 0)
(-0.0963274 -0.0965327 0)
(-0.078188 -0.0897534 0)
(-0.0536489 -0.0688605 0)
(-0.0205511 -0.0291603 0)
(-0.00179928 0.00014758 0)
(0.000837864 0.00845043 0)
(-0.0015019 0.00831161 0)
(-0.00652799 0.0154726 0)
(-0.0114917 0.019327 0)
(-0.0167725 0.0220157 0)
(-0.0224872 0.0242145 0)
(-0.0286152 0.0263174 0)
(-0.0352847 0.0287172 0)
(-0.0426214 0.0318202 0)
(-0.0507213 0.0359628 0)
(-0.0595964 0.041223 0)
(-0.0691265 0.0472625 0)
(-0.0790566 0.0533815 0)
(-0.0890553 0.0587601 0)
(-0.0987912 0.0627077 0)
(-0.107905 0.0647069 0)
(-0.116015 0.0644083 0)
(-0.122829 0.061767 0)
(-0.128284 0.0570482 0)
(-0.132428 0.0506686 0)
(-0.135307 0.043009 0)
(-0.137056 0.0344342 0)
(-0.137758 0.0252735 0)
(-0.137583 0.0157376 0)
(-0.136819 0.00600147 0)
(-0.13553 -0.00382757 0)
(-0.133829 -0.0137699 0)
(-0.131813 -0.0238933 0)
(-0.129615 -0.0342826 0)
(-0.127296 -0.0450554 0)
(-0.124874 -0.0563048 0)
(-0.122261 -0.0680334 0)
(-0.119224 -0.0800461 0)
(-0.115314 -0.091785 0)
(-0.109727 -0.102173 0)
(-0.10127 -0.109272 0)
(-0.0883612 -0.109528 0)
(-0.0689175 -0.0966541 0)
(-0.0399927 -0.0629131 0)
(-0.00705409 -0.0134554 0)
(0.00117702 0.00741135 0)
(-0.00167978 0.0123087 0)
(-0.00700552 0.0206694 0)
(-0.0121483 0.0247277 0)
(-0.0175887 0.0276485 0)
(-0.0234306 0.0302071 0)
(-0.0296467 0.0327918 0)
(-0.0363567 0.0357816 0)
(-0.0436611 0.0395571 0)
(-0.0516102 0.0443936 0)
(-0.0601673 0.0502664 0)
(-0.069183 0.0567201 0)
(-0.0784015 0.0629643 0)
(-0.0875216 0.0681473 0)
(-0.0962152 0.071559 0)
(-0.104116 0.0726568 0)
(-0.110874 0.071173 0)
(-0.1163 0.0672128 0)
(-0.12042 0.0611981 0)
(-0.123293 0.0535835 0)
(-0.125015 0.0447827 0)
(-0.125777 0.0352163 0)
(-0.125735 0.0252246 0)
(-0.125046 0.0150423 0)
(-0.123865 0.00480856 0)
(-0.122289 -0.00540621 0)
(-0.120436 -0.0156043 0)
(-0.118432 -0.0258534 0)
(-0.116407 -0.0362568 0)
(-0.114463 -0.0469625 0)
(-0.112665 -0.0581249 0)
(-0.110994 -0.0698552 0)
(-0.109291 -0.0821553 0)
(-0.107215 -0.0947897 0)
(-0.104149 -0.107037 0)
(-0.0990535 -0.117349 0)
(-0.0904326 -0.122856 0)
(-0.0764823 -0.118323 0)
(-0.054631 -0.0948346 0)
(-0.0179955 -0.0371679 0)
(0.00166902 0.00438427 0)
(-0.00174757 0.0165074 0)
(-0.0071583 0.0260058 0)
(-0.0123212 0.0302314 0)
(-0.0177618 0.0333436 0)
(-0.0235581 0.0362151 0)
(-0.0296732 0.0392265 0)
(-0.0362093 0.0427313 0)
(-0.0432386 0.0470691 0)
(-0.0507733 0.052447 0)
(-0.0587463 0.0587515 0)
(-0.0670016 0.0654377 0)
(-0.0752972 0.0716432 0)
(-0.083353 0.0764761 0)
(-0.09086 0.0792019 0)
(-0.0974779 0.0792986 0)
(-0.102922 0.0766048 0)
(-0.107116 0.071383 0)
(-0.110128 0.064163 0)
(-0.11204 0.0554312 0)
(-0.112997 0.0456629 0)
(-0.113186 0.0353025 0)
(-0.112739 0.024668 0)
(-0.111774 0.013971 0)
(-0.110395 0.0033375 0)
(-0.1087 -0.00716641 0)
(-0.106799 -0.0175335 0)
(-0.10482 -0.0278187 0)
(-0.102897 -0.038133 0)
(-0.101158 -0.0486462 0)
(-0.0997039 -0.0595686 0)
(-0.0985706 -0.0711097 0)
(-0.0976809 -0.0834003 0)
(-0.0967778 -0.0963931 0)
(-0.0953366 -0.109673 0)
(-0.092465 -0.122125 0)
(-0.0868345 -0.131453 0)
(-0.0768898 -0.133238 0)
(-0.0604534 -0.120048 0)
(-0.0333039 -0.076567 0)
(-0.000548652 -0.00764087 0)
(-0.0017156 0.0207089 0)
(-0.00702719 0.0313079 0)
(-0.012064 0.0356786 0)
(-0.0173593 0.0389409 0)
(-0.0229549 0.0420669 0)
(-0.0288024 0.0454304 0)
(-0.0349809 0.0493526 0)
(-0.0415343 0.0541247 0)
(-0.0484438 0.0598888 0)
(-0.0556292 0.0664563 0)
(-0.0629411 0.073216 0)
(-0.0701582 0.079246 0)
(-0.0770384 0.0836168 0)
(-0.083305 0.0855893 0)
(-0.0886851 0.0846878 0)
(-0.092971 0.0808621 0)
(-0.0961659 0.074516 0)
(-0.0983602 0.0662484 0)
(-0.099648 0.0565859 0)
(-0.10018 0.0460424 0)
(-0.100102 0.0350464 0)
(-0.0995049 0.023886 0)
(-0.098469 0.0127553 0)
(-0.0970676 0.00178013 0)
(-0.0953822 -0.00896565 0)
(-0.0935126 -0.0194605 0)
(-0.0915794 -0.0297423 0)
(-0.0897198 -0.0399151 0)
(-0.0880769 -0.0501563 0)
(-0.0867786 -0.0607109 0)
(-0.0859057 -0.07187 0)
(-0.085448 -0.0839086 0)
(-0.0852477 -0.0969762 0)
(-0.0848979 -0.110932 0)
(-0.0836053 -0.124998 0)
(-0.0800906 -0.137252 0)
(-0.0730397 -0.143578 0)
(-0.0608627 -0.137919 0)
(-0.0418437 -0.106884 0)
(-0.00775556 -0.0209509 0)
(-0.00160973 0.0247714 0)
(-0.00664597 0.0364074 0)
(-0.0114365 0.0409241 0)
(-0.0164585 0.044298 0)
(-0.0217195 0.0476152 0)
(-0.0271575 0.0512463 0)
(-0.0328266 0.0554784 0)
(-0.0387456 0.0605512 0)
(-0.0448692 0.0665426 0)
(-0.0511194 0.0732129 0)
(-0.0573622 0.0799178 0)
(-0.0634104 0.0856732 0)
(-0.0690666 0.0895325 0)
(-0.0741227 0.0907683 0)
(-0.0783731 0.0889605 0)
(-0.0816932 0.0841584 0)
(-0.0841268 0.0768773 0)
(-0.0857677 0.0677567 0)
(-0.0867036 0.0573572 0)
(-0.0870568 0.0461995 0)
(-0.0869219 0.0346849 0)
(-0.0863521 0.0230781 0)
(-0.0853936 0.0115633 0)
(-0.084095 0.000271624 0)
(-0.0825204 -0.0107075 0)
(-0.0807562 -0.021331 0)
(-0.0789152 -0.0316143 0)
(-0.0771339 -0.0416459 0)
(-0.0755613 -0.0516023 0)
(-0.0743409 -0.0617519 0)
(-0.0735821 -0.0724421 0)
(-0.0733206 -0.0840578 0)
(-0.0734685 -0.0969249 0)
(-0.0737401 -0.111168 0)
(-0.0734664 -0.126415 0)
(-0.0714107 -0.141264 0)
(-0.0664297 -0.15141 0)
(-0.0569625 -0.152035 0)
(-0.0410069 -0.130333 0)
(-0.0147587 -0.0532925 0)
(-0.00142956 0.0285347 0)
(-0.00605968 0.041177 0)
(-0.010507 0.0458492 0)
(-0.0151503 0.0492999 0)
(-0.0199693 0.052738 0)
(-0.0248862 0.0565416 0)
(-0.0299289 0.0609648 0)
(-0.0350927 0.0661964 0)
(-0.0403175 0.0722644 0)
(-0.045538 0.0789122 0)
(-0.0506344 0.085461 0)
(-0.0554725 0.0908856 0)
(-0.059909 0.0942367 0)
(-0.0638142 0.0948276 0)
(-0.0670609 0.0922706 0)
(-0.0695881 0.086698 0)
(-0.0714531 0.0786933 0)
(-0.0727379 0.06892 0)
(-0.0735049 0.0579591 0)
(-0.0738339 0.0463201 0)
(-0.0737725 0.0343778 0)
(-0.0733405 0.0223812 0)
(-0.0725571 0.0105125 0)
(-0.0714498 -0.00108625 0)
(-0.0700656 -0.0123051 0)
(-0.0684789 -0.0230741 0)
(-0.0667955 -0.0333808 0)
(-0.0651484 -0.0432932 0)
(-0.0636866 -0.0529804 0)
(-0.0625591 -0.0627255 0)
(-0.0618907 -0.0729222 0)
(-0.0617483 -0.084046 0)
(-0.0620917 -0.0965749 0)
(-0.0627213 -0.110839 0)
(-0.0631193 -0.126806 0)
(-0.0622441 -0.143517 0)
(-0.058354 -0.157816 0)
(-0.0512866 -0.162948 0)
(-0.0375185 -0.150836 0)
(-0.0139451 -0.0862524 0)
(-0.00118528 0.0318767 0)
(-0.00532172 0.0455211 0)
(-0.00934387 0.0503515 0)
(-0.0135236 0.0538375 0)
(-0.0178177 0.057326 0)
(-0.0221359 0.0612071 0)
(-0.0264761 0.0657043 0)
(-0.0308142 0.0709656 0)
(-0.0350795 0.0769852 0)
(-0.0392092 0.0834928 0)
(-0.0431197 0.0897927 0)
(-0.0467478 0.0948802 0)
(-0.050007 0.0977999 0)
(-0.0528099 0.0978619 0)
(-0.0551502 0.0947504 0)
(-0.057008 0.0886359 0)
(-0.0584297 0.0801233 0)
(-0.0594758 0.0698896 0)
(-0.0601744 0.0585221 0)
(-0.0605591 0.0465132 0)
(-0.0606392 0.0342178 0)
(-0.0604072 0.0218785 0)
(-0.0598593 0.00968126 0)
(-0.0590047 -0.00221731 0)
(-0.0578765 -0.0136828 0)
(-0.0565384 -0.0246131 0)
(-0.0550894 -0.0349648 0)
(-0.0536572 -0.0447831 0)
(-0.0523861 -0.0542279 0)
(-0.0514214 -0.0635909 0)
(-0.050891 -0.0733 0)
(-0.0508781 -0.0839052 0)
(-0.0513759 -0.096019 0)
(-0.0522318 -0.110172 0)
(-0.0530606 -0.126621 0)
(-0.0529669 -0.144837 0)
(-0.0501824 -0.162708 0)
(-0.0447652 -0.171409 0)
(-0.032974 -0.166211 0)
(-0.012186 -0.111246 0)
(-0.000889433 0.034703 0)
(-0.00446022 0.0493598 0)
(-0.00798903 0.0543536 0)
(-0.0116474 0.0578493 0)
(-0.0153659 0.0613311 0)
(-0.0190377 0.0652013 0)
(-0.0226354 0.0696625 0)
(-0.0261179 0.0748308 0)
(-0.0294075 0.0806768 0)
(-0.032441 0.0869332 0)
(-0.0351774 0.0929346 0)
(-0.0376763 0.0977515 0)
(-0.0396602 0.100173 0)
(-0.041434 0.0999322 0)
(-0.0429513 0.0964899 0)
(-0.0442046 0.0900633 0)
(-0.0452417 0.081253 0)
(-0.0460932 0.0707389 0)
(-0.0467554 0.0591043 0)
(-0.0472192 0.0468263 0)
(-0.0474624 0.0342495 0)
(-0.0474553 0.0216159 0)
(-0.0471761 0.00911934 0)
(-0.0466187 -0.00306464 0)
(-0.0458035 -0.0147736 0)
(-0.0447849 -0.0258706 0)
(-0.0436548 -0.0362789 0)
(-0.042534 -0.046021 0)
(-0.0415581 -0.0552483 0)
(-0.040862 -0.0642599 0)
(-0.0405666 -0.0735098 0)
(-0.0407597 -0.0836048 0)
(-0.0414587 -0.0952697 0)
(-0.0425463 -0.109224 0)
(-0.0437262 -0.125967 0)
(-0.0442507 -0.145384 0)
(-0.0427567 -0.165842 0)
(-0.037716 -0.179801 0)
(-0.0287021 -0.1802 0)
(-0.0103673 -0.13443 0)
(-0.000565702 0.0369495 0)
(-0.00351972 0.0526364 0)
(-0.00651153 0.0578086 0)
(-0.00960612 0.0612952 0)
(-0.0127126 0.0647127 0)
(-0.0157122 0.068489 0)
(-0.0185566 0.0728135 0)
(-0.0211898 0.0777784 0)
(-0.0235291 0.083342 0)
(-0.0255058 0.089256 0)
(-0.0271096 0.0949118 0)
(-0.0284473 0.099438 0)
(-0.0292919 0.101446 0)
(-0.0300283 0.101073 0)
(-0.0307411 0.0975274 0)
(-0.0313908 0.0910089 0)
(-0.0320381 0.0821022 0)
(-0.032679 0.0714765 0)
(-0.0332825 0.0597078 0)
(-0.0338042 0.047262 0)
(-0.0341961 0.0344805 0)
(-0.0344109 0.0216109 0)
(-0.0344132 0.00885853 0)
(-0.0341849 -0.00358103 0)
(-0.0337348 -0.0155137 0)
(-0.0331079 -0.0267664 0)
(-0.0323869 -0.037228 0)
(-0.0316824 -0.0468994 0)
(-0.0311168 -0.0559258 0)
(-0.0308096 -0.0646151 0)
(-0.0308669 -0.073442 0)
(-0.0313723 -0.0830556 0)
(-0.0323566 -0.0942706 0)
(-0.0337355 -0.107974 0)
(-0.0352517 -0.124893 0)
(-0.0362996 -0.14525 0)
(-0.0357346 -0.167803 0)
(-0.0314971 -0.18631 0)
(-0.0249055 -0.190717 0)
(-0.00885271 -0.152581 0)
(-0.000232731 0.038581 0)
(-0.00255142 0.0553082 0)
(-0.00497836 0.0606724 0)
(-0.00749018 0.0641326 0)
(-0.00997312 0.0674415 0)
(-0.0123005 0.0710581 0)
(-0.0144055 0.0751638 0)
(-0.0162197 0.0798336 0)
(-0.0176584 0.0850225 0)
(-0.018645 0.0905087 0)
(-0.0191796 0.0957597 0)
(-0.0193344 0.099928 0)
(-0.0191878 0.101733 0)
(-0.0189487 0.101298 0)
(-0.0187964 0.0978339 0)
(-0.018789 0.0914356 0)
(-0.0189834 0.0826308 0)
(-0.0193491 0.0720597 0)
(-0.019829 0.0602919 0)
(-0.0203524 0.0477871 0)
(-0.0208501 0.0348901 0)
(-0.0212611 0.0218597 0)
(-0.0215404 0.00891594 0)
(-0.0216621 -0.00372541 0)
(-0.0216248 -0.01584 0)
(-0.0214621 -0.0272168 0)
(-0.0212441 -0.0377114 0)
(-0.0210638 -0.0473062 0)
(-0.0210242 -0.0561404 0)
(-0.0212251 -0.0645339 0)
(-0.0217533 -0.0729775 0)
(-0.0226821 -0.0821499 0)
(-0.0240514 -0.0929347 0)
(-0.0258117 -0.106367 0)
(-0.027734 -0.123396 0)
(-0.0293293 -0.144539 0)
(-0.0295528 -0.168844 0)
(-0.0266207 -0.191883 0)
(-0.0209535 -0.200786 0)
(-0.007652 -0.169082 0)
(6.64633e-05 0.0396144 0)
(-0.00158522 0.0573622 0)
(-0.00344052 0.0629345 0)
(-0.00536728 0.0663601 0)
(-0.00723471 0.0695275 0)
(-0.00891091 0.0729313 0)
(-0.0103139 0.0767521 0)
(-0.0113645 0.0810541 0)
(-0.0119763 0.0857937 0)
(-0.0120672 0.0907743 0)
(-0.0116307 0.0955408 0)
(-0.0107227 0.0993309 0)
(-0.0096029 0.101073 0)
(-0.00841528 0.100614 0)
(-0.00738226 0.0973583 0)
(-0.00664765 0.0912635 0)
(-0.00629163 0.08275 0)
(-0.00628162 0.0724036 0)
(-0.00654212 0.0607805 0)
(-0.00698401 0.0483396 0)
(-0.00752181 0.0354345 0)
(-0.0080846 0.0223401 0)
(-0.00862112 0.00929452 0)
(-0.00910113 -0.00346646 0)
(-0.0095153 -0.0156932 0)
(-0.00988437 -0.0271386 0)
(-0.0102609 -0.0376279 0)
(-0.0107079 -0.0471302 0)
(-0.0113004 -0.0557771 0)
(-0.012115 -0.0639019 0)
(-0.0132157 -0.0720065 0)
(-0.0146639 -0.0807851 0)
(-0.0165047 -0.0911689 0)
(-0.0187175 -0.104316 0)
(-0.0211059 -0.1214 0)
(-0.0232488 -0.143203 0)
(-0.0241206 -0.16905 0)
(-0.0223507 -0.19557 0)
(-0.0181712 -0.208461 0)
(-0.00660081 -0.182379 0)
(0.000435368 0.0399911 0)
(-0.000651582 0.0587991 0)
(-0.00193702 0.0646005 0)
(-0.003294 0.0679902 0)
(-0.00456871 0.0709946 0)
(-0.00562889 0.0741477 0)
(-0.00638185 0.0776353 0)
(-0.00674108 0.0815158 0)
(-0.00661786 0.0857497 0)
(-0.00593048 0.0901667 0)
(-0.00465476 0.0943909 0)
(-0.00286154 0.0977685 0)
(-0.000789108 0.0994481 0)
(0.00130896 0.0990185 0)
(0.00321903 0.0960536 0)
(0.00474349 0.0903998 0)
(0.0057546 0.0823458 0)
(0.00626014 0.0723952 0)
(0.00633433 0.0610728 0)
(0.00607573 0.0488356 0)
(0.0055796 0.0360508 0)
(0.00492404 0.0230133 0)
(0.00416396 0.00998261 0)
(0.00333129 -0.00278641 0)
(0.00244144 -0.0150243 0)
(0.00148859 -0.0264565 0)
(0.000443161 -0.0368875 0)
(-0.00071381 -0.0462675 0)
(-0.00202099 -0.0547386 0)
(-0.00352959 -0.0626288 0)
(-0.0052771 -0.0704428 0)
(-0.00731499 -0.0788812 0)
(-0.00969262 -0.0889049 0)
(-0.012413 -0.101773 0)
(-0.0153227 -0.118877 0)
(-0.0180363 -0.141289 0)
(-0.0196009 -0.16874 0)
(-0.0188962 -0.198211 0)
(-0.0157111 -0.215453 0)
(-0.00581139 -0.194642 0)
(0.000593117 0.0398313 0)
(0.000195879 0.059624 0)
(-0.000522467 0.0656778 0)
(-0.0013272 0.0690418 0)
(-0.00203924 0.0718748 0)
(-0.00252775 0.0747554 0)
(-0.00269209 0.07788 0)
(-0.00244114 0.0813064 0)
(-0.00168541 0.0850001 0)
(-0.000346202 0.0888179 0)
(0.00161652 0.0924548 0)
(0.00413752 0.0953847 0)
(0.00700609 0.0969093 0)
(0.0099469 0.0965376 0)
(0.0127113 0.093889 0)
(0.0150559 0.0887622 0)
(0.0168052 0.0813037 0)
(0.0179184 0.0719074 0)
(0.0184475 0.0610501 0)
(0.0184828 0.0491755 0)
(0.0181199 0.0366619 0)
(0.0174405 0.0238264 0)
(0.0165025 0.0109527 0)
(0.0153391 -0.00168783 0)
(0.0139703 -0.0138064 0)
(0.0124101 -0.0251215 0)
(0.0106684 -0.0354269 0)
(0.0087585 -0.0446577 0)
(0.00668647 -0.0529603 0)
(0.00444423 -0.0606524 0)
(0.00201325 -0.068229 0)
(-0.000647853 -0.076385 0)
(-0.00359303 -0.0860948 0)
(-0.00684683 -0.0986971 0)
(-0.0103002 -0.115784 0)
(-0.0135861 -0.138702 0)
(-0.0158543 -0.167557 0)
(-0.0160935 -0.199699 0)
(-0.0139401 -0.22084 0)
(-0.00514368 -0.20488 0)
(0.000770998 0.0392665 0)
(0.000965486 0.0598618 0)
(0.000778675 0.0661912 0)
(0.00049786 0.0695458 0)
(0.000306601 0.0722099 0)
(0.000337624 0.0748109 0)
(0.000695629 0.0775612 0)
(0.00147236 0.0805216 0)
(0.00275554 0.083664 0)
(0.00462094 0.0868693 0)
(0.00711283 0.0898944 0)
(0.0101884 0.0923264 0)
(0.0136746 0.0936113 0)
(0.0173121 0.0932543 0)
(0.0208283 0.0908978 0)
(0.0239578 0.0863123 0)
(0.0264753 0.079532 0)
(0.0282744 0.0708262 0)
(0.0293568 0.0605921 0)
(0.0297876 0.0492489 0)
(0.0296513 0.037177 0)
(0.029025 0.0247114 0)
(0.0279669 0.0121597 0)
(0.0265201 -0.000190832 0)
(0.0247062 -0.0120461 0)
(0.0225586 -0.0231275 0)
(0.0201315 -0.0332294 0)
(0.0174809 -0.0422874 0)
(0.0146612 -0.0504284 0)
(0.0117004 -0.0579587 0)
(0.00859796 -0.0653527 0)
(0.00532145 -0.0732828 0)
(0.00181168 -0.0827237 0)
(-0.00197827 -0.0950813 0)
(-0.00597779 -0.112134 0)
(-0.00983713 -0.135521 0)
(-0.0127855 -0.165715 0)
(-0.0138631 -0.200415 0)
(-0.0125483 -0.225617 0)
(-0.00468017 -0.214503 0)
(0.000941965 0.0381489 0)
(0.00165117 0.0595507 0)
(0.00194843 0.0661869 0)
(0.00214856 0.0695458 0)
(0.0024321 0.072049 0)
(0.00292827 0.074375 0)
(0.00374202 0.0767548 0)
(0.00496281 0.0792558 0)
(0.00667371 0.0818575 0)
(0.00894569 0.0844616 0)
(0.0118223 0.0868748 0)
(0.0152802 0.0887782 0)
(0.0191946 0.0897452 0)
(0.0233314 0.0893326 0)
(0.0274272 0.0871897 0)
(0.0312129 0.0830959 0)
(0.0344314 0.0770039 0)
(0.0369179 0.0690721 0)
(0.0386055 0.0595997 0)
(0.0395063 0.0489533 0)
(0.0396771 0.0375002 0)
(0.0391825 0.0255842 0)
(0.0380788 0.0135323 0)
(0.0364162 0.00164374 0)
(0.0342261 -0.00979911 0)
(0.0315712 -0.0205266 0)
(0.0285418 -0.0303475 0)
(0.0252342 -0.0392006 0)
(0.021745 -0.0471911 0)
(0.0181353 -0.0545938 0)
(0.0144219 -0.0618504 0)
(0.0105765 -0.0696005 0)
(0.00653501 -0.0788066 0)
(0.00223673 -0.0909285 0)
(-0.00228109 -0.10793 0)
(-0.0066968 -0.131732 0)
(-0.0102851 -0.163163 0)
(-0.0121173 -0.200259 0)
(-0.0115903 -0.229398 0)
(-0.00430942 -0.222914 0)
(0.0010444 0.0367106 0)
(0.00222068 0.058763 0)
(0.00296136 0.0657076 0)
(0.00359949 0.0690862 0)
(0.00431055 0.0714433 0)
(0.00521809 0.0735082 0)
(0.00642433 0.0755335 0)
(0.00801422 0.077596 0)
(0.0100641 0.0796847 0)
(0.0126377 0.0817198 0)
(0.0157752 0.0835472 0)
(0.0194653 0.0849218 0)
(0.0236211 0.0855164 0)
(0.0280541 0.0849751 0)
(0.0325209 0.0829615 0)
(0.0367595 0.0792671 0)
(0.0405179 0.0738097 0)
(0.0435856 0.0666607 0)
(0.0458364 0.058032 0)
(0.0472223 0.0482179 0)
(0.0477503 0.0375482 0)
(0.0474579 0.0263568 0)
(0.0463927 0.0149775 0)
(0.0446127 0.00371113 0)
(0.0421658 -0.00717802 0)
(0.0391414 -0.0174408 0)
(0.0356579 -0.0269051 0)
(0.0318414 -0.0355141 0)
(0.0278184 -0.0433493 0)
(0.023677 -0.0506452 0)
(0.0194493 -0.0577943 0)
(0.0151119 -0.0653954 0)
(0.0106014 -0.0743921 0)
(0.00584439 -0.0862808 0)
(0.000845601 -0.103202 0)
(-0.00408187 -0.127393 0)
(-0.00826653 -0.160014 0)
(-0.0107615 -0.199448 0)
(-0.0109284 -0.232774 0)
(-0.00407567 -0.231023 0)
(0.00108753 0.034997 0)
(0.00266626 0.0575485 0)
(0.00380267 0.0647964 0)
(0.00483413 0.0682115 0)
(0.00592544 0.0704424 0)
(0.00719279 0.0722676 0)
(0.00873343 0.0739635 0)
(0.0106264 0.0756194 0)
(0.01294 0.077235 0)
(0.0157292 0.0787479 0)
(0.0190281 0.0800359 0)
(0.0228318 0.0809102 0)
(0.027074 0.0811203 0)
(0.0316175 0.0803888 0)
(0.0362521 0.0784353 0)
(0.0407297 0.0750489 0)
(0.0448128 0.0701397 0)
(0.0482802 0.0637286 0)
(0.0509637 0.0559538 0)
(0.0527638 0.0470427 0)
(0.0536391 0.0372751 0)
(0.0535912 0.0269518 0)
(0.0526498 0.016392 0)
(0.0508738 0.00588456 0)
(0.0483238 -0.00433349 0)
(0.0451048 -0.0140378 0)
(0.0413538 -0.0230751 0)
(0.0372128 -0.0313936 0)
(0.0328273 -0.0390524 0)
(0.0283024 -0.0462383 0)
(0.0236803 -0.0532862 0)
(0.018949 -0.0607495 0)
(0.014053 -0.0695477 0)
(0.00890638 -0.0812009 0)
(0.00348625 -0.097997 0)
(-0.00191746 -0.122522 0)
(-0.00665242 -0.156291 0)
(-0.00970408 -0.197894 0)
(-0.0105223 -0.235631 0)
(-0.00388681 -0.238482 0)
(0.0010805 0.0330912 0)
(0.00298555 0.0559678 0)
(0.00446498 0.063502 0)
(0.00584295 0.0669681 0)
(0.00726815 0.0690948 0)
(0.0088471 0.0707058 0)
(0.0106704 0.0721032 0)
(0.0128105 0.073391 0)
(0.0153267 0.0745812 0)
(0.0182647 0.0756279 0)
(0.0216511 0.0764352 0)
(0.0254817 0.0768581 0)
(0.0297042 0.0767053 0)
(0.0342136 0.0757594 0)
(0.0388436 0.0738083 0)
(0.0433739 0.0706614 0)
(0.0475777 0.0662166 0)
(0.0512453 0.0604727 0)
(0.0541923 0.0535163 0)
(0.056286 0.0455172 0)
(0.0574477 0.0367024 0)
(0.0576457 0.0273287 0)
(0.056888 0.0176821 0)
(0.0552236 0.00802732 0)
(0.0527197 -0.00143167 0)
(0.0494814 -0.0105025 0)
(0.0456492 -0.0190495 0)
(0.0413728 -0.027026 0)
(0.0368008 -0.0344681 0)
(0.0320414 -0.0415135 0)
(0.0271513 -0.0484435 0)
(0.0221383 -0.0557632 0)
(0.016952 -0.0643539 0)
(0.0114941 -0.0757458 0)
(0.0057166 -0.092375 0)
(-0.000131713 -0.117182 0)
(-0.00536723 -0.152068 0)
(-0.00888442 -0.195834 0)
(-0.0104845 -0.238088 0)
(-0.00355772 -0.24595 0)
(0.00103044 0.0310787 0)
(0.00317932 0.0540902 0)
(0.00494547 0.0618782 0)
(0.00662144 0.0654031 0)
(0.00833565 0.0674463 0)
(0.010182 0.0688702 0)
(0.0122431 0.0700023 0)
(0.0145844 0.0709634 0)
(0.017256 0.0717791 0)
(0.0202943 0.0724192 0)
(0.0237178 0.0728108 0)
(0.0275199 0.0728426 0)
(0.0316578 0.0723692 0)
(0.0360425 0.0712236 0)
(0.0405423 0.0692432 0)
(0.044982 0.0662796 0)
(0.0491515 0.0622324 0)
(0.0528517 0.0570806 0)
(0.0559052 0.0508819 0)
(0.0581633 0.0437597 0)
(0.0595258 0.0358913 0)
(0.0599383 0.0274877 0)
(0.0593889 0.0187919 0)
(0.0579098 0.0100336 0)
(0.0555658 0.00138426 0)
(0.0524499 -0.00700149 0)
(0.0486941 -0.0150041 0)
(0.0444423 -0.0225812 0)
(0.0398303 -0.0297492 0)
(0.0349717 -0.036607 0)
(0.029941 -0.043388 0)
(0.0247569 -0.0505418 0)
(0.0193732 -0.0589007 0)
(0.0136868 -0.0699943 0)
(0.00762017 -0.0863967 0)
(0.00139636 -0.11141 0)
(-0.00430487 -0.147359 0)
(-0.00820995 -0.19331 0)
(-0.0105494 -0.240034 0)
(-0.00331899 -0.253247 0)
(0.000945206 0.0290391 0)
(0.00325173 0.0519887 0)
(0.00524492 0.0599812 0)
(0.00716888 0.0635641 0)
(0.00912861 0.0655399 0)
(0.0112024 0.0668022 0)
(0.0134635 0.0677021 0)
(0.0159698 0.0683778 0)
(0.018762 0.0688692 0)
(0.0218677 0.0691619 0)
(0.0252975 0.0692027 0)
(0.0290409 0.0689079 0)
(0.0330592 0.0681679 0)
(0.037277 0.0668568 0)
(0.0415842 0.064847 0)
(0.045838 0.0620297 0)
(0.0498654 0.058323 0)
(0.0534818 0.0536966 0)
(0.05652 0.0481844 0)
(0.0588381 0.0418763 0)
(0.0603227 0.0349091 0)
(0.0609036 0.0274494 0)
(0.0605571 0.0196951 0)
(0.0592988 0.011835 0)
(0.0571815 0.00401152 0)
(0.0542801 -0.00365763 0)
(0.0507088 -0.011072 0)
(0.046594 -0.0181919 0)
(0.0420597 -0.025025 0)
(0.0372221 -0.0316433 0)
(0.0321605 -0.0382327 0)
(0.0269004 -0.0451829 0)
(0.0214055 -0.0532734 0)
(0.0155681 -0.0640183 0)
(0.00928217 -0.0801086 0)
(0.00272573 -0.105236 0)
(-0.00342782 -0.14222 0)
(-0.00764192 -0.190416 0)
(-0.0108233 -0.241644 0)
(-0.00293514 -0.260744 0)
(0.000832487 0.0270452 0)
(0.00320934 0.0497384 0)
(0.00536665 0.0578696 0)
(0.00748713 0.0614983 0)
(0.00965005 0.0634158 0)
(0.0119153 0.0645378 0)
(0.0143453 0.0652355 0)
(0.016989 0.0656643 0)
(0.019878 0.0658789 0)
(0.0230314 0.0658798 0)
(0.0264524 0.0656317 0)
(0.0301262 0.0650731 0)
(0.0340153 0.0641227 0)
(0.0380549 0.0626865 0)
(0.0421497 0.0606681 0)
(0.0461804 0.0579842 0)
(0.0500056 0.0545749 0)
(0.0534691 0.0504133 0)
(0.0564154 0.0455169 0)
(0.058712 0.0399519 0)
(0.0602557 0.0338196 0)
(0.0609522 0.0272411 0)
(0.0607946 0.0203887 0)
(0.0597645 0.0134001 0)
(0.057902 0.00639286 0)
(0.0552636 -0.000546414 0)
(0.0519404 -0.00734049 0)
(0.0480399 -0.0139564 0)
(0.0436729 -0.0204008 0)
(0.0389457 -0.0267241 0)
(0.0339367 -0.0330696 0)
(0.0286804 -0.0397713 0)
(0.0231489 -0.0475503 0)
(0.0172296 -0.0578927 0)
(0.0107889 -0.0735884 0)
(0.00394799 -0.0987021 0)
(-0.00264221 -0.136626 0)
(-0.00708297 -0.187133 0)
(-0.0112157 -0.242838 0)
(-0.00249954 -0.268351 0)
(0.000698575 0.0251622 0)
(0.0030592 0.0474161 0)
(0.00531476 0.0556044 0)
(0.00757902 0.0592532 0)
(0.00990382 0.0611118 0)
(0.0123285 0.0621079 0)
(0.014902 0.0626283 0)
(0.0176634 0.0628442 0)
(0.0206348 0.0628245 0)
(0.0238269 0.062584 0)
(0.0272361 0.0621031 0)
(0.0308433 0.0613388 0)
(0.0346112 0.0602319 0)
(0.0384816 0.0587135 0)
(0.0423731 0.0567124 0)
(0.046182 0.054165 0)
(0.0497909 0.0510278 0)
(0.0530708 0.0472811 0)
(0.0558902 0.0429363 0)
(0.0581247 0.0380379 0)
(0.0596767 0.0326647 0)
(0.0604813 0.0269179 0)
(0.0604671 0.0208921 0)
(0.0596499 0.0147281 0)
(0.0580428 0.00850947 0)
(0.0556849 0.00229483 0)
(0.0526434 -0.00386314 0)
(0.0490048 -0.00994155 0)
(0.0448606 -0.0159485 0)
(0.040303 -0.0219211 0)
(0.0354078 -0.0279702 0)
(0.0302169 -0.0343777 0)
(0.0247116 -0.0418006 0)
(0.0187782 -0.0516818 0)
(0.0122528 -0.066888 0)
(0.00518602 -0.0918675 0)
(-0.00182544 -0.130622 0)
(-0.00647776 -0.183532 0)
(-0.0117624 -0.243635 0)
(-0.00184922 -0.276243 0)
(0.000547613 0.0234491 0)
(0.00280733 0.0451 0)
(0.00509225 0.0532484 0)
(0.00744647 0.0568763 0)
(0.00989298 0.0586634 0)
(0.0124484 0.0595388 0)
(0.0151456 0.0598997 0)
(0.0180118 0.0599304 0)
(0.021059 0.0597131 0)
(0.0242895 0.0592754 0)
(0.027693 0.0586112 0)
(0.0312466 0.0576929 0)
(0.0349127 0.0564787 0)
(0.0386374 0.0549187 0)
(0.0423498 0.0529614 0)
(0.045962 0.0505605 0)
(0.0493724 0.0476822 0)
(0.0524733 0.0443141 0)
(0.0551557 0.0404644 0)
(0.057315 0.0361658 0)
(0.0588569 0.0314738 0)
(0.0597178 0.026465 0)
(0.059848 0.0212197 0)
(0.0592306 0.0158285 0)
(0.0578728 0.010359 0)
(0.0557983 0.00485028 0)
(0.0530527 -0.000667935 0)
(0.0496988 -0.00618445 0)
(0.0458078 -0.0117116 0)
(0.0414564 -0.0172821 0)
(0.0367153 -0.0229849 0)
(0.0316317 -0.0290553 0)
(0.0261982 -0.0360825 0)
(0.0203038 -0.0454477 0)
(0.013752 -0.0600575 0)
(0.00652331 -0.0847175 0)
(-0.000940034 -0.124163 0)
(-0.00574198 -0.17961 0)
(-0.0124263 -0.243942 0)
(-0.000971222 -0.284278 0)
(0.000379492 0.0219591 0)
(0.00245363 0.0428674 0)
(0.004697 0.0508654 0)
(0.00708758 0.0544146 0)
(0.00961742 0.0561035 0)
(0.0122785 0.0568524 0)
(0.0150847 0.057063 0)
(0.0180488 0.0569291 0)
(0.0211719 0.0565442 0)
(0.0244474 0.0559466 0)
(0.0278588 0.0551419 0)
(0.0313792 0.0541144 0)
(0.0349706 0.052836 0)