/*--------------------------------*- C++ -*----------------------------------*\
  =========                 |
  \\      /  F ield         | OpenFOAM: The Open Source CFD Toolbox
   \\    /   O peration     | Website:  https://openfoam.org
    \\  /    A nd           | Version:  13
     \\/     M anipulation  |
\*---------------------------------------------------------------------------*/
FoamFile
{
    format      ascii;
    class       volVectorField;
    location    "2";
    object      U;
}
// * * * * * * * * * * * * * * * * * * * * * * * * * * * * * * * * * * * * * //

dimensions      [0 1 -1 0 0 0 0];

internalField   nonuniform List<vector> 
400
(
(4.19448e-05 -6.03167e-05 0)
(-0.00117611 0.000579687 0)
(-0.00390336 0.00108902 0)
(-0.0072801 0.00132411 0)
(-0.0110839 0.00147851 0)
(-0.0153122 0.00167709 0)
(-0.0201096 0.00198585 0)
(-0.0256622 0.0024482 0)
(-0.0321315 0.00306769 0)
(-0.0395567 0.0037631 0)
(-0.0477486 0.00429906 0)
(-0.0562327 0.00425718 0)
(-0.0632288 0.00333745 0)
(-0.0662998 0.00182225 0)
(-0.0659993 -0.00138554 0)
(-0.0584295 -0.00412314 0)
(-0.046928 -0.00675565 0)
(-0.0311625 -0.00760211 0)
(-0.0140657 -0.00545611 0)
(-0.00195784 -0.00213668 0)
(-0.000707503 0.0012186 0)
(-0.00365603 0.00370706 0)
(-0.00780074 0.00529935 0)
(-0.0127088 0.00620452 0)
(-0.0182011 0.00693383 0)
(-0.0242986 0.00777774 0)
(-0.0310895 0.00882881 0)
(-0.0386076 0.0100489 0)
(-0.0467795 0.0112848 0)
(-0.0554184 0.0122534 0)
(-0.0642179 0.0124794 0)
(-0.0725522 0.0112591 0)
(-0.079043 0.00793153 0)
(-0.0818923 0.00227284 0)
(-0.0802613 -0.00544675 0)
(-0.0733867 -0.0136747 0)
(-0.0619162 -0.0212485 0)
(-0.0463812 -0.0263132 0)
(-0.0266083 -0.0245288 0)
(-0.00482698 -0.0116105 0)
(-0.00152615 0.00417183 0)
(-0.00538971 0.00780121 0)
(-0.00982836 0.0100002 0)
(-0.0149266 0.0115188 0)
(-0.0206145 0.0128753 0)
(-0.0269143 0.0143703 0)
(-0.0338687 0.0160718 0)
(-0.0414636 0.0178695 0)
(-0.0496219 0.0195258 0)
(-0.0582321 0.0206737 0)
(-0.0671141 0.0206693 0)
(-0.0756363 0.0184149 0)
(-0.0822177 0.0126939 0)
(-0.0850387 0.00324544 0)
(-0.0837396 -0.00876041 0)
(-0.0784131 -0.0218071 0)
(-0.0684798 -0.0344949 0)
(-0.0545174 -0.0446108 0)
(-0.0354751 -0.0470172 0)
(-0.0113158 -0.0308777 0)
(-0.00193607 0.00785283 0)
(-0.00617734 0.0122053 0)
(-0.0106005 0.0147473 0)
(-0.015527 0.0167494 0)
(-0.0209424 0.0186698 0)
(-0.0268842 0.0207572 0)
(-0.0333914 0.0230486 0)
(-0.0404683 0.0254037 0)
(-0.048113 0.0275555 0)
(-0.0563428 0.0290542 0)
(-0.065046 0.0289568 0)
(-0.0733394 0.0255442 0)
(-0.0792735 0.0171761 0)
(-0.0815405 0.00408743 0)
(-0.0803929 -0.0117712 0)
(-0.07579 -0.028886 0)
(-0.0672858 -0.0461473 0)
(-0.0546972 -0.0613416 0)
(-0.0369765 -0.0700495 0)
(-0.0163807 -0.0601098 0)
(-0.00201325 0.0117976 0)
(-0.00624337 0.0166761 0)
(-0.0104562 0.0193943 0)
(-0.0150233 0.0217355 0)
(-0.0199369 0.0241097 0)
(-0.0252428 0.0267001 0)
(-0.0309921 0.0295194 0)
(-0.0372194 0.0324294 0)
(-0.043975 0.0351479 0)
(-0.0513291 0.0370651 0)
(-0.059117 0.036767 0)
(-0.0662071 0.0318904 0)
(-0.070739 0.020824 0)
(-0.0720243 0.00469561 0)
(-0.070541 -0.0141861 0)
(-0.0665959 -0.0345265 0)
(-0.0595597 -0.0554504 0)
(-0.0489727 -0.0752504 0)
(-0.0332709 -0.0900173 0)
(-0.0162664 -0.0877537 0)
(-0.00188007 0.0156268 0)
(-0.00582426 0.0209126 0)
(-0.00966571 0.0236862 0)
(-0.0137304 0.026215 0)
(-0.0179924 0.0288907 0)
(-0.0224889 0.0318448 0)
(-0.0272706 0.0350726 0)
(-0.0323779 0.0384436 0)
(-0.0378593 0.0416402 0)
(-0.0437616 0.0438297 0)
(-0.0498923 0.0431469 0)
(-0.0551663 0.0367716 0)
(-0.0581104 0.0233739 0)
(-0.0586064 0.00478579 0)
(-0.0572613 -0.0163964 0)
(-0.0541801 -0.0390286 0)
(-0.0489716 -0.0626225 0)
(-0.040831 -0.0861916 0)
(-0.0278441 -0.105833 0)
(-0.014722 -0.109572 0)
(-0.00162471 0.0190848 0)
(-0.00509927 0.0247218 0)
(-0.00844527 0.0274763 0)
(-0.0119021 0.0300597 0)
(-0.0154139 0.0328756 0)
(-0.0189934 0.0360222 0)
(-0.0226698 0.0394791 0)
(-0.0264632 0.043114 0)
(-0.0304007 0.0465693 0)
(-0.034478 0.0488006 0)
(-0.0385716 0.0476151 0)
(-0.0419483 0.0400275 0)
(-0.0436406 0.0249915 0)
(-0.043796 0.00475813 0)
(-0.0428893 -0.0179753 0)
(-0.040962 -0.0421202 0)
(-0.0377819 -0.0675625 0)
(-0.0324729 -0.0940403 0)
(-0.0232496 -0.11934 0)
(-0.0111536 -0.128684 0)
(-0.00130354 0.0220115 0)
(-0.00419981 0.0279757 0)
(-0.00696969 0.0306663 0)
(-0.00975577 0.0331932 0)
(-0.0124681 0.035994 0)
(-0.0150875 0.0391505 0)
(-0.0176111 0.0426261 0)
(-0.0200235 0.0462804 0)
(-0.0223892 0.0497511 0)
(-0.024388 0.0516785 0)
(-0.0264714 0.0501548 0)
(-0.0280899 0.0419117 0)
(-0.0288644 0.0260378 0)
(-0.0289897 0.00492187 0)
(-0.028764 -0.0186643 0)
(-0.0281351 -0.0436662 0)
(-0.0268893 -0.0702567 0)
(-0.0240174 -0.0988781 0)
(-0.0184915 -0.128367 0)
(-0.00921371 -0.143986 0)
(-0.000960807 0.024326 0)
(-0.00322991 0.0306008 0)
(-0.00538877 0.0332025 0)
(-0.00748467 0.0355821 0)
(-0.00939771 0.0382284 0)
(-0.0110761 0.0412201 0)
(-0.0124867 0.0445072 0)
(-0.0135821 0.0479362 0)
(-0.0143539 0.051111 0)
(-0.0146019 0.0525978 0)
(-0.0147206 0.0508698 0)
(-0.0147709 0.042566 0)
(-0.0148173 0.026698 0)
(-0.0150899 0.005472 0)
(-0.0156998 -0.0183289 0)
(-0.0165069 -0.043645 0)
(-0.0171741 -0.070902 0)
(-0.0166344 -0.101266 0)
(-0.0144447 -0.134186 0)
(-0.00715115 -0.156382 0)
(-0.000629618 0.026025 0)
(-0.00227563 0.0325771 0)
(-0.00383079 0.0350722 0)
(-0.00525355 0.0372318 0)
(-0.00640522 0.0396081 0)
(-0.00720844 0.0422874 0)
(-0.00760805 0.0452081 0)
(-0.00753224 0.0481943 0)
(-0.00689836 0.0508255 0)
(-0.00575853 0.0518937 0)
(-0.00423766 0.0499648 0)
(-0.00289255 0.0421042 0)
(-0.00226675 0.0269967 0)
(-0.00270239 0.0064409 0)
(-0.00415717 -0.0168908 0)
(-0.00637911 -0.0419684 0)
(-0.00889392 -0.0695235 0)
(-0.0104562 -0.101304 0)
(-0.0112038 -0.13721 0)
(-0.00563949 -0.166273 0)
(-0.00033585 0.027125 0)
(-0.00141335 0.0339376 0)
(-0.00240451 0.0363033 0)
(-0.00320032 0.0381868 0)
(-0.00365369 0.0402045 0)
(-0.00367391 0.0424595 0)
(-0.00319732 0.0448844 0)
(-0.00214968 0.0472888 0)
(-0.000456604 0.0492589 0)
(0.00182746 0.0498591 0)
(0.00449635 0.0477265 0)
(0.0068906 0.040643 0)
(0.00817586 0.0269187 0)
(0.00773398 0.00778383 0)
(0.00558058 -0.0144241 0)
(0.00211365 -0.0387779 0)
(-0.00212061 -0.0663089 0)
(-0.00536257 -0.0992735 0)
(-0.00877526 -0.137805 0)
(-0.00434255 -0.174104 0)
(-0.000102084 0.0277376 0)
(-0.000711937 0.0347524 0)
(-0.00120645 0.0369522 0)
(-0.00144062 0.0385087 0)
(-0.00126964 0.040098 0)
(-0.00060609 0.0418528 0)
(0.000608529 0.0437117 0)
(0.0024322 0.0454815 0)
(0.00490365 0.0467798 0)
(0.00795046 0.0468642 0)
(0.0113408 0.0446133 0)
(0.0144275 0.0383005 0)
(0.0162505 0.0264106 0)
(0.0159562 0.00934659 0)
(0.0133786 -0.0111545 0)
(0.00899983 -0.0343542 0)
(0.00333723 -0.0615439 0)
(-0.00105588 -0.0954454 0)
(-0.00714225 -0.136463 0)
(-0.00302117 -0.180554 0)
(1.05477e-05 0.0279515 0)
(-0.000248915 0.0351152 0)
(-0.000330566 0.0371042 0)
(-7.39905e-05 0.0382705 0)
(0.000652145 0.0393805 0)
(0.0019179 0.0405903 0)
(0.00375409 0.0418572 0)
(0.00618841 0.0429985 0)
(0.00921921 0.0436747 0)
(0.0127507 0.043299 0)
(0.0165335 0.0409915 0)
(0.0199799 0.0354691 0)
(0.0221521 0.0254847 0)
(0.0220928 0.0108804 0)
(0.0194243 -0.00741711 0)
(0.0145309 -0.0290469 0)
(0.00788551 -0.0555675 0)
(0.00290785 -0.0901396 0)
(-0.00610044 -0.133595 0)
(-0.00137095 -0.185772 0)
(-3.73325e-06 0.0280709 0)
(-0.000171849 0.0351465 0)
(0.000105443 0.0367766 0)
(0.000808251 0.0375218 0)
(0.00205685 0.0381126 0)
(0.0038722 0.0387551 0)
(0.00625968 0.0394351 0)
(0.00920685 0.0399948 0)
(0.0126688 0.0401437 0)
(0.0165248 0.0394212 0)
(0.0205159 0.0371611 0)
(0.0241227 0.0324319 0)
(0.0265095 0.0242569 0)
(0.0267426 0.0121952 0)
(0.0242865 -0.00358665 0)
(0.0193336 -0.023268 0)
(0.0120852 -0.048635 0)
(0.00698634 -0.0836001 0)
(-0.00531537 -0.129559 0)
(0.00125308 -0.190292 0)
(-0.000324332 0.0282565 0)
(-0.00046177 0.0349977 0)
(2.76115e-05 0.0361499 0)
(0.00116158 0.0362946 0)
(0.00294399 0.0362999 0)
(0.0053181 0.0363636 0)
(0.00824856 0.0364849 0)
(0.0116838 0.0365322 0)
(0.0155411 0.0362632 0)
(0.0196754 0.0353195 0)
(0.02383 0.033212 0)
(0.0275518 0.029279 0)
(0.0301409 0.0227745 0)
(0.030763 0.0131308 0)
(0.0287732 1.46881e-05 0)
(0.0241437 -0.0173895 0)
(0.0165802 -0.0412124 0)
(0.0117574 -0.07632 0)
(-0.00439027 -0.124761 0)
(0.00520578 -0.194203 0)
(-0.000808929 0.0291377 0)
(-0.00140105 0.0348245 0)
(-0.000633133 0.0351877 0)
(0.00101607 0.0345968 0)
(0.00344282 0.0339505 0)
(0.00646924 0.0334348 0)
(0.0100211 0.0330432 0)
(0.0140174 0.032661 0)
(0.01835 0.0320877 0)
(0.0228573 0.0310422 0)
(0.0272877 0.02917 0)
(0.031255 0.0260018 0)
(0.0341771 0.0209856 0)
(0.0353659 0.0135345 0)
(0.0340826 0.00304159 0)
(0.0301379 -0.0118417 0)
(0.0225209 -0.0335783 0)
(0.0183025 -0.0682669 0)
(-0.00291326 -0.119739 0)
(0.0110231 -0.196976 0)
(-0.00246857 0.0308041 0)
(-0.00362444 0.0347277 0)
(-0.00198439 0.0337361 0)
(0.000733785 0.0322016 0)
(0.00417572 0.0308967 0)
(0.00814673 0.0298548 0)
(0.012573 0.029021 0)
(0.0173759 0.0282892 0)
(0.0224454 0.0274974 0)
(0.0276155 0.0264297 0)
(0.0326456 0.0248354 0)
(0.0372159 0.022378 0)
(0.0408141 0.0186969 0)
(0.0428867 0.0132186 0)
(0.0425686 0.00529958 0)
(0.0398153 -0.0067467 0)
(0.0322142 -0.0254463 0)
(0.0287845 -0.0584987 0)
(-0.00022146 -0.111698 0)
(0.0195572 -0.194488 0)
(-0.0055922 0.0367104 0)
(-0.0058493 0.0344279 0)
(-0.00163258 0.0315442 0)
(0.00306531 0.0292624 0)
(0.00835952 0.0273932 0)
(0.0140282 0.0258453 0)
(0.0200193 0.0245653 0)
(0.0262678 0.0234807 0)
(0.0326429 0.0224857 0)
(0.0390238 0.0214069 0)
(0.0451525 0.020116 0)
(0.0508175 0.0183263 0)
(0.055499 0.0159152 0)
(0.0589074 0.0123033 0)
(0.0599048 0.00717271 0)
(0.058976 -0.00143774 0)
(0.0517357 -0.0158433 0)
(0.0480826 -0.0457755 0)
(0.0090384 -0.0964863 0)
(0.0350127 -0.17563 0)
(-0.00547444 0.0380308 0)
(-0.00206035 0.0225748 0)
(0.0066623 0.018301 0)
(0.0154932 0.0162059 0)
(0.0244309 0.0145135 0)
(0.0333012 0.0130367 0)
(0.0420976 0.0118812 0)
(0.0508421 0.0110179 0)
(0.0593741 0.0103694 0)
(0.0677504 0.00976841 0)
(0.0756135 0.00916703 0)
(0.0831022 0.00831706 0)
(0.0894309 0.00722754 0)
(0.094887 0.00540688 0)
(0.0978562 0.00293051 0)
(0.0985403 -0.00251648 0)
(0.0928272 -0.010789 0)
(0.0883965 -0.0324827 0)
(0.0440825 -0.0707515 0)
(0.0683652 -0.132819 0)
(0.046903 0.051663 0)
(0.0523382 0.0355536 0)
(0.0760521 0.0272941 0)
(0.0965321 0.0228596 0)
(0.112037 0.0199989 0)
(0.125292 0.017799 0)
(0.137031 0.0159247 0)
(0.148109 0.0144519 0)
(0.157939 0.0133275 0)
(0.167577 0.0122293 0)
(0.175917 0.0116071 0)
(0.184282 0.0103592 0)
(0.191108 0.0101326 0)
(0.197556 0.00805953 0)
(0.202104 0.00799756 0)
(0.204605 0.00379713 0)
(0.201532 0.00137738 0)
(0.192142 -0.00630019 0)
(0.148945 -0.01813 0)
(0.142587 -0.0979182 0)
)
;

boundaryField
{
    movingWall
    {
        type            fixedValue;
        value           uniform (1 0 0);
    }
    fixedWalls
    {
        type            noSlip;
    }
    frontAndBack
    {
        type            empty;
    }
}


// ************************************************************************* //
