/*--------------------------------*- C++ -*----------------------------------*\
  =========                 |
  \\      /  F ield         | OpenFOAM: The Open Source CFD Toolbox
   \\    /   O peration     | Website:  https://openfoam.org
    \\  /    A nd           | Version:  13
     \\/     M anipulation  |
\*---------------------------------------------------------------------------*/
FoamFile
{
    format      ascii;
    class       volScalarField;
    location    "1.1";
    object      epsilon;
}
// * * * * * * * * * * * * * * * * * * * * * * * * * * * * * * * * * * * * * //

dimensions      [0 2 -3 0 0 0 0];

internalField   nonuniform List<scalar> 
6400
(
2.17114e-05
0.000104957
0.00021709
0.000330517
0.000434938
0.00052831
0.000611492
0.000685796
0.000752328
0.000811949
0.000865356
0.000913165
0.000955954
0.000994294
0.00102876
0.00105991
0.00108834
0.0011146
0.00113924
0.00116282
0.00118585
0.00120885
0.00123232
0.00125673
0.00128254
0.00131021
0.00134017
0.00137282
0.00140856
0.00144774
0.00149064
0.00153749
0.00158845
0.00164355
0.00170271
0.00176571
0.00183219
0.00190165
0.00197343
0.00204673
0.00212062
0.00219398
0.00226553
0.00233394
0.00239901
0.00246292
0.00252142
0.00257354
0.00261842
0.0026555
0.00268143
0.00269598
0.00270227
0.00269822
0.00268142
0.00265242
0.00261137
0.00255853
0.00249433
0.00241942
0.00233458
0.00224075
0.002139
0.00203048
0.0019163
0.0017975
0.00167504
0.00154976
0.00142232
0.00129323
0.00116288
0.00103126
0.000898453
0.000764472
0.000629498
0.00049455
0.000359133
0.000226629
0.000106651
2.19781e-05
0.000105716
9.23487e-05
0.000137063
0.000192082
0.00024584
0.000295275
0.000339868
0.000379861
0.000415668
0.00044771
0.000476386
0.000502075
0.000525143
0.000545945
0.00056483
0.000582132
0.000598176
0.000613273
0.000627716
0.000641782
0.000655732
0.000669805
0.000684225
0.000699197
0.000714909
0.000731528
0.000749203
0.000768058
0.000788189
0.000809664
0.000832512
0.000856718
0.000882219
0.000908899
0.000936588
0.000965058
0.000994029
0.00102318
0.00105213
0.00108051
0.00110787
0.0011338
0.00115788
0.00117991
0.00120001
0.00121853
0.00123421
0.00124684
0.00125628
0.00126114
0.00126223
0.00125974
0.00125347
0.00124323
0.00122861
0.00120976
0.00118681
0.00115994
0.00112935
0.00109529
0.00105804
0.00101791
0.000975215
0.000930283
0.000883408
0.000834852
0.000784828
0.00073349
0.000680926
0.00062715
0.000572106
0.000515651
0.000457594
0.000397728
0.000335905
0.000272342
0.000207178
0.000143647
9.36457e-05
0.000106741
0.000225824
0.000141401
0.000159334
0.000197258
0.000238277
0.000277665
0.000314054
0.000347068
0.000376724
0.000403196
0.000426737
0.000447644
0.000466229
0.000482811
0.000497714
0.000511224
0.000523623
0.000535174
0.000546115
0.000556665
0.000567019
0.000577345
0.000587791
0.000598487
0.00060954
0.000621039
0.000633058
0.000645645
0.000658836
0.000672649
0.000687083
0.000702124
0.000717737
0.000733871
0.000750457
0.000767408
0.000784615
0.000801949
0.000819264
0.000836395
0.00085316
0.000869372
0.000884843
0.000899474
0.000913174
0.000925709
0.000936686
0.000945876
0.000953055
0.000957505
0.00095916
0.000958701
0.000955474
0.000949293
0.00093997
0.000927496
0.000911915
0.000893314
0.000871831
0.000847649
0.00082099
0.000792104
0.000761256
0.000728712
0.000694721
0.000659506
0.000623247
0.000586069
0.00054804
0.00050916
0.00046936
0.00042851
0.000386419
0.000342857
0.000297726
0.000251239
0.00020432
0.000160948
0.000138835
0.000224225
0.000359769
0.000203545
0.000201006
0.000227966
0.000261689
0.000296021
0.000328684
0.000358794
0.000386075
0.000410476
0.000432115
0.000451211
0.000468023
0.000482818
0.00049585
0.000507463
0.00051793
0.000527496
0.000536381
0.000544787
0.000552888
0.000560829
0.000568736
0.000576718
0.000584868
0.000593269
0.000601998
0.000611107
0.00062065
0.000630673
0.000641217
0.000652317
0.000664004
0.000676295
0.000689197
0.0007027
0.000716768
0.000731346
0.000746349
0.000761667
0.000777171
0.000792717
0.000808159
0.000823329
0.000837938
0.000851674
0.000864222
0.000875288
0.000884568
0.000891719
0.000896283
0.000898088
0.00089765
0.0008942
0.000887559
0.000877676
0.000864563
0.000848298
0.000829022
0.000806935
0.00078229
0.000755377
0.00072651
0.00069601
0.000664184
0.00063131
0.00059762
0.000563292
0.000528437
0.000493097
0.000457248
0.000420808
0.000383655
0.000345677
0.000306851
0.000267503
0.000229047
0.000197064
0.000194414
0.000344545
0.000496428
0.00026697
0.000245943
0.000264339
0.000292729
0.000323298
0.000353207
0.000381219
0.000406767
0.000429694
0.000450041
0.000467959
0.000483666
0.000497422
0.000509517
0.000520176
0.000529646
0.000538157
0.000545924
0.000553141
0.000559997
0.000566612
0.000573109
0.000579599
0.000586176
0.000592908
0.000599852
0.000607162
0.000614939
0.000623275
0.000632255
0.000641964
0.000652481
0.000663874
0.000676191
0.000689455
0.00070366
0.000718766
0.000734696
0.00075134
0.000768555
0.000786175
0.000804014
0.000821781
0.00083917
0.00085585
0.000871463
0.000885645
0.000898019
0.000908204
0.000915838
0.000920261
0.000921682
0.000920153
0.000914922
0.000905929
0.00089318
0.000876764
0.000856859
0.000833722
0.000807684
0.000779133
0.000748488
0.00071618
0.000682625
0.000648204
0.000613239
0.000577985
0.000542614
0.000507221
0.000471822
0.00043637
0.000400784
0.000365006
0.000329117
0.000293641
0.000260451
0.000236141
0.000248493
0.000456486
0.000630609
0.000328186
0.000289889
0.000300719
0.000324629
0.000352105
0.000379767
0.000406118
0.000430439
0.000452435
0.000472046
0.000489351
0.00050452
0.000517767
0.00052933
0.000539439
0.000548325
0.000556208
0.00056329
0.000569752
0.000575742
0.000581432
0.000586962
0.00059246
0.000598052
0.00060387
0.000610056
0.000616709
0.000623964
0.000631961
0.000640818
0.000650664
0.00066162
0.00067379
0.000687252
0.000702052
0.000718201
0.000735664
0.000754364
0.000774179
0.000794933
0.000816394
0.000838272
0.000860278
0.000882057
0.000903212
0.000923312
0.000941902
0.000958507
0.000972644
0.000983843
0.000991481
0.000994885
0.00099499
0.00099064
0.000981633
0.000967968
0.000949766
0.000927266
0.000900828
0.000870915
0.000838067
0.000802874
0.000765941
0.000727851
0.000689134
0.000650243
0.000611536
0.000573265
0.000535578
0.000498528
0.000462093
0.000426216
0.000390869
0.000356198
0.000322861
0.000293029
0.000274271
0.000298697
0.000558238
0.000760097
0.000386252
0.000331671
0.000335686
0.000355709
0.000380542
0.000406287
0.000431225
0.000454514
0.000475756
0.000494812
0.000511703
0.000526545
0.000539515
0.000550817
0.000560668
0.000569285
0.000576878
0.000583645
0.000589767
0.000595415
0.000600754
0.000605938
0.000611119
0.000616446
0.000622078
0.000628179
0.000634907
0.000642434
0.000650936
0.000660613
0.000671639
0.000684175
0.000698353
0.000714272
0.00073199
0.000751518
0.000772817
0.000795796
0.000820307
0.000846149
0.000873067
0.000900745
0.000928819
0.000956863
0.000984391
0.00101087
0.00103571
0.00105829
0.00107797
0.00109408
0.001106
0.00111252
0.00111429
0.00111088
0.00110139
0.00108582
0.00106436
0.00103732
0.00100524
0.000968781
0.000928724
0.00088593
0.000841273
0.000795591
0.000749643
0.000704066
0.000659359
0.000615869
0.000573802
0.000533232
0.000494142
0.000456466
0.000420173
0.000385427
0.000352961
0.000325177
0.000310469
0.000344997
0.000651377
0.000883856
0.000441046
0.000370944
0.000368833
0.000385407
0.000407942
0.000432025
0.000455738
0.000478132
0.000498736
0.00051735
0.000533943
0.000548591
0.000561435
0.000572655
0.000582448
0.000591019
0.00059857
0.000605297
0.000611386
0.000617018
0.000622367
0.000627607
0.000632913
0.000638468
0.000644464
0.000651106
0.000658608
0.000667193
0.000677095
0.000688549
0.000701775
0.000716971
0.000734304
0.000753901
0.000775843
0.00080016
0.000826825
0.000855751
0.000886792
0.000919734
0.000954294
0.000990118
0.00102678
0.00106376
0.00110046
0.0011362
0.00117022
0.00120167
0.00122966
0.00125327
0.00127159
0.00128318
0.00128764
0.00128579
0.00127575
0.00125745
0.00123108
0.00119713
0.00115636
0.00110975
0.00105848
0.00100385
0.000947161
0.000889661
0.000832461
0.000776483
0.000722423
0.000670752
0.000621724
0.000575415
0.000531768
0.000490659
0.000452001
0.000415922
0.000383176
0.000356389
0.000344623
0.000388121
0.000738558
0.00100146
0.000492695
0.000407675
0.000400078
0.000413538
0.00043405
0.000456687
0.000479336
0.000500954
0.000521014
0.00053927
0.000555651
0.0005702
0.000583029
0.000594296
0.000604181
0.00061288
0.000620588
0.0006275
0.00063381
0.000639709
0.000645387
0.000651043
0.000656881
0.000663121
0.000670001
0.000677772
0.000686706
0.000697084
0.000709196
0.000723327
0.000739752
0.000758717
0.000780438
0.000805087
0.00083279
0.000863617
0.00089758
0.000934626
0.000974631
0.0010174
0.00106263
0.00110997
0.0011589
0.00120883
0.00125901
0.00130856
0.00135646
0.00140156
0.00144256
0.00147812
0.00150683
0.00152715
0.00153681
0.00153794
0.00152805
0.00150638
0.00147317
0.0014291
0.00137527
0.00131319
0.00124467
0.00117171
0.00109634
0.00102051
0.000945892
0.000873877
0.000805464
0.000741284
0.000681633
0.000626531
0.000575808
0.000529198
0.000486473
0.000447647
0.000413425
0.00038663
0.000376914
0.000428565
0.000821265
0.0011128
0.000541322
0.000442095
0.000429421
0.000440056
0.000458779
0.000480156
0.000501885
0.00052284
0.000542443
0.000560415
0.000576656
0.000591184
0.000604087
0.000615507
0.000625611
0.000634584
0.00064262
0.000649918
0.000656678
0.000663106
0.000669416
0.000675833
0.0006826
0.000689981
0.000698263
0.000707758
0.000718797
0.00073173
0.000746912
0.000764698
0.000785429
0.000809425
0.000836975
0.00086833
0.000903694
0.000943223
0.000987011
0.00103509
0.00108741
0.00114383
0.00120411
0.00126788
0.0013346
0.00140359
0.00147392
0.00154445
0.0016138
0.00168033
0.00174217
0.00179728
0.00184351
0.00187874
0.0018993
0.0019059
0.00189835
0.00187338
0.00183121
0.00177271
0.0016995
0.00161387
0.00151865
0.00141704
0.0013123
0.00120756
0.00110554
0.00100841
0.000917668
0.0008342
0.000758314
0.000689876
0.000628458
0.000573497
0.000524469
0.000481141
0.00044407
0.000416173
0.00040769
0.000466859
0.000900678
0.00121794
0.000587119
0.000474374
0.000456934
0.000464982
0.000482111
0.000502392
0.000523334
0.00054373
0.000562963
0.000580725
0.000596896
0.000611474
0.000624533
0.0006362
0.000646634
0.000656016
0.00066454
0.00067241
0.00067984
0.000687055
0.000694295
0.000701822
0.000709922
0.000718912
0.00072914
0.000740985
0.000754854
0.000771175
0.000790389
0.000812941
0.000839271
0.000869806
0.000904951
0.000945086
0.000990558
0.00104167
0.00109868
0.00116179
0.00123111
0.00130665
0.00138831
0.00147578
0.00156857
0.00166588
0.00176661
0.00186927
0.00197197
0.00207235
0.00216768
0.00225486
0.00233056
0.00239137
0.00243283
0.0024507
0.00245009
0.00242373
0.00237096
0.00229282
0.00219152
0.00207048
0.00193408
0.00178744
0.00163598
0.00148493
0.00133888
0.00120147
0.00107517
0.00096129
0.000860127
0.000771215
0.000693595
0.000626105
0.000567641
0.00051748
0.000475833
0.000445539
0.000437404
0.000503505
0.000977687
0.00131705
0.000630286
0.000504663
0.000482712
0.000488368
0.000504066
0.000523392
0.000543668
0.000563608
0.000582556
0.000600182
0.000616353
0.000631052
0.000644345
0.000656351
0.000667224
0.000677143
0.000686309
0.000694936
0.000703254
0.000711514
0.000719991
0.000728989
0.000738846
0.000749944
0.000762702
0.000777582
0.000795082
0.000815731
0.000840082
0.000868707
0.000902187
0.000941111
0.000986066
0.00103764
0.00109642
0.00116297
0.00123782
0.00132149
0.0014144
0.00151686
0.00162903
0.00175083
0.00188185
0.00202127
0.00216774
0.00231931
0.00247334
0.00262648
0.00277467
0.00291323
0.00303704
0.00314066
0.00321885
0.00326194
0.0032743
0.00325301
0.00319054
0.00308809
0.00294848
0.00277637
0.00257825
0.00236213
0.00213684
0.00191132
0.00169367
0.00149043
0.00130608
0.00114294
0.00100136
0.000880261
0.000777646
0.000691183
0.000618645
0.000558351
0.000509808
0.000475464
0.000466601
0.000539061
0.00105321
0.00141036
0.000671011
0.000533104
0.000506851
0.000510276
0.000524681
0.000543175
0.000562895
0.000582475
0.000601221
0.000618788
0.000635029
0.000649924
0.000663531
0.000675966
0.000687385
0.000697972
0.000707934
0.000717504
0.000726934
0.000736507
0.00074654
0.000757388
0.000769457
0.000783201
0.000799129
0.000817803
0.000839838
0.000865895
0.000896679
0.000932939
0.00097546
0.00102507
0.00108265
0.00114911
0.0012254
0.00131253
0.00141151
0.00152336
0.00164904
0.00178939
0.00194504
0.00211627
0.0023029
0.00250404
0.00271802
0.00294219
0.00317282
0.00340506
0.00363301
0.00384982
0.00404793
0.00421942
0.00435639
0.00444706
0.00448432
0.00448047
0.00441565
0.00428895
0.00410336
0.00386438
0.00358051
0.00326314
0.00292597
0.00258379
0.00225098
0.00193989
0.00165949
0.00141474
0.00120674
0.00103354
0.000891295
0.000775457
0.00068163
0.000606287
0.000547537
0.000506912
0.000495902
0.000573738
0.00112666
0.00149811
0.000709468
0.000559825
0.000529443
0.000530776
0.000544002
0.00056177
0.000581032
0.00060034
0.000618966
0.00063655
0.000652937
0.000668102
0.000682105
0.000695064
0.000707139
0.000718524
0.000729442
0.000740145
0.000750919
0.000762085
0.000774011
0.000787117
0.000801885
0.000818863
0.000838669
0.000861991
0.000889593
0.000922312
0.00096106
0.00100684
0.00106072
0.0011239
0.00119768
0.00128346
0.0013828
0.00149737
0.00162892
0.00177929
0.00195027
0.00214351
0.00236032
0.00260148
0.00286698
0.00315575
0.00346539
0.00379207
0.00413037
0.0044733
0.00481252
0.0051385
0.00544083
0.00570868
0.00593097
0.00609722
0.00618565
0.0062109
0.00616403
0.00602507
0.00579745
0.00548598
0.00509936
0.00465121
0.00416006
0.00364817
0.00313956
0.00265713
0.00221955
0.00183885
0.0015196
0.00125973
0.00105272
0.000890035
0.000763192
0.000665117
0.000591198
0.000541123
0.000525928
0.000607573
0.00119729
0.00158052
0.000745817
0.000584959
0.000550551
0.00054994
0.000562079
0.000579211
0.0005981
0.000617219
0.000635805
0.00065348
0.000670087
0.000685601
0.000700086
0.000713665
0.000726509
0.000738827
0.000750864
0.0007629
0.000775259
0.000788312
0.00080249
0.00081829
0.000836288
0.000857146
0.000881615
0.000910548
0.0009449
0.000985743
0.00103427
0.00109183
0.00115994
0.00124028
0.00133478
0.00144561
0.00157517
0.00172615
0.0019014
0.00210393
0.00233667
0.0026023
0.00290289
0.00323955
0.00361202
0.00401833
0.00445455
0.00491466
0.00539062
0.00587265
0.00634959
0.0068093
0.00723905
0.00762594
0.00795737
0.00822103
0.00839485
0.00846733
0.00846842
0.0083486
0.00810627
0.00774326
0.00726408
0.00668022
0.00601123
0.00528502
0.00453613
0.00380288
0.00312145
0.00252027
0.00201537
0.00160928
0.00129359
0.00105381
0.000874153
0.000740834
0.000644004
0.000579751
0.000557362
0.000640583
0.00126415
0.00165779
0.0007802
0.000608623
0.000570237
0.000567839
0.000578964
0.000595533
0.000614125
0.000633131
0.00065175
0.000669591
0.000686493
0.000702435
0.000717487
0.000731786
0.000745516
0.000758907
0.000772232
0.000785808
0.000800005
0.000815256
0.000832066
0.000851028
0.000872831
0.000898277
0.000928286
0.000963916
0.00100637
0.00105704
0.00111751
0.00118959
0.00127539
0.00137734
0.00149824
0.00164133
0.00181026
0.00200909
0.00224219
0.00251402
0.00282884
0.00319025
0.0036006
0.00406045
0.00456803
0.00511892
0.00570602
0.00631974
0.00694851
0.00757942
0.0081991
0.00879408
0.00935113
0.00985769
0.0103022
0.0106725
0.0109559
0.0111232
0.0111835
0.0111373
0.0109373
0.0105846
0.0100711
0.00939958
0.0085816
0.00764353
0.00662293
0.00557328
0.00455349
0.00362098
0.00281924
0.00216958
0.00166965
0.00129977
0.0010329
0.000843212
0.000710929
0.000625142
0.000591107
0.000672782
0.00132618
0.00173014
0.000812735
0.000630883
0.000588625
0.000584524
0.0005947
0.000610771
0.000629132
0.000648092
0.000666813
0.000684891
0.000702162
0.000718612
0.00073432
0.000749439
0.000764174
0.000778782
0.00079357
0.000808899
0.000825199
0.000842973
0.00086282
0.000885444
0.000911675
0.000942484
0.000979004
0.00102255
0.00107467
0.00113714
0.00121207
0.00130193
0.00140963
0.00153861
0.00169291
0.00187718
0.00209674
0.00235742
0.00266534
0.0030265
0.00344608
0.00392769
0.00447247
0.00507835
0.00573962
0.00644694
0.00718797
0.00794817
0.00871236
0.00946564
0.0101946
0.0108874
0.0115336
0.0121253
0.0126601
0.0131266
0.0135138
0.0138125
0.0139848
0.0140446
0.0139609
0.0137229
0.0132892
0.0126477
0.0117868
0.0107282
0.00948776
0.00812606
0.00671562
0.00534949
0.00411655
0.00308323
0.00227718
0.00168602
0.00127152
0.000988801
0.000800015
0.000680911
0.000628493
0.000704274
0.00138225
0.00179777
0.000843528
0.000651821
0.000605798
0.000600051
0.000609334
0.00062496
0.000643147
0.000662121
0.000681007
0.000699388
0.0007171
0.000734135
0.000750588
0.000766629
0.000782491
0.000798461
0.00081489
0.000832194
0.000850869
0.000871508
0.000894817
0.000921636
0.000952963
0.000989979
0.00103408
0.00108692
0.00115044
0.00122698
0.00131932
0.0014308
0.0015654
0.0017279
0.00192392
0.00215999
0.00244342
0.00278201
0.00318351
0.00365473
0.00420039
0.00482189
0.00551617
0.00627516
0.00708593
0.00793165
0.00879317
0.00965097
0.0104875
0.0112888
0.0120458
0.0127541
0.0134075
0.0140034
0.014535
0.0150119
0.0154437
0.0158326
0.0161718
0.0164481
0.0165944
0.0166289
0.0164398
0.0160119
0.015279
0.014298
0.0130061
0.011462
0.00971907
0.00789677
0.00612947
0.00455472
0.00327171
0.00231298
0.0016467
0.00120648
0.00092485
0.000752928
0.000671638
0.0007354
0.00143148
0.00186086
0.000872675
0.000671513
0.000621825
0.000614477
0.000622909
0.000638133
0.000656193
0.000675233
0.000694342
0.000713088
0.000731308
0.000749004
0.000766289
0.000783354
0.000800462
0.000817942
0.000836193
0.000855696
0.000877028
0.000900884
0.000928099
0.000959674
0.00099681
0.00104094
0.00109379
0.00115742
0.00123432
0.0013275
0.00144062
0.00157813
0.00174541
0.00194893
0.00219629
0.00249616
0.00285797
0.0032912
0.00380424
0.00440286
0.00508842
0.00585629
0.00669506
0.00758673
0.00850827
0.00943397
0.0103383
0.0111988
0.0119986
0.012727
0.0133781
0.0139508
0.0144524
0.0149037
0.0153301
0.0157453
0.016157
0.01657
0.0169844
0.0173962
0.0178034
0.0181802
0.0184554
0.0185769
0.0184437
0.0178399
0.0167848
0.0153236
0.0134621
0.0113207
0.00903583
0.00681738
0.00487313
0.00334318
0.00225697
0.00154743
0.00110914
0.000851147
0.00072411
0.000766989
0.00147364
0.00191954
0.000900256
0.000690026
0.000636764
0.000627849
0.000635464
0.000650322
0.000668293
0.000687443
0.000706824
0.000725991
0.000744783
0.000763213
0.000781412
0.000799599
0.000818074
0.000837209
0.000857463
0.000879391
0.000903665
0.000931099
0.000962677
0.000999592
0.00104329
0.0010955
0.00115836
0.00123443
0.00132686
0.00143953
0.0015772
0.0017457
0.00195214
0.002205
0.00251412
0.00289038
0.00334489
0.00388762
0.00452541
0.00525958
0.00608372
0.00698248
0.00793181
0.00890098
0.00985606
0.0107639
0.0115962
0.0123317
0.0129614
0.0134879
0.0139195
0.0142775
0.0145883
0.0148818
0.0151787
0.0155022
0.0158707
0.0162942
0.0167758
0.0173079
0.0178709
0.0184443
0.0189984
0.0195101
0.0199518
0.020162
0.0200311
0.0191618
0.0175494
0.0154337
0.0128456
0.0100409
0.00732841
0.00500835
0.00326423
0.0021016
0.00139508
0.000993007
0.000792147
0.000800762
0.00150971
0.00197394
0.000926342
0.000707421
0.000650668
0.000640215
0.000647038
0.000661555
0.000679468
0.000698765
0.000718461
0.000738098
0.000757519
0.000776749
0.000795941
0.000815345
0.000835301
0.000856234
0.000878669
0.000903246
0.000930746
0.000962119
0.000998525
0.00104138
0.0010924
0.00115371
0.0012279
0.00131816
0.00142846
0.00156371
0.00173001
0.00193487
0.0021874
0.00249831
0.00287967
0.00334409
0.0039031
0.00456482
0.00533085
0.00619338
0.00713325
0.00812005
0.00911459
0.0100734
0.0109545
0.0117225
0.0123531
0.0128303
0.0131702
0.0134063
0.0135567
0.0136394
0.0136972
0.0137681
0.013878
0.0140537
0.0143232
0.0147
0.0151964
0.0158182
0.0165617
0.0174097
0.0183289
0.0192626
0.0201246
0.0208661
0.0214238
0.0216852
0.0212424
0.0197517
0.0172857
0.0141988
0.0108131
0.00757487
0.00490643
0.00302053
0.0018578
0.0012097
0.000887014
0.00083969
0.00154289
0.00202418
0.000950993
0.000723751
0.000663585
0.000651616
0.000657665
0.000671859
0.000689737
0.000709209
0.000729254
0.000749405
0.000769506
0.000789596
0.000809853
0.000830563
0.000852108
0.000874974
0.000899761
0.000927204
0.000958207
0.000993877
0.00103557
0.00108496
0.0011441
0.00121554
0.00130242
0.0014087
0.00153929
0.00170035
0.00189955
0.00214631
0.00245189
0.00282923
0.00329216
0.00385378
0.00452376
0.00530469
0.00618829
0.00715259
0.00816151
0.00916752
0.0101172
0.0109581
0.0116462
0.0121523
0.0124794
0.0126263
0.0126559
0.0125763
0.0123862
0.0121795
0.0120016
0.01189
0.0118477
0.0118732
0.0120352
0.0123198
0.0127452
0.0133251
0.0140759
0.0150093
0.0161277
0.0174111
0.0188009
0.020207
0.0214875
0.0224777
0.0229646
0.0230168
0.0217299
0.0189411
0.0152884
0.0112448
0.00747333
0.00453759
0.00262745
0.00155737
0.00102883
0.000889697
0.00157972
0.00207034
0.000974258
0.000739063
0.000675557
0.00066209
0.000667376
0.000681259
0.000699117
0.000718785
0.000739208
0.000759907
0.000780729
0.000801732
0.00082312
0.000845214
0.000868448
0.000893373
0.000920671
0.000951185
0.000985955
0.00102626
0.00107369
0.0011302
0.00119823
0.00128082
0.00138178
0.0015059
0.00165923
0.00184934
0.00208566
0.00237964
0.00274469
0.00319556
0.00374675
0.00440977
0.00518904
0.00607724
0.00705141
0.00807155
0.00908306
0.010023
0.010829
0.0114483
0.0118382
0.0120071
0.0120326
0.011854
0.0115012
0.0111078
0.0107141
0.0103598
0.0100784
0.00989692
0.00981587
0.00980022
0.0099086
0.0101267
0.010457
0.0109125
0.0115139
0.012292
0.0132867
0.0145367
0.0160675
0.0178559
0.0197944
0.021695
0.0232727
0.0241993
0.0245785
0.0235133
0.0203508
0.0159995
0.0112142
0.00696025
0.00391511
0.00213571
0.00125412
0.000962291
0.00163166
0.0021125
0.000996177
0.000753399
0.000686626
0.000671672
0.000676203
0.000689778
0.000707625
0.000727502
0.000748322
0.000769595
0.000791174
0.000813133
0.000835705
0.000859252
0.000884263
0.000911359
0.000941312
0.000975083
0.00101386
0.00105912
0.0011127
0.00117688
0.00125453
0.00134925
0.0014656
0.00160933
0.00178774
0.00200997
0.0022873
0.00263318
0.00306285
0.00359197
0.00423397
0.00499586
0.00587288
0.00684345
0.00786635
0.00888234
0.00982059
0.0106085
0.011184
0.0114691
0.0115591
0.0114395
0.0110573
0.0105612
0.0100149
0.00949511
0.00904829
0.00869756
0.00845423
0.00833455
0.00829381
0.0083161
0.00845448
0.00866522
0.00895513
0.00932678
0.00979016
0.0103634
0.0110757
0.0119826
0.0131716
0.0147441
0.0167571
0.0191247
0.0216733
0.024032
0.0254894
0.0260844
0.0251311
0.0214182
0.016171
0.010596
0.00602342
0.00311217
0.00162955
0.00107814
0.00171776
0.00215074
0.00101678
0.000766797
0.000696825
0.000680396
0.000684172
0.00069744
0.000715276
0.000735368
0.000756596
0.000778461
0.000800821
0.000823769
0.000847569
0.000872626
0.000899487
0.000928847
0.000961578
0.000998767
0.00104176
0.00109226
0.00115235
0.0012247
0.00131263
0.00142038
0.00155332
0.00171826
0.00192384
0.00218085
0.00250238
0.00290368
0.0034011
0.00400983
0.00473989
0.00559048
0.00654386
0.00756095
0.00858119
0.00952847
0.0103226
0.0108711
0.0111118
0.0111522
0.0108992
0.010414
0.00979975
0.00915715
0.008562
0.00806542
0.00769059
0.00743906
0.00731763
0.00727734
0.00729225
0.00740445
0.00758351
0.00782024
0.00811496
0.00846726
0.00888094
0.00936387
0.00993074
0.0105973
0.0114037
0.0124261
0.0138189
0.0158255
0.0185042
0.0216053
0.0247655
0.026812
0.0276034
0.0265483
0.0219669
0.0155888
0.00930276
0.00474616
0.00227161
0.00127433
0.00186846
0.00218512
0.00103611
0.000779289
0.000706191
0.000688293
0.000691312
0.000704266
0.000722086
0.000742392
0.000764031
0.000786495
0.000809651
0.00083361
0.000858668
0.000885276
0.000914042
0.00094574
0.000981347
0.00102208
0.00106947
0.00112543
0.00119235
0.00127327
0.00137205
0.00149357
0.0016441
0.00183157
0.002066
0.0023598
0.00272771
0.00318626
0.00375191
0.00443759
0.00524725
0.00616912
0.00716961
0.00819097
0.00915539
0.00997665
0.0105416
0.0107774
0.0107948
0.0104822
0.00993049
0.00924085
0.00852635
0.00787819
0.00735101
0.00696324
0.00671652
0.00660106
0.00656473
0.00658278
0.00668775
0.00685251
0.00706843
0.00733248
0.00764377
0.00800184
0.00840763
0.0088637
0.00937588
0.00995591
0.0106103
0.0113677
0.0122946
0.0135262
0.0153081
0.0180717
0.0217019
0.0256748
0.0282519
0.029165
0.0276284
0.0216904
0.0140186
0.0073821
0.00336282
0.0016162
0.00213093
0.0022157
0.00105417
0.000790907
0.000714754
0.000695393
0.000697649
0.000710278
0.000728071
0.00074858
0.000770626
0.000793689
0.000817644
0.000842624
0.000868956
0.00089714
0.000927845
0.000961929
0.00100048
0.00104485
0.00109675
0.00115833
0.00123231
0.00132212
0.00143215
0.00156801
0.00173685
0.00194778
0.00221217
0.00254389
0.00295902
0.00347462
0.00410596
0.00486173
0.00573731
0.00670748
0.00772152
0.00870419
0.00956571
0.0101901
0.01046
0.0104876
0.0101793
0.00960446
0.00886936
0.00809976
0.00740284
0.00684237
0.00643767
0.00618655
0.00607013
0.00603334
0.00604542
0.0061369
0.00628383
0.00647725
0.00671529
0.00699797
0.00732603
0.00770014
0.00812049
0.00858661
0.00909785
0.00965558
0.0102673
0.0109372
0.0116787
0.0125532
0.0136912
0.0153534
0.0180431
0.0221412
0.0269362
0.0298574
0.030728
0.0280427
0.0201236
0.011373
0.00515164
0.00221659
0.00256981
0.00224253
0.00107098
0.000801678
0.000722546
0.000701726
0.00070321
0.000715498
0.000733247
0.000753945
0.000776382
0.000800034
0.000824781
0.000850778
0.000878385
0.00090815
0.000940807
0.000977298
0.00101882
0.00106687
0.00112335
0.00119065
0.0012718
0.00137067
0.0014922
0.00164271
0.00183026
0.00206507
0.00235979
0.00272952
0.00319114
0.00376135
0.00445282
0.00526812
0.00619205
0.00718468
0.00817861
0.00908301
0.0097953
0.010144
0.0102194
0.00996794
0.00941481
0.00866461
0.00785274
0.00710388
0.00649815
0.00606209
0.00578808
0.00565729
0.0056112
0.00560925
0.00567387
0.00579233
0.00595213
0.00615249
0.00639523
0.0066834
0.00702039
0.00740921
0.00785153
0.00834693
0.00889229
0.00948186
0.0101094
0.0107735
0.0114817
0.0122328
0.0130806
0.0141629
0.0157663
0.0184591
0.023062
0.0286858
0.0316189
0.032172
0.0269935
0.0169064
0.00793569
0.00323238
0.00325813
0.00226568
0.00108655
0.000811629
0.000729596
0.00070732
0.000708022
0.000719949
0.000737631
0.000758495
0.000781303
0.000805523
0.000831044
0.000858041
0.000886908
0.00091824
0.000952835
0.000991723
0.00103621
0.00108794
0.00114899
0.00122201
0.00131035
0.0014183
0.00155135
0.00171653
0.00192277
0.00218133
0.00250593
0.00291256
0.0034183
0.00403852
0.00478195
0.00564346
0.00659617
0.00758564
0.00853038
0.00932928
0.00980669
0.00996236
0.00981215
0.00932899
0.00860109
0.00776474
0.00696174
0.0062949
0.00580732
0.0054923
0.00532997
0.00526237
0.00524583
0.00527273
0.00535441
0.0054726
0.00562572
0.00581657
0.00604965
0.00633048
0.00666499
0.00705892
0.00751691
0.00804128
0.00863064
0.00927833
0.00997191
0.010695
0.0114338
0.0121805
0.0129442
0.0137961
0.0148521
0.0164696
0.0193434
0.0247082
0.030872
0.0335259
0.032864
0.0237373
0.012023
0.00483265
0.00423634
0.00228522
0.0011009
0.000820784
0.000735937
0.000712204
0.000712114
0.000723656
0.000741245
0.000762246
0.000785395
0.000810154
0.000836419
0.000864384
0.000894478
0.000927342
0.000963838
0.00100508
0.00105247
0.00110782
0.00117337
0.00125202
0.00134744
0.00146432
0.00160868
0.00178822
0.00201268
0.0022942
0.00264736
0.00308861
0.00363456
0.00429832
0.00508356
0.00597652
0.00693834
0.00790141
0.00877499
0.00941845
0.00968199
0.00966397
0.00930374
0.00864547
0.00781543
0.00696583
0.00622572
0.00566447
0.00528959
0.00507537
0.00497521
0.00493806
0.00493306
0.00496969
0.00504465
0.00514817
0.00528339
0.00545522
0.00566985
0.00593439
0.00625652
0.00664416
0.007105
0.00764547
0.00826904
0.00897359
0.00974843
0.0105727
0.0114166
0.01225
0.0130254
0.0137724
0.014627
0.0157143
0.0174403
0.0207399
0.0271867
0.0334654
0.0354222
0.0310373
0.0175589
0.00713122
0.00548874
0.0023012
0.00111404
0.000829173
0.000741607
0.000716389
0.000715518
0.000726648
0.000744109
0.000765213
0.000788667
0.000813926
0.000840893
0.000869783
0.000901054
0.000935394
0.000973724
0.00101724
0.00106745
0.00112629
0.0011962
0.00128028
0.00138253
0.001508
0.00166322
0.00185648
0.00209822
0.00240128
0.0027808
0.00325326
0.00383418
0.00453364
0.0053495
0.00625913
0.00721233
0.00812975
0.00890977
0.00935749
0.00946851
0.00928379
0.00875244
0.00797656
0.00710584
0.0062918
0.00563859
0.00518112
0.00489792
0.00474719
0.004677
0.00465071
0.00464713
0.00467591
0.00473328
0.00481571
0.0049283
0.00507713
0.00526925
0.00551253
0.0058156
0.00618784
0.00663924
0.00717988
0.00781861
0.00856072
0.00940381
0.0103324
0.011314
0.0122992
0.0132665
0.014068
0.0147665
0.0155686
0.0167314
0.0187142
0.0228482
0.0308145
0.0359385
0.0362874
0.024416
0.010171
0.00694707
0.00231371
0.00112597
0.000836815
0.000746627
0.000719923
0.000718261
0.00072895
0.00074625
0.000767415
0.00079113
0.000816842
0.00084446
0.000874215
0.000906598
0.000942335
0.000982406
0.00102808
0.00108097
0.00114312
0.00121716
0.00130639
0.00141506
0.00154862
0.00171398
0.00191997
0.00217758
0.00250017
0.00290308
0.00340242
0.00401206
0.00473854
0.00557364
0.00648614
0.00741602
0.00827589
0.00893369
0.00921345
0.00920918
0.00886252
0.00820417
0.0073614
0.00649413
0.00574117
0.00517719
0.00480707
0.00458896
0.00447069
0.00441113
0.00438384
0.00437564
0.00438728
0.00442331
0.00448313
0.00457249
0.00469795
0.0048668
0.00508704
0.00536758
0.00571849
0.00615119
0.0066784
0.00731344
0.00806853
0.00895134
0.00995902
0.0110696
0.0122344
0.0133751
0.0144673
0.0152793
0.015903
0.0166141
0.0179189
0.0204177
0.0261083
0.0348131
0.0382632
0.032113
0.0140404
0.00858682
0.00232284
0.00113669
0.00084373
0.000751024
0.000722845
0.000720374
0.000730593
0.000747692
0.000768874
0.0007928
0.00081891
0.000847116
0.000877667
0.000911078
0.000948114
0.000989807
0.00103749
0.00109287
0.00115811
0.00123596
0.00132994
0.00144453
0.00158546
0.00176003
0.00197743
0.00224909
0.00258862
0.00301131
0.00353248
0.004164
0.00490861
0.0057522
0.00665595
0.00755212
0.00834813
0.00886914
0.00902598
0.00890713
0.00843482
0.00769107
0.00682063
0.00598338
0.00529882
0.0048136
0.00450873
0.004331
0.00422928
0.00416925
0.00413205
0.00411358
0.00410872
0.00412271
0.00416088
0.00422861
0.00433234
0.00447919
0.0046769