/*--------------------------------*- C++ -*----------------------------------*\
  =========                 |
  \\      /  F ield         | OpenFOAM: The Open Source CFD Toolbox
   \\    /   O peration     | Website:  https://openfoam.org
    \\  /    A nd           | Version:  13
     \\/     M anipulation  |
\*---------------------------------------------------------------------------*/
FoamFile
{
    format      ascii;
    class       volScalarField;
    location    "1.1";
    object      k;
}
// * * * * * * * * * * * * * * * * * * * * * * * * * * * * * * * * * * * * * //

dimensions      [0 2 -2 0 0 0 0];

internalField   nonuniform List<scalar> 
6400
(
4.23322e-07
2.04646e-06
4.23298e-06
6.44482e-06
8.48116e-06
1.03021e-05
1.19244e-05
1.33737e-05
1.46714e-05
1.58344e-05
1.68763e-05
1.78091e-05
1.8644e-05
1.93922e-05
2.00648e-05
2.0673e-05
2.12281e-05
2.17409e-05
2.22225e-05
2.26834e-05
2.31338e-05
2.35838e-05
2.40431e-05
2.4521e-05
2.50266e-05
2.55688e-05
2.61559e-05
2.67961e-05
2.74968e-05
2.82649e-05
2.91061e-05
3.00248e-05
3.10238e-05
3.21038e-05
3.32632e-05
3.44975e-05
3.57996e-05
3.71597e-05
3.85647e-05
3.99992e-05
4.14444e-05
4.2879e-05
4.42776e-05
4.56145e-05
4.68856e-05
4.81338e-05
4.92758e-05
5.02931e-05
5.11687e-05
5.1892e-05
5.23961e-05
5.26788e-05
5.28003e-05
5.2719e-05
5.23883e-05
5.18195e-05
5.10149e-05
4.99798e-05
4.87229e-05
4.72564e-05
4.5596e-05
4.37601e-05
4.17697e-05
3.9647e-05
3.7414e-05
3.50911e-05
3.26972e-05
3.02485e-05
2.77582e-05
2.52361e-05
2.26901e-05
2.01199e-05
1.7527e-05
1.49119e-05
1.22781e-05
9.64516e-06
7.00357e-06
4.41927e-06
2.07962e-06
4.28543e-07
2.06129e-06
1.70439e-05
3.56524e-05
5.34038e-05
6.90707e-05
8.26939e-05
9.4583e-05
0.000105032
0.000114265
0.000122446
0.000129708
0.00013616
0.000141901
0.000147025
0.000151619
0.00015577
0.000159561
0.000163069
0.000166373
0.000169546
0.000172657
0.000175774
0.000178961
0.000182279
0.000185787
0.000189538
0.000193584
0.00019797
0.000202737
0.000207917
0.000213534
0.0002196
0.000226115
0.000233063
0.000240412
0.000248115
0.000256111
0.000264322
0.000272661
0.000281026
0.00028931
0.000297394
0.000305145
0.00031242
0.000319065
0.000324994
0.000330251
0.000334757
0.000338449
0.00034129
0.000342895
0.000343409
0.000343224
0.000341855
0.000339289
0.000335541
0.000330621
0.000324549
0.000317356
0.000309087
0.0002998
0.00028956
0.000278445
0.000266533
0.000253902
0.000240626
0.000226769
0.000212381
0.000197496
0.000182127
0.000166266
0.000149877
0.000132905
0.000115272
9.68655e-05
7.75516e-05
5.74368e-05
3.68882e-05
1.72156e-05
2.08139e-06
4.40346e-06
3.67621e-05
7.38158e-05
0.000106494
0.000134157
0.000157707
0.000177967
0.000195546
0.000210882
0.000224302
0.000236066
0.00024639
0.000255465
0.000263467
0.000270555
0.000276881
0.000282587
0.000287807
0.000292669
0.000297292
0.000301789
0.000306266
0.000310823
0.000315551
0.000320535
0.000325853
0.000331572
0.00033775
0.000344433
0.000351657
0.00035944
0.000367785
0.000376678
0.000386087
0.00039596
0.000406233
0.000416822
0.000427632
0.000438557
0.00044948
0.000460277
0.00047082
0.000480976
0.000490613
0.000499612
0.000507868
0.00051528
0.000521735
0.000527121
0.000531334
0.000534133
0.000535337
0.000535452
0.000534008
0.00053089
0.000526091
0.000519606
0.000511445
0.000501637
0.000490231
0.000477295
0.000462913
0.000447181
0.0004302
0.000412073
0.000392894
0.000372745
0.000351685
0.000329746
0.000306922
0.000283171
0.000258399
0.000232459
0.000205139
0.00017615
0.000145098
0.00011152
7.49986e-05
3.65224e-05
4.3726e-06
7.01593e-06
5.73461e-05
0.000110178
0.000153496
0.000189013
0.0002189
0.000244487
0.00026661
0.00028584
0.000302596
0.000317211
0.000329967
0.000341111
0.000350869
0.000359449
0.000367045
0.00037384
0.000380004
0.000385699
0.000391076
0.000396275
0.000401429
0.000406661
0.000412085
0.000417803
0.000423908
0.00043048
0.000437584
0.000445272
0.000453579
0.000462523
0.000472103
0.0004823
0.000493075
0.000504371
0.000516112
0.00052821
0.000540561
0.000553052
0.000565557
0.000577945
0.000590079
0.000601821
0.00061303
0.000623572
0.000633306
0.000642093
0.000649788
0.000656248
0.000661333
0.000664851
0.000666494
0.000666752
0.000665184
0.000661625
0.00065605
0.000648443
0.000638812
0.000627187
0.000613624
0.000598205
0.00058103
0.000562216
0.00054189
0.000520175
0.00049719
0.000473033
0.000447776
0.000421456
0.000394062
0.000365533
0.00033574
0.000304482
0.000271457
0.000236231
0.000198168
0.000156275
0.000108957
5.52865e-05
6.71953e-06
9.68193e-06
7.72391e-05
0.000143294
0.000194644
0.000235826
0.000270223
0.000299606
0.000324998
0.000347063
0.000366278
0.000383022
0.000397613
0.000410336
0.000421448
0.000431188
0.000439782
0.000447439
0.000454358
0.000460725
0.000466714
0.000472491
0.000478205
0.000484
0.000490004
0.000496335
0.000503096
0.000510376
0.000518248
0.000526766
0.000535967
0.000545868
0.000556466
0.000567738
0.000579639
0.000592107
0.000605062
0.00061841
0.00063204
0.000645832
0.000659654
0.000673368
0.000686828
0.000699884
0.000712383
0.000724168
0.000735076
0.00074494
0.000753595
0.000760873
0.000766609
0.000770592
0.000772473
0.000772757
0.000770945
0.000766862
0.000760469
0.000751747
0.000740701
0.000727369
0.00071182
0.000694151
0.000674488
0.000652972
0.000629757
0.000604995
0.000578829
0.000551381
0.000522739
0.000492949
0.000462004
0.000429833
0.000396286
0.000361121
0.000323972
0.000284292
0.000241236
0.000193365
0.000138026
7.21481e-05
8.90339e-06
1.23001e-05
9.59645e-05
0.000173368
0.000231305
0.00027703
0.000314981
0.000347334
0.000375288
0.000399592
0.000420775
0.00043925
0.000455362
0.000469418
0.000481699
0.000492466
0.000501965
0.000510425
0.000518066
0.000525094
0.000531702
0.000538074
0.000544378
0.00055077
0.000557393
0.000564375
0.000571829
0.00057985
0.000588515
0.000597883
0.000607989
0.00061885
0.000630458
0.000642786
0.000655787
0.000669394
0.000683523
0.000698073
0.00071293
0.000727965
0.000743042
0.000758014
0.000772724
0.000787012
0.000800708
0.000813637
0.000825618
0.000836464
0.000845985
0.000853991
0.000860291
0.000864631
0.000866646
0.000866881
0.000864736
0.000860032
0.00085272
0.000842779
0.000830221
0.000815094
0.000797486
0.000777522
0.000755354
0.000731161
0.000705129
0.000677446
0.000648286
0.000617796
0.000586086
0.000553214
0.000519174
0.000483887
0.000447186
0.00040879
0.000368271
0.000324979
0.000277875
0.00022513
0.000163198
8.70896e-05
1.08888e-05
1.48271e-05
0.000113427
0.000200759
0.000264364
0.000313976
0.000354931
0.00038977
0.000419861
0.000446042
0.000468891
0.000488853
0.000506295
0.000521544
0.000534895
0.000546625
0.000556996
0.000566255
0.000574636
0.000582361
0.000589642
0.000596674
0.000603642
0.000610714
0.000618046
0.000625775
0.000634018
0.000642878
0.000652433
0.000662741
0.000673836
0.000685733
0.000698422
0.000711871
0.000726032
0.000740832
0.000756185
0.000771986
0.000788116
0.000804443
0.000820822
0.0008371
0.00085311
0.000868681
0.000883628
0.000897761
0.00091088
0.000922776
0.000933234
0.000942034
0.000948957
0.000953695
0.000955855
0.000956035
0.000953531
0.000948136
0.000939792
0.000928476
0.000914211
0.000897067
0.000877161
0.000854654
0.000829743
0.000802652
0.000773618
0.000742876
0.000710639
0.000677089
0.000642358
0.000606518
0.000569564
0.000531407
0.000491854
0.000450585
0.000407108
0.000360668
0.000310048
0.000253071
0.000185436
0.000100466
1.27064e-05
1.72427e-05
0.000129659
0.000225791
0.00029441
0.000347475
0.00039109
0.000428111
0.000460069
0.00048789
0.000512205
0.00053349
0.000552137
0.000568485
0.000582847
0.000595511
0.000606752
0.00061683
0.000625994
0.00063448
0.000642511
0.000650297
0.000658035
0.000665904
0.000674067
0.000682668
0.000691829
0.000701655
0.000712223
0.000723592
0.000735794
0.00074884
0.00076272
0.0007774
0.000792827
0.000808931
0.00082562
0.000842789
0.000860317
0.000878068
0.000895895
0.000913639
0.000931127
0.000948177
0.000964594
0.00098017
0.000994683
0.0010079
0.00101957
0.00102944
0.00103724
0.00104262
0.00104511
0.00104534
0.00104256
0.00103648
0.001027
0.00101412
0.000997866
0.000978342
0.000955709
0.000930182
0.000902027
0.00087154
0.00083903
0.000804799
0.000769121
0.000732223
0.000694269
0.000655342
0.00061544
0.000574455
0.000532163
0.000488195
0.000441989
0.000392687
0.000338901
0.000278149
0.000205472
0.000112657
1.44077e-05
1.95385e-05
0.000144735
0.000248735
0.000321858
0.000378064
0.000424098
0.000463101
0.000496747
0.000526051
0.000551697
0.000574195
0.000593959
0.000611348
0.000626686
0.000640275
0.0006524
0.000663335
0.000673339
0.000682661
0.000691535
0.000700183
0.00070881
0.000717604
0.000726733
0.000736347
0.000746569
0.000757504
0.000769229
0.000781801
0.000795251
0.000809588
0.000824801
0.000840857
0.000857703
0.000875269
0.000893466
0.000912193
0.000931329
0.000950742
0.000970286
0.000989802
0.00100912
0.00102804
0.00104636
0.00106386
0.00108029
0.00109538
0.00110884
0.00112035
0.00112959
0.00113619
0.00113945
0.00114003
0.00113725
0.00113063
0.00112
0.00110535
0.00108673
0.00106428
0.00103825
0.00100891
0.000976646
0.000941861
0.000904982
0.000866418
0.000826537
0.000785637
0.000743927
0.000701511
0.000658381
0.000614402
0.000569307
0.000522664
0.000473832
0.000421844
0.000365152
0.000300992
0.000223825
0.000123999
1.60222e-05
2.17123e-05
0.000158736
0.000269815
0.000347028
0.000406122
0.000454398
0.00049524
0.000530454
0.000561134
0.000588019
0.000611655
0.000632482
0.000650876
0.000667175
0.000681695
0.000694733
0.000706571
0.000717482
0.000727724
0.000737542
0.000747165
0.000756808
0.000766663
0.000776903
0.000787677
0.000799113
0.000811311
0.000824348
0.000838281
0.000853138
0.000868932
0.00088565
0.000903264
0.000921727
0.000940976
0.000960929
0.000981495
0.00100256
0.00102402
0.00104571
0.00106751
0.00108923
0.00111068
0.00113166
0.00115192
0.00117117
0.0011891
0.00120536
0.00121955
0.00123125
0.00124004
0.00124503
0.00124655
0.00124437
0.00123763
0.001226
0.00120943
0.00118801
0.00116193
0.00113149
0.00109713
0.00105937
0.00101879
0.00097601
0.000931624
0.000886157
0.000840029
0.000793528
0.000746792
0.000699803
0.000652386
0.000604207
0.00055475
0.000503272
0.000448683
0.000389273
0.000322018
0.000240842
0.000134712
1.75724e-05
2.37653e-05
0.000171746
0.000289223
0.00037017
0.00043194
0.000482314
0.000524887
0.000561581
0.000593567
0.000621632
0.000646359
0.000668216
0.000687597
0.000704859
0.000720328
0.000734315
0.000747113
0.000759004
0.000770256
0.000781123
0.000791842
0.000802631
0.000813688
0.000825185
0.000837274
0.00085008
0.000863703
0.000878219
0.000893683
0.000910128
0.000927568
0.000945999
0.000965402
0.000985741
0.00100697
0.00102902
0.00105183
0.00107531
0.00109936
0.00112388
0.00114872
0.00117375
0.00119878
0.0012236
0.00124792
0.00127144
0.00129376
0.00131445
0.00133299
0.00134883
0.00136138
0.00136976
0.00137331
0.00137279
0.00136679
0.00135471
0.00133631
0.0013117
0.00128113
0.00124502
0.00120393
0.0011586
0.0011099
0.00105876
0.00100607
0.000952649
0.000899144
0.000845994
0.00079341
0.000741371
0.000689638
0.000637772
0.000585129
0.000530823
0.000473611
0.000411599
0.000341502
0.000256734
0.000144915
1.9076e-05
2.57009e-05
0.000183843
0.000307122
0.000391489
0.000455746
0.000508094
0.000552312
0.000590423
0.000623664
0.000652871
0.000678664
0.000701535
0.000721903
0.00074014
0.000756588
0.000771569
0.000785389
0.000798339
0.000810696
0.000822722
0.000834658
0.000846726
0.000859126
0.000872031
0.00088559
0.000899928
0.000915143
0.000931315
0.000948499
0.000966734
0.000986044
0.00100644
0.00102792
0.00105047
0.00107407
0.00109869
0.00112431
0.00115087
0.00117833
0.00120663
0.00123567
0.00126534
0.00129548
0.00132587
0.0013562
0.0013861
0.00141509
0.00144258
0.0014679
0.0014903
0.00150895
0.00152304
0.00153094
0.00153325
0.00152956
0.0015182
0.00149857
0.00147076
0.00143506
0.00139194
0.0013421
0.00128655
0.00122651
0.00116336
0.00109852
0.00103331
0.000968822
0.000905825
0.000844709
0.000785487
0.000727835
0.000671148
0.000614576
0.000557012
0.000496991
0.000432387
0.000359628
0.000271616
0.000154626
2.05504e-05
2.75232e-05
0.000195102
0.00032365
0.000411155
0.000477727
0.00053194
0.000577728
0.000617206
0.000651667
0.000681994
0.00070884
0.000732725
0.000754091
0.000773327
0.000790792
0.00080682
0.000821729
0.000835821
0.000849381
0.000862675
0.00087595
0.00088943
0.000903315
0.000917776
0.000932964
0.000948999
0.000965985
0.000984001
0.00100311
0.00102337
0.00104481
0.00106748
0.00109139
0.00111658
0.00114307
0.0011709
0.00120009
0.00123067
0.00126267
0.00129609
0.00133093
0.0013671
0.00140447
0.00144282
0.0014818
0.00152091
0.00155954
0.0015969
0.00163209
0.00166409
0.00169183
0.0017142
0.00172963
0.00173657
0.00173712
0.00172843
0.00170911
0.00167896
0.00163829
0.00158753
0.00152742
0.00145908
0.00138411
0.00130442
0.00122218
0.00113954
0.00105844
0.00098035
0.000906141
0.000836022
0.000769612
0.000706063
0.000644188
0.000582517
0.000519233
0.000451879
0.000376526
0.00028553
0.000163825
2.19838e-05
2.92371e-05
0.000205588
0.000338928
0.000429313
0.000498042
0.000554015
0.000601308
0.000642109
0.000677766
0.0007092
0.000737098
0.000762007
0.00078439
0.000804658
0.000823184
0.000840317
0.000856388
0.000871708
0.000886568
0.000901241
0.000915977
0.000931
0.000946509
0.000962677
0.000979652
0.000997556
0.0010165
0.00103656
0.00105783
0.00108038
0.00110426
0.00112957
0.00115636
0.00118474
0.0012148
0.00124666
0.00128044
0.00131628
0.00135432
0.00139466
0.00143739
0.00148248
0.00152981
0.00157909
0.00162986
0.00168144
0.00173298
0.00178341
0.00183152
0.00187601
0.00191548
0.00194856
0.0019739
0.00198902
0.00199445
0.00199098
0.00197455
0.0019443
0.00190051
0.00184342
0.00177349
0.00169168
0.0015996
0.00149956
0.00139447
0.00128759
0.00118223
0.00108125
0.000986683
0.000899449
0.000819367
0.000745351
0.000675706
0.000608358
0.000540905
0.000470363
0.000392312
0.000298482
0.000172459
2.33616e-05
3.0847e-05
0.000215358
0.000353061
0.000446086
0.000516821
0.000574459
0.000623194
0.000665281
0.000702114
0.00073465
0.000763605
0.000789554
0.000812982
0.000834319
0.000853956
0.000872258
0.000889565
0.000906197
0.000922456
0.000938617
0.000954932
0.000971627
0.0009889
0.00100692
0.00102585
0.0010458
0.00106689
0.00108923
0.00111291
0.00113805
0.00116475
0.00119315
0.00122338
0.00125563
0.00129011
0.00132705
0.00136672
0.00140941
0.00145539
0.0015049
0.00155808
0.00161492
0.00167523
0.00173855
0.00180416
0.00187106
0.00193801
0.00200357
0.00206621
0.00212436
0.00217647
0.00222104
0.00225671
0.00228181
0.00229392
0.00229654
0.00228612
0.00225944
0.00221655
0.00215737
0.00208174
0.00198996
0.00188292
0.00176265
0.00163234
0.00149607
0.00135874
0.00122537
0.00110029
0.000986355
0.000884505
0.000793825
0.000712062
0.000636216
0.000562905
0.000488271
0.000407142
0.000310468
0.000180457
2.46657e-05
3.23566e-05
0.000224464
0.000366136
0.000461581
0.000534179
0.00059339
0.000643506
0.000686845
0.000724837
0.000758472
0.000788495
0.000815505
0.00084001
0.000862458
0.00088326
0.000902793
0.00092141
0.000939442
0.000957196
0.000974951
0.000992961
0.00101145
0.00103062
0.00105065
0.00107168
0.00109386
0.00111732
0.00114218
0.00116857
0.00119666
0.00122661
0.00125863
0.00129297
0.00132994
0.00136988
0.00141321
0.00146037
0.00151182
0.00156798
0.00162918
0.00169554
0.00176694
0.0018429
0.00192257
0.00200473
0.00208786
0.00217024
0.00225006
0.00232555
0.00239508
0.0024572
0.00251069
0.0025546
0.00258795
0.00260817
0.00261594
0.00261376
0.00259503
0.00255887
0.0025047
0.00243141
0.00233854
0.00222531
0.00209218
0.00194161
0.00177739
0.00160514
0.00143203
0.00126566
0.0011126
0.000976954
0.00085956
0.00075825
0.000668948
0.000586746
0.000506322
0.000421287
0.000321514
0.000187739
2.58749e-05
3.37702e-05
0.00023295
0.000378232
0.000475889
0.000550215
0.000610907
0.000662348
0.000706903
0.000746038
0.000780773
0.000811876
0.00083997
0.000865585
0.00088919
0.000911209
0.000932038
0.00095204
0.000971555
0.000990895
0.00101035
0.00103016
0.00105057
0.00107177
0.00109395
0.00111726
0.00114186
0.0011679
0.00119555
0.00122498
0.00125642
0.00129012
0.0013264
0.00136564
0.00140832
0.00145497
0.00150621
0.00156269
0.00162502
0.0016937
0.00176902
0.00185088
0.00193873
0.00203149
0.0021276
0.00222509
0.00232178
0.00241546
0.00250414
0.00258616
0.00266024
0.00272543
0.00278134
0.00282781
0.00286425
0.0028905
0.00290451
0.00290903
0.00290213
0.00287948
0.00283928
0.00277867
0.00269709
0.00259281
0.00246214
0.00230558
0.00212559
0.00192584
0.0017144
0.00150134
0.00129785
0.0011139
0.00095535
0.000822604
0.000711422
0.000615018
0.00052576
0.000435244
0.000331726
0.000194244
2.69675e-05
3.50918e-05
0.000240858
0.000389413
0.000489088
0.000565014
0.0006271
0.000679807
0.000725543
0.000765806
0.000801639
0.000833835
0.000863037
0.000889797
0.000914601
0.000937892
0.000960078
0.000981536
0.00100261
0.00102363
0.00104487
0.0010666
0.00108904
0.0011124
0.00113687
0.00116263
0.00118985
0.00121872
0.00124944
0.00128228
0.00131752
0.00135554
0.0013968
0.00144186
0.00149139
0.00154614
0.00160696
0.00167465
0.0017499
0.00183311
0.00192422
0.00202252
0.00212663
0.00223447
0.00234347
0.0024508
0.00255367
0.00264964
0.00273692
0.0028145
0.0028821
0.00293948
0.00298619
0.00302255
0.00305064
0.00307191
0.00308731
0.00309683
0.00310054
0.00309743
0.00308387
0.00305621
0.00300713
0.00293128
0.00282423
0.00268219
0.0025094
0.00230176
0.00206743
0.00181501
0.00155872
0.00131523
0.00109909
0.000918186
0.000771732
0.000652138
0.000548744
0.000449928
0.000341379
0.000199959
2.79266e-05
3.63246e-05
0.000248219
0.000399737
0.000501248
0.00057865
0.000642044
0.000695958
0.00074284
0.000784213
0.000821142
0.000854442
0.000884775
0.000912712
0.000938758
0.000963371
0.000986973
0.00100995
0.00103267
0.00105544
0.00107856
0.00110229
0.00112688
0.00115252
0.00117944
0.00120781
0.00123786
0.0012698
0.00130392
0.00134055
0.0013801
0.00142308
0.00147012
0.00152199
0.00157958
0.00164389
0.00171591
0.0017965
0.00188619
0.00198492
0.00209183
0.00220512
0.0023221
0.0024394
0.00255338
0.00266049
0.00275771
0.00284279
0.00291474
0.00297341
0.003019
0.00305293
0.00307805
0.00309764
0.00311334
0.00312668
0.00313879
0.00315044
0.00316125
0.00316938
0.00317326
0.00317396
0.00316616
0.00314286
0.00309689
0.00301166
0.00287667
0.00268902
0.00246134
0.00219268
0.00189728
0.00159538
0.00131052
0.00106301
0.000862541
0.000705452
0.000578968
0.000466965
0.000351045
0.000204976
2.87481e-05
3.74714e-05
0.000255064
0.000409254
0.000512428
0.000591186
0.000655803
0.000710867
0.000758857
0.000801321
0.000839342
0.000873754
0.000905237
0.000934381
0.000961707
0.000987688
0.00101276
0.00103732
0.00106174
0.00108634
0.00111142
0.00113725
0.00116408
0.00119213
0.00122163
0.00125279
0.00128587
0.00132116
0.00135901
0.00139985
0.00144424
0.00149284
0.0015465
0.00160621
0.00167308
0.00174827
0.0018328
0.00192735
0.00203187
0.00214536
0.0022656
0.00238922
0.00251196
0.00262916
0.00273633
0.00282979
0.00290693
0.00296604
0.00300872
0.00303699
0.00305203
0.00305734
0.00305761
0.00305606
0.00305534
0.00305793
0.0030649
0.00307869
0.00309877
0.0031233
0.00315033
0.00317612
0.00319504
0.00320353
0.00320137
0.00318274
0.00313232
0.0030266
0.00284531
0.00259538
0.00229205
0.00195217
0.00160277
0.00127681
0.00100146
0.000786544
0.000622604
0.000489178
0.00036181
0.000209572
2.94523e-05
3.85348e-05
0.000261418
0.000418007
0.000522679
0.00060268
0.000668436
0.00072459
0.00077365
0.000817181
0.000856287
0.000891815
0.000924465
0.00095484
0.000983479
0.00101087
0.00103746
0.00106365
0.00108983
0.00111632
0.00114344
0.00117145
0.00120062
0.00123119
0.0012634
0.00129752
0.00133385
0.00137275
0.00141466
0.00146015
0.00150992
0.00156484
0.00162594
0.00169445
0.00177164
0.00185868
0.0019564
0.00206483
0.00218289
0.00230802
0.00243621
0.00256226
0.00268038
0.00278499
0.00287141
0.00293686
0.00297971
0.00299741
0.00300047
0.0029924
0.00297109
0.00294288
0.00291418
0.0028888
0.00287041
0.00286187
0.00285995
0.00287091
0.00289559
0.00293134
0.0029779
0.00303254
0.0030916
0.00314973
0.00319551
0.00321678
0.00322105
0.00319759
0.00312627
0.00296454
0.00269745
0.00235978
0.00197178
0.00157287
0.00120843
0.000911991
0.000689542
0.00052131
0.000375588
0.000214324
3.01027e-05
3.95167e-05
0.0002673
0.000426032
0.000532047
0.000613179
0.000679992
0.000737176
0.000787263
0.000831838
0.000872015
0.00090866
0.000942486
0.000974112
0.00100409
0.00103292
0.00106107
0.00108894
0.00111693
0.00114537
0.00117458
0.00120484
0.00123643
0.00126962
0.00130467
0.00134191
0.00138169
0.00142447
0.00147078
0.00152135
0.00157703
0.00163889
0.00170819
0.00178627
0.00187447
0.00197373
0.00208426
0.002205
0.00233323
0.00246442
0.00259251
0.00271059
0.00281191
0.00289082
0.00294177
0.00296174
0.0029636
0.00294528
0.00290639
0.00285266
0.00279361
0.00273652
0.00268581
0.00264414
0.00261377
0.00259805
0.00259254
0.0025982
0.00262148
0.00265731
0.00270861
0.00277497
0.0028545
0.00294506
0.00304069
0.00313279
0.00320092
0.00323067
0.00323221
0.0031893
0.00305135
0.00277112
0.00239041
0.00194787
0.0014984
0.00110179
0.000794459
0.000571076
0.00039564
0.000220291
3.08289e-05
4.04191e-05
0.000272731
0.000433364
0.000540572
0.000622726
0.000690515
0.000748667
0.000799738
0.000845326
0.000886559
0.000924316
0.000959322
0.000992211
0.00102355
0.00105385
0.00108357
0.00111316
0.00114299
0.00117342
0.00120477
0.00123735
0.00127144
0.00130733
0.00134535
0.00138585
0.00142928
0.00147618
0.00152721
0.00158324
0.0016453
0.00171465
0.00179269
0.00188081
0.00198014
0.0020911
0.0022128
0.00234256
0.0024756
0.0026052
0.00272343
0.00282209
0.00289454
0.00292925
0.00293689
0.00292239
0.00287857
0.00280958
0.00272782
0.00264444
0.00256597
0.00249779
0.00244294
0.00240258
0.0023773
0.00236598
0.00236326
0.00237144
0.00239243
0.00242275
0.00246337
0.00251584
0.00258459
0.00267174
0.00277951
0.00290515
0.00303204
0.00315263
0.00322851
0.00325473
0.00322827
0.00310588
0.00280965
0.00237521
0.00187116
0.00137346
0.00095649
0.000650391
0.000427339
0.000229286
3.18574e-05
4.12435e-05
0.000277724
0.00044003
0.000548288
0.00063136
0.000700043
0.000759101
0.000811109
0.000857676
0.000899944
0.000938801
0.000974986
0.00100914
0.00104185
0.00107363
0.00110496
0.00113628
0.00116798
0.00120043
0.00123396
0.00126889
0.00130553
0.00134421
0.00138529
0.0014292
0.00147644
0.00152768
0.0015837
0.00164552
0.00171433
0.00179154
0.00187858
0.00197673
0.00208663
0.00220773
0.00233762
0.00247156
0.00260254
0.00272188
0.00282042
0.00288657
0.00291245
0.00291276
0.00288108
0.00281392
0.00272123
0.00261881
0.00251677
0.00242443
0.00234767
0.00228925
0.00224892
0.0022277
0.00222035
0.00222092
0.00223385
0.00225494
0.00228203
0.00231365
0.0023496
0.00239011
0.00243655
0.00249139
0.00255934
0.00264839
0.00277448
0.00292836
0.00308617
0.00320985
0.00326215
0.00324967
0.0031327
0.0028042
0.00230289
0.00173205
0.00119517
0.000775864
0.000479123
0.000244273
3.35646e-05
4.19911e-05
0.000282294
0.000446056
0.000555227
0.000639114
0.00070861
0.00076851
0.000821405
0.000868915
0.000912191
0.000952131
0.000989483
0.0010249
0.00105898
0.00109224
0.00112518
0.00115824
0.00119183
0.00122632
0.00126205
0.00129936
0.0013386
0.00138012
0.00142434
0.00147175
0.00152295
0.0015787
0.00163992
0.00170776
0.00178355
0.00186874
0.00196469
0.0020723
0.00219141
0.00232009
0.00245402
0.00258627
0.00270778
0.00280843
0.00287294
0.0028956
0.00289086
0.00284697
0.00276257
0.00265313
0.00253371
0.0024176
0.00231576
0.00223465
0.00217651
0.00214205
0.00212737
0.00212449
0.0021331
0.00215246
0.00217859
0.00220941
0.00224296
0.00227815
0.00231425
0.00235102
0.00238862
0.0024285
0.00247309
0.0025263
0.00259504
0.00269095
0.00283393
0.00301875
0.00318502
0.00326272
0.00326142
0.00313402
0.00274368
0.00215971
0.00152162
0.000966811
0.000563311
0.000269919
3.65508e-05
4.26634e-05
0.000286451
0.000451465
0.000561417
0.000646019
0.000716248
0.000776925
0.000830654
0.000879065
0.000923317
0.000964314
0.00100282
0.00103949
0.00107492
0.00110967
0.00114421
0.00117901
0.00121448
0.001251
0.00128894
0.00132865
0.0013705
0.0014149
0.00146231
0.0015133
0.00156855
0.00162893
0.00169547
0.00176943
0.00185222
0.00194524
0.00204958
0.0021655
0.0022917
0.00242456
0.00255767
0.00268205
0.00278706
0.00285554
0.00287971
0.00287381
0.00282394
0.00272948
0.00260828
0.00247533
0.00234729
0.00223697
0.00215205
0.00209424
0.00206543
0.00205568
0.00205656
0.00207253
0.00209757
0.0021291
0.00216405
0.00220092
0.00223903
0.00227737
0.00231511
0.00235163
0.00238671
0.00242088
0.0024557
0.00249335
0.00253626
0.0025879
0.00266236
0.00277571
0.00296047
0.00316587
0.00326456
0.00326568
0.0031011
0.00260946
0.00192762
0.00123863
0.000695687
0.000313156
4.17455e-05
4.32613e-05
0.000290207
0.000456277
0.000566883
0.000652104
0.000722986
0.000784373
0.000838881
0.000888147
0.000933336
0.00097536
0.00101499
0.00105289
0.00108966
0.00112587
0.001162
0.00119852
0.00123586
0.0012744
0.00131453
0.00135663
0.00140109
0.00144838
0.001499
0.0015536
0.00161294
0.00167798
0.00174986
0.0018299
0.0019195
0.00201987
0.00213165
0.0022542
0.0023848
0.00251795
0.00264521
0.002756
0.00283381
0.00286395
0.00286183
0.00281323
0.00271606
0.00258732
0.00244382
0.00230428
0.00218432
0.00209307
0.00203453
0.00200759
0.0019997
0.00200407
0.00202376
0.00205267
0.00208794
0.00212743
0.00217011
0.0022151
0.00226146
0.00230797
0.00235304
0.00239537
0.00243316
0.00246468
0.0024901
0.00251095
0.00253389
0.00256563
0.00260857
0.00266409
0.00275895
0.00292612
0.00315725
0.00326888
0.00325396
0.00300879
0.0023782
0.00159293
0.000892085
0.000382861
5.04167e-05
4.37861e-05
0.000293569
0.000460511
0.000571651
0.000657395
0.00072885
0.00079088
0.000846108
0.000896179
0.000942261
0.000985275
0.00102599
0.00106509
0.00110318
0.00114081
0.0011785
0.00121671
0.00125588
0.00129641
0.0013387
0.00138316
0.00143022
0.00148037
0.00153419
0.00159237
0.00165578
0.00172544
0.00180256
0.00188846
0.00198444
0.0020914
0.0022093
0.0023364
0.00246839
0.00259785
0.00271437
0.00280488
0.00284715
0.0028521
0.00281249
0.00271978
0.00258923
0.00243823
0.00228748
0.00215565
0.00205457
0.00199065
0.0019618
0.00195363
0.00195852
0.00197914
0.0020094
0.00204584
0.00208677
0.00213114
0.00217871
0.00222944
0.00228287
0.00233844
0.00239487
0.00244953
0.00249962
0.00254176
0.00257481
0.0025936
0.00260184
0.0026052
0.00261106
0.00263736
0.00268252
0.00276446
0.00291644
0.00315589
0.00326809
0.00320426
0.00280931
0.00200821
0.00116025
0.000487532
6.39855e-05
4.42389e-05
0.000296545
0.000464185
0.000575744
0.000661918
0.000733867
0.00079647
0.000852358
0.000903179
0.000950106
0.000994064
0.00103583
0.00107608
0.00111544
0.00115447
0.00119367
0.00123353
0.00127448
0.00131695
0.00136136
0.00140813
0.00145772
0.00151068
0.00156764
0.00162935
0.00169672
0.00177086
0.00185299
0.00194437
0.0020461
0.00215861
0.00228105
0.00241041
0.00254077
0.002663
0.00276507
0.00282504
0.00284117
0.00281697
0.00273641
0.00261093
0.00245699
0.00229633
0.0021507
0.00203576
0.00196003
0.00192497
0.00191431
0.00191652
0.00193527
0.00196444
0.00199978
0.00203946
0.00208267
0.00212916
0.00217898
0.00223222
0.00228898
0.00234927
0.00241316
0.00247979
0.00254681
0.00260991
0.00266189
0.00269736
0.00271274
0.00271494
0.00270017
0.00268066
0.00267364
0.00271212
0.00277788
0.00292543
0.00315381
0.00324584
0.0030879
0.0024351
0.00148972
0.000628953
8.32128e-05
4.4621e-05
0.000299145
0.000467317
0.000579185
0.000665698
0.000738064
0.00080117
0.000857654
0.000909167
0.000956885
0.00100173
0.0010445
0.00108586
0.00112644
0.0011668
0.00120746
0.00124891
0.00129158
0.00133593
0.00138238
0.00143138
0.00148344
0.00153912
0.00159911
0.00166422
0.0017354
0.00181379
0.00190057
0.00199691
0.00210357
0.00222043
0.00234567
0.002475
0.00260096
0.00271316
0.00279392
0.00282521
0.00282062
0.00275979
0.0026474
0.00249717
0.00233014
0.00217035
0.00203808
0.00194448
0.00189698
0.00187999
0.00187828
0.00189194
0.00191783
0.00195031
0.00198685
0.00202668
0.00206969
0.0021162
0.00216669
0.00222162
0.0022813
0.00234579
0.00241471
0.00248754
0.00256394
0.00264338
0.00271963
0.00278439
0.00282499
0.00284047
0.00283724
0.0028036
0.00274816
0.00271791
0.00273503
0.00279287
0.00295158
0.00314434
0.00318369
0.0028132
0.00185266
0.00079744
0.00010778
4.49337e-05
0.000301374
0.000469925
0.000581996
0.000668762
0.000741465
0.000805006
0.00086202
0.000914163
0.000962612
0.0010083
0.001052
0.00109441
0.00113615
0.00117778
0.00121983
0.0012628
0.00130712
0.00135326
0.00140166
0.0014528
0.00150721
0.00156549
0.00162837
0.0016967
0.00177146
0.00185377
0.00194476
0.00204539
0.00215606
0.00227596
0.0024023
0.00252949
0.00264865
0.00274777
0.00280357
0.00281625
0.00278231
0.00269148
0.00255362
0.00238692
0.00221562
0.00206385
0.00194841
0.00188036
0.00185186
0.00184476
0.0018508
0.00187116
0.00189941
0.00193175
0.00196692
0.00200486
0.00204602
0.00209113
0.00214098
0.00219627
0.00225757
0.00232519
0.00239916
0.00247914
0.0025642
0.00265259
0.00274413
0.00283404
0.00291045
0.00295545
0.00297069
0.00295887
0.0029052
0.00281346
0.00275703
0.00275093
0.0028077
0.00299153
0.00315217
0.00301258
0.00221162
0.00097943
0.000136317
4.51785e-05
0.00030324
0.000472025
0.0005842
0.000671135
0.0007441
0.000808003
0.000865481
0.000918189
0.000967306
0.00101376
0.00105834
0.00110173
0.00114456
0.00118739
0.00123076
0.00127515
0.00132103
0.00136886
0.0014191
0.00147226
0.00152889
0.00158962
0.0016552
0.00172651
0.00180455
0.00189039
0.00198505
0.00208924
0.00220291
0.00232457
0.00245043
0.00257377
0.0026847
0.00276704
0.00280046
0.0027956
0.00273412
0.00261848
0.0024618
0.00228594
0.00211691
0.00197732
0.00188024
0.001833
0.00181645
0.00181475
0.00182681
0.00184935
0.00187684
0.00190692
0.00193913
0.00197398
0.00201233
0.00205524
0.00210371
0.00215866
0.00222079
0.00229056
0.00236822
0.00245368
0.0025465
0.00264557
0.00274869
0.00285389
0.0029578
0.00304391
0.00308982
0.00310233
0.00307677
0.00299524
0.00286192
0.00277391
0.0027599
0.00281964
0.00300038
0.00306893
0.00254578
0.00117965
0.00016843
4.53571e-05
0.000304752
0.000473636
0.00058582
0.000672842
0.000745995
0.00081019
0.000868063
0.000921269
0.000970987
0.00101815
0.00106353
0.00110783
0.00115167
0.00119561
0.0012402
0.00128593
0.00133326
0.00138266
0.00143463
0.00148966
0.00154834