/*--------------------------------*- C++ -*----------------------------------*\
  =========                 |
  \\      /  F ield         | OpenFOAM: The Open Source CFD Toolbox
   \\    /   O peration     | Website:  https://openfoam.org
    \\  /    A nd           | Version:  13
     \\/     M anipulation  |
\*---------------------------------------------------------------------------*/
FoamFile
{
    format      ascii;
    class       volScalarField;
    location    "1.1";
    object      nut;
}
// * * * * * * * * * * * * * * * * * * * * * * * * * * * * * * * * * * * * * //

dimensions      [0 2 -1 0 0 0 0];

internalField   nonuniform List<scalar> 
6400
(
7.42842e-10
3.5912e-09
7.42839e-09
1.13102e-08
1.48842e-08
1.80803e-08
2.09279e-08
2.34719e-08
2.575e-08
2.77919e-08
2.96212e-08
3.1259e-08
3.27252e-08
3.40393e-08
3.52208e-08
3.62894e-08
3.72649e-08
3.81665e-08
3.90133e-08
3.98241e-08
4.06168e-08
4.14091e-08
4.22181e-08
4.30603e-08
4.39517e-08
4.49078e-08
4.59434e-08
4.70729e-08
4.83094e-08
4.96647e-08
5.11491e-08
5.27702e-08
5.45329e-08
5.64382e-08
5.84829e-08
6.06594e-08
6.29548e-08
6.53516e-08
6.78269e-08
7.03531e-08
7.28975e-08
7.54223e-08
7.78829e-08
8.0234e-08
8.24685e-08
8.46625e-08
8.66693e-08
8.84562e-08
8.99938e-08
9.12632e-08
9.21452e-08
9.26398e-08
9.28513e-08
9.27041e-08
9.21187e-08
9.11142e-08
8.9695e-08
8.78702e-08
8.56552e-08
8.30718e-08
8.01473e-08
7.69142e-08
7.34096e-08
6.9673e-08
6.57426e-08
6.16549e-08
5.7443e-08
5.31357e-08
4.8756e-08
4.43213e-08
3.98457e-08
3.53285e-08
3.07725e-08
2.61785e-08
2.15531e-08
1.69298e-08
1.22921e-08
7.75585e-09
3.64959e-09
7.52041e-10
3.61724e-09
2.83107e-07
8.34642e-07
1.33629e-06
1.74654e-06
2.08431e-06
2.36897e-06
2.61375e-06
2.82696e-06
3.01396e-06
3.17845e-06
3.32331e-06
3.45093e-06
3.56348e-06
3.66298e-06
3.75138e-06
3.83058e-06
3.90242e-06
3.96869e-06
4.03115e-06
4.09152e-06
4.15149e-06
4.2127e-06
4.27679e-06
4.34532e-06
4.41982e-06
4.50174e-06
4.59248e-06
4.69328e-06
4.80525e-06
4.9293e-06
5.06606e-06
5.21585e-06
5.37864e-06
5.554e-06
5.74112e-06
5.93882e-06
6.14554e-06
6.3594e-06
6.57822e-06
6.79954e-06
7.02053e-06
7.23755e-06
7.44511e-06
7.63512e-06
7.80111e-06
7.9532e-06
8.0889e-06
8.20618e-06
8.31241e-06
8.38352e-06
8.42531e-06
8.45833e-06
8.46008e-06
8.43274e-06
8.37597e-06
8.28935e-06
8.17269e-06
8.02612e-06
7.8501e-06
7.64544e-06
7.41332e-06
7.15518e-06
6.87272e-06
6.56771e-06
6.24193e-06
5.89707e-06
5.53453e-06
5.15536e-06
4.76013e-06
4.34886e-06
3.92064e-06
3.47414e-06
3.0068e-06
2.514e-06
1.98751e-06
1.43311e-06
8.52553e-07
2.84837e-07
3.65273e-09
7.72788e-09
8.60184e-07
3.07775e-06
5.17439e-06
6.79814e-06
8.06162e-06
9.07643e-06
9.91574e-06
1.06242e-05
1.12303e-05
1.1753e-05
1.22055e-05
1.25982e-05
1.29395e-05
1.32365e-05
1.34964e-05
1.37254e-05
1.393e-05
1.4116e-05
1.42894e-05
1.44561e-05
1.4622e-05
1.47926e-05
1.49736e-05
1.51702e-05
1.53875e-05
1.56298e-05
1.59015e-05
1.6206e-05
1.6546e-05
1.69233e-05
1.73387e-05
1.77917e-05
1.82807e-05
1.88027e-05
1.93538e-05
1.9929e-05
2.05228e-05
2.11285e-05
2.17396e-05
2.23487e-05
2.29481e-05
2.35301e-05
2.40842e-05
2.46011e-05
2.50766e-05
2.55114e-05
2.59005e-05
2.62389e-05
2.65361e-05
2.67702e-05
2.69038e-05
2.70062e-05
2.70357e-05
2.6986e-05
2.68566e-05
2.66462e-05
2.63534e-05
2.5977e-05
2.55169e-05
2.49735e-05
2.43478e-05
2.36417e-05
2.28575e-05
2.19978e-05
2.10656e-05
2.00635e-05
1.89933e-05
1.78562e-05
1.66512e-05
1.53757e-05
1.40237e-05
1.25857e-05
1.10466e-05
9.37971e-06
7.54188e-06
5.47816e-06
3.14531e-06
8.64696e-07
7.67428e-09
1.23137e-08
1.45409e-06
5.43529e-06
9.30177e-06
1.22868e-05
1.45684e-05
1.63673e-05
1.783e-05
1.90466e-05
2.00761e-05
2.09575e-05
2.17172e-05
2.23753e-05
2.29483e-05
2.34513e-05
2.38933e-05
2.42852e-05
2.46377e-05
2.49613e-05
2.52661e-05
2.55622e-05
2.58601e-05
2.61697e-05
2.65004e-05
2.68613e-05
2.72605e-05
2.77047e-05
2.81999e-05
2.87506e-05
2.93592e-05
3.00264e-05
3.07509e-05
3.15288e-05
3.23544e-05
3.32199e-05
3.41162e-05
3.5033e-05
3.59592e-05
3.68835e-05
3.77946e-05
3.86811e-05
3.95317e-05
4.03348e-05
4.10802e-05
4.17641e-05
4.23835e-05
4.29352e-05
4.34145e-05
4.38175e-05
4.41423e-05
4.4386e-05
4.4516e-05
4.45722e-05
4.4534e-05
4.43884e-05
4.41349e-05
4.37714e-05
4.32953e-05
4.27042e-05
4.19961e-05
4.11694e-05
4.02231e-05
3.91568e-05
3.79707e-05
3.66651e-05
3.52407e-05
3.36977e-05
3.20355e-05
3.02519e-05
2.83426e-05
2.62992e-05
2.41083e-05
2.17483e-05
1.91856e-05
1.63678e-05
1.32124e-05
9.59614e-06
5.42176e-06
1.41499e-06
1.17944e-08
1.69946e-08
2.0112e-06
7.5139e-06
1.28991e-05
1.70986e-05
2.03275e-05
2.28725e-05
2.49362e-05
2.6651e-05
2.80999e-05
2.93384e-05
3.04058e-05
3.13312e-05
3.2137e-05
3.28411e-05
3.34631e-05
3.40192e-05
3.45246e-05
3.4994e-05
3.54413e-05
3.58792e-05
3.63234e-05
3.67872e-05
3.72833e-05
3.78237e-05
3.842e-05
3.90822e-05
3.98118e-05
4.06111e-05
4.148e-05
4.24156e-05
4.3412e-05
4.44601e-05
4.55482e-05
4.66631e-05
4.77899e-05
4.89139e-05
5.00201e-05
5.10944e-05
5.21241e-05
5.30973e-05
5.40031e-05
5.48316e-05
5.55794e-05
5.62433e-05
5.6821e-05
5.73108e-05
5.77111e-05
5.80205e-05
5.8238e-05
5.83543e-05
5.83577e-05
5.83106e-05
5.81338e-05
5.78485e-05
5.74528e-05
5.69438e-05
5.63178e-05
5.55703e-05
5.46967e-05
5.36919e-05
5.25508e-05
5.12681e-05
4.98387e-05
4.82574e-05
4.65192e-05
4.46187e-05
4.25497e-05
4.03047e-05
3.78737e-05
3.52422e-05
3.23895e-05
2.92844e-05
2.58795e-05
2.21016e-05
1.78365e-05
1.29203e-05
7.26089e-06
1.88529e-06
1.56288e-08
2.15923e-08
2.52548e-06
9.33149e-06
1.60121e-05
2.12769e-05
2.53594e-05
2.85903e-05
3.12118e-05
3.3386e-05
3.52197e-05
3.67859e-05
3.81359e-05
3.93083e-05
4.03329e-05
4.12353e-05
4.20384e-05
4.2763e-05
4.34286e-05
4.40539e-05
4.46575e-05
4.52583e-05
4.58717e-05
4.65128e-05
4.71961e-05
4.79335e-05
4.8734e-05
4.96025e-05
5.05449e-05
5.15602e-05
5.26434e-05
5.37871e-05
5.49791e-05
5.62039e-05
5.74439e-05
5.86801e-05
5.98935e-05
6.10659e-05
6.21808e-05
6.32241e-05
6.41842e-05
6.50528e-05
6.58251e-05
6.64997e-05
6.70736e-05
6.75472e-05
6.79221e-05
6.82006e-05
6.83852e-05
6.84784e-05
6.84825e-05
6.83878e-05
6.81777e-05
6.79811e-05
6.7638e-05
6.71979e-05
6.66663e-05
6.60403e-05
6.5315e-05
6.44842e-05
6.35399e-05
6.24729e-05
6.12725e-05
5.99268e-05
5.8423e-05
5.67478e-05
5.48873e-05
5.28271e-05
5.05526e-05
4.80477e-05
4.52945e-05
4.2271e-05
3.89484e-05
3.52868e-05
3.12281e-05
2.66847e-05
2.15241e-05
1.55668e-05
8.73958e-06
2.2853e-06
1.91153e-08
2.60308e-08
2.99782e-06
1.09367e-05
1.87376e-05
2.49425e-05
2.9794e-05
3.36532e-05
3.67917e-05
3.93955e-05
4.15913e-05
4.34668e-05
4.5085e-05
4.64931e-05
4.77283e-05
4.88219e-05
4.98014e-05
5.06917e-05
5.15162e-05
5.22973e-05
5.30565e-05
5.38142e-05
5.45889e-05
5.53975e-05
5.62547e-05
5.7172e-05
5.81569e-05
5.92129e-05
6.03398e-05
6.1532e-05
6.27788e-05
6.40628e-05
6.53645e-05
6.6662e-05
6.79326e-05
6.91542e-05
7.03062e-05
7.13711e-05
7.23347e-05
7.31866e-05
7.39204e-05
7.45332e-05
7.50249e-05
7.53982e-05
7.56572e-05
7.5808e-05
7.58573e-05
7.58124e-05
7.56808e-05
7.54693e-05
7.51847e-05
7.48189e-05
7.43484e-05
7.39405e-05
7.34365e-05
7.28312e-05
7.21716e-05
7.14537e-05
7.06722e-05
6.98197e-05
6.88859e-05
6.78574e-05
6.67179e-05
6.54482e-05
6.40264e-05
6.24288e-05
6.06298e-05
5.86031e-05
5.63217e-05
5.37577e-05
5.08822e-05
4.76629e-05
4.40619e-05
4.00301e-05
3.55004e-05
3.0375e-05
2.45116e-05
1.77259e-05
9.96809e-06
2.6331e-06
2.23077e-08
3.02743e-08
3.43056e-06
1.23694e-05
2.11503e-05
2.81949e-05
3.3744e-05
3.81809e-05
4.17997e-05
4.48062e-05
4.73434e-05
4.95121e-05
5.13855e-05
5.3019e-05
5.44567e-05
5.57351e-05
5.68863e-05
5.79391e-05
5.89207e-05
5.98563e-05
6.07698e-05
6.16835e-05
6.26173e-05
6.35885e-05
6.46107e-05
6.56935e-05
6.68408e-05
6.80515e-05
6.93183e-05
7.06282e-05
7.19623e-05
7.32969e-05
7.46061e-05
7.58629e-05
7.70413e-05
7.81179e-05
7.90731e-05
7.9892e-05
8.05649e-05
8.1087e-05
8.14582e-05
8.16826e-05
8.1767e-05
8.17211e-05
8.1556e-05
8.12836e-05
8.09166e-05
8.04675e-05
7.99481e-05
7.93699e-05
7.87433e-05
7.80645e-05
7.73069e-05
7.66429e-05
7.59716e-05
7.51954e-05
7.4408e-05
7.36091e-05
7.27949e-05
7.19585e-05
7.10889e-05
7.01705e-05
6.91828e-05
6.81001e-05
6.68919e-05
6.55228e-05
6.3954e-05
6.21438e-05
6.0049e-05
5.76258e-05
5.48298e-05
5.16147e-05
4.79302e-05
4.37169e-05
3.88978e-05
3.33674e-05
2.69768e-05
1.95377e-05
1.10256e-05
2.943e-06
2.52959e-08
3.43078e-08
3.82656e-06
1.36584e-05
2.33038e-05
3.11069e-05
3.72937e-05
4.22644e-05
4.63312e-05
4.97165e-05
5.25767e-05
5.50243e-05
5.71417e-05
5.89919e-05
6.0625e-05
6.2083e-05
6.34021e-05
6.4615e-05
6.57517e-05
6.68403e-05
6.79066e-05
6.89737e-05
7.00619e-05
7.11873e-05
7.23613e-05
7.35892e-05
7.48699e-05
7.61953e-05
7.75503e-05
7.89132e-05
8.02573e-05
8.15523e-05
8.27666e-05
8.387e-05
8.48356e-05
8.56411e-05
8.62708e-05
8.67151e-05
8.69712e-05
8.70422e-05
8.69364e-05
8.6666e-05
8.62462e-05
8.56941e-05
8.50277e-05
8.42654e-05
8.3425e-05
8.25236e-05
8.15773e-05
8.06005e-05
7.96062e-05
7.8602e-05
7.75476e-05
7.65938e-05
7.57413e-05
7.4807e-05
7.38826e-05
7.2997e-05
7.21488e-05
7.13338e-05
7.05431e-05
6.97623e-05
6.89705e-05
6.81392e-05
6.72319e-05
6.62037e-05
6.50018e-05
6.35676e-05
6.18382e-05
5.97485e-05
5.7233e-05
5.42257e-05
5.06591e-05
4.6459e-05
4.15368e-05
3.57776e-05
2.90263e-05
2.1089e-05
1.19624e-05
3.22894e-06
2.8132e-08
3.81275e-08
4.18925e-06
1.48204e-05
2.524e-05
3.37324e-05
4.05054e-05
4.59717e-05
5.04584e-05
5.4201e-05
5.73682e-05
6.00823e-05
6.24341e-05
6.44935e-05
6.63166e-05
6.795e-05
6.94342e-05
7.08052e-05
7.20958e-05
7.3336e-05
7.45527e-05
7.57692e-05
7.70048e-05
7.8273e-05
7.9581e-05
8.09287e-05
8.23075e-05
8.37013e-05
8.50859e-05
8.64312e-05
8.77025e-05
8.88636e-05
8.98794e-05
9.07185e-05
9.13556e-05
9.17729e-05
9.1961e-05
9.19187e-05
9.16525e-05
9.11755e-05
9.05057e-05
8.9665e-05
8.86775e-05
8.75682e-05
8.63622e-05
8.50835e-05
8.37545e-05
8.2396e-05
8.10263e-05
7.96615e-05
7.83156e-05
7.70014e-05
7.56761e-05
7.44382e-05
7.33752e-05
7.23308e-05
7.12606e-05
7.02717e-05
6.93657e-05
6.85427e-05
6.77991e-05
6.71262e-05
6.65087e-05
6.59221e-05
6.5331e-05
6.46868e-05
6.39277e-05
6.2979e-05
6.17564e-05
6.01688e-05
5.81226e-05
5.55241e-05
5.22803e-05
4.82954e-05
4.34638e-05
3.76573e-05
3.07114e-05
2.24248e-05
1.28049e-05
3.49841e-06
3.08557e-08
4.17354e-08
4.52155e-06
1.58704e-05
2.69893e-05
3.6112e-05
4.34265e-05
4.9355e-05
5.42362e-05
5.83174e-05
6.17773e-05
6.47471e-05
6.73251e-05
6.95878e-05
7.15965e-05
7.34023e-05
7.50496e-05
7.65773e-05
7.80206e-05
7.94106e-05
8.07746e-05
8.2135e-05
8.35085e-05
8.49046e-05
8.63247e-05
8.77612e-05
8.91972e-05
9.06069e-05
9.1957e-05
9.32087e-05
9.43206e-05
9.52522e-05
9.5967e-05
9.64354e-05
9.66368e-05
9.6561e-05
9.62081e-05
9.55879e-05
9.47188e-05
9.36257e-05
9.23384e-05
9.08894e-05
8.93122e-05
8.76401e-05
8.59045e-05
8.41343e-05
8.23552e-05
8.05893e-05
7.88549e-05
7.71669e-05
7.55368e-05
7.39747e-05
7.24556e-05
7.09796e-05
6.97174e-05
6.86055e-05
6.74141e-05
6.63086e-05
6.53107e-05
6.44259e-05
6.3657e-05
6.30045e-05
6.24649e-05
6.20271e-05
6.16677e-05
6.1347e-05
6.1005e-05
6.05601e-05
5.991e-05
5.89364e-05
5.75109e-05
5.55021e-05
5.27797e-05
4.92151e-05
4.46753e-05
3.90115e-05
3.20432e-05
2.35583e-05
1.35621e-05
3.75373e-06
3.34979e-08
4.51372e-08
4.82615e-06
1.68214e-05
2.85755e-05
3.82772e-05
4.60939e-05
5.24547e-05
5.77079e-05
6.21107e-05
6.58507e-05
6.90667e-05
7.18641e-05
7.43251e-05
7.65159e-05
7.84921e-05
8.0301e-05
8.19845e-05
8.35791e-05
8.51166e-05
8.66236e-05
8.81203e-05
8.96193e-05
9.11245e-05
9.263e-05
9.41194e-05
9.55658e-05
9.69337e-05
9.81802e-05
9.92588e-05
0.000100123
0.000100731
0.000101046
0.000101046
0.000100716
0.000100059
9.9087e-05
9.78238e-05
9.63023e-05
9.45615e-05
9.26443e-05
9.05948e-05
8.84566e-05
8.62704e-05
8.40731e-05
8.18967e-05
7.97672e-05
7.7705e-05
7.57244e-05
7.38347e-05
7.20405e-05
7.03428e-05
6.87404e-05
6.7164e-05
6.57306e-05
6.45505e-05
6.33547e-05
6.21317e-05
6.10189e-05
6.00197e-05
5.91404e-05
5.83899e-05
5.77793e-05
5.73169e-05
5.70033e-05
5.68234e-05
5.67382e-05
5.66787e-05
5.65406e-05
5.61867e-05
5.54535e-05
5.41623e-05
5.21312e-05
4.91814e-05
4.51368e-05
3.98137e-05
3.30052e-05
2.44812e-05
1.423e-05
3.99181e-06
3.60883e-08
4.83404e-08
5.10549e-06
1.76841e-05
3.00174e-05
4.02529e-05
4.85369e-05
5.53031e-05
6.0908e-05
6.56171e-05
6.96257e-05
7.30797e-05
7.60906e-05
7.87458e-05
8.11162e-05
8.3261e-05
8.52306e-05
8.70688e-05
8.8813e-05
9.04947e-05
9.21387e-05
9.37615e-05
9.53704e-05
9.69621e-05
9.85217e-05
0.000100023
0.000101428
0.000102691
0.000103762
0.000104587
0.000105116
0.000105309
0.000105135
0.000104579
0.000103641
0.000102336
0.000100693
9.87546e-05
9.65694e-05
9.41927e-05
9.16819e-05
8.90933e-05
8.64795e-05
8.38875e-05
8.13568e-05
7.89184e-05
7.65943e-05
7.43982e-05
7.23354e-05
7.04051e-05
6.8601e-05
6.69138e-05
6.53328e-05
6.38109e-05
6.23017e-05
6.107e-05
5.9958e-05
5.86757e-05
5.74549e-05
5.63213e-05
5.52776e-05
5.43348e-05
5.3513e-05
5.2838e-05
5.23371e-05
5.20303e-05
5.19195e-05
5.19753e-05
5.21231e-05
5.22344e-05
5.21271e-05
5.15775e-05
5.03394e-05
4.81625e-05
4.48033e-05
4.00211e-05
3.35639e-05
2.51709e-05
1.47962e-05
4.21007e-06
3.8606e-08
5.13534e-08
5.36173e-06
1.84674e-05
3.13307e-05
4.20594e-05
5.07792e-05
5.79265e-05
6.38646e-05
6.8866e-05
7.3133e-05
7.68176e-05
8.00367e-05
8.28827e-05
8.54306e-05
8.77427e-05
8.9872e-05
9.18635e-05
9.37548e-05
9.55761e-05
9.7349e-05
9.90851e-05
0.000100785
0.000102436
0.000104014
0.000105481
0.000106789
0.000107883
0.000108703
0.000109194
0.000109305
0.000109001
0.00010826
0.000107079
0.000105475
0.000103483
0.000101152
9.85439e-05
9.57276e-05
9.27759e-05
8.97608e-05
8.67495e-05
8.38012e-05
8.09645e-05
7.82762e-05
7.57598e-05
7.34268e-05
7.12777e-05
6.93038e-05
6.749e-05
6.58171e-05
6.42633e-05
6.28066e-05
6.14269e-05
6.00338e-05
5.87164e-05
5.76757e-05
5.64971e-05
5.51955e-05
5.39537e-05
5.27541e-05
5.15997e-05
5.05085e-05
4.95105e-05
4.86483e-05
4.79716e-05
4.7526e-05
4.73407e-05
4.7406e-05
4.76487e-05
4.79145e-05
4.79647e-05
4.74954e-05
4.6169e-05
4.36442e-05
3.959e-05
3.36803e-05
2.55981e-05
1.52459e-05
4.40572e-06
4.10252e-08
5.41836e-08
5.59671e-06
1.91785e-05
3.25299e-05
4.37127e-05
5.28401e-05
6.03465e-05
6.66008e-05
7.18817e-05
7.63975e-05
8.03059e-05
8.37288e-05
8.67626e-05
8.94861e-05
9.19644e-05
9.42522e-05
9.6395e-05
9.84299e-05
0.000100384
0.000102276
0.000104109
0.000105877
0.000107557
0.000109114
0.000110497
0.00011165
0.000112506
0.000113004
0.000113084
0.000112702
0.000111829
0.000110458
0.000108605
0.000106306
0.000103621
0.000100621
9.73928e-05
9.40255e-05
9.06095e-05
8.72291e-05
8.39584e-05
8.08567e-05
7.79666e-05
7.53129e-05
7.29035e-05
7.07317e-05
6.87795e-05
6.70212e-05
6.54272e-05
6.39668e-05
6.26102e-05
6.13303e-05
6.01035e-05
5.88889e-05
5.76067e-05
5.65427e-05
5.55513e-05
5.42552e-05
5.29644e-05
5.16739e-05
5.03699e-05
4.90625e-05
4.77658e-05
4.65171e-05
4.53748e-05
4.44079e-05
4.36921e-05
4.3293e-05
4.32321e-05
4.34464e-05
4.37534e-05
4.38425e-05
4.33026e-05
4.16739e-05
3.84939e-05
3.33178e-05
2.57331e-05
1.55647e-05
4.57525e-06
4.3314e-08
5.6838e-08
5.81204e-06
1.98235e-05
3.36266e-05
4.52263e-05
5.47357e-05
6.25811e-05
6.91358e-05
7.46843e-05
7.94403e-05
8.35663e-05
8.71886e-05
9.04076e-05
9.33049e-05
9.5948e-05
9.83925e-05
0.000100684
0.000102857
0.000104937
0.000106934
0.000108846
0.000110656
0.000112331
0.000113822
0.000115071
0.000116008
0.000116562
0.000116667
0.000116268
0.000115327
0.00011383
0.000111788
0.00010924
0.000106248
0.000102899
9.92919e-05
9.55361e-05
9.17423e-05
8.80147e-05
8.44441e-05
8.11025e-05
7.80389e-05
7.52788e-05
7.28246e-05
7.06603e-05
6.87563e-05
6.70748e-05
6.55751e-05
6.4218e-05
6.29674e-05
6.17919e-05
6.06689e-05
5.95815e-05
5.85091e-05
5.73655e-05
5.62147e-05
5.5277e-05
5.41938e-05
5.29125e-05
5.1623e-05
5.02673e-05
4.88716e-05
4.74151e-05
4.59065e-05
4.43886e-05
4.29298e-05
4.16061e-05
4.05324e-05
3.98154e-05
3.95173e-05
3.95927e-05
3.98261e-05
3.98108e-05
3.89915e-05
3.67456e-05
3.24542e-05
2.55517e-05
1.57389e-05
4.71496e-06
4.54356e-08
5.93238e-08
6.00925e-06
2.04084e-05
3.4627e-05
4.66129e-05
5.64801e-05
6.46453e-05
7.14858e-05
7.72908e-05
8.22787e-05
8.66164e-05
9.04342e-05
9.38357e-05
9.69049e-05
9.97109e-05
0.00010231
0.000104746
0.000107051
0.000109245
0.000111333
0.000113302
0.000115126
0.000116758
0.00011814
0.0001192
0.000119862
0.000120052
0.000119702
0.000118765
0.000117215
0.000115057
0.000112327
0.000109091
0.000105442
0.000101496
9.73806e-05
9.3229e-05
8.9167e-05
8.53053e-05
8.17301e-05
7.84985e-05
7.56361e-05
7.31393e-05
7.09807e-05
6.91169e-05
6.74962e-05
6.60658e-05
6.47777e-05
6.35923e-05
6.24763e-05
6.14026e-05
6.0365e-05
5.9354e-05
5.83214e-05
5.72844e-05
5.61837e-05
5.514e-05
5.42022e-05
5.31325e-05
5.19692e-05
5.06374e-05
4.92645e-05
4.7838e-05
4.62884e-05
4.45941e-05
4.28588e-05
4.10773e-05
3.93896e-05
3.79217e-05
3.68265e-05
3.62186e-05
3.6072e-05
3.61212e-05
3.5824e-05
3.44278e-05
3.10971e-05
2.50391e-05
1.5758e-05
4.82163e-06
4.73518e-08
6.16479e-08
6.18962e-06
2.0938e-05
3.55377e-05
4.78821e-05
5.80846e-05
6.6552e-05
7.36645e-05
7.97155e-05
8.49275e-05
8.94713e-05
9.34806e-05
9.70618e-05
0.000100301
0.000103267
0.000106017
0.000108593
0.000111022
0.000113319
0.000115479
0.000117482
0.000119287
0.000120838
0.000122064
0.000122885
0.000123217
0.000122985
0.000122127
0.000120605
0.000118414
0.000115582
0.000112173
0.000108286
0.000104049
9.96071e-05
9.51161e-05
9.07259e-05
8.6569e-05
8.27494e-05
7.93342e-05
7.63505e-05
7.37887e-05
7.16091e-05
6.97533e-05
6.81544e-05
6.67463e-05
6.54705e-05
6.42829e-05
6.31538e-05
6.20616e-05
6.09724e-05
5.98594e-05
5.87162e-05
5.76249e-05
5.65748e-05
5.55458e-05
5.45162e-05
5.35006e-05
5.24963e-05
5.1579e-05
5.05526e-05
4.95054e-05
4.82964e-05
4.69839e-05
4.52842e-05
4.35749e-05
4.1601e-05
3.95805e-05
3.75449e-05
3.56743e-05
3.41809e-05
3.323e-05
3.28044e-05
3.25508e-05
3.17249e-05
2.93029e-05
2.41977e-05
1.56164e-05
4.89328e-06
4.90336e-08
6.38161e-08
6.35421e-06
2.1416e-05
3.63647e-05
4.90421e-05
5.9559e-05
6.8312e-05
7.56835e-05
8.19704e-05
8.73989e-05
9.21434e-05
9.63403e-05
0.000100098
0.000103504
0.000106628
0.000109525
0.000112233
0.000114777
0.000117162
0.000119376
0.000121386
0.000123141
0.000124572
0.000125597
0.000126129
0.00012608
0.000125378
0.00012397
0.000121836
0.000118991
0.000115493
0.000111442
0.000106972
0.000102244
9.74352e-05
9.27197e-05
8.82554e-05
8.41673e-05
8.05363e-05
7.73945e-05
7.47278e-05
7.24851e-05
7.05919e-05
6.89653e-05
6.75258e-05
6.62049e-05
6.49473e-05
6.37257e-05
6.2521e-05
6.1316e-05
6.01278e-05
5.90004e-05
5.79441e-05
5.69051e-05
5.58802e-05
5.48788e-05
5.39092e-05
5.29556e-05
5.19682e-05
5.09038e-05
4.98707e-05
4.88861e-05
4.7854e-05
4.68001e-05
4.57575e-05
4.43716e-05
4.24687e-05
4.05015e-05
3.82224e-05
3.58539e-05
3.36013e-05
3.17189e-05
3.04201e-05
2.96671e-05
2.89444e-05
2.71997e-05
2.30572e-05
1.53167e-05
4.93015e-06
5.04743e-08
6.58333e-08
6.50393e-06
2.18456e-05
3.71133e-05
5.00998e-05
6.09114e-05
6.99344e-05
7.75525e-05
8.40657e-05
8.97035e-05
9.46431e-05
9.90233e-05
0.000102954
0.000106524
0.000109802
0.00011284
0.000115674
0.000118321
0.000120779
0.000123025
0.000125015
0.000126686
0.000127959
0.000128741
0.000128939
0.000128468
0.000127259
0.000125274
0.000122514
0.000119023
0.000114895
0.000110264
0.000105303
0.000100205
9.51709e-05
9.03844e-05
8.59961e-05
8.21063e-05
7.87572e-05
7.59345e-05
7.35777e-05
7.15974e-05
6.98936e-05
6.83718e-05
6.69548e-05
6.5584e-05
6.42061e-05
6.28567e-05
6.15439e-05
6.02279e-05
5.89224e-05
5.76769e-05
5.64821e-05
5.53512e-05
5.42879e-05
5.32698e-05
5.23529e-05
5.15155e-05
5.07254e-05
4.99814e-05
4.92235e-05
4.83593e-05
4.73412e-05
4.62307e-05
4.52181e-05
4.40828e-05
4.30245e-05
4.15181e-05
3.92802e-05
3.68076e-05
3.4159e-05
3.1548e-05
2.92955e-05
2.76523e-05
2.64935e-05
2.50073e-05
2.16882e-05
1.48729e-05
4.93632e-06
5.17115e-08
6.77038e-08
6.63958e-06
2.22296e-05
3.7788e-05
5.10611e-05
6.21488e-05
7.14268e-05
7.92797e-05
8.60099e-05
9.18498e-05
9.6979e-05
0.000101538
0.000105639
0.000109368
0.000112795
0.000115969
0.000118919
0.000121656
0.00012417
0.000126426
0.00012837
0.000129926
0.000131004
0.000131504
0.000131332
0.000130404
0.000128663
0.00012609
0.000122711
0.000118605
0.000113901
0.000108774
0.000103432
9.80956e-05
9.29772e-05
8.82566e-05
8.40599e-05
8.04468e-05
7.74096e-05
7.48834e-05
7.27661e-05
7.0941e-05
6.92967e-05
6.77393e-05
6.622e-05
6.46864e-05
6.3023e-05
6.15215e-05
6.01137e-05
5.86032e-05
5.7147e-05
5.58011e-05
5.45508e-05
5.34322e-05
5.24507e-05
5.13948e-05
5.0462e-05
4.96566e-05
4.88897e-05
4.81902e-05
4.75407e-05
4.69324e-05
4.63525e-05
4.56664e-05
4.46318e-05
4.35855e-05
4.24351e-05
4.14088e-05
4.00454e-05
3.78844e-05
3.52965e-05
3.23599e-05
2.93936e-05
2.67866e-05
2.47823e-05
2.30337e-05
2.02189e-05
1.43132e-05
4.92338e-06
5.28588e-08
6.94314e-08
6.76183e-06
2.25704e-05
3.83925e-05
5.19308e-05
6.3277e-05
7.27959e-05
8.08721e-05
8.78103e-05
9.38451e-05
9.91582e-05
0.000103892
0.000108157
0.000112042
0.000115613
0.000118914
0.000121971
0.000124785
0.000127337
0.000129582
0.000131453
0.000132863
0.000133714
0.000133901
0.000133328
0.000131921
0.000129637
0.000126479
0.000122507
0.000117834
0.000112629
0.000107106
0.000101501
9.60542e-05
9.09764e-05
8.64261e-05
8.24895e-05
7.91745e-05
7.642e-05
7.41159e-05
7.21302e-05
7.03371e-05
6.86353e-05
6.68769e-05
6.49649e-05
6.33416e-05
6.1833e-05
6.007e-05
5.82358e-05
5.67068e-05
5.53364e-05
5.40949e-05
5.2921e-05
5.18969e-05
5.11644e-05
5.02619e-05
4.93155e-05
4.85277e-05
4.76933e-05
4.69093e-05
4.6174e-05
4.54704e-05
4.48337e-05
4.42597e-05
4.37121e-05
4.29148e-05
4.17904e-05
4.09433e-05
3.97731e-05
3.8563e-05
3.64879e-05
3.36376e-05
3.03674e-05
2.70386e-05
2.40775e-05
2.16198e-05
1.88468e-05
1.3693e-05
4.90903e-06
5.41472e-08
7.10191e-08
6.87126e-06
2.287e-05
3.89302e-05
5.27133e-05
6.4301e-05
7.40471e-05
8.23357e-05
8.94729e-05
9.56955e-05
0.000101187
0.000106089
0.000110515
0.00011455
0.000118258
0.000121679
0.000124832
0.00012771
0.000130282
0.000132494
0.000134267
0.000135505
0.0001361
0.000135948
0.000134956
0.000133058
0.000130234
0.000126513
0.000121988
0.000116813
0.000111195
0.00010538
9.96288e-05
9.41848e-05
8.92433e-05
8.49259e-05
8.12677e-05
7.82215e-05
7.56775e-05
7.34923e-05
7.15133e-05
6.96329e-05
6.74548e-05
6.55741e-05
6.40151e-05
6.19778e-05
5.99323e-05
5.82275e-05
5.66609e-05
5.53081e-05
5.42003e-05
5.32937e-05
5.24926e-05
5.18183e-05
5.14079e-05
5.07289e-05
4.99802e-05
4.92622e-05
4.84103e-05
4.74331e-05
4.63431e-05
4.52491e-05
4.41943e-05
4.32744e-05
4.25402e-05
4.17994e-05
4.12314e-05
4.03089e-05
3.93975e-05
3.81616e-05
3.6923e-05
3.49112e-05
3.17352e-05
2.80993e-05
2.43921e-05
2.1031e-05
1.78258e-05
1.31054e-05
4.91691e-06
5.598e-08
7.24696e-08
6.9684e-06
2.31304e-05
3.9404e-05
5.34121e-05
6.52251e-05
7.51851e-05
8.36753e-05
9.10029e-05
9.74059e-05
0.000103069
0.000108135
0.000112716
0.000116896
0.000120734
0.000124266
0.000127503
0.00013043
0.000133007
0.000135166
0.000136819
0.000137861
0.00013818
0.000137671
0.000136249
0.000133863
0.000130514
0.000126265
0.000121243
0.000115641
0.000109702
0.0001037
9.79049e-05
9.25523e-05
8.78064e-05
8.37411e-05
8.03362e-05
7.74934e-05
7.50675e-05
7.29006e-05
7.06888e-05
6.82593e-05
6.65767e-05
6.46293e-05
6.22954e-05
6.02734e-05
5.84437e-05
5.69224e-05
5.57135e-05
5.48215e-05
5.42292e-05
5.38413e-05
5.35886e-05
5.3497e-05
5.3381e-05
5.31206e-05
5.28122e-05
5.23376e-05
5.16541e-05
5.07504e-05
4.96108e-05
4.82414e-05
4.662e-05
4.47569e-05
4.28141e-05
4.13436e-05
4.03549e-05
3.95511e-05
3.85853e-05
3.75744e-05
3.64368e-05
3.51454e-05
3.30428e-05
2.95154e-05
2.54813e-05
2.13432e-05
1.74081e-05
1.26786e-05
4.98105e-06
5.90258e-08
7.37853e-08
7.05369e-06
2.33529e-05
3.98162e-05
5.40303e-05
6.60529e-05
7.6214e-05
8.48953e-05
9.24044e-05
9.89806e-05
0.000104809
0.000110033
0.000114763
0.000119081
0.000123042
0.000126676
0.000129987
0.00013295
0.000135514
0.000137602
0.000139116
0.000139945
0.000139974
0.0001391
0.000137248
0.000134386
0.000130543
0.000125811
0.000120357
0.000114409
0.000108241
0.000102144
9.6388e-05
9.11845e-05
8.66567e-05
8.28254e-05
7.96183e-05
7.6899e-05
7.44985e-05
7.19627e-05
6.9414e-05
6.76885e-05
6.54105e-05
6.30195e-05
6.08336e-05
5.89577e-05
5.7445e-05
5.63707e-05
5.57233e-05
5.54376e-05
5.55114e-05
5.56618e-05
5.58188e-05
5.61571e-05
5.63145e-05
5.63281e-05
5.61792e-05
5.57954e-05
5.51651e-05
5.42758e-05
5.31251e-05
5.17077e-05
5.00865e-05
4.82703e-05
4.6225e-05
4.38589e-05
4.1181e-05
3.90618e-05
3.7961e-05
3.68655e-05
3.57334e-05
3.4681e-05
3.32974e-05
3.08418e-05
2.69289e-05
2.23999e-05
1.77249e-05
1.2572e-05
5.1455e-06
6.43508e-08
7.49683e-08
7.12755e-06
2.35392e-05
4.0169e-05
5.45708e-05
6.67875e-05
7.71372e-05
8.59991e-05
9.36811e-05
0.000100423
0.00010641
0.000111786
0.000116659
0.000121108
0.000125184
0.000128911
0.000132284
0.00013527
0.000137807
0.00013981
0.000141171
0.000141775
0.000141505
0.000140266
0.000137996
0.000134683
0.000130383
0.000125225
0.000119409
0.000113196
0.000106883
0.000100767
9.51069e-05
9.00795e-05
8.57601e-05
8.21176e-05
7.90388e-05
7.63585e-05
7.35586e-05
7.07998e-05
6.89675e-05
6.64873e-05
6.39659e-05
6.16566e-05
5.96756e-05
5.81584e-05
5.71656e-05
5.67021e-05
5.66872e-05
5.71635e-05
5.76156e-05
5.79841e-05
5.87265e-05
5.92103e-05
5.95365e-05
5.96285e-05
5.94566e-05
5.90275e-05
5.83338e-05
5.73734e-05
5.6152e-05
5.46802e-05
5.29796e-05
5.11522e-05
4.92192e-05
4.70885e-05
4.45617e-05
4.16728e-05
3.83698e-05
3.63468e-05
3.51336e-05
3.39504e-05
3.29099e-05
3.1327e-05
2.82538e-05
2.3855e-05
1.87045e-05
1.29529e-05
5.46095e-06
7.36027e-08
7.60207e-08
7.19033e-06
2.36904e-05
4.04644e-05
5.50359e-05
6.74318e-05
7.79578e-05
8.699e-05
9.48361e-05
0.000101736
0.000107875
0.000113396
0.000118406
0.000122979
0.000127162
0.000130973
0.000134398
0.000137395
0.000139894
0.000141799
0.000142998
0.00014337
0.000142803
0.000141208
0.000138539
0.000134808
0.0001301
0.000124575
0.000118468
0.000112065
0.000105678
9.96004e-05
9.40669e-05
8.92151e-05
8.50704e-05
8.15567e-05
7.85369e-05
7.55554e-05
7.24423e-05
7.04689e-05
6.79169e-05
6.52235e-05
6.27292e-05
6.06022e-05
5.89984e-05
5.80067e-05
5.76242e-05
5.78686e-05
5.86332e-05
5.92892e-05
5.99112e-05
6.09725e-05
6.17921e-05
6.24386e-05
6.28874e-05
6.3116e-05
6.3104e-05
6.28278e-05
6.22595e-05
6.13647e-05
6.01404e-05
5.85658e-05
5.6622e-05
5.43527e-05
5.18813e-05
4.9479e-05
4.71927e-05
4.47309e-05
4.16038e-05
3.79679e-05
3.48037e-05
3.33061e-05
3.22098e-05
3.10122e-05
2.90541e-05
2.5295e-05
2.00799e-05
1.3903e-05
5.95169e-06
8.90204e-08
7.69444e-08
7.2424e-06
2.38079e-05
4.07043e-05
5.54278e-05
6.79882e-05
7.86783e-05
8.78707e-05
9.58721e-05
0.000102922
0.000109207
0.000114866
0.000120005
0.000124695
0.000128977
0.000132863
0.00013633
0.000139329
0.00014178
0.000143581
0.000144612
0.000144753
0.000143896
0.000141962
0.000138923
0.000134814
0.00012975
0.000123922
0.000117591
0.000111064
0.000104658
9.86546e-05
9.32568e-05
8.85595e-05
8.45399e-05
8.10779e-05
7.79546e-05
7.44808e-05
7.21712e-05
6.96625e-05
6.67892e-05
6.40872e-05
6.17509e-05
5.99701e-05
5.88711e-05
5.84646e-05
5.88315e-05
5.98434e-05
6.07182e-05
6.15235e-05
6.28477e-05
6.40468e-05
6.50332e-05
6.58443e-05
6.64376e-05
6.68012e-05
6.69322e-05
6.68101e-05
6.64239e-05
6.57432e-05
6.46967e-05
6.32378e-05
6.13224e-05
5.90214e-05
5.61943e-05
5.30634e-05
4.99341e-05
4.69083e-05
4.42008e-05
4.1077e-05
3.72609e-05
3.31933e-05
3.12478e-05
3.04006e-05
2.87224e-05
2.63137e-05
2.14689e-05
1.52673e-05
6.618e-06
1.13094e-07
7.77415e-08
7.28408e-06
2.38928e-05
4.08902e-05
5.57486e-05
6.8459e-05
7.93012e-05
8.86437e-05
9.67915e-05
0.000103984
0.000110406
0.000116197
0.000121458
0.000126258
0.000130632
0.000134584
0.000138086
0.000141079
0.000143476
0.000145168
0.000146033
0.00014595
0.000144817
0.000142568
0.000139193
0.000134753
0.000129387
0.000123316
0.000116823
0.000110227
0.000103841
9.79281e-05
9.2657e-05
8.8081e-05
8.41378e-05
8.0665e-05
7.69919e-05
7.4082e-05
7.16878e-05
6.86815e-05
6.57657e-05
6.31679e-05
6.11202e-05
5.97979e-05
5.92525e-05
5.95375e-05
6.07208e-05
6.18791e-05
6.28184e-05
6.42555e-05
6.58698e-05
6.72195e-05
6.84035e-05
6.93912e-05
7.0144e-05
7.06348e-05
7.08402e-05
7.075e-05
7.0367e-05
6.97226e-05
6.88252e-05
6.76381e-05
6.60729e-05
6.39504e-05
6.12263e-05
5.79254e-05
5.44629e-05
5.0693e-05
4.68782e-05
4.33172e-05
4.01955e-05
3.59033e-05
3.11733e-05
2.89967e-05
2.82824e-05
2.61125e-05
2.24826e-05
1.66127e-05
7.36706e-06
1.47106e-07
7.84142e-08
7.3157e-06
2.39462e-05
4.10238e-05
5.60006e-05
6.88463e-05
7.98288e-05
8.93111e-05
9.75966e-05
0.000104924
0.000111476
0.000117391
0.000122767
0.000127669
0.000132128
0.00013614
0.00013967
0.000142652
0.000144992
0.000146575
0.000147279
0.000146984
0.000145597
0.000143063
0.000139393
0.000134669
0.000129057
0.0001228
0.000116198
0.000109574
0.000103233
9.74114e-05
9.2245e-05
8.77518e-05
8.38475e-05
8.00616e-05
7.62721e-05
7.39548e-05
7.09317e-05
6.77992e-05
6.49155e-05
6.25251e-05
6.08593e-05
6.00477e-05
6.00745e-05
6.12277e-05
6.26736e-05
6.38195e-05
6.52377e-05
6.71037e-05
6.88841e-05
7.04275e-05
7.18058e-05
7.29693e-05
7.3883e-05
7.45186e-05
7.48523e-05
7.48642e-05
7.45382e-05
7.38601e-05
7.28415e-05
7.15491e-05
7.00802e-05
6.82852e-05
6.5996e-05
6.29129e-05
5.92775e-05
5.56217e-05
5.13648e-05
4.64698e-05
4.23075e-05
3.86024e-05
3.38484e-05
2.88401e-05
2.65891e-05
2.57531e-05
2.29489e-05
1.75928e-05
8.02555e-06
1.90478e-07
7.89647e-08
7.33757e-06
2.39692e-05
4.11063e-05
5.61871e-05
6.91518e-05
8.02632e-05
8.98754e-05
9.82896e-05
0.000105743
0.000112418
0.000118449
0.000123934
0.000128932
0.000133468
0.000137534
0.000141087
0.000144055
0.000146337
0.000147817
0.00014837
0.000147882
0.000146266
0.000143483
0.00013956
0.000134603
0.000128798
0.000122406
0.000115738
0.000109117
0.000102831
9.70921e-05
9.20013e-05
8.75419e-05
8.35848e-05
7.93959e-05
7.62826e-05
7.35818e-05
7.0226e-05
6.70542e-05
6.42837e-05
6.21752e-05
6.0929e-05
6.05944e-05
6.14186e-05
6.30156e-05
6.45186e-05
6.59164e-05
6.77558e-05
6.98705e-05
7.18257e-05
7.35622e-05
7.51193e-05
7.64481e-05
7.75153e-05
7.8292e-05
7.87524e-05
7.88733e-05
7.86356e-05
7.80264e-05
7.70421e-05
7.56862e-05
7.3973e-05
7.20688e-05
6.99607e-05
6.73828e-05
6.39165e-05
5.98687e-05