/*--------------------------------*- C++ -*----------------------------------*\
  =========                 |
  \\      /  F ield         | OpenFOAM: The Open Source CFD Toolbox
   \\    /   O peration     | Website:  https://openfoam.org
    \\  /    A nd           | Version:  13
     \\/     M anipulation  |
\*---------------------------------------------------------------------------*/
FoamFile
{
    format      ascii;
    class       volScalarField;
    location    "1.1";
    object      p;
}
// * * * * * * * * * * * * * * * * * * * * * * * * * * * * * * * * * * * * * //

dimensions      [0 2 -2 0 0 0 0];

internalField   nonuniform List<scalar> 
6400
(
-2.57856e-09
-1.74686e-06
-6.76599e-06
-1.40932e-05
-2.22886e-05
-3.05346e-05
-3.80287e-05
-4.4534e-05
-4.98726e-05
-5.39465e-05
-5.67154e-05
-5.81658e-05
-5.82935e-05
-5.70947e-05
-5.45595e-05
-5.06692e-05
-4.53927e-05
-3.86855e-05
-3.04873e-05
-2.07211e-05
-9.2917e-06
3.91505e-06
1.90326e-05
3.6214e-05
5.56315e-05
7.74753e-05
0.000101952
0.000129281
0.000159693
0.000193423
0.000230704
0.000271767
0.000316826
0.000366079
0.000419693
0.000477803
0.0005405
0.000607821
0.000679748
0.000756199
0.000837023
0.000921954
0.00101055
0.00110256
0.0011977
0.00129529
0.00139447
0.00149459
0.00159481
0.00169422
0.00179191
0.00188696
0.0019784
0.00206522
0.00214656
0.00222161
0.00228967
0.00235018
0.00240273
0.00244707
0.00248314
0.00251105
0.00253108
0.00254365
0.00254936
0.00254892
0.00254314
0.00253287
0.00251905
0.00250261
0.00248444
0.00246553
0.00244671
0.00242884
0.0024127
0.00239909
0.00238863
0.00238178
0.00237869
0.00237907
1.65884e-06
-1.13174e-07
-4.55326e-06
-1.08927e-05
-1.7866e-05
-2.48523e-05
-3.13453e-05
-3.70222e-05
-4.16736e-05
-4.51905e-05
-4.75126e-05
-4.86057e-05
-4.84481e-05
-4.70217e-05
-4.4306e-05
-4.02728e-05
-3.48844e-05
-2.8091e-05
-1.98286e-05
-1.00178e-05
1.43777e-06
1.46519e-05
2.97565e-05
4.69011e-05
6.62532e-05
8.79962e-05
0.000112328
0.00013946
0.000169608
0.000202995
0.000239842
0.000280364
0.000324765
0.000373228
0.000425916
0.000482956
0.000544439
0.000610407
0.000680848
0.000755692
0.000834794
0.000917927
0.0010048
0.00109509
0.00118833
0.00128378
0.00138098
0.00147923
0.00157772
0.00167556
0.00177181
0.00186557
0.0019559
0.00204185
0.00212254
0.00219718
0.00226508
0.00232567
0.00237853
0.00242341
0.00246021
0.00248903
0.00251012
0.00252391
0.00253097
0.00253197
0.00252768
0.00251896
0.00250668
0.00249178
0.00247517
0.00245777
0.00244042
0.00242403
0.00240935
0.00239702
0.00238768
0.00238164
0.00237899
0.00237941
6.71379e-06
4.24409e-06
-2.69336e-07
-5.88814e-06
-1.16872e-05
-1.72063e-05
-2.21899e-05
-2.64632e-05
-2.98778e-05
-3.23293e-05
-3.37452e-05
-3.40733e-05
-3.32736e-05
-3.13115e-05
-2.81531e-05
-2.37606e-05
-1.80882e-05
-1.10804e-05
-2.67014e-06
7.22339e-06
1.86959e-05
3.18583e-05
4.68377e-05
6.37769e-05
8.28345e-05
0.000104183
0.000128008
0.000154506
0.000183881
0.000216339
0.000252089
0.000291331
0.000334258
0.000381045
0.000431849
0.000486796
0.000545979
0.000609446
0.000677199
0.000749185
0.000825294
0.000905336
0.000989012
0.001076
0.00116601
0.00125836
0.00135247
0.00144768
0.00154327
0.00163844
0.00173233
0.00182399
0.00191258
0.0019972
0.00207699
0.00215116
0.00221902
0.00228002
0.00233372
0.00237984
0.00241825
0.00244902
0.00247236
0.00248865
0.00249837
0.00250217
0.00250076
0.00249494
0.00248556
0.00247349
0.00245962
0.00244483
0.00242996
0.00241579
0.00240303
0.00239219
0.00238396
0.00237855
0.00237603
0.00237619
1.43324e-05
1.07292e-05
5.28465e-06
-4.72014e-07
-5.51432e-06
-9.69279e-06
-1.31269e-05
-1.58554e-05
-1.78352e-05
-1.90029e-05
-1.92952e-05
-1.86547e-05
-1.70305e-05
-1.43762e-05
-1.06461e-05
-5.79271e-06
2.35412e-07
7.49671e-06
1.60592e-05
2.60023e-05
3.74179e-05
5.04119e-05
6.51037e-05
8.16274e-05
0.000100131
0.000120776
0.000143733
0.000169185
0.000197321
0.000228339
0.000262434
0.000299802
0.00034063
0.000385095
0.000433358
0.000485554
0.00054179
0.000602137
0.00066662
0.000735218
0.000807844
0.00088433
0.000964433
0.001048
0.00113456
0.00122361
0.00131461
0.00140693
0.00149988
0.00159272
0.00168463
0.00177471
0.00186211
0.00194595
0.00202539
0.00209963
0.00216799
0.00222987
0.00228484
0.00233257
0.00237291
0.00240588
0.00243166
0.00245057
0.00246307
0.00246976
0.00247131
0.00246848
0.00246208
0.00245294
0.0024419
0.00242981
0.00241744
0.00240552
0.00239475
0.00238488
0.0023776
0.00237245
0.0023697
0.00236932
2.29671e-05
1.79354e-05
1.09246e-05
4.0195e-06
-1.2209e-06
-4.84374e-06
-7.33252e-06
-8.96095e-06
-9.81972e-06
-9.91845e-06
-9.23172e-06
-7.72005e-06
-5.33935e-06
-2.04365e-06
2.2146e-06
7.48438e-06
1.38174e-05
2.12715e-05
2.99123e-05
3.98148e-05
5.10641e-05
6.37572e-05
7.8005e-05
9.39314e-05
0.000111674
0.000131383
0.000153222
0.000177365
0.000203997
0.000233308
0.000265495
0.000300757
0.000339289
0.000381283
0.000426913
0.00047634
0.000529694
0.000587076
0.000648546
0.000714118
0.000783746
0.000857309
0.000934654
0.00101552
0.00109956
0.00118633
0.00127532
0.00136594
0.00145753
0.00154934
0.00164054
0.00173031
0.00181776
0.00190197
0.00198205
0.00205721
0.00212671
0.00218995
0.00224642
0.00229579
0.00233787
0.00237266
0.00240032
0.00242114
0.0024356
0.00244427
0.00244782
0.00244699
0.00244259
0.00243542
0.0024263
0.00241603
0.00240532
0.00239482
0.00238507
0.00237632
0.00236912
0.00236366
0.00236033
0.00235921
3.13333e-05
2.47764e-05
1.56795e-05
6.80664e-06
4.83316e-07
-3.41749e-06
-5.6799e-06
-6.79752e-06
-7.00337e-06
-6.39959e-06
-5.02016e-06
-2.86231e-06
9.6026e-08
3.88699e-06
8.54804e-06
1.41212e-05
2.06529e-05
2.81957e-05
3.68088e-05
4.65595e-05
5.75243e-05
6.97911e-05
8.34609e-05
9.86476e-05
0.000115479
0.000134099
0.000154667
0.000177357
0.000202353
0.00022985
0.000260056
0.000293183
0.000329446
0.000369058
0.000412221
0.000459122
0.000509927
0.000564769
0.000623744
0.000686902
0.000754236
0.000825674
0.000901078
0.000980224
0.00106281
0.00114843
0.0012366
0.00132677
0.00141826
0.00151032
0.00160209
0.00169277
0.00178146
0.00186713
0.00194879
0.00202564
0.00209689
0.00216187
0.00222004
0.00227101
0.00231458
0.00235073
0.00237961
0.00240155
0.00241703
0.00242665
0.00243111
0.00243118
0.00242767
0.0024214
0.00241317
0.00240373
0.00239379
0.00238392
0.00237457
0.00236604
0.00235857
0.00235246
0.00234832
0.00234643
3.79892e-05
3.00599e-05
1.86348e-05
7.3314e-06
-6.57032e-07
-5.45899e-06
-8.08861e-06
-9.22402e-06
-9.23058e-06
-8.30642e-06
-6.55387e-06
-4.01749e-06
-7.07903e-07
3.38382e-06
8.278e-06
1.40025e-05
2.05921e-05
2.80886e-05
3.65408e-05
4.6006e-05
5.65517e-05
6.82567e-05
8.12129e-05
9.55267e-05
0.000111321
0.000128735
0.000147928
0.000169076
0.000192373
0.000218029
0.000246266
0.000277319
0.000311429
0.000348834
0.00038977
0.000434454
0.000483086
0.000535832
0.000592823
0.000654145
0.000719825
0.000789829
0.000864054
0.000942317
0.00102434
0.00110977
0.00119814
0.00128888
0.00138135
0.00147475
0.0015682
0.00166086
0.00175181
0.00183992
0.00192405
0.00200333
0.00207692
0.00214407
0.00220416
0.00225675
0.00230162
0.00233873
0.00236826
0.00239057
0.00240619
0.00241579
0.00242013
0.00242003
0.00241636
0.00240996
0.00240164
0.00239216
0.00238218
0.00237223
0.00236274
0.00235391
0.00234587
0.00233895
0.00233399
0.00233142
4.19904e-05
3.27721e-05
1.89556e-05
5.02071e-06
-4.96868e-06
-1.10936e-05
-1.45352e-05
-1.61169e-05
-1.63164e-05
-1.5421e-05
-1.36019e-05
-1.09555e-05
-7.53098e-06
-3.34894e-06
1.58805e-06
7.28941e-06
1.37742e-05
2.107e-05
2.92127e-05
3.82479e-05
4.82323e-05
5.92356e-05
7.13425e-05
8.46541e-05
9.9291e-05
0.000115395
0.000133127
0.000152675
0.000174244
0.000198065
0.000224383
0.000253459
0.000285562
0.000320962
0.000359922
0.000402694
0.000449506
0.000500558
0.000556014
0.000615991
0.000680554
0.000749708
0.000823386
0.000901443
0.000983642
0.00106965
0.00115902
0.00125122
0.00134556
0.00144126
0.00153737
0.00163296
0.00172715
0.00181867
0.00190619
0.0019887
0.00206529
0.00213513
0.00219749
0.00225187
0.00229798
0.00233578
0.00236547
0.00238747
0.0024024
0.00241103
0.00241421
0.00241288
0.00240798
0.00240042
0.00239106
0.00238066
0.00236988
0.00235924
0.00234909
0.00233963
0.00233089
0.0023232
0.00231756
0.00231445
4.24616e-05
3.20607e-05
1.59075e-05
-6.91731e-07
-1.28466e-05
-2.05619e-05
-2.51326e-05
-2.74926e-05
-2.82102e-05
-2.76499e-05
-2.60466e-05
-2.35477e-05
-2.0243e-05
-1.61852e-05
-1.1403e-05
-5.90828e-06
2.99414e-07
7.23146e-06
1.49095e-05
2.33662e-05
3.26473e-05
4.28137e-05
5.39434e-05
6.61346e-05
7.95083e-05
9.42104e-05
0.000110413
0.000128317
0.000148147
0.000170158
0.000194622
0.000221828
0.000252076
0.000285663
0.000322883
0.000364016
0.000409317
0.000459016
0.000513305
0.000572333
0.000636201
0.000704952
0.000778565
0.00085693
0.000939851
0.00102703
0.00111806
0.00121239
0.00130937
0.00140818
0.00150781
0.00160724
0.00170556
0.00180148
0.00189339
0.00198001
0.00206041
0.00213364
0.00219883
0.00225537
0.00230288
0.00234129
0.00237083
0.00239198
0.00240546
0.00241218
0.00241317
0.00240951
0.00240226
0.00239246
0.00238105
0.00236883
0.00235648
0.00234452
0.00233328
0.00232291
0.00231343
0.00230513
0.00229905
0.00229567
3.8711e-05
2.72425e-05
8.87777e-06
-1.03131e-05
-2.46802e-05
-3.41361e-05
-4.00484e-05
-4.3432e-05
-4.49256e-05
-4.49577e-05
-4.3819e-05
-4.1704e-05
-3.87415e-05
-3.50169e-05
-3.05859e-05
-2.54834e-05
-1.9729e-05
-1.33286e-05
-6.27589e-06
1.44873e-06
9.88008e-06
1.90707e-05
2.90939e-05
4.0047e-05
5.20544e-05
6.52708e-05
7.98829e-05
9.61092e-05
0.0001142
0.000134435
0.000157116
0.000182561
0.000211095
0.000243046
0.000278731
0.000318451
0.000362488
0.000411091
0.000464481
0.000522834
0.000586286
0.000654919
0.000728766
0.000807757
0.000891741
0.000980467
0.00107356
0.00117051
0.00127067
0.0013732
0.00147707
0.00158111
0.00168437
0.00178561
0.00188295
0.00197473
0.0020599
0.00213743
0.00220629
0.00226567
0.00231508
0.00235436
0.00238373
0.00240374
0.00241521
0.00241924
0.00241705
0.00240994
0.00239919
0.002386
0.00237145
0.00235645
0.00234172
0.00232779
0.002315
0.0023035
0.00229328
0.0022846
0.0022784
0.002275
3.02092e-05
1.77877e-05
-2.62429e-06
-2.42699e-05
-4.08178e-05
-5.2079e-05
-5.94629e-05
-6.4042e-05
-6.65084e-05
-6.73415e-05
-6.68793e-05
-6.53578e-05
-6.2942e-05
-5.97482e-05
-5.58588e-05
-5.13323e-05
-4.62081e-05
-4.05104e-05
-3.42483e-05
-2.7415e-05
-1.9986e-05
-1.19156e-05
-3.13335e-06
6.45996e-06
1.69961e-05
2.86424e-05
4.16036e-05
5.61214e-05
7.24727e-05
9.09645e-05
0.000111927
0.000135705
0.00016265
0.000193107
0.000227414
0.000265886
0.00030882
0.000356482
0.000409111
0.000466909
0.000530036
0.000598603
0.00067277
0.000752445
0.000837547
0.000927891
0.00102316
0.00112289
0.00122645
0.00133303
0.00144159
0.00155082
0.00165962
0.00176692
0.00187075
0.00196886
0.00205989
0.00214287
0.00221657
0.0022799
0.00233216
0.00237308
0.00240277
0.00242181
0.00243113
0.00243198
0.00242583
0.00241427
0.00239888
0.00238112
0.00236229
0.00234346
0.00232545
0.00230885
0.00229403
0.00228115
0.0022702
0.00226137
0.00225537
0.00225224
1.65614e-05
3.29856e-06
-1.89774e-05
-4.29058e-05
-6.15528e-05
-7.46239e-05
-8.35479e-05
-8.94362e-05
-9.30203e-05
-9.48196e-05
-9.52108e-05
-9.44656e-05
-9.2781e-05
-9.0302e-05
-8.71365e-05
-8.33654e-05
-7.90482e-05
-7.42265e-05
-6.89245e-05
-6.31477e-05
-5.68804e-05
-5.00818e-05
-4.26818e-05
-3.4576e-05
-2.56217e-05
-1.56348e-05
-4.38881e-06
8.38383e-06
2.29879e-05
3.97584e-05
5.90516e-05
8.12347e-05
0.000106675
0.000135733
0.000168751
0.000206051
0.000247931
0.000294664
0.000346499
0.000403655
0.000466304
0.000534509
0.00060883
0.000688888
0.000774764
0.000866371
0.000963473
0.00106568
0.00117241
0.00128292
0.00139619
0.00151088
0.00162561
0.00173939
0.00185058
0.00195628
0.0020545
0.0021443
0.00222434
0.0022932
0.00234985
0.00239379
0.002425
0.00244397
0.00245166
0.00244946
0.00243906
0.00242239
0.00240141
0.00237796
0.00235368
0.00232991
0.00230765
0.0022876
0.00227018
0.00225559
0.00224387
0.00223513
0.00222968
0.00222702
-2.51705e-06
-1.65105e-05
-4.04624e-05
-6.64857e-05
-8.71195e-05
-0.000101965
-0.000112453
-0.00011972
-0.000124525
-0.00012742
-0.00012881
-0.000128999
-0.000128212
-0.000126618
-0.00012435
-0.000121509
-0.000118175
-0.000114404
-0.000110236
-0.000105688
-0.000100749
-9.5382e-05
-8.95142e-05
-8.30322e-05
-7.57786e-05
-6.75489e-05
-5.80919e-05
-4.71122e-05
-3.42773e-05
-1.92264e-05
-1.58202e-06
1.90376e-05
4.30076e-05
7.06867e-05
0.000102411
0.000138492
0.000179214
0.00022484
0.000275614
0.000331768
0.000393544
0.000461234
0.000534567
0.000614121
0.000699871
0.000791794
0.000889765
0.000993502
0.00110254
0.00121622
0.00133362
0.00145351
0.00157428
0.00169467
0.00181362
0.00192821
0.0020353
0.00213359
0.00222191
0.00229841
0.00236163
0.00241076
0.0024455
0.00246616
0.00247365
0.00246939
0.00245527
0.0024335
0.00240646
0.00237649
0.00234571
0.00231589
0.00228834
0.00226397
0.00224331
0.0022266
0.00221398
0.00220548
0.00220088
0.00219892
-2.72213e-05
-4.18303e-05
-6.72748e-05
-9.52011e-05
-0.000117693
-0.000134252
-0.000146297
-0.00015498
-0.000161079
-0.000165167
-0.000167678
-0.000168938
-0.000169196
-0.000168647
-0.000167441
-0.000165702
-0.000163525
-0.000160984
-0.000158129
-0.000154986
-0.000151551
-0.000147786
-0.00014361
-0.000138899
-0.000133476
-0.000127114
-0.000119534
-0.000110413
-9.93922e-05
-8.60905e-05
-7.01171e-05
-5.10864e-05
-2.86308e-05
-2.40938e-06
2.78867e-05
6.2534e-05
0.000101781
0.000145856
0.000194975
0.000249357
0.000309234
0.00037484
0.000446299
0.000523951
0.000607965
0.000698459
0.000795471
0.000898888
0.00100844
0.00112364
0.00124378
0.00136781
0.00149417
0.00162113
0.00174782
0.00187225
0.00199027
0.00209942
0.00219858
0.00228564
0.00235857
0.00241606
0.00245735
0.00248248
0.00249219
0.00248789
0.00247155
0.00244565
0.00241291
0.00237619
0.00233823
0.00230143
0.00226758
0.00223796
0.00221329
0.00219393
0.00218017
0.00217197
0.00216846
0.00216741
-5.76582e-05
-7.27861e-05
-9.95414e-05
-0.000129181
-0.000153395
-0.000171589
-0.000185165
-0.000195277
-0.000202717
-0.000208077
-0.000211809
-0.000214259
-0.000215699
-0.000216342
-0.000216358
-0.000215889
-0.000215044
-0.000213913
-0.000212555
-0.000211004
-0.000209257
-0.000207272
-0.00020496
-0.000202179
-0.000198731
-0.000194364
-0.000188769
-0.000181599
-0.000172473
-0.000160996
-0.000146776
-0.000129441
-0.00010865
-8.41037e-05
-5.55499e-05
-2.27768e-05
1.43936e-05
5.61208e-05
0.000102562
0.000153891
0.000210316
0.00027209
0.000339484
0.000412755
0.000492372
0.000578564
0.000671586
0.000771549
0.000878519
0.000992341
0.00111261
0.0012386
0.00136906
0.00150212
0.00163636
0.00177086
0.00190202
0.00202542
0.00213903
0.0022408
0.00232806
0.00239877
0.00245133
0.00248524
0.00250093
0.00249978
0.00248376
0.00245568
0.00241857
0.00237575
0.00233063
0.00228632
0.00224535
0.00220955
0.00218003
0.00215743
0.00214212
0.00213413
0.00213185
0.00213191
-9.38674e-05
-0.000109445
-0.000137333
-0.000168499
-0.000194296
-0.000214039
-0.000229105
-0.000240644
-0.000249457
-0.000256148
-0.000261186
-0.000264934
-0.000267681
-0.000269656
-0.000271049
-0.000272014
-0.000272679
-0.000273141
-0.000273471
-0.000273704
-0.000273839
-0.000273826
-0.000273561
-0.000272885
-0.000271576
-0.000269351
-0.00026588
-0.000260789
-0.000253685
-0.000244172
-0.000231873
-0.000216449
-0.000197616
-0.000175149
-0.00014889
-0.000118734
-8.46209e-05
-4.6505e-05
-4.33351e-06
4.19841e-05
9.26e-05
0.000147754
0.000207796
0.00027316
0.000344231
0.000421625
0.000505916
0.000597574
0.000697089
0.000804797
0.000920815
0.00104492
0.00117641
0.00131389
0.00145542
0.00159996
0.00174558
0.00188719
0.00202055
0.00214286
0.00225118
0.00234243
0.00241371
0.00246341
0.00249134
0.00249856
0.00248693
0.0024598
0.00242054
0.00237314
0.00232167
0.00226999
0.00222148
0.00217876
0.00214356
0.00211693
0.00209953
0.00209148
0.00209045
0.00209175
-0.000135849
-0.00015181
-0.000180664
-0.000213176
-0.00024042
-0.00026162
-0.000278127
-0.000291081
-0.000301287
-0.000309359
-0.000315777
-0.00032092
-0.00032509
-0.000328533
-0.000331453
-0.000334019
-0.00033637
-0.000338614
-0.000340827
-0.000343047
-0.000345267
-0.000347428
-0.000349411
-0.000351033
-0.000352046
-0.000352143
-0.000350968
-0.000348135
-0.000343245
-0.00033592
-0.000325821
-0.000312672
-0.000296279
-0.000276539
-0.000253437
-0.000227036
-0.00019745
-0.000164813
-0.000129236
-9.07694e-05
-4.93606e-05
-4.82705e-06
4.31851e-05
9.52265e-05
0.000151976
0.000214176
0.000282691
0.000358889
0.000443673
0.000538109
0.000643063
0.000759146
0.000886679
0.00102508
0.0011725
0.00132711
0.00148757
0.00165025
0.00180972
0.00196096
0.00209966
0.00222142
0.00232235
0.00239888
0.00244959
0.00247414
0.00247427
0.00245354
0.00241574
0.0023661
0.0023098
0.00225156
0.00219562
0.00214555
0.00210392
0.00207243
0.0020522
0.00204361
0.00204368
0.00204625
-0.000183563
-0.000199836
-0.000229499
-0.000263189
-0.000291745
-0.000314311
-0.000332206
-0.000346557
-0.000358169
-0.000367663
-0.000375529
-0.000382156
-0.000387862
-0.000392904
-0.000397501
-0.000401833
-0.00040605
-0.000410267
-0.000414566
-0.000418982
-0.000423502
-0.000428054
-0.000432501
-0.000436635
-0.000440184
-0.000442817
-0.000444162
-0.000443826
-0.000441428
-0.000436626
-0.000429147
-0.000418821
-0.000405593
-0.000389537
-0.000370849
-0.000349832
-0.000326856
-0.000302314
-0.000276565
-0.000249874
-0.000222363
-0.000193958
-0.000164346
-0.000132932
-9.88265e-05
-6.07726e-05
-1.71223e-05
3.35226e-05
9.31435e-05
0.000164326
0.000249022
0.000348807
0.000464751
0.000597201
0.000745624
0.000908708
0.00108459
0.00127014
0.00146027
0.00164916
0.00183022
0.00199667
0.00214285
0.00226293
0.00235234
0.00240864
0.00243363
0.00242929
0.00239989
0.00235233
0.0022937
0.00223026
0.00216747
0.00210994
0.00206125
0.00202405
0.00200009
0.00199022
0.00199101
0.00199477
-0.000236922
-0.000253438
-0.000283765
-0.000318469
-0.00034821
-0.000372052
-0.000391283
-0.000407009
-0.000420035
-0.000430987
-0.000440362
-0.000448561
-0.00045591
-0.000462681
-0.000469103
-0.000475367
-0.000481632
-0.00048802
-0.000494612
-0.000501443
-0.000508489
-0.000515664
-0.000522809
-0.000529696
-0.000536028
-0.000541457
-0.000545605
-0.000548089
-0.000548563
-0.000546754
-0.000542497
-0.000535773
-0.00052673
-0.000515691
-0.000503149
-0.000489737
-0.000476184
-0.000463242
-0.00045162
-0.000441905
-0.00043449
-0.000429492
-0.00042668
-0.000425403
-0.000424548
-0.000422427
-0.000416463
-0.000404056
-0.00038247
-0.000348525
-0.000297304
-0.000226444
-0.000133369
-1.61535e-05
0.000126061
0.000293318
0.000484125
0.000694926
0.00092056
0.00115484
0.0013897
0.00161628
0.0018258
0.00201017
0.00216114
0.00227282
0.00234281
0.00237173
0.00236417
0.0023277
0.00227191
0.00220576
0.00213709
0.0020722
0.002016
0.00197214
0.00194333
0.00193112
0.001932
0.00193673
-0.000295807
-0.000312498
-0.000343351
-0.000378914
-0.000409716
-0.000434749
-0.000455261
-0.00047234
-0.000486788
-0.000499231
-0.000510175
-0.000520028
-0.000529126
-0.000537753
-0.000546147
-0.00055451
-0.000563008
-0.000571767
-0.000580868
-0.000590341
-0.000600151
-0.000610196
-0.000620298
-0.000630208
-0.000639611
-0.000648152
-0.000655458
-0.000661178
-0.000665032
-0.00066685
-0.000666628
-0.000664559
-0.000661068
-0.000656819
-0.000652702
-0.000649795
-0.000649298
-0.00065245
-0.000660441
-0.000674306
-0.000694829
-0.000722419
-0.000756981
-0.000797817
-0.00084346
-0.000891729
-0.000939125
-0.000981519
-0.00101471
-0.00103331
-0.00103242
-0.00100594
-0.000949182
-0.000858193
-0.000731418
-0.000567571
-0.000366753
-0.000132099
0.000131926
0.000419448
0.000720714
0.00102343
0.00131545
0.00158571
0.0018238
0.00201939
0.00216447
0.00225514
0.00229165
0.00228273
0.00224048
0.00217728
0.00210495
0.00203316
0.00196893
0.00191728
0.00188227
0.00186638
0.00186634
0.00187165
-0.000360064
-0.000376865
-0.00040811
-0.000444384
-0.00047613
-0.000502272
-0.000524014
-0.000542423
-0.000558297
-0.000572264
-0.000584833
-0.000596421
-0.000607374
-0.000617983
-0.000628497
-0.000639127
-0.000650044
-0.000661377
-0.000673208
-0.000685557
-0.000698382
-0.000711563
-0.000724905
-0.000738142
-0.000750953
-0.000762983
-0.000773887
-0.000783373
-0.000791258
-0.000797528
-0.000802394
-0.00080634
-0.000810157
-0.000814954
-0.000822136
-0.000833352
-0.000850413
-0.000875191
-0.000909504
-0.000954985
-0.00101294
-0.0010842
-0.00116885
-0.00126624
-0.00137409
-0.00148898
-0.00160746
-0.00172375
-0.00182992
-0.00191883
-0.00198357
-0.00201611
-0.00200965
-0.00195748
-0.00185728
-0.00170817
-0.00150778
-0.00125696
-0.000958043
-0.000615203
-0.00024026
0.000150089
0.000543666
0.000927534
0.00128347
0.00159317
0.00184735
0.00203558
0.00215097
0.00219747
0.00218839
0.00214056
0.00207058
0.00199374
0.00192121
0.00186058
0.00181754
0.00179615
0.00179381
0.00179909
-0.00042951
-0.000446357
-0.000477869
-0.00051471
-0.000547287
-0.000574457
-0.000597379
-0.000617099
-0.000634404
-0.000649925
-0.000664175
-0.000677578
-0.000690486
-0.000703202
-0.000715983
-0.000729046
-0.00074257
-0.000756685
-0.000771469
-0.00078694
-0.000803042
-0.000819643
-0.000836535
-0.000853444
-0.000870049
-0.000886018
-0.000901054
-0.000914957
-0.000927687
-0.000939437
-0.000950707
-0.000962355
-0.000975643
-0.000992238
-0.00101419
-0.00104387
-0.00108383
-0.00113677
-0.00120528
-0.00129174
-0.00139816
-0.00152595
-0.00167528
-0.00184447
-0.00203165
-0.00223224
-0.00243933
-0.00264535
-0.00284095
-0.00301638
-0.00316138
-0.0032647
-0.00332091
-0.0033231
-0.00326403
-0.00313887
-0.00294599
-0.00268414
-0.00235561
-0.00196988
-0.00153755
-0.00106339
-0.000555056
-3.00383e-05
0.000472169
0.000931201
0.00133252
0.00165746
0.00189343
0.00203642
0.002094
0.00208404
0.00202987
0.00195367
0.00187402
0.0018033
0.00175003
0.00172071
0.0017142
0.00171854
-0.000503935
-0.000520766
-0.000552421
-0.000589692
-0.00062299
-0.000651112
-0.000675167
-0.000696174
-0.000714916
-0.000732022
-0.000748007
-0.000763301
-0.000778266
-0.000793211
-0.000808402
-0.000824065
-0.000840382
-0.000857486
-0.000875454
-0.000894297
-0.000913951
-0.000934275
-0.000955056
-0.000976019
-0.000996862
-0.00101729
-0.0010371
-0.0010562
-0.00107475
-0.00109323
-0.00111248
-0.00113384
-0.00115916
-0.00119077
-0.00123152
-0.00128464
-0.00135362
-0.0014421
-0.00155367
-0.00169162
-0.00185889
-0.00205683
-0.00228549
-0.0025439
-0.0028275
-0.00312915
-0.00343985
-0.00374969
-0.00404704
-0.00431881
-0.00455246
-0.00473648
-0.00485832
-0.00491362
-0.00489466
-0.00479638
-0.00461774
-0.00435798
-0.00401904
-0.0036052
-0.00311838
-0.00256217
-0.00195115
-0.0013097
-0.000663635
-2.6248e-05
0.00055838
0.00106278
0.00146563
0.00175322
0.00192318
0.0019878
0.00197268
0.00190965
0.00182717
0.00174628
0.00168062
0.00164029
0.00162719
0.00162925
-0.0005831
-0.000599856
-0.000631534
-0.000669102
-0.000703015
-0.000732013
-0.000757154
-0.000779429
-0.000799612
-0.00081833
-0.000836101
-0.000853361
-0.000870479
-0.000887773
-0.000905516
-0.000923941
-0.000943235
-0.000963535
-0.000984917
-0.00100739
-0.00103088
-0.00105525
-0.00108029
-0.00110573
-0.00113131
-0.0011568
-0.00118211
-0.00120732
-0.00123284
-0.00125948
-0.00128854
-0.00132193
-0.00136217
-0.00141243
-0.00147645
-0.00155849
-0.00166316
-0.00179522
-0.00195936
-0.00216004
-0.00240045
-0.00268251
-0.00300638
-0.00336819
-0.00376072
-0.00417564
-0.00460126
-0.00502231
-0.00542339
-0.00578923
-0.00610509
-0.00635786
-0.00653763
-0.00663751
-0.0066511
-0.00657527
-0.00640925
-0.00615286
-0.00580771
-0.00537499
-0.00485386
-0.00424817
-0.00357165
-0.00284541
-0.00206962
-0.00128259
-0.000511375
0.000200558
0.000812655
0.00129528
0.00163077
0.00181922
0.00188083
0.0018532
0.0017778
0.00168915
0.00160961
0.00155472
0.00153199
0.00152982
-0.000666743
-0.000683365
-0.000714949
-0.000752683
-0.000787108
-0.000816909
-0.000843089
-0.000866611
-0.000888238
-0.000908594
-0.0009282
-0.000947497
-0.000966859
-0.000986615
-0.00100705
-0.00102839
-0.00105084
-0.00107454
-0.00109957
-0.00112593
-0.00115355
-0.00118231
-0.00121199
-0.00124237
-0.00127324
-0.00130447
-0.00133611
-0.00136846
-0.00140224
-0.00143865
-0.00147956
-0.00152751
-0.00158583
-0.00165862
-0.00175068
-0.00186744
-0.00201478
-0.00219868
-0.00242509
-0.00269947
-0.00302549
-0.00340488
-0.00383524
-0.00431071
-0.00482272
-0.00535763
-0.00589898
-0.00642809
-0.00692586
-0.0073749
-0.00775993
-0.00807012
-0.00829676
-0.00843157
-0.00847016
-0.00841063
-0.00825238
-0.00799563
-0.00764153
-0.00719123
-0.00664706
-0.00601581
-0.00530711
-0.00452746
-0.00367125
-0.00276501
-0.00184222
-0.000941448
-0.000104808
0.000609824
0.00116295
0.00153288
0.00172347
0.00176786
0.00171891
0.00162906
0.00153557
0.00146287
0.00142669
0.00141784
-0.000754578
-0.000771007
-0.000802383
-0.000840156
-0.00087499
-0.00090552
-0.000932693
-0.000957441
-0.000980512
-0.00100253
-0.00102401
-0.00104541
-0.0010671
-0.00108943
-0.00111267
-0.00113709
-0.00116287
-0.00119017
-0.00121907
-0.00124957
-0.00128163
-0.00131512
-0.00134986
-0.00138567
-0.00142243
-0.00146013
-0.001499
-0.00153962
-0.00158305
-0.00163099
-0.00168591
-0.0017511
-0.00183079
-0.00193011
-0.00205506
-0.00221238
-0.00240928
-0.00265301
-0.00295122
-0.00330961
-0.00373156
-0.00421735
-0.0047628
-0.00535932
-0.0059931
-0.00664577
-0.00729582
-0.00792106
-0.00850048
-0.00901608
-0.00945422
-0.00980539
-0.0100616
-0.0102185
-0.010274
-0.0102276
-0.0100794
-0.00983033
-0.00948101
-0.00903196
-0.00848415
-0.00784006
-0.00710275
-0.00627123
-0.00536383
-0.00439077
-0.00336469
-0.0023081
-0.00127848
-0.000332081
0.00047121
0.00107631
0.0014575
0.00162686
0.00163696
0.00156011
0.00145515
0.00136249
0.00130893
0.00128972
-0.000846294
-0.000862474
-0.000893527
-0.000931214
-0.000966356
-0.000997544
-0.00102566
-0.00105161
-0.00107612
-0.00109982
-0.00112322
-0.00114677
-0.00117087
-0.00119586
-0.00122204
-0.00124966
-0.00127894
-0.00131003
-0.00134301
-0.00137792
-0.00141471
-0.00145329
-0.00149351
-0.00153528
-0.00157856
-0.0016235
-0.00167056
-0.00172062
-0.00177518
-0.00183646
-0.00190759
-0.00199272
-0.00209705
-0.00222685
-0.00238938
-0.00259273
-0.00284542
-0.00315683
-0.00353498
-0.00398492
-0.00451023
-0.0051089
-0.00577364
-0.00649119
-0.00724212
-0.00800266
-0.00874725
-0.00945135
-0.0100933
-0.0106563
-0.0111291
-0.0115043
-0.011777
-0.0119443
-0.0120069
-0.0119656
-0.011822
-0.0115777
-0.011234
-0.0107919
-0.0102518
-0.00961364
-0.00887677
-0.00804006
-0.00710763
-0.00608556
-0.00498733
-0.00383466
-0.00265813
-0.00151097
-0.000465288
0.000405512
0.00103421
0.00139263
0.00151249
0.0014727
0.00136325
0.00124964
0.00117433
0.00113994
-0.000941558
-0.000957436
-0.000988053
-0.00102553
-0.00106088
-0.00109265
-0.00112166
-0.00114878
-0.00117473
-0.00120011
-0.00122546
-0.00125122
-0.0012778
-0.00130554
-0.00133475
-0.00136571
-0.00139863
-0.00143368
-0.00147096
-0.00151052
-0.00155234
-0.00159635
-0.00164249
-0.00169073
-0.00174117
-0.00179415
-0.00185038
-0.00191109
-0.00197824
-0.00205464
-0.00214415
-0.00225181
-0.00238386
-0.00254778
-0.0027521
-0.00300615
-0.00332055
-0.00370613
-0.00416918
-0.00471642
-0.00534943
-0.00606283
-0.0068453
-0.0076777
-0.00853473
-0.00938794
-0.0102089
-0.0109722
-0.0116573
-0.0122503
-0.0127423
-0.0131281
-0.0134053
-0.0135737
-0.0136352
-0.0135922
-0.0134476
-0.013204
-0.0128636
-0.0124278
-0.0118971
-0.0112708
-0.0105473
-0.00972407
-0.00879969
-0.0077737
-0.00664977
-0.00543994
-0.00416838
-0.00287448
-0.00162203
-0.000495537
0.00041233
0.0010214
0.00131484
0.0013554
0.00125499
0.00111921
0.00101453
0.000961508
-0.00104002
-0.00105554
-0.00108561
-0.00112276
-0.00115822
-0.00119049
-0.00122035
-0.00124861
-0.00127597
-0.00130305
-0.00133036
-0.00135837
-0.00138747
-0.00141803
-0.00145037
-0.00148477
-0.00152147
-0.00156064
-0.00160241
-0.00164685
-0.00169397
-0.00174377
-0.00179624
-0.00185147
-0.00190971
-0.00197151
-0.00203786
-0.00211039
-0.00219153
-0.00228472
-0.00239461
-0.00252711
-0.0026896
-0.00289076
-0.00314031
-0.00344904
-0.00383022
-0.00429283
-0.00484455
-0.00549195
-0.00623264
-0.00705822
-0.00795164
-0.00888769
-0.00983586
-0.0107641
-0.0116427
-0.012447
-0.0131592
-0.0137682
-0.0142674
-0.0146537
-0.0149272
-0.0150895
-0.0151438
-0.0150939
-0.0149436
-0.0146969
-0.0143567
-0.0139252
-0.0134034
-0.0127907
-0.012085
-0.0112828
-0.0103799
-0.00937232
-0.00825747
-0.00703771
-0.00572448
-0.00434339
-0.00294291
-0.00160277
-0.000427485
0.000469685
0.00100381
0.00118506
0.00112461
0.000966819
0.000821682
0.000747936
-0.00114129
-0.0011564
-0.00118584
-0.00122254
-0.001258
-0.0012907
-0.00132134
-0.0013507
-0.00137946
-0.00140823
-0.00143752
-0.00146779
-0.00149946
-0.00153289
-0.00156843
-0.00160636
-0.00164694
-0.00169037
-0.0017368
-0.00178632
-0.00183901
-0.0018949
-0.00195411
-0.00201681
-0.00208346
-0.00215481
-0.00223218
-0.0023176
-0.002414
-0.00252548
-0.00265743
-0.00281673
-0.00301181
-0.00325255
-0.00354975
-0.00391655
-0.00436631
-0.00490727
-0.00554961
-0.00629569
-0.00714077
-0.0080717
-0.00906542
-0.0100911
-0.011114
-0.0121
-0.0130196
-0.0138503
-0.0145775
-0.0151924
-0.0156905
-0.0160709
-0.0163351
-0.0164866
-0.0165295
-0.0164687
-0.0163092
-0.0160557
-0.0157123
-0.0152821
-0.0147668
-0.0141665
-0.0134793
-0.0127014
-0.0118272
-0.0108501
-0.00976329
-0.0085622
-0.00724833
-0.00583475
-0.0043522
-0.00286253
-0.00146588
-0.000291227
0.000531596
0.000927024
0.000957913
0.00078636
0.000590502
0.000495129
-0.001245
-0.00125964
-0.00128835
-0.00132448
-0.00135985
-0.00139289
-0.00142425
-0.00145467
-0.0014848
-0.00151523
-0.00154649
-0.00157904
-0.0016133
-0.00164964
-0.00168842
-0.00172995
-0.0017745
-0.0018223
-0.00187352
-0.00192831
-0.00198678
-0.00204906
-0.00211534
-0.00218597
-0.00226155
-0.00234312
-0.0024323
-0.00253152
-0.00264425
-0.00277521
-0.00293056
-0.00311808
-0.00334723
-0.00362885
-0.00397521
-0.0044017
-0.00491947
-0.00553929
-0.0062701
-0.0071107
-0.00805348
-0.00907982
-0.0101609
-0.0112613
-0.0123432
-0.0133719
-0.0143194
-0.0151659
-0.0158997
-0.016514
-0.0170061
-0.0173767
-0.0176287
-0.0177665
-0.0177953
-0.0177209
-0.0175491
-0.0172857
-0.0169358
-0.0165034
-0.0159914
-0.0154006
-0.0147299
-0.0139758
-0.0131325
-0.0121917
-0.0111443
-0.00998083
-0.00869465
-0.00728781
-0.00577689
-0.00420353
-0.00265166
-0.00124764
-0.000132864
0.000536068
0.000721531
0.000568708