/*--------------------------------*- C++ -*----------------------------------*\
  =========                 |
  \\      /  F ield         | OpenFOAM: The Open Source CFD Toolbox
   \\    /   O peration     | Website:  https://openfoam.org
    \\  /    A nd           | Version:  13
     \\/     M anipulation  |
\*---------------------------------------------------------------------------*/
FoamFile
{
    format      ascii;
    class       volVectorField;
    location    "1.1";
    object      U;
}
// * * * * * * * * * * * * * * * * * * * * * * * * * * * * * * * * * * * * * //

dimensions      [0 1 -1 0 0 0 0];

internalField   nonuniform List<vector> 
6400
(
(4.42701e-05 -4.39926e-05 0)
(0.000168163 -4.96935e-05 0)
(0.000242863 -3.30545e-05 0)
(0.000216286 -1.07637e-05 0)
(8.42443e-05 7.80133e-06 0)
(-0.000133021 2.03101e-05 0)
(-0.000412761 2.88319e-05 0)
(-0.000736694 3.45542e-05 0)
(-0.00109087 3.78819e-05 0)
(-0.00146563 3.96999e-05 0)
(-0.00185425 4.06441e-05 0)
(-0.00225221 4.11028e-05 0)
(-0.00265656 4.13221e-05 0)
(-0.00306539 4.14668e-05 0)
(-0.00347754 4.16528e-05 0)
(-0.00389239 4.19672e-05 0)
(-0.00430971 4.24824e-05 0)
(-0.00472958 4.32611e-05 0)
(-0.00515233 4.43593e-05 0)
(-0.00557843 4.58266e-05 0)
(-0.00600848 4.7708e-05 0)
(-0.00644318 5.00437e-05 0)
(-0.00688321 5.28676e-05 0)
(-0.00732921 5.62056e-05 0)
(-0.00778172 6.00748e-05 0)
(-0.0082411 6.44817e-05 0)
(-0.00870743 6.94172e-05 0)
(-0.00918049 7.48532e-05 0)
(-0.00965957 8.07399e-05 0)
(-0.0101435 8.70018e-05 0)
(-0.0106305 9.3533e-05 0)
(-0.011118 0.000100192 0)
(-0.0116031 0.000106799 0)
(-0.0120818 0.000113129 0)
(-0.0125496 0.000118919 0)
(-0.0130012 0.000123867 0)
(-0.0134309 0.000127646 0)
(-0.0138324 0.000129917 0)
(-0.014199 0.000130351 0)
(-0.014524 0.000128646 0)
(-0.0148002 0.000124423 0)
(-0.0150211 0.00011689 0)
(-0.0151847 0.000105489 0)
(-0.0152723 9.3081e-05 0)
(-0.0152963 8.171e-05 0)
(-0.0152463 6.64927e-05 0)
(-0.0151139 4.92235e-05 0)
(-0.0149019 2.93419e-05 0)
(-0.0146086 7.59613e-06 0)
(-0.0142351 -1.53837e-05 0)
(-0.0137824 -3.83756e-05 0)
(-0.0132532 -6.0765e-05 0)
(-0.0126532 -8.26629e-05 0)
(-0.0119868 -0.000103083 0)
(-0.0112618 -0.00012136 0)
(-0.0104867 -0.000137104 0)
(-0.00967095 -0.000149878 0)
(-0.00882488 -0.00015935 0)
(-0.00795938 -0.000165287 0)
(-0.0070858 -0.00016755 0)
(-0.00621558 -0.000166074 0)
(-0.0053599 -0.000160949 0)
(-0.00453044 -0.000152917 0)
(-0.00373652 -0.000142498 0)
(-0.00298661 -0.000129951 0)
(-0.00228853 -0.000115584 0)
(-0.00164897 -9.97541e-05 0)
(-0.00107358 -8.28193e-05 0)
(-0.000566882 -6.50111e-05 0)
(-0.000131139 -4.67959e-05 0)
(0.000227538 -2.99286e-05 0)
(0.000506393 -1.17064e-05 0)
(0.000705127 7.13818e-06 0)
(0.000819617 2.48273e-05 0)
(0.000847418 4.15112e-05 0)
(0.000788804 5.5957e-05 0)
(0.000647715 6.68344e-05 0)
(0.00044166 6.97873e-05 0)
(0.000209947 5.96101e-05 0)
(3.19568e-05 3.21501e-05 0)
(5.0951e-05 -0.000169113 0)
(0.00017329 -0.000171358 0)
(0.000147124 -1.65809e-05 0)
(-8.53353e-05 0.000180954 0)
(-0.000511775 0.000358984 0)
(-0.00109197 0.000497504 0)
(-0.00178835 0.00059902 0)
(-0.00256697 0.000669725 0)
(-0.00340438 0.000718069 0)
(-0.00428292 0.000750868 0)
(-0.00519006 0.00077308 0)
(-0.006117 0.000788167 0)
(-0.00705767 0.000798533 0)
(-0.00800788 0.000805865 0)
(-0.00896484 0.000811361 0)
(-0.00992675 0.000815904 0)
(-0.0108925 0.000820155 0)
(-0.0118615 0.000824615 0)
(-0.0128336 0.000829654 0)
(-0.0138086 0.000835534 0)
(-0.0147867 0.000842411 0)
(-0.015768 0.000850341 0)
(-0.0167523 0.000859265 0)
(-0.0177393 0.000868999 0)
(-0.0187282 0.000879229 0)
(-0.0197175 0.000889494 0)
(-0.0207053 0.000899178 0)
(-0.0216886 0.000907494 0)
(-0.0226635 0.0009135 0)
(-0.0236251 0.000916112 0)
(-0.0245674 0.000914133 0)
(-0.0254833 0.00090629 0)
(-0.0263646 0.00089128 0)
(-0.0272023 0.000867834 0)
(-0.027987 0.000834785 0)
(-0.0287084 0.000791134 0)
(-0.0293566 0.000736119 0)
(-0.0299217 0.000669256 0)
(-0.0303942 0.000590372 0)
(-0.0307656 0.000499619 0)
(-0.031028 0.000397439 0)
(-0.0311753 0.000284522 0)
(-0.0312026 0.000161947 0)
(-0.0311036 3.31345e-05 0)
(-0.0308769 -0.000100665 0)
(-0.0305212 -0.000240306 0)
(-0.0300368 -0.000384087 0)
(-0.0294246 -0.000529028 0)
(-0.0286867 -0.000673536 0)
(-0.0278274 -0.000814856 0)
(-0.0268529 -0.000950352 0)
(-0.0257688 -0.00107909 0)
(-0.0245839 -0.0011989 0)
(-0.0233083 -0.00130611 0)
(-0.0219531 -0.00139921 0)
(-0.0205309 -0.00147665 0)
(-0.0190552 -0.00153696 0)
(-0.0175402 -0.00157899 0)
(-0.016001 -0.00160193 0)
(-0.0144527 -0.00160541 0)
(-0.0129108 -0.00158944 0)
(-0.0113904 -0.00155445 0)
(-0.00990558 -0.00150135 0)
(-0.00847103 -0.00143183 0)
(-0.00710021 -0.00134766 0)
(-0.00580509 -0.00125055 0)
(-0.00459634 -0.00114229 0)
(-0.00348336 -0.00102458 0)
(-0.00247436 -0.000898847 0)
(-0.0015765 -0.000766225 0)
(-0.000797428 -0.000628593 0)
(-0.000143283 -0.000483549 0)
(0.000377639 -0.000332079 0)
(0.000756649 -0.000174166 0)
(0.000986369 -1.14466e-05 0)
(0.00105742 0.000149808 0)
(0.000965879 0.000294437 0)
(0.000724234 0.000389031 0)
(0.000380124 0.000381864 0)
(5.88956e-05 0.000209836 0)
(3.50904e-05 -0.000246669 0)
(1.40804e-05 -0.000146206 0)
(-0.000238437 0.000231514 0)
(-0.000716474 0.000651289 0)
(-0.00138289 0.00101457 0)
(-0.00219601 0.00129571 0)
(-0.00312096 0.00150217 0)
(-0.00412995 0.00164953 0)
(-0.00520178 0.00175319 0)
(-0.00632003 0.00182553 0)
(-0.00747232 0.00187582 0)
(-0.0086495 0.00191079 0)
(-0.00984486 0.00193524 0)
(-0.0110535 0.00195261 0)
(-0.012272 0.00196534 0)
(-0.0134977 0.00197519 0)
(-0.0147289 0.00198344 0)
(-0.015964 0.001991 0)
(-0.0172021 0.0019985 0)
(-0.018442 0.00200627 0)
(-0.0196828 0.00201443 0)
(-0.0209232 0.00202281 0)
(-0.0221616 0.00203103 0)
(-0.0233958 0.00203838 0)
(-0.0246232 0.0020439 0)
(-0.0258401 0.00204632 0)
(-0.0270422 0.00204409 0)
(-0.0282239 0.00203538 0)
(-0.0293789 0.00201812 0)
(-0.0304995 0.00199013 0)
(-0.0315772 0.00194915 0)
(-0.0326029 0.00189299 0)
(-0.0335667 0.00181968 0)
(-0.0344585 0.0017275 0)
(-0.035268 0.0016152 0)
(-0.0359856 0.00148201 0)
(-0.036602 0.00132772 0)
(-0.0371087 0.00115267 0)
(-0.0374985 0.000957763 0)
(-0.0377649 0.000744369 0)
(-0.0379028 0.000514319 0)
(-0.0379084 0.000269795 0)
(-0.0377791 1.3259e-05 0)
(-0.0375132 -0.000252626 0)
(-0.0371096 -0.000525317 0)
(-0.0365686 -0.000803011 0)
(-0.0358922 -0.00108181 0)
(-0.0350828 -0.00135827 0)
(-0.034144 -0.00162937 0)
(-0.0330806 -0.00189157 0)
(-0.0318993 -0.00214128 0)
(-0.0306072 -0.00237606 0)
(-0.0292124 -0.00259216 0)
(-0.0277263 -0.00278471 0)
(-0.0261604 -0.00295083 0)
(-0.0245276 -0.003088 0)
(-0.0228418 -0.00319389 0)
(-0.0211178 -0.00326662 0)
(-0.0193711 -0.00330492 0)
(-0.0176174 -0.00330818 0)
(-0.0158728 -0.00327653 0)
(-0.0141528 -0.00321083 0)
(-0.0124728 -0.0031126 0)
(-0.0108472 -0.00298398 0)
(-0.00928947 -0.00282772 0)
(-0.00781188 -0.00264683 0)
(-0.00642532 -0.00244437 0)
(-0.00513929 -0.00222325 0)
(-0.00396197 -0.00198594 0)
(-0.00290046 -0.00173427 0)
(-0.00196131 -0.00146934 0)
(-0.00115029 -0.0011905 0)
(-0.000473508 -0.000897325 0)
(6.24215e-05 -0.000587905 0)
(0.000450248 -0.000263181 0)
(0.00068145 7.04026e-05 0)
(0.000747469 0.00039009 0)
(0.000642809 0.000644305 0)
(0.000382047 0.000722258 0)
(6.64002e-05 0.000437449 0)
(9.54036e-06 -0.000216481 0)
(-0.000205461 9.7627e-05 0)
(-0.000693981 0.000716375 0)
(-0.00137599 0.00132853 0)
(-0.00220906 0.00183921 0)
(-0.00316159 0.00223577 0)
(-0.00420881 0.00253259 0)
(-0.00533181 0.00275013 0)
(-0.00651509 0.00290763 0)
(-0.00774565 0.00302084 0)
(-0.00901293 0.00310194 0)
(-0.0103085 0.00316003 0)
(-0.0116259 0.00320181 0)
(-0.01296 0.00323213 0)
(-0.0143069 0.00325455 0)
(-0.0156636 0.00327162 0)
(-0.0170275 0.00328517 0)
(-0.0183966 0.0032964 0)
(-0.0197689 0.00330605 0)
(-0.0211426 0.00331444 0)
(-0.0225156 0.00332146 0)
(-0.0238854 0.00332663 0)
(-0.0252491 0.00332903 0)
(-0.0266033 0.00332733 0)
(-0.0279437 0.00331979 0)
(-0.029265 0.00330427 0)
(-0.0305612 0.00327824 0)
(-0.0318253 0.00323884 0)
(-0.0330492 0.00318307 0)
(-0.0342243 0.00310788 0)
(-0.035341 0.00301035 0)
(-0.0363896 0.00288786 0)
(-0.0373603 0.00273828 0)
(-0.0382433 0.00256007 0)
(-0.0390293 0.0023524 0)
(-0.0397098 0.00211522 0)
(-0.0402772 0.00184922 0)
(-0.0407247 0.0015558 0)
(-0.0410469 0.00123695 0)
(-0.0412392 0.000895199 0)
(-0.0412981 0.000533476 0)
(-0.0412211 0.000154964 0)
(-0.0410072 -0.000237106 0)
(-0.0406551 -0.000639102 0)
(-0.0401644 -0.00104732 0)
(-0.039536 -0.00145861 0)
(-0.0387721 -0.0018688 0)
(-0.0378754 -0.00227356 0)
(-0.0368495 -0.00266853 0)
(-0.0356991 -0.00304906 0)
(-0.0344304 -0.00341062 0)
(-0.0330505 -0.00374933 0)
(-0.0315677 -0.00405993 0)
(-0.0299927 -0.00433609 0)
(-0.0283371 -0.00457371 0)
(-0.026614 -0.00476923 0)
(-0.0248376 -0.00491938 0)
(-0.0230229 -0.00502152 0)
(-0.0211859 -0.00507384 0)
(-0.0193429 -0.00507545 0)
(-0.0175104 -0.00502649 0)
(-0.0157048 -0.00492815 0)
(-0.0139419 -0.00478259 0)
(-0.0122366 -0.00459292 0)
(-0.0106026 -0.00436298 0)
(-0.00905236 -0.00409711 0)
(-0.00759668 -0.00379978 0)
(-0.00624477 -0.00347532 0)
(-0.00500421 -0.00312751 0)
(-0.00388108 -0.00275929 0)
(-0.00288027 -0.00237244 0)
(-0.0020055 -0.00196715 0)
(-0.00125981 -0.00154262 0)
(-0.0006459 -0.0010971 0)
(-0.000166191 -0.00063028 0)
(0.000174451 -0.000147053 0)
(0.000370072 0.00033285 0)
(0.000412781 0.000754074 0)
(0.000292287 0.000967334 0)
(6.04729e-05 0.000636709 0)
(-1.63184e-05 -6.24386e-05 0)
(-0.000424034 0.000558282 0)
(-0.00111739 0.00140446 0)
(-0.00195962 0.00216837 0)
(-0.00291813 0.00279264 0)
(-0.00396956 0.00328203 0)
(-0.00509742 0.0036563 0)
(-0.00629026 0.00393795 0)
(-0.007538 0.00414769 0)
(-0.00883124 0.00430287 0)
(-0.0101617 0.00441734 0)
(-0.0115222 0.00450178 0)
(-0.0129069 0.00456426 0)
(-0.0143108 0.00461077 0)
(-0.0157301 0.00464574 0)
(-0.0171613 0.00467237 0)
(-0.0186016 0.00469291 0)
(-0.0200482 0.00470879 0)
(-0.0214986 0.00472081 0)
(-0.0229502 0.00472915 0)
(-0.0244 0.00473343 0)
(-0.0258448 0.00473268 0)
(-0.0272805 0.00472537 0)
(-0.0287027 0.00470946 0)
(-0.0301059 0.00468233 0)
(-0.0314839 0.00464092 0)
(-0.0328294 0.00458179 0)
(-0.0341344 0.0045013 0)
(-0.0353903 0.00439567 0)
(-0.0365878 0.0042613 0)
(-0.0377174 0.00409493 0)
(-0.0387694 0.00389391 0)
(-0.0397344 0.00365631 0)
(-0.0406035 0.0033811 0)
(-0.0413685 0.00306819 0)
(-0.042022 0.0027184 0)
(-0.0425578 0.00233344 0)
(-0.0429705 0.0019157 0)
(-0.0432556 0.00146823 0)
(-0.0434096 0.000994478 0)
(-0.0434299 0.000498218 0)
(-0.0433146 -1.66074e-05 0)
(-0.0430626 -0.000545923 0)
(-0.0426729 -0.00108526 0)
(-0.0421453 -0.00163051 0)
(-0.0414807 -0.00217737 0)
(-0.0406804 -0.00272102 0)
(-0.0397468 -0.00325631 0)
(-0.0386828 -0.00377785 0)
(-0.0374926 -0.00427987 0)
(-0.0361816 -0.00475657 0)
(-0.0347563 -0.00520266 0)
(-0.0332253 -0.00561154 0)
(-0.0315983 -0.00597507 0)
(-0.0298868 -0.00628765 0)
(-0.0281044 -0.00654445 0)
(-0.0262655 -0.00674109 0)
(-0.0243859 -0.006874 0)
(-0.0224824 -0.00694067 0)
(-0.0205723 -0.00693983 0)
(-0.0186733 -0.00687162 0)
(-0.0168028 -0.00673757 0)
(-0.0149778 -0.0065406 0)
(-0.0132142 -0.00628491 0)
(-0.0115264 -0.0059757 0)
(-0.00992737 -0.00561889 0)
(-0.00842803 -0.00522071 0)
(-0.00703735 -0.00478727 0)
(-0.00576227 -0.00432413 0)
(-0.00460774 -0.00383584 0)
(-0.00357688 -0.00332561 0)
(-0.00267113 -0.00279496 0)
(-0.0018905 -0.0022439 0)
(-0.00123389 -0.00167127 0)
(-0.000699631 -0.00107645 0)
(-0.000287073 -0.000463193 0)
(2.04582e-06 0.000153858 0)
(0.000161443 0.000724588 0)
(0.000175488 0.00108615 0)
(4.9358e-05 0.000776955 0)
(-3.98965e-05 0.000205766 0)
(-0.000614865 0.0012014 0)
(-0.00147472 0.00225673 0)
(-0.00244521 0.00313875 0)
(-0.00350557 0.00384839 0)
(-0.00463688 0.00440983 0)
(-0.00582788 0.00484761 0)
(-0.00707252 0.00518492 0)
(-0.00836517 0.00544252 0)
(-0.00969975 0.00563812 0)
(-0.0110703 0.00578623 0)
(-0.0124711 0.00589837 0)
(-0.0138973 0.00598346 0)
(-0.0153445 0.00604826 0)
(-0.0168087 0.00609784 0)
(-0.0182866 0.00613584 0)
(-0.019775 0.00616476 0)
(-0.0212709 0.00618618 0)
(-0.0227713 0.00620082 0)
(-0.0242729 0.00620865 0)
(-0.0257722 0.00620892 0)
(-0.0272652 0.00620014 0)
(-0.0287472 0.00618013 0)
(-0.0302129 0.00614606 0)
(-0.0316559 0.00609451 0)
(-0.0330694 0.00602155 0)
(-0.0344455 0.00592292 0)
(-0.0357758 0.00579427 0)
(-0.0370511 0.00563134 0)
(-0.0382622 0.00543023 0)
(-0.0393996 0.00518762 0)
(-0.0404541 0.00490108 0)
(-0.041417 0.00456919 0)
(-0.0422802 0.00419162 0)
(-0.0430365 0.00376912 0)
(-0.0436795 0.00330346 0)
(-0.0442038 0.00279727 0)
(-0.0446048 0.00225389 0)
(-0.0448788 0.0016772 0)
(-0.0450229 0.00107142 0)
(-0.0450345 0.000440973 0)
(-0.0449119 -0.000209591 0)
(-0.0446537 -0.000875576 0)
(-0.0442587 -0.00155221 0)
(-0.0437264 -0.0022347 0)
(-0.0430568 -0.00291802 0)
(-0.0422505 -0.00359668 0)
(-0.0413087 -0.00426476 0)
(-0.0402334 -0.00491589 0)
(-0.0390278 -0.00554321 0)
(-0.0376963 -0.00613957 0)
(-0.0362444 -0.00669809 0)
(-0.0346801 -0.00721049 0)
(-0.0330129 -0.00766711 0)
(-0.0312537 -0.00806019 0)
(-0.0294165 -0.0083833 0)
(-0.0275165 -0.0086307 0)
(-0.0255705 -0.00879763 0)
(-0.0235966 -0.00888068 0)
(-0.0216137 -0.00887802 0)
(-0.0196413 -0.00878967 0)
(-0.0176987 -0.00861753 0)
(-0.0158046 -0.00836538 0)
(-0.0139767 -0.00803871 0)
(-0.0122307 -0.00764438 0)
(-0.0105805 -0.00719029 0)
(-0.0090375 -0.00668482 0)
(-0.00761065 -0.00613632 0)
(-0.00630627 -0.00555262 0)
(-0.00512817 -0.00494047 0)
(-0.0040777 -0.00430509 0)
(-0.00315398 -0.00364988 0)
(-0.00235411 -0.00297638 0)
(-0.00167351 -0.00228461 0)
(-0.00110654 -0.00157427 0)
(-0.000647996 -0.000847454 0)
(-0.000295462 -0.000114874 0)
(-5.15163e-05 0.000583339 0)
(7.00966e-05 0.00108824 0)
(3.90917e-05 0.000856056 0)
(-6.10442e-05 0.000570841 0)
(-0.000773055 0.00199336 0)
(-0.00176403 0.00324033 0)
(-0.00283795 0.00421464 0)
(-0.0039834 0.00498736 0)
(-0.00518283 0.0056031 0)
(-0.00642776 0.00609112 0)
(-0.0077157 0.00647496 0)
(-0.00904431 0.00677476 0)
(-0.0104103 0.00700779 0)
(-0.0118098 0.00718847 0)
(-0.0132387 0.00732849 0)
(-0.0146931 0.00743714 0)
(-0.0161692 0.00752159 0)
(-0.0176635 0.00758723 0)
(-0.0191728 0.00763797 0)
(-0.0206937 0.00767647 0)
(-0.0222232 0.00770428 0)
(-0.023758 0.00772199 0)
(-0.0252943 0.00772926 0)
(-0.0268284 0.00772487 0)
(-0.0283555 0.00770678 0)
(-0.0298705 0.00767213 0)
(-0.0313675 0.00761732 0)
(-0.0328397 0.00753812 0)
(-0.0342797 0.00742986 0)
(-0.0356792 0.00728759 0)
(-0.0370296 0.00710642 0)
(-0.0383217 0.00688174 0)
(-0.0395462 0.00660958 0)
(-0.0406943 0.00628682 0)
(-0.0417571 0.00591147 0)
(-0.0427266 0.00548275 0)
(-0.0435955 0.00500109 0)
(-0.0443574 0.00446812 0)
(-0.0450067 0.0038865 0)
(-0.0455385 0.0032597 0)
(-0.0459488 0.00259185 0)
(-0.0462344 0.00188749 0)
(-0.0463923 0.00115141 0)
(-0.0464201 0.000388527 0)
(-0.0463158 -0.000396211 0)
(-0.0460774 -0.00119779 0)
(-0.0457034 -0.00201116 0)
(-0.0451924 -0.00283109 0)
(-0.0445431 -0.00365205 0)
(-0.043755 -0.00446803 0)
(-0.0428277 -0.0052724 0)
(-0.0417619 -0.00605787 0)
(-0.0405591 -0.00681643 0)
(-0.0392223 -0.00753948 0)
(-0.0377555 -0.00821846 0)
(-0.0361657 -0.00884302 0)
(-0.034462 -0.00940187 0)
(-0.0326544 -0.00988452 0)
(-0.0307572 -0.0102825 0)
(-0.0287866 -0.0105881 0)
(-0.026761 -0.0107952 0)
(-0.0247001 -0.0108989 0)
(-0.0226252 -0.0108968 0)
(-0.0205585 -0.0107884 0)
(-0.0185221 -0.010576 0)
(-0.0165375 -0.0102645 0)
(-0.0146249 -0.00986068 0)
(-0.0128023 -0.00937368 0)
(-0.011085 -0.00881379 0)
(-0.00948556 -0.00819212 0)
(-0.00801308 -0.00751992 0)
(-0.00667347 -0.00680785 0)
(-0.0054694 -0.00606547 0)
(-0.00440044 -0.00530063 0)
(-0.00346338 -0.00451915 0)
(-0.00265243 -0.00372465 0)
(-0.00195973 -0.00291876 0)
(-0.00137594 -0.00210186 0)
(-0.000891858 -0.00127494 0)
(-0.000501243 -0.00044419 0)
(-0.000203284 0.00036226 0)
(-7.71745e-06 0.00100074 0)
(3.2214e-05 0.000885885 0)
(-7.83729e-05 0.00101355 0)
(-0.000899496 0.00290262 0)
(-0.00199298 0.00432847 0)
(-0.00315048 0.00537726 0)
(-0.00436743 0.00619685 0)
(-0.00562576 0.00685285 0)
(-0.00691818 0.0073797 0)
(-0.00824431 0.00780139 0)
(-0.00960409 0.00813731 0)
(-0.0109963 0.00840388 0)
(-0.012419 0.00861498 0)
(-0.0138693 0.00878205 0)
(-0.0153446 0.00891432 0)
(-0.0168418 0.00901904 0)
(-0.0183577 0.00910171 0)
(-0.0198896 0.0091663 0)
(-0.0214342 0.00921545 0)
(-0.0229883 0.0092506 0)
(-0.0245486 0.00927207 0)
(-0.0261112 0.00927916 0)
(-0.0276718 0.00927014 0)
(-0.0292256 0.00924234 0)
(-0.030767 0.00919218 0)
(-0.0322897 0.00911531 0)
(-0.0337865 0.00900675 0)
(-0.0352498 0.00886111 0)
(-0.0366711 0.0086729 0)
(-0.0380417 0.00843682 0)
(-0.0393525 0.00814815 0)
(-0.0405947 0.00780302 0)
(-0.0417596 0.00739869 0)
(-0.0428392 0.00693372 0)
(-0.0438261 0.00640805 0)
(-0.0447136 0.00582292 0)
(-0.045496 0.00518079 0)
(-0.0461683 0.0044851 0)
(-0.0467261 0.00374007 0)
(-0.0471658 0.00295045 0)
(-0.0474843 0.0021213 0)
(-0.0476787 0.00125779 0)
(-0.0477465 0.000365116 0)
(-0.0476852 -0.000551591 0)
(-0.0474924 -0.00148722 0)
(-0.0471655 -0.0024366 0)
(-0.046702 -0.00339439 0)
(-0.0460992 -0.00435481 0)
(-0.0453548 -0.00531151 0)
(-0.0444664 -0.0062573 0)
(-0.0434325 -0.00718405 0)
(-0.0422524 -0.00808259 0)
(-0.040927 -0.00894279 0)
(-0.0394582 -0.00975409 0)
(-0.0378508 -0.0105039 0)
(-0.0361133 -0.0111788 0)
(-0.0342545 -0.0117651 0)
(-0.0322883 -0.0122513 0)
(-0.0302326 -0.0126274 0)
(-0.0281071 -0.0128849 0)
(-0.0259341 -0.0130173 0)
(-0.0237381 -0.0130206 0)
(-0.021545 -0.012894 0)
(-0.019381 -0.0126398 0)
(-0.0172719 -0.012264 0)
(-0.0152416 -0.0117754 0)
(-0.0133116 -0.0111857 0)
(-0.0114999 -0.0105084 0)
(-0.00982046 -0.0097581 0)
(-0.00828335 -0.00894966 0)
(-0.00689417 -0.00809744 0)
(-0.00565448 -0.0072145 0)
(-0.00456203 -0.00631195 0)
(-0.00361112 -0.00539856 0)
(-0.00279306 -0.00448047 0)
(-0.00209673 -0.00356124 0)
(-0.0015093 -0.00264224 0)
(-0.00101787 -0.00172361 0)
(-0.000612603 -0.000806924 0)
(-0.000289263 9.25844e-05 0)
(-5.32615e-05 0.000856647 0)
(2.87374e-05 0.000883534 0)
(-9.19472e-05 0.00151881 0)
(-0.000998507 0.00390337 0)
(-0.00217149 0.00549951 0)
(-0.0033962 0.00661122 0)
(-0.00467293 0.00746643 0)
(-0.00598199 0.00815214 0)
(-0.00731635 0.00870852 0)
(-0.0086767 0.00916042 0)
(-0.0100644 0.00952663 0)
(-0.0114798 0.00982265 0)
(-0.0129223 0.0100615 0)
(-0.0143906 0.0102542 0)
(-0.0158826 0.0104096 0)
(-0.0173963 0.0105348 0)
(-0.0189291 0.0106351 0)
(-0.0204784 0.0107144 0)
(-0.0220415 0.0107753 0)
(-0.0236152 0.0108187 0)
(-0.025196 0.0108449 0)
(-0.0267802 0.0108525 0)
(-0.0283632 0.0108394 0)
(-0.02994 0.010802 0)
(-0.0315048 0.0107363 0)
(-0.0330511 0.010637 0)
(-0.0345714 0.0104984 0)
(-0.0360581 0.0103146 0)
(-0.0375025 0.0100796 0)
(-0.0388961 0.00978799 0)
(-0.0402302 0.00943495 0)
(-0.0414962 0.0090169 0)
(-0.0426862 0.00853159 0)
(-0.0437925 0.00797822 0)
(-0.0448086 0.00735745 0)
(-0.0457284 0.00667134 0)
(-0.0465467 0.00592311 0)
(-0.0472591 0.00511693 0)
(-0.0478618 0.00425763 0)
(-0.0483514 0.00335046 0)
(-0.0487252 0.00240083 0)
(-0.0489801 0.00141411 0)
(-0.0491137 0.000395571 0)
(-0.0491229 -0.000649735 0)
(-0.0490047 -0.00171687 0)
(-0.0487554 -0.00280088 0)
(-0.048371 -0.00389662 0)
(-0.047847 -0.00499844 0)
(-0.0471786 -0.00609995 0)
(-0.0463608 -0.00719365 0)
(-0.0453891 -0.00827078 0)
(-0.0442595 -0.00932106 0)
(-0.0429697 -0.0103327 0)
(-0.0415186 -0.0112929 0)
(-0.0399077 -0.0121866 0)
(-0.0381433 -0.0129974 0)
(-0.0362331 -0.0137083 0)
(-0.0341895 -0.0143031 0)
(-0.0320315 -0.0147684 0)
(-0.0297809 -0.0150928 0)
(-0.027463 -0.0152673 0)
(-0.0251065 -0.0152855 0)
(-0.0227425 -0.0151453 0)
(-0.0204032 -0.0148492 0)
(-0.0181204 -0.0144041 0)
(-0.0159241 -0.0138214 0)
(-0.0138409 -0.013116 0)
(-0.011893 -0.0123056 0)
(-0.0100974 -0.0114093 0)
(-0.00846549 -0.0104469 0)
(-0.00700299 -0.00943732 0)
(-0.00571035 -0.00839815 0)
(-0.00458326 -0.00734444 0)
(-0.00361326 -0.00628845 0)
(-0.00278845 -0.0052392 0)
(-0.00209427 -0.00420245 0)
(-0.00151435 -0.00318064 0)
(-0.00103217 -0.0021732 0)
(-0.000634244 -0.00117723 0)
(-0.00031268 -0.000194891 0)
(-6.80646e-05 0.00068659 0)
(2.81679e-05 0.000865592 0)
(-0.000102303 0.00207303 0)
(-0.00107476 0.00497453 0)
(-0.00230888 0.00673578 0)
(-0.00358719 0.0079034 0)
(-0.00491333 0.00878672 0)
(-0.00626558 0.00949447 0)
(-0.00763661 0.0100731 0)
(-0.0090275 0.0105489 0)
(-0.0104404 0.0109402 0)
(-0.0118768 0.0112617 0)
(-0.0133371 0.0115257 0)
(-0.0148209 0.0117423 0)
(-0.0163274 0.0119201 0)
(-0.017855 0.0120656 0)
(-0.0194019 0.0121839 0)
(-0.0209659 0.0122787 0)
(-0.0225446 0.0123522 0)
(-0.024135 0.0124051 0)
(-0.0257338 0.0124371 0)
(-0.0273372 0.0124464 0)
(-0.0289407 0.01243 0)
(-0.0305391 0.012384 0)
(-0.0321265 0.0123033 0)
(-0.0336963 0.012182 0)
(-0.035241 0.0120138 0)
(-0.0367528 0.0117922 0)
(-0.0382235 0.011511 0)
(-0.0396446 0.0111646 0)
(-0.0410079 0.0107484 0)
(-0.0423053 0.0102591 0)
(-0.0435294 0.00969515 0)
(-0.0446735 0.00905633 0)
(-0.0457314 0.0083441 0)
(-0.0466979 0.00756127 0)
(-0.0475686 0.00671181 0)
(-0.0483396 0.00580052 0)
(-0.0490077 0.00483279 0)
(-0.0495701 0.00381422 0)
(-0.0500242 0.00275043 0)
(-0.0503675 0.00164682 0)
(-0.0505973 0.000508476 0)
(-0.0507105 -0.000659917 0)
(-0.0507031 -0.00185401 0)
(-0.0505704 -0.00306947 0)
(-0.0503065 -0.00430182 0)
(-0.0499048 -0.00554609 0)
(-0.0493572 -0.00679631 0)
(-0.0486554 -0.00804516 0)
(-0.0477903 -0.00928355 0)
(-0.0467536 -0.0105003 0)
(-0.0455379 -0.011682 0)
(-0.0441378 -0.0128133 0)
(-0.0425497 -0.0138764 0)
(-0.0407756 -0.0148514 0)
(-0.0388216 -0.0157168 0)
(-0.0366968 -0.0164502 0)
(-0.0344203 -0.0170335 0)
(-0.0320162 -0.0174511 0)
(-0.0295132 -0.0176896 0)
(-0.0269451 -0.0177393 0)
(-0.0243502 -0.0175957 0)
(-0.0217692 -0.0172606 0)
(-0.0192429 -0.0167421 0)
(-0.0168103 -0.0160543 0)
(-0.0145064 -0.0152165 0)
(-0.01236 -0.0142518 0)
(-0.0103932 -0.0131857 0)
(-0.00862011 -0.0120443 0)
(-0.00704711 -0.0108528 0)
(-0.00567348 -0.00963447 0)
(-0.00449237 -0.00840925 0)
(-0.00349185 -0.00719349 0)
(-0.00265611 -0.00599945 0)
(-0.00196652 -0.00483514 0)
(-0.00140273 -0.00370414 0)
(-0.000944347 -0.00260516 0)
(-0.000573801 -0.00153106 0)
(-0.000279017 -0.000471452 0)
(-5.50095e-05 0.000518885 0)
(3.0411e-05 0.000847906 0)
(-0.000109987 0.00266486 0)
(-0.00113247 0.00609918 0)
(-0.00241304 0.0080229 0)
(-0.00373353 0.00924251 0)
(-0.00509991 0.0101492 0)
(-0.00648835 0.0108737 0)
(-0.00789095 0.0114691 0)
(-0.00930871 0.0119636 0)
(-0.0107442 0.0123756 0)
(-0.0121995 0.0127191 0)
(-0.0136759 0.0130056 0)
(-0.0151739 0.0132445 0)
(-0.0166933 0.0134437 0)
(-0.0182333 0.0136094 0)
(-0.0197928 0.0137461 0)
(-0.0213699 0.0138572 0)
(-0.0229627 0.0139444 0)
(-0.0245685 0.014008 0)
(-0.0261841 0.0140472 0)
(-0.0278058 0.0140595 0)
(-0.0294292 0.0140413 0)
(-0.0310491 0.0139879 0)
(-0.0326596 0.0138935 0)
(-0.034254 0.0137515 0)
(-0.0358252 0.013555 0)
(-0.0373652 0.0132972 0)
(-0.0388663 0.0129715 0)
(-0.0403203 0.0125724 0)
(-0.0417196 0.0120957 0)
(-0.0430568 0.0115385 0)
(-0.0443252 0.0108999 0)
(-0.0455188 0.0101803 0)
(-0.0466323 0.00938211 0)
(-0.0476615 0.00850879 0)
(-0.0486025 0.00756505 0)
(-0.0494527 0.00655632 0)
(-0.0502094 0.00548844 0)
(-0.050871 0.00436735 0)
(-0.0514354 0.00319873 0)
(-0.0519009 0.0019878 0)
(-0.052265 0.000739185 0)
(-0.0525247 -0.000543156 0)
(-0.0526756 -0.00185604 0)
(-0.0527116 -0.00319628 0)
(-0.0526251 -0.00456082 0)
(-0.0524062 -0.0059461 0)
(-0.0520434 -0.00734739 0)
(-0.0515232 -0.00875825 0)
(-0.050831 -0.0101699 0)
(-0.0499517 -0.0115707 0)
(-0.0488709 -0.0129458 0)
(-0.0475766 -0.0142773 0)
(-0.0460579 -0.0155441 0)
(-0.0443094 -0.0167222 0)
(-0.0423334 -0.017784 0)
(-0.0401352 -0.0187002 0)
(-0.0377301 -0.0194448 0)
(-0.0351446 -0.0199962 0)
(-0.0324105 -0.0203348 0)
(-0.0295678 -0.020445 0)
(-0.0266639 -0.0203181 0)
(-0.0237507 -0.0199536 0)
(-0.0208824 -0.0193605 0)
(-0.0181117 -0.0185559 0)
(-0.0154865 -0.0175647 0)
(-0.0130473 -0.0164175 0)
(-0.0108248 -0.0151484 0)
(-0.00883841 -0.0137925 0)
(-0.00709635 -0.0123837 0)
(-0.00559679 -0.0109528 0)
(-0.00432941 -0.00952601 0)
(-0.00327746 -0.00812464 0)
(-0.00241971 -0.0067644 0)
(-0.00173212 -0.00545554 0)
(-0.00118927 -0.00420256 0)
(-0.000766058 -0.00300336 0)
(-0.000440074 -0.00184683 0)
(-0.000194009 -0.000711131 0)
(-1.69279e-05 0.000379322 0)
(3.5035e-05 0.000844531 0)
(-0.000115506 0.003285 0)
(-0.00117521 0.00726374 0)
(-0.00249031 0.009349 0)
(-0.00384339 0.0106188 0)
(-0.0052419 0.0115462 0)
(-0.00666007 0.0122838 0)
(-0.00808929 0.0128921 0)
(-0.00953026 0.0134015 0)
(-0.0109857 0.0138306 0)
(-0.0124579 0.0141932 0)
(-0.0139489 0.0144999 0)
(-0.0154598 0.0147596 0)
(-0.016991 0.0149795 0)
(-0.0185425 0.0151651 0)
(-0.0201136 0.0153206 0)
(-0.0217031 0.0154487 0)
(-0.0233093 0.0155508 0)
(-0.0249298 0.0156265 0)
(-0.0265618 0.0156745 0)
(-0.0282018 0.0156915 0)
(-0.0298453 0.0156734 0)
(-0.0314874 0.0156144 0)
(-0.0331222 0.0155082 0)
(-0.0347433 0.0153475 0)
(-0.0363435 0.015125 0)
(-0.0379155 0.0148334 0)
(-0.0394517 0.0144662 0)
(-0.0409448 0.014018 0)
(-0.0423877 0.0134849 0)
(-0.0437738 0.0128648 0)
(-0.0450973 0.0121572 0)
(-0.0463533 0.0113636 0)
(-0.0475376 0.0104869 0)
(-0.0486468 0.0095317 0)
(-0.0496786 0.00850326 0)
(-0.0506315 0.00740774 0)
(-0.0515043 0.00625146 0)
(-0.0522967 0.00504061 0)
(-0.0530082 0.00378088 0)
(-0.0536382 0.00247711 0)
(-0.0541854 0.00113306 0)
(-0.0546475 -0.000248577 0)
(-0.0550197 -0.00166591 0)
(-0.055295 -0.00311838 0)
(-0.0554634 -0.00460524 0)
(-0.0555117 -0.00612541 0)
(-0.0554232 -0.0076766 0)
(-0.0551781 -0.00925439 0)
(-0.0547539 -0.0108513 0)
(-0.0541265 -0.0124561 0)
(-0.0532717 -0.0140531 0)
(-0.0521672 -0.0156216 0)
(-0.050793 -0.0171369 0)
(-0.0491319 -0.0185702 0)
(-0.0471787 -0.0198868 0)
(-0.0449343 -0.0210483 0)
(-0.0424058 -0.0220178 0)
(-0.0396191 -0.0227652 0)
(-0.0366092 -0.0232613 0)
(-0.0334214 -0.0234812 0)
(-0.0301134 -0.0234084 0)
(-0.0267516 -0.0230379 0)
(-0.0234078 -0.0223773 0)
(-0.0201548 -0.0214467 0)
(-0.0170612 -0.0202777 0)
(-0.0141867 -0.0189108 0)
(-0.0115776 -0.0173925 0)
(-0.00926399 -0.0157712 0)
(-0.00725906 -0.0140934 0)
(-0.00556045 -0.0124007 0)
(-0.0041532 -0.0107281 0)
(-0.00301336 -0.00910285 0)
(-0.00211145 -0.0075445 0)
(-0.00141535 -0.00606523 0)
(-0.000892395 -0.00466992 0)
(-0.000511077 -0.00335528 0)
(-0.000242804 -0.00210636 0)
(-6.35781e-05 -0.000891359 0)
(4.37627e-05 0.000290753 0)
(4.14864e-05 0.000868266 0)
(-0.000119343 0.00392594 0)
(-0.00120584 0.00845722 0)
(-0.00254571 0.0107043 0)
(-0.00392323 0.012024 0)
(-0.00534672 0.0129708 0)
(-0.00678868 0.0137195 0)
(-0.00823978 0.014338 0)
(-0.00970028 0.0148593 0)
(-0.0111728 0.0153029 0)
(-0.0126599 0.0156821 0)
(-0.014164 0.0160073 0)
(-0.0156865 0.0162866 0)
(-0.0172287 0.0165264 0)
(-0.018791 0.016732 0)
(-0.0203731 0.0169067 0)
(-0.0219744 0.0170528 0)
(-0.0235936 0.0171711 0)
(-0.0252288 0.0172606 0)
(-0.0268772 0.0173191 0)
(-0.0285357 0.0173429 0)
(-0.0302 0.0173269 0)
(-0.0318654 0.0172648 0)
(-0.0335261 0.0171493 0)
(-0.035176 0.0169727 0)
(-0.0368084 0.0167272 0)
(-0.0384164 0.0164054 0)
(-0.0399931 0.0160008 0)
(-0.0415318 0.0155084 0)
(-0.0430263 0.0149248 0)
(-0.0444713 0.0142483 0)
(-0.0458618 0.0134795 0)
(-0.0471943 0.0126207 0)
(-0.048466 0.0116758 0)
(-0.0496751 0.0106501 0)
(-0.0508211 0.00955 0)
(-0.0519042 0.00838234 0)
(-0.0529259 0.00715408 0)
(-0.0538878 0.00587175 0)
(-0.0547921 0.00454097 0)
(-0.0556405 0.00316601 0)
(-0.0564339 0.00174945 0)
(-0.0571706 0.000292042 0)
(-0.057847 -0.00120695 0)
(-0.0584552 -0.00275035 0)
(-0.0589823 -0.00434137 0)
(-0.0594106 -0.00598302 0)
(-0.0597167 -0.00767717 0)
(-0.0598722 -0.00942315 0)
(-0.0598442 -0.0112163 0)
(-0.0595966 -0.0130468 0)
(-0.0590922 -0.014899 0)
(-0.0582944 -0.01675 0)
(-0.0571711 -0.0185705 0)
(-0.0556916 -0.0203268 0)
(-0.0538352 -0.0219757 0)
(-0.0515984 -0.0234666 0)
(-0.0489781 -0.0247508 0)
(-0.0459915 -0.0257847 0)
(-0.0426758 -0.0265258 0)
(-0.0390797 -0.0269347 0)
(-0.0352694 -0.0269824 0)
(-0.0313265 -0.0266544 0)
(-0.027344 -0.0259529 0)
(-0.0234209 -0.0248984 0)
(-0.0196559 -0.0235288 0)
(-0.0161394 -0.0218974 0)
(-0.0129457 -0.0200677 0)
(-0.0101265 -0.0181081 0)
(-0.00770769 -0.016085 0)
(-0.00568997 -0.014057 0)
(-0.00405323 -0.012072 0)
(-0.00276285 -0.0101656 0)
(-0.00177631 -0.00836188 0)
(-0.00104855 -0.00667416 0)
(-0.000535494 -0.00510657 0)
(-0.000196099 -0.00365349 0)
(6.72435e-06 -0.00229594 0)
(0.000105634 -0.000993708 0)
(0.000125032 0.000273408 0)
(5.02983e-05 0.000930402 0)
(-0.000121915 0.00458146 0)
(-0.00122662 0.00967072 0)
(-0.00258309 0.0120805 0)
(-0.00397811 0.0134507 0)
(-0.00542026 0.0144167 0)
(-0.00688057 0.0151754 0)
(-0.00834903 0.0158025 0)
(-0.00982543 0.0163338 0)
(-0.0113122 0.0167899 0)
(-0.012812 0.0171841 0)
(-0.0143274 0.0175264 0)
(-0.0158604 0.0178243 0)
(-0.0174126 0.0180838 0)
(-0.0189848 0.0183094 0)
(-0.0205774 0.018504 0)
(-0.0221902 0.0186692 0)
(-0.0238222 0.0188051 0)
(-0.0254719 0.0189102 0)
(-0.027137 0.0189814 0)
(-0.0288144 0.0190143 0)
(-0.0305003 0.019003 0)
(-0.0321901 0.0189405 0)
(-0.0338784 0.0188188 0)
(-0.0355596 0.0186298 0)
(-0.0372275 0.0183654 0)
(-0.0388758 0.018018 0)
(-0.0404984 0.0175816 0)
(-0.0420897 0.0170513 0)
(-0.0436447 0.0164245 0)
(-0.0451589 0.0157004 0)
(-0.0466294 0.0148804 0)
(-0.0480539 0.0139679 0)
(-0.0494316 0.0129679 0)
(-0.0507631 0.011887 0)
(-0.0520503 0.0107327 0)
(-0.0532965 0.00951296 0)
(-0.0545062 0.00823553 0)
(-0.0556851 0.0069075 0)
(-0.056839 0.00553447 0)
(-0.0579733 0.00411992 0)
(-0.0590921 0.0026647 0)
(-0.0601964 0.0011667 0)
(-0.061283 -0.000379263 0)
(-0.0623429 -0.00198034 0)
(-0.0633596 -0.00364636 0)
(-0.0643088 -0.00538671 0)
(-0.0651585 -0.00720975 0)
(-0.0658686 -0.00912079 0)
(-0.0663924 -0.0111197 0)
(-0.0666789 -0.0131998 0)
(-0.0666744 -0.015346 0)
(-0.0663257 -0.0175339 0)
(-0.0655838 -0.0197294 0)
(-0.0644052 -0.0218909 0)
(-0.0627497 -0.0239684 0)
(-0.0606014 -0.0258972 0)
(-0.0579529 -0.0276121 0)
(-0.0548029 -0.0290538 0)
(-0.0511852 -0.0301626 0)
(-0.0471491 -0.0308784 0)
(-0.0427644 -0.0311534 0)
(-0.0381238 -0.0309567 0)
(-0.0333395 -0.0302776 0)
(-0.0285391 -0.0291305 0)
(-0.0238582 -0.0275556 0)