/*--------------------------------*- C++ -*----------------------------------*\
  =========                 |
  \\      /  F ield         | OpenFOAM: The Open Source CFD Toolbox
   \\    /   O peration     | Website:  https://openfoam.org
    \\  /    A nd           | Version:  13
     \\/     M anipulation  |
\*---------------------------------------------------------------------------*/
FoamFile
{
    format      ascii;
    class       volScalarField;
    location    "2";
    object      epsilon;
}
// * * * * * * * * * * * * * * * * * * * * * * * * * * * * * * * * * * * * * //

dimensions      [0 2 -3 0 0 0 0];

internalField   nonuniform List<scalar> 
6400
(
1.06735e-05
5.31483e-05
0.000115944
0.000184597
0.000253215
0.000320906
0.000388842
0.000458351
0.000529528
0.00060306
0.000680053
0.000762305
0.00085237
0.000953532
0.00106963
0.00120476
0.00136284
0.00154703
0.0017594
0.00200064
0.00226973
0.00256399
0.0028795
0.0032119
0.00355744
0.00391414
0.00428244
0.00466506
0.00506633
0.00549182
0.0059471
0.00643162
0.00693798
0.00746868
0.00803217
0.00862696
0.00924805
0.009894
0.0105665
0.0112668
0.0120009
0.0127673
0.0135616
0.0143733
0.0151973
0.0160246
0.0168475
0.0176672
0.0185111
0.0194882
0.0205154
0.0214682
0.0223287
0.0230536
0.0235807
0.0239056
0.0240431
0.0239345
0.0234674
0.0226789
0.0215657
0.0201707
0.0184847
0.0165468
0.0144216
0.0121948
0.00995804
0.00782664
0.00590124
0.00426145
0.00299221
0.00202508
0.00132087
0.000836633
0.000520214
0.000320532
0.0001944
0.000110048
4.93622e-05
1.00383e-05
5.34024e-05
4.47553e-05
6.57769e-05
9.52502e-05
0.000127479
0.000161313
0.000196715
0.000233743
0.000272272
0.0003126
0.00035546
0.00040212
0.000454489
0.000515177
0.000587498
0.000675414
0.000783434
0.00091642
0.0010792
0.00127617
0.00151098
0.00178624
0.00210343
0.00246316
0.00286558
0.00331087
0.00379927
0.00433086
0.00490383
0.00551225
0.00614036
0.00678743
0.0074549
0.00811067
0.0087318
0.00931006
0.00984055
0.0103228
0.0107595
0.0111595
0.0115201
0.0118318
0.0120911
0.0123263
0.0125386
0.0127346
0.0129202
0.0131044
0.0132917
0.0134883
0.0136927
0.0138697
0.0140213
0.0141127
0.014148
0.0141144
0.0139853
0.013734
0.0133392
0.0127952
0.012096
0.0112378
0.0102456
0.00914523
0.00797058
0.00676405
0.00557456
0.00445195
0.00343856
0.00256665
0.00186493
0.00131253
0.000890288
0.000581503
0.000367417
0.000226285
0.000135885
7.80751e-05
4.48244e-05
5.11965e-05
0.000121993
7.30014e-05
7.83201e-05
9.79208e-05
0.000124435
0.000155286
0.000189595
0.000226945
0.000267298
0.000311167
0.000359678
0.000414798
0.000479456
0.000557415
0.000653274
0.000772366
0.000920607
0.00110451
0.00132987
0.00160137
0.00192224
0.00229351
0.00271371
0.00317882
0.00368252
0.00421661
0.00477133
0.00533524
0.005896
0.00644167
0.00696302
0.00743441
0.00783834
0.00820149
0.00853992
0.00882411
0.00905477
0.00925332
0.00942296
0.00957017
0.00970899
0.00985889
0.0100333
0.010219
0.0104232
0.0106479
0.0108953
0.0111667
0.0114609
0.0117682
0.0120807
0.0123847
0.0126687
0.0129165
0.0131157
0.0132272
0.0132644
0.0131945
0.0129835
0.0126172
0.012089
0.011402
0.0105548
0.00956712
0.00846776
0.00729836
0.00610873
0.00495167
0.00387718
0.00292679
0.00212977
0.00149234
0.00100976
0.000662185
0.000423194
0.000265261
0.000162899
9.8592e-05
7.07782e-05
0.000121421
0.000213702
0.000115992
0.000109444
0.000125861
0.000152479
0.000185436
0.00022354
0.000266312
0.000313941
0.000367449
0.000428875
0.000501255
0.000588638
0.000696094
0.000829532
0.000995407
0.00120023
0.00144972
0.00174868
0.00209983
0.00250275
0.00295326
0.00344315
0.00396049
0.0044905
0.00501693
0.00552362
0.0059961
0.00642313
0.00679765
0.00711682
0.00739201
0.00763063
0.00781277
0.00795705
0.00808744
0.00821674
0.00834336
0.00847654
0.00862296
0.00878965
0.0089814
0.00920058
0.00944653
0.00972161
0.0100258
0.0103587
0.0107183
0.011101
0.0115013
0.011913
0.0123276
0.0127353
0.013125
0.0134797
0.0137793
0.0139896
0.0140792
0.0140621
0.0138655
0.0134831
0.0129025
0.0121247
0.0111605
0.0100332
0.00878496
0.00746726
0.00614169
0.00487202
0.00371639
0.00272014
0.00190854
0.00128543
0.000836404
0.000531104
0.000332482
0.000207075
0.000131631
0.000106686
0.000203216
0.000328473
0.000168715
0.000149788
0.000164747
0.000193317
0.000230348
0.000274287
0.000324843
0.000382684
0.000449545
0.000528359
0.000623256
0.000739448
0.000883007
0.00106047
0.0012783
0.00154217
0.00185611
0.00222173
0.00263724
0.00309653
0.00358881
0.00409901
0.00460913
0.00510024
0.00555509
0.00596031
0.00630804
0.00659659
0.00683018
0.00703023
0.00718178
0.00729693
0.007404
0.00750288
0.00760682
0.00772124
0.00784946
0.00799674
0.00816627
0.00836077
0.0085818
0.00883041
0.00910717
0.00941277
0.00974711
0.0101098
0.0104997
0.0109151
0.0113527
0.0118082
0.0122755
0.0127459
0.0132085
0.0136508
0.0140565
0.0144072
0.0146882
0.014865
0.0149223
0.0148115
0.0144512
0.0138269
0.0129632
0.0118778
0.0106062
0.00919075
0.00769826
0.00620844
0.00480137
0.00354806
0.00249949
0.00167887
0.00108038
0.000673532
0.000413562
0.000255278
0.000165676
0.000142898
0.000282235
0.000466973
0.000229828
0.000197268
0.000210832
0.000241983
0.000283849
0.00033468
0.000394537
0.000464732
0.000547844
0.00064778
0.00076967
0.000919562
0.00110394
0.00132904
0.0016001
0.00192048
0.00229083
0.00270819
0.0031653
0.00365021
0.00414665
0.00463552
0.00509722
0.00551457
0.00587545
0.00617435
0.00641245
0.00659731
0.00675083
0.00685873
0.00694822
0.00702688
0.00710633
0.00719053
0.00728584
0.0073951
0.00752069
0.00766483
0.00782894
0.00801421
0.00822147
0.00845161
0.00870555
0.00898425
0.00928856
0.0096194
0.00997777
0.0103643
0.0107789
0.0112212
0.0116894
0.0121802
0.0126881
0.0132048
0.0137177
0.0142093
0.0146548
0.0150187
0.0152756
0.0153939
0.0154175
0.0151965
0.0146437
0.0137415
0.0125844
0.0111772
0.00958542
0.00790239
0.00623067
0.00467489
0.00332426
0.00223601
0.00142627
0.000871408
0.00052003
0.000312472
0.000201258
0.00017727
0.000351665
0.000631751
0.000299715
0.000251173
0.000262968
0.000297009
0.000344363
0.000403122
0.000473811
0.000558492
0.000660643
0.000785085
0.000937681
0.00112478
0.00135244
0.00162554
0.00194685
0.00231625
0.00273002
0.00318022
0.00365454
0.00413662
0.00460744
0.0050476
0.00544026
0.00577387
0.00604384
0.0062527
0.00640882
0.00653438
0.00661755
0.0066833
0.00673959
0.0067935
0.00685051
0.00691371
0.00698603
0.00706896
0.00716368
0.00727115
0.00739189
0.00752663
0.00767641
0.00784259
0.00802675
0.00823098
0.00845758
0.00870919
0.00898865
0.00929885
0.00964306
0.0100243
0.0104452
0.0109075
0.0114115
0.0119554
0.0125342
0.0131388
0.0137536
0.0143546
0.0149108
0.0153774
0.0156662
0.0157821
0.0157796
0.015393
0.0145524
0.0133223
0.0117658
0.00997872
0.00807565
0.00619656
0.00448158
0.00304177
0.00193627
0.001164
0.000673675
0.00038936
0.000242755
0.000210843
0.000412892
0.000819917
0.00037733
0.000310914
0.00032056
0.000357779
0.000411318
0.000479113
0.000562214
0.000663478
0.000787242
0.000939037
0.00112503
0.00135118
0.00162219
0.00194056
0.00230569
0.00271331
0.00315516
0.00361889
0.0040885
0.00454554
0.00497114
0.00534877
0.00566683
0.00592053
0.0061122
0.00625017
0.00635666
0.0064209
0.00646344
0.00649348
0.0065165
0.00653702
0.00655811
0.00658162
0.00660869
0.00664008
0.00667671
0.00671948
0.00676952
0.0068283
0.00689728
0.00697942
0.00707633
0.00719086
0.00732553
0.00748371
0.00766911
0.0078861
0.00813968
0.0084353
0.00877876
0.00917604
0.00963281
0.0101538
0.0107418
0.0113961
0.0121117
0.0128767
0.013671
0.0144594
0.015189
0.0157922
0.016145
0.0162862
0.0161446
0.0154105
0.0140985
0.0123826
0.0103604
0.00819477
0.00608152
0.0042062
0.00270014
0.00161249
0.000909646
0.000503301
0.000297803
0.000247139
0.000472782
0.00102923
0.000461983
0.000375948
0.000383131
0.000423882
0.000484374
0.000562367
0.000659452
0.000779253
0.00092682
0.00110807
0.00132891
0.00159415
0.00190631
0.00226471
0.00266487
0.00309834
0.00355285
0.00401278
0.0044603
0.00487713
0.00524688
0.00555759
0.00580357
0.00598601
0.00611196
0.00620465
0.00625129
0.00626705
0.00626821
0.00625768
0.00623711
0.00621043
0.00617959
0.00614606
0.0061113
0.00607726
0.00604601
0.0060197
0.00600062
0.00599115
0.005988
0.00600156
0.00603055
0.0060786
0.00614645
0.00623669
0.00635244
0.00649711
0.00667493
0.00689075
0.00715064
0.0074619
0.00783309
0.00827383
0.00879452
0.00940505
0.0101136
0.0109232
0.0118274
0.0128121
0.0138448
0.0148695
0.0157959
0.0164899
0.0168318
0.0169244
0.0163023
0.0149236
0.0130022
0.0106858
0.0082104
0.00584701
0.00383166
0.00230413
0.00128232
0.000682211
0.000378698
0.00029213
0.000542443
0.00125677
0.000552956
0.000445694
0.000450189
0.000494888
0.000563143
0.000652493
0.000765036
0.000905055
0.00107808
0.00128997
0.00154579
0.00184847
0.00219767
0.0025891
0.00301435
0.00346121
0.00391433
0.00435632
0.00476924
0.00513674
0.00544626
0.00569098
0.00587055
0.00599088
0.00606649
0.00609283
0.00609241
0.00606422
0.00601518
0.00595226
0.00587721
0.00579278
0.00570188
0.00560753
0.00551303
0.00542179
0.00533714
0.0052621
0.00519922
0.00515046
0.00511914
0.00510497
0.00510134
0.00512197
0.00516353
0.00522594
0.00531133
0.005421
0.00555759
0.00572407
0.00592456
0.00616425
0.00644996
0.00679062
0.00719784
0.00768624
0.00827296
0.00897923
0.00982187
0.0108116
0.0119455
0.0131984
0.0145176
0.0157974
0.0168777
0.0175042
0.0177545
0.0172571
0.0157648
0.0135647
0.010882
0.00805667
0.00545314
0.00335037
0.00187021
0.000969863
0.000505586
0.000355194
0.000636568
0.00150006
0.000649489
0.000519453
0.000521162
0.000570261
0.000647083
0.000748873
0.000878148
0.00103968
0.00123915
0.00148193
0.00177159
0.00210862
0.00248939
0.0029059
0.0033461
0.00379479
0.00423468
0.00464792
0.00501793
0.00533139
0.00558011
0.00576203
0.00588054
0.00594291
0.00595731
0.00593348
0.00587711
0.00579504
0.00569055
0.00556988
0.00543725
0.005297
0.00515403
0.00501339
0.00488005
0.00475825
0.00465137
0.00456193
0.0044915
0.00444075
0.00441209
0.00440044
0.00439964
0.00442642
0.00447092
0.00453408
0.00461647
0.00471853
0.00484155
0.00498713
0.00515756
0.00535589
0.00558628
0.00585435
0.00616776
0.00653729
0.00697832
0.00751198
0.00816625
0.00897541
0.00997837
0.011197
0.0126236
0.0142122
0.0158503
0.0173341
0.0182751
0.0186664
0.0182481
0.016561
0.0139816
0.010855
0.00766484
0.00487338
0.002775
0.0014298
0.000711025
0.000450817
0.000774044
0.00175539
0.000750785
0.000596412
0.000595419
0.000649333
0.000735452
0.000850613
0.000997612
0.00118148
0.0014077
0.00168064
0.00200192
0.00236913
0.00277518
0.00320854
0.00365411
0.00409453
0.00451168
0.00488842
0.00521045
0.00546805
0.00565731
0.00577762
0.00583314
0.00583896
0.00579575
0.00571374
0.00559955
0.00545972
0.00529922
0.00512514
0.0049444
0.00476394
0.00459049
0.00443007
0.00428754
0.00416606
0.00406736
0.00399202
0.00393952
0.00391222
0.00390194
0.00390266
0.00392791
0.00397053
0.00402871
0.00410263
0.00419227
0.00429793
0.00442041
0.00456075
0.00472042
0.00490128
0.00510573
0.00533687
0.00559887
0.00589757
0.0062414
0.00664259
0.00712083
0.0077059
0.00844463
0.00940224
0.0106384
0.0121794
0.014002
0.0159859
0.0178834
0.0191436
0.0196579
0.0192296
0.0172204
0.0141341
0.0105019
0.00698031
0.00411123
0.00214636
0.00104154
0.000600376
0.000979043
0.00201911
0.000855894
0.000675894
0.000672206
0.000731282
0.000827306
0.000956554
0.00112192
0.00132843
0.001581
0.00188255
0.00223233
0.00262483
0.00304956
0.00349183
0.00393415
0.00435789
0.00474502
0.00508001
0.00535148
0.00555368
0.00568
0.0057345
0.00573613
0.00568029
0.00557744
0.00543621
0.00526486
0.00507116
0.00486296
0.00464962
0.00444044
0.0042438
0.00406648
0.00391327
0.0037868
0.00368767
0.00361503
0.00356795
0.00354554
0.00353839
0.00354563
0.00357282
0.00361532
0.00367166
0.00374108
0.00382371
0.00391979
0.00402992
0.00415502
0.00429621
0.00445478
0.00463214
0.00482983
0.00504955
0.00529333
0.00556384
0.00586503
0.00620311
0.00658826
0.00703627
0.00756757
0.0082268
0.00910215
0.0103104
0.0119256
0.013948
0.0162654
0.0185842
0.0201196
0.0207134
0.0201252
0.0176122
0.0138845
0.00972837
0.00598695
0.00321693
0.00155571
0.000833847
0.0012792
0.00228755
0.000963824
0.000757146
0.000750662
0.000815157
0.000921523
0.00106531
0.0012493
0.00147823
0.00175608
0.00208399
0.00245857
0.00287113
0.00330801
0.00375188
0.00418352
0.00458382
0.00493566
0.00522576
0.00544615
0.00558602
0.00564521
0.00564779
0.00558641
0.00546959
0.00530762
0.00511062
0.00488871
0.00465242
0.0044127
0.00418078
0.0039666
0.00377761
0.0036183
0.00349036
0.00339321
0.00332455
0.00328313
0.00326441
0.0032593
0.00326894
0.00329556
0.0033354
0.00338682
0.00344942
0.00352319
0.00360863
0.00370649
0.00381783
0.00394393
0.00408624
0.00424626
0.00442553
0.00462547
0.0048473
0.00509202
0.00536048
0.00565364
0.00597326
0.00632302
0.00671067
0.00715067
0.007658
0.00827253
0.00907553
0.0102197
0.011883
0.0140878
0.0167473
0.019489
0.0211996
0.0217877
0.0208169
0.0175685
0.0130828
0.00848021
0.00473973
0.00232018
0.00118798
0.00170076
0.00255706
0.0010736
0.000839334
0.000829879
0.000899908
0.00101684
0.00117532
0.00137779
0.00162841
0.00192994
0.00228143
0.00267673
0.00310407
0.00354696
0.00398593
0.00440072
0.00477243
0.00508543
0.00532925
0.00549141
0.00556253
0.00557199
0.00551271
0.00538958
0.00521398
0.00499768
0.00475302
0.00449296
0.00423085
0.00397955
0.00375028
0.00355114
0.00338641
0.00325684
0.00316062
0.00309409
0.00305479
0.00303701
0.00303185
0.00303903
0.00306144
0.00309482
0.00313791
0.00319029
0.00325215
0.00332408
0.00340703
0.0035022
0.00361103
0.00373519
0.00387649
0.00403683
0.00421814
0.00442224
0.00465065
0.00490444
0.0051839
0.00548861
0.00581759
0.00617004
0.00654672
0.00695249
0.00740051
0.00790232
0.00849475
0.00926471
0.0103606
0.0120598
0.0144678
0.0174945
0.0206497
0.0223501
0.022823
0.0211133
0.0168671
0.0116108
0.00680186
0.00340476
0.00170229
0.00226024
0.00282411
0.00118423
0.000921605
0.000908919
0.000984426
0.00111192
0.00128493
0.00150535
0.00177649
0.00209963
0.00247158
0.00288338
0.00332041
0.00376371
0.00419226
0.00458532
0.0049247
0.00519634
0.00538939
0.00548165
0.00550492
0.00545596
0.00533502
0.00515357
0.00492473
0.00466275
0.00438287
0.00410073
0.00383124
0.00358701
0.00337684
0.00320503
0.00307162
0.00297367
0.00290623
0.00286512
0.00284566
0.00283888
0.00283962
0.00285469
0.0028792
0.00291157
0.00295164
0.00299964
0.00305627
0.00312249
0.00319956
0.00328895
0.00339237
0.00351172
0.00364914
0.00380691
0.00398747
0.00419321
0.00442639
0.00468882
0.00498158
0.00530454
0.00565601
0.00603278
0.00643088
0.00684749
0.00728414
0.0077525
0.00826167
0.00885284
0.0096127
0.010714
0.0124677
0.0151387
0.0186066
0.0220193
0.0235591
0.0237299
0.0207139
0.0152967
0.00945943
0.00488567
0.0024163
0.00295752
0.00308516
0.00129474
0.00100312
0.000986841
0.00106758
0.00120537
0.00139244
0.00162991
0.00192004
0.00226239
0.00265147
0.00307561
0.0035176
0.00395644
0.00437002
0.0047377
0.00504248
0.00527145
0.00539832
0.00544094
0.00541078
0.00530142
0.00512287
0.0048889
0.00461536
0.00431951
0.00401921
0.00373154
0.00347093
0.00324736
0.00306548
0.00292502
0.00282221
0.00275107
0.00270501
0.00268006
0.00266902
0.00266567
0.00266966
0.00268426
0.00270514
0.0027323
0.00276611
0.00280721
0.00285658
0.00291537
0.00298497
0.00306695
0.0031631
0.00327547
0.00340638
0.00355842
0.00373444
0.0039375
0.00417068
0.00443689
0.00473847
0.00507666
0.00545101
0.00585865
0.00629382
0.00674868
0.00721569
0.00769239
0.00818926
0.00871545
0.009314
0.0100868
0.0112282
0.0131125
0.0161175
0.0201107
0.0235921
0.0248892
0.0240711
0.0193048
0.0127213
0.00682269
0.00336194
0.00376851
0.00333666
0.00140417
0.00108308
0.00106272
0.00114825
0.00129583
0.00149621
0.00174952
0.00205678
0.00241575
0.00281858
0.00325111
0.0036938
0.00412405
0.00451908
0.00485878
0.00512809
0.00530262
0.00537138
0.00536866
0.00528187
0.00511622
0.00488574
0.00460732
0.00429991
0.00398349
0.00367745
0.00339844
0.00315822
0.00296252
0.00281124
0.0027001
0.00262231
0.00257029
0.00253745
0.00251918
0.00251048
0.00250737
0.00250943
0.00251934
0.00253418
0.00255458
0.00258117
0.00261483
0.00265662
0.00270773
0.00276952
0.00284354
0.00293156
0.00303563
0.00315814
0.00330183
0.00346988
0.00366585
0.00389361
0.00415719
0.00446038
0.00480629
0.00519654
0.00563034
0.00610345
0.00660713
0.00712842
0.00765358
0.00817454
0.00869395
0.00923932
0.00986345
0.0106722
0.0119082
0.014054
0.0175117
0.0220614
0.025174
0.0259843
0.023212
0.0165101
0.00926191
0.00455983
0.00465947
0.00357544
0.00151167
0.00116071
0.00113569
0.00122538
0.00138201
0.00159467
0.00186235
0.00218468
0.00255754
0.00297086
0.00340811
0.00384782
0.00426611
0.00463985
0.00494909
0.00517795
0.00529178
0.00531897
0.00526674
0.00512553
0.00490878
0.00463373
0.00432053
0.00399104
0.003667
0.00336768
0.00310737
0.00289366
0.00272738
0.00260422
0.00251687
0.00245681
0.00241644
0.00239001
0.00237315
0.00236258
0.00235733
0.00235561
0.00235891
0.00236724
0.00238091
0.00240067
0.00242743
0.00246222
0.00250616
0.00256052
0.00262675
0.0027065
0.00280175
0.00291484
0.00304854
0.00320617
0.00339161
0.0036093
0.00386419
0.00416145
0.00450612
0.00490231
0.00535216
0.00585448
0.00640317
0.00698561
0.00758241
0.00817202
0.00874075
0.00927234
0.00982737
0.0104957
0.011365
0.0127756
0.0153691
0.0194906
0.024431
0.0266844
0.0264261
0.0206134
0.0122472
0.00600821
0.00558838
0.00379886
0.00161642
0.00123531
0.00120495
0.00129799
0.00146272
0.00168642
0.0019668
0.00230199
0.00268603
0.0031067
0.00354541
0.00397902
0.00438279
0.00473371
0.00501306
0.00519044
0.0052573
0.0052453
0.00514022
0.00494908
0.0046877
0.00437658
0.00403892
0.0036987
0.00337811
0.00309458
0.00285853
0.00267273
0.00253354
0.00243351
0.00236337
0.00231442
0.00228
0.00225534
0.00223709
0.0022233
0.00221337
0.00220759
0.00220543
0.00220728
0.00221493
0.00222876
0.00224956
0.00227824
0.00231583
0.00236345
0.00242241
0.00249424
0.00258077
0.0026842
0.00280725
0.0029532
0.00312603
0.00333051
0.00357216
0.00385724
0.00419242
0.00458423
0.00503806
0.00555667
0.00613819
0.00677386
0.00744553
0.00812477
0.00877803
0.00940245
0.00994061
0.0104876
0.0112014
0.0121811
0.0138901
0.0171522
0.0221847
0.0267606
0.028093
0.0246659
0.0158031
0.00773162
0.00653074
0.00400466
0.00171772
0.00130626
0.0012698
0.00136523
0.00153694
0.00177026
0.0020615
0.00240728
0.00279984
0.00322497
0.00366229
0.00408728
0.0044745
0.00480082
0.00504716
0.00517369
0.00520253
0.00514749
0.00499501
0.00475975
0.00446115
0.00412288
0.00377069
0.00342963
0.00312079
0.0028584
0.0026483
0.00248861
0.00237223
0.00228956
0.00223078
0.00218802
0.00215578
0.00213031
0.00210929
0.00209168
0.00207734
0.0020665
0.00206001
0.00205752
0.00205956
0.00206834
0.00208411
0.00210758
0.00213963
0.00218127
0.00223366
0.00229817
0.00237646
0.0024706
0.00258311
0.00271714
0.00287661
0.00306632
0.00329208
0.00356077
0.00388026
0.00425905
0.0047055
0.00522652
0.00582541
0.0064991
0.00723501
0.00800778
0.00877882
0.0095049
0.0101498
0.0106885
0.0112209
0.0119973
0.0131695
0.0154216
0.019608
0.0256476
0.0287145
0.028149
0.0198918
0.00981626
0.00754039
0.00419097
0.00181495
0.00137308
0.00132967
0.00142641
0.00160381
0.00184517
0.00214537
0.00249947
0.002898
0.003325
0.00375851
0.00417293
0.00454243
0.00484437
0.0050492
0.00513346
0.00513211
0.00503226
0.00483734
0.00456441
0.0042363
0.00387955
0.00352161
0.00318737
0.00289563
0.00265653
0.0024713
0.00233419
0.00223571
0.0021652
0.00211335
0.00207349
0.00204122
0.00201372
0.00198954
0.00196823
0.00194993
0.00193506
0.00192418
0.00191848
0.00191676
0.00192083
0.0019323
0.0019513
0.00197853
0.00201488
0.00206139
0.00211928
0.00219006
0.00227559
0.0023782
0.00250083
0.00264718
0.00282191
0.00303081
0.00328101
0.00358105
0.00394078
0.00437095
0.00488215
0.00548287
0.0061766
0.0069577
0.00780694
0.00868702
0.00954286
0.0103446
0.0109838
0.0114986
0.0120133
0.0129053
0.0144394
0.0176506
0.0231891
0.0288009
0.030327
0.0243345
0.0123995
0.00874784
0.00435635
0.00190761
0.00143536
0.0013841
0.00148098
0.00166267
0.00191043
0.0022176
0.0025778
0.00297994
0.00340651
0.00383424
0.00423671
0.00458788
0.00486479
0.00503034
0.00507949
0.00504453
0.00490489
0.00467304
0.00436914
0.00401905
0.0036516
0.003295
0.00297292
0.00270093
0.00248486
0.00232181
0.00220319
0.00211801
0.00205558
0.00200761
0.00196866
0.00193522
0.00190533
0.00187815
0.00185358
0.00183195
0.00181375
0.00179956
0.00179048
0.00178664
0.00178655
0.00179416
0.00180921
0.00183219
0.00186385
0.00190512
0.0019571
0.00202114
0.00209892
0.00219256
0.00230473
0.00243885
0.0025993
0.00279166
0.00302295
0.00330194
0.00363924
0.00404719
0.00453932
0.00512879
0.00582575
0.00663305
0.00754061
0.00851925
0.00951563
0.0104559
0.0112737
0.011887
0.0123495
0.0128781
0.0139991
0.0161988
0.0208145
0.027852
0.0313253
0.0287406
0.0156211
0.0102734
0.00449978
0.0019953
0.00149284
0.0014328
0.00152855
0.00171307
0.00196551
0.0022777
0.00264183
0.0030454
0.00346954
0.00388989
0.00427929
0.00461101
0.00486089
0.00498967
0.00501391
0.00494464
0.00477024
0.00450728
0.00417899
0.00381383
0.0034422
0.00309221
0.0027854
0.00253372
0.00233889
0.00219467
0.00209053
0.00201485
0.00195756
0.00191156
0.0018724
0.00183739
0.0018052
0.00177539
0.00174811
0.00172377
0.00170288
0.00168602
0.00167379
0.00166726
0.00166514
0.00166898
0.00168046
0.00169961
0.00172707
0.00176366
0.00181038
0.00186845
0.00193938
0.00202505
0.0021279
0.00225102
0.00239844
0.00257536
0.00278853
0.00304653
0.00336019
0.00374277
0.00420976
0.00477801
0.0054636
0.0062778
0.00722095
0.00827441
0.0093919
0.0104944
0.0115131
0.0122896
0.0128189
0.0132111
0.0138895
0.0154641
0.0190273
0.0257026
0.031628
0.0323395
0.0195879
0.0120638
0.00462068
0.00207775
0.00154537
0.00147558
0.00156893
0.00175477
0.00201013
0.00232541
0.00269143
0.00309443
0.00351439
0.00392598
0.0043015
0.00461425
0.00484099
0.00493477
0.00493781
0.00483667
0.00463265
0.00434442
0.0039979
0.00362367
0.00325297
0.00291305
0.00262282
0.00239054
0.00221436
0.00208554
0.0019924
0.00192334
0.00186922
0.00182403
0.00178415
0.00174755
0.00171333
0.00168134
0.00165184
0.00162527
0.00160214
0.00158298
0.00156828
0.00155904
0.0015552
0.00155581
0.00156395
0.00157959
0.00160323
0.00163562
0.00167766
0.00173046
0.00179537
0.0018741
0.0019688
0.00208227
0.00221813
0.00238118
0.00257767
0.00281583
0.00310627
0.00346253
0.00390122
0.00444183
0.00510524
0.0059105
0.0068689
0.00797516
0.00919661
0.0104624
0.0116629
0.0126663
0.0133467
0.0137169
0.0140999
0.0151625
0.0176551
0.0234038
0.0314897
0.034533
0.0243459
0.0139577
0.00471887
0.00215478
0.00159291
0.00151241
0.00160206
0.00178768
0.00204424
0.00236069
0.00272664
0.00312713
0.00354104
0.00394143
0.00430297
0.00460396
0.00480087
0.00487082
0.00485264
0.00472434
0.00449587
0.00418794
0.00382874
0.00345036
0.00308429
0.00275636
0.00248264
0.00226796
0.00210757
0.00199101
0.00190604
0.00184153
0.0017893
0.0017443
0.00170354
0.0016655
0.00162958
0.00159582
0.00156451
0.00153609
0.00151106
0.0014899
0.00147311
0.00146121
0.00145528
0.00145376
0.00145859
0.00147096
0.0014911
0.00151969
0.00155755
0.00160569
0.00166536
0.00173807
0.00182574
0.00193088
0.00205672
0.00220759
0.00238923
0.00260929
0.00287794
0.00320849
0.00361797
0.00412742
0.00476127
0.00554502
0.00650008
0.00763481
0.00893164
0.010332
0.0117233
0.0129868
0.0138904
0.0143451
0.0145917
0.015127
0.0169469
0.021505
0.0301506
0.0356162
0.0295191
0.0159961
0.00479456
0.00222628
0.00163554
0.00154338
0.00162802
0.00181188
0.00206784
0.00238344
0.00274715
0.00314198
0.00354779
0.00393983
0.00429324
0.00457757
0.00474746
0.00480007
0.00476114
0.00461076
0.00436294
0.00404049
0.00367338
0.00329471
0.0029357
0.00262044
0.00236221
0.0021629
0.00201551
0.0019085
0.00182951
0.00176809
0.00171698
0.00167185
0.00163025
0.00159098
0.00155369
0.00151848
0.00148567
0.00145568
0.00142898
0.00140603
0.00138727
0.00137316
0.00136478
0.0013616
0.00136345
0.00137274
0.00138966
0.00141477
0.00144887
0.00149289
0.00154796
0.00161547
0.00169713
0.00179516
0.00191245
0.00205284
0.00222153
0.00242555
0.00267439
0.00298085
0.00336179
0.00383894
0.00443904
0.0051926
0.00612993
0.007273
0.00862218
0.0101388
0.0117273
0.0132314
0.0144129
0.0150189
0.0152645
0.0155168
0.0166545
0.0201264
0.0282563
0.0360589
0.034449
0.0180249
0.00484832
0.00229226
0.00167342
0.00156864
0.00164696
0.00182734
0.00208054
0.0023919
0.00275103
0.00314128
0.00354278
0.00392819
0.0042686
0.00453483
0.00468427
0.0047233
0.00466624
0.00449854
0.00423624
0.00390392
0.00353289
0.00315678
0.00280619
0.00250336
0.00225905
0.00207273
0.00193577
0.00183605
0.0017614
0.00170209
0.00165163
0.00160626
0.00156392
0.00152367
0.00148527
0.00144888
0.00141481
0.00138348
0.0013553
0.00133073
0.00131018
0.00129412
0.00128331
0.00127841
0.00127782
0.00128418
0.00129808
0.00132001
0.00135069
0.00139102
0.00144206
0.00150506
0.00158159
0.00167361
0.00178367
0.00191519
0.0020728
0.00226287
0.00249415
0.00277868
0.00313277
0.00357814
0.00414277
0.00486065
0.0057693
0.00690285
0.00827885
0.00987843
0.0116235
0.0133621
0.014874
0.0157322
0.0160245
0.0161035
0.0166106
0.0191351
0.0261158
0.0361846
0.0384241
0.0198434
0.00488113
0.00235279
0.00170676
0.0015884
0.00165883
0.00183308
0.00208161
0.00239026
0.00274642
0.00313259
0.00352689
0.00390163
0.00422849
0.00448035
0.0046136
0.00464191
0.00457027
0.00438976
0.00411751
0.00377942
0.00340769
0.00303614
0.00269447
0.0024032
0.00217094
0.00199526
0.00186649
0.00177223
0.0017007
0.00164283
0.00159275
0.00154713
0.00150419
0.00146316
0.00142389
0.00138654
0.00135142
0.00131891
0.00128944
0.00126341
0.00124125
0.00122341
0.00121039
0.00120329
0.00120107
0.00120467
0.00121578
0.00123477
0.00126233
0.00129934
0.00134679
0.00140587
0.001478
0.00156494
0.00166895
0.00179304
0.00194131
0.00211946
0.00233547
0.00260049
0.00293001
0.00334524
0.00387449
0.00455396
0.00542667
0.00653735
0.00792045
0.00957934
0.0114577
0.0134095
0.0152417
0.0164489
0.0168771
0.0169143
0.0170284
0.01868
0.0242958
0.0357065
0.0411933
0.0212608
0.00489255
0.00240785
0.00173584
0.00160291
0.00166381
0.00183227
0.00207748
0.00238211
0.00273274
0.00311148
0.00349601
0.00386061
0.00417646
0.00441608
0.00453714
0.00455735
0.00447501
0.00428596
0.00400792
0.00366761
0.00329775
0.00293201
0.00259919
0.00231821
0.00209599
0.00192876
0.00180622
0.00171596
0.00164663
0.00158973
0.00153987
0.00149404
0.00145065
0.00140905
0.0013691
0.00133097
0.00129498
0.00126149
0.00123088
0.00120356
0.00117995
0.00116048
0.00114562
0.00113632
0.00113261
0.0011338
0.00114232
0.00115859
0.00118329
0.00121726
0.00126149
0.00131711
0.00138545
0.0014681
0.00156708
0.00168501
0.00182552
0.00199365
0.00219658
0.00244454
0.00275204
0.00313942
0.00363466
0.00427502
0.00510738
0.00618513
0.00755824
0.00925305
0.0112415
0.0134051
0.0155114
0.0171226
0.0177741
0.0178178
0.0176551
0.0185392
0.0231125
0.034225
0.0425904
0.0221866
0.00488552
0.00245734
0.00176086
0.00161272
0.00166365
0.00182716
0.00206634
0.00236421
0.00270693
0.00307742
0.00345319
0.00380816
0.00411409
0.00434362
0.00445626
0.00447092
0.00438178
0.00418821
0.00390814
0.00356867
0.00320268
0.00284351
0.002519
0.00224684
0.00203267
0.00187189
0.00175389
0.00166642
0.00159857
0.00154231
0.0014926
0.00144662
0.00140292
0.0013609
0.00132046
0.00128175
0.00124506
0.00121075
0.00117918
0.00115077
0.0011259
0.00110503
0.00108859
0.00107727
0.00107197
0.00107128
0.0010774
0.00109116
0.00111321
0.0011444
0.0011857
0.00123822
0.00130325
0.00138225
0.00147704
0.00158992
0.00172405
0.00188388
0.0020758
0.00230909
0.00259719
0.00295934
0.00342272
0.00402474
0.00481466
0.00585252
0.00720169
0.00891006
0.010977
0.0133103
0.0156916
0.0177289
0.0187117
0.0188509
0.0184753
0.0186691
0.0221367
0.0327895
0.0431196
0.0226267
0.00486527
0.0025022
0.0017827
0.001619
0.0016606
0.00181568
0.00204687
0.00233704
0.00267156
0.00303318
0.00339981
0.0037456
0.00404279
0.00426435
0.00437204
0.00438365
0.0042915
0.00409715
0.00381847
0.00348242
0.00312191
0.00276968
0.00245272
0.00218779
0.00197976
0.0018236
0.00170866
0.00162298
0.00155603
0.00150016
0.00145054
0.00140448
0.00136061
0.00131833
0.00127756
0.00123844
0.00120124
0.00116629
0.00113396
0.00110465
0.00107875
0.00105668
0.0010389
0.00102591
0.00101882
0.00101677
0.00102073
0.0010322
0.00105181
0.00108042
0.00111902
0.00116875
0.00123084
0.00130671
0.001398
0.00150677
0.00163575
0.0017888
0.00197158
0.00219244
0.0024637
0.00280337
0.0032375
0.00380295
0.00455015
0.00554397
0.00685909
0.00856388
0.0106871
0.013168
0.0158051
0.0182287
0.0196433
0.0199756
0.0194443
0.0192148
0.0215638
0.0312461
0.0431947
0.022808
0.00482502
0.00254162
0.00180145
0.00162099
0.0016529
0.00179839
0.00202096
0.00230236
0.00262775
0.00297989
0.00333718
0.00367422
0.00396381
0.00417949
0.00428535
0.00429635
0.00420471
0.00401304
0.00373882
0.00340843
0.00305471
0.00270961
0.00239929
0.00214004
0.00193634
0.00178312
0.00166995
0.00158517
0.00151863
0.00146292
0.00141334
0.00136727
0.00132333
0.00128095
0.00124002
0.00120066
0.00116312
0.00112774
0.00109485
0.00106486
0.00103814
0.00101512
0.000996226
0.000981917
0.000973185
0.000969933
0.000972028
0.000981438
0.000998821
0.00102505
0.00106116
0.00110831
0.00116777
0.00124092
0.0013293
0.00143473
0.0015596
0.00170723
0.00188257
0.00209305
0.00234987
0.00266977
0.00307745
0.00360874
0.00431421
0.0052619
0.00653556
0.00822206
0.0103794
0.0129821
0.0158527
0.0186506
0.0205436
0.0211186
0.0205825
0.0199104
0.0213063
0.0297638
0.0426453
0.0228574
0.00477399
0.00257655
0.00181757
0.00162046
0.00164074
0.00177642
0.00198948
0.0022612
0.00257662
0.00291875
0.00326654
0.00359526
0.00387833
0.00408996
0.00419677
0.00420956
0.00412166
0.00393583
0.00366884
0.00334617
0.00300029
0.00266243
0.00235783
0.00210276
0.00190173
0.00174993
0.00163733
0.00155264
0.00148604
0.00143026
0.00138068
0.00133464
0.00129074
0.0012484
0.00120747
0.00116804
0.00113036
0.00109473
0.0010615
0.00103105
0.00100376
0.000980025
0.000960272
0.000944937
0.000934788
0.000930436
0.000930993
0.000938586
0.000953946
0.000977987
0.00101179
0.00105657
0.00111365
0.00118441
0.00127035
0.00137311
0.00149475
0.00163815
0.00180754
0.0020095
0.00225412
0.00255683
0.00294088
0.00344073
0.00410633
0.00500742
0.00623472
0.00789125
0.0100638
0.0127659
0.0158597
0.0189984