/*--------------------------------*- C++ -*----------------------------------*\
  =========                 |
  \\      /  F ield         | OpenFOAM: The Open Source CFD Toolbox
   \\    /   O peration     | Website:  https://openfoam.org
    \\  /    A nd           | Version:  13
     \\/     M anipulation  |
\*---------------------------------------------------------------------------*/
FoamFile
{
    format      ascii;
    class       volScalarField;
    location    "2";
    object      k;
}
// * * * * * * * * * * * * * * * * * * * * * * * * * * * * * * * * * * * * * //

dimensions      [0 2 -2 0 0 0 0];

internalField   nonuniform List<scalar> 
6400
(
2.08533e-07
1.03842e-06
2.2655e-06
3.60709e-06
4.94806e-06
6.27095e-06
7.59858e-06
8.95737e-06
1.03492e-05
1.17878e-05
1.32949e-05
1.49059e-05
1.6671e-05
1.86546e-05
2.09318e-05
2.35825e-05
2.66828e-05
3.02944e-05
3.44566e-05
3.91822e-05
4.44503e-05
5.02076e-05
5.63773e-05
6.28737e-05
6.96245e-05
7.65913e-05
8.37839e-05
9.1257e-05
9.90961e-05
0.000107411
0.000116312
0.000125781
0.000135673
0.000146045
0.000157061
0.000168686
0.000180825
0.000193449
0.000206591
0.000220274
0.000234619
0.000249595
0.000265118
0.000280982
0.000297088
0.000313258
0.000329346
0.000345372
0.000361878
0.000380992
0.000401096
0.000419748
0.000436599
0.0004508
0.00046115
0.000467535
0.000470241
0.000468176
0.000459085
0.000443713
0.000421977
0.000394718
0.000361781
0.000323912
0.000282364
0.000238817
0.000195059
0.000153348
0.000115652
8.35338e-05
5.8662e-05
3.9706e-05
2.58979e-05
1.63999e-05
1.01925e-05
6.27575e-06
3.80325e-06
2.15162e-06
9.64742e-07
1.96165e-07
1.04336e-06
8.80279e-06
1.96271e-05
3.11103e-05
4.23632e-05
5.32761e-05
6.39698e-05
7.46128e-05
8.53688e-05
9.63704e-05
0.000107802
0.00011994
0.000133152
0.000147885
0.000164628
0.000183866
0.000206016
0.00023136
0.000260019
0.000291931
0.000326836
0.000364312
0.000403845
0.000444921
0.000487139
0.000530304
0.000574474
0.000619911
0.000666933
0.000715874
0.000766899
0.000819499
0.00087278
0.000926739
0.000981536
0.00103669
0.00109162
0.00114607
0.00120012
0.00125389
0.00130776
0.00136175
0.00141578
0.00146949
0.00152286
0.00157552
0.00162702
0.00167678
0.00172355
0.00176623
0.00180667
0.00184487
0.0018793
0.00190804
0.00192735
0.00193582
0.00193697
0.00192386
0.00189278
0.00184294
0.0017732
0.00168286
0.00157248
0.00144421
0.00130055
0.00114536
0.000983819
0.000822111
0.000666469
0.000522645
0.000392957
0.000282977
0.000195477
0.000129974
8.38183e-05
5.29161e-05
3.25935e-05
1.86201e-05
8.22679e-06
1.00061e-06
2.38359e-06
2.04729e-05
4.43329e-05
6.79131e-05
9.00159e-05
0.000111014
0.000131375
0.000151452
0.00017154
0.000191977
0.000213234
0.000235945
0.000260877
0.000288881
0.000320805
0.000357389
0.000399163
0.000446357
0.000498842
0.000556127
0.000617393
0.000681579
0.000747505
0.000814025
0.000880152
0.000945145
0.00100853
0.00106997
0.00112928
0.0011864
0.00124139
0.00129464
0.00134643
0.00139666
0.00144581
0.00149491
0.00154421
0.00159391
0.00164445
0.001696
0.00174867
0.00180256
0.00185784
0.00191476
0.00197319
0.00203305
0.00209417
0.00215633
0.00221878
0.00228082
0.00234179
0.00240032
0.00245481
0.00250322
0.00254334
0.00257064
0.00258219
0.00258281
0.00256045
0.00251293
0.00243941
0.0023402
0.00221416
0.00206304
0.0018886
0.00169477
0.00148729
0.00127324
0.00106045
0.00085692
0.00066984
0.000505471
0.000368134
0.000259282
0.000177367
0.000118259
7.61214e-05
4.48064e-05
1.99539e-05
2.37376e-06
4.17574e-06
3.55156e-05
7.33791e-05
0.000107861
0.000138921
0.000167983
0.000195999
0.000223576
0.000251226
0.000279545
0.000309303
0.000341455
0.000377076
0.000417258
0.000462968
0.000514913
0.000573413
0.000638324
0.000708992
0.000784288
0.00086271
0.000942518
0.00102191
0.00109922
0.00117307
0.00124251
0.00130702
0.00136651
0.00142124
0.00147176
0.00151887
0.00156348
0.0016066
0.0016493
0.00169208
0.00173544
0.00177985
0.0018258
0.00187352
0.00192321
0.00197503
0.00202911
0.00208555
0.00214437
0.00220546
0.00226869
0.00233385
0.00240066
0.00246808
0.00253559
0.00260232
0.00266711
0.00272856
0.00278491
0.00283409
0.00287366
0.00289849
0.00290799
0.00290235
0.0028717
0.00281343
0.00272322
0.00259975
0.00244778
0.00226725
0.00206137
0.00183526
0.00159604
0.00135206
0.00111255
0.000886833
0.000683432
0.000508894
0.000366894
0.000257364
0.000176439
0.00011735
7.17956e-05
3.30417e-05
3.97323e-06
6.41884e-06
5.36495e-05
0.000105679
0.000149912
0.000188572
0.000224375
0.000258847
0.000292933
0.00032742
0.00036318
0.000401262
0.000442874
0.000489275
0.000541614
0.000600744
0.000667062
0.000740401
0.000819987
0.000904475
0.000992042
0.00108054
0.00116769
0.00125132
0.00132961
0.00140128
0.00146571
0.00152294
0.0015736
0.00161868
0.00165945
0.00169726
0.00173359
0.00176944
0.0018054
0.00184218
0.00188021
0.00191984
0.00196129
0.00200468
0.0020502
0.00209797
0.00214802
0.00220039
0.00225502
0.00231178
0.00237049
0.00243086
0.00249239
0.00255547
0.00261946
0.00268369
0.00274724
0.00280892
0.00286725
0.00292038
0.00296609
0.00300185
0.00302227
0.00302923
0.00302207
0.00299188
0.0029336
0.00284289
0.00271199
0.00254488
0.00234661
0.00212031
0.00187221
0.00161043
0.00134512
0.00108763
0.000849228
0.000639592
0.000465376
0.000328866
0.000227211
0.000152972
9.5694e-05
4.53808e-05
5.51802e-06
9.12583e-06
7.44719e-05
0.000140716
0.000194046
0.000239612
0.000281493
0.000321852
0.000362039
0.000403161
0.00044637
0.00049295
0.000544263
0.000601594
0.00066593
0.000737762
0.000816934
0.000902595
0.000993241
0.00108682
0.00118092
0.00127296
0.00136042
0.0014412
0.00151376
0.00157739
0.0016322
0.00167899
0.00171909
0.00175406
0.0017855
0.00181502
0.00184361
0.00187209
0.00190098
0.00193068
0.00196151
0.00199367
0.00202718
0.00206191
0.00209821
0.00213632
0.00217628
0.00221817
0.00226207
0.00230808
0.00235604
0.00240542
0.00245653
0.00250981
0.002565
0.00262187
0.00268002
0.00273886
0.00279754
0.00285488
0.00290927
0.00295863
0.0030002
0.00302797
0.00303901
0.00303533
0.00300631
0.00295786
0.00287688
0.0027518
0.00258087
0.00237293
0.00213228
0.00186554
0.00158319
0.00129846
0.00102585
0.0007791
0.0005691
0.000401727
0.00027626
0.000185286
0.000116396
5.61747e-05
6.8748e-06
1.23472e-05
9.74748e-05
0.000178031
0.000240076
0.000292195
0.000339833
0.000385821
0.00043196
0.000479707
0.000530477
0.000585723
0.000646837
0.000714943
0.000790654
0.000873882
0.000963759
0.00105868
0.00115642
0.00125438
0.00134977
0.00143986
0.00152233
0.00159547
0.00165841
0.00171121
0.00175474
0.00179044
0.00182003
0.00184521
0.00186768
0.0018885
0.00190843
0.00192804
0.00194759
0.00196698
0.00198683
0.0020076
0.00202963
0.00205353
0.0020783
0.00210356
0.00212941
0.00215585
0.00218302
0.00221139
0.00224178
0.00227494
0.00231113
0.00235015
0.00239233
0.00243787
0.00248688
0.00253936
0.00259511
0.00265368
0.00271426
0.00277565
0.00283588
0.00289208
0.00294116
0.00297475
0.00298831
0.00298156
0.00294225
0.00288105
0.00276982
0.00259997
0.00238569
0.00212967
0.00184167
0.0015361
0.00123058
0.000943669
0.000691898
0.000486554
0.000330826
0.00021856
0.000135819
6.5801e-05
8.07086e-06
1.60264e-05
0.000122365
0.000217163
0.000287695
0.000346212
0.000399483
0.00045102
0.000503096
0.000557516
0.000615925
0.000679858
0.000750591
0.000828907
0.000914862
0.00100765
0.00110563
0.00120647
0.0013074
0.00140545
0.00149773
0.00158174
0.00165559
0.00171825
0.00176963
0.00181052
0.00184237
0.00186696
0.00188602
0.00190117
0.00191364
0.00192421
0.00193304
0.00194122
0.00194963
0.00195927
0.00196883
0.00197788
0.00198634
0.00199346
0.00199957
0.00200628
0.00201388
0.00202278
0.00203353
0.00204669
0.00206223
0.00208062
0.00210218
0.00212728
0.00215644
0.00219018
0.00222898
0.00227334
0.00232364
0.00238012
0.00244276
0.00251108
0.00258422
0.00266051
0.00273749
0.00281112
0.00287622
0.00292072
0.00293838
0.00292592
0.00288121
0.00278827
0.0026228
0.00239793
0.00212135
0.00180683
0.00147401
0.00114623
0.000846838
0.000594635
0.000399294
0.000258186
0.000156933
7.53766e-05
9.24083e-06
2.012e-05
0.000148775
0.000257647
0.000336532
0.000401409
0.000460306
0.000517405
0.000575449
0.000636572
0.000702591
0.000775016
0.000854867
0.000942431
0.00103708
0.00113723
0.00124051
0.00134399
0.00144453
0.00153905
0.00162486
0.00169987
0.00176285
0.00181351
0.00185247
0.00188102
0.00190092
0.00191424
0.00192229
0.00192563
0.0019263
0.00192587
0.00192554
0.00192414
0.00192118
0.00191599
0.00190802
0.00189905
0.00188972
0.00188081
0.00187348
0.00186752
0.00186381
0.00186231
0.00186225
0.00186564
0.00187199
0.00188134
0.001894
0.00191027
0.00193052
0.00195515
0.0019847
0.00201979
0.00206117
0.00210964
0.00216605
0.00223113
0.00230543
0.0023888
0.0024799
0.00257652
0.00267482
0.0027696
0.00285167
0.00289785
0.00291157
0.00288487
0.00281169
0.00264906
0.00240769
0.00210411
0.00175723
0.00139388
0.00104451
0.000737205
0.000491153
0.00031073
0.000183527
8.65284e-05
1.06025e-05
2.45708e-05
0.000176323
0.000299027
0.000386176
0.000457434
0.000522005
0.000584716
0.000648755
0.000716544
0.000789996
0.000870489
0.00095866
0.00105419
0.00115569
0.00126086
0.00136666
0.00146977
0.00156687
0.00165502
0.0017319
0.00179601
0.00184683
0.00188476
0.00191103
0.00192672
0.00193324
0.00193441
0.00193063
0.00192345
0.00191555
0.00190478
0.00189066
0.00187263
0.00185217
0.00183019
0.00180881
0.00178809
0.00176875
0.00175164
0.00173734
0.00172599
0.00171792
0.00171345
0.0017118
0.00171244
0.00171728
0.00172499
0.00173579
0.00174966
0.00176674
0.00178719
0.00181128
0.00183936
0.00187193
0.0019097
0.00195363
0.00200507
0.00206576
0.00213804
0.00222363
0.00232246
0.00243161
0.00255012
0.00267158
0.00278543
0.00286835
0.00290269
0.00289783
0.00283708
0.00267242
0.00240769
0.00206956
0.00168497
0.00129023
0.000923511
0.000616219
0.000383951
0.000220379
0.000101387
1.24437e-05
2.93309e-05
0.000204669
0.000340857
0.000436188
0.000513863
0.000584171
0.000652536
0.000722555
0.000796874
0.000877427
0.000965354
0.00106081
0.0011628
0.00126921
0.00137705
0.00148281
0.00158293
0.00167413
0.00175377
0.00182004
0.00187209
0.00191009
0.00193468
0.00194585
0.00194841
0.00194359
0.00193285
0.00192009
0.00190227
0.00187955
0.00185186
0.00182102
0.00178938
0.00175737
0.00172616
0.00169726
0.00167138
0.00164917
0.00163116
0.00161754
0.00160811
0.00160352
0.0016021
0.00160331
0.00160862
0.00161702
0.00162812
0.00164188
0.00165819
0.00167694
0.00169807
0.00172162
0.00174765
0.00177633
0.00180797
0.00184284
0.00188154
0.00192507
0.0019751
0.0020344
0.0021076
0.00220115
0.00231473
0.00244559
0.00258709
0.00272952
0.00284965
0.00290723
0.00291542
0.0028611
0.00268558
0.0023879
0.0020069
0.00158116
0.001158
0.00078271
0.000486091
0.000273228
0.000122632
1.51341e-05
3.43274e-05
0.000233472
0.000382711
0.000486113
0.000570225
0.000646308
0.000720334
0.000796249
0.000876862
0.000964036
0.00105859
0.00116014
0.00126699
0.00137636
0.00148468
0.00158815
0.00168311
0.0017665
0.0018361
0.0018907
0.00193014
0.00195342
0.00196216
0.00196214
0.00195194
0.00193664
0.0019156
0.00188786
0.00185356
0.00181503
0.00177473
0.00173336
0.001693
0.001655
0.00162066
0.00159118
0.0015671
0.00154865
0.00153566
0.00152889
0.00152651
0.00152682
0.00153184
0.0015398
0.00155081
0.00156423
0.00157982
0.00159741
0.0016168
0.00163788
0.0016606
0.00168494
0.00171091
0.00173852
0.00176791
0.00179902
0.00183204
0.00186728
0.00190536
0.00194766
0.0019967
0.00205589
0.00213074
0.00223254
0.00236598
0.0025221
0.00268839
0.00284142
0.0029196
0.0029349
0.00287933
0.00267877
0.00233589
0.00190462
0.00143786
0.000994639
0.000624106
0.000348195
0.000153473
1.91472e-05
3.94893e-05
0.000262404
0.000424173
0.000535494
0.000626014
0.000707867
0.000787505
0.000869158
0.000955723
0.00104892
0.00114918
0.00125554
0.00136566
0.00147614
0.00158301
0.00168226
0.00177035
0.00184453
0.00190308
0.00194537
0.00196917
0.00197719
0.0019751
0.00196124
0.00194129
0.00191273
0.00187538
0.00183183
0.00178484
0.00173556
0.00168647
0.00163929
0.00159608
0.00155833
0.00152704
0.00150276
0.0014854
0.00147543
0.00147141
0.00147094
0.00147524
0.00148315
0.00149419
0.00150763
0.00152316
0.00154041
0.00155919
0.00157938
0.00160091
0.00162377
0.00164799
0.00167359
0.00170056
0.0017288
0.00175807
0.00178837
0.00181967
0.00185202
0.00188552
0.00192018
0.00195692
0.00199788
0.00204634
0.00210817
0.00219222
0.00231391
0.00247834
0.00266283
0.0028428
0.00293601
0.00295363
0.00288503
0.0026388
0.00223798
0.00175193
0.00124985
0.000801445
0.000450388
0.000197188
2.50225e-05
4.47445e-05
0.000291157
0.000464848
0.000583869
0.000680709
0.000768267
0.000853403
0.000940561
0.00103265
0.00113118
0.00123617
0.00134606
0.00145792
0.00156785
0.00167158
0.00176508
0.00184499
0.00190897
0.00195582
0.00198243
0.00199134
0.00198865
0.00197274
0.00194848
0.00191304
0.00186806
0.00181734
0.00176228
0.00170556
0.00164944
0.00159658
0.00154908
0.00150868
0.00147635
0.00145236
0.00143682
0.00142954
0.00142742
0.00142942
0.00143643
0.00144678
0.00145982
0.00147493
0.0014917
0.00150984
0.00152919
0.00154968
0.0015713
0.0015941
0.00161816
0.00164358
0.00167044
0.00169879
0.00172862
0.00175976
0.00179168
0.00182378
0.00185574
0.00188747
0.00191894
0.0019511
0.00198468
0.00202151
0.00206222
0.00211361
0.00218533
0.0022906
0.00245434
0.00265468
0.00285474
0.00295386
0.00296726
0.00286823
0.00255023
0.00208117
0.00153971
0.00101686
0.000582409
0.000256347
3.32719e-05
5.00216e-05
0.000319447
0.000504361
0.00063079
0.000733792
0.000826926
0.000917381
0.00100974
0.00110686
0.00120999
0.0013187
0.00143089
0.00154309
0.00165102
0.00175025
0.00183678
0.00190757
0.00196078
0.00199279
0.00200428
0.0020029
0.00198627
0.00195918
0.00191888
0.00186816
0.0018107
0.00174883
0.00168517
0.00162277
0.00156448
0.00151292
0.00146988
0.00143634
0.00141237
0.00139849
0.00139271
0.00139169
0.00139574
0.0014042
0.00141598
0.00143
0.00144576
0.00146285
0.00148103
0.00150019
0.0015203
0.00154143
0.00156369
0.00158723
0.0016122
0.00163878
0.00166711
0.00169728
0.0017293
0.00176316
0.00179905
0.00183646
0.00187381
0.00190924
0.00194192
0.00197201
0.00199902
0.00202533
0.00205522
0.00209173
0.00213689
0.00219907
0.00229513
0.00245063
0.00266512
0.00287434
0.00296981
0.00297053
0.00280673
0.00239996
0.00184989
0.0012647
0.000743757
0.000332002
4.42159e-05
5.52512e-05
0.000347009
0.000542361
0.000675833
0.000784766
0.000883279
0.00097881
0.00107601
0.00117762
0.0012846
0.00139606
0.00150941
0.00162072
0.00172545
0.00181906
0.00189772
0.00195878
0.00199892
0.00201562
0.00201689
0.00200169
0.00197381
0.00193061
0.0018758
0.0018129
0.00174489
0.00167491
0.00160638
0.00154266
0.00148665
0.00144044
0.00140499
0.00138025
0.00136689
0.00136175
0.00136119
0.00136607
0.00137521
0.00138736
0.00140154
0.00141712
0.00143377
0.00145127
0.00146956
0.00148867
0.00150869
0.00152977
0.0015521
0.00157589
0.00160137
0.00162876
0.0016583
0.00169016
0.00172447
0.00176123
0.00180025
0.00184129
0.00188433
0.00192857
0.00197116
0.00200824
0.00203903
0.00206363
0.00208296
0.00210158
0.00212893
0.00217042
0.002225
0.0023147
0.00246523
0.0026915
0.00289918
0.00298414
0.00294018
0.00267733
0.00216064
0.0015356
0.000930981
0.000423156
5.78487e-05
6.03637e-05
0.000373595
0.000578534
0.000718606
0.000833169
0.0009368
0.00103711
0.00113874
0.00124428
0.00135437
0.00146768
0.00158116
0.00169055
0.00179109
0.00187825
0.00194835
0.00199875
0.00202378
0.00202954
0.00201855
0.00199188
0.00194819
0.00189097
0.00182404
0.00175082
0.00167499
0.00160038
0.00153085
0.00146972
0.00141938
0.00138096
0.00135434
0.00134016
0.00133476
0.00133411
0.00133879
0.0013478
0.00135966
0.00137334
0.00138819
0.00140387
0.00142023
0.00143722
0.0014549
0.00147338
0.00149284
0.00151347
0.0015355
0.00155916
0.00158471
0.00161245
0.00164265
0.00167559
0.00171151
0.00175058
0.00179283
0.00183805
0.0018857
0.00193508
0.00198612
0.00203632
0.00208045
0.00211386
0.00213737
0.00215031
0.00215927
0.00217407
0.00220706
0.00225961
0.0023451
0.00249831
0.00273661
0.00292118
0.00297631
0.00286439
0.00244742
0.00181635
0.00113807
0.000526571
7.36958e-05
6.52897e-05
0.000398987
0.000612603
0.000758759
0.000878586
0.000987018
0.00109176
0.00119739
0.0013063
0.00141878
0.00153312
0.00164587
0.00175248
0.00184808
0.00192827
0.00198966
0.00202645
0.00203902
0.00203497
0.00201193
0.00197066
0.00191314
0.00184387
0.00176663
0.00168553
0.00160492
0.00152913
0.00146201
0.00140638
0.00136368
0.00133387
0.00131743
0.00131082
0.00130959
0.00131328
0.00132151
0.00133256
0.00134534
0.00135914
0.00137358
0.00138854
0.001404
0.00142003
0.00143677
0.00145438
0.00147308
0.00149306
0.00151457
0.00153785
0.00156317
0.00159083
0.00162117
0.00165452
0.00169125
0.00173168
0.00177604
0.00182443
0.00187661
0.00193196
0.0019892
0.00204733
0.00210585
0.00215759
0.0021947
0.00221505
0.00222284
0.0022249
0.00222715
0.00224866
0.00229819
0.00238375
0.002548
0.00279792
0.00293125
0.00293816
0.0026869
0.00209133
0.00135703
0.000636578
9.10997e-05
6.99669e-05
0.000422997
0.000644325
0.00079599
0.000920658
0.00103352
0.00114231
0.0012515
0.00136322
0.00147745
0.0015921
0.00170338
0.00180654
0.00189664
0.00196938
0.0020207
0.00204422
0.00204776
0.00203172
0.00199602
0.00194099
0.00187158
0.00179191
0.0017065
0.00162019
0.00153782
0.00146385
0.00140168
0.00135324
0.00131877
0.00129851
0.0012897
0.00128739
0.00128944
0.00129636
0.00130626
0.00131788
0.00133045
0.00134356
0.00135703
0.00137088
0.00138519
0.00140011
0.00141581
0.00143249
0.00145036
0.00146963
0.00149052
0.00151329
0.00153818
0.00156551
0.00159562
0.0016289
0.00166576
0.00170667
0.00175204
0.00180223
0.00185739
0.0019173
0.00198123
0.00204769
0.0021143
0.00218093
0.00223995
0.00227822
0.00229504
0.00229846
0.00229072
0.00228265
0.00229092
0.00233873
0.00243073
0.00261557
0.00284768
0.00294113
0.00283105
0.00234223
0.00158008
0.000748117
0.000109238
7.43431e-05
0.000445462
0.0006735
0.000830052
0.00095909
0.00107598
0.00118842
0.0013007
0.00141472
0.00153012
0.00164446
0.0017537
0.00185293
0.00193723
0.00200247
0.00204174
0.00205479
0.00204888
0.00202174
0.00197238
0.00190564
0.00182574
0.00173753
0.00164626
0.00155734
0.00147587
0.001406
0.00135034
0.00130963
0.00128367
0.00127144
0.00126749
0.00126753
0.0012726
0.00128108
0.0012914
0.00130268
0.00131442
0.00132643
0.00133868
0.00135128
0.00136437
0.00137814
0.00139279
0.00140853
0.00142557
0.0014441
0.00146436
0.00148656
0.00151096
0.00153785
0.00156755
0.00160047
0.00163706
0.00167785
0.00172339
0.00177425
0.00183088
0.00189354
0.001962
0.00203537
0.00211177
0.00218801
0.00226298
0.00232814
0.0023649
0.00237765
0.00237564
0.00235321
0.00233385
0.00233187
0.00238166
0.00248633
0.00270174
0.00286413
0.00288317
0.00255786
0.00180331
0.000860817
0.000127639
7.83741e-05
0.000466254
0.000699974
0.000860755
0.000993655
0.00111413
0.00122979
0.00134473
0.00146057
0.00157661
0.00169015
0.0017969
0.00189185
0.00197005
0.00202716
0.00205497
0.00206018
0.00204423
0.00200438
0.00194367
0.00186645
0.00177767
0.00168288
0.00158799
0.00149879
0.00142026
0.00135596
0.00130744
0.00127433
0.00125661
0.00124954
0.00124804
0.00125063
0.00125732
0.00126623
0.00127621
0.00128664
0.00129725
0.00130799
0.00131893
0.00133024
0.0013421
0.00135472
0.00136831
0.00138309
0.00139928
0.00141707
0.00143667
0.00145831
0.0014822
0.00150863
0.0015379
0.0015704
0.00160656
0.00164694
0.00169216
0.00174292
0.00179992
0.00186378
0.0019348
0.00201277
0.00209654
0.0021837
0.00227011
0.00235377
0.00242165
0.00245437
0.00246283
0.00244933
0.00240823
0.00237644
0.00237197
0.00242673
0.00255915
0.00278433
0.00288016
0.00271429
0.002023
0.000981589
0.000147362
8.20233e-05
0.000485276
0.000723642
0.000887968
0.00102419
0.0011478
0.00126625
0.00138342
0.00150062
0.00161688
0.00172923
0.00183321
0.00192377
0.00199614
0.0020437
0.00206181
0.00205944
0.00203337
0.00198241
0.00191144
0.00182513
0.00172914
0.00162971
0.00153323
0.0014456
0.00137143
0.00131337
0.00127183
0.00124629
0.00123456
0.00123086
0.0012309
0.00123536
0.00124266
0.00125132
0.00126052
0.00126985
0.00127919
0.00128859
0.00129818
0.00130817
0.00131877
0.0013302
0.00134269
0.00135647
0.00137175
0.00138875
0.00140768
0.00142874
0.00145216
0.00147818
0.00150708
0.00153921
0.00157499
0.00161494
0.00165969
0.00170999
0.0017667
0.0018307
0.00190274
0.00198324
0.0020719
0.00216723
0.002266
0.00236272
0.00245487
0.00251951
0.0025453
0.00254717
0.00251469
0.0024503
0.00241072
0.0024097
0.00248138
0.00265743
0.00280151
0.00278602
0.00223537
0.00112335
0.000170963
8.52621e-05
0.00050246
0.000744443
0.000911621
0.00105062
0.00117688
0.00129769
0.00141667
0.00153485
0.00165097
0.00176184
0.00186286
0.00194893
0.00201523
0.00205347
0.00206463
0.00205462
0.00201764
0.00195706
0.00187711
0.00178319
0.00168165
0.00157933
0.00148294
0.00139823
0.0013292
0.00127749
0.0012425
0.0012236
0.00121584
0.00121394
0.00121558
0.00122094
0.0012282
0.00123621
0.00124439
0.00125249
0.0012605
0.00126851
0.00127672
0.00128534
0.00129461
0.00130477
0.00131607
0.00132875
0.00134305
0.00135919
0.00137739
0.00139786
0.00142081
0.00144649
0.00147513
0.00150704
0.00154259
0.00158226
0.00162663
0.00167645
0.00173263
0.0017962
0.00186824
0.0019497
0.00204104
0.00214181
0.00224996
0.00236121
0.00246835
0.00256579
0.00262108
0.00263811
0.00262403
0.0025652
0.00247549
0.0024325
0.00245158
0.0025519
0.00274284
0.0028034
0.00243324
0.00129511
0.000200781
8.80706e-05
0.000517769
0.000762365
0.000931696
0.00107291
0.00120135
0.00132409
0.00144448
0.00156329
0.00167899
0.00178818
0.00188616
0.00196775
0.00202802
0.00205785
0.00206316
0.00204464
0.00199874
0.00192962
0.00184199
0.00174191
0.00163637
0.00153266
0.00143763
0.0013567
0.00129305
0.00124734
0.00121836
0.00120441
0.00119931
0.00119856
0.00120136
0.00120697
0.00121379
0.00122092
0.00122796
0.00123477
0.00124139
0.00124798
0.00125474
0.0012619
0.00126975
0.00127853
0.00128852
0.00129998
0.00131317
0.00132835
0.00134574
0.00136557
0.00138807
0.00141344
0.00144193
0.00147378
0.00150932
0.00154895
0.00159319
0.00164272
0.00169844
0.00176144
0.00183297
0.00191436
0.00200673
0.00211053
0.00222493
0.00234695
0.00247064
0.00258812
0.00268128
0.0027226
0.00272786
0.00268548
0.00259071
0.00248611
0.0024493
0.00249754
0.00265688
0.00276735
0.00258957
0.00148879
0.000235758
9.04374e-05
0.000531191
0.000777435
0.000948234
0.00109111
0.00122124
0.00134549
0.00146694
0.00158608
0.00170114
0.00180855
0.00190354
0.00198102
0.00203485
0.00205765
0.00205834
0.00203132
0.00197768
0.0019012
0.00180719
0.00170232
0.00159413
0.00149024
0.00139744
0.00132065
0.00126224
0.00122188
0.00119825
0.00118768
0.00118438
0.00118438
0.00118784
0.00119328
0.00119941
0.00120554
0.00121137
0.00121684
0.00122203
0.00122713
0.00123237
0.00123799
0.00124429
0.00125157
0.00126012
0.00127021
0.00128217
0.00129625
0.00131273
0.00133186
0.00135387
0.00137897
0.00140738
0.00143933
0.00147506
0.00151492
0.00155934
0.00160892
0.00166445
0.00172701
0.00179793
0.00187876
0.0019711
0.00207622
0.00219442
0.00232414
0.00246081
0.00259571
0.00272092
0.00279834
0.00282326
0.00280473
0.00272123
0.00258369
0.00248974
0.00247921
0.00257323
0.00270356
0.00266647
0.00168958
0.000272756
9.23589e-05
0.000542741
0.00078972
0.000961319
0.0011053
0.00123666
0.00136202
0.00148419
0.00160339
0.00171765
0.00182326
0.00191538
0.00198891
0.00203674
0.00205489
0.00204957
0.00201571
0.0019554
0.00187277
0.00177363
0.00166521
0.00155549
0.00145229
0.00136223
0.00128963
0.00123605
0.00120037
0.00118097
0.00117276
0.0011705
0.00117115
0.00117479
0.00117979
0.0011851
0.00119015
0.00119473
0.00119882
0.00120255
0.00120611
0.00120974
0.00121373
0.00121838
0.00122402
0.00123099
0.00123959
0.00125016
0.00126303
0.00127849
0.00129682
0.00131828
0.0013431
0.00137149
0.00140363
0.00143975
0.00148011
0.00152503
0.001575
0.00163073
0.00169318
0.00176366
0.00184382
0.00193557
0.00204081
0.0021609
0.00229573
0.00244254
0.00259453
0.00273991
0.0028581
0.00291138
0.00291647
0.00285408
0.00271613
0.00255067
0.00248376
0.00252548
0.00266391
0.00269225
0.00189901
0.000312572
9.38395e-05
0.000552455
0.000799319
0.000971078
0.00111563
0.00124776
0.00137384
0.00149641
0.00161545
0.0017288
0.00183259
0.00192194
0.00199176
0.00203476
0.00204872
0.00203816
0.00199859
0.00193274
0.00184511
0.00174201
0.00163113
0.00152077
0.00141886
0.00133171
0.00126309
0.00121377
0.00118202
0.00116575
0.00115914
0.00115753
0.00115861
0.00116211
0.00116651
0.0011709
0.00117483
0.00117814
0.00118083
0.00118306
0.00118503
0.001187
0.00118928
0.0011922
0.00119611
0.00120137
0.00120836
0.00121743
0.00122894
0.00124326
0.00126069
0.00128153
0.00130602
0.00133438
0.0013668
0.00140344
0.0014445
0.00149022
0.00154095
0.00159727
0.00166002
0.0017304
0.00181005
0.00190104
0.00200571
0.00212623
0.00226381
0.00241737
0.00258183
0.0027464
0.00289843
0.00299157
0.00301886
0.00298449
0.00285906
0.00266237
0.00252301
0.00250507
0.00261222
0.00269065
0.00209761
0.000352186
9.489e-05
0.000560387
0.000806359
0.000977665
0.00112226
0.0012547
0.00138112
0.00150379
0.00162243
0.0017347
0.00183662
0.0019234
0.00199046
0.00202944
0.00203987
0.00202481
0.00198062
0.00191035
0.00181887
0.00171288
0.00160044
0.00149011
0.00138981
0.00130553
0.00124046
0.00119475
0.00116615
0.00115208
0.00114655
0.00114532
0.00114658
0.00114974
0.00115344
0.00115688
0.00115968
0.00116168
0.00116298
0.0011637
0.00116406
0.00116434
0.00116487
0.00116602
0.00116812
0.0011716
0.00117687
0.00118433
0.00119439
0.00120744
0.00122386
0.00124397
0.00126806
0.00129637
0.00132908
0.00136633
0.00140825
0.001455
0.00150682
0.00156412
0.00162759
0.00169828
0.00177775
0.00186809
0.00197189
0.00209198
0.0022307
0.00238871
0.00256317
0.00274573
0.00292088
0.0030572
0.00311347
0.00310764
0.00300335
0.002801
0.00258139
0.0025036
0.0025588
0.00265034
0.00226666
0.000387679
9.55303e-05
0.000566608
0.000810971
0.000981205
0.00112527
0.00125752
0.00138381
0.00150618
0.00162416
0.00173534
0.00183597
0.00192132
0.00198594
0.00202095
0.00202884
0.00201013
0.00196239
0.00188881
0.00179455
0.00168662
0.00157337
0.00146353
0.00136494
0.00128329
0.00122125
0.00117842
0.00115228
0.00113964
0.00113477
0.00113375
0.00113496
0.00113766
0.00114061
0.00114312
0.00114477
0.00114542
0.00114538
0.00114461
0.00114337
0.00114196
0.00114073
0.00114016
0.00114043
0.00114208
0.00114557
0.00115135
0.00115985
0.00117154
0.00118682
0.0012061
0.00122969
0.00125787
0.00129084
0.00132873
0.00137162
0.00141959
0.00147275
0.00153137
0.00159596
0.0016674
0.00174709
0.00183705
0.00193998
0.00205912
0.00219772
0.00235794
0.00253897
0.00273458
0.0029307
0.0031056
0.00320235
0.00322155
0.00314702
0.00295255
0.00268218
0.00253292
0.0025326
0.00262412
0.0023934
0.000415327
9.57507e-05
0.000571155
0.000813205
0.000981669
0.0011249
0.00125674
0.00138275
0.00150481
0.00162234
0.00173284
0.00183228
0.00191561
0.00197751
0.00201004
0.00201602
0.00199462
0.00194437
0.00186855
0.00177249
0.00166346
0.00155001
0.00144096
0.00134403
0.00126464
0.00120503
0.0011644
0.00113997
0.0011282
0.00112366
0.00112269
0.0011237
0.00112586
0.00112806
0.00112954
0.00113003
0.00112959
0.00112818
0.00112597
0.00112319
0.00112015
0.00111721
0.00111477
0.00111343
0.00111328
0.00111496
0.00111901
0.0011259
0.00113614
0.00115019
0.00116851
0.00119148
0.00121943
0.00125259
0.0012911
0.001335
0.00138429
0.001439
0.00149923
0.0015653
0.00163789
0.00171822
0.00180816
0.00191039
0.0020284
0.00216613
0.00232705
0.00251241
0.00271849
0.0029335
0.00313735
0.0032796
0.00332717
0.00328451
0.0031047
0.00281622
0.0025712
0.00252072
0.00259598
0.00247469
0.000433381
9.56107e-05
0.000574046
0.00081327
0.000980334
0.00112248
0.00125349
0.00137886
0.00150029
0.00161701
0.0017264
0.00182432
0.0019059
0.00196613
0.00199705
0.00200178
0.00197867
0.00192693
0.00184986
0.00175295
0.00164356
0.00153038
0.00142227
0.00132683
0.00124925
0.00119145
0.00115236
0.00112897
0.00111761
0.00111313
0.00111208
0.00111275
0.00111434
0.00111571
0.00111621
0.00111576
0.00111417
0.00111151
0.00110794
0.00110371
0.00109913
0.00109459
0.00109048
0.00108726
0.00108563
0.00108555
0.00108787
0.00109313
0.00110186
0.00111459
0.00113185
0.00115408
0.00118167
0.00121491
0.00125395
0.00129884
0.00134953
0.00140591
0.00146796
0.00153581
0.00160993
0.00169129
0.00178159
0.00188342
0.00200032
0.00213672
0.00229715
0.00248473
0.0026984
0.00292935
0.00315787
0.00334402
0.00342572
0.00341623
0.00326073
0.00296575
0.00264138
0.00251857
0.00256489
0.00251411
0.000441961
9.52115e-05
0.000575717
0.000812139
0.000976816
0.00111714
0.0012468
0.00137112
0.0014916
0.00160738
0.00171573
0.00181258
0.00189303
0.00195213
0.0019823
0.00198644
0.00196256
0.00191031
0.00183298
0.00173606
0.00162695
0.00151444
0.00140733
0.00131315
0.00123687
0.00118025
0.00114207
0.00111912
0.00110776
0.00110309
0.00110183
0.00110209
0.00110306
0.00110359
0.00110333
0.00110193
0.00109929
0.00109548
0.00109068
0.00108513
0.00107916
0.00107315
0.0010675
0.00106268
0.00105928
0.00105783
0.00105847
0.0010621
0.00106931
0.00108067
0.00109677
0.00111814
0.00114524
0.00117842
0.00121789
0.0012637
0.00131576
0.00137389
0.00143791
0.00150777
0.00158372
0.00166648
0.00175753
0.00185927
0.00197522
0.00211008
0.00226918
0.00245726
0.00267567
0.00291848
0.00316821
0.00339265
0.00351862
0.00353826
0.00341369
0.00312267
0.00274102
0.00253583
0.00254053
0.00253126
0.000445493
9.44194e-05
0.000575763
0.000809231
0.000970946
0.0011092
0.00123732
0.00136037
0.00147972
0.00159444
0.00170179
0.0017977
0.00187736
0.00193585
0.00196603
0.00197024
0.00194651
0.0018947
0.00181801
0.00172188
0.00161362
0.00150211
0.00139604
0.00130279
0.00122731
0.00117126
0.00113336
0.00111037
0.00109861
0.00109353
0.00109189
0.0010917
0.00109198
0.00109187
0.00109084
0.00108858
0.00108502
0.00108021
0.00107433
0.00106763
0.00106044
0.00105313
0.00104613
0.0010399
0.00103494
0.00103201
0.00103127
0.00103334
0.00103905
0.00104902
0.00106389
0.00108429
0.00111076
0.00114373
0.00118349
0.00123011
0.0012835
0.00134339
0.00140947
0.00148151
0.00155953
0.001644
0.00173614
0.00183812
0.00195336
0.00208664
0.00224392
0.00243127
0.00265239
0.00290439
0.00317236
0.00342808
0.00360232
0.00365321
0.00356305
0.00327988
0.00287089
0.00256513
0.0025195
0.00253578
0.000446454
9.34181e-05
0.000574993
0.000804566
0.000963273
0.00109917
0.00122544