/*--------------------------------*- C++ -*----------------------------------*\
  =========                 |
  \\      /  F ield         | OpenFOAM: The Open Source CFD Toolbox
   \\    /   O peration     | Website:  https://openfoam.org
    \\  /    A nd           | Version:  13
     \\/     M anipulation  |
\*---------------------------------------------------------------------------*/
FoamFile
{
    format      ascii;
    class       volScalarField;
    location    "2";
    object      nut;
}
// * * * * * * * * * * * * * * * * * * * * * * * * * * * * * * * * * * * * * //

dimensions      [0 2 -1 0 0 0 0];

internalField   nonuniform List<scalar> 
6400
(
3.66679e-10
1.82599e-09
3.98402e-09
6.34357e-09
8.70206e-09
1.10289e-08
1.33639e-08
1.57545e-08
1.82041e-08
2.07369e-08
2.3392e-08
2.62319e-08
2.93453e-08
3.28457e-08
3.68655e-08
4.15451e-08
4.70178e-08
5.33909e-08
6.07327e-08
6.90639e-08
7.8346e-08
8.84842e-08
9.93421e-08
1.10769e-07
1.22639e-07
1.34885e-07
1.47527e-07
1.60664e-07
1.74446e-07
1.89071e-07
2.04731e-07
2.21386e-07
2.38779e-07
2.57024e-07
2.76404e-07
2.96856e-07
3.18208e-07
3.40413e-07
3.63525e-07
3.87589e-07
4.12814e-07
4.3915e-07
4.66457e-07
4.94359e-07
5.22691e-07
5.51137e-07
5.79442e-07
6.07644e-07
6.36699e-07
6.70354e-07
7.05765e-07
7.38625e-07
7.68324e-07
7.93365e-07
8.11653e-07
8.22945e-07
8.27738e-07
8.24208e-07
8.08287e-07
7.81311e-07
7.43117e-07
6.95175e-07
6.37269e-07
5.70664e-07
4.97563e-07
4.20919e-07
3.43877e-07
2.70409e-07
2.03989e-07
1.4737e-07
1.03506e-07
7.00667e-08
4.56994e-08
2.89327e-08
1.79731e-08
1.10587e-08
6.69662e-09
3.78608e-09
1.69696e-09
3.45005e-10
1.83465e-09
1.55826e-07
5.27084e-07
9.14505e-07
1.26701e-06
1.58358e-06
1.87221e-06
2.14354e-06
2.40901e-06
2.67387e-06
2.94243e-06
3.2197e-06
3.51087e-06
3.8206e-06
4.15186e-06
4.50481e-06
4.87575e-06
5.25684e-06
5.63835e-06
6.01028e-06
6.3627e-06
6.68726e-06
6.97818e-06
7.23297e-06
7.45308e-06
7.64452e-06
7.81778e-06
7.98596e-06
8.1634e-06
8.36733e-06
8.62036e-06
8.905e-06
9.19623e-06
9.53016e-06
9.93004e-06
1.03894e-05
1.08985e-05
1.14517e-05
1.20476e-05
1.26799e-05
1.33611e-05
1.41054e-05
1.492e-05
1.57669e-05
1.6646e-05
1.75429e-05
1.844e-05
1.93099e-05
2.01146e-05
2.08151e-05
2.14541e-05
2.20856e-05
2.26697e-05
2.3217e-05
2.36304e-05
2.3895e-05
2.41443e-05
2.42544e-05
2.4172e-05
2.38902e-05
2.33946e-05
2.26806e-05
2.17206e-05
2.05261e-05
1.90988e-05
1.74551e-05
1.56265e-05
1.36632e-05
1.16259e-05
9.57833e-06
7.45195e-06
5.49077e-06
3.86279e-06
2.6146e-06
1.72092e-06
1.11369e-06
7.03613e-07
3.99661e-07
1.3589e-07
1.76007e-09
4.1915e-09
5.16735e-07
2.25851e-06
4.23911e-06
5.86055e-06
7.14272e-06
8.19292e-06
9.09645e-06
9.90777e-06
1.06597e-05
1.13774e-05
1.20789e-05
1.27751e-05
1.34742e-05
1.41785e-05
1.48834e-05
1.55765e-05
1.62345e-05
1.68407e-05
1.7382e-05
1.78468e-05
1.82295e-05
1.85314e-05
1.87608e-05
1.89327e-05
1.90667e-05
1.91857e-05
1.93121e-05
1.94666e-05
1.96654e-05
1.99186e-05
2.02906e-05
2.08156e-05
2.14059e-05
2.203e-05
2.2793e-05
2.37015e-05
2.471e-05
2.58283e-05
2.70504e-05
2.83453e-05
2.96614e-05
3.0961e-05
3.22894e-05
3.36185e-05
3.49361e-05
3.62263e-05
3.74755e-05
3.86592e-05
3.97846e-05
4.08548e-05
4.18693e-05
4.28101e-05
4.36612e-05
4.43872e-05
4.49633e-05
4.52411e-05
4.55021e-05
4.54445e-05
4.50443e-05
4.43019e-05
4.32282e-05
4.18035e-05
4.00384e-05
3.79102e-05
3.54194e-05
3.25898e-05
2.94652e-05
2.61042e-05
2.25804e-05
1.89606e-05
1.54088e-05
1.20792e-05
9.13713e-06
6.69035e-06
4.74498e-06
3.20138e-06
1.83265e-06
5.06291e-07
4.17659e-09
7.34345e-09
9.7871e-07
4.42789e-06
8.31924e-06
1.13911e-05
1.36954e-05
1.54666e-05
1.68928e-05
1.80935e-05
1.91402e-05
2.00762e-05
2.09339e-05
2.17396e-05
2.25104e-05
2.32548e-05
2.39723e-05
2.46554e-05
2.52954e-05
2.58711e-05
2.63639e-05
2.67643e-05
2.7072e-05
2.72968e-05
2.74574e-05
2.75799e-05
2.7695e-05
2.78345e-05
2.80285e-05
2.83028e-05
2.86785e-05
2.9174e-05
2.97624e-05
3.04437e-05
3.13357e-05
3.23842e-05
3.35158e-05
3.46984e-05
3.59591e-05
3.72684e-05
3.86047e-05
3.99408e-05
4.12582e-05
4.25471e-05
4.38095e-05
4.503e-05
4.62032e-05
4.73243e-05
4.83927e-05
4.93853e-05
5.03097e-05
5.11613e-05
5.19332e-05
5.26138e-05
5.31822e-05
5.36281e-05
5.3937e-05
5.40483e-05
5.40571e-05
5.39131e-05
5.35285e-05
5.28352e-05
5.17288e-05
5.01686e-05
4.83175e-05
4.61106e-05
4.35325e-05
4.05952e-05
3.73287e-05
3.37697e-05
2.99749e-05
2.60217e-05
2.20259e-05
1.81321e-05
1.44847e-05
1.12243e-05
8.42678e-06
5.98523e-06
3.52436e-06
9.21004e-07
6.99151e-09
1.1289e-08
1.5354e-06
6.71034e-06
1.22773e-05
1.6555e-05
1.967e-05
2.19848e-05
2.37741e-05
2.52124e-05
2.64067e-05
2.74265e-05
2.83228e-05
2.91368e-05
2.98991e-05
3.06282e-05
3.13286e-05
3.19922e-05
3.26027e-05
3.31393e-05
3.35855e-05
3.39351e-05
3.41938e-05
3.43796e-05
3.45201e-05
3.46496e-05
3.48053e-05
3.5022e-05
3.53293e-05
3.57475e-05
3.6286e-05
3.68781e-05
3.76621e-05
3.86168e-05
3.96206e-05
4.07081e-05
4.18265e-05
4.2962e-05
4.41047e-05
4.52294e-05
4.63247e-05
4.73799e-05
4.83885e-05
4.93468e-05
5.02526e-05
5.10997e-05
5.18852e-05
5.26043e-05
5.32472e-05
5.38463e-05
5.43964e-05
5.48941e-05
5.53345e-05
5.5712e-05
5.60168e-05
5.62291e-05
5.63293e-05
5.62911e-05
5.59682e-05
5.55576e-05
5.50827e-05
5.43917e-05
5.35971e-05
5.26062e-05
5.10629e-05
4.9073e-05
4.67266e-05
4.4024e-05
4.09786e-05
3.75961e-05
3.39158e-05
3.00065e-05
2.5968e-05
2.19296e-05
1.80416e-05
1.44518e-05
1.12347e-05
8.25001e-06
4.97454e-06
1.29706e-06
9.70953e-09
1.60507e-08
2.17182e-06
9.03387e-06
1.60737e-05
2.13537e-05
2.51241e-05
2.78565e-05
2.98995e-05
3.14773e-05
3.27323e-05
3.37614e-05
3.46383e-05
3.54216e-05
3.6154e-05
3.68585e-05
3.75379e-05
3.81784e-05
3.87578e-05
3.92538e-05
3.96526e-05
3.99532e-05
4.01692e-05
4.03265e-05
4.04598e-05
4.0608e-05
4.08082e-05
4.10913e-05
4.1478e-05
4.19726e-05
4.25014e-05
4.32275e-05
4.40259e-05
4.48883e-05
4.57668e-05
4.66555e-05
4.75273e-05
4.83733e-05
4.9178e-05
4.99205e-05
5.06101e-05
5.12523e-05
5.18469e-05
5.23953e-05
5.29003e-05
5.33658e-05
5.37849e-05
5.41349e-05
5.44321e-05
5.46998e-05
5.4934e-05
5.51348e-05
5.53004e-05
5.54281e-05
5.55135e-05
5.55501e-05
5.55301e-05
5.54433e-05
5.52793e-05
5.49431e-05
5.44139e-05
5.3865e-05
5.27589e-05
5.18148e-05
5.08669e-05
4.95952e-05
4.76369e-05
4.53401e-05
4.26894e-05
3.96363e-05
3.62053e-05
3.24586e-05
2.84914e-05
2.44317e-05
2.0437e-05
1.6668e-05
1.32084e-05
9.8882e-06
6.05848e-06
1.6021e-06
1.20958e-08
2.17186e-08
2.85312e-06
1.13569e-05
1.97258e-05
2.58713e-05
3.01825e-05
3.32335e-05
3.54425e-05
3.70833e-05
3.83362e-05
3.93288e-05
4.01585e-05
4.08994e-05
4.16002e-05
4.22815e-05
4.29385e-05
4.35494e-05
4.4087e-05
4.45293e-05
4.4867e-05
4.51064e-05
4.52689e-05
4.53871e-05
4.54994e-05
4.56437e-05
4.58514e-05
4.61416e-05
4.65179e-05
4.68955e-05
4.74408e-05
4.80268e-05
4.86363e-05
4.92471e-05
4.98325e-05
5.03652e-05
5.0855e-05
5.13148e-05
5.17534e-05
5.21967e-05
5.25901e-05
5.29119e-05
5.31621e-05
5.33362e-05
5.34341e-05
5.34713e-05
5.34789e-05
5.34818e-05
5.34808e-05
5.3457e-05
5.34158e-05
5.33591e-05
5.32887e-05
5.32066e-05
5.31142e-05
5.30121e-05
5.28994e-05
5.27733e-05
5.26258e-05
5.24412e-05
5.2213e-05
5.17918e-05
5.13015e-05
5.06951e-05
4.9375e-05
4.85309e-05
4.7447e-05
4.56667e-05
4.35361e-05
4.09066e-05
3.77996e-05
3.42713e-05
3.04111e-05
2.63485e-05
2.22516e-05
1.83042e-05
1.46214e-05
1.10416e-05
6.839e-06
1.8482e-06
1.41986e-08
2.81932e-08
3.57139e-06
1.36513e-05
2.3238e-05
3.01517e-05
3.4919e-05
3.82116e-05
4.05174e-05
4.21629e-05
4.33701e-05
4.42992e-05
4.50697e-05
4.5766e-05
4.64356e-05
4.70906e-05
4.77157e-05
4.82812e-05
4.87572e-05
4.91244e-05
4.93796e-05
4.95368e-05
4.9624e-05
4.96776e-05
4.97355e-05
4.98297e-05
4.998e-05
5.01906e-05
5.03626e-05
5.06627e-05
5.09919e-05
5.13178e-05
5.16071e-05
5.18817e-05
5.21635e-05
5.24928e-05
5.2789e-05
5.30233e-05
5.31849e-05
5.32258e-05
5.31567e-05
5.30533e-05
5.29213e-05
5.27619e-05
5.25938e-05
5.24285e-05
5.22491e-05
5.20609e-05
5.18605e-05
5.1645e-05
5.14175e-05
5.118e-05
5.09358e-05
5.06894e-05
5.04462e-05
5.02125e-05
4.99948e-05
4.97977e-05
4.96246e-05
4.94728e-05
4.93338e-05
4.91868e-05
4.90182e-05
4.86162e-05
4.81306e-05
4.73094e-05
4.6277e-05
4.5404e-05
4.39137e-05
4.1793e-05
3.90921e-05
3.58543e-05
3.21536e-05
2.81121e-05
2.39032e-05
1.97354e-05
1.57745e-05
1.19201e-05
7.4429e-06
2.06907e-06
1.62556e-08
3.53985e-08
4.31197e-06
1.58915e-05
2.66041e-05
3.42115e-05
3.93691e-05
4.28434e-05
4.51932e-05
4.68015e-05
4.7935e-05
4.87864e-05
4.94931e-05
5.01434e-05
5.07776e-05
5.13957e-05
5.19715e-05
5.24693e-05
5.2859e-05
5.31258e-05
5.32734e-05
5.33226e-05
5.33057e-05
5.32594e-05
5.32168e-05
5.31978e-05
5.32095e-05
5.31519e-05
5.31999e-05
5.32506e-05
5.32779e-05
5.33437e-05
5.35012e-05
5.36532e-05
5.37551e-05
5.37564e-05
5.36134e-05
5.3408e-05
5.31581e-05
5.28881e-05
5.26436e-05
5.23918e-05
5.22111e-05
5.20095e-05
5.17562e-05
5.15342e-05
5.13127e-05
5.10767e-05
5.08233e-05
5.0549e-05
5.02508e-05
4.99272e-05
4.95776e-05
4.92045e-05
4.88131e-05
4.8412e-05
4.80138e-05
4.76356e-05
4.72977e-05
4.70166e-05
4.67973e-05
4.66325e-05
4.65099e-05
4.64281e-05
4.63337e-05
4.58327e-05
4.53278e-05
4.42568e-05
4.36445e-05
4.23206e-05
4.01262e-05
3.72883e-05
3.38483e-05
2.99062e-05
2.56261e-05
2.12281e-05
1.69309e-05
1.27377e-05
8.00481e-06
2.30666e-06
1.86511e-08
4.32342e-08
5.06021e-06
1.80562e-05
2.98139e-05
3.80533e-05
4.35485e-05
4.71581e-05
4.95134e-05
5.10567e-05
5.21007e-05
5.28677e-05
5.35083e-05
5.41084e-05
5.46972e-05
5.52617e-05
5.57661e-05
5.61709e-05
5.64483e-05
5.65888e-05
5.66029e-05
5.65163e-05
5.63633e-05
5.6178e-05
5.59888e-05
5.57688e-05
5.54467e-05
5.52742e-05
5.50622e-05
5.49073e-05
5.49013e-05
5.48592e-05
5.47389e-05
5.44828e-05
5.41485e-05
5.37605e-05
5.34119e-05
5.30734e-05
5.27553e-05
5.24773e-05
5.22484e-05
5.20563e-05
5.18863e-05
5.176e-05
5.1697e-05
5.15271e-05
5.14017e-05
5.1245e-05
5.10544e-05
5.08242e-05
5.05476e-05
5.02204e-05
4.98376e-05
4.93964e-05
4.88951e-05
4.83351e-05
4.77225e-05
4.70749e-05
4.64237e-05
4.5818e-05
4.53076e-05
4.49002e-05
4.45475e-05
4.43449e-05
4.42471e-05
4.4202e-05
4.38727e-05
4.33215e-05
4.25676e-05
4.19775e-05
4.07721e-05
3.84621e-05
3.54234e-05
3.17153e-05
2.74745e-05
2.29105e-05
1.82735e-05
1.36799e-05
8.64543e-06
2.60459e-06
2.18925e-08
5.1616e-08
5.80465e-06
2.01299e-05
3.28562e-05
4.16739e-05
4.74638e-05
5.11732e-05
5.35077e-05
5.49696e-05
5.59164e-05
5.65965e-05
5.7168e-05
5.77102e-05
5.82394e-05
5.873e-05
5.91391e-05
5.9426e-05
5.95662e-05
5.95563e-05
5.94125e-05
5.91639e-05
5.88444e-05
5.84635e-05
5.79488e-05
5.74916e-05
5.70694e-05
5.66669e-05
5.64575e-05
5.61993e-05
5.58723e-05
5.54133e-05
5.48898e-05
5.44021e-05
5.39291e-05
5.34899e-05
5.31271e-05
5.28381e-05
5.26249e-05
5.24911e-05
5.2428e-05
5.24101e-05
5.24504e-05
5.24957e-05
5.25849e-05
5.26138e-05
5.26351e-05
5.2617e-05
5.25551e-05
5.24451e-05
5.22746e-05
5.20362e-05
5.17216e-05
5.13236e-05
5.08356e-05
5.0251e-05
4.95551e-05
4.87383e-05
4.77954e-05
4.67374e-05
4.56135e-05
4.45413e-05
4.36999e-05
4.30666e-05
4.26408e-05
4.23842e-05
4.23035e-05
4.21621e-05
4.16238e-05
4.09812e-05
4.03731e-05
3.91952e-05
3.67044e-05
3.33939e-05
2.93557e-05
2.47646e-05
1.98692e-05
1.48732e-05
9.44946e-06
3.00228e-06
2.66313e-08
6.04161e-08
6.53427e-06
2.21023e-05
3.57187e-05
4.5068e-05
5.11173e-05
5.49007e-05
5.71978e-05
5.85704e-05
5.9418e-05
6.00102e-05
6.05082e-05
6.0982e-05
6.14348e-05
6.18306e-05
6.21215e-05
6.22675e-05
6.22488e-05
6.2068e-05
6.17468e-05
6.13178e-05
6.07052e-05
5.99738e-05
5.94016e-05
5.87274e-05
5.82415e-05
5.78005e-05
5.72832e-05
5.66351e-05
5.59496e-05
5.53098e-05
5.46896e-05
5.41488e-05
5.37006e-05
5.33599e-05
5.31463e-05
5.30528e-05
5.30684e-05
5.31669e-05
5.34013e-05
5.36065e-05
5.37693e-05
5.41137e-05
5.43265e-05
5.45145e-05
5.46612e-05
5.47514e-05
5.47807e-05
5.47386e-05
5.46187e-05
5.4417e-05
5.41292e-05
5.3751e-05
5.32775e-05
5.2708e-05
5.20255e-05
5.12198e-05
5.02783e-05
4.91878e-05
4.79445e-05
4.65635e-05
4.50465e-05
4.34584e-05
4.21661e-05
4.13653e-05
4.08863e-05
4.06901e-05
4.06313e-05
4.00743e-05
3.94359e-05
3.8802e-05
3.75033e-05
3.47437e-05
3.10877e-05
2.66565e-05
2.16572e-05
1.63327e-05
1.04764e-05
3.53086e-06
3.37015e-08
6.95091e-08
7.24039e-06
2.3958e-05
3.83927e-05
4.8231e-05
5.45104e-05
5.83498e-05
6.06008e-05
6.18826e-05
6.26321e-05
6.31359e-05
6.35545e-05
6.39479e-05
6.43073e-05
6.45885e-05
6.47408e-05
6.47268e-05
6.45317e-05
6.4164e-05
6.36465e-05
6.28388e-05
6.1943e-05
6.12245e-05
6.03511e-05
5.97107e-05
5.90356e-05
5.82268e-05
5.73624e-05
5.65373e-05
5.5747e-05
5.50534e-05
5.44661e-05
5.40255e-05
5.37458e-05
5.36293e-05
5.36725e-05
5.38491e-05
5.41962e-05
5.46127e-05
5.49227e-05
5.53559e-05
5.58367e-05
5.62398e-05
5.65833e-05
5.68682e-05
5.70842e-05
5.72207e-05
5.72735e-05
5.72372e-05
5.71106e-05
5.68936e-05
5.65864e-05
5.61879e-05
5.5693e-05
5.50889e-05
5.43785e-05
5.35616e-05
5.26339e-05
5.15818e-05
5.03683e-05
4.8983e-05
4.74706e-05
4.58106e-05
4.39451e-05
4.19505e-05
4.04067e-05
3.96325e-05
3.92343e-05
3.91372e-05
3.856e-05
3.79054e-05
3.72223e-05
3.55831e-05
3.24656e-05
2.83946e-05
2.34828e-05
1.797e-05
1.17351e-05
4.19679e-06
4.4052e-08
7.87684e-08
7.91588e-06
2.56853e-05
4.08723e-05
5.11593e-05
5.76449e-05
6.15284e-05
6.37309e-05
6.49245e-05
6.55791e-05
6.59939e-05
6.63267e-05
6.66277e-05
6.68778e-05
6.7027e-05
6.70239e-05
6.68346e-05
6.64502e-05
6.58796e-05
6.49452e-05
6.38896e-05
6.30491e-05
6.20162e-05
6.11644e-05
6.02192e-05
5.91733e-05
5.81625e-05
5.71738e-05
5.6273e-05
5.54897e-05
5.48741e-05
5.44466e-05
5.42273e-05
5.42145e-05
5.43901e-05
5.47562e-05
5.53224e-05
5.58548e-05
5.63321e-05
5.69755e-05
5.7629e-05
5.81987e-05
5.86998e-05
5.91304e-05
5.94781e-05
5.9735e-05
5.98938e-05
5.99509e-05
5.99039e-05
5.97525e-05
5.9498e-05
5.91423e-05
5.86888e-05
5.81417e-05
5.74973e-05
5.6738e-05
5.58449e-05
5.48212e-05
5.36772e-05
5.24133e-05
5.10545e-05
4.95765e-05
4.80262e-05
4.62675e-05
4.43017e-05
4.20568e-05
3.97387e-05
3.84829e-05
3.78723e-05
3.76346e-05
3.7042e-05
3.637e-05
3.55677e-05
3.33171e-05
2.97959e-05
2.516e-05
1.96341e-05
1.31576e-05
4.97842e-06
5.85807e-08
8.80676e-08
8.55458e-06
2.72766e-05
4.31517e-05
5.38505e-05
6.05231e-05
6.44444e-05
6.66005e-05
6.77115e-05
6.82753e-05
6.86006e-05
6.88415e-05
6.90388e-05
6.9166e-05
6.9169e-05
6.89973e-05
6.86223e-05
6.80413e-05
6.70657e-05
6.5838e-05
6.49064e-05
6.37249e-05
6.2665e-05
6.14868e-05
6.02426e-05
5.9043e-05
5.79119e-05
5.68847e-05
5.6018e-05
5.53542e-05
5.49302e-05
5.47572e-05
5.48302e-05
5.51246e-05
5.56917e-05
5.64197e-05
5.7062e-05
5.77308e-05
5.85315e-05
5.93775e-05
6.01157e-05
6.07859e-05
6.13764e-05
6.18787e-05
6.22819e-05
6.25791e-05
6.27647e-05
6.28354e-05
6.27897e-05
6.26278e-05
6.23513e-05
6.19627e-05
6.14652e-05
6.08614e-05
6.01606e-05
5.93935e-05
5.85531e-05
5.75744e-05
5.63923e-05
5.50067e-05
5.34609e-05
5.17295e-05
4.98851e-05
4.81065e-05
4.63557e-05
4.43585e-05
4.20084e-05
3.93113e-05
3.73592e-05
3.65405e-05
3.60084e-05
3.55157e-05
3.47966e-05
3.35806e-05
3.07334e-05
2.65259e-05
2.11634e-05
1.46224e-05
5.82761e-06
7.78476e-08
9.72844e-08
9.15138e-06
2.8726e-05
4.52268e-05
5.6304e-05
6.31486e-05
6.71058e-05
6.92208e-05
7.02568e-05
7.07349e-05
7.09705e-05
7.11138e-05
7.11984e-05
7.11916e-05
7.10373e-05
7.06867e-05
7.01191e-05
6.92049e-05
6.78457e-05
6.67877e-05
6.55065e-05
6.42662e-05
6.28773e-05
6.14478e-05
6.00629e-05
5.87675e-05
5.76062e-05
5.6634e-05
5.59039e-05
5.54535e-05
5.52995e-05
5.54317e-05
5.58198e-05
5.65481e-05
5.74259e-05
5.82015e-05
5.90205e-05
5.99563e-05
6.10048e-05
6.19292e-05
6.27746e-05
6.35437e-05
6.42208e-05
6.47962e-05
6.52602e-05
6.56058e-05
6.58274e-05
6.59215e-05
6.58861e-05
6.57212e-05
6.54287e-05
6.50122e-05
6.44766e-05
6.38275e-05
6.30704e-05
6.22075e-05
6.12517e-05
6.0243e-05
5.91837e-05
5.79654e-05
5.6442e-05
5.46458e-05
5.2617e-05
5.03691e-05
4.81133e-05
4.60767e-05
4.41048e-05
4.15865e-05
3.86766e-05
3.61301e-05
3.50399e-05
3.43549e-05
3.40192e-05
3.27864e-05
3.11448e-05
2.7467e-05
2.24355e-05
1.59661e-05
6.66948e-06
1.01836e-07
1.06296e-07
9.70206e-06
3.00294e-05
4.70952e-05
5.85205e-05
6.55262e-05
6.95205e-05
7.16025e-05
7.25722e-05
7.29702e-05
7.31167e-05
7.31584e-05
7.31231e-05
7.29745e-05
7.2655e-05
7.2112e-05
7.13046e-05
6.9926e-05
6.86719e-05
6.7398e-05
6.59947e-05
6.44337e-05
6.28204e-05
6.12489e-05
5.97754e-05
5.84564e-05
5.73521e-05
5.65221e-05
5.601e-05
5.58355e-05
5.59896e-05
5.64374e-05
5.72752e-05
5.82834e-05
5.92185e-05
6.01897e-05
6.12555e-05
6.2416e-05
6.35833e-05
6.46121e-05
6.55705e-05
6.64402e-05
6.72078e-05
6.78627e-05
6.83955e-05
6.8798e-05
6.9064e-05
6.91885e-05
6.91686e-05
6.90034e-05
6.86944e-05
6.82455e-05
6.76628e-05
6.69546e-05
6.61304e-05
6.51991e-05
6.41683e-05
6.30387e-05
6.18251e-05
6.05975e-05
5.92954e-05
5.77217e-05
5.57333e-05
5.34492e-05
5.0816e-05
4.81466e-05
4.56723e-05
4.34625e-05
4.09261e-05
3.77467e-05
3.48529e-05
3.35151e-05
3.25532e-05
3.20322e-05
3.06767e-05
2.79251e-05
2.33404e-05
1.70855e-05
7.42277e-06
1.29706e-07
1.14979e-07
1.02033e-05
3.11847e-05
4.87561e-05
6.05026e-05
6.76617e-05
7.16972e-05
7.37558e-05
7.4669e-05
7.49932e-05
7.50521e-05
7.49896e-05
7.48299e-05
7.45351e-05
7.40504e-05
7.33285e-05
7.20709e-05
7.05655e-05
6.93862e-05
6.78581e-05
6.61724e-05
6.43853e-05
6.26286e-05
6.09654e-05
5.94641e-05
5.8195e-05
5.7225e-05
5.66064e-05
5.63647e-05
5.64944e-05
5.69603e-05
5.78521e-05
5.89722e-05
6.00528e-05
6.11733e-05
6.23913e-05
6.36593e-05
6.49662e-05
6.62514e-05
6.74006e-05
6.84735e-05
6.94475e-05
7.03105e-05
7.10511e-05
7.16592e-05
7.21256e-05
7.24427e-05
7.26042e-05
7.26055e-05
7.24443e-05
7.21208e-05
7.1638e-05
7.10024e-05
7.02236e-05
6.93144e-05
6.8289e-05
6.71619e-05
6.59448e-05
6.46435e-05
6.32507e-05
6.18075e-05
6.04068e-05
5.8774e-05
5.66406e-05
5.4019e-05
5.11495e-05
4.82195e-05
4.526e-05
4.26418e-05
3.99179e-05
3.63884e-05
3.33667e-05
3.1936e-05
3.07182e-05
2.99008e-05
2.79919e-05
2.38416e-05
1.78946e-05
7.99828e-06
1.60303e-07
1.23225e-07
1.06527e-05
3.21907e-05
5.02107e-05
6.22543e-05
6.95618e-05
7.36448e-05
7.56908e-05
7.6558e-05
7.68152e-05
7.67892e-05
7.66219e-05
7.6335e-05
7.58893e-05
7.52315e-05
7.42544e-05
7.26336e-05
7.13177e-05
6.98466e-05
6.80818e-05
6.61531e-05
6.42223e-05
6.23654e-05
6.06623e-05
5.91952e-05
5.80423e-05
5.72669e-05
5.69048e-05
5.69564e-05
5.73896e-05
5.8271e-05
5.94784e-05
6.07143e-05
6.19257e-05
6.32844e-05
6.47112e-05
6.61621e-05
6.75805e-05
6.89692e-05
7.02609e-05
7.14497e-05
7.25302e-05
7.34906e-05
7.43196e-05
7.50064e-05
7.55412e-05
7.59151e-05
7.61205e-05
7.61511e-05
7.60027e-05
7.56733e-05
7.51643e-05
7.44805e-05
7.36312e-05
7.263e-05
7.14947e-05
7.02457e-05
6.89039e-05
6.74872e-05
6.60059e-05
6.44585e-05
6.28321e-05
6.12802e-05
5.9554e-05
5.71617e-05
5.42344e-05
5.12773e-05
4.80562e-05
4.46798e-05
4.15619e-05
3.85319e-05
3.45993e-05
3.15899e-05
2.98732e-05
2.91751e-05
2.72963e-05
2.39526e-05
1.83471e-05
8.38371e-06
1.92178e-07
1.30939e-07
1.10486e-05
3.30478e-05
5.14616e-05
6.37809e-05
7.12343e-05
7.53724e-05
7.74176e-05
7.82497e-05
7.84478e-05
7.83408e-05
7.80703e-05
7.76577e-05
7.70649e-05
7.62385e-05
7.4841e-05
7.32109e-05
7.18642e-05
7.01328e-05
6.81149e-05
6.6039e-05
6.39974e-05
6.20831e-05
6.03914e-05
5.90147e-05
5.80316e-05
5.74926e-05
5.74097e-05
5.77548e-05
5.8536e-05
5.97865e-05
6.11783e-05
6.24764e-05
6.39283e-05
6.54906e-05
6.70935e-05
6.86935e-05
7.02515e-05
7.17283e-05
7.31317e-05
7.44523e-05
7.56394e-05
7.6695e-05
7.76102e-05
7.83748e-05
7.8979e-05
7.94133e-05
7.96692e-05
7.97389e-05
7.96161e-05
7.92964e-05
7.8778e-05
7.80629e-05
7.71575e-05
7.6074e-05
7.48304e-05
7.34504e-05
7.19614e-05
7.03919e-05
6.87664e-05
6.70991e-05
6.53876e-05
6.36068e-05
6.19023e-05
6.00412e-05
5.73416e-05
5.41126e-05
5.10966e-05
4.75213e-05
4.37638e-05
4.0176e-05
3.67532e-05
3.2437e-05
2.96125e-05
2.75887e-05
2.66309e-05
2.38725e-05
1.852e-05
8.62569e-06
2.24515e-07
1.38045e-07
1.13903e-05
3.37579e-05
5.25128e-05
6.50888e-05
7.26874e-05
7.68897e-05
7.89463e-05
7.97549e-05
7.99022e-05
7.97195e-05
7.93486e-05
7.88104e-05
7.80646e-05
7.70379e-05
7.53019e-05
7.38332e-05
7.22912e-05
7.02438e-05
6.80696e-05
6.58708e-05
6.37524e-05
6.18226e-05
6.01892e-05
5.89488e-05
5.81723e-05
5.78912e-05
5.80926e-05
5.87288e-05
5.99087e-05
6.1375e-05
6.2841e-05
6.43355e-05
6.5998e-05
6.77372e-05
6.94944e-05
7.12295e-05
7.29094e-05
7.45101e-05
7.60011e-05
7.74033e-05
7.87117e-05
7.9858e-05
8.08521e-05
8.16888e-05
8.23592e-05
8.28543e-05
8.31652e-05
8.32834e-05
8.32007e-05
8.291e-05
8.2406e-05
8.16861e-05
8.07522e-05
7.96122e-05
7.82808e-05
7.6781e-05
7.51433e-05
7.34036e-05
7.15992e-05
6.97616e-05
6.79086e-05
6.60351e-05
6.4106e-05
6.22668e-05
6.01217e-05
5.70396e-05
5.3784e-05
5.0515e-05
4.65168e-05
4.23656e-05
3.84496e-05
3.43682e-05
3.00608e-05
2.72043e-05
2.60001e-05
2.35555e-05
1.85165e-05
8.83396e-06
2.59191e-07
1.44478e-07
1.16777e-05
3.43237e-05
5.33696e-05
6.61855e-05
7.39304e-05
7.82065e-05
8.02872e-05
8.10839e-05
8.11897e-05
8.09382e-05
8.04728e-05
7.98189e-05
7.89476e-05
7.75964e-05
7.57738e-05
7.43582e-05
7.25066e-05
7.02856e-05
6.79761e-05
6.56821e-05
6.35207e-05
6.1614e-05
6.00779e-05
5.90072e-05
5.84584e-05
5.84387e-05
5.89085e-05
5.9889e-05
6.13552e-05
6.29735e-05
6.4523e-05
6.62412e-05
6.80862e-05
6.99816e-05
7.18766e-05
7.37342e-05
7.55254e-05
7.72283e-05
7.88259e-05
8.0281e-05
8.16605e-05
8.29062e-05
8.39687e-05
8.48667e-05
8.55955e-05
8.61475e-05
8.65147e-05
8.66884e-05
8.66592e-05
8.64175e-05
8.59543e-05
8.5262e-05
8.43364e-05
8.31785e-05
8.17966e-05
8.02089e-05
7.8444e-05
7.65409e-05
7.45462e-05
7.25075e-05
7.04648e-05
6.84388e-05
6.64195e-05
6.43554e-05
6.24349e-05
5.98681e-05
5.63646e-05
5.31626e-05
4.94956e-05
4.49798e-05
4.05292e-05
3.61927e-05
3.13956e-05
2.74083e-05
2.45256e-05
2.30347e-05
1.84808e-05
9.15948e-06
3.00708e-07
1.50187e-07
1.19112e-05
3.47492e-05
5.40383e-05
6.70791e-05
7.49725e-05
7.93328e-05
8.14505e-05
8.22475e-05
8.23219e-05
8.20095e-05
8.1456e-05
8.06875e-05
7.96674e-05
7.80107e-05
7.62661e-05
7.47975e-05
7.26286e-05
7.02783e-05
6.78612e-05
6.55002e-05
6.33273e-05
6.14762e-05
6.00666e-05
5.91859e-05
5.88719e-05
5.91091e-05
5.98421e-05
6.11601e-05
6.28151e-05
6.45215e-05
6.62412e-05
6.81493e-05
7.01533e-05
7.21867e-05
7.42036e-05
7.61694e-05
7.80572e-05
7.98464e-05
8.15208e-05
8.30435e-05
8.44271e-05
8.57628e-05
8.68843e-05
8.78296e-05
8.86046e-05
8.92053e-05
8.96256e-05
8.98577e-05
8.98919e-05
8.97169e-05
8.93204e-05
8.86896e-05
8.78133e-05
8.66842e-05
8.53014e-05
8.36742e-05
8.18245e-05
7.97886e-05
7.76166e-05
7.53678e-05
7.31023e-05
7.08683e-05
6.86878e-05
6.65432e-05
6.43657e-05
6.22654e-05
5.91347e-05
5.556e-05
5.21323e-05
4.79549e-05
4.28266e-05
3.80409e-05
3.33926e-05
2.81581e-05
2.431e-05
2.25797e-05
1.85403e-05
9.66371e-06
3.53162e-07
1.55136e-07
1.20922e-05
3.50393e-05
5.45263e-05
6.77784e-05
7.58235e-05
8.02788e-05
8.24465e-05
8.32563e-05
8.33099e-05
8.29458e-05
8.23118e-05
8.14353e-05
8.02768e-05
7.84071e-05
7.67775e-05
7.5041e-05
7.27141e-05
7.02496e-05
6.77487e-05
6.53467e-05
6.31892e-05
6.14187e-05
6.01548e-05
5.9473e-05
5.93905e-05
5.9869e-05
6.08729e-05
6.24498e-05
6.42488e-05
6.60464e-05
6.79521e-05
7.00225e-05
7.21645e-05
7.43179e-05
7.64392e-05
7.84954e-05
8.04604e-05
8.23139e-05
8.40394e-05
8.56233e-05
8.70306e-05
8.8352e-05
8.95315e-05
9.05084e-05
9.1314e-05
9.1951e-05
9.24166e-05
9.2705e-05
9.28076e-05
9.27125e-05
9.24047e-05
9.18669e-05
9.1081e-05
9.00302e-05
8.87027e-05
8.70957e-05
8.52196e-05
8.31022e-05
8.07905e-05
7.8349e-05
7.58528e-05
7.3375e-05
7.09691e-05
6.86524e-05
6.63936e-05
6.41888e-05
6.16549e-05
5.79453e-05
5.44942e-05
5.06331e-05
4.57237e-05
4.00494e-05
3.49141e-05
2.95045e-05
2.47177e-05
2.1792e-05
1.86623e-05
1.01841e-05
4.1466e-07
1.59306e-07
1.22222e-05
3.51997e-05
5.48416e-05
6.82926e-05
7.64936e-05
8.10549e-05
8.32859e-05
8.41215e-05
8.41667e-05
8.3763e-05
8.30647e-05
8.21107e-05
8.07618e-05
7.87137e-05
7.72695e-05
7.52082e-05
7.2779e-05
7.02211e-05
6.76579e-05
6.52371e-05
6.31161e-05
6.14432e-05
6.03338e-05
5.98484e-05
5.99833e-05
6.06805e-05
6.19615e-05
6.37186e-05
6.56398e-05
6.75407e-05
6.96189e-05
7.18279e-05
7.40878e-05
7.6342e-05
7.85485e-05
8.06748e-05
8.26956e-05
8.45912e-05
8.63469e-05
8.79534e-05
8.9378e-05
9.06499e-05
9.18559e-05
9.28485e-05
9.36671e-05
9.43245e-05
9.48231e-05
9.51609e-05
9.53313e-05
9.53232e-05
9.51204e-05
9.4702e-05
9.40434e-05
9.31187e-05
9.1904e-05
9.03821e-05
8.85482e-05
8.64161e-05
8.40227e-05
8.14303e-05
7.87224e-05
7.59926e-05
7.3326e-05
7.07753e-05
6.83372e-05
6.59366e-05
6.36857e-05
6.04281e-05
5.66365e-05
5.30458e-05
4.85865e-05
4.26095e-05
3.67942e-05
3.13326e-05
2.54632e-05
2.08904e-05
1.85303e-05
1.0553e-05
4.79709e-07
1.62691e-07
1.23034e-05
3.52369e-05
5.49929e-05
6.86316e-05
7.69932e-05
8.16727e-05
8.39814e-05
8.48579e-05
8.49114e-05
8.44902e-05
8.37717e-05
8.27379e-05
8.10926e-05
7.91587e-05
7.76189e-05
7.53567e-05
7.28408e-05
7.02094e-05
6.7603e-05
6.51816e-05
6.3112e-05
6.15454e-05
6.05905e-05
6.02923e-05
6.06285e-05
6.15303e-05
6.30443e-05
6.49421e-05
6.69583e-05
6.89901e-05
7.12107e-05
7.35363e-05
7.58939e-05
7.82289e-05
8.04999e-05
8.26749e-05
8.47288e-05
8.66427e-05
8.8403e-05
9.0001e-05
9.14317e-05
9.26562e-05
9.38119e-05
9.48123e-05
9.56259e-05
9.62854e-05
9.68013e-05
9.71767e-05
9.74088e-05
9.74885e-05
9.74e-05
9.71203e-05
9.66195e-05
9.58633e-05
9.48154e-05
9.34432e-05
9.17241e-05
8.96532e-05
8.7251e-05
8.45695e-05
8.16922e-05
7.87272e-05
7.57891e-05
7.29735e-05
7.03278e-05
6.78312e-05
6.53932e-05
6.27116e-05
5.87406e-05
5.51116e-05
5.11059e-05
4.55029e-05
3.87078e-05
3.27619e-05
2.66926e-05
2.11829e-05
1.83158e-05
1.0995e-05
5.49704e-07
1.65297e-07
1.23383e-05
3.51578e-05
5.49893e-05
6.88055e-05
7.73348e-05
8.21478e-05
8.45553e-05
8.54968e-05
8.56111e-05
8.51952e-05
8.43812e-05
8.31631e-05
8.14017e-05
7.95693e-05
7.78883e-05
7.55053e-05
7.29148e-05
7.02276e-05
6.75944e-05
6.51858e-05
6.31761e-05
6.17173e-05
6.091e-05
6.0784e-05
6.13026e-05
6.23884e-05
6.40852e-05
6.60972e-05
6.82025e-05
7.03639e-05
7.27009e-05
7.51218e-05
7.75567e-05
7.99521e-05
8.22668e-05
8.44692e-05
8.65345e-05
8.84448e-05
9.01882e-05
9.17593e-05
9.31578e-05
9.43449e-05
9.53998e-05
9.63814e-05
9.71712e-05
9.78136e-05
9.83286e-05
9.8726e-05
9.90084e-05
9.91705e-05
9.91986e-05
9.90689e-05
9.87483e-05
9.81948e-05
9.73611e-05
9.61987e-05
9.46656e-05
9.2735e-05
9.04054e-05
8.77108e-05
8.47254e-05
8.1562e-05
7.83571e-05
7.52434e-05
7.23128e-05
6.95795e-05
6.69547e-05
6.44719e-05
6.08743e-05
5.69083e-05
5.33758e-05
4.81956e-05
4.1113e-05
3.43994e-05
2.80617e-05
2.17343e-05
1.80694e-05
1.14951e-05
6.19319e-07
1.67145e-07
1.23298e-05
3.497e-05
5.48402e-05
6.88252e-05
7.75364e-05
8.25143e-05
8.50887e-05
8.61151e-05
8.62157e-05
8.56913e-05
8.47602e-05
8.35337e-05
8.17396e-05
7.99477e-05
7.81207e-05
7.56618e-05
7.30128e-05
7.02857e-05
6.76389e-05
6.52519e-05
6.33049e-05
6.19489e-05
6.12762e-05
6.13033e-05
6.19802e-05
6.32264e-05
6.50611e-05
6.71689e-05
6.93609e-05
7.16365e-05
7.40668e-05
7.65625e-05
7.90552e-05
8.14908e-05
8.38276e-05
8.60378e-05
8.8095e-05
8.99816e-05
9.16879e-05
9.32109e-05
9.45534e-05
9.56937e-05
9.66344e-05
9.75504e-05
9.83021e-05
9.89081e-05
9.94025e-05
9.98038e-05
0.000100121
0.000100355
0.000100495
0.000100519
0.000100392
0.000100066
9.94849e-05
9.85843e-05
9.73026e-05
9.55891e-05
9.34164e-05
9.07934e-05
8.77765e-05
8.4473e-05
8.1033e-05
7.76248e-05
7.43944e-05
7.14215e-05
6.86863e-05
6.60592e-05
6.29526e-05
5.86549e-05
5.52477e-05
5.06606e-05
4.38479e-05
3.61048e-05
2.9481e-05
2.25638e-05
1.74712e-05
1.20341e-05
6.81665e-07
1.68269e-07
1.22808e-05
3.468e-05
5.45509e-05
6.86991e-05
7.76406e-05
8.27933e-05
8.54183e-05
8.64439e-05
8.65188e-05
8.60161e-05
8.51518e-05
8.39438e-05
8.20426e-05
8.02964e-05
7.83421e-05
7.58353e-05
7.31443e-05
7.03911e-05
6.77408e-05
6.538e-05
6.34931e-05
6.22297e-05
6.1674e-05
6.1831e-05
6.26386e-05
6.40226e-05
6.59565e-05
6.81443e-05
7.04179e-05
7.27872e-05
7.52901e-05
7.78422e-05
8.03768e-05
8.28321e-05
8.51609e-05
8.73679e-05
8.94006e-05
9.12465e-05
9.28973e-05
9.43521e-05
9.56309e-05
9.67058e-05
9.7559e-05
9.83373e-05
9.90342e-05
9.95851e-05
0.000100039
0.000100425
0.000100759
0.00010105
0.000101291
0.000101464
0.000101536
0.000101453
0.000101152
0.000100555
9.95816e-05
9.81555e-05
9.6221e-05
9.37571e-05
9.07938e-05
8.74222e-05
8.37945e-05
8.01037e-05
7.6543e-05
7.32501e-05
7.02569e-05
6.74661e-05
6.47321e-05
6.05543e-05
5.67852e-05
5.28133e-05
4.63857e-05
3.80229e-05
3.09108e-05
2.37599e-05
1.73565e-05
1.25155e-05
7.30202e-07
1.68652e-07
1.21933e-05
3.42874e-05
5.41082e-05
6.84483e-05
7.75793e-05
8.28307e-05
8.55542e-05
8.66818e-05
8.68547e-05
8.64276e-05
8.55462e-05
8.42701e-05
8.23406e-05
8.06212e-05
7.8569e-05
7.60339e-05
7.33166e-05
7.05492e-05
6.79024e-05
6.55686e-05
6.37349e-05
6.25494e-05
6.20898e-05
6.23518e-05
6.32652e-05
6.4753e-05
6.6759e-05
6.90114e-05
7.13579e-05
7.37997e-05
7.63566e-05
7.89485e-05
8.14924e-05
8.39434e-05
8.62804e-05
8.84579e-05
9.04504e-05
9.22423e-05
9.38265e-05
9.52029e-05
9.63768e-05
9.73931e-05
9.81639e-05
9.87835e-05
9.93969e-05
9.98749e-05
0.00010027
0.000100621
0.000100953
0.000101282
0.00010161
0.000101923
0.000102189
0.000102356
0.000102352
0.000102089
0.000101468
0.00010039
9.87681e-05
9.65482e-05
9.37269e-05
9.03698e-05
8.6619e-05
8.26825e-05
7.87962e-05
7.51626e-05
7.18811e-05
6.88955e-05
6.60843e-05
6.2407e-05
5.81864e-05
5.46256e-05
4.86885e-05
4.04302e-05
3.20939e-05
2.47427e-05
1.77215e-05
1.29412e-05
7.61888e-07
1.68401e-07
1.2069e-05
3.38054e-05
5.36328e-05
6.81607e-05
7.73936e-05
8.28099e-05
8.56852e-05
8.69345e-05
8.71638e-05
8.67411e-05
8.58472e-05
8.45654e-05
8.26362e-05
8.09294e-05
7.88117e-05
7.62644e-05
7.35349e-05
7.07635e-05
6.81249e-05
6.58156e-05
6.40249e-05
6.28995e-05
6.25124e-05
6.28534e-05
6.38468e-05
6.54043e-05
6.74586e-05
6.97594e-05
7.21673e-05
7.46611e-05
7.7254e-05
7.98562e-05
8.23966e-05
8.48518e-05
8.71658e-05
8.93054e-05
9.12469e-05
9.29753e-05
9.44836e-05
9.5773e-05
9.68513e-05
9.77336e-05
9.84646e-05
9.89378e-05
9.94251e-05
9.98182e-05
0.00010014
0.000100438
0.000100749
0.000101098
0.000101494
0.000101931
0.000102381
0.000102794
0.000103093
0.000103183
0.000102948
0.000102266
0.000101021
9.91231e-05
9.65305e-05
9.32744e-05
8.94755e-05
8.53435e-05
8.11478e-05