/*--------------------------------*- C++ -*----------------------------------*\
  =========                 |
  \\      /  F ield         | OpenFOAM: The Open Source CFD Toolbox
   \\    /   O peration     | Website:  https://openfoam.org
    \\  /    A nd           | Version:  13
     \\/     M anipulation  |
\*---------------------------------------------------------------------------*/
FoamFile
{
    format      ascii;
    class       volScalarField;
    location    "2";
    object      p;
}
// * * * * * * * * * * * * * * * * * * * * * * * * * * * * * * * * * * * * * //

dimensions      [0 2 -2 0 0 0 0];

internalField   nonuniform List<scalar> 
6400
(
1.69687e-08
-2.09004e-07
-9.03073e-06
-2.61384e-05
-5.00412e-05
-7.92215e-05
-0.000112669
-0.000149883
-0.000190855
-0.0002359
-0.000285427
-0.000339925
-0.000399843
-0.000465566
-0.000537398
-0.000615551
-0.000700168
-0.00079136
-0.00088928
-0.000994105
-0.00110608
-0.00122559
-0.00135315
-0.00148926
-0.0016342
-0.00178787
-0.00195001
-0.00212016
-0.00229713
-0.00247898
-0.00266334
-0.00284707
-0.00302577
-0.00319447
-0.0033484
-0.0034828
-0.0035927
-0.00367321
-0.00371947
-0.00372658
-0.00368972
-0.00360431
-0.00346602
-0.00327056
-0.00301428
-0.00269529
-0.00231346
-0.00186723
-0.00135309
-0.000778632
-0.000154738
0.000511983
0.00120859
0.00192111
0.00263314
0.00332711
0.00398217
0.0045764
0.0050899
0.00550579
0.00581107
0.00599837
0.00606717
0.00602444
0.00588425
0.00566465
0.00539651
0.00510442
0.00481406
0.00454508
0.00431135
0.00412373
0.00398139
0.00387862
0.00381033
0.00376899
0.00374715
0.00373906
0.0037404
0.00374699
-4.14822e-08
-4.5343e-07
-8.86312e-06
-2.50079e-05
-4.73857e-05
-7.47826e-05
-0.000106534
-0.000142373
-0.000182271
-0.000226434
-0.000275197
-0.000328977
-0.00038812
-0.000452874
-0.000523409
-0.000599818
-0.000682132
-0.000770356
-0.000864507
-0.000964755
-0.00107145
-0.00118504
-0.00130609
-0.00143518
-0.00157285
-0.00171943
-0.00187476
-0.00203823
-0.00220895
-0.0023856
-0.00256602
-0.00274744
-0.00292668
-0.0030995
-0.00326058
-0.00340457
-0.00352635
-0.0036206
-0.00368211
-0.00370588
-0.00368689
-0.00362009
-0.00350055
-0.00332407
-0.00308742
-0.00278847
-0.00242585
-0.00199782
-0.0015067
-0.000959348
-0.000360211
0.000281979
0.000955244
0.0016458
0.00233724
0.00301135
0.00364956
0.00423258
0.00474109
0.00515857
0.00547238
0.00567506
0.00576553
0.00574961
0.00564
0.0054554
0.00521968
0.00495902
0.00469736
0.00445472
0.00424681
0.00407996
0.00395461
0.00386677
0.00381
0.00377571
0.00375673
0.0037487
0.00374926
0.00375568
8.10222e-06
6.45455e-06
-2.49334e-06
-1.82545e-05
-3.93442e-05
-6.48165e-05
-9.43421e-05
-0.000127956
-0.000165884
-0.000208378
-0.000255681
-0.000307991
-0.000365466
-0.000428199
-0.000496192
-0.000569379
-0.000647664
-0.000730993
-0.000819414
-0.000913157
-0.00101267
-0.00111861
-0.00123178
-0.00135309
-0.00148344
-0.00162363
-0.00177411
-0.00193493
-0.00210563
-0.00228514
-0.00247151
-0.00266186
-0.00285259
-0.00303964
-0.00321824
-0.00338264
-0.00352681
-0.00364497
-0.00373154
-0.00378107
-0.00378813
-0.00374741
-0.00365388
-0.00350324
-0.00329222
-0.00301875
-0.00268207
-0.00228229
-0.00181787
-0.00129597
-0.000723099
-0.00010703
0.000541667
0.00121025
0.00188312
0.00254264
0.00317151
0.00375176
0.00426505
0.00469464
0.00502789
0.00525714
0.00538051
0.0054022
0.00533331
0.00519089
0.00499692
0.00477513
0.00454783
0.00433532
0.00415154
0.00400712
0.00390063
0.00382767
0.00378227
0.00375725
0.00374486
0.0037411
0.00374434
0.0037524
2.51579e-05
2.1408e-05
1.05965e-05
-5.84314e-06
-2.62044e-05
-4.9859e-05
-7.69921e-05
-0.000108037
-0.000143414
-0.000183439
-0.000228318
-0.000278157
-0.000332972
-0.00039271
-0.000457245
-0.000526417
-0.000600086
-0.000678219
-0.000760973
-0.000848756
-0.00094228
-0.00104256
-0.00115086
-0.00126862
-0.00139732
-0.00153831
-0.0016926
-0.00186068
-0.00204237
-0.00223663
-0.0024414
-0.00265344
-0.00286853
-0.00308173
-0.00328786
-0.00348082
-0.003654
-0.00380115
-0.0039162
-0.0039931
-0.00402618
-0.00401019
-0.00394045
-0.00381274
-0.00362362
-0.00337093
-0.00305381
-0.0026719
-0.00222673
-0.00172266
-0.00116554
-0.000563049
7.48467e-05
0.000735981
0.0014057
0.00206737
0.00270332
0.00329622
0.00382853
0.00428285
0.00464548
0.00490755
0.00506576
0.00512304
0.00508943
0.00498025
0.00481631
0.00462044
0.00441502
0.00421983
0.00405038
0.00391598
0.0038214
0.00376195
0.00372884
0.00371344
0.00370935
0.0037125
0.00372068
0.00373135
5.11627e-05
4.44197e-05
3.03263e-05
1.18333e-05
-8.99872e-06
-3.1655e-05
-5.69069e-05
-8.5639e-05
-0.000118483
-0.000155833
-0.000197917
-0.000244834
-0.000296589
-0.000353113
-0.000414289
-0.000479997
-0.000550183
-0.00062494
-0.000704615
-0.000789905
-0.000881907
-0.000982108
-0.00109232
-0.00121456
-0.00135081
-0.00150287
-0.00167199
-0.00185869
-0.00206248
-0.00228174
-0.00251398
-0.00275573
-0.00300211
-0.00324717
-0.00348464
-0.00370821
-0.00391131
-0.00408736
-0.00422989
-0.00433269
-0.00438999
-0.00439658
-0.00434782
-0.00423971
-0.00406899
-0.00383341
-0.00353177
-0.00316452
-0.00273312
-0.00224114
-0.0016937
-0.001098
-0.000463427
0.000198465
0.000873973
0.00154749
0.0022016
0.00281846
0.00338024
0.00386995
0.00427225
0.00457732
0.00477956
0.00487909
0.00488413
0.0048088
0.00467292
0.00449875
0.00430868
0.00412361
0.00396055
0.00383074
0.00373912
0.00368349
0.00365663
0.00364908
0.00365296
0.00366347
0.00367687
0.00368972
8.52817e-05
7.46354e-05
5.62581e-05
3.39063e-05
1.11869e-05
-1.15583e-05
-3.57701e-05
-6.27641e-05
-9.3402e-05
-0.000128222
-0.000167557
-0.000211607
-0.000260478
-0.00031421
-0.000372809
-0.000436298
-0.000504813
-0.000578704
-0.000658649
-0.000745756
-0.000841602
-0.000948202
-0.00106789
-0.00120313
-0.00135623
-0.00152907
-0.00172276
-0.00193738
-0.00217176
-0.00242375
-0.00269029
-0.00296688
-0.00324776
-0.00352684
-0.00379746
-0.00405278
-0.00428604
-0.00449058
-0.00465996
-0.00478806
-0.00486913
-0.00489802
-0.00487017
-0.00478176
-0.00462965
-0.0044116
-0.00412651
-0.00377495
-0.00335841
-0.00287975
-0.0023433
-0.00175548
-0.00112511
-0.000462997
0.000218307
0.000904653
0.00158008
0.00222658
0.00282555
0.00336005
0.00381364
0.00417355
0.00443223
0.00458966
0.00464899
0.00462073
0.00452363
0.00437968
0.00421091
0.00403897
0.00388254
0.00375489
0.00366275
0.00360631
0.0035801
0.00357535
0.0035836
0.00359871
0.0036154
0.00362939
0.000125604
0.000110789
8.67736e-05
5.89573e-05
3.31157e-05
9.30183e-06
-1.46659e-05
-4.05429e-05
-6.9454e-05
-0.000102144
-0.000139139
-0.00018083
-0.000227522
-0.00027946
-0.000336864
-0.000400006
-0.000469322
-0.000545536
-0.000629773
-0.00072364
-0.000829234
-0.000949056
-0.00108583
-0.00124223
-0.00142057
-0.00162248
-0.00184854
-0.00209808
-0.00236935
-0.00265962
-0.00296469
-0.00327925
-0.00359719
-0.00391198
-0.00421692
-0.00450504
-0.00476949
-0.00500356
-0.0052008
-0.00535512
-0.00546101
-0.00551349
-0.00550816
-0.00544144
-0.00531044
-0.00511292
-0.00484785
-0.00451609
-0.00411902
-0.0036586
-0.00313796
-0.00256264
-0.00194115
-0.00128327
-0.000599945
9.67454e-05
0.000792696
0.0014704
0.00211096
0.00269769
0.00321375
0.00364338
0.00397591
0.00420704
0.0043385
0.00437793
0.00433811
0.00423996
0.00410534
0.00395607
0.00381227
0.00368939
0.00359677
0.0035372
0.00350767
0.00350094
0.00350885
0.00352417
0.00354146
0.00355508
0.000169772
0.000150671
0.000119613
8.50442e-05
5.50697e-05
2.93522e-05
4.90704e-06
-2.04943e-05
-4.82863e-05
-7.9485e-05
-0.000114883
-0.000155144
-0.000200845
-0.000252508
-0.000310654
-0.000375896
-0.00044907
-0.000531365
-0.000624423
-0.000730374
-0.00085179
-0.000991532
-0.0011525
-0.00133734
-0.00154807
-0.00178574
-0.00205021
-0.00234009
-0.00265305
-0.0029853
-0.00333172
-0.00368664
-0.00404378
-0.00439639
-0.00473749
-0.00506003
-0.00535706
-0.00562195
-0.00584832
-0.00603044
-0.00616311
-0.00624135
-0.00626064
-0.00621798
-0.00611104
-0.00593799
-0.00569801
-0.00539241
-0.00502149
-0.00458634
-0.00408959
-0.0035353
-0.00293056
-0.00228328
-0.00160233
-0.00089757
-0.000182204
0.00052561
0.00120831
0.00185134
0.002437
0.00294784
0.00337198
0.00369759
0.00392216
0.00404973
0.00409023
0.00405923
0.00397645
0.003864
0.00374304
0.00363126
0.00354101
0.00347834
0.00344316
0.00343076
0.00343384
0.00344547
0.0034601
0.00347124
0.000214838
0.000191224
0.000152204
0.000109827
7.48827e-05
4.65445e-05
2.09567e-05
-4.63222e-06
-3.20255e-05
-6.25766e-05
-9.74118e-05
-0.000137525
-0.000183824
-0.000237167
-0.000298441
-0.000368676
-0.00044918
-0.000541661
-0.000648285
-0.000771664
-0.000914736
-0.00108055
-0.00127198
-0.00149143
-0.00174041
-0.00201913
-0.00232674
-0.00266124
-0.00301914
-0.00339599
-0.00378641
-0.00418428
-0.00458294
-0.00497529
-0.00535411
-0.00571233
-0.00604314
-0.00633994
-0.00659669
-0.00680806
-0.00696899
-0.00707394
-0.00711831
-0.00710082
-0.00702014
-0.00687531
-0.00666559
-0.00638926
-0.00604659
-0.00563978
-0.00517189
-0.0046471
-0.00406818
-0.00344009
-0.00276994
-0.00206784
-0.00134592
-0.000615979
0.000108056
0.00080876
0.00146693
0.00206598
0.00259205
0.00302984
0.0033709
0.0036109
0.00375534
0.00381564
0.00380733
0.00374979
0.0036656
0.0035745
0.00349208
0.00342839
0.00338713
0.00336642
0.00336131
0.00336581
0.00337432
0.00338153
0.000257882
0.000229374
0.000181663
0.000130689
9.01051e-05
5.85251e-05
3.11678e-05
4.70119e-06
-2.31129e-05
-5.40299e-05
-8.95646e-05
-0.000131087
-0.000179873
-0.000237164
-0.000304261
-0.000382658
-0.000474172
-0.000581033
-0.000705896
-0.000851759
-0.00102178
-0.00121905
-0.00144632
-0.00170552
-0.00199726
-0.00232124
-0.00267571
-0.00305779
-0.00346345
-0.00388772
-0.00432459
-0.0047673
-0.00520893
-0.0056422
-0.00605978
-0.00645446
-0.00681937
-0.00714801
-0.00743458
-0.00767365
-0.00785964
-0.00798744
-0.00805579
-0.00806369
-0.00800925
-0.00789115
-0.00770847
-0.00745998
-0.00714601
-0.00676919
-0.00633271
-0.00583992
-0.00529166
-0.00469103
-0.0040436
-0.00335741
-0.00264169
-0.00190586
-0.00115917
-0.000417294
0.000306709
0.000995047
0.00162606
0.00218532
0.00265821
0.00303398
0.00330802
0.00348553
0.00357707
0.00359762
0.00356798
0.00351055
0.00344419
0.00338352
0.00333717
0.00330714
0.00329111
0.0032859
0.00328562
0.00328781
0.00029516
0.000261856
0.000204934
0.000144857
9.81383e-05
6.2784e-05
3.30569e-05
4.99091e-06
-2.41501e-05
-5.65798e-05
-9.42437e-05
-0.000138918
-0.000192275
-0.000255965
-0.000331733
-0.000421559
-0.000527767
-0.000653074
-0.000800548
-0.000973458
-0.00117509
-0.00140854
-0.00167608
-0.0019789
-0.00231713
-0.00268954
-0.00309374
-0.00352618
-0.0039821
-0.00445561
-0.00494031
-0.00542912
-0.0059146
-0.00638908
-0.0068449
-0.00727472
-0.00767161
-0.00802922
-0.00834172
-0.00860319
-0.00880937
-0.00895961
-0.00905363
-0.00908704
-0.00905689
-0.00896174
-0.00880163
-0.00857791
-0.00829195
-0.00794475
-0.00753804
-0.00707332
-0.00655384
-0.0059829
-0.00536477
-0.00470497
-0.00400984
-0.0032846
-0.00253262
-0.00176489
-0.00099686
-0.00024222
0.00048375
0.001162
0.00177077
0.00229517
0.00272098
0.00304232
0.00326118
0.00338675
0.00343496
0.00342826
0.00338951
0.00333819
0.00328911
0.00324972
0.00322167
0.00320404
0.00319315
0.0031897
0.000323625
0.000285452
0.00021906
0.00014961
9.63956e-05
5.67964e-05
2.41096e-05
-6.31259e-06
-3.77582e-05
-7.29424e-05
-0.00011427
-0.000163941
-0.000224039
-0.000296637
-0.000383935
-0.000488389
-0.000612806
-0.000760328
-0.000934335
-0.0011383
-0.00137564
-0.00164908
-0.00196031
-0.00230999
-0.00269749
-0.0031209
-0.00357729
-0.00406194
-0.00456944
-0.00509341
-0.00562665
-0.00616141
-0.00668965
-0.00720331
-0.00769456
-0.00815597
-0.00858066
-0.00896248
-0.00929613
-0.00957766
-0.00980454
-0.0099746
-0.0100845
-0.0101323
-0.0101178
-0.0100413
-0.00990279
-0.0097031
-0.00944358
-0.00912541
-0.00874992
-0.00831856
-0.00783342
-0.00729676
-0.00671119
-0.00607964
-0.00540488
-0.00469033
-0.00394454
-0.00317466
-0.00238701
-0.00158694
-0.000790387
-1.69918e-05
0.000716927
0.00138747
0.00197423
0.00245962
0.00283257
0.00309201
0.00324635
0.00331333
0.00331809
0.00328561
0.00323803
0.00319013
0.00314917
0.00311708
0.00309485
0.00308523
0.000340082
0.000297092
0.000221222
0.000142346
8.23981e-05
3.81355e-05
1.90222e-06
-3.16645e-05
-6.64429e-05
-0.000105677
-0.000152246
-0.000208781
-0.00027778
-0.000361741
-0.000463308
-0.000585395
-0.000731238
-0.00090433
-0.00110829
-0.00134681
-0.00162319
-0.00193957
-0.0022972
-0.0026961
-0.00313507
-0.00361156
-0.0041214
-0.00465936
-0.00521899
-0.00579306
-0.00637351
-0.00695194
-0.00751979
-0.00806862
-0.00859043
-0.00907787
-0.00952446
-0.00992466
-0.010274
-0.0105691
-0.0108077
-0.010988
-0.011108
-0.0111671
-0.0111654
-0.0111036
-0.0109824
-0.0108027
-0.0105659
-0.0102731
-0.00992595
-0.00952567
-0.00907385
-0.00857203
-0.00802181
-0.00742461
-0.00678159
-0.00609438
-0.00536649
-0.00460113
-0.00380266
-0.00298141
-0.00214506
-0.00130134
-0.000469606
0.000326868
0.00106557
0.00172012
0.00226568
0.00268584
0.00297671
0.0031466
0.00321673
0.00321729
0.00317831
0.00312393
0.00306934
0.00302163
0.00298831
0.00297082
0.000341627
0.000293975
0.000208851
0.000120691
5.38749e-05
4.57468e-06
-3.57898e-05
-7.33096e-05
-0.000112473
-0.000157063
-0.000210435
-0.000275651
-0.000355618
-0.000453247
-0.000571608
-0.000714035
-0.000884134
-0.00108566
-0.00132249
-0.0015985
-0.00191635
-0.00227787
-0.00268388
-0.00313384
-0.00362582
-0.0041563
-0.00472015
-0.00531106
-0.0059216
-0.00654359
-0.00716816
-0.00778614
-0.00838847
-0.00896647
-0.00951217
-0.0100187
-0.0104801
-0.0108917
-0.0112499
-0.0115519
-0.0117962
-0.0119815
-0.0121074
-0.0121736
-0.0121808
-0.0121298
-0.0120218
-0.0118579
-0.0116397
-0.0113685
-0.0110458
-0.010673
-0.0102514
-0.00978199
-0.0092658
-0.00870334
-0.00809491
-0.00744089
-0.00674197
-0.00599872
-0.00521256
-0.00438725
-0.00352763
-0.00264315
-0.00174599
-0.000851765
1.44992e-05
0.00082468
0.00154548
0.00214394
0.00259883
0.00290363
0.00306822
0.00312158
0.00310301
0.00304647
0.00297804
0.00291422
0.00286878
0.00284148
0.000325714
0.000273665
0.000179712
8.25762e-05
8.84706e-06
-4.5827e-05
-9.08995e-05
-0.000133183
-0.000177777
-0.000228998
-0.000290668
-0.00036627
-0.000459108
-0.000572492
-0.000709884
-0.000874988
-0.0010717
-0.00130401
-0.00157625
-0.00189174
-0.00225275
-0.00266106
-0.00311684
-0.00361895
-0.00416449
-0.00474878
-0.00536564
-0.00600766
-0.00666638
-0.00733253
-0.00799634
-0.00864802
-0.00927818
-0.00987817
-0.0104405
-0.0109588
-0.0114283
-0.0118451
-0.0122062
-0.01251
-0.0127554
-0.0129421
-0.0130701
-0.0131399
-0.0131524
-0.0131087
-0.0130103
-0.0128586
-0.0126553
-0.0124019
-0.0120999
-0.0117507
-0.0113555
-0.0109152
-0.0104303
-0.00990102
-0.00932686
-0.00870721
-0.00804114
-0.00732757
-0.00656583
-0.00575597
-0.00489915
-0.0039993
-0.00306371
-0.00210504
-0.00114264
-0.000204392
0.000674744
0.00145288
0.00208961
0.00255824
0.00285052
0.00298465
0.00300297
0.00295254
0.00287182
0.00279092
0.00273068
0.00269181
0.000290191
0.000234166
0.000131974
2.6307e-05
-5.43062e-05
-0.000114654
-0.000164993
-0.000212834
-0.000263864
-0.000322919
-0.00039427
-0.000481799
-0.000589197
-0.000720149
-0.000878476
-0.00106817
-0.0012933
-0.00155847
-0.00186785
-0.00222395
-0.00262946
-0.00308554
-0.00359179
-0.00414615
-0.00474452
-0.00538116
-0.00604878
-0.00673875
-0.00744139
-0.00814638
-0.00884318
-0.00952161
-0.0101723
-0.010787
-0.0113589
-0.0118829
-0.0123547
-0.0127714
-0.0131311
-0.0134328
-0.0136761
-0.0138613
-0.0139888
-0.0140594
-0.0140746
-0.0140356
-0.013944
-0.0138014
-0.0136097
-0.0133705
-0.0130854
-0.0127559
-0.0123831
-0.011968
-0.0115109
-0.0110117
-0.0104697
-0.00988365
-0.00925158
-0.00857118
-0.00783997
-0.0070557
-0.00621688
-0.00532349
-0.00437789
-0.00338674
-0.00236361
-0.00133158
-0.000324345
0.000615118
0.00143531
0.00208768
0.00253894
0.00278735
0.00286769
0.00283629
0.0027477
0.00264811
0.0025684
0.00251669
0.00023342
0.000173922
6.42466e-05
-4.93998e-05
-0.000136803
-0.000203084
-0.000259216
-0.000313362
-0.000371768
-0.000439755
-0.000522014
-0.000622812
-0.000746202
-0.000896223
-0.001077
-0.00129268
-0.00154775
-0.00184733
-0.00219445
-0.00259213
-0.00304281
-0.00354692
-0.00410336
-0.00470888
-0.00535833
-0.00604481
-0.00675973
-0.00749314
-0.00823417
-0.0089716
-0.00969441
-0.0103924
-0.0110564
-0.0116793
-0.012255
-0.0127794
-0.0132491
-0.0136621
-0.0140174
-0.0143145
-0.0145537
-0.0147355
-0.0148607
-0.0149306
-0.0149466
-0.0149102
-0.0148232
-0.0146873
-0.0145043
-0.0142762
-0.0140045
-0.0136909
-0.0133366
-0.0129425
-0.0125092
-0.0120363
-0.0115231
-0.0109681
-0.0103689
-0.00972238
-0.00902487
-0.00827239
-0.00746122
-0.00658842
-0.00565271
-0.00465586
-0.00360507
-0.00251626
-0.001417
-0.00034821
0.000637073
0.00147539
0.00210868
0.00250642
0.0026814
0.00268884
0.00260119
0.00248163
0.00237669
0.00231202
0.000154371
9.17822e-05
-2.44481e-05
-0.000145411
-0.000239434
-0.000311856
-0.000374256
-0.000435388
-0.000502012
-0.000579891
-0.000674107
-0.000789283
-0.00092981
-0.00110005
-0.00130436
-0.001547
-0.00183325
-0.00216759
-0.00255292
-0.00299269
-0.00348837
-0.00403996
-0.00464522
-0.00529992
-0.00599778
-0.00673052
-0.00748817
-0.00825947
-0.00903256
-0.00979559
-0.0105374
-0.0112481
-0.0119195
-0.0125451
-0.01312
-0.013641
-0.0141056
-0.0145127
-0.0148618
-0.015153
-0.0153869
-0.0155644
-0.0156865
-0.0157547
-0.0157704
-0.0157352
-0.0156512
-0.0155199
-0.0153434
-0.0151236
-0.0148622
-0.014561
-0.0142213
-0.0138443
-0.0134304
-0.0129798
-0.0124915
-0.0119641
-0.011395
-0.0107809
-0.0101174
-0.00939939
-0.00862161
-0.00777885
-0.00686696
-0.00588371
-0.00483096
-0.00371779
-0.00256376
-0.00140304
-0.000285769
0.000722054
0.00154331
0.00211686
0.00242272
0.00249852
0.00242508
0.00228704
0.00215157
0.00207436
5.24473e-05
-1.28607e-05
-0.000134635
-0.000262145
-0.000362541
-0.000441246
-0.00051032
-0.000579032
-0.000654596
-0.000743169
-0.000850189
-0.000980607
-0.00113913
-0.00133036
-0.00155879
-0.00182918
-0.00214713
-0.00251606
-0.0029398
-0.00342123
-0.00396111
-0.00455858
-0.00521056
-0.00591168
-0.00665434
-0.00742884
-0.00822382
-0.0090269
-0.00982547
-0.0106075
-0.0113619
-0.0120796
-0.0127533
-0.0133775
-0.0139485
-0.0144636
-0.0149214
-0.0153214
-0.0156637
-0.0159486
-0.016177
-0.0163499
-0.0164686
-0.0165346
-0.0165494
-0.0165147
-0.0164323
-0.0163041
-0.0161321
-0.0159183
-0.0156645
-0.0153726
-0.0150441
-0.0146803
-0.0142819
-0.0138493
-0.0133817
-0.0128779
-0.0123355
-0.011751
-0.0111198
-0.0104365
-0.00969449
-0.00888711
-0.00800801
-0.00705206
-0.00601645
-0.0049042
-0.00372752
-0.00251164
-0.00129992
-0.000155184
0.000840828
0.0016032
0.00207067
0.0022468
0.00221093
0.00206051
0.00189149
0.00180155
-7.25338e-05
-0.000140051
-0.000266323
-0.000399545
-0.000506
-0.000591064
-0.000667137
-0.000743916
-0.000829001
-0.000928893
-0.00104934
-0.00119561
-0.00137267
-0.00158534
-0.00183814
-0.00213666
-0.0024859
-0.00288924
-0.00335096
-0.00387286
-0.00445523
-0.00509641
-0.0057923
-0.00653631
-0.00731942
-0.00813053
-0.00895703
-0.00978566
-0.0106034
-0.0113983
-0.01216
-0.0128801
-0.0135524
-0.0141725
-0.0147375
-0.0152456
-0.015696
-0.0160887
-0.0164241
-0.0167029
-0.016926
-0.0170947
-0.0172101
-0.0172739
-0.0172875
-0.0172527
-0.0171712
-0.0170449
-0.0168759
-0.0166661
-0.0164176
-0.0161323
-0.0158119
-0.0154579
-0.0150713
-0.0146526
-0.0142017
-0.0137174
-0.0131976
-0.0126392
-0.0120376
-0.0113873
-0.0106811
-0.00991144
-0.00907017
-0.0081501
-0.00714526
-0.00605311
-0.00487925
-0.00364063
-0.00237067
-0.00112582
1.51197e-05
0.000955751
0.00160447
0.00191787
0.00194672
0.00179502
0.00159736
0.00149261
-0.000220214
-0.000289357
-0.000419047
-0.000557096
-0.000669236
-0.000760663
-0.000843968
-0.00092918
-0.00102422
-0.00113587
-0.00127015
-0.0014326
-0.00162841
-0.00186251
-0.00213975
-0.00246617
-0.00284594
-0.00328317
-0.00378152
-0.00434211
-0.00496474
-0.00564686
-0.00638325
-0.00716601
-0.00798472
-0.00882697
-0.00967916
-0.0105274
-0.0113588
-0.0121615
-0.0129261
-0.0136453
-0.0143138
-0.0149281
-0.0154862
-0.0159869
-0.01643
-0.0168158
-0.017145
-0.0174183
-0.0176368
-0.0178017
-0.0179144
-0.0179762
-0.0179886
-0.0179533
-0.0178721
-0.0177468
-0.0175795
-0.0173723
-0.0171271
-0.0168461
-0.0165311
-0.0161839
-0.0158058
-0.0153975
-0.0149593
-0.0144904
-0.0139893
-0.0134531
-0.0128777
-0.0122574
-0.0115855
-0.0108536
-0.0100524
-0.00917308
-0.00820758
-0.00714932
-0.00599752
-0.00476202
-0.00346648
-0.00215734
-0.000909442
0.000185196
0.00101749
0.00149466
0.00161492
0.00148316
0.00127018
0.00114561
-0.000389735
-0.000459891
-0.000591901
-0.000733855
-0.000851249
-0.000948965
-0.00103963
-0.00113352
-0.00123877
-0.00136242
-0.00151072
-0.00168942
-0.00190392
-0.00215914
-0.00246055
-0.00281399
-0.00322335
-0.0036933
-0.0042264
-0.00482342
-0.00548359
-0.00620335
-0.00697633
-0.00779328
-0.00864251
-0.00951048
-0.0103828
-0.0112455
-0.0120855
-0.0128921
-0.0136565
-0.0143725
-0.0150357
-0.0156435
-0.0161946
-0.0166883
-0.0171248
-0.0175045
-0.0178283
-0.0180971
-0.0183119
-0.0184739
-0.0185843
-0.0186445
-0.0186559
-0.01862
-0.0185387
-0.0184137
-0.0182472
-0.0180411
-0.0177976
-0.017519
-0.0172072
-0.0168643
-0.0164917
-0.0160906
-0.0156616
-0.0152046
-0.0147182
-0.0142003
-0.0136472
-0.0130537
-0.0124132
-0.0117174
-0.0109566
-0.0101203
-0.00919877
-0.00818343
-0.00706793
-0.00585505
-0.0045604
-0.00321912
-0.00190019
-0.000687129
0.000307177
0.000960174
0.00120614
0.00111921
0.000905692
0.000755762
-0.000579791
-0.000650338
-0.000783573
-0.000928487
-0.00105065
-0.0011545
-0.00125256
-0.00135521
-0.0014708
-0.00160651
-0.00176877
-0.00196353
-0.00219633
-0.00247215
-0.00279696
-0.00317621
-0.00361404
-0.00411486
-0.00468036
-0.0053112
-0.00600574
-0.00675944
-0.00756475
-0.00841119
-0.00928589
-0.0101744
-0.0110619
-0.0119344
-0.0127794
-0.0135868
-0.0143489
-0.0150603
-0.0157177
-0.0163191
-0.0168636
-0.017351
-0.0177818
-0.0181566
-0.0184762
-0.0187415
-0.0189536
-0.0191135
-0.0192223
-0.0192813
-0.0192918
-0.0192555
-0.0191738
-0.0190486
-0.018882
-0.0186761
-0.018433
-0.0181551
-0.0178446
-0.0175037
-0.0171342
-0.0167375
-0.0163148
-0.0158662
-0.0153911
-0.0148878
-0.0143533
-0.0137829
-0.0131706
-0.0125082
-0.0117861
-0.0109932
-0.0101181
-0.00915049
-0.00808117
-0.00690587
-0.00563259
-0.00428593
-0.00292817
-0.00163486
-0.000508622
0.000314132
0.000709174
0.000693457
0.000496025
0.00031479
-0.000788683
-0.000859003
-0.000992385
-0.00113931
-0.00126571
-0.00137546
-0.00148082
-0.00159221
-0.00171807
-0.0018657
-0.00204168
-0.00225206
-0.00250245
-0.00279804
-0.00314524
-0.00354884
-0.0040135
-0.00454292
-0.00513825
-0.00579988
-0.0065253
-0.00730897
-0.00814223
-0.00901347
-0.00990883
-0.0108132
-0.0117116
-0.0125902
-0.0134372
-0.0142433
-0.0150018
-0.0157082
-0.0163597
-0.0169552
-0.017494
-0.0179763
-0.0184026
-0.0187736
-0.0190901
-0.0193531
-0.0195635
-0.0197221
-0.01983
-0.0198883
-0.0198984
-0.0198615
-0.0197793
-0.0196536
-0.0194863
-0.0192796
-0.0190359
-0.0187574
-0.0184466
-0.0181059
-0.0177374
-0.0173429
-0.0169238
-0.0164808
-0.0160138
-0.0155218
-0.0150023
-0.0144514
-0.0138637
-0.0132315
-0.0125456
-0.0117949
-0.0109666
-0.010049
-0.00903166
-0.00790542
-0.00667051
-0.00534032
-0.00396367
-0.00262836
-0.00140559
-0.000437419
0.000115003
0.000201406
3.49243e-05
-0.000187223
-0.00101437
-0.00108386
-0.00121635
-0.00136434
-0.00149439
-0.00160972
-0.0017222
-0.00184217
-0.00197809
-0.00213732
-0.00232651
-0.0025518
-0.00281882
-0.00313329
-0.00350143
-0.00392779
-0.00441727
-0.00497259
-0.00559494
-0.00628407
-0.00703666
-0.00784623
-0.00870309
-0.00959464
-0.0105062
-0.0114224
-0.0123281
-0.0132099
-0.0140569
-0.0148604
-0.0156147
-0.016316
-0.0169623
-0.0175526
-0.0180868
-0.0185651
-0.0189881
-0.0193566
-0.0196713
-0.019933
-0.0201426
-0.0203008
-0.0204085
-0.0204667
-0.0204765
-0.0204393
-0.0203565
-0.02023
-0.0200616
-0.0198535
-0.0196081
-0.0193279
-0.0190156
-0.0186735
-0.0183043
-0.0179099
-0.0174923
-0.0170525
-0.0165909
-0.0161072
-0.0155995
-0.0150648
-0.0144982
-0.0138928
-0.01324
-0.0125288
-0.0117465
-0.0108797
-0.00991653
-0.00884589
-0.00766133
-0.0063686
-0.00499265
-0.00364209
-0.00236439
-0.0012854
-0.000581831
-0.000368614
-0.00048986
-0.000761183
-0.00125453
-0.00132263
-0.00145323
-0.00160136
-0.00173443
-0.00185496
-0.00197425
-0.00210249
-0.00224806
-0.00241831
-0.00261997
-0.00285933
-0.00314216
-0.00347436
-0.0038616
-0.00430887
-0.00482073
-0.0053992
-0.00604551
-0.00675868
-0.00753463
-0.00836603
-0.00924227
-0.01015
-0.0110739
-0.0119983
-0.0129084
-0.0137914
-0.0146369
-0.0154372
-0.0161872
-0.0168839
-0.0175257
-0.0181119
-0.0186425
-0.019118
-0.019539
-0.0199062
-0.0202202
-0.0204817
-0.0206914
-0.0208499
-0.0209581
-0.0210166
-0.0210266
-0.0209892
-0.0209059
-0.0207783
-0.0206084
-0.0203984
-0.0201507
-0.0198679
-0.0195529
-0.0192083
-0.0188369
-0.0184411
-0.018023
-0.0175843
-0.017126
-0.016648
-0.0161493
-0.0156276
-0.0150788
-0.0144969
-0.0138739
-0.0131993
-0.0124607
-0.011644
-0.0107357
-0.0097239
-0.00859777
-0.00735581
-0.00600868
-0.00464884
-0.00335771
-0.00220585
-0.00137552
-0.00103253
-0.0010959
-0.00141132
-0.00150664
-0.0015728
-0.00170058
-0.00184794
-0.00198339
-0.00210863
-0.0022343
-0.00237028
-0.00252487
-0.00270549
-0.00291897
-0.00317168
-0.00346925
-0.0038174
-0.00422184
-0.00468796
-0.0052195
-0.00581827
-0.0064853
-0.00721896
-0.00801447
-0.00886373
-0.0097554
-0.0106754
-0.0116082
-0.012538
-0.0134504
-0.014333
-0.0151763
-0.0159732
-0.0167192
-0.0174119
-0.0180501
-0.0186332
-0.0191615
-0.0196354
-0.0200556
-0.0204225
-0.0207368
-0.0209991
-0.0212097
-0.0213694
-0.0214786
-0.0215379
-0.0215484
-0.021511
-0.0214272
-0.0212985
-0.0211268
-0.0209144
-0.0206639
-0.0203778
-0.0200592
-0.0197111
-0.0193363
-0.0189377
-0.0185177
-0.0180785
-0.0176214
-0.017147
-0.016655
-0.0161436
-0.0156097
-0.015048
-0.0144513
-0.01381
-0.0131122
-0.0123437
-0.0114898
-0.0105378
-0.00947517
-0.00829501
-0.00700108
-0.00563466
-0.0043542
-0.0031709
-0.00224659
-0.00178625
-0.00178632
-0.00213261
-0.00176799
-0.00183173
-0.00195584
-0.00210157
-0.0022387
-0.00236803
-0.00249945
-0.00264263
-0.00280579
-0.00299627
-0.00322088
-0.0034858
-0.00379639
-0.00415857
-0.00457836
-0.00506092
-0.00560941
-0.00622553
-0.00691
-0.0076606
-0.00847193
-0.00933528
-0.0102387
-0.0111677
-0.0121065
-0.0130394
-0.0139523
-0.0148336
-0.0156742
-0.0164678
-0.0172104
-0.0179
-0.0185355
-0.0191167
-0.0196438
-0.0201172
-0.0205376
-0.0209053
-0.0212209
-0.0214847
-0.021697
-0.0218584
-0.0219691
-0.0220298
-0.0220411
-0.0220039
-0.0219197
-0.0217898
-0.0216162
-0.0214012
-0.0211473
-0.0208574
-0.0205345
-0.020182
-0.0198029
-0.0194004
-0.0189774
-0.0185362
-0.0180788
-0.0176063
-0.0171189
-0.0166155
-0.0160937
-0.0155493
-0.0149758
-0.0143645
-0.0137042
-0.0129811
-0.01218
-0.0112869
-0.0102899
-0.00917796
-0.00794733
-0.00660156
-0.00533363
-0.00415698
-0.0031734
-0.00261046
-0.00254744
-0.002913
-0.00203583
-0.00209671
-0.00221639
-0.00235969
-0.00249775
-0.00263053
-0.00276723
-0.00291717
-0.00308835
-0.00328791
-0.00352238
-0.00379782
-0.00411976
-0.00449432
-0.00492743
-0.00542392
-0.00598659
-0.00661707
-0.0073157
-0.00807973
-0.00890327
-0.00977715
-0.010689
-0.011624
-0.0125664
-0.0135005
-0.0144129
-0.0152922
-0.0161301
-0.0169207
-0.0176605
-0.0183478
-0.0189816
-0.0195619
-0.0200888
-0.0205628
-0.0209843
-0.0213537
-0.0216713
-0.0219374
-0.0221522
-0.0223158
-0.0224286
-0.0224909
-0.0225033
-0.0224666
-0.022382
-0.022251
-0.0220755
-0.0218576
-0.0216001
-0.0213059
-0.0209782
-0.0206206
-0.0202365
-0.0198293
-0.0194022
-0.018958
-0.0184991
-0.0180269
-0.0175424
-0.0170451
-0.0165332
-0.0160034
-0.0154501
-0.0148656
-0.0142394
-0.0135585
-0.0128076
-0.0119717
-0.0110387
-0.00999472
-0.00883229
-0.00755115
-0.00628076
-0.00513106
-0.00412534
-0.00348016
-0.003359
-0.00372025
-0.00230737
-0.00236503
-0.00247962
-0.0026197
-0.00275791
-0.00289357
-0.00303506
-0.00319114
-0.00336941
-0.00357678
-0.00381968
-0.00410429
-0.00443621
-0.00482138
-0.00526559
-0.00577343
-0.00634749
-0.00698932
-0.00769889
-0.00847301
-0.00930526
-0.0101863
-0.0111036
-0.0120421
-0.0129859
-0.0139199
-0.0148308
-0.0157079
-0.0165432
-0.0173313
-0.0180691
-0.0187549
-0.019388
-0.0199683
-0.0204959
-0.0209713
-0.0213948
-0.0217666
-0.0220869
-0.0223559
-0.0225736
-0.02274
-0.0228552
-0.0229195
-0.0229334
-0.0228974
-0.0228126
-0.0226805
-0.0225029
-0.0222821
-0.0220208
-0.021722
-0.0213892
-0.0210261
-0.0206363
-0.0202237
-0.0197918
-0.0193437
-0.0188822
-0.0184094
-0.0179264
-0.0174335
-0.0169296
-0.016412
-0.0158763
-0.0153155
-0.0147202
-0.014078
-0.0133744
-0.0125935
-0.0117223
-0.0107466
-0.00965588
-0.00845174
-0.00718515
-0.00607304
-0.00507099
-0.00436573
-0.00419046
-0.00450553
-0.00257988
-0.00263397
-0.00274281
-0.00287888
-0.0030166
-0.00315456
-0.00330009
-0.00346137
-0.00364571
-0.00385981
-0.00411008
-0.0044026
-0.00474288
-0.00513663
-0.00558963
-0.00610626
-0.00668893
-0.0073391
-0.00805652
-0.00883767
-0.00967506
-0.0105603
-0.0114803
-0.01242
-0.0133637
-0.0142963
-0.0152052
-0.0160799
-0.0169129
-0.0176991
-0.0184355
-0.0191206
-0.0197538
-0.0203349
-0.020864
-0.0213416
-0.0217677
-0.0221425
-0.0224662
-0.0227385
-0.0229595
-0.023129
-0.023247
-0.0233136
-0.0233291
-0.023294
-0.0232093
-0.0230762
-0.0228967
-0.0226729
-0.0224076
-0.0221041
-0.0217659
-0.0213969
-0.0210011
-0.0205826
-0.0201453
-0.0196927
-0.019228
-0.0187535
-0.018271
-0.0177812
-0.0172836
-0.0167764
-0.0162558
-0.0157159
-0.0151483
-0.0145415
-0.0138816
-0.0131528
-0.0123411
-0.0114344
-0.0104211
-0.00929376
-0.00804793
-0.00696212
-0.00598856
-0.00524292
-0.00500858
-0.00526444
-0.00285063
-0.00290086
-0.00300342
-0.00313487
-0.00327148
-0.00341101
-0.00355974
-0.00372535
-0.00391484
-0.00413469
-0.00439111
-0.00469002
-0.00503684
-0.00543716
-0.00589666
-0.00641955
-0.00700807
-0.0076636
-0.00838582
-0.00917141
-0.0100105
-0.0108968
-0.0118172
-0.0127562
-0.0136982
-0.0146287
-0.0155351
-0.0164074
-0.0172384
-0.0180231
-0.0187589
-0.019444
-0.020078
-0.0206606
-0.021192
-0.0216722
-0.0221015
-0.0224798
-0.0228071
-0.0230832
-0.0233078
-0.0234808
-0.0236018
-0.0236709
-0.0236882
-0.0236542
-0.0235696
-0.0234357
-0.0232543
-0.0230276
-0.0227584
-0.02245