/*--------------------------------*- C++ -*----------------------------------*\
  =========                 |
  \\      /  F ield         | OpenFOAM: The Open Source CFD Toolbox
   \\    /   O peration     | Website:  https://openfoam.org
    \\  /    A nd           | Version:  13
     \\/     M anipulation  |
\*---------------------------------------------------------------------------*/
FoamFile
{
    format      ascii;
    class       surfaceScalarField;
    location    "2";
    object      phi;
}
// * * * * * * * * * * * * * * * * * * * * * * * * * * * * * * * * * * * * * //

dimensions      [0 3 -1 0 0 0 0];

internalField   nonuniform List<scalar> 
12640
(
3.29913e-09
-3.29946e-09
9.08697e-09
-5.78786e-09
1.47619e-08
-5.675e-09
1.89743e-08
-4.21239e-09
2.14012e-08
-2.42692e-09
2.22957e-08
-8.94496e-10
2.21066e-08
1.8912e-10
2.12658e-08
8.40738e-10
2.01015e-08
1.1643e-09
1.88331e-08
1.26841e-09
1.75701e-08
1.26303e-09
1.63371e-08
1.23297e-09
1.50859e-08
1.25112e-09
1.37051e-08
1.38088e-09
1.20321e-08
1.6729e-09
9.87116e-09
2.16098e-09
7.01278e-09
2.85838e-09
3.25824e-09
3.75454e-09
-1.55907e-09
4.8173e-09
-7.57779e-09
6.01872e-09
-1.49149e-08
7.33714e-09
-2.36693e-08
8.75437e-09
-3.39453e-08
1.0276e-08
-4.58854e-08
1.194e-08
-5.9702e-08
1.38166e-08
-7.56921e-08
1.59901e-08
-9.41774e-08
1.84854e-08
-1.15478e-07
2.13005e-08
-1.39952e-07
2.4474e-08
-1.67972e-07
2.80203e-08
-1.99884e-07
3.19118e-08
-2.35988e-07
3.61036e-08
-2.7647e-07
4.0482e-08
-3.21301e-07
4.48312e-08
-3.70222e-07
4.89216e-08
-4.22762e-07
5.25392e-08
-4.78179e-07
5.54176e-08
-5.35491e-07
5.73117e-08
-5.93567e-07
5.8076e-08
-6.51173e-07
5.7606e-08
-7.07033e-07
5.58605e-08
-7.59885e-07
5.28521e-08
-8.0852e-07
4.8635e-08
-8.51828e-07
4.33078e-08
-8.88812e-07
3.6984e-08
-9.18575e-07
2.97625e-08
-9.40292e-07
2.17176e-08
-9.5341e-07
1.31181e-08
-9.58022e-07
4.61195e-09
-9.53001e-07
-5.02187e-09
-9.38272e-07
-1.47291e-08
-9.13576e-07
-2.46953e-08
-8.789e-07
-3.46761e-08
-8.34444e-07
-4.44561e-08
-7.80652e-07
-5.37917e-08
-7.18144e-07
-6.25089e-08
-6.47684e-07
-7.04592e-08
-5.70262e-07
-7.74219e-08
-4.87255e-07
-8.30074e-08
-4.00337e-07
-8.69176e-08
-3.11521e-07
-8.88161e-08
-2.23128e-07
-8.83933e-08
-1.37707e-07
-8.54216e-08
-5.79476e-08
-7.9759e-08
1.34644e-08
-7.1412e-08
7.41857e-08
-6.07213e-08
1.2169e-07
-4.75042e-08
1.54459e-07
-3.2769e-08
1.71914e-07
-1.74551e-08
1.74862e-07
-2.94761e-09
1.65012e-07
9.8497e-09
1.45536e-07
1.94764e-08
1.20408e-07
2.51271e-08
9.36725e-08
2.67359e-08
6.82285e-08
2.5444e-08
4.57787e-08
2.24498e-08
2.70518e-08
1.87269e-08
1.25837e-08
1.44681e-08
3.25177e-09
9.33193e-09
3.25177e-09
5.88278e-09
-9.18226e-09
1.50727e-08
-1.49778e-08
2.26732e-08
-1.32755e-08
2.67498e-08
-8.28898e-09
2.70911e-08
-2.7683e-09
2.43e-08
1.89668e-09
1.92342e-08
5.25486e-09
1.26729e-08
7.40201e-09
5.19371e-09
8.64349e-09
-2.84521e-09
9.30732e-09
-1.12612e-08
9.679e-09
-2.00346e-08
1.00064e-08
-2.93001e-08
1.05166e-08
-3.93263e-08
1.14071e-08
-5.04842e-08
1.28308e-08
-6.32108e-08
1.48876e-08
-7.79731e-08
1.76207e-08
-9.52367e-08
2.10181e-08
-1.15443e-07
2.50233e-08
-1.38979e-07
2.95552e-08
-1.66176e-07
3.45335e-08
-1.97329e-07
3.99081e-08
-2.32722e-07
4.5669e-08
-2.72629e-07
5.18462e-08
-3.17302e-07
5.84905e-08
-3.66951e-07
6.56382e-08
-4.21751e-07
7.32859e-08
-4.81832e-07
8.13814e-08
-5.47133e-07
8.97754e-08
-6.17339e-07
9.82264e-08
-6.91868e-07
1.0644e-07
-7.69891e-07
1.14127e-07
-8.50345e-07
1.20936e-07
-9.3196e-07
1.26446e-07
-1.01334e-06
1.30301e-07
-1.09311e-06
1.32306e-07
-1.16995e-06
1.32256e-07
-1.24262e-06
1.29987e-07
-1.31002e-06
1.2547e-07
-1.37115e-06
1.18743e-07
-1.4252e-06
1.09904e-07
-1.47146e-06
9.91206e-08
-1.50942e-06
8.65876e-08
-1.53861e-06
7.25043e-08
-1.55867e-06
5.70401e-08
-1.56927e-06
4.03623e-08
-1.57023e-06
2.26768e-08
-1.56105e-06
3.94276e-09
-1.54151e-06
-1.49333e-08
-1.51185e-06
-3.46839e-08
-1.47176e-06
-5.48154e-08
-1.42141e-06
-7.50443e-08
-1.36092e-06
-9.51706e-08
-1.2905e-06
-1.14868e-07
-1.21045e-06
-1.33847e-07
-1.12123e-06
-1.51725e-07
-1.02369e-06
-1.67999e-07
-9.18901e-07
-1.82213e-07
-8.08149e-07
-1.9376e-07
-6.93011e-07
-2.02056e-07
-5.75353e-07
-2.06473e-07
-4.57301e-07
-2.06446e-07
-3.41182e-07
-2.0154e-07
-2.29513e-07
-1.91428e-07
-1.24944e-07
-1.75981e-07
-3.03069e-08
-1.55359e-07
5.2206e-08
-1.30017e-07
1.20282e-07
-1.00845e-07
1.7198e-07
-6.91533e-08
2.05881e-07
-3.68484e-08
2.21998e-07
-6.26718e-09
2.20648e-07
2.08266e-08
2.04103e-07
4.16719e-08
1.75605e-07
5.52341e-08
1.3989e-07
6.11589e-08
1.018e-07
6.05391e-08
6.53534e-08
5.51738e-08
3.39135e-08
4.5908e-08
1.07388e-08
3.25067e-08
1.39906e-08
6.10397e-09
-1.52862e-08
1.38532e-08
-2.27271e-08
1.78682e-08
-1.72904e-08
1.70858e-08
-7.50662e-09
1.21445e-08
2.17292e-09
3.99153e-09
1.00497e-08
-6.53473e-09
1.57811e-08
-1.87437e-08
1.9611e-08
-3.2114e-08
2.20137e-08
-4.63216e-08
2.3515e-08
-6.12555e-08
2.46128e-08
-7.70118e-08
2.57627e-08
-9.38608e-08
2.73656e-08
-1.12207e-07
2.97534e-08
-1.32552e-07
3.31755e-08
-1.55448e-07
3.77842e-08
-1.8146e-07
4.3632e-08
-2.11123e-07
5.06819e-08
-2.44927e-07
5.88265e-08
-2.83294e-07
6.79223e-08
-3.2659e-07
7.78296e-08
-3.7512e-07
8.84385e-08
-4.29125e-07
9.96741e-08
-4.8876e-07
1.11481e-07
-5.54062e-07
1.23793e-07
-6.24912e-07
1.36488e-07
-7.00991e-07
1.49365e-07
-7.81729e-07
1.6212e-07
-8.66299e-07
1.74345e-07
-9.53645e-07
1.85572e-07
-1.04251e-06
1.95309e-07
-1.13151e-06
2.03125e-07
-1.21925e-06
2.08671e-07
-1.30444e-06
2.11637e-07
-1.38587e-06
2.11737e-07
-1.46241e-06
2.08846e-07
-1.53316e-06
2.02998e-07
-1.59741e-06
1.94239e-07
-1.65461e-06
1.82671e-07
-1.70433e-06
1.68467e-07
-1.74626e-06
1.51832e-07
-1.78013e-06
1.32993e-07
-1.80572e-06
1.12172e-07
-1.8228e-06
8.95922e-08
-1.83122e-06
6.54551e-08
-1.8308e-06
3.99431e-08
-1.82136e-06
1.32362e-08
-1.80292e-06
-1.44961e-08
-1.77488e-06
-4.29783e-08
-1.73736e-06
-7.2197e-08
-1.69032e-06
-1.01854e-07
-1.6337e-06
-1.31664e-07
-1.56756e-06
-1.6131e-07
-1.49204e-06
-1.90396e-07
-1.40739e-06
-2.18491e-07
-1.31409e-06
-2.45023e-07
-1.21278e-06
-2.69316e-07
-1.10437e-06
-2.90617e-07
-9.89928e-07
-3.08205e-07
-8.70756e-07
-3.21228e-07
-7.48464e-07
-3.28765e-07
-6.24908e-07
-3.30002e-07
-5.02175e-07
-3.24273e-07
-3.82612e-07
-3.10992e-07
-2.68628e-07
-2.89964e-07
-1.62684e-07
-2.61303e-07
-6.70967e-08
-2.25605e-07
1.60513e-08
-1.83993e-07
8.49848e-08
-1.38087e-07
1.38105e-07
-8.99688e-08
1.74224e-07
-4.23857e-08
1.93304e-07
1.74675e-09
1.95125e-07
3.98507e-08
1.81909e-07
6.84495e-08
1.56532e-07
8.65362e-08
1.22549e-07
9.4522e-08
8.45321e-08
9.31909e-08
4.72547e-08
8.31854e-08
1.62073e-08
6.35541e-08
3.01978e-08
4.759e-09
-2.00452e-08
8.44445e-09
-2.64125e-08
6.79154e-09
-1.56375e-08
2.99293e-10
-1.01438e-09
-9.82303e-09
1.22952e-08
-2.27094e-08
2.2936e-08
-3.76872e-08
3.0759e-08
-5.42726e-08
3.61963e-08
-7.21496e-08
3.98907e-08
-9.1178e-08
4.25434e-08
-1.11403e-07
4.48382e-08
-1.33047e-07
4.74067e-08
-1.56484e-07
5.08022e-08
-1.82204e-07
5.54737e-08
-2.10771e-07
6.17421e-08
-2.42769e-07
6.97824e-08
-2.78763e-07
7.96254e-08
-3.19261e-07
9.11799e-08
-3.64704e-07
1.04269e-07
-4.15454e-07
1.18673e-07
-4.71789e-07
1.34164e-07
-5.33879e-07
1.50529e-07
-6.01765e-07
1.6756e-07
-6.75319e-07
1.85035e-07
-7.542e-07
2.02674e-07
-8.37828e-07
2.20116e-07
-9.25365e-07
2.36901e-07
-1.01573e-06
2.5249e-07
-1.10769e-06
2.66297e-07
-1.19987e-06
2.77759e-07
-1.29096e-06
2.86399e-07
-1.3797e-06
2.9186e-07
-1.46491e-06
2.93884e-07
-1.54557e-06
2.92294e-07
-1.6209e-06
2.87066e-07
-1.69031e-06
2.78255e-07
-1.75333e-06
2.66017e-07
-1.80962e-06
2.50532e-07
-1.85895e-06
2.32006e-07
-1.90116e-06
2.10671e-07
-1.93609e-06
1.86766e-07
-1.96362e-06
1.60518e-07
-1.98359e-06
1.32144e-07
-1.99585e-06
1.01856e-07
-2.00024e-06
6.98472e-08
-1.99659e-06
3.62884e-08
-1.98474e-06
1.39106e-09
-1.96449e-06
-3.47549e-08
-1.93557e-06
-7.18953e-08
-1.89787e-06
-1.09896e-07
-1.85125e-06
-1.48478e-07
-1.79557e-06
-1.87336e-07
-1.73079e-06
-2.26097e-07
-1.65688e-06
-2.64302e-07
-1.57397e-06
-3.01398e-07
-1.48231e-06
-3.36685e-07
-1.38231e-06
-3.69317e-07
-1.27465e-06
-3.9828e-07
-1.16025e-06
-4.22604e-07
-1.04029e-06
-4.41182e-07
-9.16214e-07
-4.52846e-07
-7.89656e-07
-4.56561e-07
-6.625e-07
-4.51428e-07
-5.36977e-07
-4.36515e-07
-4.15452e-07
-4.11488e-07
-3.00411e-07
-3.76345e-07
-1.94225e-07
-3.3179e-07
-9.91042e-08
-2.79114e-07
-1.70658e-08
-2.20125e-07
5.02901e-08
-1.57325e-07
1.01659e-07
-9.37544e-08
1.36271e-07
-3.28655e-08
1.5432e-07
2.18013e-08
1.56068e-07
6.67021e-08
1.43215e-07
9.93893e-08
1.1898e-07
1.18757e-07
8.70169e-08
1.25154e-07
5.15123e-08
1.1869e-07
1.85221e-08
9.65444e-08
4.87199e-08
2.41414e-09
-2.24594e-08
7.59977e-10
-2.47583e-08
-6.73955e-09
-8.13801e-09
-1.84912e-08
1.07373e-08
-3.32538e-08
2.70578e-08
-5.02783e-08
3.99605e-08
-6.91445e-08
4.96251e-08
-8.95982e-08
5.66501e-08
-1.11527e-07
6.18198e-08
-1.34968e-07
6.59843e-08
-1.60114e-07
6.99836e-08
-1.87303e-07
7.45966e-08
-2.16999e-07
8.04974e-08
-2.4974e-07
8.82146e-08
-2.86096e-07
9.80984e-08
-3.26618e-07
1.10305e-07
-3.71799e-07
1.24807e-07
-4.22052e-07
1.41433e-07
-4.77695e-07
1.59912e-07
-5.38943e-07
1.79921e-07
-6.05888e-07
2.01109e-07
-6.7847e-07
2.23111e-07
-7.56443e-07
2.45533e-07
-8.3934e-07
2.67931e-07
-9.26452e-07
2.89786e-07
-1.01683e-06
3.10498e-07
-1.10935e-06
3.29412e-07
-1.20272e-06
3.45861e-07
-1.29565e-06
3.59232e-07
-1.38694e-06
3.69051e-07
-1.47551e-06
3.74961e-07
-1.56035e-06
3.76704e-07
-1.64067e-06
3.74206e-07
-1.71589e-06
3.67511e-07
-1.78557e-06
3.56749e-07
-1.84943e-06
3.42111e-07
-1.90723e-06
3.23815e-07
-1.9588e-06
3.02104e-07
-2.00403e-06
2.77233e-07
-2.0428e-06
2.49445e-07
-2.07501e-06
2.18977e-07
-2.10054e-06
1.8605e-07
-2.11927e-06
1.50871e-07
-2.13105e-06
1.13634e-07
-2.13571e-06
7.45071e-08
-2.13306e-06
3.36456e-08
-2.12289e-06
-8.77915e-09
-2.105e-06
-5.2649e-08
-2.07913e-06
-9.77673e-08
-2.04506e-06
-1.4396e-07
-2.00257e-06
-1.9097e-07
-1.95143e-06
-2.3848e-07
-1.89145e-06
-2.86079e-07
-1.82248e-06
-3.33268e-07
-1.74445e-06
-3.79426e-07
-1.65737e-06
-4.2377e-07
-1.56135e-06
-4.65333e-07
-1.45669e-06
-5.02939e-07
-1.34403e-06
-5.35263e-07
-1.22429e-06
-5.60926e-07
-1.09874e-06
-5.78397e-07
-9.69021e-07
-5.86279e-07
-8.37103e-07
-5.83346e-07
-7.05046e-07
-5.68573e-07
-5.75103e-07
-5.41431e-07
-4.49855e-07
-5.01592e-07
-3.31952e-07
-4.49693e-07
-2.23909e-07
-3.87157e-07
-1.28068e-07
-3.15967e-07
-4.64477e-08
-2.38945e-07
1.94053e-08
-1.59607e-07
6.84751e-08
-8.19352e-08
1.00467e-07
-1.01905e-08
1.15681e-07
5.14881e-08
1.15424e-07
9.96463e-08
1.01976e-07
1.32204e-07
7.84489e-08
1.48681e-07
4.85015e-08
1.48637e-07
1.79292e-08
1.27117e-07
6.66491e-08
-5.05086e-10
-2.19543e-08
-7.70142e-09
-1.7562e-08
-2.07747e-08
4.93526e-09
-3.73672e-08
2.73298e-08
-5.635e-08
4.60406e-08
-7.72218e-08
6.08323e-08
-9.97694e-08
7.21727e-08
-1.23934e-07
8.08149e-08
-1.49783e-07
8.76684e-08
-1.77509e-07
9.37101e-08
-2.07434e-07
9.99086e-08
-2.39994e-07
1.07157e-07
-2.75705e-07
1.16208e-07
-3.15114e-07
1.27624e-07
-3.58751e-07
1.41735e-07
-4.07081e-07
1.58634e-07
-4.60479e-07
1.78205e-07
-5.19214e-07
2.00168e-07
-5.83438e-07
2.24136e-07
-6.53169e-07
2.49652e-07
-7.28273e-07
2.76213e-07
-8.08432e-07
3.0327e-07
-8.93122e-07
3.30223e-07
-9.81595e-07
3.56405e-07
-1.0729e-06
3.81091e-07
-1.16592e-06
4.03523e-07
-1.25947e-06
4.22956e-07
-1.35233e-06
4.38727e-07
-1.44344e-06
4.50339e-07
-1.53184e-06
4.57454e-07
-1.61672e-06
4.59832e-07
-1.69742e-06
4.57409e-07
-1.7735e-06
4.50283e-07
-1.84462e-06
4.38635e-07
-1.91054e-06
4.22672e-07
-1.97108e-06
4.02648e-07
-2.02609e-06
3.78827e-07
-2.07547e-06
3.51483e-07
-2.11912e-06
3.20877e-07
-2.15692e-06
2.87253e-07
-2.18879e-06
2.50842e-07
-2.2146e-06
2.11862e-07
-2.23424e-06
1.70513e-07
-2.24759e-06
1.2698e-07
-2.25449e-06
8.14055e-08
-2.25476e-06
3.39145e-08
-2.24817e-06
-1.5368e-08
-2.2345e-06
-6.63158e-08
-2.21349e-06
-1.1878e-07
-2.18486e-06
-1.72591e-07
-2.1483e-06
-2.27526e-07
-2.1035e-06
-2.83279e-07
-2.05016e-06
-3.39418e-07
-1.988e-06
-3.9543e-07
-1.91676e-06
-4.50667e-07
-1.83622e-06
-5.04308e-07
-1.74623e-06
-5.55321e-07
-1.6468e-06
-6.02372e-07
-1.53815e-06
-6.43913e-07
-1.42075e-06
-6.78328e-07
-1.29542e-06
-7.03726e-07
-1.16337e-06
-7.18329e-07
-1.02661e-06
-7.2011e-07
-8.87453e-07
-7.07725e-07
-7.48435e-07
-6.80449e-07
-6.1208e-07
-6.37947e-07
-4.81229e-07
-5.80545e-07
-3.58849e-07
-5.09537e-07
-2.47758e-07
-4.27058e-07
-1.50454e-07
-3.36249e-07
-6.89655e-08
-2.41096e-07
-4.70492e-09
-1.46196e-07
4.16194e-08
-5.65148e-08
7.0119e-08
2.29886e-08
8.18424e-08
8.79229e-08
7.88437e-08
1.35203e-07
6.40659e-08
1.63459e-07
4.11352e-08
1.71568e-07
1.54858e-08
1.52766e-07
8.21349e-08
-3.67929e-09
-1.8275e-08
-1.63197e-08
-4.9216e-09
-3.44348e-08
2.30503e-08
-5.5433e-08
4.8328e-08
-7.83532e-08
6.89609e-08
-1.02895e-07
8.53736e-08
-1.29017e-07
9.82953e-08
-1.56824e-07
1.08622e-07
-1.86531e-07
1.17375e-07
-2.18462e-07
1.25641e-07
-2.53043e-07
1.34489e-07
-2.90773e-07
1.44886e-07
-3.32185e-07
1.57621e-07
-3.77794e-07
1.73233e-07
-4.28049e-07
1.9199e-07
-4.83298e-07
2.13884e-07
-5.43773e-07
2.3868e-07
-6.09577e-07
2.65972e-07
-6.80677e-07
2.95236e-07
-7.56888e-07
3.25864e-07
-8.37859e-07
3.57183e-07
-9.23048e-07
3.88459e-07
-1.01172e-06
4.18895e-07
-1.10297e-06
4.4765e-07
-1.19574e-06
4.73866e-07
-1.28894e-06
4.9672e-07
-1.38148e-06
5.15493e-07
-1.47239e-06
5.29639e-07
-1.56085e-06
5.38798e-07
-1.64614e-06
5.42743e-07
-1.72771e-06
5.41405e-07
-1.80518e-06
5.34879e-07
-1.87825e-06
5.23354e-07
-1.94669e-06
5.07073e-07
-2.01031e-06
4.86295e-07
-2.06896e-06
4.61297e-07
-2.1225e-06
4.32367e-07
-2.17082e-06
3.99801e-07
-2.21382e-06
3.63877e-07
-2.25142e-06
3.24856e-07
-2.28355e-06
2.82975e-07
-2.31013e-06
2.38443e-07
-2.33107e-06
1.91449e-07
-2.34628e-06
1.42189e-07
-2.35566e-06
9.07884e-08
-2.35908e-06
3.73347e-08
-2.35635e-06
-1.81007e-08
-2.34726e-06
-7.54049e-08
-2.33153e-06
-1.34508e-07
-2.30886e-06
-1.95259e-07
-2.27894e-06
-2.57452e-07
-2.24139e-06
-3.20827e-07
-2.1958e-06
-3.85005e-07
-2.14176e-06
-4.49474e-07
-2.07884e-06
-5.13584e-07
-2.00663e-06
-5.76517e-07
-1.92468e-06
-6.37277e-07
-1.83264e-06
-6.94408e-07
-1.73048e-06
-7.4607e-07
-1.61818e-06
-7.90635e-07
-1.49602e-06
-8.25882e-07
-1.36487e-06
-8.49479e-07
-1.22588e-06
-8.59105e-07
-1.08095e-06
-8.52649e-07
-9.33147e-07
-8.28254e-07
-7.85557e-07
-7.85536e-07
-6.4132e-07
-7.24782e-07
-5.03722e-07
-6.47134e-07
-3.76124e-07
-5.54656e-07
-2.61638e-07
-4.50735e-07
-1.62937e-07
-3.39796e-07
-8.20485e-08
-2.27084e-07
-2.01931e-08
-1.1837e-07
2.2345e-08
-1.95496e-08
4.63356e-08
6.39324e-08
5.37481e-08
1.2779e-07
4.76406e-08
1.69567e-07
3.2017e-08
1.87192e-07
1.23264e-08
1.72457e-07
9.44613e-08
-6.95762e-09
-1.13174e-08
-2.45806e-08
1.27013e-08
-4.72693e-08
4.57391e-08
-7.22983e-08
7.33569e-08
-9.89103e-08
9.55728e-08
-1.26965e-07
1.13428e-07
-1.56561e-07
1.27892e-07
-1.87934e-07
1.39995e-07
-2.21419e-07
1.5086e-07
-2.57441e-07
1.61663e-07
-2.96494e-07
1.73542e-07
-3.39108e-07
1.87501e-07
-3.85798e-07
2.0431e-07
-4.37011e-07
2.24447e-07
-4.93093e-07
2.48071e-07
-5.54259e-07
2.75049e-07
-6.20589e-07
3.05009e-07
-6.92021e-07
3.37405e-07
-7.6835e-07
3.71564e-07
-8.49211e-07
4.06725e-07
-9.34075e-07
4.42047e-07
-1.02224e-06
4.76626e-07
-1.11286e-06
5.09516e-07
-1.20498e-06
5.39764e-07
-1.29757e-06
5.66464e-07
-1.38967e-06
5.88813e-07
-1.48039e-06
6.06219e-07
-1.56902e-06
6.18266e-07
-1.65489e-06
6.24672e-07
-1.73751e-06
6.25356e-07
-1.81648e-06
6.20378e-07
-1.89151e-06
6.0991e-07
-1.96233e-06
5.94176e-07
-2.0287e-06
5.73443e-07
-2.09042e-06
5.48015e-07
-2.14735e-06
5.18221e-07
-2.19936e-06
4.84383e-07
-2.24638e-06
4.46816e-07
-2.28832e-06
4.0582e-07
-2.32513e-06
3.61669e-07
-2.35676e-06
3.14606e-07
-2.38317e-06
2.64852e-07
-2.40429e-06
2.12561e-07
-2.42011e-06
1.58009e-07
-2.43066e-06
1.01348e-07
-2.43599e-06
4.26604e-08
-2.43601e-06
-1.80849e-08
-2.43063e-06
-8.0776e-08
-2.41962e-06
-1.45521e-07
-2.40274e-06
-2.12141e-07
-2.37964e-06
-2.80551e-07
-2.34986e-06
-3.50604e-07
-2.31292e-06
-4.21945e-07
-2.26822e-06
-4.94181e-07
-2.21511e-06
-5.6669e-07
-2.15307e-06
-6.38561e-07
-2.08158e-06
-7.08764e-07
-1.99988e-06
-7.76112e-07
-1.90742e-06
-8.38524e-07
-1.80371e-06
-8.94346e-07
-1.68849e-06
-9.41108e-07
-1.5621e-06
-9.75868e-07
-1.42502e-06
-9.96184e-07
-1.27864e-06
-9.9903e-07
-1.12506e-06
-9.81832e-07
-9.67672e-07
-9.42923e-07
-8.10554e-07
-8.819e-07
-6.57749e-07
-7.9994e-07
-5.13046e-07
-6.99359e-07
-3.80241e-07
-5.83539e-07
-2.62837e-07
-4.57201e-07
-1.63678e-07
-3.26244e-07
-8.47072e-08
-1.97341e-07
-2.67801e-08
-7.74767e-08
1.04883e-08
2.6664e-08
2.88538e-08
1.09425e-07
3.15971e-08
1.66823e-07
2.3061e-08
1.95728e-07
9.16214e-09
1.86356e-07
1.03623e-07
-1.01447e-08
-1.17265e-09
-3.22934e-08
3.485e-08
-5.90697e-08
7.25154e-08
-8.77871e-08
1.02074e-07
-1.1785e-07
1.25636e-07
-1.49245e-07
1.44823e-07
-1.82184e-07
1.60831e-07
-2.17003e-07
1.74814e-07
-2.54129e-07
1.87986e-07
-2.94056e-07
2.0159e-07
-3.37317e-07
2.16803e-07
-3.84435e-07
2.34619e-07
-4.35876e-07
2.55751e-07
-4.92003e-07
2.80574e-07
-5.53043e-07
3.09111e-07
-6.19079e-07
3.41086e-07
-6.9005e-07
3.7598e-07
-7.65747e-07
4.13102e-07
-8.45819e-07
4.51636e-07
-9.2976e-07
4.90666e-07
-1.01692e-06
5.29208e-07
-1.10652e-06
5.66224e-07
-1.19767e-06
6.00671e-07
-1.28946e-06
6.31551e-07
-1.38099e-06
6.57992e-07
-1.47147e-06
6.79291e-07
-1.56022e-06
6.94967e-07
-1.64663e-06
7.0468e-07
-1.73018e-06
7.08219e-07
-1.81044e-06
7.05622e-07
-1.88706e-06
6.96992e-07
-1.95968e-06
6.82537e-07
-2.02806e-06
6.6255e-07
-2.09197e-06
6.37354e-07
-2.15124e-06
6.07287e-07
-2.20573e-06
5.72706e-07
-2.25528e-06
5.3394e-07
-2.2998e-06
4.91335e-07
-2.33921e-06
4.45229e-07
-2.37348e-06
3.95942e-07
-2.40265e-06
3.43777e-07
-2.42681e-06
2.89007e-07
-2.44589e-06
2.31645e-07
-2.46002e-06
1.72135e-07
-2.46929e-06
1.10621e-07
-2.47377e-06
4.71399e-08
-2.47359e-06
-1.82675e-08
-2.46891e-06
-8.54606e-08
-2.45989e-06
-1.54533e-07
-2.44656e-06
-2.25476e-07
-2.42881e-06
-2.98297e-07
-2.40643e-06
-3.72984e-07
-2.37891e-06
-4.49464e-07
-2.34558e-06
-5.27515e-07
-2.30553e-06
-6.06736e-07
-2.25756e-06
-6.86532e-07
-2.20037e-06
-7.65958e-07
-2.13268e-06
-8.43803e-07
-2.05373e-06
-9.1747e-07
-1.96302e-06
-9.85062e-07
-1.85965e-06
-1.04447e-06
-1.74313e-06
-1.09239e-06
-1.61332e-06
-1.126e-06
-1.47081e-06
-1.14153e-06
-1.3169e-06
-1.13575e-06
-1.15419e-06
-1.10563e-06
-9.86667e-07
-1.04943e-06
-8.19634e-07
-9.66973e-07
-6.58084e-07
-8.60909e-07
-5.06526e-07
-7.35098e-07
-3.69311e-07
-5.94416e-07
-2.50341e-07
-4.45213e-07
-1.52536e-07
-2.95146e-07
-7.75433e-08
-1.52469e-07
-2.55611e-08
-2.53182e-08
4.86053e-09
7.90034e-08
1.69177e-08
1.54766e-07
1.54749e-08
1.97171e-07
6.71176e-09
1.95119e-07
1.10335e-07
-1.30646e-08
1.18919e-08
-3.93007e-08
6.10861e-08
-6.97396e-08
1.02954e-07
-1.01821e-07
1.34156e-07
-1.35085e-07
1.589e-07
-1.69621e-07
1.79359e-07
-2.05726e-07
1.96937e-07
-2.43816e-07
2.12903e-07
-2.84379e-07
2.2855e-07
-3.27951e-07
2.45162e-07
-3.7507e-07
2.63921e-07
-4.26227e-07
2.85776e-07
-4.81819e-07
3.11344e-07
-5.42112e-07
3.40866e-07
-6.07217e-07
3.74217e-07
-6.77098e-07
4.10967e-07
-7.51569e-07
4.50451e-07
-8.30304e-07
4.91837e-07
-9.12838e-07
5.3417e-07
-9.98575e-07
5.76404e-07
-1.0868e-06
6.17433e-07
-1.17671e-06
6.56133e-07
-1.26746e-06
6.9142e-07
-1.35823e-06
7.22325e-07
-1.44829e-06
7.48052e-07
-1.537e-06
7.68001e-07
-1.62372e-06
7.81683e-07
-1.70788e-06
7.88842e-07
-1.789e-06
7.89336e-07
-1.86661e-06
7.83235e-07
-1.94038e-06
7.70764e-07
-2.01002e-06
7.52179e-07
-2.07528e-06
7.27802e-07
-2.13588e-06
6.9796e-07
-2.1916e-06
6.63004e-07
-2.24221e-06
6.23319e-07
-2.28758e-06
5.79304e-07
-2.32761e-06
5.31372e-07
-2.36232e-06
4.79931e-07
-2.39173e-06
4.25357e-07
-2.41594e-06
3.67991e-07
-2.4353e-06
3.08366e-07
-2.4504e-06
2.46742e-07
-2.46138e-06
1.83113e-07
-2.4683e-06
1.17544e-07
-2.47125e-06
5.00935e-08
-2.4704e-06
-1.9124e-08
-2.466e-06
-8.9854e-08
-2.45823e-06
-1.62305e-07
-2.44713e-06
-2.36577e-07
-2.43268e-06
-3.1275e-07
-2.4148e-06
-3.90862e-07
-2.39328e-06
-4.70983e-07
-2.36779e-06
-5.53009e-07
-2.3378e-06
-6.36723e-07
-2.30262e-06
-7.21713e-07
-2.2613e-06
-8.07276e-07
-2.21249e-06
-8.9261e-07
-2.15331e-06
-9.76657e-07
-2.08149e-06
-1.05688e-06
-1.9955e-06
-1.13047e-06
-1.89466e-06
-1.19322e-06
-1.77859e-06
-1.24208e-06
-1.64656e-06
-1.27356e-06
-1.49909e-06
-1.28322e-06
-1.3377e-06
-1.26702e-06
-1.16553e-06
-1.2216e-06
-9.87572e-07
-1.14493e-06
-8.10448e-07
-1.03803e-06
-6.40471e-07
-9.05074e-07
-4.83028e-07
-7.51859e-07
-3.43049e-07
-5.85192e-07
-2.24757e-07
-4.13438e-07
-1.30897e-07
-2.46329e-07
-6.24643e-08
-9.37514e-08
-1.85895e-08
3.51286e-08
3.72277e-09
1.32454e-07
9.57064e-09
1.91323e-07
5.22962e-09
1.9946e-07
1.15565e-07
-1.58358e-08
2.77277e-08
-4.55957e-08
9.0846e-08
-7.92647e-08
1.36623e-07
-1.14378e-07
1.69269e-07
-1.50575e-07
1.95096e-07
-1.88016e-07
2.168e-07
-2.27066e-07
2.35987e-07
-2.68194e-07
2.54031e-07
-3.11926e-07
2.72282e-07
-3.58812e-07
2.92048e-07
-4.09369e-07
3.14478e-07
-4.64038e-07
3.40445e-07
-5.23135e-07
3.70441e-07
-5.86828e-07
4.04559e-07
-6.55126e-07
4.42515e-07
-7.27886e-07
4.83727e-07
-8.04825e-07
5.2739e-07
-8.85527e-07
5.72539e-07
-9.69455e-07
6.18098e-07
-1.05596e-06
6.6291e-07
-1.14431e-06
7.05781e-07
-1.23373e-06
7.45556e-07
-1.3235e-06
7.81185e-07
-1.41291e-06
8.11733e-07
-1.50128e-06
8.36423e-07
-1.58795e-06
8.54674e-07
-1.6723e-06
8.66038e-07
-1.75375e-06
8.70287e-07
-1.83184e-06
8.67432e-07
-1.90621e-06
8.57598e-07
-1.97648e-06
8.4104e-07
-2.0423e-06
8.17998e-07
-2.10329e-06
7.88792e-07
-2.15913e-06
7.53796e-07
-2.20956e-06
7.13433e-07
-2.25442e-06
6.68176e-07
-2.29365e-06
6.1854e-07
-2.32733e-06
5.65047e-07
-2.35561e-06
5.0822e-07
-2.37886e-06
4.48605e-07
-2.39752e-06
3.8665e-07
-2.4117e-06
3.22539e-07
-2.42163e-06
2.56673e-07
-2.42761e-06
1.89094e-07
-2.43008e-06
1.20017e-07
-2.42959e-06
4.9604e-08
-2.42658e-06
-2.21352e-08
-2.42123e-06
-9.52074e-08
-2.41368e-06
-1.69849e-07
-2.4041e-06
-2.46164e-07
-2.39255e-06
-3.24297e-07
-2.37901e-06
-4.04405e-07
-2.36335e-06
-4.86639e-07
-2.34528e-06
-5.71075e-07
-2.32431e-06
-6.57693e-07
-2.29971e-06
-7.46319e-07
-2.27047e-06
-8.36517e-07
-2.23573e-06
-9.27349e-07
-2.19408e-06
-1.0183e-06
-2.14357e-06
-1.10739e-06
-2.08143e-06
-1.19261e-06
-2.00351e-06
-1.27113e-06
-1.90773e-06
-1.33786e-06
-1.79349e-06
-1.3878e-06
-1.66024e-06
-1.41647e-06
-1.50817e-06
-1.41908e-06
-1.3393e-06
-1.39047e-06
-1.15737e-06
-1.32686e-06
-9.68749e-07
-1.22665e-06
-7.81788e-07
-1.09204e-06
-6.0437e-07
-9.29277e-07
-4.42817e-07
-7.46746e-07
-3.02645e-07
-5.53609e-07
-1.88143e-07
-3.60832e-07
-1.01419e-07
-1.80475e-07
-4.24003e-08
-2.38905e-08
-8.67146e-09
9.8725e-08
4.94287e-09
1.77708e-07
4.57377e-09
1.99829e-07
1.20139e-07
-1.83208e-08
4.60485e-08
-5.1135e-08
1.2366e-07
-8.76344e-08
1.73123e-07
-1.25452e-07
2.07086e-07
-1.64294e-07
2.33939e-07
-2.04376e-07
2.56883e-07
-2.46107e-07
2.77717e-07
-2.89989e-07
2.97912e-07
-3.36565e-07
3.18859e-07
-3.86375e-07
3.41857e-07
-4.39899e-07
3.68002e-07
-4.97513e-07
3.98059e-07
-5.59453e-07
4.32381e-07
-6.25793e-07
4.70899e-07
-6.96454e-07
5.13176e-07
-7.7121e-07
5.58482e-07
-8.49703e-07
6.05883e-07
-9.31458e-07
6.54295e-07
-1.01589e-06
7.02534e-07
-1.10234e-06
7.49358e-07
-1.19011e-06
7.93551e-07
-1.27855e-06
8.33995e-07
-1.36696e-06
8.69597e-07
-1.45463e-06
8.99401e-07
-1.54087e-06
9.2266e-07
-1.62497e-06
9.38775e-07
-1.70634e-06
9.47407e-07
-1.78449e-06
9.48433e-07
-1.85897e-06
9.41919e-07
-1.92933e-06
9.27955e-07
-1.99506e-06
9.06766e-07
-2.05569e-06
8.78636e-07
-2.11084e-06
8.4394e-07
-2.16021e-06
8.03161e-07
-2.20363e-06
7.56859e-07
-2.24111e-06
7.05654e-07
-2.27278e-06
6.50208e-07
-2.2989e-06
5.91172e-07
-2.31985e-06
5.29165e-07
-2.33595e-06
4.64708e-07
-2.34756e-06
3.98262e-07
-2.35516e-06
3.30138e-07
-2.35921e-06
2.60722e-07
-2.3603e-06
1.9018e-07
-2.35891e-06
1.18626e-07
-2.35541e-06
4.61038e-08
-2.35011e-06
-2.7427e-08
-2.34328e-06
-1.02046e-07
-2.33518e-06
-1.77943e-07
-2.32606e-06
-2.5529e-07
-2.31606e-06
-3.34298e-07
-2.30526e-06
-4.15196e-07
-2.29369e-06
-4.98218e-07
-2.2812e-06
-5.83565e-07
-2.26751e-06
-6.71378e-07
-2.25215e-06
-7.6168e-07
-2.23437e-06
-8.54301e-07
-2.21289e-06
-9.48822e-07
-2.1865e-06
-1.0447e-06
-2.15323e-06
-1.14065e-06
-2.11125e-06
-1.2346e-06
-2.05766e-06
-1.32471e-06
-1.98837e-06
-1.40715e-06
-1.89928e-06
-1.4769e-06
-1.788e-06
-1.52775e-06
-1.65396e-06
-1.55313e-06
-1.49733e-06
-1.5471e-06
-1.32056e-06
-1.50363e-06
-1.12849e-06
-1.41871e-06
-9.29286e-07
-1.29124e-06
-7.33388e-07
-1.12518e-06
-5.50342e-07
-9.29791e-07
-3.87449e-07
-7.16503e-07
-2.50691e-07
-4.9759e-07
-1.43824e-07
-2.87341e-07
-6.78763e-08
-9.98383e-08
-2.11536e-08
5.20023e-08
9.45637e-10
1.55609e-07
4.57574e-09
1.96199e-07
1.24714e-07
-2.04924e-08
6.65408e-08
-5.59105e-08
1.59078e-07
-9.48563e-08
2.12069e-07
-1.35045e-07
2.47275e-07
-1.7623e-07
2.75123e-07
-2.1866e-07
2.99313e-07
-2.62771e-07
3.21829e-07
-3.09081e-07
3.44222e-07
-3.58131e-07
3.67909e-07
-4.10433e-07
3.94159e-07
-4.66419e-07
4.23988e-07
-5.26396e-07
4.58036e-07
-5.90519e-07
4.96504e-07
-6.58786e-07
5.39166e-07
-7.31041e-07
5.85431e-07
-8.06995e-07
6.34437e-07
-8.86241e-07
6.85129e-07
-9.68267e-07
7.3632e-07
-1.05247e-06
7.86737e-07
-1.13823e-06
8.35117e-07
-1.22497e-06
8.8029e-07
-1.312e-06
9.21023e-07
-1.39856e-06
9.56162e-07
-1.48395e-06
9.84789e-07
-1.56742e-06
1.00614e-06
-1.64835e-06
1.01971e-06
-1.7262e-06
1.02525e-06
-1.80042e-06
1.02265e-06
-1.87042e-06
1.01192e-06
-1.93562e-06
9.93152e-07
-1.99545e-06
9.66594e-07
-2.04944e-06
9.32632e-07
-2.09728e-06
8.91779e-07
-2.13881e-06
8.44687e-07
-2.17405e-06
7.92102e-07
-2.20321e-06
7.34816e-07
-2.22663e-06
6.73628e-07
-2.24475e-06
6.09289e-07
-2.25806e-06
5.42471e-07
-2.26707e-06
4.73722e-07
-2.27231e-06
4.03499e-07
-2.27433e-06
3.32164e-07
-2.27363e-06
2.60017e-07
-2.27066e-06
1.87208e-07
-2.26583e-06
1.13799e-07
-2.25951e-06
3.97842e-08
-2.25203e-06
-3.49046e-08
-2.24369e-06
-1.10389e-07
-2.23478e-06
-1.86854e-07
-2.22556e-06
-2.64509e-07
-2.21625e-06
-3.43607e-07
-2.20702e-06
-4.24427e-07
-2.19797e-06
-5.07266e-07
-2.18912e-06
-5.92414e-07
-2.18037e-06
-6.80133e-07
-2.17143e-06
-7.70614e-07
-2.16181e-06
-8.63926e-07
-2.15064e-06
-9.59984e-07
-2.13687e-06
-1.05847e-06
-2.11893e-06
-1.15859e-06
-2.09449e-06
-1.25904e-06
-2.06118e-06
-1.35803e-06
-2.01589e-06
-1.45244e-06
-1.95425e-06
-1.53854e-06
-1.87133e-06
-1.61067e-06
-1.76323e-06
-1.66123e-06
-1.62812e-06
-1.68221e-06
-1.46625e-06
-1.6655e-06
-1.28084e-06
-1.60413e-06
-1.07827e-06
-1.49381e-06
-8.69007e-07
-1.33444e-06
-6.65882e-07
-1.13292e-06
-4.80085e-07
-9.023e-07
-3.19859e-07
-6.57816e-07
-1.91049e-07
-4.16151e-07
-9.63667e-08
-1.9452e-07
-3.50667e-08
-9.29771e-09
-3.52409e-09
1.24067e-07
4.78701e-09
1.87888e-07
1.29501e-07
-2.23416e-08
8.88824e-08
-5.99276e-08
1.96664e-07
-1.00944e-07
2.53085e-07
-1.43167e-07
2.89497e-07
-1.86375e-07
3.18332e-07
-2.30838e-07
3.43776e-07
-2.77001e-07
3.67991e-07
-3.25381e-07
3.92602e-07
-3.76501e-07
4.1903e-07
-4.30837e-07
4.48495e-07
-4.88764e-07
4.81915e-07
-5.50519e-07
5.19792e-07
-6.16188e-07
5.62173e-07
-6.857e-07
6.08678e-07
-7.58844e-07
6.58574e-07
-8.35284e-07
7.10877e-07
-9.1458e-07
7.64425e-07
-9.96199e-07
8.17939e-07
-1.07958e-06
8.70118e-07
-1.16422e-06
9.19754e-07
-1.24945e-06
9.65528e-07
-1.33451e-06
1.00608e-06
-1.41865e-06
1.0403e-06
-1.50114e-06
1.06728e-06
-1.5813e-06
1.0863e-06
-1.65854e-06
1.09694e-06
-1.7322e-06
1.09891e-06
-1.80159e-06
1.09205e-06
-1.86602e-06
1.07636e-06
-1.92487e-06
1.052e-06
-1.9776e-06
1.01932e-06
-2.02385e-06
9.78881e-07
-2.06347e-06
9.31404e-07
-2.09655e-06
8.77763e-07
-2.12334e-06
8.18897e-07
-2.14428e-06
7.55753e-07
-2.15989e-06
6.8924e-07
-2.17077e-06
6.20165e-07
-2.17749e-06
5.49191e-07
-2.18062e-06
4.76857e-07
-2.18072e-06
4.03598e-07
-2.1783e-06
3.29741e-07
-2.17379e-06
2.55507e-07
-2.16758e-06
1.81002e-07
-2.16004e-06
1.06256e-07
-2.15149e-06
3.1236e-08
-2.14225e-06
-4.41471e-08
-2.13261e-06
-1.20032e-07
-2.12285e-06
-1.96608e-07
-2.11326e-06
-2.74102e-07
-2.10408e-06
-3.52785e-07
-2.09555e-06
-4.32962e-07
-2.08784e-06
-5.14971e-07
-2.08109e-06
-5.99164e-07
-2.07533e-06
-6.85894e-07
-2.07046e-06
-7.75483e-07
-2.0662e-06
-8.68189e-07
-2.06202e-06
-9.64162e-07
-2.05713e-06
-1.06336e-06
-2.05031e-06
-1.16541e-06
-2.03979e-06
-1.26956e-06
-2.02336e-06
-1.37445e-06
-1.99797e-06
-1.47783e-06
-1.96001e-06
-1.5765e-06
-1.90493e-06
-1.66575e-06
-1.82688e-06
-1.73927e-06
-1.72076e-06
-1.78832e-06
-1.58344e-06
-1.80282e-06
-1.41509e-06
-1.77248e-06
-1.21997e-06
-1.68893e-06
-1.00661e-06
-1.5478e-06
-7.88473e-07
-1.35106e-06
-5.80926e-07
-1.10985e-06
-3.96635e-07
-8.42107e-07
-2.44292e-07
-5.68495e-07
-1.29002e-07
-3.0981e-07
-5.1549e-08
-8.67509e-08
-9.22376e-09
8.17413e-08
4.81236e-09
1.73851e-07
1.34314e-07
-2.38682e-08
1.12751e-07
-6.31978e-08
2.35994e-07
-1.05914e-07
2.95801e-07
-1.49828e-07
3.33412e-07
-1.94731e-07
3.63235e-07
-2.40892e-07
3.89937e-07
-2.88756e-07
4.15855e-07
-3.38825e-07
4.42671e-07
-3.91594e-07
4.71799e-07
-4.47492e-07
5.04393e-07
-5.06835e-07
5.41258e-07
-5.69799e-07
5.82755e-07
-6.36404e-07
6.28779e-07
-7.06528e-07
6.78802e-07
-7.79917e-07
7.31963e-07
-8.56203e-07
7.87164e-07
-9.34926e-07
8.43148e-07
-1.01558e-06
8.98589e-07
-1.09771e-06
9.52249e-07
-1.18075e-06
1.00279e-06
-1.26389e-06
1.04867e-06
-1.34641e-06
1.08859e-06
-1.42755e-06
1.12145e-06
-1.50663e-06
1.14636e-06
-1.58298e-06
1.16265e-06
-1.65585e-06
1.16982e-06
-1.72449e-06
1.16754e-06
-1.78812e-06
1.15567e-06
-1.84602e-06
1.13426e-06
-1.89761e-06
1.10359e-06
-1.94249e-06
1.06421e-06
-1.98053e-06
1.01691e-06
-2.01182e-06
9.62695e-07
-2.03669e-06
9.02639e-07
-2.05565e-06
8.37855e-07
-2.06931e-06
7.69409e-07
-2.07831e-06
6.98247e-07
-2.0833e-06
6.25152e-07
-2.08486e-06
5.5075e-07
-2.08354e-06
4.75542e-07
-2.07985e-06
3.99907e-07
-2.07421e-06
3.241e-07
-2.06699e-06
2.48282e-07
-2.05851e-06
1.7252e-07
-2.04907e-06
9.68171e-08
-2.03895e-06
2.11216e-08
-2.02843e-06
-5.46663e-08
-2.01778e-06
-1.30688e-07
-2.00726e-06
-2.07129e-07
-1.99714e-06
-2.84215e-07
-1.98771e-06
-3.62217e-07
-1.97923e-06
-4.41447e-07
-1.97194e-06
-5.22257e-07
-1.96607e-06
-6.05037e-07
-1.96176e-06
-6.90199e-07
-1.95908e-06
-7.78164e-07
-1.95794e-06
-8.69332e-07
-1.95806e-06
-9.64043e-07
-1.95891e-06
-1.0625e-06