/*--------------------------------*- C++ -*----------------------------------*\
  =========                 |
  \\      /  F ield         | OpenFOAM: The Open Source CFD Toolbox
   \\    /   O peration     | Website:  https://openfoam.org
    \\  /    A nd           | Version:  13
     \\/     M anipulation  |
\*---------------------------------------------------------------------------*/
FoamFile
{
    format      ascii;
    class       volVectorField;
    location    "2";
    object      U;
}
// * * * * * * * * * * * * * * * * * * * * * * * * * * * * * * * * * * * * * //

dimensions      [0 1 -1 0 0 0 0];

internalField   nonuniform List<vector> 
6400
(
(8.08412e-05 -7.98917e-05 0)
(0.000480607 -0.000134362 0)
(0.000969119 -0.000141454 0)
(0.00137724 -0.000121002 0)
(0.00164281 -9.466e-05 0)
(0.00177034 -7.52181e-05 0)
(0.00179142 -6.48788e-05 0)
(0.00174571 -6.15647e-05 0)
(0.00166042 -6.31939e-05 0)
(0.00156059 -6.83987e-05 0)
(0.00145803 -7.51734e-05 0)
(0.00135823 -8.21921e-05 0)
(0.00126013 -8.85231e-05 0)
(0.00115718 -9.3506e-05 0)
(0.00103821 -9.66508e-05 0)
(0.000888647 -9.76991e-05 0)
(0.000691909 -9.67563e-05 0)
(0.000431149 -9.44363e-05 0)
(9.10429e-05 -9.19543e-05 0)
(-0.000338997 -9.03722e-05 0)
(-0.000870617 -8.99505e-05 0)
(-0.00151213 -9.1144e-05 0)
(-0.0022714 -9.35658e-05 0)
(-0.00315794 -9.52812e-05 0)
(-0.00418475 -9.24815e-05 0)
(-0.00536876 -8.02454e-05 0)
(-0.00674636 -5.5253e-05 0)
(-0.00833458 -1.7552e-05 0)
(-0.0101611 3.85676e-05 0)
(-0.0122565 0.000120292 0)
(-0.0146511 0.000232548 0)
(-0.0173723 0.000378265 0)
(-0.0204363 0.00056111 0)
(-0.0238507 0.000782086 0)
(-0.0276083 0.00103209 0)
(-0.0316797 0.00129661 0)
(-0.0360153 0.0015599 0)
(-0.0405455 0.00180458 0)
(-0.0451848 0.00201583 0)
(-0.0498354 0.00218097 0)
(-0.054399 0.00228975 0)
(-0.0587718 0.00233419 0)
(-0.0628536 0.00231062 0)
(-0.0665457 0.00221999 0)
(-0.069765 0.00206536 0)
(-0.0724446 0.00184875 0)
(-0.0745411 0.00157702 0)
(-0.0759302 0.00128157 0)
(-0.0765549 0.00100903 0)
(-0.0766398 0.000614346 0)
(-0.0757782 0.000235179 0)
(-0.0742196 -0.000171681 0)
(-0.0718197 -0.000580609 0)
(-0.0686517 -0.000985165 0)
(-0.0646952 -0.00136647 0)
(-0.0600149 -0.00172217 0)
(-0.0546905 -0.00205899 0)
(-0.0487626 -0.00235615 0)
(-0.0423291 -0.00259261 0)
(-0.0355169 -0.00275524 0)
(-0.0284739 -0.00282778 0)
(-0.021371 -0.00279518 0)
(-0.0143984 -0.00264838 0)
(-0.00775716 -0.00238415 0)
(-0.00164801 -0.00201099 0)
(0.00367395 -0.00155718 0)
(0.00801332 -0.00100414 0)
(0.0112506 -0.000420468 0)
(0.013293 0.000138112 0)
(0.0140923 0.000619954 0)
(0.0137952 0.00085522 0)
(0.0126178 0.000967378 0)
(0.0107226 0.000937567 0)
(0.00859665 0.000794224 0)
(0.00646558 0.000607956 0)
(0.00452136 0.00044024 0)
(0.00285666 0.000312588 0)
(0.00151116 0.000211016 0)
(0.000535331 0.000109468 0)
(2.61012e-05 9.27814e-06 0)
(0.000138584 -0.000481382 0)
(0.000843712 -0.000831915 0)
(0.00156317 -0.000801258 0)
(0.00204625 -0.000578419 0)
(0.00221923 -0.000308493 0)
(0.00210749 -7.33323e-05 0)
(0.00177705 9.62387e-05 0)
(0.0013001 0.000200391 0)
(0.000729683 0.000255105 0)
(0.000104411 0.00027771 0)
(-0.000555645 0.000283903 0)
(-0.00124241 0.000285876 0)
(-0.00196018 0.000294614 0)
(-0.00272577 0.000320114 0)
(-0.00356532 0.000370462 0)
(-0.00451181 0.000451299 0)
(-0.00560211 0.000565321 0)
(-0.00687385 0.000712042 0)
(-0.00836332 0.000888363 0)
(-0.0101057 0.00109061 0)
(-0.0121282 0.00131498 0)
(-0.0144561 0.00155917 0)
(-0.0171123 0.00182396 0)
(-0.0201192 0.00211372 0)
(-0.0234987 0.00243576 0)
(-0.0272712 0.00279777 0)
(-0.0314451 0.00320198 0)
(-0.0360411 0.0036504 0)
(-0.0410625 0.00414273 0)
(-0.0464951 0.00467212 0)
(-0.0523011 0.00522833 0)
(-0.0584233 0.00579948 0)
(-0.0647905 0.00635754 0)
(-0.0713039 0.0068624 0)
(-0.07785 0.00728845 0)
(-0.0843227 0.00761671 0)
(-0.0906128 0.00781823 0)
(-0.0966155 0.00787107 0)
(-0.102239 0.00776734 0)
(-0.107398 0.00750227 0)
(-0.112019 0.00707984 0)
(-0.116042 0.00651233 0)
(-0.119417 0.00581534 0)
(-0.122108 0.00500344 0)
(-0.124081 0.00408975 0)
(-0.125313 0.00308994 0)
(-0.125779 0.00201894 0)
(-0.125444 0.000897445 0)
(-0.124287 -0.000267111 0)
(-0.12233 -0.00149553 0)
(-0.11952 -0.00275826 0)
(-0.115902 -0.00403011 0)
(-0.111457 -0.0052988 0)
(-0.106212 -0.0065376 0)
(-0.100184 -0.00772844 0)
(-0.0934026 -0.00884978 0)
(-0.0859067 -0.00986242 0)
(-0.077797 -0.0107428 0)
(-0.0691536 -0.0114493 0)
(-0.0600932 -0.0119441 0)
(-0.0507546 -0.0121874 0)
(-0.0412975 -0.0121438 0)
(-0.0318989 -0.0117858 0)
(-0.0227525 -0.0110945 0)
(-0.014063 -0.0100642 0)
(-0.00604648 -0.00871503 0)
(0.00108581 -0.00706194 0)
(0.00714684 -0.00518446 0)
(0.0119781 -0.00317846 0)
(0.0154319 -0.00118761 0)
(0.0174651 0.000606617 0)
(0.0180487 0.0020665 0)
(0.0172917 0.00310113 0)
(0.0154276 0.00359023 0)
(0.0127569 0.00361596 0)
(0.00970133 0.0033148 0)
(0.00663591 0.00283421 0)
(0.00385031 0.00222935 0)
(0.00160859 0.00147925 0)
(0.000179014 0.000567724 0)
(0.000160228 -0.000994403 0)
(0.000850445 -0.00157463 0)
(0.00135896 -0.00132771 0)
(0.00148461 -0.00074677 0)
(0.00124015 -0.000130947 0)
(0.000700121 0.000382009 0)
(-6.10899e-05 0.00075357 0)
(-0.000982707 0.000996831 0)
(-0.00201435 0.00114289 0)
(-0.00312206 0.00122603 0)
(-0.00428785 0.00127765 0)
(-0.00551174 0.00132659 0)
(-0.00680939 0.00139883 0)
(-0.00820824 0.00151616 0)
(-0.00974532 0.0016954 0)
(-0.0114637 0.00194745 0)
(-0.0134087 0.00227694 0)
(-0.015625 0.00268245 0)
(-0.0181539 0.00315754 0)
(-0.0210323 0.00369318 0)
(-0.0242916 0.00428089 0)
(-0.0279588 0.00491485 0)
(-0.0320559 0.00559267 0)
(-0.0365994 0.00631478 0)
(-0.041598 0.00708228 0)
(-0.0470495 0.00789387 0)
(-0.0529361 0.00874344 0)
(-0.0592243 0.00961681 0)
(-0.0658576 0.0104898 0)
(-0.0727598 0.0113307 0)
(-0.0798377 0.0121012 0)
(-0.0869829 0.0127668 0)
(-0.0940793 0.0133045 0)
(-0.101023 0.013686 0)
(-0.107714 0.0138722 0)
(-0.114054 0.0138494 0)
(-0.119959 0.0136181 0)
(-0.125371 0.0131748 0)
(-0.130238 0.0125225 0)
(-0.134522 0.0116734 0)
(-0.138193 0.0106411 0)
(-0.141228 0.00944079 0)
(-0.143609 0.00808786 0)
(-0.145317 0.00660072 0)
(-0.146338 0.00499702 0)
(-0.146659 0.00329214 0)
(-0.146268 0.00150255 0)
(-0.145154 -0.000356789 0)
(-0.14329 -0.00227931 0)
(-0.140669 -0.00425847 0)
(-0.137284 -0.00626283 0)
(-0.133135 -0.0082742 0)
(-0.128219 -0.0102721 0)
(-0.122545 -0.0122283 0)
(-0.116129 -0.0141135 0)
(-0.109003 -0.0158863 0)
(-0.1012 -0.017504 0)
(-0.0927917 -0.0189188 0)
(-0.0838604 -0.0200749 0)
(-0.0744918 -0.0209172 0)
(-0.0648066 -0.0213832 0)
(-0.0549419 -0.021415 0)
(-0.0450556 -0.020969 0)
(-0.0353264 -0.0200137 0)
(-0.0259456 -0.0185347 0)
(-0.0171079 -0.0165431 0)
(-0.00900448 -0.0140803 0)
(-0.00181108 -0.0112261 0)
(0.00431198 -0.00809675 0)
(0.0092243 -0.00485071 0)
(0.0128198 -0.00168246 0)
(0.0150631 0.00120322 0)
(0.0158934 0.00354903 0)
(0.0153654 0.00523763 0)
(0.0137943 0.00615167 0)
(0.011317 0.00637568 0)
(0.00832808 0.00601982 0)
(0.00521509 0.00515777 0)
(0.00237259 0.00377308 0)
(0.000302821 0.00171402 0)
(0.000156216 -0.00145048 0)
(0.000626726 -0.00206029 0)
(0.00071028 -0.00143611 0)
(0.000363986 -0.000450118 0)
(-0.000317505 0.00048549 0)
(-0.00125252 0.00123858 0)
(-0.0023783 0.00178798 0)
(-0.00364919 0.00216068 0)
(-0.00503264 0.00240203 0)
(-0.00651014 0.00256192 0)
(-0.00807775 0.0026884 0)
(-0.00974661 0.00282551 0)
(-0.0115412 0.00301193 0)
(-0.0134968 0.00327953 0)
(-0.0156567 0.0036518 0)
(-0.0180675 0.00414251 0)
(-0.020776 0.00475555 0)
(-0.0238256 0.00548647 0)
(-0.0272546 0.00632456 0)
(-0.0310953 0.00725576 0)
(-0.0353735 0.0082661 0)
(-0.0401077 0.00934361 0)
(-0.0453072 0.0104783 0)
(-0.0509693 0.0116601 0)
(-0.0570762 0.0128764 0)
(-0.0635916 0.014108 0)
(-0.0704587 0.0153281 0)
(-0.0776002 0.0165008 0)
(-0.0849213 0.0175836 0)
(-0.0923165 0.0185318 0)
(-0.0996756 0.0193045 0)
(-0.106895 0.0198687 0)
(-0.113876 0.0201922 0)
(-0.120529 0.0202576 0)
(-0.126784 0.0200601 0)
(-0.132583 0.019594 0)
(-0.137887 0.0188658 0)
(-0.142665 0.0178869 0)
(-0.146894 0.016672 0)
(-0.150557 0.0152381 0)
(-0.153644 0.0136039 0)
(-0.156145 0.0117882 0)
(-0.158047 0.00980913 0)
(-0.159337 0.00768383 0)
(-0.160005 0.00542804 0)
(-0.160036 0.00305603 0)
(-0.159419 0.000582551 0)
(-0.158136 -0.00197608 0)
(-0.15617 -0.00460456 0)
(-0.153506 -0.00729445 0)
(-0.150133 -0.0100221 0)
(-0.146041 -0.012764 0)
(-0.14122 -0.0154923 0)
(-0.135669 -0.0181729 0)
(-0.129391 -0.0207658 0)
(-0.122402 -0.0232195 0)
(-0.114726 -0.0254745 0)
(-0.106401 -0.0274564 0)
(-0.0975008 -0.029104 0)
(-0.0881055 -0.0303389 0)
(-0.0783194 -0.0310778 0)
(-0.0682661 -0.0312518 0)
(-0.058086 -0.0307975 0)
(-0.0479395 -0.0296483 0)
(-0.0380177 -0.0277848 0)
(-0.0285129 -0.0252174 0)
(-0.0196205 -0.0219989 0)
(-0.0115254 -0.0182259 0)
(-0.00439632 -0.0140349 0)
(0.00161658 -0.009608 0)
(0.00639272 -0.00517188 0)
(0.00985201 -0.000968987 0)
(0.0119721 0.00272022 0)
(0.0127681 0.00563242 0)
(0.0122549 0.00764482 0)
(0.0107037 0.00870832 0)
(0.00836493 0.00886544 0)
(0.00557816 0.00814717 0)
(0.00269275 0.00641496 0)
(0.000357367 0.00314651 0)
(0.000133125 -0.00174614 0)
(0.000258398 -0.00215269 0)
(-0.000145825 -0.00106175 0)
(-0.000945007 0.000290853 0)
(-0.00201761 0.00148961 0)
(-0.00329856 0.00243953 0)
(-0.00474147 0.0031429 0)
(-0.00631866 0.00364123 0)
(-0.00801527 0.00399201 0)
(-0.00982811 0.00425774 0)
(-0.0117664 0.00449994 0)
(-0.0138518 0.00477561 0)
(-0.016117 0.00513453 0)
(-0.0186032 0.00561664 0)
(-0.0213556 0.00624968 0)
(-0.02442 0.00704776 0)
(-0.0278387 0.00801178 0)
(-0.0316482 0.00913172 0)
(-0.035878 0.0103902 0)
(-0.0405497 0.0117661 0)
(-0.0456763 0.013237 0)
(-0.0512597 0.0147804 0)
(-0.0572887 0.0163729 0)
(-0.0637353 0.0179882 0)
(-0.0705529 0.0195939 0)
(-0.0776749 0.0211503 0)
(-0.0850166 0.0226108 0)
(-0.0924799 0.0239243 0)
(-0.0999599 0.0250407 0)
(-0.107353 0.025916 0)
(-0.11457 0.0265168 0)
(-0.121527 0.0268163 0)
(-0.128148 0.0268042 0)
(-0.134379 0.0264727 0)
(-0.140182 0.0258274 0)
(-0.145529 0.0248814 0)
(-0.150399 0.0236505 0)
(-0.154776 0.0221519 0)
(-0.158649 0.0204048 0)
(-0.162011 0.0184288 0)
(-0.164851 0.016243 0)
(-0.167163 0.0138654 0)
(-0.168935 0.0113131 0)
(-0.170157 0.00860234 0)
(-0.170816 0.00574731 0)
(-0.1709 0.002761 0)
(-0.17039 -0.000343059 0)
(-0.16927 -0.00355047 0)
(-0.167521 -0.00684798 0)
(-0.165126 -0.0102211 0)
(-0.162066 -0.0136489 0)
(-0.158322 -0.0171058 0)
(-0.153878 -0.0205596 0)
(-0.148721 -0.0239714 0)
(-0.142839 -0.0272934 0)
(-0.136232 -0.0304654 0)
(-0.128905 -0.0334131 0)
(-0.120869 -0.0360518 0)
(-0.112161 -0.0382884 0)
(-0.102848 -0.0400213 0)
(-0.093015 -0.0411491 0)
(-0.0827689 -0.0415692 0)
(-0.0722747 -0.0412062 0)
(-0.0616821 -0.0399869 0)
(-0.0511611 -0.0378716 0)
(-0.0409071 -0.0348428 0)
(-0.0311318 -0.0309616 0)
(-0.0220458 -0.0263381 0)
(-0.0138441 -0.0211256 0)
(-0.00670302 -0.0155363 0)
(-0.000768628 -0.009832 0)
(0.00385386 -0.00430742 0)
(0.00711088 0.000726958 0)
(0.00899866 0.00496531 0)
(0.00956201 0.00816951 0)
(0.00895342 0.010215 0)
(0.00739551 0.011096 0)
(0.00518702 0.010799 0)
(0.00260865 0.00900496 0)
(0.000341402 0.00463063 0)
(9.7597e-05 -0.00182755 0)
(-0.000187286 -0.00179456 0)
(-0.00107059 -0.000227872 0)
(-0.00227611 0.00143566 0)
(-0.00370448 0.00284631 0)
(-0.00530467 0.0039597 0)
(-0.00704519 0.00480203 0)
(-0.00891447 0.00542757 0)
(-0.010913 0.00590433 0)
(-0.0130511 0.00630571 0)
(-0.0153496 0.00670457 0)
(-0.0178394 0.00716848 0)
(-0.0205595 0.0077554 0)
(-0.0235533 0.00850989 0)
(-0.026865 0.00946012 0)
(-0.0305349 0.0106169 0)
(-0.0345971 0.0119751 0)
(-0.0390776 0.0135172 0)
(-0.0439935 0.0152173 0)
(-0.0493519 0.0170444 0)
(-0.0551491 0.0189649 0)
(-0.0613675 0.0209425 0)
(-0.0679742 0.0229373 0)
(-0.0749182 0.0249042 0)
(-0.0821312 0.0267921 0)
(-0.0895293 0.0285448 0)
(-0.0970182 0.030104 0)
(-0.1045 0.0314146 0)
(-0.11188 0.0324304 0)
(-0.11908 0.0331189 0)
(-0.126028 0.0334562 0)
(-0.132663 0.0334295 0)
(-0.138942 0.0330401 0)
(-0.144836 0.0322997 0)
(-0.150322 0.0312219 0)
(-0.155383 0.0298259 0)
(-0.160007 0.0281322 0)
(-0.164184 0.0261617 0)
(-0.167907 0.0239344 0)
(-0.171166 0.021469 0)
(-0.173955 0.0187844 0)
(-0.176263 0.0158982 0)
(-0.178083 0.0128266 0)
(-0.179404 0.00958458 0)
(-0.180216 0.00618513 0)
(-0.180505 0.00263985 0)
(-0.180255 -0.00103998 0)
(-0.179448 -0.00484276 0)
(-0.178065 -0.00875567 0)
(-0.176083 -0.0127646 0)
(-0.173479 -0.0168501 0)
(-0.170228 -0.0209862 0)
(-0.166306 -0.0251391 0)
(-0.16169 -0.0292683 0)
(-0.156357 -0.0333228 0)
(-0.150287 -0.0372375 0)
(-0.143466 -0.0409303 0)
(-0.135888 -0.0442984 0)
(-0.127559 -0.0472252 0)
(-0.118506 -0.0495931 0)
(-0.108784 -0.0512591 0)
(-0.0984653 -0.0521066 0)
(-0.0876728 -0.0520098 0)
(-0.0765916 -0.050863 0)
(-0.0654279 -0.0486394 0)
(-0.0543702 -0.0453101 0)
(-0.0436226 -0.0409048 0)
(-0.0334365 -0.0355386 0)
(-0.0240437 -0.0293777 0)
(-0.015657 -0.0226616 0)
(-0.00846161 -0.0156904 0)
(-0.00259869 -0.00880655 0)
(0.00184415 -0.00237594 0)
(0.00483903 0.0032383 0)
(0.00642354 0.00772485 0)
(0.00671846 0.0108806 0)
(0.00593495 0.0126359 0)
(0.00435562 0.0129298 0)
(0.00226611 0.0112774 0)
(0.000284364 0.00598645 0)
(4.61016e-05 -0.00166167 0)
(-0.000662872 -0.000995151 0)
(-0.00198586 0.001031 0)
(-0.00355646 0.00294783 0)
(-0.00531287 0.00452814 0)
(-0.00721459 0.00577995 0)
(-0.00924196 0.0067513 0)
(-0.0113969 0.00750826 0)
(-0.0136925 0.00812826 0)
(-0.0161508 0.00869415 0)
(-0.018802 0.00928799 0)
(-0.0216839 0.00998497 0)
(-0.0248389 0.0108477 0)
(-0.02831 0.0119212 0)
(-0.0321363 0.0132301 0)
(-0.0363503 0.0147787 0)
(-0.0409755 0.0165533 0)
(-0.0460252 0.0185267 0)
(-0.0515028 0.0206627 0)
(-0.0573998 0.022919 0)
(-0.0636955 0.0252484 0)
(-0.0703545 0.0275994 0)
(-0.0773258 0.0299154 0)
(-0.084543 0.032135 0)
(-0.0919269 0.0341931 0)
(-0.0993897 0.0360247 0)
(-0.106842 0.0375696 0)
(-0.114199 0.0387777 0)
(-0.121391 0.0396154 0)
(-0.128356 0.0400605 0)
(-0.13504 0.0400999 0)
(-0.141409 0.0397369 0)
(-0.147436 0.0389852 0)
(-0.153101 0.0378631 0)
(-0.158387 0.0363891 0)
(-0.16328 0.0345831 0)
(-0.16777 0.032467 0)
(-0.171846 0.0300635 0)
(-0.1755 0.0273949 0)
(-0.178725 0.024482 0)
(-0.181515 0.0213435 0)
(-0.183865 0.0179954 0)
(-0.185766 0.0144528 0)
(-0.187213 0.0107307 0)
(-0.188198 0.00683956 0)
(-0.188711 0.00278858 0)
(-0.18874 -0.00141303 0)
(-0.188272 -0.00575605 0)
(-0.187284 -0.0102316 0)
(-0.185753 -0.0148263 0)
(-0.183651 -0.0195216 0)
(-0.180959 -0.0242966 0)
(-0.17764 -0.0291189 0)
(-0.173662 -0.0339474 0)
(-0.16899 -0.0387295 0)
(-0.163589 -0.0433976 0)
(-0.157428 -0.0478651 0)
(-0.150474 -0.0520185 0)
(-0.142707 -0.055729 0)
(-0.134128 -0.0588593 0)
(-0.12474 -0.0612463 0)
(-0.114597 -0.0627269 0)
(-0.103772 -0.06311 0)
(-0.0923727 -0.0622864 0)
(-0.0805984 -0.0601511 0)
(-0.0687388 -0.0566778 0)
(-0.0570075 -0.0519093 0)
(-0.0456652 -0.0459278 0)
(-0.0349939 -0.0389039 0)
(-0.0252481 -0.0311026 0)
(-0.0166655 -0.0228615 0)
(-0.0094386 -0.0145735 0)
(-0.00370112 -0.00666621 0)
(0.000482305 0.000428855 0)
(0.00312508 0.00632109 0)
(0.00433082 0.0107205 0)
(0.00431136 0.0134802 0)
(0.00335003 0.0144728 0)
(0.00181916 0.0131095 0)
(0.00021497 0.00710948 0)
(-1.69711e-05 -0.00123491 0)
(-0.00113639 0.000225808 0)
(-0.00285211 0.00267391 0)
(-0.00475257 0.00479613 0)
(-0.00681336 0.00651439 0)
(-0.00900119 0.00788721 0)
(-0.0113057 0.00898259 0)
(-0.0137397 0.00987759 0)
(-0.0163268 0.0106582 0)
(-0.019098 0.0114153 0)
(-0.0220906 0.0122378 0)
(-0.0253467 0.0132053 0)
(-0.0289091 0.0143811 0)
(-0.0328171 0.0158067 0)
(-0.0371031 0.0174998 0)
(-0.0417897 0.0194552 0)
(-0.0468888 0.021649 0)
(-0.0524013 0.024043 0)
(-0.0583168 0.0265896 0)
(-0.0646128 0.0292338 0)
(-0.0712538 0.0319147 0)
(-0.0781907 0.0345662 0)
(-0.0853611 0.0371176 0)
(-0.0926915 0.0394958 0)
(-0.100102 0.0416287 0)
(-0.10751 0.04345 0)
(-0.11484 0.0449053 0)
(-0.122029 0.0459574 0)
(-0.129023 0.0465815 0)
(-0.135772 0.0467649 0)
(-0.142243 0.0465106 0)
(-0.148409 0.0458302 0)
(-0.154249 0.0447387 0)
(-0.159741 0.0432558 0)
(-0.164868 0.0414049 0)
(-0.169616 0.0392105 0)
(-0.173976 0.0366975 0)
(-0.177938 0.0338901 0)
(-0.181497 0.030811 0)
(-0.184647 0.0274807 0)
(-0.187386 0.0239174 0)
(-0.189708 0.0201379 0)
(-0.191608 0.0161576 0)
(-0.193084 0.0119952 0)
(-0.194138 0.00766103 0)
(-0.194771 0.00316027 0)
(-0.194984 -0.0015059 0)
(-0.194776 -0.00633954 0)
(-0.194123 -0.0113313 0)
(-0.19301 -0.0164655 0)
(-0.191418 -0.0217271 0)
(-0.189309 -0.0270936 0)
(-0.18665 -0.0325381 0)
(-0.183396 -0.0380203 0)
(-0.179494 -0.0434851 0)
(-0.174889 -0.0488634 0)
(-0.169556 -0.0540891 0)
(-0.163452 -0.0590613 0)
(-0.15649 -0.0636136 0)
(-0.148651 -0.0676063 0)
(-0.139898 -0.0708485 0)
(-0.130228 -0.0731309 0)
(-0.119677 -0.0742684 0)
(-0.10832 -0.0740517 0)
(-0.096272 -0.07229 0)
(-0.0837638 -0.0689375 0)
(-0.0711064 -0.0639854 0)
(-0.058639 -0.0575502 0)
(-0.0466642 -0.0497899 0)
(-0.0354872 -0.0409736 0)
(-0.0254086 -0.0314744 0)
(-0.0166886 -0.0217379 0)
(-0.00952351 -0.0122596 0)
(-0.00403002 -0.00355154 0)
(-0.000233989 0.00390441 0)
(0.00194368 0.00971511 0)
(0.00271092 0.0136304 0)
(0.00238167 0.0154497 0)
(0.00135687 0.0144491 0)
(0.000156494 0.00796555 0)
(-8.33958e-05 -0.000554835 0)
(-0.00158866 0.00183004 0)
(-0.00365215 0.00466158 0)
(-0.00584977 0.00695247 0)
(-0.00819249 0.00878614 0)
(-0.0106504 0.0102688 0)
(-0.0132203 0.0114871 0)
(-0.0159239 0.0125282 0)
(-0.0187928 0.0134861 0)
(-0.0218648 0.0144577 0)
(-0.0251816 0.0155364 0)
(-0.0287867 0.0168029 0)
(-0.0327206 0.0183173 0)
(-0.0370173 0.0201143 0)
(-0.0417006 0.0222017 0)
(-0.0467831 0.0245633 0)
(-0.0522655 0.0271635 0)
(-0.0581373 0.0299528 0)
(-0.0643761 0.0328715 0)
(-0.0709479 0.0358522 0)
(-0.0778064 0.0388213 0)
(-0.084894 0.0417005 0)
(-0.0921432 0.0444092 0)
(-0.0994807 0.0468682 0)
(-0.106832 0.049004 0)
(-0.114128 0.0507556 0)
(-0.121311 0.0520829 0)
(-0.128331 0.0529554 0)
(-0.13514 0.0533548 0)
(-0.141701 0.0532813 0)
(-0.147984 0.0527389 0)
(-0.153961 0.0517433 0)
(-0.159606 0.0503153 0)
(-0.164901 0.0484789 0)
(-0.169831 0.0462602 0)
(-0.174384 0.0436865 0)
(-0.178548 0.0407837 0)
(-0.182312 0.0375778 0)
(-0.185669 0.0340935 0)
(-0.188617 0.0303528 0)
(-0.191154 0.0263752 0)
(-0.193283 0.0221812 0)
(-0.19501 0.0177902 0)
(-0.196336 0.0132223 0)
(-0.19727 0.00848566 0)
(-0.197819 0.00358624 0)
(-0.197989 -0.00147624 0)
(-0.197785 -0.00669575 0)
(-0.197234 -0.0120696 0)
(-0.196341 -0.017601 0)
(-0.1951 -0.0232949 0)
(-0.193502 -0.0291488 0)
(-0.191515 -0.035127 0)
(-0.189093 -0.0412019 0)
(-0.186175 -0.0473313 0)
(-0.182682 -0.0534505 0)
(-0.178499 -0.0594581 0)
(-0.173523 -0.0652368 0)
(-0.16766 -0.070623 0)
(-0.160886 -0.0755163 0)
(-0.153151 -0.079732 0)
(-0.144355 -0.0829955 0)
(-0.134506 -0.0850896 0)
(-0.123602 -0.0857389 0)
(-0.111717 -0.0847284 0)
(-0.0990013 -0.0818531 0)
(-0.0857017 -0.0770465 0)
(-0.0722102 -0.0703716 0)
(-0.0589875 -0.0620455 0)
(-0.0463732 -0.0523437 0)
(-0.0347329 -0.0416382 0)
(-0.0244096 -0.0304307 0)
(-0.0156822 -0.0192925 0)
(-0.00873902 -0.00882848 0)
(-0.00366005 0.000372624 0)
(-0.000406265 0.00779658 0)
(0.00120909 0.0130606 0)
(0.00153149 0.0158591 0)
(0.0009834 0.0153503 0)
(0.000126582 0.00859256 0)
(-0.000145638 0.000378175 0)
(-0.00200327 0.00377591 0)
(-0.00437592 0.0069581 0)
(-0.00684167 0.00939054 0)
(-0.00944415 0.0113241 0)
(-0.0121546 0.0129102 0)
(-0.0149753 0.0142527 0)
(-0.0179349 0.0154485 0)
(-0.0210711 0.0165982 0)
(-0.0244258 0.0178035 0)
(-0.028043 0.0191591 0)
(-0.031965 0.0207435 0)
(-0.0362283 0.0226107 0)
(-0.0408597 0.0247856 0)
(-0.0458747 0.0272645 0)
(-0.051276 0.030019 0)
(-0.0570547 0.0330017 0)
(-0.0631904 0.0361516 0)
(-0.0696514 0.0393975 0)
(-0.0763954 0.0426605 0)
(-0.0833695 0.0458564 0)
(-0.0905122 0.0488981 0)
(-0.0977566 0.051699 0)
(-0.105035 0.0541778 0)
(-0.112283 0.0562705 0)
(-0.119448 0.0579247 0)
(-0.126479 0.0591034 0)
(-0.133325 0.0597845 0)
(-0.139948 0.0599505 0)
(-0.146306 0.0596064 0)
(-0.152368 0.0587654 0)
(-0.15811 0.0574465 0)
(-0.163511 0.0556755 0)
(-0.168551 0.0534785 0)
(-0.173208 0.0508833 0)
(-0.177465 0.047919 0)
(-0.181305 0.0446133 0)
(-0.184721 0.0409953 0)
(-0.18771 0.0370943 0)
(-0.190274 0.0329396 0)
(-0.192417 0.0285648 0)
(-0.194137 0.0240038 0)
(-0.195513 0.0192243 0)
(-0.196556 0.0142706 0)
(-0.197269 0.00916018 0)
(-0.197662 0.00389888 0)
(-0.197742 -0.00150265 0)
(-0.197521 -0.00704475 0)
(-0.197033 -0.0127271 0)
(-0.196277 -0.018553 0)
(-0.195258 -0.0245199 0)
(-0.193966 -0.0306278 0)
(-0.192393 -0.0368994 0)
(-0.190518 -0.0433272 0)
(-0.188309 -0.0498889 0)
(-0.185718 -0.056547 0)
(-0.182676 -0.063246 0)
(-0.179108 -0.0699256 0)
(-0.174852 -0.0763354 0)
(-0.169642 -0.0822607 0)
(-0.163344 -0.0875059 0)
(-0.155877 -0.0918445 0)
(-0.147228 -0.095094 0)
(-0.137305 -0.0968969 0)
(-0.126115 -0.0969501 0)
(-0.113726 -0.094977 0)
(-0.100321 -0.090782 0)
(-0.086195 -0.0842657 0)
(-0.0718609 -0.0756269 0)
(-0.0578729 -0.0652084 0)
(-0.0446717 -0.0534194 0)
(-0.0326745 -0.0407651 0)
(-0.022265 -0.0279018 0)
(-0.0137296 -0.0155439 0)
(-0.00722323 -0.00440516 0)
(-0.00276019 0.00486028 0)
(-0.000197405 0.0117116 0)
(0.000818181 0.0156995 0)
(0.000733431 0.0158738 0)
(0.000131963 0.00906299 0)
(-0.000212414 0.00154726 0)
(-0.00238371 0.00602497 0)
(-0.00502208 0.00952983 0)
(-0.00772713 0.0120844 0)
(-0.0105661 0.0141077 0)
(-0.0135092 0.015794 0)
(-0.0165629 0.0172635 0)
(-0.0197609 0.0186221 0)
(-0.0231448 0.0199758 0)
(-0.0267589 0.0214287 0)
(-0.0306469 0.0230747 0)
(-0.0348483 0.0249872 0)
(-0.039394 0.027211 0)
(-0.0443037 0.0297596 0)
(-0.0495844 0.0326169 0)
(-0.0552306 0.0357422 0)
(-0.0612252 0.0390764 0)
(-0.0675401 0.0425476 0)
(-0.0741371 0.046074 0)
(-0.0809685 0.0495671 0)
(-0.0879783 0.0529347 0)
(-0.0951058 0.056083 0)
(-0.102288 0.0589256 0)
(-0.10947 0.0613901 0)
(-0.116597 0.0634118 0)
(-0.123612 0.064948 0)
(-0.130468 0.0659574 0)
(-0.137111 0.0664199 0)
(-0.143502 0.0663301 0)
(-0.149608 0.0656963 0)
(-0.155401 0.0645405 0)
(-0.160854 0.0628828 0)
(-0.165933 0.0607489 0)
(-0.170612 0.0581654 0)
(-0.174867 0.0551618 0)
(-0.17868 0.0517708 0)
(-0.182042 0.0480285 0)
(-0.184956 0.0439722 0)
(-0.187431 0.0396395 0)
(-0.189479 0.0350679 0)
(-0.191141 0.0302782 0)
(-0.192461 0.0252984 0)
(-0.193421 0.0201925 0)
(-0.194048 0.0149386 0)
(-0.194374 0.00954157 0)
(-0.19444 0.00401122 0)
(-0.194292 -0.00164577 0)
(-0.193958 -0.007426 0)
(-0.193437 -0.0133372 0)
(-0.192749 -0.019392 0)
(-0.191902 -0.0256006 0)
(-0.190899 -0.0319711 0)
(-0.189734 -0.0385055 0)
(-0.188391 -0.0452007 0)
(-0.18684 -0.0520444 0)
(-0.185034 -0.0590094 0)
(-0.182906 -0.0660424 0)
(-0.180359 -0.0730523 0)
(-0.177327 -0.0801027 0)
(-0.173684 -0.0869948 0)
(-0.169254 -0.0935258 0)
(-0.163733 -0.0992356 0)
(-0.156773 -0.103759 0)
(-0.148404 -0.106935 0)
(-0.138511 -0.108383 0)
(-0.127085 -0.107721 0)
(-0.114206 -0.104611 0)
(-0.100089 -0.0988426 0)
(-0.0851177 -0.0903757 0)
(-0.0699308 -0.0795259 0)
(-0.0552247 -0.0668139 0)
(-0.0415475 -0.0528176 0)
(-0.0293696 -0.0382122 0)
(-0.019108 -0.0238418 0)
(-0.0110256 -0.0105732 0)
(-0.00520952 0.000780314 0)
(-0.00157012 0.00950321 0)
(0.000202325 0.0149364 0)
(0.00058715 0.0160614 0)
(0.000168259 0.00944875 0)
(-0.000275292 0.00291944 0)
(-0.00272141 0.00853578 0)
(-0.00558902 0.0123434 0)
(-0.00850594 0.0150076 0)
(-0.0115574 0.0171146 0)
(-0.0147114 0.0189001 0)
(-0.0179773 0.0205 0)
(-0.0213921 0.0220283 0)
(-0.0249999 0.0235949 0)
(-0.0288452 0.0253044 0)
(-0.0329699 0.0272474 0)
(-0.0374093 0.0294895 0)
(-0.0421883 0.0320651 0)
(-0.0473194 0.0349751 0)
(-0.0528023 0.0381905 0)
(-0.0586245 0.0416586 0)
(-0.0647624 0.0453098 0)
(-0.0711828 0.0490616 0)
(-0.0778431 0.0528235 0)
(-0.0846927 0.0564992 0)
(-0.091676 0.0599895 0)
(-0.0987382 0.0632033 0)
(-0.105828 0.0660598 0)
(-0.112887 0.0684811 0)
(-0.119858 0.0704083 0)
(-0.126687 0.071791 0)
(-0.133318 0.0725974 0)
(-0.139709 0.0728127 0)
(-0.145824 0.0724441 0)
(-0.151629 0.0715011 0)
(-0.157082 0.0700027 0)
(-0.162146 0.0679685 0)
(-0.166785 0.0654241 0)
(-0.170969 0.0624029 0)
(-0.174682 0.0589432 0)
(-0.177916 0.0550879 0)
(-0.180677 0.0508839 0)
(-0.182981 0.0463788 0)
(-0.184854 0.0416179 0)
(-0.186329 0.0366434 0)
(-0.187429 0.0314981 0)
(-0.18819 0.0262017 0)
(-0.188641 0.0207764 0)
(-0.188834 0.0152352 0)
(-0.188813 0.00959414 0)
(-0.188611 0.0038627 0)
(-0.188253 -0.00196149 0)
(-0.187762 -0.00788741 0)
(-0.187159 -0.0139263 0)
(-0.186467 -0.0200912 0)
(-0.185699 -0.0263975 0)
(-0.184865 -0.0328615 0)
(-0.183971 -0.0394992 0)
(-0.183012 -0.046323 0)
(-0.181972 -0.0533392 0)
(-0.180823 -0.0605434 0)
(-0.179513 -0.0679122 0)
(-0.177963 -0.0753933 0)
(-0.176082 -0.0829023 0)
(-0.173741 -0.090315 0)
(-0.170762 -0.0974553 0)
(-0.166992 -0.104301 0)
(-0.162183 -0.110447 0)
(-0.155908 -0.115261 0)
(-0.147904 -0.118349 0)
(-0.138114 -0.119376 0)
(-0.126466 -0.117854 0)
(-0.113074 -0.1134 0)
(-0.0982119 -0.105808 0)
(-0.0823739 -0.0951135 0)
(-0.0663681 -0.0817898 0)
(-0.0510541 -0.0665989 0)
(-0.0370836 -0.0503191 0)
(-0.0249868 -0.0338589 0)
(-0.0151814 -0.0182787 0)
(-0.00786276 -0.00458238 0)
(-0.0030077 0.00631734 0)
(-0.000382249 0.013522 0)
(0.000523322 0.0159332 0)
(0.000227578 0.00981082 0)
(-0.000331853 0.00447703 0)
(-0.00301432 0.0112722 0)
(-0.00607719 0.0153678 0)
(-0.00917891 0.0181338 0)
(-0.0124179 0.0203214 0)
(-0.0157592 0.0222063 0)
(-0.0192139 0.0239396 0)
(-0.0228209 0.0256424 0)
(-0.0266251 0.0274273 0)
(-0.0306698 0.0293974 0)
(-0.0349939 0.0316376 0)
(-0.0396278 0.0342044 0)
(-0.0445903 0.03712 0)
(-0.0498873 0.0403727 0)
(-0.0555124 0.043921 0)
(-0.0614475 0.0477013 0)
(-0.0676646 0.0516334 0)
(-0.0741266 0.0556264 0)
(-0.0807885 0.0595818 0)
(-0.0875996 0.0633969 0)
(-0.0945122 0.0669757 0)
(-0.10148 0.0702313 0)
(-0.108439 0.0730694 0)
(-0.115333 0.0754155 0)
(-0.122104 0.0772084 0)
(-0.128693 0.0784015 0)
(-0.135055 0.0789745 0)
(-0.141151 0.0789203 0)
(-0.146933 0.0782422 0)
(-0.152353 0.0769466 0)
(-0.157365 0.07505 0)
(-0.161927 0.0725788 0)
(-0.166005 0.0695667 0)
(-0.16958 0.066058 0)
(-0.172647 0.0621046 0)
(-0.175217 0.0577632 0)
(-0.177311 0.0530927 0)
(-0.178961 0.0481493 0)
(-0.180206 0.0429854 0)
(-0.181088 0.0376455 0)
(-0.181647 0.0321661 0)
(-0.181927 0.0265752 0)
(-0.181968 0.020899 0)
(-0.181811 0.0151522 0)
(-0.181492 0.00934199 0)
(-0.181039 0.00346983 0)
(-0.18048 -0.00246912 0)
(-0.179841 -0.00848453 0)
(-0.179145 -0.0145902 0)
(-0.178416 -0.0208021 0)
(-0.17767 -0.0271393 0)
(-0.176926 -0.0336226 0)
(-0.176193 -0.040274 0)
(-0.175478 -0.0471136 0)
(-0.174778 -0.0541583 0)
(-0.174078 -0.0614181 0)
(-0.173347 -0.0688914 0)
(-0.172533 -0.0765619 0)
(-0.171562 -0.0843946 0)
(-0.170327 -0.0923064 0)
(-0.168675 -0.100163 0)
(-0.166425 -0.107762 0)
(-0.163344 -0.114844 0)
(-0.159142 -0.12118 0)
(-0.153473 -0.126221 0)
(-0.14587 -0.129229 0)
(-0.136165 -0.129739 0)
(-0.124258 -0.12718 0)
(-0.110293 -0.121135 0)
(-0.0946303 -0.111407 0)
(-0.0779213 -0.0981506 0)
(-0.0611889 -0.0820882 0)
(-0.045452 -0.0642632 0)
(-0.0314655 -0.0457132 0)
(-0.0198019 -0.0276678 0)
(-0.0108293 -0.0113704 0)
(-0.00462318 0.00202527 0)
(-0.00102825 0.0113994 0)
(0.000454592 0.0154951 0)
(0.000305302 0.0101931 0)
(-0.000381348 0.0061951 0)
(-0.00326192 0.014199 0)
(-0.00648766 0.0185727 0)
(-0.0097472 0.0214364 0)
(-0.0131478 0.0237031 0)
(-0.0166512 0.0256881 0)
(-0.0202692 0.027557 0)
(-0.0240413 0.029437 0)
(-0.0280117 0.0314419 0)
(-0.0322216 0.0336718 0)
(-0.0367061 0.036204 0)
(-0.0414902 0.0390847 0)
(-0.046587 0.0423236 0)
(-0.051997 0.0458963 0)
(-0.0577085 0.0497497 0)
(-0.0636994 0.0538098 0)
(-0.0699385 0.0579874 0)
(-0.0763865 0.062184 0)
(-0.0829974 0.0662945 0)
(-0.0897294 0.0702186 0)
(-0.0965412 0.0738656 0)
(-0.103369 0.0771261 0)
(-0.110153 0.0799089 0)
(-0.116835 0.0821416 0)
(-0.123354 0.083762 0)
(-0.129665 0.0847377 0)
(-0.135716 0.0850486 0)
(-0.141452 0.0846832 0)
(-0.14682 0.08364 0)
(-0.151764 0.0819287 0)
(-0.156237 0.0795713 0)
(-0.160201 0.0766041 0)
(-0.163636 0.0730757 0)
(-0.166539 0.0690464 0)
(-0.168926 0.0645844 0)
(-0.170824 0.0597597 0)
(-0.172273 0.054641 0)
(-0.173319 0.049292 0)
(-0.17401 0.0437675 0)
(-0.174392 0.0381114 0)
(-0.17451 0.0323595 0)
(-0.174407 0.0265402 0)
(-0.174121 0.0206747 0)
(-0.173684 0.0147732 0)
(-0.173127 0.00883908 0)
(-0.172477 0.0028705 0)
(-0.171759 -0.0031391 0)
(-0.170998 -0.00920042 0)
(-0.170216 -0.0153284 0)
(-0.169437 -0.0215411 0)
(-0.168682 -0.0278598 0)
(-0.167969 -0.0343084 0)
(-0.167316 -0.0409127 0)
(-0.166737 -0.0476992 0)
(-0.166237 -0.0546931 0)
(-0.165816 -0.0619156 0)
(-0.165458 -0.0693809 0)
(-0.165133 -0.0770921 0)
(-0.16479 -0.0850363 0)
(-0.164348 -0.0931709 0)
(-0.163692 -0.101418 0)
(-0.162662 -0.10965 0)
(-0.16105 -0.117649 0)
(-0.158593 -0.125108 0)
(-0.154963 -0.131628 0)
(-0.149751 -0.136698 0)
(-0.142463 -0.139526 0)
(-0.132753 -0.139368 0)
(-0.120493 -0.13553 0)
(-0.105854 -0.127556 0)
(-0.0893213 -0.115283 0)
(-0.0717711 -0.0990912 0)
(-0.0544822 -0.0800302 0)
(-0.0386011 -0.0594882 0)
(-0.0249839 -0.0388812 0)
(-0.014206 -0.01973 0)
(-0.00650799 -0.00349755 0)
(-0.00181138 0.00847721 0)
(0.0003345 0.0146192 0)
(0.000395525 0.0105864 0)
(-0.000423358 0.00804776 0)
(-0.00346452 0.0172819 0)
(-0.00682174 0.0219283 0)
(-0.0102121 0.024888 0)
(-0.0137478 0.0272337 0)
(-0.017387 0.0293193 0)
(-0.0211412 0.0313247 0)
(-0.0250494 0.0333823 0)
(-0.029154 0.0356056 0)
(-0.0334934 0.0380901 0)
(-0.0380983 0.0409047 0)
(-0.0429887 0.0440841 0)
(-0.0481725 0.0476258 0)
(-0.0536454 0.0514932 0)
(-0.059392 0.0556226 0)
(-0.0653871 0.0599302 0)
(-0.0715975 0.0643191 0)
(-0.0779821 0.0686842 0)
(-0.0845029 0.072921 0)
(-0.0911255 0.0769366 0)
(-0.0977901 0.0806126 0)
(-0.104432 0.0838388 0)
(-0.110995 0.0865306 0)
(-0.117419 0.0886113 0)
(-0.123652 0.0900323 0)
(-0.129638 0.0907561 0)
(-0.135315 0.0907561 0)
(-0.140622 0.0900204 0)
(-0.145498 0.0885493 0)
(-0.149888 0.0863593 0)
(-0.153753 0.0834847 0)
(-0.157069 0.0799784 0)
(-0.159836 0.0759087 0)
(-0.162073 0.0713549 0)
(-0.163813 0.0663993 0)
(-0.165103 0.0611232 0)
(-0.165995 0.0556027 0)
(-0.166542 0.0499027 0)
(-0.166791 0.044075 0)
(-0.166789 0.0381613 0)
(-0.166579 0.032195 0)