/*--------------------------------*- C++ -*----------------------------------*\
  =========                 |
  \\      /  F ield         | OpenFOAM: The Open Source CFD Toolbox
   \\    /   O peration     | Website:  https://openfoam.org
    \\  /    A nd           | Version:  13
     \\/     M anipulation  |
\*---------------------------------------------------------------------------*/
FoamFile
{
    format      ascii;
    class       volScalarField;
    location    "3.5";
    object      k;
}
// * * * * * * * * * * * * * * * * * * * * * * * * * * * * * * * * * * * * * //

dimensions      [0 2 -2 0 0 0 0];

internalField   nonuniform List<scalar> 
6400
(
4.02739e-07
2.04568e-06
4.81451e-06
7.71941e-06
1.00527e-05
1.15891e-05
1.24631e-05
1.29908e-05
1.35217e-05
1.4384e-05
1.58358e-05
1.80832e-05
2.12864e-05
2.55114e-05
3.06245e-05
3.64498e-05
4.28366e-05
4.96551e-05
5.66544e-05
6.36743e-05
7.07606e-05
7.83349e-05
8.70356e-05
9.74315e-05
0.000109601
0.000122837
0.000136026
0.000149359
0.000162954
0.000177126
0.000191996
0.000207257
0.000222215
0.000236952
0.000251374
0.000265895
0.000280588
0.000295768
0.000311559
0.000328179
0.000345707
0.000364285
0.000384072
0.000405169
0.000427601
0.000451451
0.00047714
0.00050585
0.000539903
0.000581108
0.000620133
0.000660621
0.000699433
0.000736705
0.000770664
0.000800182
0.000823705
0.000836753
0.000842156
0.000842245
0.000826389
0.000797214
0.00075453
0.000699329
0.000633419
0.000559096
0.000480044
0.000400519
0.000323943
0.000252415
0.000190111
0.000140039
9.90736e-05
6.70397e-05
4.34734e-05
2.7028e-05
1.60723e-05
8.95719e-06
4.08814e-06
8.61399e-07
1.95688e-06
1.64644e-05
3.90139e-05
6.11825e-05
7.86276e-05
9.04545e-05
9.78851e-05
0.00010298
0.000107986
0.000114989
0.000126063
0.000142933
0.000166452
0.000196454
0.000232148
0.000272398
0.000316033
0.000361826
0.000408703
0.000455937
0.000503931
0.000554915
0.000612404
0.000679194
0.00075508
0.000835812
0.000915648
0.000994506
0.00107174
0.00114794
0.00122282
0.00129504
0.00136159
0.00142323
0.00147956
0.00153281
0.00158341
0.001633
0.00168225
0.00173232
0.00178376
0.00183721
0.00189341
0.00195258
0.00201467
0.00207928
0.00214615
0.002215
0.00228333
0.00235182
0.00242521
0.00249939
0.00257411
0.00264641
0.00271411
0.00277377
0.00282204
0.0028485
0.00285739
0.00284958
0.00281133
0.0027393
0.00263217
0.0024902
0.00231584
0.00211262
0.00189045
0.0016583
0.00142307
0.00119252
0.00097113
0.000763919
0.00057943
0.000422621
0.000295763
0.000197301
0.000124532
7.28637e-05
3.40541e-05
4.50131e-06
4.28342e-06
3.6049e-05
8.25205e-05
0.00012323
0.000153003
0.000173047
0.000186833
0.000198314
0.000211416
0.000229873
0.000257102
0.000295644
0.000346614
0.000409527
0.000482819
0.000564651
0.000653354
0.000747305
0.000844795
0.000944191
0.00104408
0.00114319
0.00124075
0.00133436
0.00142002
0.00149425
0.00155588
0.00160424
0.00164277
0.00167537
0.0017058
0.0017365
0.00176764
0.00180065
0.00183358
0.00186917
0.00190698
0.00194827
0.00199309
0.00204227
0.00209588
0.00215381
0.00221662
0.00228384
0.00235579
0.00243237
0.00251365
0.00259893
0.00268838
0.00278206
0.00287945
0.00297884
0.00307893
0.00317743
0.00327175
0.00335848
0.00343365
0.00349258
0.0035246
0.00353433
0.00351804
0.00346195
0.00336398
0.00322245
0.00303767
0.00281049
0.00255316
0.00227631
0.00198762
0.00169867
0.00141955
0.00115849
0.000921851
0.000714099
0.000537269
0.000391042
0.000272738
0.000175614
8.71853e-05
1.16559e-05
7.3611e-06
6.04379e-05
0.000130774
0.000186479
0.000225825
0.000253391
0.000274846
0.000295832
0.000321756
0.000357663
0.000407805
0.000474798
0.000558974
0.000658464
0.000770124
0.000890546
0.00101622
0.00114335
0.00126785
0.0013854
0.0014922
0.00158484
0.00166132
0.00172037
0.00176075
0.00178385
0.0017952
0.00180107
0.00180858
0.00181808
0.00183029
0.00184548
0.00186321
0.00188519
0.00191101
0.00194127
0.00197569
0.00201481
0.00205845
0.00210659
0.00215952
0.00221713
0.00227968
0.00234705
0.00241936
0.00249637
0.00257782
0.00266453
0.00275632
0.00285285
0.00295351
0.00305721
0.00316275
0.00326826
0.00337137
0.00346895
0.00355712
0.00363149
0.00368449
0.00370872
0.00371169
0.00367778
0.00360684
0.00349523
0.00333608
0.00312676
0.00287287
0.00258716
0.00228142
0.00196891
0.00166259
0.00137368
0.00111051
0.000878142
0.000678613
0.000511362
0.000372602
0.000253589
0.000134528
1.86949e-05
1.15773e-05
9.21952e-05
0.000187321
0.000257519
0.000306603
0.000342762
0.000373982
0.000407735
0.000450952
0.000509709
0.000588308
0.000688209
0.000807567
0.000941906
0.00108546
0.00123212
0.00137566
0.00150966
0.001628
0.00172503
0.00179893
0.00184518
0.00186545
0.00187023
0.00186059
0.00184716
0.0018356
0.00182761
0.00182422
0.00182363
0.00182935
0.00183985
0.00185365
0.0018719
0.0018939
0.00191981
0.00194941
0.00198262
0.00201915
0.00205907
0.0021024
0.00214913
0.00219946
0.00225355
0.00231179
0.00237469
0.00244288
0.002516
0.00259434
0.00267789
0.00276666
0.00286029
0.00295827
0.00305968
0.00316322
0.003267
0.00336792
0.00346228
0.00354551
0.00361208
0.00364744
0.00365709
0.00362561
0.00355003
0.00342612
0.00326424
0.00304208
0.00277216
0.0024683
0.00214566
0.00182077
0.00150932
0.0012238
0.000971934
0.000756647
0.000576943
0.000428065
0.000299038
0.000164926
2.32182e-05
1.74176e-05
0.000133756
0.000255496
0.000341006
0.000401014
0.000447464
0.000490843
0.000540576
0.000604912
0.000690148
0.000799325
0.00093125
0.00108067
0.00123965
0.00139917
0.00155027
0.00168453
0.00179424
0.0018756
0.00191844
0.00193277
0.00192712
0.00190158
0.00187652
0.0018535
0.00183246
0.00181497
0.00180221
0.00179459
0.00179139
0.00179112
0.00179511
0.001802
0.00181235
0.00182546
0.0018412
0.00185927
0.00187941
0.00190162
0.00192601
0.00195269
0.00198184
0.0020137
0.00204855
0.00208673
0.00212856
0.00217439
0.0022246
0.00227986
0.00234073
0.00240785
0.0024818
0.00256295
0.00265145
0.00274708
0.00284911
0.00295645
0.00306645
0.00317626
0.0032807
0.00337333
0.00344305
0.00347459
0.00347768
0.0034237
0.00331469
0.0031542
0.00292207
0.00263631
0.0023124
0.00197063
0.00163276
0.00131815
0.00104022
0.0008049
0.000611378
0.000453562
0.000318353
0.000178244
2.48074e-05
2.53579e-05
0.000186721
0.000337269
0.000439318
0.000511621
0.000570063
0.000627745
0.000695875
0.00078332
0.000895331
0.0010322
0.00118889
0.00135611
0.00152238
0.00167599
0.00180646
0.00190624
0.00196257
0.00198233
0.00197666
0.00194612
0.00191462
0.00187754
0.00184289
0.0018093
0.00177933
0.00175566
0.00173746
0.00172387
0.00171399
0.00170711
0.001704
0.0017031
0.00170439
0.0017079
0.00171294
0.00171948
0.00172739
0.0017367
0.00174746
0.00175964
0.00177343
0.00178899
0.00180656
0.00182639
0.00184883
0.00187428
0.0019033
0.00193658
0.00197489
0.00201911
0.00207032
0.00212991
0.00219912
0.00227921
0.00237119
0.00247587
0.00259245
0.00271864
0.00285169
0.0029873
0.00311798
0.00323313
0.00331058
0.00334041
0.00332155
0.00323746
0.00307616
0.0028302
0.00251896
0.00216468
0.00179548
0.00144013
0.00112188
0.000853694
0.000637222
0.000465169
0.000321976
0.000178434
2.42606e-05
3.58348e-05
0.000251963
0.000433359
0.000553164
0.000638967
0.000710659
0.000783874
0.000871079
0.000980679
0.00111551
0.00127198
0.00144074
0.00160878
0.00176209
0.00188806
0.00197438
0.00201292
0.00201943
0.00199348
0.00195855
0.0019115
0.00186064
0.00180872
0.001764
0.00172498
0.00169401
0.00166809
0.0016468
0.00162916
0.00161467
0.00160292
0.00159372
0.00158643
0.001581
0.00157716
0.00157492
0.00157394
0.00157374
0.00157497
0.00157737
0.00158102
0.00158599
0.00159238
0.00160036
0.00161014
0.00162199
0.00163619
0.00165319
0.00167349
0.00169765
0.00172637
0.00176046
0.00180093
0.00184907
0.00190664
0.0019759
0.0020596
0.00216126
0.0022821
0.00241963
0.00257408
0.00274011
0.00290885
0.00306977
0.00319945
0.00326109
0.00327012
0.00320865
0.00304566
0.00277427
0.00242494
0.00202929
0.00162573
0.00125104
0.00093121
0.000675782
0.000478768
0.000322217
0.000175326
2.30663e-05
4.91684e-05
0.000329454
0.00054347
0.000682016
0.000782025
0.000867333
0.000955776
0.00106029
0.00118768
0.00133731
0.00150131
0.00166646
0.00181729
0.00193937
0.00201413
0.00204173
0.00203831
0.00200582
0.00195741
0.00189506
0.00182745
0.00176621
0.00171375
0.00166896
0.00163073
0.00159878
0.00157116
0.00154755
0.00152723
0.00150992
0.0014953
0.00148311
0.00147305
0.001465
0.00145875
0.00145413
0.00145098
0.00144946
0.00144899
0.00144973
0.00145192
0.00145537
0.00146016
0.00146643
0.00147432
0.00148407
0.00149593
0.00151012
0.00152693
0.00154669
0.00156975
0.00159646
0.0016272
0.00166248
0.00170294
0.00174979
0.00180463
0.00187042
0.00195239
0.00205985
0.00219587
0.00236221
0.00254859
0.0027524
0.00295587
0.00313822
0.00323633
0.00326228
0.00321907
0.00304601
0.00273692
0.00233807
0.00189349
0.00145393
0.00106354
0.000747833
0.000508253
0.000327188
0.000170881
2.22145e-05
6.5536e-05
0.000418165
0.00066628
0.0008242
0.000938384
0.00103643
0.00113788
0.00125532
0.00139306
0.0015466
0.00170413
0.00184982
0.00196767
0.00203534
0.00205738
0.0020456
0.00201116
0.00194887
0.00187049
0.00179339
0.00172469
0.00166518
0.00161445
0.00157095
0.00153357
0.00150146
0.00147358
0.00144969
0.00142933
0.00141232
0.00139838
0.00138727
0.00137871
0.00137246
0.0013683
0.00136625
0.00136554
0.00136594
0.00136797
0.00137109
0.0013754
0.00138082
0.00138741
0.00139526
0.00140448
0.00141525
0.00142772
0.00144211
0.0014586
0.00147741
0.00149875
0.00152281
0.00154979
0.00157984
0.00161299
0.0016497
0.0016904
0.00173609
0.00178946
0.00185432
0.00193635
0.00204739
0.00220687
0.00240868
0.00263693
0.00288291
0.00311252
0.00324649
0.00328646
0.00325028
0.00305386
0.00269434
0.00223666
0.00174103
0.00127081
0.000873937
0.000569567
0.000346448
0.000172749
2.23652e-05
8.54334e-05
0.000515585
0.000799655
0.000977059
0.00110445
0.00121295
0.0013233
0.00144708
0.00158571
0.00173107
0.00186859
0.00198164
0.00204567
0.00206524
0.00205116
0.00201013
0.00193635
0.00184736
0.0017631
0.00168678
0.00162105
0.00156479
0.00151665
0.00147526
0.0014397
0.00140929
0.00138351
0.00136213
0.0013448
0.00133126
0.00132114
0.00131405
0.0013099
0.00130806
0.00130762
0.00130895
0.00131163
0.00131539
0.0013202
0.00132584
0.00133236
0.00133974
0.00134807
0.00135746
0.00136804
0.00137998
0.00139344
0.00140862
0.0014257
0.00144485
0.00146621
0.00148994
0.00151613
0.0015449
0.00157638
0.00161008
0.00164592
0.00168368
0.00172412
0.00176902
0.00182096
0.00188645
0.00197605
0.00210738
0.00230737
0.00255834
0.00284052
0.00311475
0.003279
0.00332733
0.00328356
0.00304546
0.00262174
0.00209979
0.00155828
0.00106951
0.000679109
0.00039266
0.000184449
2.37763e-05
0.000109376
0.000619397
0.00094092
0.00113711
0.00127575
0.00139113
0.00150476
0.00162691
0.00175626
0.00188202
0.00198844
0.00205036
0.00206924
0.00205495
0.00200922
0.00192681
0.00183086
0.00173799
0.00165507
0.00158296
0.00152162
0.0014693
0.00142465
0.00138666
0.00135467
0.00132822
0.0013069
0.00129037
0.00127815
0.00126977
0.0012651
0.00126311
0.00126272
0.00126432
0.00126725
0.0012713
0.00127611
0.00128157
0.00128762
0.00129422
0.00130144
0.00130937
0.00131818
0.00132803
0.00133913
0.00135167
0.0013659
0.00138204
0.00140029
0.00142083
0.0014438
0.00146925
0.00149717
0.00152743
0.00155981
0.00159402
0.00162987
0.00166709
0.00170444
0.00174241
0.0017814
0.00182468
0.0018777
0.00195129
0.00206404
0.00224476
0.00251158
0.00282344
0.00314051
0.0033228
0.00337002
0.00330137
0.00299568
0.00249523
0.00191072
0.00133578
0.000847305
0.000479172
0.000215213
2.77905e-05
0.000136156
0.000728985
0.00108696
0.00130036
0.00144742
0.00156514
0.00167557
0.00178772
0.00189824
0.00199499
0.00205427
0.00207298
0.00205846
0.00201022
0.00192245
0.00182161
0.00172112
0.00163055
0.00155237
0.00148575
0.00142948
0.00138189
0.00134196
0.00130892
0.00128225
0.00126143
0.00124593
0.00123514
0.00122871
0.00122577
0.00122493
0.00122576
0.00122827
0.00123182
0.001236
0.00124063
0.00124554
0.00125073
0.00125624
0.00126215
0.00126864
0.00127589
0.00128412
0.00129356
0.00130448
0.00131712
0.00133177
0.00134868
0.00136811
0.00139027
0.00141534
0.00144341
0.00147446
0.00150832
0.00154464
0.00158285
0.00162223
0.00166193
0.0017013
0.00173888
0.00177456
0.00181019
0.00184836
0.00189216
0.00195493
0.00205323
0.00221751
0.00249146
0.00283248
0.00318588
0.00336657
0.00340206
0.00328572
0.00287916
0.00229673
0.00165735
0.00107169
0.000608158
0.000271615
3.60523e-05
0.000165045
0.000841796
0.00123415
0.0014625
0.00161456
0.00172961
0.00183019
0.00192453
0.0020083
0.00206267
0.00208062
0.00206495
0.0020164
0.00192647
0.00182079
0.00171364
0.0016151
0.00152991
0.00145786
0.00139731
0.00134678
0.00130491
0.00127087
0.00124397
0.00122354
0.00120886
0.00119911
0.00119402
0.00119192
0.0011915
0.00119276
0.00119516
0.00119823
0.00120155
0.00120495
0.00120835
0.00121178
0.00121534
0.00121917
0.00122349
0.00122852
0.00123449
0.00124166
0.0012503
0.00126069
0.00127311
0.00128784
0.00130517
0.00132541
0.00134882
0.00137565
0.0014061
0.00144025
0.00147805
0.00151924
0.00156326
0.00160922
0.00165585
0.00170163
0.00174514
0.00178608
0.00181836
0.00184723
0.00187977
0.00192091
0.0019753
0.00206527
0.00222235
0.00249979
0.00287209
0.00323732
0.00340358
0.00341478
0.00320222
0.00267875
0.00200979
0.00133919
0.000774906
0.000349451
4.7959e-05
0.000195145
0.000954932
0.00137866
0.0016193
0.00177267
0.00188001
0.00196456
0.00203442
0.00208022
0.00209543
0.00207776
0.00203047
0.0019403
0.00183052
0.00171658
0.00160996
0.00151678
0.00143831
0.00137298
0.00131896
0.00127483
0.00123945
0.00121197
0.00119151
0.00117716
0.00116789
0.0011632
0.00116128
0.00116084
0.00116154
0.00116314
0.00116497
0.00116675
0.00116831
0.00116965
0.00117085
0.00117207
0.00117351
0.00117537
0.00117792
0.00118141
0.00118609
0.00119221
0.00120004
0.00120983
0.00122185
0.00123639
0.00125375
0.00127424
0.0012982
0.00132594
0.00135779
0.001394
0.00143472
0.00147991
0.00152927
0.00158209
0.00163716
0.00169271
0.00174635
0.00179591
0.00184271
0.0018758
0.00189614
0.00191877
0.00195539
0.00200701
0.00209249
0.00224784
0.00253571
0.00293772
0.00329189
0.00343055
0.00337557
0.00301807
0.00236806
0.00163427
0.000970319
0.000444237
6.2858e-05
0.000225419
0.00106547
0.00151695
0.00176696
0.00191797
0.00201288
0.00207621
0.00211211
0.00212252
0.00210233
0.00205367
0.001965
0.0018523
0.00173164
0.00161628
0.00151414
0.00142788
0.00135664
0.00129834
0.00125121
0.0012139
0.00118524
0.00116418
0.00114957
0.00114019
0.0011351
0.00113276
0.00113186
0.00113164
0.00113182
0.00113197
0.00113192
0.0011314
0.0011305
0.00112937
0.00112821
0.0011273
0.00112692
0.00112697
0.00112808
0.00113039
0.00113411
0.00113945
0.00114665
0.00115592
0.00116752
0.00118169
0.00119872
0.00121895
0.00124272
0.00127043
0.0013025
0.00133934
0.00138132
0.00142868
0.00148149
0.00153943
0.00160173
0.00166692
0.00173271
0.00179591
0.00185267
0.00190472
0.00193827
0.00195321
0.00196702
0.00199514
0.00204634
0.00212966
0.0022908
0.00260215
0.00303085
0.0033386
0.00342439
0.00326421
0.00270866
0.00194463
0.00118666
0.000550536
7.97806e-05
0.000254945
0.0011708
0.001646
0.00190254
0.00204808
0.00212581
0.00215994
0.00216633
0.0021429
0.00208876
0.00200245
0.00188733
0.00176044
0.0016357
0.00152329
0.00142764
0.00134888
0.00128504
0.00123392
0.00119379
0.00116322
0.00114087
0.00112537
0.00111532
0.00110932
0.00110605
0.00110419
0.00110285
0.00110154
0.00109997
0.00109792
0.00109536
0.00109232
0.00108901
0.00108567
0.00108256
0.00107992
0.00107814
0.00107738
0.00107734
0.00107898
0.00108215
0.00108707
0.00109389
0.0011028
0.00111401
0.00112773
0.00114423
0.00116382
0.00118687
0.00121378
0.00124506
0.00128122
0.00132282
0.00137038
0.0014243
0.00148475
0.00155148
0.00162363
0.00169949
0.00177622
0.00184973
0.00191475
0.00197206
0.00200249
0.00201386
0.00201982
0.00203968
0.00208976
0.00217488
0.00235206
0.00270015
0.00314593
0.00336196
0.00336936
0.0030083
0.00225915
0.00141932
0.000664438
9.78323e-05
0.000282966
0.00126875
0.00176351
0.00202434
0.00215871
0.00221381
0.00222396
0.00219866
0.00213949
0.00205428
0.00193715
0.00180442
0.00167006
0.00154599
0.00143904
0.00135075
0.00127961
0.00122313
0.00117909
0.00114566
0.00112123
0.00110418
0.00109287
0.00108572
0.00108125
0.0010782
0.00107557
0.00107278
0.00106952
0.00106566
0.00106119
0.00105625
0.00105103
0.0010458
0.00104084
0.00103642
0.00103278
0.00103019
0.00102893
0.00102859
0.0010299
0.00103291
0.00103769
0.00104435
0.00105305
0.00106395
0.00107722
0.0010931
0.00111188
0.00113389
0.00115956
0.0011894
0.00122399
0.00126401
0.00131017
0.00136316
0.00142359
0.00149176
0.00156752
0.00164993
0.00173698
0.00182527
0.00190975
0.00198373
0.00204304
0.00206858
0.00207492
0.0020756
0.002086
0.00213522
0.00222992
0.00243738
0.00283635
0.00323842
0.00338017
0.00321533
0.00256171
0.00166389
0.000782301
0.000116293
0.000309225
0.00135691
0.00186768
0.00212764
0.00224768
0.00228302
0.00226877
0.0022108
0.00212236
0.0020033
0.00186518
0.00172118
0.00158439
0.00146403
0.00136382
0.00128313
0.00121947
0.0011701
0.0011327
0.00110529
0.00108598
0.0010729
0.00106426
0.00105844
0.00105408
0.00105015
0.00104596
0.00104119
0.00103574
0.00102963
0.00102304
0.00101621
0.00100941
0.00100292
0.000997022
0.000991937
0.000987868
0.000985054
0.000983712
0.00098337
0.00098471
0.000987798
0.000992609
0.000999251
0.00100783
0.00101846
0.00103132
0.00104659
0.00106451
0.00108542
0.00110969
0.00113782
0.00117042
0.00120819
0.00125196
0.00130263
0.00136111
0.00142821
0.00150441
0.00158962
0.0016828
0.00178152
0.00188161
0.00197683
0.00205896
0.00211752
0.00213605
0.00213785
0.00213128
0.00213141
0.00218435
0.00229617
0.00255698
0.00300564
0.00327706
0.00329936
0.00283699
0.00191679
0.000901107
0.000135553
0.000332767
0.0014343
0.00195578
0.00221121
0.0023165
0.00233583
0.0022945
0.0022059
0.00208728
0.00194423
0.00179092
0.00164078
0.00150511
0.00139025
0.00129728
0.00122408
0.00116756
0.00112481
0.00109336
0.00107098
0.00105556
0.00104508
0.00103775
0.00103204
0.00102685
0.00102141
0.00101535
0.00100855
0.00100108
0.000993138
0.000984974
0.00097688
0.000969139
0.000962014
0.000955729
0.000950471
0.000946388
0.000943738
0.000942548
0.000942324
0.00094388
0.000947119
0.000952018
0.000958663
0.000967137
0.000977542
0.000990009
0.0010047
0.00102184
0.0010417
0.00106464
0.00109109
0.00112165
0.00115699
0.00119798
0.00124561
0.001301
0.0013653
0.00143954
0.00152441
0.00161986
0.00172465
0.00183576
0.00194787
0.00205301
0.00214045
0.00219362
0.00220534
0.00219747
0.00218047
0.00217762
0.00223664
0.00238319
0.00272808
0.00315313
0.00330606
0.00306077
0.002174
0.00102365
0.000155368
0.000352964
0.00150003
0.00202683
0.002276
0.00236692
0.0023713
0.00230333
0.00218953
0.00204286
0.00188099
0.00171746
0.00156508
0.00143288
0.00132443
0.00123876
0.00117272
0.00112283
0.00108601
0.00105959
0.00104114
0.00102839
0.00101931
0.00101221
0.00100582
0.000999283
0.000992142
0.000984253
0.00097569
0.000966656
0.000957418
0.000948272
0.000939503
0.000931363
0.000924065
0.000917783
0.000912648
0.000908762
0.000906412
0.000905443
0.000905366
0.000907132
0.00091048
0.000915415
0.000922012
0.000930342
0.000940495
0.000952585
0.000966756
0.000983195
0.00100214
0.00102391
0.00104889
0.0010776
0.00111068
0.00114896
0.00119343
0.00124527
0.00130585
0.00137659
0.0014588
0.00155335
0.00166019
0.00177775
0.00190223
0.00202694
0.00214194
0.00223
0.00226948
0.00227457
0.00224933
0.00222371
0.00222268
0.00230045
0.00250787
0.00293841
0.00320111
0.0031712
0.00243009
0.00116251
0.000178032
0.000369349
0.00155331
0.00208086
0.0023226
0.00240205
0.00239048
0.00229887
0.00215973
0.00199245
0.0018165
0.00164681
0.00149503
0.00136773
0.00126605
0.00118745
0.00112807
0.00108416
0.00105245
0.00103008
0.00101447
0.00100332
0.000994706
0.000987143
0.000979631
0.000971606
0.00096286
0.000953439
0.000943545
0.00093345
0.000923453
0.000913834
0.00090484
0.000896671
0.000889485
0.000883401
0.000878506
0.000874866
0.000872751
0.00087193
0.000871989
0.000873825
0.000877164
0.00088202
0.000888467
0.000896572
0.000906421
0.000918119
0.000931797
0.00094762
0.000965798
0.000986597
0.00101036
0.00103755
0.00106871
0.00110461
0.00114617
0.00119457
0.00125123
0.00131776
0.00139591
0.00148728
0.00159289
0.00171258
0.00184414
0.00198248
0.00211889
0.002241
0.00232251
0.00234602
0.00233873
0.0022885
0.00225662
0.00227366
0.0023867
0.00270839
0.00310229
0.00320412
0.00268424
0.00133569
0.00020744
0.000381666
0.00159426
0.00211877
0.00235238
0.00242234
0.00239375
0.00228459
0.0021229
0.00193885
0.00175284
0.00158019
0.00143096
0.00130933
0.0012144
0.00114247
0.00108916
0.00105049
0.00102302
0.00100374
0.000990026
0.00097964
0.000970847
0.000962432
0.000953674
0.000944264
0.000934193
0.000923638
0.000912869
0.000902183
0.000891859
0.000882135
0.000873202
0.000865203
0.000858243
0.000852396
0.000847718
0.000844249
0.000842227
0.000841442
0.000841508
0.000843237
0.000846413
0.00085105
0.000857222
0.000865003
0.000874479
0.000885755
0.000898952
0.000914221
0.000931748
0.000951767
0.000974575
0.00100056
0.0010302
0.00106417
0.0011033
0.00114867
0.00120166
0.00126394
0.00133749
0.00142439
0.00152655
0.0016451
0.00177955
0.00192664
0.00207921
0.00222523
0.00234744
0.0024101
0.00242071
0.00238873
0.0023131
0.00228077
0.00233079
0.002522
0.00295203
0.00316462
0.00290562
0.00154869
0.000245608
0.000390062
0.00162367
0.0021419
0.00236708
0.00242846
0.00238734
0.00225919
0.00208098
0.00188413
0.00169145
0.00151823
0.00137282
0.00125718
0.00116877
0.00110299
0.00105509
0.00102089
0.000996815
0.000979781
0.000967191
0.000956974
0.000947634
0.000938232
0.000928307
0.000917756
0.00090671
0.000895422
0.000884183
0.00087327
0.000862918
0.000853307
0.00084457
0.000836798
0.000830052
0.000824377
0.000819806
0.000816372
0.000814257
0.000813368
0.000813292
0.000814732
0.000817588
0.000821864
0.000827641
0.000834999
0.000844032
0.000854844
0.000867555
0.000882309
0.000899274
0.000918658
0.000940719
0.000965786
0.000994284
0.00102677
0.00106398
0.00110687
0.00115671
0.00121513
0.00128413
0.00136607
0.00146345
0.00157848
0.00171227
0.00186371
0.00202801
0.00219552
0.00235095
0.00245845
0.00249374
0.00248582
0.00241312
0.00233186
0.00231619
0.00242144
0.00275971
0.00306161
0.00303168
0.00178992
0.000290429
0.000394687
0.00164182
0.00215068
0.00236742
0.00242378
0.00237074
0.00222739
0.00203605
0.00182985
0.00163323
0.0014612
0.00132034
0.00121072
0.00112844
0.00106823
0.00102507
0.000994598
0.000973152
0.000957656
0.000945627
0.000935205
0.000925159
0.000914808
0.00090391
0.000892514
0.000880838
0.000869161
0.000857759
0.000846862
0.000836649
0.000827243
0.000818722
0.000811136
0.000804518
0.000798894
0.000794291
0.000790741
0.000788321
0.000787147
0.000786858
0.000787836
0.000790229
0.000794024
0.000799301
0.000806151
0.000814675
0.000824981
0.000837192
0.000851447
0.000867905
0.000886756
0.000908228
0.000932606
0.000960254
0.000991648
0.00102741
0.00106839
0.0011157
0.00117084
0.00123574
0.00131281
0.0014049
0.00151496
0.00164541
0.00179703
0.0019673
0.00214862
0.00232669
0.00247972
0.00255961
0.00257373
0.00252591
0.00240365
0.00234019
0.00237328
0.00260092
0.00298842
0.00307663
0.00205808
0.000341516
0.000395079
0.00165055
0.00214901
0.00236027
0.00240996
0.00234469
0.00219068
0.00198965
0.0017771
0.00157874
0.0014091
0.00127317
0.00116937
0.00109275
0.00103753
0.000998432
0.000971003
0.00095154
0.000937038
0.000925186
0.000914365
0.000903599
0.000892437
0.000880804
0.000868852
0.000856838
0.00084503
0.000833665
0.000822917
0.000812906
0.000803702
0.000795344
0.000787851
0.000781238
0.000775524
0.000770734
0.000766904
0.000764077
0.000762439
0.000761842
0.000762245
0.000764062
0.00076728
0.000771977
0.000778253
0.000786214
0.000795977
0.000807668
0.000821426
0.000837406
0.000855786
0.000876773
0.000900621
0.000927646
0.000958252
0.000992974
0.00103253
0.0010779
0.0011304
0.00119183
0.00126451
0.0013514
0.0014559
0.00158145
0.00173056
0.00190321
0.00209481
0.00229414
0.00248201
0.00261088
0.0026511
0.00263283
0.00252174
0.00238939
0.00235906
0.00247995
0.00287306
0.00307637
0.00233542
0.000396257
0.000393233
0.00165096
0.00214032
0.00234257
0.00238551
0.00231228
0.00215061
0.001943
0.00172667
0.00152825
0.00136179
0.00123088
0.00113259
0.00106112
0.00101029
0.000974645
0.000949659
0.000931654
0.000917749
0.000905839
0.000894552
0.000883143
0.000871349
0.000859215
0.000846951
0.000834816
0.000823048
0.000811827
0.000801274
0.000791454
0.000782395
0.000774107
0.000766591
0.000759856
0.000753919
0.000748812
0.00074458
0.000741278
0.00073903
0.00073798
0.000737818
0.000738968
0.000741543
0.000745606
0.00075126
0.000758622
0.000767813
0.000778964
0.000792217
0.000807727
0.000825665
0.000846228
0.000869646
0.000896199
0.000926238
0.00096022
0.000998758
0.00104269
0.00109317
0.00115179
0.00122072
0.00130285
0.00140175
0.00152151
0.00166595
0.00183715
0.00203325
0.00224566
0.00245688
0.00263578
0.00272075
0.00273059
0.00264722
0.00246855
0.00237976
0.0024245
0.00272032
0.00298706
0.00258017
0.000446247
0.000388943
0.00164718
0.00212161
0.00231539
0.00235381
0.00227497
0.00210843
0.001897
0.00167904
0.00148186
0.00131906
0.00119308
0.0010999
0.00103305
0.000986043
0.000953294
0.000930243
0.000913286
0.000899706
0.000887617
0.000875877
0.000863945
0.000851698
0.000839264
0.000826873
0.000814763
0.000803124
0.000792085
0.000781712
0.000772028
0.000763031
0.00075471
0.000747061
0.000740091
0.000733825
0.000728304
0.000723585
0.000719741
0.000716855
0.000715138
0.00071451
0.000714944
0.000716837
0.000720236
0.000725246
0.000731987
0.000740586
0.00075118
0.000763915
0.000778949
0.000796451
0.000816614
0.000839654
0.000865826
0.000895442
0.000928898
0.000966718
0.00100962
0.00105858
0.00111502
0.0011809
0.0012589
0.0013526
0.0014664
0.0016051
0.00177268
0.00197012
0.00219233
0.00242489
0.00264183
0.0027801
0.00281612
0.00276633
0.00259076
0.00242464
0.00240219
0.00262094
0.00291154
0.00275732
0.000482691
0.000382326
0.00163753
0.00209564
0.00228174
0.00231639
0.00223407
0.00206517
0.00185232
0.00163452
0.00143954
0.00128063
0.00115936
0.00107085
0.00100811
0.000964403
0.000934056
0.000912524
0.000896311
0.000882881
0.000870566
0.000858433
0.000846105
0.000833565
0.000820985
0.000808591
0.000796585
0.000785109
0.000774239
0.000763998
0.000754376
0.000745352
0.000736905
0.000729029
0.00072174
0.000715069
0.00070907
0.000703814
0.000699386
0.00069588
0.000693432
0.00069226
0.000692072
0.000693261
0.00069599
0.000700351
0.000706465
0.000714464
0.000724489
0.000736693
0.000751236
0.000768292
0.000788053
0.000810729
0.000836562
0.000865837
0.000898903
0.000936216
0.000978386
0.00102626
0.00108106
0.0011445
0.00121906
0.00130813
0.00141618
0.00154858
0.00171071
0.00190604
0.00213288
0.00238057
0.00262671
0.00281917
0.00289286
0.00288003
0.00272518
0.00248813
0.00239769
0.00251656
0.00283936
0.00284068
0.000498603
0.000373656
0.00162218
0.00206422
0.00224299
0.00227462
0.0021907
0.00202165
0.00180943
0.00159326
0.00140118
0.00124624
0.00112938
0.00104507
0.000985934
0.000945051
0.000916685
0.000896339
0.000880647
0.000867263
0.000854723
0.000842273
0.000829667
0.00081696
0.00080434
0.000792014
0.000780144
0.000768823
0.000758082
0.000747911
0.000738276
0.000729145
0.000720497
0.000712328
0.000704663
0.000697545
0.00069104
0.000685231
0.000680213
0.000676092
0.000672979
0.000671122
0.000670454
0.000670952
0.000673023
0.000676748
0.000682243
0.000689644
0.000699096
0.000710756
0.000724791
0.000741381
0.00076072
0.000783021
0.00080852
0.000837485
0.000870238
0.000907178
0.000948834
0.000995935
0.00104952
0.0011111
0.00118287
0.00126798
0.00137079
0.00149691
0.00165272
0.00184377
0.00207162
0.00232922
0.00259606
0.00283579
0.00296251
0.00298046
0.00286136
0.0025961
0.00242767
0.00245379
0.00277739
0.00286857
0.000502561
0.000363275
0.0016033
0.00202865
0.00220039
0.00222969
0.00214578
0.00197848
0.00176865
0.00155531
0.00136663
0.00121561
0.00110279
0.00102222
0.000966221
0.00092773
0.000900987
0.000881563
0.000866237
0.000852844
0.000840103
0.000827413
0.000814625
0.000801839
0.000789245
0.000777019
0.000765282
0.000754084
0.000743421
0.000733256
0.000723544
0.000714246
0.000705344
0.000696843
0.000688776
0.000681198
0.000674188
0.000667839
0.000662254
0.000657548
0.000653836
0.000651301
0.000650144
0.000650051
0.000651496
0.000654611
0.000659508
0.000666324
0.000675205
0.000686315
0.000699825
0.000715923
0.000734812
0.000756708
0.000781851
0.000810504
0.000842969
0.000879612
0.000920895
0.000967447
0.00102016
0.00108033
0.00114991
0.00123173
0.00132992
0.00145007
0.00159915
0.00178439
0.00201048
0.00227485
0.00256185
0.00283802
0.00302057
0.00307084
0.00299034
0.00272812
0.00246976
0.00242687
0.00268108
0.00287084
0.00050066
0.000351662
0.00158201
0.0019901
0.00215507
0.00218265
0.0021001
0.00193615
0.00173018
0.00152064
0.00133572
0.00118848
0.00107931
0.00100202
0.00094871
0.000912228
0.000886807
0.000868101
0.000853031
0.000839602
0.000826696
0.000813833
0.000800935
0.000788128
0.000775589
0.000763466
0.000751839
0.000740722
0.000730085
0.000719873
0.000710034
0.00070053
0.000691346
0.000682499
0.000674031
0.000666008
0.000658519
0.000651666
0.00064556
0.000640321
0.000636073
0.000632944
0.00063121
0.000630694
0.000631551
0.000634094
0.000638425
0.000644676
0.000652997
0.000663554
0.000676526
0.000692109
0.000710514
0.000731968
0.000756718
0.000785031
0.000817203
0.000853575
0.000894567
0.000940725
0.000992814
0.00105196
0.00111983
0.00119899
0.00129322
0.00140792
0.00155029
0.00172869
0.0019503
0.00221653
0.00251649
0.0028217
0.00306293
0.00315127
0.00311432
0.00287208
0.00253802
0.00242096
0.00259718
0.00283696
0.000491834
0.000339207
0.00155908
0.00194954
0.00210799
0.00213437
0.0020543
0.00189501
0.00169412
0.00148917
0.00130824
0.00116459
0.00105868
0.000984208
0.000933181
0.000898366
0.000874014
0.000855865
0.000840976
0.000827505
0.000814469
0.000801484
0.000788525
0.000775727
0.000763252
0.000751216
0.000739665
0.000728588
0.000717932
0.000707633
0.000697637
0.000687906
0.000678437
0.000669252
0.000660405
0.000651972
0.000644049
0.000636745
0.000630177
0.000624468
0.000619741
0.000616121
0.000613843
0.00061295
0.000613292
0.000615314
0.000619118
0.000624834
0.000632613
0.000642622
0.000655048
0.000670095
0.000687984
0.000708956