/*--------------------------------*- C++ -*----------------------------------*\
  =========                 |
  \\      /  F ield         | OpenFOAM: The Open Source CFD Toolbox
   \\    /   O peration     | Website:  https://openfoam.org
    \\  /    A nd           | Version:  13
     \\/     M anipulation  |
\*---------------------------------------------------------------------------*/
FoamFile
{
    format      ascii;
    class       volScalarField;
    location    "3.5";
    object      p;
}
// * * * * * * * * * * * * * * * * * * * * * * * * * * * * * * * * * * * * * //

dimensions      [0 2 -2 0 0 0 0];

internalField   nonuniform List<scalar> 
6400
(
1.54614e-08
1.4171e-05
1.88612e-05
5.44682e-06
-2.95979e-05
-8.29356e-05
-0.000148257
-0.000219327
-0.000291507
-0.000362891
-0.000433492
-0.000505506
-0.000582414
-0.000667508
-0.000764354
-0.000876001
-0.00100482
-0.00115239
-0.00132004
-0.0015089
-0.0017193
-0.00195189
-0.00220841
-0.00249162
-0.00280564
-0.00315421
-0.00353466
-0.00394252
-0.00436809
-0.00479115
-0.00519893
-0.00558955
-0.00595972
-0.00630483
-0.00662011
-0.0069002
-0.00713854
-0.00732734
-0.00745792
-0.00752112
-0.00750769
-0.00740845
-0.00721506
-0.00692071
-0.00652109
-0.00601493
-0.00540169
-0.00467313
-0.00382569
-0.00287914
-0.00184699
-0.000737728
0.000429263
0.00163283
0.00284548
0.00403654
0.00516942
0.00620507
0.00710565
0.00783568
0.00836521
0.00867502
0.00875922
0.00862596
0.00829656
0.00780987
0.00721859
0.00657801
0.00594286
0.00536297
0.00486499
0.00447894
0.00421096
0.00403665
0.00393892
0.00389825
0.00389544
0.003914
0.00394235
0.00396639
-1.10902e-05
3.26664e-06
5.06859e-06
-1.14897e-05
-4.8179e-05
-0.000101216
-0.000163673
-0.000229827
-0.000296047
-0.000361228
-0.000426092
-0.000493014
-0.000565279
-0.000646005
-0.000738007
-0.0008441
-0.000967014
-0.00110862
-0.00126981
-0.00145132
-0.00165277
-0.00187433
-0.00211796
-0.00238555
-0.00267892
-0.00300144
-0.00335758
-0.00374832
-0.00416859
-0.00460623
-0.00504226
-0.0054622
-0.00586044
-0.0062334
-0.00657603
-0.0068821
-0.00714476
-0.00735609
-0.00750762
-0.00759051
-0.0075963
-0.00751661
-0.00734394
-0.00707191
-0.00669581
-0.00621293
-0.00562107
-0.00491947
-0.00411247
-0.00320877
-0.002212
-0.00114047
-1.03073e-05
0.00115608
0.00233272
0.00348863
0.00458918
0.00559851
0.00648113
0.00720386
0.00773799
0.00806385
0.00817507
0.00807909
0.00779746
0.00736666
0.0068298
0.00624732
0.00566699
0.00513631
0.00469153
0.00434851
0.00411343
0.00397394
0.00391081
0.00390395
0.00392426
0.00395118
0.00397806
0.00400132
-2.08986e-05
-5.21426e-06
-6.9671e-06
-2.92625e-05
-7.08943e-05
-0.000125491
-0.000185417
-0.000245124
-0.000302331
-0.00035784
-0.000413436
-0.000471948
-0.000536662
-0.000610179
-0.000694592
-0.000791711
-0.000903029
-0.00103048
-0.00117588
-0.00134121
-0.00152902
-0.00174121
-0.00198031
-0.0022501
-0.00255359
-0.00289291
-0.00326857
-0.00367845
-0.00411724
-0.00457579
-0.00504055
-0.00549763
-0.00593626
-0.00634802
-0.00672648
-0.00706503
-0.0073565
-0.00759332
-0.00776777
-0.0078717
-0.0078973
-0.00783745
-0.00768553
-0.00743586
-0.00708432
-0.00662903
-0.00606901
-0.00539918
-0.00462577
-0.00375793
-0.00280154
-0.00177014
-0.000679593
0.000449502
0.00159261
0.00272085
0.00380202
0.00480113
0.00568279
0.00641524
0.00697082
0.00732931
0.00748268
0.00743732
0.00721301
0.0068437
0.00637285
0.00585128
0.00532993
0.00485254
0.00445166
0.00414962
0.00395552
0.00385751
0.00382911
0.00384959
0.00389372
0.00393913
0.00397968
0.00401255
-2.31126e-05
-7.99131e-06
-1.46292e-05
-4.40867e-05
-9.23185e-05
-0.000149133
-0.000206819
-0.000260753
-0.000309658
-0.000354246
-0.000398113
-0.000445165
-0.000498968
-0.000562293
-0.000636825
-0.000723778
-0.000824628
-0.000941492
-0.00107726
-0.0012353
-0.00142019
-0.00163712
-0.00189097
-0.00218608
-0.00252373
-0.00290439
-0.00332686
-0.00378623
-0.00427333
-0.00477607
-0.00528235
-0.0057801
-0.00625788
-0.00670593
-0.00711651
-0.0074826
-0.00779726
-0.0080537
-0.00824467
-0.00836302
-0.00840176
-0.00835478
-0.00821635
-0.00798155
-0.00764694
-0.00721057
-0.00667092
-0.00602713
-0.00528228
-0.00444222
-0.00351411
-0.00250974
-0.00144395
-0.000335399
0.000793539
0.00191582
0.00299998
0.00401217
0.00491753
0.00568306
0.00628085
0.00668877
0.00689606
0.00690661
0.00673863
0.00642275
0.00600105
0.00552297
0.00503922
0.00459349
0.0042207
0.00394165
0.00376579
0.00368602
0.00368604
0.00373415
0.00380293
0.00387298
0.00393373
0.00397648
-1.25002e-05
-2.03407e-06
-1.54725e-05
-5.24916e-05
-0.000107256
-0.000166387
-0.000221993
-0.00027027
-0.000310872
-0.000345906
-0.000379527
-0.000416196
-0.000459883
-0.000513459
-0.000579036
-0.000658521
-0.000754486
-0.000870505
-0.00101162
-0.00118349
-0.00139202
-0.00164306
-0.00193976
-0.00228502
-0.00268033
-0.00312312
-0.00360748
-0.0041251
-0.00466451
-0.00521259
-0.00575738
-0.00628755
-0.00679354
-0.00726695
-0.00769946
-0.00808397
-0.00841401
-0.00868319
-0.00888478
-0.00901242
-0.00906006
-0.00902268
-0.00889551
-0.00867429
-0.00835567
-0.00793771
-0.00741937
-0.00680046
-0.00608264
-0.00526969
-0.00436802
-0.00338814
-0.00234406
-0.00125182
-0.000130758
0.000993708
0.00209038
0.00312744
0.00407142
0.00488798
0.00554791
0.00602709
0.00631038
0.00639538
0.00629748
0.00604657
0.00568168
0.00524903
0.00479965
0.00437964
0.00402514
0.00375961
0.00359251
0.00351988
0.00352639
0.00358666
0.00367212
0.00376125
0.00383826
0.0038875
1.70876e-05
1.85774e-05
-3.52156e-06
-4.99649e-05
-0.000110769
-0.000171252
-0.000224633
-0.00026807
-0.000301885
-0.000329332
-0.000355472
-0.000385081
-0.000422424
-0.000470914
-0.00053367
-0.000614319
-0.000717673
-0.000849511
-0.00101642
-0.00122592
-0.00148244
-0.00179056
-0.00215378
-0.00257163
-0.0030403
-0.00355188
-0.00409693
-0.0046662
-0.0052492
-0.00583436
-0.00641031
-0.00696625
-0.00749358
-0.00798458
-0.00843192
-0.00882902
-0.00916938
-0.00944707
-0.00965636
-0.00979111
-0.00984633
-0.00981893
-0.00970477
-0.00950016
-0.00920202
-0.00880872
-0.00831876
-0.00773181
-0.00704888
-0.00627181
-0.00540514
-0.00445778
-0.00344213
-0.00237101
-0.00126116
-0.000138269
0.000969943
0.00203447
0.00302415
0.00390322
0.00464094
0.00521136
0.00559507
0.00578472
0.00578609
0.00562592
0.00534218
0.00497781
0.0045807
0.00419816
0.00386844
0.00361748
0.00345704
0.00338553
0.00339026
0.00344899
0.00353634
0.00362885
0.00371004
0.00376027
7.26138e-05
6.21957e-05
2.86446e-05
-2.98287e-05
-9.51487e-05
-0.000156524
-0.000208111
-0.000248001
-0.000277825
-0.000301705
-0.000325052
-0.000353211
-0.000391019
-0.000442978
-0.000513967
-0.000610141
-0.000738436
-0.000906558
-0.00112123
-0.00138866
-0.00171453
-0.00210055
-0.00254483
-0.00304058
-0.00357958
-0.00415354
-0.00475329
-0.00536859
-0.00598895
-0.00660416
-0.00720439
-0.00778011
-0.00832334
-0.00882701
-0.00928471
-0.00969017
-0.0100367
-0.0103189
-0.0105321
-0.0106726
-0.0107381
-0.0107245
-0.0106276
-0.0104442
-0.0101722
-0.00980955
-0.00935372
-0.00880425
-0.00816214
-0.00743027
-0.00661312
-0.00571609
-0.00474499
-0.00371175
-0.00263296
-0.00152603
-0.00041225
0.000679472
0.00171569
0.00266249
0.00349014
0.00417012
0.00467775
0.00500204
0.00514044
0.00510869
0.00493961
0.00467423
0.00435708
0.00403405
0.00374477
0.00351764
0.00336738
0.00329517
0.00329366
0.00334147
0.00341809
0.00350078
0.00357258
0.00361561
0.000160516
0.000135526
8.66531e-05
1.71098e-05
-5.30487e-05
-0.000115811
-0.000166901
-0.000205975
-0.000235854
-0.000261515
-0.000288852
-0.000323799
-0.000372185
-0.000440123
-0.000534657
-0.000664179
-0.000837632
-0.00106181
-0.00134429
-0.00169029
-0.00210098
-0.0025711
-0.00309432
-0.00366286
-0.00426736
-0.00489818
-0.00554573
-0.00620014
-0.00685171
-0.0074913
-0.00811026
-0.00870037
-0.00925443
-0.00976597
-0.0102289
-0.010637
-0.0109856
-0.0112707
-0.0114891
-0.0116394
-0.0117183
-0.0117198
-0.0116411
-0.0114794
-0.0112325
-0.0109002
-0.0104804
-0.00997293
-0.00937888
-0.00870098
-0.00794267
-0.00710633
-0.00619436
-0.00521614
-0.0041846
-0.00311362
-0.0020214
-0.000929341
0.000135812
0.0011481
0.00207202
0.00287254
0.00352384
0.00400905
0.0043182
0.00445418
0.00443979
0.00430959
0.00410451
0.0038678
0.00363977
0.003451
0.00331954
0.00325065
0.00323864
0.00326993
0.00332748
0.00339106
0.00344155
0.00347013
0.000283697
0.000243504
0.000176637
9.54719e-05
1.98404e-05
-4.54479e-05
-9.84018e-05
-0.000140458
-0.000175788
-0.000210236
-0.000250318
-0.00030279
-0.000374784
-0.000474074
-0.000609828
-0.000792277
-0.00102978
-0.00132935
-0.00169678
-0.0021313
-0.0026278
-0.00317978
-0.00377854
-0.00441423
-0.00507683
-0.0057567
-0.00644446
-0.00713103
-0.00780765
-0.00846608
-0.00909859
-0.00969804
-0.0102579
-0.0107723
-0.0112356
-0.0116442
-0.0119962
-0.0122873
-0.0125139
-0.0126726
-0.0127593
-0.0127722
-0.0127093
-0.0125686
-0.0123485
-0.0120483
-0.0116675
-0.0112055
-0.0106625
-0.0100396
-0.0093381
-0.00856059
-0.0077124
-0.00679994
-0.00583207
-0.00481913
-0.00377104
-0.00270032
-0.00162831
-0.000580922
0.000414052
0.00132857
0.00213109
0.00279137
0.00329487
0.00363211
0.0038111
0.00385445
0.00379704
0.00367674
0.00353303
0.00339973
0.00329838
0.00323845
0.00321855
0.00323149
0.00326333
0.00330018
0.00332361
0.00333477
0.000446258
0.00038842
0.000300973
0.000207496
0.000124391
5.45241e-05
-3.54597e-06
-5.35005e-05
-0.000100972
-0.000152729
-0.00021606
-0.000298712
-0.000409056
-0.000556574
-0.000751889
-0.00100535
-0.00132448
-0.00171323
-0.00217137
-0.00269489
-0.00327592
-0.00390514
-0.00457215
-0.00526686
-0.00597942
-0.0067006
-0.00742149
-0.00813373
-0.0088294
-0.00950112
-0.0101421
-0.0107461
-0.0113077
-0.0118219
-0.0122846
-0.0126928
-0.013043
-0.0133321
-0.0135581
-0.0137182
-0.0138102
-0.0138325
-0.013784
-0.0136633
-0.0134695
-0.013202
-0.01286
-0.0124435
-0.0119527
-0.0113879
-0.01075
-0.0100403
-0.00926199
-0.0084188
-0.00751547
-0.00655805
-0.00555633
-0.00452564
-0.00347882
-0.00242787
-0.00139046
-0.000395824
0.000531237
0.00136271
0.00206462
0.00262062
0.00302396
0.00327807
0.00340468
0.00343467
0.00340194
0.0033425
0.00328379
0.00324077
0.00321872
0.00321227
0.00321673
0.003222
0.00321797
0.00321261
0.000647114
0.000568699
0.000458709
0.000349214
0.000257176
0.000180089
0.000112741
4.89613e-05
-1.84329e-05
-9.72017e-05
-0.00019547
-0.000321881
-0.000486019
-0.000698462
-0.000970063
-0.00130964
-0.00172097
-0.0022035
-0.00275378
-0.00336386
-0.00402335
-0.00472202
-0.00544912
-0.00619473
-0.00694938
-0.00770428
-0.00845111
-0.00918217
-0.00989031
-0.010569
-0.0112123
-0.0118151
-0.0123727
-0.0128812
-0.0133375
-0.0137387
-0.0140823
-0.014366
-0.0145885
-0.014748
-0.0148431
-0.0148728
-0.0148362
-0.014733
-0.0145628
-0.0143238
-0.0140168
-0.013642
-0.0131993
-0.0126892
-0.0121121
-0.011469
-0.0107614
-0.00999144
-0.00916137
-0.00827426
-0.00733521
-0.00635181
-0.00533278
-0.00429242
-0.00324828
-0.00221139
-0.00119633
-0.000234941
0.000645417
0.00141732
0.00205598
0.00254824
0.00289367
0.00310928
0.00322009
0.00325754
0.0032554
0.00323698
0.00321529
0.00319364
0.00317208
0.00314635
0.00311758
0.00309802
0.000877267
0.000778073
0.000641435
0.000513722
0.00041065
0.000323171
0.000241646
0.00015734
6.1491e-05
-5.46476e-05
-0.000199901
-0.000383683
-0.000616365
-0.000908506
-0.00126924
-0.00170349
-0.00221119
-0.00278832
-0.00342711
-0.00411719
-0.00484748
-0.00560731
-0.00638619
-0.00717446
-0.00796312
-0.00874385
-0.00950894
-0.0102514
-0.0109649
-0.0116438
-0.0122831
-0.0128787
-0.013427
-0.0139248
-0.0143697
-0.0147598
-0.0150933
-0.0153689
-0.0155854
-0.015742
-0.0158378
-0.0158722
-0.0158449
-0.0157556
-0.0156045
-0.0153908
-0.0151149
-0.014777
-0.0143775
-0.0139166
-0.0133948
-0.0128127
-0.0121711
-0.0114707
-0.0107127
-0.00989837
-0.0090299
-0.00811012
-0.00714286
-0.00613461
-0.00509445
-0.00403504
-0.00297598
-0.00192785
-0.000909758
4.62003e-05
0.000906098
0.00164156
0.00222982
0.00266396
0.0029538
0.00311992
0.00319383
0.00321045
0.00319407
0.00315944
0.0031143
0.00306138
0.00301285
0.00298177
0.00112693
0.0010054
0.000839125
0.000690801
0.000574114
0.000472335
0.000371163
0.000259212
0.000126151
-3.76461e-05
-0.000241474
-0.000495247
-0.000808971
-0.00119156
-0.00164878
-0.00218135
-0.00278517
-0.00345241
-0.00417293
-0.00493513
-0.00572778
-0.00654017
-0.00736215
-0.00818451
-0.0089987
-0.00979699
-0.0105724
-0.0113187
-0.0120305
-0.0127032
-0.0133328
-0.013916
-0.0144503
-0.0149334
-0.0153637
-0.0157398
-0.0160609
-0.0163261
-0.0165348
-0.0166865
-0.016781
-0.016818
-0.0167974
-0.0167194
-0.0165842
-0.0163918
-0.0161425
-0.0158368
-0.0154751
-0.0150577
-0.014585
-0.0140575
-0.0134754
-0.0128388
-0.012148
-0.0114028
-0.0106037
-0.00975077
-0.00884495
-0.00788785
-0.00688208
-0.0058326
-0.00474908
-0.00364639
-0.00254024
-0.00144726
-0.000403762
0.000554454
0.00138893
0.00206486
0.00256647
0.00289801
0.0030786
0.0031464
0.00314359
0.00309867
0.00303237
0.00295647
0.00289321
0.00285427
0.00138216
0.00123654
0.00103866
0.00086722
0.000733902
0.000613566
0.000487059
0.000340317
0.000161482
-5.94694e-05
-0.000332073
-0.000665959
-0.00106945
-0.0015487
-0.00210501
-0.00273463
-0.00342974
-0.00418012
-0.0049741
-0.00579968
-0.00664566
-0.00750153
-0.00835763
-0.00920518
-0.0100363
-0.0108439
-0.0116219
-0.0123649
-0.0130687
-0.0137296
-0.0143447
-0.0149116
-0.0154286
-0.0158943
-0.0163079
-0.0166686
-0.0169759
-0.0172295
-0.0174293
-0.0175751
-0.017667
-0.017705
-0.0176894
-0.0176204
-0.0174985
-0.0173239
-0.0170972
-0.0168189
-0.0164896
-0.0161098
-0.0156798
-0.0152
-0.0146704
-0.0140908
-0.0134608
-0.0127794
-0.0120456
-0.011258
-0.0104152
-0.00951566
-0.00855859
-0.00754417
-0.00647448
-0.00535433
-0.00419403
-0.00301403
-0.00183454
-0.000692705
0.000365742
0.00128792
0.00202668
0.00255816
0.00288402
0.00303189
0.00305589
0.0030067
0.00292101
0.00282508
0.00275022
0.00270446
0.00162583
0.00145597
0.00122395
0.00102753
0.000874563
0.000731329
0.000573762
0.000385232
0.000153234
-0.00013247
-0.000481925
-0.0009027
-0.00140079
-0.00197803
-0.00263114
-0.00335257
-0.00413172
-0.00495663
-0.00581485
-0.00669438
-0.00758423
-0.00847426
-0.00935531
-0.0102192
-0.0110589
-0.011868
-0.0126416
-0.0133754
-0.014066
-0.0147109
-0.015308
-0.015856
-0.0163538
-0.0168009
-0.0171968
-0.0175415
-0.0178347
-0.0180766
-0.0182673
-0.0184069
-0.0184956
-0.0185338
-0.0185218
-0.0184601
-0.0183492
-0.0181895
-0.0179819
-0.0177268
-0.017425
-0.0170771
-0.0166835
-0.0162446
-0.0157603
-0.0152303
-0.0146539
-0.0140296
-0.0133556
-0.0126293
-0.0118479
-0.0110077
-0.0101052
-0.00913724
-0.00810144
-0.00699736
-0.00582757
-0.00460099
-0.00333509
-0.00205984
-0.000819965
0.000325999
0.00130908
0.00206991
0.00257938
0.00284742
0.00292383
0.00288142
0.00277964
0.00266495
0.00257774
0.00252329
0.00183952
0.00164425
0.0013785
0.00115575
0.000980267
0.000809835
0.000615744
0.000380007
8.95846e-05
-0.00026725
-0.000698401
-0.00120935
-0.00180246
-0.00247462
-0.00321883
-0.0040243
-0.00487844
-0.00576819
-0.0066808
-0.00760448
-0.00852855
-0.00944337
-0.0103404
-0.0112124
-0.0120529
-0.0128569
-0.0136204
-0.0143401
-0.0150137
-0.0156397
-0.0162168
-0.0167446
-0.0172226
-0.0176508
-0.0180294
-0.0183584
-0.0186381
-0.0188688
-0.0190507
-0.0191844
-0.0192701
-0.0193081
-0.0192989
-0.0192433
-0.0191415
-0.0189945
-0.0188028
-0.0185672
-0.0182885
-0.0179674
-0.0176045
-0.0172
-0.0167542
-0.0162665
-0.0157363
-0.0151618
-0.0145409
-0.0138705
-0.0131466
-0.0123644
-0.0115186
-0.0106033
-0.00961293
-0.00854291
-0.00739097
-0.00615822
-0.00485306
-0.00349694
-0.0021278
-0.000801679
0.000405709
0.00140691
0.00213452
0.00256728
0.00273506
0.0027184
0.00260891
0.00247528
0.00237034
0.00230417
0.00200555
0.0017853
0.00148647
0.00123664
0.00103598
0.000834378
0.000599843
0.000313355
-4.01116e-05
-0.000471207
-0.000985732
-0.00158658
-0.00227084
-0.00303186
-0.003859
-0.00473903
-0.00565798
-0.00660222
-0.00755903
-0.00851694
-0.0094657
-0.0103963
-0.0113011
-0.0121736
-0.0130085
-0.0138019
-0.0145508
-0.0152531
-0.0159073
-0.0165128
-0.0170693
-0.0175767
-0.0180353
-0.0184454
-0.0188075
-0.019122
-0.0193893
-0.0196098
-0.019784
-0.0199124
-0.0199953
-0.0200331
-0.0200265
-0.019976
-0.0198822
-0.0197458
-0.0195676
-0.0193484
-0.019089
-0.0187903
-0.0184528
-0.018077
-0.0176633
-0.0172111
-0.0167199
-0.0161881
-0.0156133
-0.0149922
-0.0143206
-0.0135928
-0.0128024
-0.0119422
-0.011004
-0.00998014
-0.00886429
-0.00765242
-0.00634545
-0.00495468
-0.003508
-0.0020542
-0.00066521
0.000562261
0.0015269
0.00216284
0.00246836
0.0025112
0.00240646
0.00225434
0.00212328
0.00204343
0.00210587
0.00186342
0.0015335
0.00125647
0.00102837
0.000792693
0.000515637
0.000175807
-0.000242973
-0.000748756
-0.00134548
-0.00203162
-0.00280059
-0.00364198
-0.00454218
-0.00548618
-0.00645918
-0.00744736
-0.0084382
-0.00942065
-0.0103851
-0.0113232
-0.0122284
-0.013095
-0.0139192
-0.0146978
-0.0154291
-0.0161119
-0.0167456
-0.0173303
-0.0178663
-0.0183541
-0.0187944
-0.0191878
-0.0195349
-0.0198364
-0.0200928
-0.0203045
-0.0204722
-0.0205961
-0.0206769
-0.020715
-0.0207107
-0.0206648
-0.0205779
-0.0204507
-0.020284
-0.0200785
-0.0198353
-0.0195551
-0.0192386
-0.0188866
-0.0184992
-0.0180765
-0.0176178
-0.0171217
-0.0165861
-0.0160078
-0.0153823
-0.0147039
-0.0139657
-0.0131594
-0.0122758
-0.0113048
-0.0102369
-0.00906439
-0.00778257
-0.00639393
-0.00491512
-0.0033837
-0.00186419
-0.000449282
0.000746459
0.0016147
0.00210121
0.00224348
0.00216557
0.00199826
0.00183339
0.00173902
0.00212829
0.00186625
0.00150806
0.00120427
0.000947237
0.000676552
0.000355638
-3.94654e-05
-0.000522538
-0.00110062
-0.00177499
-0.00253972
-0.00338478
-0.00429644
-0.0052588
-0.00625568
-0.00727186
-0.00829354
-0.00930858
-0.0103065
-0.0112783
-0.0122167
-0.013116
-0.0139718
-0.0147812
-0.0155423
-0.0162542
-0.0169166
-0.0175297
-0.0180941
-0.0186107
-0.0190803
-0.0195039
-0.0198823
-0.0202163
-0.0205065
-0.0207536
-0.0209581
-0.0211205
-0.0212412
-0.0213206
-0.0213592
-0.0213574
-0.0213158
-0.0212351
-0.0211159
-0.020959
-0.0207652
-0.0205354
-0.0202706
-0.0199715
-0.0196389
-0.0192731
-0.0188744
-0.0184422
-0.0179757
-0.0174728
-0.0169307
-0.0163451
-0.0157105
-0.0150199
-0.0142647
-0.0134349
-0.0125192
-0.011506
-0.0103845
-0.00914608
-0.00778638
-0.00631178
-0.00474737
-0.00314579
-0.00159267
-0.000197925
0.000904484
0.00160757
0.00189746
0.00187695
0.0017011
0.00149866
0.00139083
0.00206303
0.00178482
0.00140202
0.00107271
0.000786706
0.000480401
0.00011482
-0.000333707
-0.000878207
-0.00152447
-0.00226947
-0.00310423
-0.0040153
-0.0049862
-0.00599942
-0.00703808
-0.00808679
-0.00913202
-0.0101621
-0.0111671
-0.012139
-0.0130716
-0.0139601
-0.0148013
-0.0155933
-0.0163352
-0.017027
-0.017669
-0.0182621
-0.0188075
-0.0193062
-0.0197594
-0.0201682
-0.0205335
-0.0208563
-0.0211371
-0.0213766
-0.0215754
-0.0217338
-0.0218522
-0.021931
-0.0219707
-0.0219715
-0.0219341
-0.0218591
-0.0217469
-0.0215986
-0.0214147
-0.0211964
-0.0209443
-0.0206595
-0.0203427
-0.0199945
-0.0196152
-0.0192047
-0.0187621
-0.0182861
-0.0177741
-0.0172223
-0.0166257
-0.0159774
-0.015269
-0.0144903
-0.0136296
-0.0126738
-0.0116098
-0.0104261
-0.00911383
-0.0076703
-0.00610861
-0.00446781
-0.00282616
-0.0012809
3.6124e-05
0.000974936
0.00145354
0.00152365
0.00135464
0.00112129
0.000999292
0.00190452
0.00161409
0.00121102
0.000858398
0.000544179
0.000202473
-0.000206688
-0.000705437
-0.00130685
-0.00201451
-0.00282198
-0.00371703
-0.00468325
-0.0057021
-0.00675499
-0.00782467
-0.00889587
-0.00995541
-0.0109922
-0.0119971
-0.0129631
-0.0138849
-0.0147589
-0.0155828
-0.0163559
-0.0170779
-0.0177496
-0.018372
-0.0189464
-0.0194742
-0.0199568
-0.0203955
-0.0207916
-0.0211459
-0.0214593
-0.0217326
-0.0219662
-0.0221606
-0.0223163
-0.0224334
-0.0225124
-0.0225535
-0.0225572
-0.0225239
-0.0224541
-0.0223484
-0.0222075
-0.0220323
-0.0218235
-0.0215822
-0.0213092
-0.0210054
-0.0206714
-0.0203078
-0.0199146
-0.0194914
-0.0190372
-0.0185499
-0.0180262
-0.0174618
-0.0168503
-0.0161838
-0.0154523
-0.014644
-0.0137454
-0.0127418
-0.0116193
-0.010366
-0.00897325
-0.00744216
-0.00579643
-0.00410579
-0.0024618
-0.000973772
0.000190792
0.000886555
0.00109172
0.000952259
0.000704087
0.000563305
0.00165146
0.00135308
0.000934643
0.000561541
0.000220275
-0.000155585
-0.000604912
-0.00114954
-0.00180232
-0.00256352
-0.0034242
-0.00436911
-0.00537943
-0.00643512
-0.00751695
-0.0086076
-0.00969205
-0.0107576
-0.0117939
-0.0127926
-0.0137478
-0.014655
-0.0155118
-0.016317
-0.0170703
-0.0177726
-0.018425
-0.0190289
-0.0195861
-0.0200982
-0.0205667
-0.0209929
-0.0213782
-0.0217234
-0.0220293
-0.0222966
-0.0225258
-0.0227172
-0.0228712
-0.022988
-0.0230677
-0.0231108
-0.0231175
-0.0230882
-0.0230234
-0.0229235
-0.0227893
-0.0226216
-0.0224211
-0.0221889
-0.0219257
-0.0216325
-0.0213101
-0.0209591
-0.0205798
-0.0201722
-0.0197355
-0.0192682
-0.0187676
-0.01823
-0.01765
-0.0170201
-0.0163312
-0.0155716
-0.0147279
-0.0137848
-0.0127263
-0.0115384
-0.0102096
-0.00873222
-0.00711194
-0.00539451
-0.0037002
-0.00209524
-0.000734964
0.00018666
0.000564406
0.000484562
0.00024252
7.67463e-05
0.00130652
0.0010047
0.000575921
0.000185312
-0.000180802
-0.00058805
-0.00107369
-0.00165921
-0.00235616
-0.00316253
-0.00406672
-0.00505098
-0.00609462
-0.00717663
-0.00827746
-0.00937991
-0.0104694
-0.0115338
-0.0125634
-0.0135511
-0.0144916
-0.0153817
-0.0162197
-0.0170053
-0.017739
-0.0184221
-0.0190562
-0.0196432
-0.020185
-0.0206832
-0.0211395
-0.0215552
-0.0219315
-0.0222693
-0.0225694
-0.0228322
-0.0230583
-0.0232478
-0.0234011
-0.0235182
-0.0235994
-0.0236447
-0.0236546
-0.0236293
-0.0235691
-0.0234747
-0.0233466
-0.0231854
-0.0229922
-0.0227676
-0.0225126
-0.0222282
-0.0219153
-0.0215745
-0.0212065
-0.0208112
-0.0203885
-0.0199373
-0.0194555
-0.0189402
-0.0183865
-0.0177883
-0.0171369
-0.0164215
-0.0156291
-0.0147443
-0.0137502
-0.0126304
-0.0113714
-0.009961
-0.00839373
-0.00668446
-0.00495733
-0.00328803
-0.00177867
-0.000645263
-7.13188e-05
-5.13283e-05
-0.00027221
-0.000469359
0.000875589
0.000575438
0.000140976
-0.000263929
-0.000652225
-0.00108687
-0.00160422
-0.00222508
-0.0029588
-0.00380161
-0.00473963
-0.00575307
-0.0068199
-0.00791853
-0.00902938
-0.0101355
-0.0112229
-0.0122801
-0.0132983
-0.014271
-0.0151942
-0.0160654
-0.0168837
-0.0176496
-0.0183642
-0.0190292
-0.0196465
-0.0202182
-0.0207463
-0.0212324
-0.0216783
-0.0220853
-0.0224543
-0.0227864
-0.023082
-0.0233417
-0.0235657
-0.0237544
-0.0239077
-0.0240258
-0.0241088
-0.0241567
-0.0241699
-0.0241485
-0.0240929
-0.0240034
-0.0238808
-0.0237256
-0.0235386
-0.0233206
-0.0230727
-0.0227956
-0.0224905
-0.022158
-0.0217989
-0.0214136
-0.0210021
-0.0205638
-0.0200972
-0.0196001
-0.0190685
-0.0184971
-0.0178783
-0.0172024
-0.0164569
-0.015627
-0.0146955
-0.0136444
-0.0124577
-0.0111216
-0.00962376
-0.00796605
-0.00621116
-0.00451698
-0.00291604
-0.00160695
-0.000829566
-0.000665721
-0.000849026
-0.00108614
0.000368543
7.35516e-05
-0.00036163
-0.000777104
-0.00118415
-0.00164238
-0.00218682
-0.00283664
-0.00359968
-0.00447035
-0.00543289
-0.00646601
-0.0075468
-0.0086534
-0.00976641
-0.0108693
-0.0119487
-0.0129938
-0.0139966
-0.0149517
-0.0158557
-0.0167071
-0.0175056
-0.0182523
-0.0189487
-0.0195968
-0.0201988
-0.0207568
-0.0212728
-0.0217487
-0.0221859
-0.0225856
-0.0229489
-0.0232765
-0.0235689
-0.0238265
-0.0240495
-0.024238
-0.0243921
-0.0245117
-0.0245968
-0.0246476
-0.0246641
-0.0246466
-0.0245953
-0.0245105
-0.0243929
-0.024243
-0.0240616
-0.0238494
-0.0236075
-0.0233366
-0.0230379
-0.0227123
-0.0223605
-0.0219832
-0.0215806
-0.0211526
-0.0206983
-0.020216
-0.0197027
-0.019154
-0.0185633
-0.0179221
-0.0172188
-0.0164395
-0.0155673
-0.0145835
-0.0134702
-0.0122128
-0.0107959
-0.0092075
-0.00745837
-0.00575394
-0.00411601
-0.00267934
-0.00171443
-0.00138488
-0.00150365
-0.00179046
-0.000202418
-0.000490375
-0.000921371
-0.0013436
-0.00176597
-0.00224389
-0.00281038
-0.00348292
-0.00426794
-0.00515827
-0.00613673
-0.00718094
-0.0082675
-0.00937456
-0.010483
-0.011577
-0.0126435
-0.0136727
-0.0146575
-0.0155931
-0.0164769
-0.0173081
-0.0180872
-0.0188154
-0.0194947
-0.0201273
-0.0207155
-0.0212614
-0.021767
-0.0222341
-0.0226641
-0.023058
-0.0234168
-0.0237411
-0.0240314
-0.0242878
-0.0245105
-0.0246995
-0.0248547
-0.0249762
-0.0250638
-0.0251176
-0.0251375
-0.0251238
-0.0250766
-0.0249963
-0.0248833
-0.0247382
-0.0245617
-0.0243547
-0.0241179
-0.0238524
-0.0235591
-0.0232391
-0.0228933
-0.0225224
-0.0221271
-0.0217074
-0.0212631
-0.0207929
-0.0202947
-0.0197649
-0.0191983
-0.0185872
-0.0179215
-0.0171882
-0.0163712
-0.0154519
-0.0144107
-0.0132309
-0.0118967
-0.01039
-0.00870613
-0.00698225
-0.00534447
-0.00383374
-0.00271366
-0.00222012
-0.00225402
-0.00260007
-0.000825155
-0.0011036
-0.00152664
-0.0019523
-0.0023866
-0.00288019
-0.00346346
-0.00415267
-0.00495274
-0.00585521
-0.00684185
-0.00788961
-0.0089749
-0.0100761
-0.0111745
-0.0122549
-0.0133049
-0.0143155
-0.0152803
-0.0161953
-0.0170585
-0.0178698
-0.01863
-0.0193408
-0.0200043
-0.0206228
-0.0211987
-0.021734
-0.0222307
-0.0226904
-0.0231144
-0.0235037
-0.0238591
-0.0241811
-0.02447
-0.0247259
-0.0249489
-0.0251389
-0.0252958
-0.0254194
-0.0255097
-0.0255665
-0.0255898
-0.0255798
-0.0255365
-0.0254604
-0.0253517
-0.025211
-0.025039
-0.0248365
-0.0246043
-0.0243433
-0.0240547
-0.0237394
-0.0233986
-0.023033
-0.0226435
-0.0222306
-0.0217943
-0.0213341
-0.0208484
-0.0203346
-0.0197884
-0.0192034
-0.0185709
-0.0178789
-0.0171125
-0.0162536
-0.0152822
-0.0141796
-0.0129297
-0.0115129
-0.0099188
-0.00819217
-0.00657821
-0.00505005
-0.00381834
-0.00316629
-0.00310786
-0.00351426
-0.00148683
-0.00175345
-0.00216555
-0.00259164
-0.00303437
-0.00353933
-0.00413454
-0.00483481
-0.00564363
-0.00655155
-0.00753963
-0.00858451
-0.00966267
-0.0107528
-0.0118369
-0.0129001
-0.013931
-0.0149211
-0.0158648
-0.0167587
-0.0176016
-0.0183936
-0.0191358
-0.0198303
-0.0204793
-0.0210851
-0.02165
-0.0221761
-0.0226652
-0.0231187
-0.0235379
-0.0239236
-0.0242765
-0.0245969
-0.0248851
-0.0251411
-0.0253649
-0.0255562
-0.025715
-0.025841
-0.025934
-0.0259939
-0.0260206
-0.0260141
-0.0259747
-0.0259024
-0.0257977
-0.0256611
-0.0254932
-0.0252947
-0.0250665
-0.0248095
-0.0245249
-0.0242137
-0.0238769
-0.0235158
-0.0231311
-0.0227238
-0.0222941
-0.021842
-0.0213666
-0.0208662
-0.0203374
-0.019775
-0.0191714
-0.0185163
-0.0177957
-0.0169928
-0.0160877
-0.0150606
-0.0138958
-0.0125754
-0.0110769
-0.00938643
-0.00778566
-0.00628939
-0.00499918
-0.00421031
-0.00406449
-0.00452261
-0.00217414
-0.00242742
-0.00282607
-0.00324935
-0.00369713
-0.00420965
-0.00481241
-0.00551873
-0.00633079
-0.00723839
-0.00822223
-0.00925894
-0.0103252
-0.0114003
-0.0124667
-0.0135103
-0.0145203
-0.0154888
-0.016411
-0.017284
-0.018107
-0.0188805
-0.0196059
-0.0202853
-0.0209211
-0.0215155
-0.0220708
-0.0225888
-0.0230714
-0.0235198
-0.0239351
-0.024318
-0.0246691
-0.0249886
-0.0252766
-0.0255331
-0.025758
-0.025951
-0.0261118
-0.0262402
-0.026336
-0.026399
-0.026429
-0.026426
-0.0263901
-0.0263215
-0.0262206
-0.0260877
-0.0259235
-0.0257286
-0.025504
-0.0252506
-0.0249695
-0.0246617
-0.0243285
-0.023971
-0.0235904
-0.0231876
-0.0227634
-0.0223181
-0.0218514
-0.0213622
-0.0208482
-0.0203052
-0.019727
-0.0191044
-0.0184252
-0.0176735
-0.0168301
-0.0158746
-0.0147901
-0.0135596
-0.0121591
-0.0105739
-0.00896818
-0.00751431
-0.00621075
-0.00532368
-0.00511405
-0.0055999
-0.00287422
-0.00311295
-0.00349602
-0.00391376
-0.00436351
-0.00488016
-0.0054866
-0.0061946
-0.00700521
-0.00790769
-0.00888266
-0.00990698
-0.0109578
-0.0120149
-0.0130613
-0.0140836
-0.0150716
-0.0160182
-0.016919
-0.0177715
-0.0185754
-0.0193315
-0.0200413
-0.0207069
-0.0213308
-0.021915
-0.0224618
-0.0229729
-0.0234499
-0.023894
-0.0243062
-0.024687
-0.0250368
-0.0253559
-0.0256442
-0.0259015
-0.0261277
-0.0263225
-0.0264855
-0.0266164
-0.026715
-0.026781
-0.0268141
-0.0268144
-0.026782
-0.0267168
-0.0266193
-0.0264899
-0.026329
-0.0261375
-0.0259161
-0.0256659
-0.0253878
-0.0250831
-0.0247529
-0.0243986
-0.0240214
-0.0236225
-0.0232028
-0.0227632
-0.0223037
-0.0218241
-0.0213226
-0.0207963
-0.0202401
-0.0196463
-0.019004
-0.0182987
-0.0175124
-0.0166248
-0.0156172
-0.0144729
-0.0131691
-0.0116967
-0.010113
-0.00870929
-0.00742101
-0.00647327
-0.00622117
-0.00668666
-0.00357487
-0.003798
-0.00416382
-0.00457386
-0.00502293
-0.00554069
-0.00614747
-0.0068535
-0.00765879
-0.00855227
-0.00951477
-0.0105235
-0.0115562
-0.0125932
-0.0136183
-0.0146184
-0.0155842
-0.016509
-0.0173888
-0.0182217
-0.0190076
-0.0197474
-0.0204428
-0.0210959
-0.0217089
-0.0222841
-0.0228234
-0.0233286
-0.0238009
-0.0242415
-0.0246511
-0.0250304
-0.0253794
-0.0256984
-0.0259872
-0.0262456
-0.0264733
-0.02667
-0.0268352
-0.0269686
-0.0270699
-0.0271387
-0.0271749
-0.0271784
-0.0271491
-0.0270872
-0.0269929
-0.0268666
-0.0267089
-0.0265204
-0.0263019
-0.0260545
-0.0257791
-0.0254771
-0.0251496
-0.024798
-0.0244237
-0.024028
-0.0236123
-0.0231774
-0.0227241
-0.0222525
-0.0217618
-0.0212499
-0.0207128
-0.0201443
-0.0195348
-0.0188713
-0.0181372
-0.0173129
-0.0163786
-0.0153201
-0.0141183
-0.0127514
-0.0112097
-0.00984101
-0.00860103
-0.00762724
-0.00732857
-0.00771165
-0.00426497
-0.00447159
-0.00481892
-0.00521952
-0.0056657
-0.00618204
-0.00678637
-0.00748748
-0.00828447
-0.00916592
-0.0101132
-0.0111042
-0.0121171
-0.0131328
-0.0141357
-0.0151135
-0.0160572
-0.0169607
-0.0178205
-0.0186349
-0.0194039
-0.0201286
-0.0208109
-0.0214526
-0.022056
-0.0226233
-0.023156
-0.023656
-0.0241243
-0.024562
-0.0249697
-0.0253478
-0.0256964
-0.0260156
-0.0263051
-0.0265647
-0.026794
-0.0269926
-0.02716
-0.0272958
-0.0273997
-0.0274713
-0.0275103
-0.0275167
-0.0274904
-0.0274314
-0.0273401
-0.0272167
-0.0270618
-0.026876
-0.0266602
-0.0264154
-0.0261425
-0.0258428
-0.0255176
-0.0251684
-0.0247966
-0.0244038
-0.0239913
-0.0235605
-0.0231125
-0.0226478
-0.0221662
-0.0216667
-0.0211462
-0.0205997
-0.0200192
-0.0193933
-0.0187065
-0.0179403
-0.0170747
-0.0160952
-0.0149862
-0.0137233
-0.0122791
-0.0109177
-0.00972369
-0.00875028
-0.00839121
-0.00867741
-0.00493389
-0.00512374
-0.00545184
-0.00584169
-0.00628316
-0.00679602
-0.00739566
-0.0080896
-0.00887621
-0.00974321
-0.0106735
-0.0116452
-0.0126373
-0.0136313
-0.014612