/*--------------------------------*- C++ -*----------------------------------*\
  =========                 |
  \\      /  F ield         | OpenFOAM: The Open Source CFD Toolbox
   \\    /   O peration     | Website:  https://openfoam.org
    \\  /    A nd           | Version:  13
     \\/     M anipulation  |
\*---------------------------------------------------------------------------*/
FoamFile
{
    format      ascii;
    class       volVectorField;
    location    "3.5";
    object      U;
}
// * * * * * * * * * * * * * * * * * * * * * * * * * * * * * * * * * * * * * //

dimensions      [0 1 -1 0 0 0 0];

internalField   nonuniform List<vector> 
6400
(
(-6.83454e-05 4.18088e-05 0)
(0.000441046 -0.000149824 0)
(0.00173879 -0.000330283 0)
(0.00340809 -0.000406229 0)
(0.00507142 -0.000363653 0)
(0.00647447 -0.00025779 0)
(0.00744991 -0.000131456 0)
(0.00799572 -3.41428e-05 0)
(0.00820592 7.91611e-06 0)
(0.00820236 -1.48077e-06 0)
(0.00812885 -4.17851e-05 0)
(0.00804871 -0.000108347 0)
(0.00802663 -0.000179278 0)
(0.00806795 -0.000243454 0)
(0.00814557 -0.000298525 0)
(0.00821526 -0.000343021 0)
(0.00822393 -0.000371985 0)
(0.0081484 -0.000379124 0)
(0.0079299 -0.000370965 0)
(0.00751011 -0.000346881 0)
(0.00685668 -0.000315404 0)
(0.00591582 -0.000281648 0)
(0.00465841 -0.000248182 0)
(0.00306607 -0.000228458 0)
(0.00111385 -0.000247993 0)
(-0.00118413 -0.000317087 0)
(-0.00382966 -0.000375188 0)
(-0.00696503 -0.000324501 0)
(-0.0106788 -8.19593e-05 0)
(-0.0149999 0.000399155 0)
(-0.0202838 0.00106359 0)
(-0.0264164 0.0017414 0)
(-0.0331747 0.00234744 0)
(-0.040429 0.00287357 0)
(-0.0479892 0.00329907 0)
(-0.0556897 0.00361563 0)
(-0.063359 0.00382314 0)
(-0.0708565 0.00392944 0)
(-0.0780522 0.00394527 0)
(-0.084844 0.00388283 0)
(-0.0911401 0.00375346 0)
(-0.0968655 0.00356467 0)
(-0.101955 0.00332232 0)
(-0.106351 0.00302735 0)
(-0.110006 0.0026797 0)
(-0.112891 0.00228333 0)
(-0.114979 0.00185476 0)
(-0.115988 0.00148595 0)
(-0.116302 0.00112371 0)
(-0.115642 0.000420261 0)
(-0.11385 -5.5939e-05 0)
(-0.111124 -0.000693223 0)
(-0.10726 -0.00126961 0)
(-0.102367 -0.00187992 0)
(-0.0963777 -0.00245489 0)
(-0.0893715 -0.0030092 0)
(-0.0814097 -0.00353157 0)
(-0.0725841 -0.0040192 0)
(-0.0629569 -0.00444317 0)
(-0.0527151 -0.00477981 0)
(-0.0420188 -0.00498707 0)
(-0.0311054 -0.00503553 0)
(-0.0202405 -0.00490841 0)
(-0.00969879 -0.00459708 0)
(0.000201696 -0.00411149 0)
(0.0091117 -0.00345565 0)
(0.0167165 -0.00258983 0)
(0.0227608 -0.00162296 0)
(0.0270035 -0.000577983 0)
(0.0294164 0.000468531 0)
(0.0295131 0.00147543 0)
(0.0280994 0.00201073 0)
(0.0247636 0.00240266 0)
(0.0200889 0.00241217 0)
(0.0149403 0.00203076 0)
(0.00997687 0.00139661 0)
(0.00575928 0.000769926 0)
(0.00258094 0.000309227 0)
(0.000622375 -7.2643e-06 0)
(-0.000123781 -0.000219669 0)
(5.11974e-05 -0.000399439 0)
(0.00154236 -0.0017242 0)
(0.00423175 -0.00275734 0)
(0.00723714 -0.00310188 0)
(0.0100216 -0.00282465 0)
(0.0122662 -0.0021968 0)
(0.0138301 -0.0014278 0)
(0.0147302 -0.000722453 0)
(0.0150624 -0.000204961 0)
(0.0149323 0.000100171 0)
(0.0144957 0.000220176 0)
(0.0138379 0.000220385 0)
(0.0130354 0.000168903 0)
(0.0120839 0.00013573 0)
(0.0109366 0.000165311 0)
(0.00952619 0.000273126 0)
(0.00778708 0.000452222 0)
(0.00566894 0.000699917 0)
(0.00308002 0.0010317 0)
(-5.83274e-05 0.00145555 0)
(-0.00382954 0.00197559 0)
(-0.00839448 0.00259401 0)
(-0.0138291 0.00328431 0)
(-0.0201861 0.00403301 0)
(-0.0275143 0.00484555 0)
(-0.0358688 0.00575755 0)
(-0.0452313 0.00678045 0)
(-0.0554158 0.00788532 0)
(-0.0661939 0.00907329 0)
(-0.0772443 0.010274 0)
(-0.0881499 0.0113137 0)
(-0.0988491 0.0121127 0)
(-0.109219 0.0126358 0)
(-0.11913 0.0128827 0)
(-0.128456 0.0128581 0)
(-0.137132 0.0125977 0)
(-0.145082 0.0121301 0)
(-0.152272 0.0114881 0)
(-0.15866 0.0107008 0)
(-0.164231 0.00979459 0)
(-0.168964 0.00879061 0)
(-0.17284 0.00770145 0)
(-0.175852 0.00654029 0)
(-0.177978 0.00531556 0)
(-0.179216 0.00403531 0)
(-0.179555 0.00270281 0)
(-0.178974 0.00132019 0)
(-0.177425 -9.80306e-05 0)
(-0.174938 -0.00157496 0)
(-0.171452 -0.00315362 0)
(-0.166966 -0.00475598 0)
(-0.161491 -0.00640903 0)
(-0.154985 -0.00807471 0)
(-0.147466 -0.00974305 0)
(-0.138919 -0.0113807 0)
(-0.129371 -0.0129536 0)
(-0.118853 -0.0144114 0)
(-0.107435 -0.0157179 0)
(-0.0952363 -0.0168323 0)
(-0.0824087 -0.0176799 0)
(-0.0691474 -0.0182056 0)
(-0.0556459 -0.0183437 0)
(-0.0421477 -0.0180493 0)
(-0.0289236 -0.0172862 0)
(-0.0162587 -0.0160373 0)
(-0.00442455 -0.0142981 0)
(0.00626293 -0.0120848 0)
(0.0155245 -0.00945617 0)
(0.0231552 -0.00650809 0)
(0.0289586 -0.00334463 0)
(0.0327592 -0.000177312 0)
(0.0345275 0.00275468 0)
(0.0341583 0.00535339 0)
(0.0317649 0.00735163 0)
(0.0276142 0.00825973 0)
(0.0218238 0.00811174 0)
(0.0151845 0.00697917 0)
(0.00871921 0.00516572 0)
(0.00349815 0.00290829 0)
(0.000340491 0.000761138 0)
(0.000195658 -0.00145493 0)
(0.00256459 -0.00434051 0)
(0.00591549 -0.00599609 0)
(0.00909451 -0.00619878 0)
(0.0117252 -0.0053816 0)
(0.0136413 -0.00403132 0)
(0.0148534 -0.00257028 0)
(0.015401 -0.00123954 0)
(0.015345 -0.000166966 0)
(0.0147499 0.000594201 0)
(0.0137173 0.00107041 0)
(0.0122975 0.00135921 0)
(0.0105048 0.00158272 0)
(0.0083106 0.00185535 0)
(0.00564389 0.00225687 0)
(0.00243188 0.00281322 0)
(-0.00142638 0.00353027 0)
(-0.00604981 0.00442191 0)
(-0.0115312 0.00550516 0)
(-0.0179596 0.00679981 0)
(-0.0253995 0.00831533 0)
(-0.0338436 0.0100068 0)
(-0.0432891 0.0118179 0)
(-0.0536672 0.0136885 0)
(-0.0648294 0.0155278 0)
(-0.0765646 0.0172439 0)
(-0.0886111 0.0187789 0)
(-0.100696 0.0200792 0)
(-0.112595 0.0211128 0)
(-0.12406 0.0218361 0)
(-0.134912 0.0222269 0)
(-0.145046 0.0222867 0)
(-0.15437 0.0220105 0)
(-0.16286 0.0214458 0)
(-0.170524 0.020612 0)
(-0.177365 0.0195369 0)
(-0.183398 0.0182654 0)
(-0.188641 0.0168282 0)
(-0.193107 0.0152534 0)
(-0.196806 0.0135628 0)
(-0.199749 0.011784 0)
(-0.201942 0.00992357 0)
(-0.203385 0.00799233 0)
(-0.204073 0.00599496 0)
(-0.204 0.00392849 0)
(-0.203154 0.00179325 0)
(-0.201522 -0.000411476 0)
(-0.199065 -0.00268826 0)
(-0.195761 -0.0050479 0)
(-0.191594 -0.00748432 0)
(-0.186537 -0.00996591 0)
(-0.180569 -0.0125068 0)
(-0.173667 -0.0150719 0)
(-0.16582 -0.0176424 0)
(-0.157018 -0.0201756 0)
(-0.147274 -0.0226215 0)
(-0.136615 -0.0249153 0)
(-0.125105 -0.0269887 0)
(-0.112819 -0.0287512 0)
(-0.0998701 -0.0301126 0)
(-0.0864288 -0.0309825 0)
(-0.0726867 -0.0312667 0)
(-0.0588621 -0.0308883 0)
(-0.045223 -0.0297965 0)
(-0.0320479 -0.0279667 0)
(-0.0195957 -0.0254002 0)
(-0.00812039 -0.0221269 0)
(0.00212012 -0.0182023 0)
(0.0109178 -0.0137679 0)
(0.0181158 -0.00898091 0)
(0.0235833 -0.00404593 0)
(0.0272891 0.000801776 0)
(0.0291689 0.00529143 0)
(0.0290927 0.00906246 0)
(0.0270538 0.0119413 0)
(0.023409 0.0134014 0)
(0.0181352 0.0133371 0)
(0.0119348 0.011661 0)
(0.00575204 0.00834481 0)
(0.000801881 0.00354159 0)
(0.000346932 -0.00301287 0)
(0.00329846 -0.00755906 0)
(0.0067218 -0.0093318 0)
(0.00951413 -0.00894776 0)
(0.01154 -0.00736706 0)
(0.0127926 -0.00529101 0)
(0.0133401 -0.00314904 0)
(0.0132445 -0.00119411 0)
(0.0125545 0.000437168 0)
(0.0113111 0.0016993 0)
(0.00950851 0.00265386 0)
(0.00712709 0.00342904 0)
(0.00412765 0.00417785 0)
(0.000453326 0.00503778 0)
(-0.00395444 0.00609706 0)
(-0.00917998 0.00740457 0)
(-0.0153152 0.00897978 0)
(-0.022447 0.0108258 0)
(-0.0306352 0.012939 0)
(-0.0398963 0.0152956 0)
(-0.0501845 0.0178411 0)
(-0.0613776 0.0204771 0)
(-0.0732883 0.0230741 0)
(-0.0856691 0.0255143 0)
(-0.0982422 0.0276923 0)
(-0.110771 0.0295342 0)
(-0.123001 0.0309226 0)
(-0.134721 0.0318043 0)
(-0.145728 0.0322123 0)
(-0.155903 0.0321934 0)
(-0.165226 0.0317862 0)
(-0.173667 0.031023 0)
(-0.181263 0.0299313 0)
(-0.188043 0.0285479 0)
(-0.194048 0.0269219 0)
(-0.199315 0.0250865 0)
(-0.203888 0.023078 0)
(-0.207791 0.020923 0)
(-0.211047 0.0186511 0)
(-0.213677 0.016277 0)
(-0.215686 0.0138157 0)
(-0.217083 0.0112764 0)
(-0.217861 0.00866046 0)
(-0.218015 0.00596765 0)
(-0.217532 0.00319229 0)
(-0.216394 0.000330886 0)
(-0.214576 -0.00262022 0)
(-0.212048 -0.0056616 0)
(-0.208782 -0.00880842 0)
(-0.204752 -0.0120585 0)
(-0.199921 -0.0153952 0)
(-0.194258 -0.0188099 0)
(-0.187735 -0.0222748 0)
(-0.180326 -0.025762 0)
(-0.172007 -0.0292211 0)
(-0.162767 -0.0325826 0)
(-0.15261 -0.035759 0)
(-0.141571 -0.0386586 0)
(-0.129698 -0.041169 0)
(-0.117073 -0.0431519 0)
(-0.103825 -0.0444697 0)
(-0.0901266 -0.0450057 0)
(-0.0761691 -0.0446329 0)
(-0.0622116 -0.0432686 0)
(-0.0485505 -0.0408743 0)
(-0.035504 -0.0375036 0)
(-0.0233198 -0.0331777 0)
(-0.0122417 -0.0279875 0)
(-0.00249521 -0.0221066 0)
(0.00574536 -0.0157497 0)
(0.0123584 -0.00916947 0)
(0.0172865 -0.00262834 0)
(0.0205205 0.00360497 0)
(0.0221015 0.00918398 0)
(0.0219838 0.0137009 0)
(0.0200889 0.0168398 0)
(0.0166121 0.0181724 0)
(0.0118248 0.0173889 0)
(0.00625851 0.0140691 0)
(0.00096213 0.00705912 0)
(0.000521318 -0.00493416 0)
(0.00371462 -0.0109147 0)
(0.00673036 -0.0122893 0)
(0.00882186 -0.011059 0)
(0.0100657 -0.00862856 0)
(0.0105184 -0.00580348 0)
(0.0102818 -0.00299638 0)
(0.00941157 -0.000431332 0)
(0.00792429 0.00178526 0)
(0.00580456 0.00364922 0)
(0.00300328 0.00524404 0)
(-0.000546333 0.00671359 0)
(-0.00491609 0.00822144 0)
(-0.0101772 0.00990926 0)
(-0.0163958 0.0118742 0)
(-0.0236346 0.0141672 0)
(-0.0319426 0.0167988 0)
(-0.0413355 0.0197426 0)
(-0.0517749 0.0229412 0)
(-0.0631478 0.0262893 0)
(-0.0752642 0.0296513 0)
(-0.0878656 0.0328668 0)
(-0.100679 0.0357912 0)
(-0.113438 0.0383125 0)
(-0.125887 0.0402598 0)
(-0.137755 0.0415729 0)
(-0.148834 0.0422766 0)
(-0.159066 0.0423968 0)
(-0.168408 0.0419793 0)
(-0.176895 0.0410996 0)
(-0.184554 0.0398295 0)
(-0.191426 0.0382352 0)
(-0.197582 0.0363613 0)
(-0.203055 0.0342493 0)
(-0.207892 0.0319379 0)
(-0.212134 0.0294558 0)
(-0.215812 0.0268328 0)
(-0.218951 0.0240906 0)
(-0.221572 0.0212458 0)
(-0.223687 0.0183097 0)
(-0.225296 0.0152924 0)
(-0.226404 0.0121965 0)
(-0.227004 0.00901654 0)
(-0.227089 0.00574607 0)
(-0.226642 0.00237437 0)
(-0.225647 -0.00110716 0)
(-0.224074 -0.00470556 0)
(-0.221888 -0.00842558 0)
(-0.219059 -0.0122778 0)
(-0.21556 -0.0162684 0)
(-0.21135 -0.0203903 0)
(-0.206379 -0.0246248 0)
(-0.200609 -0.0289443 0)
(-0.194002 -0.0333192 0)
(-0.186521 -0.0376945 0)
(-0.178132 -0.04199 0)
(-0.168801 -0.0460939 0)
(-0.158537 -0.0498965 0)
(-0.147359 -0.0532581 0)
(-0.135308 -0.0559953 0)
(-0.122472 -0.0579454 0)
(-0.108985 -0.0589313 0)
(-0.0950242 -0.0587923 0)
(-0.0808108 -0.0573955 0)
(-0.066597 -0.0546537 0)
(-0.0527533 -0.0505852 0)
(-0.0396582 -0.0453024 0)
(-0.0275448 -0.0389115 0)
(-0.0166719 -0.0316217 0)
(-0.00725613 -0.0237042 0)
(0.000551177 -0.0154709 0)
(0.00667248 -0.00725193 0)
(0.0111043 0.000631853 0)
(0.0138997 0.00783977 0)
(0.0151126 0.0140063 0)
(0.0147634 0.0187104 0)
(0.0128959 0.0214884 0)
(0.00966307 0.0218999 0)
(0.00535036 0.0191053 0)
(0.000778946 0.0103911 0)
(0.000707711 -0.00707941 0)
(0.00377822 -0.0139766 0)
(0.00604481 -0.0144856 0)
(0.0072266 -0.0123308 0)
(0.00758848 -0.00903547 0)
(0.00717497 -0.00548315 0)
(0.00608604 -0.00201975 0)
(0.00434561 0.00117991 0)
(0.00193187 0.00405203 0)
(-0.00121103 0.00662642 0)
(-0.00516504 0.00900845 0)
(-0.0100189 0.0113499 0)
(-0.015852 0.0138092 0)
(-0.0227284 0.0165164 0)
(-0.0306911 0.0195536 0)
(-0.0397548 0.0229489 0)
(-0.0498935 0.0266724 0)
(-0.0610184 0.0306316 0)
(-0.0729661 0.0347063 0)
(-0.0855093 0.0387126 0)
(-0.0983654 0.0424727 0)
(-0.11125 0.0458359 0)
(-0.123875 0.048567 0)
(-0.135913 0.0505698 0)
(-0.147135 0.0518173 0)
(-0.15746 0.0523077 0)
(-0.166898 0.0521176 0)
(-0.175487 0.0513451 0)
(-0.183271 0.0500856 0)
(-0.190317 0.048424 0)
(-0.196667 0.0464233 0)
(-0.202379 0.0441479 0)
(-0.2075 0.0416393 0)
(-0.21207 0.0389359 0)
(-0.216129 0.0360708 0)
(-0.219707 0.0330661 0)
(-0.222825 0.0299446 0)
(-0.225506 0.0267238 0)
(-0.227764 0.023414 0)
(-0.229605 0.020022 0)
(-0.23103 0.0165526 0)
(-0.232039 0.0130027 0)
(-0.232632 0.00935903 0)
(-0.232799 0.00561145 0)
(-0.232534 0.00174365 0)
(-0.231826 -0.00226312 0)
(-0.230656 -0.00642463 0)
(-0.228997 -0.010748 0)
(-0.226804 -0.0152357 0)
(-0.224031 -0.0198862 0)
(-0.220643 -0.0247073 0)
(-0.216589 -0.0296851 0)
(-0.211797 -0.0347804 0)
(-0.206211 -0.0399615 0)
(-0.199782 -0.0451823 0)
(-0.192518 -0.0504075 0)
(-0.184288 -0.0554687 0)
(-0.175067 -0.0602297 0)
(-0.16486 -0.0645444 0)
(-0.15364 -0.0681856 0)
(-0.141466 -0.0709518 0)
(-0.128414 -0.0726231 0)
(-0.11462 -0.0729844 0)
(-0.100304 -0.0718407 0)
(-0.0857054 -0.0690513 0)
(-0.0710882 -0.0645562 0)
(-0.056925 -0.0584807 0)
(-0.0436086 -0.0510126 0)
(-0.031407 -0.0423899 0)
(-0.020604 -0.0329338 0)
(-0.01141 -0.0230316 0)
(-0.00395149 -0.0130959 0)
(0.00174109 -0.00352887 0)
(0.00572347 0.00528979 0)
(0.00810814 0.0129855 0)
(0.00899982 0.0191645 0)
(0.00846959 0.0233472 0)
(0.00659755 0.0249664 0)
(0.00376434 0.0229214 0)
(0.000425912 0.0129861 0)
(0.000859533 -0.00926857 0)
(0.00345771 -0.0163735 0)
(0.00469399 -0.0157883 0)
(0.00494348 -0.0126252 0)
(0.00433945 -0.00852392 0)
(0.00301595 -0.004272 0)
(0.00101759 -0.000142588 0)
(-0.00167032 0.00374128 0)
(-0.00510417 0.0073557 0)
(-0.00936667 0.0107559 0)
(-0.0145513 0.0140564 0)
(-0.0207448 0.0174033 0)
(-0.028013 0.0209356 0)
(-0.0363907 0.024755 0)
(-0.0458712 0.0289057 0)
(-0.0563984 0.0333637 0)
(-0.0678512 0.0380451 0)
(-0.0800484 0.042781 0)
(-0.0927148 0.0473692 0)
(-0.105565 0.0516541 0)
(-0.118296 0.0553427 0)
(-0.130524 0.0582651 0)
(-0.141969 0.060317 0)
(-0.152514 0.0614674 0)
(-0.162147 0.0617869 0)
(-0.170922 0.0613813 0)
(-0.178892 0.0603586 0)
(-0.186119 0.0588168 0)
(-0.192668 0.0568509 0)
(-0.198601 0.0545373 0)
(-0.203962 0.0519394 0)
(-0.208795 0.0491099 0)
(-0.213138 0.0460864 0)
(-0.217023 0.0429022 0)
(-0.220481 0.0395849 0)
(-0.223534 0.0361537 0)
(-0.2262 0.0326287 0)
(-0.228488 0.0290287 0)
(-0.230406 0.0253654 0)
(-0.231971 0.0216112 0)
(-0.233226 0.0177411 0)
(-0.234135 0.0137998 0)
(-0.234701 0.00976294 0)
(-0.234912 0.00562129 0)
(-0.234757 0.00135888 0)
(-0.234219 -0.00304189 0)
(-0.233308 -0.00760229 0)
(-0.232015 -0.0123455 0)
(-0.23033 -0.0172986 0)
(-0.228235 -0.0224833 0)
(-0.225693 -0.0279182 0)
(-0.222681 -0.0336101 0)
(-0.219111 -0.0394817 0)
(-0.214893 -0.0455121 0)
(-0.209926 -0.0516383 0)
(-0.20406 -0.0577487 0)
(-0.197272 -0.0637609 0)
(-0.189401 -0.0694676 0)
(-0.180533 -0.0748191 0)
(-0.170539 -0.0795172 0)
(-0.159402 -0.0832966 0)
(-0.147176 -0.0859012 0)
(-0.13391 -0.0870234 0)
(-0.11978 -0.086444 0)
(-0.105004 -0.0839495 0)
(-0.0898563 -0.0794056 0)
(-0.0747098 -0.0728182 0)
(-0.0601013 -0.0644482 0)
(-0.0464514 -0.0546085 0)
(-0.0340864 -0.0436564 0)
(-0.0233016 -0.0320564 0)
(-0.0143038 -0.0203206 0)
(-0.00718762 -0.00895911 0)
(-0.00193295 0.00155873 0)
(0.0015985 0.0108205 0)
(0.00358796 0.0184338 0)
(0.00418915 0.0239479 0)
(0.00354453 0.0267226 0)
(0.00197812 0.0253319 0)
(4.37333e-05 0.0144938 0)
(0.000922396 -0.0112717 0)
(0.0026802 -0.0178672 0)
(0.00288786 -0.0160804 0)
(0.00210539 -0.0119015 0)
(0.00052512 -0.00706375 0)
(-0.00173904 -0.00212881 0)
(-0.00469028 0.00269347 0)
(-0.00837838 0.00732363 0)
(-0.0128831 0.0117651 0)
(-0.0182955 0.0160853 0)
(-0.0247024 0.0203948 0)
(-0.0321707 0.024819 0)
(-0.0407339 0.0294626 0)
(-0.0503776 0.0343805 0)
(-0.0610277 0.0395578 0)
(-0.0725618 0.0449191 0)
(-0.0847692 0.0502919 0)
(-0.0973495 0.055468 0)
(-0.110029 0.0601927 0)
(-0.122415 0.064208 0)
(-0.134131 0.0673158 0)
(-0.144991 0.0694152 0)
(-0.154946 0.0705393 0)
(-0.16401 0.0707767 0)
(-0.172237 0.0702487 0)
(-0.179697 0.0690635 0)
(-0.186456 0.0673292 0)
(-0.192585 0.0651414 0)
(-0.198139 0.0625863 0)
(-0.203167 0.0597305 0)
(-0.207705 0.0566311 0)
(-0.211786 0.0533334 0)
(-0.21544 0.0498734 0)
(-0.21869 0.0462816 0)
(-0.221556 0.0425848 0)
(-0.22405 0.0388073 0)
(-0.226217 0.0349333 0)
(-0.228085 0.0309723 0)
(-0.229661 0.0269312 0)
(-0.23095 0.0228347 0)
(-0.231931 0.0186931 0)
(-0.232629 0.0144494 0)
(-0.233042 0.0101055 0)
(-0.233175 0.00564366 0)
(-0.233032 0.00104957 0)
(-0.232614 -0.00369118 0)
(-0.231923 -0.0085972 0)
(-0.230946 -0.0136933 0)
(-0.229671 -0.0189986 0)
(-0.22808 -0.0245274 0)
(-0.226146 -0.0302833 0)
(-0.22383 -0.036285 0)
(-0.221116 -0.042609 0)
(-0.217963 -0.0492144 0)
(-0.214314 -0.056068 0)
(-0.210088 -0.0631176 0)
(-0.2052 -0.0702602 0)
(-0.199423 -0.0772071 0)
(-0.192443 -0.0836979 0)
(-0.184208 -0.0895395 0)
(-0.17463 -0.0944685 0)
(-0.163788 -0.0982642 0)
(-0.151597 -0.100489 0)
(-0.138186 -0.100856 0)
(-0.123698 -0.0990645 0)
(-0.108383 -0.0948983 0)
(-0.0925765 -0.0882505 0)
(-0.076779 -0.0792731 0)
(-0.0616235 -0.0683851 0)
(-0.0475929 -0.0560453 0)
(-0.0350486 -0.0427561 0)
(-0.0243053 -0.0291372 0)
(-0.0155563 -0.0158275 0)
(-0.00885103 -0.0034294 0)
(-0.00408761 0.00754326 0)
(-0.00104693 0.0166417 0)
(0.000540956 0.0234471 0)
(0.000956675 0.0272904 0)
(0.000498333 0.0264723 0)
(-0.000200802 0.0149901 0)
(0.000868291 -0.0128936 0)
(0.00158373 -0.0183257 0)
(0.000693893 -0.0152524 0)
(-0.00112014 -0.0101901 0)
(-0.00366961 -0.00464616 0)
(-0.00688887 0.00097355 0)
(-0.0108144 0.00652301 0)
(-0.0155198 0.0119559 0)
(-0.0210931 0.0172889 0)
(-0.0276181 0.0225866 0)
(-0.0351601 0.027941 0)
(-0.0437528 0.0334427 0)
(-0.0533823 0.039148 0)
(-0.0639714 0.045051 0)
(-0.0754015 0.0510837 0)
(-0.0874557 0.0570788 0)
(-0.0998269 0.0628172 0)
(-0.112186 0.0679955 0)
(-0.124149 0.0723528 0)
(-0.135368 0.0756715 0)
(-0.145728 0.0779001 0)
(-0.155189 0.0790861 0)
(-0.163768 0.0793335 0)
(-0.171529 0.078753 0)
(-0.178548 0.0774755 0)
(-0.184893 0.0756096 0)
(-0.190632 0.073261 0)
(-0.19582 0.0705152 0)
(-0.200502 0.0674474 0)
(-0.204714 0.0641162 0)
(-0.208487 0.0605725 0)
(-0.21185 0.0568568 0)
(-0.214828 0.053002 0)
(-0.217446 0.0490347 0)
(-0.219726 0.0449758 0)
(-0.221697 0.040837 0)
(-0.223363 0.0366524 0)
(-0.224719 0.0324223 0)
(-0.225796 0.0281342 0)
(-0.226607 0.0237845 0)
(-0.227164 0.0193666 0)
(-0.227496 0.0148671 0)
(-0.227615 0.0102794 0)
(-0.227537 0.00558647 0)
(-0.227273 0.000769232 0)
(-0.226838 -0.00419485 0)
(-0.22622 -0.00933024 0)
(-0.225422 -0.0146666 0)
(-0.224441 -0.0202326 0)
(-0.223271 -0.0260558 0)
(-0.221898 -0.0321574 0)
(-0.220301 -0.0385507 0)
(-0.218451 -0.0452397 0)
(-0.216305 -0.0522143 0)
(-0.213801 -0.0594459 0)
(-0.210856 -0.0668728 0)
(-0.207365 -0.0744654 0)
(-0.203295 -0.0822737 0)
(-0.198486 -0.0900399 0)
(-0.192748 -0.097447 0)
(-0.185636 -0.103949 0)
(-0.176835 -0.109134 0)
(-0.166405 -0.11275 0)
(-0.154385 -0.114462 0)
(-0.140858 -0.113862 0)
(-0.125974 -0.110582 0)
(-0.110051 -0.104443 0)
(-0.0934756 -0.0954026 0)
(-0.0769211 -0.0837751 0)
(-0.0611603 -0.070195 0)
(-0.0467413 -0.0553022 0)
(-0.0340654 -0.0397614 0)
(-0.0234551 -0.024356 0)
(-0.0150731 -0.00985406 0)
(-0.00889863 0.0030609 0)
(-0.00472292 0.0138377 0)
(-0.00218825 0.0220094 0)
(-0.000908065 0.0267899 0)
(-0.000429851 0.0265427 0)
(-0.000236275 0.0148479 0)
(0.000715716 -0.0137447 0)
(0.000262825 -0.0176428 0)
(-0.00175025 -0.0133364 0)
(-0.00455941 -0.0074876 0)
(-0.00806749 -0.00126653 0)
(-0.0122405 0.00504277 0)
(-0.0171332 0.0113476 0)
(-0.0228314 0.0176208 0)
(-0.0294184 0.023877 0)
(-0.0369583 0.0301627 0)
(-0.0454849 0.0365381 0)
(-0.0549884 0.0430472 0)
(-0.0653987 0.0496866 0)
(-0.0766021 0.0563988 0)
(-0.0883849 0.0630243 0)
(-0.100458 0.0693237 0)
(-0.112445 0.0749819 0)
(-0.123962 0.0797193 0)
(-0.134758 0.083337 0)
(-0.144688 0.0857849 0)
(-0.153724 0.0871243 0)
(-0.161886 0.0874445 0)
(-0.169242 0.086883 0)
(-0.175865 0.0855692 0)
(-0.181828 0.083628 0)
(-0.187191 0.0811631 0)
(-0.192008 0.0782687 0)
(-0.19632 0.075021 0)
(-0.200162 0.0714866 0)
(-0.203565 0.0677199 0)
(-0.206557 0.0637684 0)
(-0.209163 0.0596706 0)
(-0.21141 0.0554592 0)
(-0.21332 0.0511598 0)
(-0.214917 0.0467924 0)
(-0.216222 0.042371 0)
(-0.217252 0.0379062 0)
(-0.218036 0.0334001 0)
(-0.218594 0.0288554 0)
(-0.218948 0.0242708 0)
(-0.219116 0.0196415 0)
(-0.219119 0.0149541 0)
(-0.21897 0.010196 0)
(-0.218687 0.00534844 0)
(-0.218281 0.000388925 0)
(-0.217762 -0.00471053 0)
(-0.217138 -0.00997473 0)
(-0.21642 -0.0154339 0)
(-0.215613 -0.021119 0)
(-0.214723 -0.0270616 0)
(-0.213747 -0.0332919 0)
(-0.212678 -0.0398391 0)
(-0.211501 -0.0467279 0)
(-0.210192 -0.0539699 0)
(-0.208708 -0.0615615 0)
(-0.206982 -0.0694711 0)
(-0.204924 -0.0776295 0)
(-0.202429 -0.0859256 0)
(-0.199346 -0.0942034 0)
(-0.195487 -0.102395 0)
(-0.190756 -0.110367 0)
(-0.184826 -0.117573 0)
(-0.177113 -0.123144 0)
(-0.167234 -0.126513 0)
(-0.155474 -0.127603 0)
(-0.14179 -0.125805 0)
(-0.126442 -0.120804 0)
(-0.109789 -0.112405 0)
(-0.0923516 -0.100692 0)
(-0.0749743 -0.0861909 0)
(-0.0585952 -0.0698046 0)
(-0.0438479 -0.0523863 0)
(-0.0311632 -0.0347817 0)
(-0.0208538 -0.0179518 0)
(-0.0130124 -0.00279405 0)
(-0.00750676 0.00995567 0)
(-0.00396733 0.0196865 0)
(-0.0019408 0.0254678 0)
(-0.000807601 0.0258646 0)
(-0.0001511 0.0144167 0)
(0.000489259 -0.0138953 0)
(-0.00121611 -0.0158168 0)
(-0.00429465 -0.0103811 0)
(-0.00806544 -0.00380621 0)
(-0.0125124 0.00306158 0)
(-0.0176108 0.0100589 0)
(-0.0234296 0.0171316 0)
(-0.030055 0.024255 0)
(-0.0375551 0.0314264 0)
(-0.0459658 0.0386616 0)
(-0.0552821 0.0459773 0)
(-0.0654448 0.0533618 0)
(-0.0763507 0.0607633 0)
(-0.0877983 0.0680291 0)
(-0.0995084 0.0749163 0)
(-0.11111 0.0811011 0)
(-0.122229 0.0862827 0)
(-0.132648 0.0902911 0)
(-0.142218 0.0930599 0)
(-0.150887 0.0946234 0)
(-0.158693 0.0950975 0)
(-0.165692 0.0946162 0)
(-0.171961 0.0933259 0)
(-0.177567 0.0913535 0)
(-0.18257 0.0888129 0)
(-0.187017 0.0857994 0)
(-0.19095 0.0823972 0)
(-0.194403 0.0786767 0)
(-0.197409 0.0746999 0)
(-0.199998 0.0705193 0)
(-0.202199 0.0661811 0)
(-0.20404 0.061723 0)
(-0.205551 0.057177 0)
(-0.20676 0.0525683 0)
(-0.207695 0.0479161 0)
(-0.208383 0.0432339 0)
(-0.208849 0.0385321 0)
(-0.209121 0.0338149 0)
(-0.20922 0.029083 0)
(-0.209168 0.0243332 0)
(-0.208983 0.0195573 0)
(-0.208682 0.0147411 0)
(-0.208282 0.00986913 0)
(-0.207797 0.00492133 0)
(-0.207243 -0.000125393 0)
(-0.206632 -0.00529792 0)
(-0.205974 -0.0106232 0)
(-0.205287 -0.0161326 0)
(-0.204582 -0.0218584 0)
(-0.203869 -0.0278343 0)
(-0.203155 -0.0340943 0)
(-0.202445 -0.0406726 0)
(-0.201738 -0.0476006 0)
(-0.201025 -0.0549028 0)
(-0.200285 -0.0625944 0)
(-0.199476 -0.0706762 0)
(-0.198537 -0.0791298 0)
(-0.197379 -0.0879003 0)
(-0.195869 -0.0968655 0)
(-0.193839 -0.105833 0)
(-0.191076 -0.114544 0)
(-0.187295 -0.12274 0)
(-0.182311 -0.130304 0)
(-0.17564 -0.136266 0)
(-0.166419 -0.139455 0)
(-0.154853 -0.139732 0)
(-0.140949 -0.136565 0)
(-0.125 -0.129545 0)
(-0.107492 -0.118595 0)
(-0.0891128 -0.103943 0)
(-0.0709003 -0.0863808 0)
(-0.0539761 -0.0671468 0)
(-0.0390544 -0.0473243 0)
(-0.0265768 -0.0279788 0)
(-0.016808 -0.0102707 0)
(-0.00973339 0.00480839 0)
(-0.00503404 0.0164445 0)
(-0.00226625 0.0235349 0)
(-0.000705018 0.0247901 0)
(3.93347e-05 0.0139669 0)
(0.000102551 -0.0131009 0)
(-0.00278499 -0.0128739 0)
(-0.00683936 -0.00641152 0)
(-0.0115211 0.000814207 0)
(-0.0168599 0.00829709 0)
(-0.0228279 0.015971 0)
(-0.0294988 0.0238028 0)
(-0.0369507 0.0317548 0)
(-0.0452281 0.039794 0)
(-0.0543335 0.0478944 0)
(-0.0642191 0.0560209 0)
(-0.0747951 0.0641172 0)
(-0.0858789 0.072035 0)
(-0.0972062 0.0795377 0)
(-0.108429 0.0863023 0)
(-0.119199 0.0920183 0)
(-0.129293 0.0965053 0)
(-0.13856 0.0996843 0)
(-0.14693 0.101566 0)
(-0.15443 0.102267 0)
(-0.161125 0.101938 0)
(-0.167079 0.100725 0)
(-0.172362 0.0987689 0)
(-0.177027 0.096188 0)
(-0.181123 0.0930861 0)
(-0.184691 0.0895518 0)
(-0.187766 0.0856639 0)
(-0.190383 0.0814906 0)
(-0.192577 0.0770926 0)
(-0.194381 0.0725225 0)
(-0.195831 0.0678257 0)
(-0.196961 0.0630404 0)
(-0.197804 0.0581984 0)
(-0.198393 0.0533242 0)
(-0.198757 0.0484353 0)
(-0.198927 0.0435447 0)
(-0.198928 0.0386612 0)
(-0.198784 0.0337868 0)
(-0.198516 0.0289194 0)
(-0.198143 0.0240529 0)
(-0.19768 0.0191769 0)
(-0.197144 0.0142768 0)
(-0.196549 0.00933558 0)
(-0.195909 0.00433259 0)
(-0.195239 -0.000754854 0)
(-0.194551 -0.00595087 0)
(-0.19386 -0.0112864 0)
(-0.193182 -0.0167917 0)
(-0.192531 -0.0225 0)
(-0.191924 -0.0284461 0)
(-0.191373 -0.0346663 0)
(-0.19089 -0.0411979 0)
(-0.190486 -0.0480771 0)
(-0.190162 -0.055336 0)
(-0.189914 -0.0630008 0)
(-0.189723 -0.0710879 0)
(-0.189554 -0.0795999 0)
(-0.189348 -0.0885159 0)
(-0.189014 -0.0977795 0)
(-0.188414 -0.107287 0)
(-0.187358 -0.116847 0)
(-0.18559 -0.126145 0)
(-0.182801 -0.134756 0)
(-0.17861 -0.14238 0)
(-0.17265 -0.148427 0)
(-0.164038 -0.151391 0)
(-0.152565 -0.150777 0)
(-0.138304 -0.14598 0)
(-0.121592 -0.136632 0)
(-0.103113 -0.122808 0)
(-0.0837448 -0.104938 0)
(-0.0647788 -0.0841789 0)
(-0.0475041 -0.0621472 0)
(-0.0326878 -0.0401722 0)
(-0.0207521 -0.019634 0)
(-0.0118606 -0.0018255 0)
(-0.00580157 0.0121669 0)
(-0.00220643 0.0210661 0)
(-0.000308582 0.023594 0)
(0.000279255 0.0137943 0)
(-0.00030766 -0.011371 0)
(-0.00432863 -0.00886293 0)
(-0.00928353 -0.00149634 0)
(-0.0148131 0.00631265 0)
(-0.020977 0.0143747 0)
(-0.0277345 0.0226997 0)
(-0.0351575 0.0312587 0)
(-0.0433086 0.0399876 0)
(-0.0522045 0.0488119 0)
(-0.0618113 0.0576551 0)
(-0.0720534 0.0664403 0)
(-0.0827693 0.0750166 0)
(-0.0937207 0.08316 0)
(-0.10459 0.0905542 0)
(-0.115054 0.0968847 0)
(-0.124878 0.101944 0)
(-0.133894 0.105622 0)
(-0.142029 0.107919 0)
(-0.149286 0.108935 0)
(-0.155726 0.108827 0)
(-0.161414 0.107755 0)
(-0.166414 0.105863 0)
(-0.170781 0.103283 0)
(-0.174561 0.100125 0)
(-0.177796 0.0964858 0)
(-0.180526 0.0924521 0)
(-0.182788 0.0881011 0)
(-0.184623 0.0835013 0)
(-0.186071 0.0787136 0)
(-0.18717 0.0737908 0)
(-0.187963 0.0687785 0)
(-0.188486 0.0637143 0)
(-0.188774 0.0586276 0)
(-0.188862 0.0535402 0)
(-0.188779 0.0484682 0)
(-0.188554 0.043422 0)
(-0.188207 0.0384066 0)
(-0.187761 0.0334211 0)
(-0.187233 0.028461 0)
(-0.186637 0.0235179 0)
(-0.185986 0.0185797 0)
(-0.185294 0.0136313 0)
(-0.184572 0.00865508 0)
(-0.183832 0.00363054 0)
(-0.183086 -0.00146464 0)
(-0.182347 -0.00665468 0)
(-0.18163 -0.0119686 0)
(-0.18095 -0.0174362 0)
(-0.180323 -0.0230902 0)
(-0.179768 -0.0289653 0)
(-0.179302 -0.0350986 0)
(-0.178944 -0.041529 0)
(-0.178711 -0.0482957 0)
(-0.178615 -0.055437 0)
(-0.178663 -0.0629883 0)
(-0.178854 -0.0709784 0)
(-0.179173 -0.0794261 0)
(-0.179584 -0.088332 0)
(-0.180029 -0.0976716 0)
(-0.180413 -0.107384 0)
(-0.180593 -0.117358 0)
(-0.180363 -0.127402 0)
(-0.179442 -0.137206 0)
(-0.177473 -0.146272 0)
(-0.173999 -0.153983 0)
(-0.168518 -0.159849 0)
(-0.16023 -0.162383 0)
(-0.148674 -0.160656 0)
(-0.133842 -0.153902 0)
(-0.116203 -0.141852 0)
(-0.0966497 -0.124764 0)
(-0.0763209 -0.103392 0)
(-0.0568285 -0.0793661 0)
(-0.0395454 -0.0547094 0)
(-0.0252679 -0.0310901 0)
(-0.0143466 -0.0101464 0)
(-0.00673354 0.00670626 0)
(-0.00215994 0.0180096 0)
(0.000112704 0.0223387 0)
(0.000463177 0.0139571 0)
(-0.000727927 -0.00872504 0)
(-0.00578457 -0.00387955 0)
(-0.0115487 0.00428664 0)
(-0.0178462 0.0126134 0)
(-0.0247495 0.0212106 0)
(-0.0321967 0.0301443 0)
(-0.0402523 0.0393756 0)
(-0.0489589 0.0488014 0)
(-0.0583034 0.0582949 0)
(-0.0682257 0.0677416 0)
(-0.0785867 0.076974 0)
(-0.089183 0.0857738 0)
(-0.0997315 0.0938382 0)
(-0.109928 0.100847 0)
(-0.119533 0.106567 0)
(-0.12836 0.110841 0)
(-0.136318 0.11365 0)
(-0.143396 0.115075 0)
(-0.14964 0.115269 0)
(-0.155116 0.114404 0)
(-0.159885 0.112635 0)
(-0.164002 0.110101 0)
(-0.167515 0.106926 0)
(-0.170467 0.103214 0)
(-0.172901 0.0990623 0)
(-0.17486 0.0945569 0)
(-0.176389 0.089776 0)
(-0.177533 0.0847887 0)
(-0.178339 0.0796563 0)
(-0.17885 0.0744317 0)
(-0.179109 0.069158 0)
(-0.179155 0.0638696 0)
(-0.179023 0.0585929 0)
(-0.178744 0.0533468 0)
(-0.178345 0.0481433 0)
(-0.177849 0.042989 0)
(-0.177275 0.037885 0)
(-0.176638 0.0328277 0)
(-0.175952 0.02781 0)
(-0.175227 0.0228216 0)
(-0.174472 0.0178491 0)
(-0.173697 0.012877 0)
(-0.172909 0.00788761 0)
(-0.172119 0.00286099 0)
(-0.171335 -0.00222445 0)
(-0.170569 -0.0073923 0)
(-0.169834 -0.012669 0)
(-0.169146 -0.018083 0)
(-0.16852 -0.0236652 0)
(-0.167978 -0.0294489 0)
(-0.167539 -0.0354706 0)
(-0.167227 -0.0417689 0)
(-0.167063 -0.0483846 0)
(-0.167068 -0.0553595 0)
(-0.167261 -0.0627352 0)
(-0.167651 -0.0705506 0)
(-0.168241 -0.0788382 0)
(-0.169015 -0.0876189 0)
(-0.169938 -0.0968946 0)
(-0.170948 -0.106638 0)
(-0.17194 -0.11678 0)
(-0.172764 -0.127192 0)
(-0.173199 -0.137668 0)
(-0.172934 -0.147875 0)
(-0.17156 -0.157287 0)
(-0.16858 -0.165167 0)
(-0.163366 -0.170653 0)
(-0.155114 -0.172455 0)
(-0.143202 -0.169259 0)
(-0.127565 -0.160124 0)
(-0.108832 -0.144886 0)
(-0.0881594 -0.124071 0)
(-0.0670549 -0.0989206 0)
(-0.0473932 -0.0716688 0)
(-0.0306392 -0.0448162 0)
(-0.0175114 -0.0203421 0)
(-0.00816435 -0.000100354 0)
(-0.00243311 0.0142414 0)
(0.0003543 0.0209571 0)
(0.000621046 0.0144031 0)
(-0.00113721 -0.0052161 0)
(-0.00710009 0.00198449 0)
(-0.0135707 0.0108466 0)
(-0.0205454 0.0196251 0)
(-0.0280857 0.028703 0)
(-0.0361071 0.0381864 0)
(-0.0446624 0.0480131 0)
(-0.0537734 0.0580284 0)
(-0.0634052 0.0680698 0)
(-0.0734406 0.0779334 0)
(-0.0837079 0.0873856 0)
(-0.0939624 0.0961463 0)
(-0.103925 0.10388 0)
(-0.113357 0.110332 0)
(-0.122052 0.1153 0)
(-0.129896 0.118721 0)
(-0.136859 0.120657 0)
(-0.142973 0.121245 0)
(-0.148298 0.120663 0)
(-0.152896 0.119081 0)
(-0.156822 0.11665 0)
(-0.160126 0.113503 0)
(-0.162853 0.109759 0)
(-0.165051 0.105523 0)
(-0.166767 0.100892 0)
(-0.16805 0.0959544 0)
(-0.168952 0.0907893 0)
(-0.169524 0.0854661 0)
(-0.169814 0.0800453 0)
(-0.169869 0.0745765 0)
(-0.16973 0.0690988 0)
(-0.169435 0.0636427 0)
(-0.169015 0.0582302 0)
(-0.168497 0.0528753 0)
(-0.167904 0.0475858 0)
(-0.167252 0.0423638 0)
(-0.166556 0.0372068 0)
(-0.165827 0.0321087 0)
(-0.165072 0.0270596 0)
(-0.164298 0.0220476 0)
(-0.163509 0.0170586 0)
(-0.162711 0.0120769 0)
(-0.161909 0.00708516 0)
(-0.161109 0.00206431 0)
(-0.160318 -0.00300593 0)
(-0.159545 -0.00814743 0)
(-0.158802 -0.0133842 0)
(-0.158102 -0.0187421 0)
(-0.157464 -0.0242495 0)
(-0.156906 -0.0299375 0)
(-0.156451 -0.0358402 0)
(-0.156125 -0.041995 0)
(-0.155954 -0.0484423 0)
(-0.155966 -0.0552255 0)
(-0.156185 -0.0623899 0)