/*--------------------------------*- C++ -*----------------------------------*\
  =========                 |
  \\      /  F ield         | OpenFOAM: The Open Source CFD Toolbox
   \\    /   O peration     | Website:  https://openfoam.org
    \\  /    A nd           | Version:  13
     \\/     M anipulation  |
\*---------------------------------------------------------------------------*/
FoamFile
{
    format      ascii;
    class       volScalarField;
    location    "7.1";
    object      epsilon;
}
// * * * * * * * * * * * * * * * * * * * * * * * * * * * * * * * * * * * * * //

dimensions      [0 2 -3 0 0 0 0];

internalField   nonuniform List<scalar> 
6400
(
2.75994e-05
0.000141801
0.000344391
0.000555114
0.000714275
0.000803775
0.00083632
0.000839351
0.000844001
0.000874407
0.000948873
0.00109552
0.00132779
0.00165075
0.00204782
0.00249711
0.00297594
0.00347451
0.0039706
0.00445109
0.00493295
0.00545688
0.00607786
0.00683103
0.00768839
0.00856006
0.00942455
0.0102814
0.0111566
0.0120744
0.0130242
0.0139722
0.0149032
0.0158182
0.0167424
0.0176806
0.0186534
0.0196668
0.020734
0.0218583
0.0230482
0.0243125
0.0256589
0.0271048
0.0286588
0.0303726
0.0323397
0.0347649
0.0372737
0.0398101
0.04231
0.0447406
0.0470312
0.0491159
0.0509198
0.052352
0.0531138
0.0534188
0.0533989
0.0524323
0.0506838
0.0481454
0.0448494
0.0409097
0.0364307
0.0316208
0.02671
0.0219093
0.0173946
0.0133578
0.0100842
0.00733651
0.00511667
0.00341754
0.00219471
0.00136204
0.000819232
0.00046983
0.000221888
4.7231e-05
0.000133549
0.000133304
0.000218015
0.000316125
0.000389895
0.000434658
0.000456743
0.000466757
0.000477954
0.000503594
0.000557804
0.000660477
0.000827795
0.0010723
0.00139778
0.00180542
0.00229721
0.00287964
0.00355862
0.00434346
0.00524198
0.00629109
0.00754152
0.00901935
0.0107157
0.0126519
0.0146614
0.0166023
0.0183697
0.0198712
0.0210093
0.0218901
0.0224876
0.0228983
0.0231586
0.0233269
0.0234439
0.0235435
0.023649
0.0237801
0.0239594
0.0241924
0.0244865
0.0248069
0.025183
0.0256436
0.0261861
0.0268044
0.0275024
0.0282346
0.0290087
0.0297764
0.0305227
0.0311981
0.0317623
0.0320875
0.0321991
0.0321045
0.0317249
0.0309426
0.0297889
0.0282386
0.0262854
0.0240068
0.0214844
0.0188187
0.0161256
0.013525
0.0111055
0.00895585
0.00714049
0.00558421
0.00425078
0.00311835
0.0021839
0.00143115
0.000872951
0.000490058
0.000254516
0.000249828
0.000292173
0.00024256
0.000324305
0.000407765
0.000458071
0.000483434
0.000497169
0.000512848
0.000545097
0.00061154
0.000735749
0.000945596
0.00126814
0.00172311
0.00232288
0.00307981
0.0040063
0.00511686
0.00642151
0.00792677
0.00963826
0.0115234
0.0134974
0.0154109
0.0170836
0.0182826
0.0190032
0.0194002
0.0195973
0.019737
0.0198179
0.0197497
0.0194402
0.019155
0.0188512
0.0185877
0.018373
0.0182431
0.0181895
0.0181837
0.0182937
0.0184801
0.018762
0.0191674
0.0196816
0.0202855
0.0209711
0.0217335
0.0225699
0.0234636
0.0244058
0.0253728
0.026343
0.0272808
0.0281474
0.0288933
0.0294542
0.0297149
0.0297572
0.0294339
0.0286723
0.0274613
0.0257699
0.0237119
0.0213644
0.0188242
0.0162204
0.0136682
0.0112745
0.00912144
0.00726167
0.00569661
0.00440283
0.0033407
0.00247266
0.00177539
0.00120624
0.00075474
0.000467701
0.000667944
0.000507344
0.000418753
0.000512025
0.000592249
0.00063356
0.000654603
0.000675422
0.000716418
0.000800104
0.000957307
0.00122711
0.00165144
0.00226536
0.00309052
0.00413716
0.00540963
0.00690786
0.00861187
0.0104683
0.0123845
0.0142277
0.0158537
0.0171116
0.0177943
0.0180817
0.0181519
0.0181047
0.0177614
0.0172213
0.0166335
0.015978
0.015466
0.0150773
0.0147439
0.0144933
0.0143379
0.014269
0.0142547
0.0143391
0.0145046
0.0147573
0.0150892
0.0155067
0.0160081
0.0165908
0.0172543
0.0179999
0.0188262
0.0197322
0.0207125
0.0217599
0.0228614
0.0239984
0.0251432
0.0262596
0.0272998
0.0282044
0.0288917
0.0292213
0.0292907
0.0289168
0.0281098
0.0268775
0.025027
0.0227664
0.0201924
0.0174514
0.0146944
0.0120676
0.00968857
0.00763419
0.00593062
0.00456035
0.00347726
0.00262646
0.0019581
0.00141945
0.000980723
0.000700986
0.00111133
0.000813682
0.000663699
0.000756356
0.000834179
0.000877835
0.000911712
0.00096289
0.00106204
0.00124701
0.00156594
0.00207329
0.00281753
0.00382744
0.00510732
0.0066407
0.00839089
0.010292
0.0122349
0.0140607
0.0156026
0.0166428
0.01711
0.0172454
0.0171981
0.0167888
0.0160764
0.0152147
0.0144131
0.0137587
0.0131568
0.0126548
0.0122671
0.0119642
0.0117374
0.0115961
0.0115304
0.0115115
0.0115509
0.0116679
0.011838
0.012071
0.0123626
0.0127168
0.0131349
0.0136205
0.0141777
0.0148113
0.0155262
0.0163271
0.0172176
0.0181994
0.01927
0.0204225
0.0216433
0.0229113
0.0241922
0.0254324
0.0265706
0.0275289
0.028125
0.0283478
0.0281757
0.0274288
0.0262482
0.0243129
0.0218652
0.0190722
0.0161163
0.0131912
0.0104799
0.00811986
0.00617984
0.00465738
0.00349884
0.00262528
0.00196715
0.00146388
0.00107535
0.000854877
0.00141687
0.00125097
0.000985713
0.00106197
0.00114176
0.00120228
0.00127036
0.00138243
0.00158378
0.00193036
0.00248644
0.00331206
0.00444395
0.0058813
0.00758349
0.00947313
0.0114347
0.013313
0.0149254
0.0160177
0.0164939
0.0166082
0.0164783
0.0159416
0.0149831
0.0139909
0.0131038
0.0123011
0.0116231
0.011056
0.0105747
0.0101886
0.00988103
0.00963875
0.00945541
0.00932521
0.00924601
0.00921015
0.00920184
0.00924019
0.00931634
0.00943076
0.0095853
0.00978097
0.0100223
0.0103135
0.0106618
0.0110749
0.0115633
0.0121379
0.0128116
0.0135974
0.0145066
0.0155484
0.0167261
0.0180337
0.0194592
0.0209709
0.0225199
0.0240444
0.0254373
0.0265815
0.0271679
0.0273315
0.0268585
0.0258711
0.02386
0.0212368
0.0181871
0.0149528
0.0118043
0.00898387
0.00664819
0.00484428
0.00352573
0.00258393
0.00191641
0.00143096
0.00107351
0.000916128
0.0015281
0.00185805
0.00139103
0.00144064
0.00153268
0.00162825
0.00175624
0.00196574
0.00231888
0.00288705
0.00373917
0.0049204
0.00643028
0.00821198
0.0101544
0.0120997
0.0138545
0.0152107
0.015877
0.0160743
0.0160117
0.0154797
0.0144565
0.0133408
0.0123346
0.0114199
0.0106415
0.00997037
0.00940873
0.00893347
0.00853391
0.00820166
0.00792307
0.0076907
0.0074983
0.00734103
0.00721511
0.00711678
0.00704444
0.00700521
0.00698899
0.00698728
0.00702106
0.00707979
0.00717213
0.0072978
0.00746418
0.00767662
0.00794439
0.00827869
0.00869472
0.00921128
0.00985152
0.0106405
0.0116032
0.012754
0.0141225
0.0157113
0.0174905
0.0194075
0.0214097
0.0233706
0.0251374
0.0263813
0.026902
0.0269171
0.0260451
0.0239764
0.0211004
0.0176729
0.014043
0.0105946
0.00763887
0.00533779
0.00369207
0.00258797
0.00184605
0.00135598
0.00103618
0.000908478
0.00148371
0.00267101
0.00188439
0.00190582
0.00202408
0.0021763
0.00239261
0.0027369
0.00328562
0.00411469
0.00527781
0.00678044
0.00856159
0.0104918
0.0123862
0.0140296
0.0151088
0.0155485
0.0156223
0.0152662
0.0143629
0.0131571
0.0120187
0.0109771
0.0100809
0.00930412
0.00864672
0.00808212
0.00760171
0.00718787
0.00683261
0.00652623
0.00626104
0.00603215
0.00583529
0.00566748
0.00552584
0.00540767
0.00531201
0.0052382
0.00518387
0.00515562
0.00514529
0.00514875
0.00518548
0.00524307
0.00533026
0.00544853
0.0056041
0.00580199
0.0060497
0.00635778
0.00674057
0.00721872
0.00782402
0.0086078
0.00960779
0.0108901
0.0124954
0.0144069
0.0166342
0.019078
0.0216126
0.0240531
0.0261046
0.0271676
0.0274983
0.0268577
0.0246631
0.0214072
0.0174511
0.0133116
0.00951283
0.00642891
0.0041966
0.0027408
0.00185003
0.00129441
0.000973023
0.000873304
0.00137917
0.00371539
0.00246927
0.00246687
0.00263262
0.00286138
0.00319209
0.00370037
0.00446797
0.005558
0.00698649
0.00869884
0.0105621
0.0123779
0.0139128
0.0147971
0.0150991
0.0151069
0.0145049
0.0133655
0.0121074
0.0109289
0.00989201
0.00899192
0.00822678
0.00756953
0.00700767
0.00652196
0.00610343
0.00574053
0.00542725
0.00515663
0.00492416
0.00472596
0.00455829
0.00441814
0.00430305
0.00421098
0.0041401
0.00408869
0.00405865
0.00404576
0.00404329
0.00406172
0.00409871
0.00415346
0.00422821
0.00432399
0.00444353
0.00458967
0.00476671
0.00498009
0.00523736
0.0055487
0.00592788
0.00639608
0.00698332
0.00773851
0.00874437
0.0101472
0.0120069
0.0143617
0.0171536
0.0202277
0.0233655
0.0261924
0.0279217
0.0285734
0.0281728
0.0257658
0.021967
0.0173378
0.0126151
0.00847025
0.00531544
0.00321812
0.0019822
0.00129857
0.000924904
0.000817402
0.00126177
0.00500147
0.00315312
0.00313661
0.00336397
0.00368733
0.00415028
0.0048337
0.0058111
0.00711387
0.00870281
0.0104551
0.0121736
0.0136192
0.0144125
0.0146682
0.0145492
0.0137839
0.0125332
0.0112614
0.0100584
0.00901291
0.00811696
0.0073518
0.00669993
0.00613972
0.00565919
0.00524578
0.00489235
0.00459106
0.00433673
0.00412369
0.00394757
0.00380394
0.00368896
0.00359907
0.00353111
0.00348236
0.00345214
0.00343817
0.0034343
0.00344303
0.00346628
0.00350204
0.00355066
0.00361227
0.00368774
0.00377823
0.00388524
0.00401072
0.00415719
0.00432789
0.00452713
0.00476072
0.00503682
0.00536429
0.00575772
0.00624034
0.00685004
0.00764919
0.00874153
0.0103317
0.0126183
0.0156037
0.0191596
0.0229821
0.0266621
0.0290804
0.0300336
0.0298051
0.0270658
0.0225364
0.017123
0.011804
0.00738778
0.00427207
0.00239024
0.0013986
0.000925597
0.000769878
0.00116687
0.00654927
0.00395085
0.00391995
0.00421692
0.00464461
0.00524278
0.00608755
0.00722918
0.00865268
0.010257
0.0118595
0.0132259
0.0139799
0.0142227
0.0140326
0.0131745
0.0118999
0.0105841
0.00937468
0.00831291
0.0074146
0.00665064
0.0060014
0.0054489
0.00497839
0.00458047
0.00424611
0.00396856
0.00374067
0.0035564
0.00340952
0.00329465
0.00320664
0.00314113
0.00309437
0.00306379
0.00304879
0.00304347
0.00304503
0.00306016
0.00308348
0.00311722
0.00316044
0.00321421
0.00327904
0.00335613
0.00344671
0.00355217
0.00367409
0.00381413
0.00397416
0.00415628
0.00436291
0.00459725
0.00486389
0.00517006
0.0055275
0.00595589
0.00648282
0.00715688
0.00807
0.00938327
0.0114183
0.0144556
0.0183722
0.0228855
0.0274645
0.0305665
0.0317832
0.0315824
0.0282927
0.0228576
0.0165972
0.0107477
0.00622175
0.00329403
0.00171095
0.000989448
0.000759422
0.0011383
0.008437
0.00488912
0.00481342
0.00517874
0.00570886
0.00642702
0.00739304
0.00862212
0.0100468
0.011511
0.0127951
0.0135337
0.0137768
0.0135669
0.0126728
0.0114223
0.0100796
0.00884459
0.00777126
0.00686037
0.00609572
0.0054493
0.00490524
0.00444894
0.0040697
0.00375865
0.00350695
0.00330654
0.00314933
0.00302806
0.00293593
0.00286726
0.00281717
0.00278186
0.00275844
0.00274676
0.00274227
0.00274192
0.00275152
0.00276836
0.00279262
0.00282527
0.00286676
0.00291828
0.00298086
0.00305588
0.0031448
0.00324921
0.00337079
0.00351128
0.00367246
0.00385603
0.00406352
0.00429627
0.00455552
0.00484279
0.00516095
0.00551623
0.00592218
0.00640539
0.00701266
0.00781563
0.00896721
0.0107424
0.0136942
0.0179084
0.0230918
0.0285979
0.0323235
0.0337308
0.0333387
0.0291591
0.022666
0.0155529
0.00936671
0.004974
0.00240971
0.00120033
0.000796463
0.00118388
0.010537
0.00592905
0.00579658
0.00622485
0.00684356
0.00764867
0.00867431
0.0098951
0.0111955
0.0123822
0.0131094
0.0133553
0.0131598
0.0122986
0.011077
0.00972993
0.00846155
0.00736449
0.00643877
0.00566546
0.00502082
0.00448361
0.00404078
0.0036797
0.00338999
0.00316132
0.00298358
0.00284739
0.00274408
0.00266631
0.00260791
0.00256409
0.00253122
0.00250679
0.00248917
0.00247774
0.0024722
0.00247051
0.00247479
0.00248624
0.0025047
0.0025312
0.00256673
0.00261246
0.00266964
0.00273972
0.00282428
0.00292506
0.00304398
0.00318307
0.00334449
0.00353036
0.00374263
0.00398289
0.00425211
0.00455042
0.0048772
0.00523163
0.00561449
0.00603224
0.0065044
0.00707585
0.00782227
0.00888014
0.0105339
0.0133399
0.0178056
0.0236535
0.0301032
0.0342897
0.0357465
0.0348306
0.0293859
0.0216541
0.0138467
0.00766507
0.00370317
0.00168346
0.00093561
0.00136744
0.0127884
0.00704687
0.00684425
0.00732268
0.0080048
0.00884966
0.00986063
0.0109739
0.0120386
0.0127429
0.0129871
0.0128381
0.0120478
0.0108625
0.00951792
0.00821836
0.00708327
0.00613343
0.00534562
0.004696
0.00416262
0.00372894
0.0033821
0.00310901
0.00289772
0.00273635
0.00261408
0.00252147
0.00245065
0.00239549
0.00235138
0.00231517
0.00228479
0.0022591
0.0022376
0.0022203
0.00220734
0.00220072
0.00219853
0.00220163
0.00221353
0.0022333
0.00226229
0.00230157
0.00235233
0.00241599
0.00249411
0.00258849
0.0027012
0.00283455
0.0029911
0.0031736
0.00338483
0.0036274
0.00390339
0.00421394
0.00455873
0.00493562
0.00534086
0.00577047
0.0062241
0.00671332
0.00727682
0.00800011
0.00901282
0.0106095
0.0133817
0.0181128
0.0246678
0.032055
0.0363629
0.0376407
0.0356747
0.0285622
0.0195784
0.0114769
0.00575261
0.00257963
0.00126713
0.00179971
0.0151179
0.00821399
0.007926
0.00843454
0.00914574
0.00997466
0.0108932
0.0118065
0.0124605
0.0126953
0.012607
0.0119036
0.0107759
0.00943828
0.00810745
0.00692426
0.00593519
0.00512376
0.00446116
0.00392451
0.00349448
0.00315556
0.00289325
0.00269311
0.00254191
0.00242755
0.00233991
0.00227094
0.00221458
0.00216663
0.00212434
0.00208618
0.00205143
0.00201998
0.00199209
0.00196824
0.00194902
0.00193545
0.00192888
0.00192695
0.00193222
0.00194703
0.00197035
0.00200382
0.00204825
0.00210499
0.00217549
0.00226152
0.00236515
0.00248883
0.00263541
0.0028081
0.00301047
0.00324621
0.00351893
0.00383162
0.00418601
0.00458175
0.00501563
0.00548125
0.00597013
0.00647555
0.00700165
0.00758129
0.00830442
0.00931216
0.0109179
0.0137905
0.0189159
0.0263038
0.0344546
0.0384038
0.0392555
0.035433
0.0262815
0.0164223
0.00864719
0.00395407
0.00185364
0.0024777
0.017453
0.00939944
0.00900857
0.00952114
0.0102213
0.0109756
0.0117259
0.0123005
0.012521
0.0124591
0.0118633
0.0108073
0.00949001
0.00812711
0.00688652
0.00584194
0.00499214
0.00430652
0.0037574
0.00332332
0.00298554
0.00272738
0.00253263
0.00238623
0.00227514
0.00218857
0.00211832
0.00205848
0.00200518
0.00195612
0.00191017
0.001867
0.00182676
0.00178989
0.00175696
0.00172858
0.00170533
0.00168777
0.00167791
0.00167409
0.00167451
0.00168588
0.00170491
0.00173347
0.00177214
0.00182211
0.00188469
0.00196151
0.00205455
0.00216623
0.00229945
0.00245765
0.00264484
0.00286556
0.00312466
0.00342702
0.00377693
0.00417712
0.00462758
0.00512422
0.00565799
0.00621556
0.00678343
0.00735828
0.0079692
0.00871505
0.00975027
0.0114329
0.0145604
0.0203161
0.0288147
0.0370744
0.0403763
0.040441
0.033416
0.0224563
0.0124646
0.00585502
0.00269382
0.00334306
0.0197547
0.0105727
0.0100588
0.0105448
0.0111919
0.0118161
0.0123044
0.0125043
0.0124189
0.0119336
0.0109516
0.0096693
0.00828048
0.00697359
0.00585648
0.00494954
0.00422657
0.00365422
0.00320664
0.00286237
0.00260182
0.00240692
0.00226094
0.00214963
0.00206161
0.00198836
0.00192412
0.00186523
0.00180976
0.00175689
0.00170656
0.00165913
0.00161513
0.00157515
0.00153976
0.00150947
0.0014847
0.00146583
0.00145419
0.00144909
0.0014482
0.00145651
0.00147254
0.00149704
0.00153068
0.00157443
0.00162945
0.00169717
0.00177943
0.00187847
0.00199706
0.0021386
0.00230719
0.00250773
0.00274584
0.00302777
0.00335996
0.00374832
0.00419694
0.00470645
0.00527195
0.00588146
0.00651611
0.00715465
0.00778586
0.00843749
0.00922446
0.0103175
0.0121575
0.015711
0.0223061
0.032172
0.0400808
0.0425008
0.0400324
0.0294113
0.0173213
0.00836102
0.00381346
0.00434172
0.0219672
0.0117031
0.0110445
0.0114724
0.012028
0.0124493
0.0126176
0.0125154
0.0121109
0.0112109
0.00997292
0.00857016
0.00719395
0.00598683
0.00500088
0.00422142
0.00361198
0.00314013
0.00278056
0.00251086
0.00231047
0.00216101
0.00204682
0.00195564
0.00187858
0.00180974
0.00174565
0.00168454
0.00162586
0.00156972
0.0015166
0.00146709
0.00142178
0.00138117
0.00134565
0.00131554
0.00129106
0.00127241
0.00126044
0.00125498
0.00125369
0.00125993
0.00127369
0.00129486
0.00132418
0.00136243
0.00141061
0.00146998
0.00154216
0.00162915
0.00173349
0.00185834
0.00200761
0.00218614
0.00239977
0.00265541
0.00296088
0.00332449
0.00375408
0.00425544
0.00482995
0.00547167
0.0061649
0.00688401
0.00759874
0.00829049
0.00899126
0.00983182
0.0110237
0.0131532
0.0174424
0.0251958
0.0364616
0.0428247
0.0439365
0.0367856
0.0233257
0.0116279
0.00526175
0.00542689
0.0240079
0.012761
0.0119391
0.0122807
0.0126959
0.0128723
0.0127957
0.0123861
0.0115829
0.0104017
0.00899768
0.00755735
0.00624678
0.00515734
0.0042974
0.00363248
0.00312323
0.00273826
0.00245174
0.00224037
0.00208359
0.00196414
0.00186854
0.00178721
0.00171395
0.00164521
0.00157933
0.00151587
0.00145508
0.0013975
0.00134375
0.00129438
0.00124983
0.0012104
0.0011763
0.00114763
0.00112447
0.00110685
0.00109534
0.00108999
0.00108858
0.00109346
0.00110536
0.00112376
0.00114939
0.00118287
0.00122507
0.00127708
0.00134031
0.00141651
0.00150792
0.00161736
0.0017484
0.00190555
0.00209443
0.00232198
0.00259655
0.00292781
0.00332625
0.00380205
0.00436297
0.00501108
0.00573874
0.0065249
0.00733474
0.00812725
0.00887901
0.00963555
0.0105399
0.0119025
0.0145379
0.0200329
0.0296402
0.0409009
0.0452546
0.0434502
0.0303905
0.0158312
0.00708426
0.00656205
0.0258027
0.0137192
0.0127209
0.0129495
0.0131683
0.0131539
0.0127781
0.0120747
0.0109532
0.00956529
0.00807206
0.00665326
0.00543708
0.00446774
0.00372319
0.00315935
0.00273678
0.00242437
0.00219565
0.00202735
0.00190009
0.00179882
0.00171286
0.00163538
0.00156255
0.00149265
0.00142527
0.00136071
0.00129957
0.00124246
0.00118991
0.0011423
0.00109984
0.00106265
0.00103075
0.0010041
0.000982654
0.000966354
0.000955559
0.000950473
0.000949053
0.000952932
0.00096325
0.000979308
0.00100176
0.00103114
0.0010682
0.00111388
0.00116938
0.00123624
0.00131638
0.00141228
0.0015271
0.00166487
0.00183075
0.00203127
0.00227463
0.00257089
0.0029319
0.00337075
0.00390036
0.00453067
0.00526418
0.00609026
0.0069799
0.00788528
0.00875185
0.00955487
0.0103698
0.0113625
0.0130026
0.0164408
0.0236045
0.0357427
0.0451544
0.047087
0.0380617
0.0211305
0.00932675
0.00775005
0.0273111
0.0145573
0.0133702
0.0134527
0.0135185
0.0132802
0.0126542
0.0116244
0.0102706
0.00874447
0.00722255
0.00586351
0.00475364
0.0038985
0.00325687
0.00278075
0.00243125
0.00217723
0.0019922
0.00185402
0.00174548
0.00165433
0.00157271
0.00149623
0.00142289
0.00135223
0.00128455
0.00122045
0.00116056
0.00110538
0.00105523
0.00101029
0.000970577
0.000936046
0.000906585
0.000882063
0.000862356
0.00084736
0.000837274
0.000832454
0.000831031
0.000834084
0.000843005
0.000857044
0.000876763
0.00090263
0.000935294
0.000975573
0.00102451
0.00108341
0.00115396
0.00123828
0.00133913
0.00146004
0.00160559
0.00178169
0.00199599
0.00225819
0.0025804
0.0029771
0.00346453
0.00405879
0.00477207
0.00560655
0.00654636
0.00755044
0.00855294
0.00948401
0.0103271
0.0111918
0.0123273
0.0144682
0.0193199
0.0289274
0.0425218
0.0482893
0.0452715
0.0276114
0.0120589
0.00897232
0.0285112
0.0152712
0.0138798
0.0138121
0.0137235
0.0132563
0.012385
0.0111045
0.00957414
0.00796755
0.00646117
0.00518372
0.00418145
0.00343071
0.00287916
0.00247777
0.00218819
0.00197952
0.00182617
0.00170805
0.00161071
0.00152475
0.00144484
0.00136848
0.00129499
0.00122461
0.00115793
0.00109559
0.00103807
0.000985687
0.000938549
0.000896638
0.00085984
0.000827984
0.00080088
0.000778345
0.000760219
0.000746378
0.000736884
0.000732266
0.00073082
0.000733133
0.000740808
0.000753086
0.00077044
0.00079329
0.000822202
0.00085789
0.000901257
0.000953441
0.00101589
0.00109044
0.00117947
0.00128604
0.00141414
0.00156901
0.00175751
0.0019886
0.00227389
0.00262802
0.00306874
0.00361607
0.00428976
0.00510403
0.00605905
0.00712974
0.00825629
0.0093476
0.0103178
0.011171
0.0121042
0.0135154
0.0165993
0.0237245
0.036948
0.0481633
0.0500059
0.0352673
0.0154656
0.0103293
0.0293985
0.0158615
0.0142504
0.0140368
0.0137866
0.0131444
0.012022
0.0105465
0.00889166
0.00725107
0.00579021
0.00460436
0.00370477
0.00304712
0.00257321
0.00223422
0.00199248
0.00181792
0.00168673
0.00158145
0.00149052
0.00140712
0.00132796
0.00125193
0.00117911
0.00111006
0.00104543
0.000985715
0.000931202
0.000881991
0.000838026
0.000799145
0.000765132
0.000735751
0.000710769
0.000689982
0.000673217
0.00066035
0.000651316
0.000646822
0.000645324
0.000646959
0.000653518
0.00066425
0.000679552
0.000699802
0.0007255
0.000757275
0.000795918
0.000842424
0.000898047
0.000964384
0.00104348
0.00113798
0.00125134
0.00138813
0.00155439
0.00175817
0.00201014
0.00232428
0.00271847
0.00321455
0.00383715
0.00461001
0.00554851
0.00664761
0.00786685
0.00911928
0.0102831
0.0112636
0.0120793
0.013147
0.0151128
0.0199622
0.0305233
0.0459769
0.0520133
0.0436962
0.0198687
0.0120868
0.0299874
0.0163265
0.0144943
0.0141356
0.0137429
0.0129127
0.0116026
0.00997682
0.00824233
0.00660287
0.00520602
0.00411379
0.00330874
0.00273263
0.00232465
0.00203677
0.00183232
0.00168275
0.00156664
0.00146938
0.00138207
0.00130009
0.00122166
0.00114654
0.00107523
0.00100835
0.000946438
0.000889789
0.000838502
0.000792501
0.000751597
0.000715537
0.000684046
0.000656855
0.000633715
0.000614417
0.000598791
0.000586715
0.000578099
0.000573626
0.000572052
0.000573069
0.000578628
0.000588001
0.000601514
0.000619513
0.000642443
0.000670864
0.000705477
0.000747158
0.000797009
0.000856421
0.00092717
0.00101155
0.00111254
0.00123411
0.00138152
0.00156186
0.00178471
0.00206294
0.00241363
0.00285886
0.00342567
0.00414424
0.00504232
0.00613422
0.00740332
0.00878189
0.0101421
0.0113264
0.0122758
0.0130728
0.0144433
0.0175773
0.0254989
0.041158
0.0524226
0.0514821
0.0255607
0.0144526
0.0302783
0.0166717
0.0146233
0.0141209
0.013612
0.0126084
0.0111498
0.00941511
0.00763795
0.00602482
0.00470173
0.00370009
0.00298001
0.00247436
0.00212158
0.00187483
0.00169889
0.00156727
0.00146126
0.00136898
0.00128387
0.00120301
0.00112567
0.00105211
0.000982957
0.000918767
0.000859884
0.000806427
0.000758319
0.000715357
0.000677264
0.000643731
0.000614457
0.00058916
0.000567595
0.000549556
0.000534881
0.000523454
0.000515193
0.000510687
0.000509023
0.000509495
0.000514157
0.000522334
0.000534285
0.000550324
0.000570854
0.000596378
0.000627524
0.000665076
0.000710008
0.000763549
0.000827255
0.000903121
0.000993744
0.00110255
0.00123411
0.00139462
0.00159254
0.00183942
0.00215106
0.00254865
0.00305973
0.00371796
0.00455995
0.00561671
0.00689703
0.00836297
0.00990443
0.0113392
0.0124929
0.01329
0.0142365
0.0162925
0.0218944
0.0348101
0.051884
0.0563222
0.0330977
0.0174029
0.0302588
0.0168949
0.0146475
0.0140389
0.0133832
0.0122537
0.0106825
0.00887529
0.00708483
0.0055149
0.00426907
0.00335204
0.00270702
0.00226152
0.00195439
0.00174027
0.00158581
0.00146695
0.00136768
0.00127861
0.00119509
0.00111547
0.00103965
0.000968147
0.00090156
0.000840291
0.000784503
0.000734147
0.000689018
0.000648825
0.000613237
0.000581922
0.000554569
0.000530901
0.000510678
0.000493708
0.000479836
0.000468952
0.000460983
0.000456416
0.000454653
0.000454682
0.000458538
0.00046566
0.000476241
0.000490566
0.000509
0.000532001
0.00056014
0.000594122
0.000634826
0.000683345
0.00074106
0.000809728
0.000891619
0.000989715
0.00110799
0.00125184
0.00142865
0.00164869
0.00192619
0.00228088
0.00273946
0.00333671
0.00411453
0.0051164
0.00637342
0.00787903
0.00955481
0.011226
0.012651
0.013626
0.01427
0.0157183
0.0194464
0.0294123
0.0488224
0.0584124
0.0426079
0.0208158
0.0300953
0.0170367
0.0146088
0.0138632
0.0130942
0.0118658
0.0102153
0.00836662
0.00658529
0.00506888
0.00389946
0.00305954
0.00247995
0.00208531
0.00181552
0.00162702
0.00148859
0.00137875
0.00128406
0.00119725
0.00111516
0.00103701
0.000963084
0.000893959
0.000830115
0.000771792
0.000718988
0.000671521
0.000629098
0.000591371
0.000557984
0.000528598
0.000502904
0.000480637
0.000461569
0.000445517
0.000432337
0.000421926
0.000414219
0.000409552
0.000407604
0.00040741
0.000410515
0.000416705
0.000426081
0.000438898
0.000455491
0.000476279
0.000501784
0.000532652
0.00056968
0.000613861
0.000666431
0.000728958
0.000803449
0.000892519
0.000999641
0.00112951
0.00128858
0.00148585
0.00173403
0.00205103
0.0024619
0.00300085
0.00371214
0.00464768
0.00585697
0.00736432
0.00913065
0.0110069
0.0127167
0.0140187
0.0146943
0.0155551
0.018072
0.0257719
0.0433692
0.0588452
0.0525844
0.0243041
0.029735
0.0171155
0.0145051
0.0136229
0.0127609
0.0114595
0.00975899
0.00789468
0.00613896
0.00468134
0.00358475
0.0028138
0.00229063
0.00193862
0.00169912
0.00153057
0.00140408
0.00130067
0.00120922
0.00112419
0.00104357
0.000967126
0.000895329
0.000828715
0.000767622
0.000712129
0.0006621
0.000617256
0.000577244
0.000541689
0.000510222
0.00048251
0.000458254
0.0004372
0.000419135
0.000403884
0.000391312
0.00038132
0.000373843
0.000369089
0.000366977
0.00036661
0.000369063
0.00037443
0.000382744
0.000394231
0.000409196
0.000428028
0.000451208
0.000479333
0.000513138
0.000553529
0.000601634
0.000658869
0.000727029
0.000808435
0.000906145
0.00102427
0.00116844
0.00134656
0.00156982
0.00185429
0.00222296
0.00270832
0.00335475
0.00421872
0.00536311
0.0068391
0.00864954
0.0106943
0.0127203
0.0143305
0.0151577
0.0157164
0.0174071
0.0227722
0.0378738
0.0580374
0.0608304
0.0270655
0.0291751
0.0171122
0.014332
0.0133367
0.0123975
0.0110465
0.00932136
0.00746225
0.00574368
0.00434652
0.00331745
0.00260731
0.00213238
0.00181583
0.00160074
0.00144767
0.00133007
0.00123133
0.0011423
0.00105886
0.000979789
0.000905209
0.000835648
0.000771545
0.000713092
0.000660232
0.000612724
0.000570222
0.000532338
0.000498682
0.00046889
0.000442635
0.000419632
0.00039964
0.000382455
0.000367914
0.000355884
0.00034627
0.000339006
0.000334192
0.000331945
0.000331429
0.000333329
0.000337972
0.000345349
0.000355658
0.00036918
0.000386274
0.000407389
0.00043308
0.000464029
0.000501078
0.000545267
0.00059789
0.000660579
0.000735418
0.000825129
0.000933336
0.00106499
0.00122701
0.00142924
0.00168594
0.00201791
0.00245532
0.00304106
0.00383316
0.00490304
0.00632275
0.00813249
0.0102833
0.0125671
0.0145852
0.0157118
0.0162238
0.0171968
0.0208721
0.0326248
0.0558188
0.0650102
0.0283155
0.0284474
0.0170776
0.0141222
0.0130187
0.0120165
0.0106361
0.00890762
0.00707013
0.00539633
0.0040587
0.00309095
0.00243378
0.00199973
0.00171249
0.00151699
0.00137591
0.00126499
0.00116974
0.00108266
0.00100071
0.000923257
0.000850613
0.000783284
0.000721594
0.000665601
0.000615136
0.000569884
0.000529453
0.000493437
0.000461442
0.000433113
0.000408133
0.00038623
0.000367175
0.000350773
0.000336867
0.000325329
0.000316064
0.000309004
0.000304161
0.000301801
0.000301156
0.000302595
0.000306602
0.000313152
0.000322417
0.000334655
0.000350201
0.000369472
0.000392989
0.000421393
0.000455469
0.000496188
0.000544752
0.000602659
0.000671812
0.000754662
0.000854444
0.000975535
0.00112402
0.00130855
0.00154174
0.0018422
0.0022375
0.00276809
0.00349142
0.00448359
0.00583246
0.00761147
0.00982359
0.0123154
0.0146998
0.0162235
0.0168214
0.0172947
0.0198594
0.0291006
0.0516489
0.0665148
0.0285246
0.0275931
0.0169977
0.0138859
0.0126811
0.0116282
0.0102354
0.00852097
0.00671767
0.00509322
0.0038125
0.00289954
0.00228797
0.00188829
0.00162514
0.0014453
0.00131354
0.0012077
0.00111512
0.0010297
0.000949212
0.0008734
0.000802683
0.000737501
0.000678064
0.000624315
0.000575999
0.000532745
0.000494136
0.000459755
0.000429215
0.000402167
0.000378309
0.000357379
0.000339157
0.000323457
0.000310125
0.000299036
0.000290095
0.000283231
0.000278407
0.000275943
0.000275185
0.00027624
0.000279693
0.000285513
0.000293853
0.000304948
0.00031911
0.000336731
0.000358301
0.000384422
0.000415837
0.000453459
0.000498414
0.000552101
0.000616276
0.000693182
0.00078574
0.00089786
0.00103493
0.00120458
0.00141795
0.00169157
0.00205037
0.0025318
0.00319109
0.00410566
0.00537362
0.0070952
0.00932311
0.0119745
0.0147283
0.0167518
0.0175396
0.0178498
0.019398
0.0264384
0.0468952
0.066562
0.027956
0.0266466
0.0168887
0.0136336
0.012334
0.0112409
0.00984958
0.00816305
0.00640332
0.0048306
0.00360308
0.00273826
0.00216556
0.00179454
0.00155107
0.00138373
0.00125922
0.00115729
0.00106686
0.000982908
0.000903839
0.000829649
0.000760786
0.000697615
0.000640237
0.000588503
0.000542093
0.000500598
0.000463585
0.000430637
0.000401372
0.000375451
0.000352584
0.000332519
0.000315042
0.000299974
0.000287164
0.000276487
0.000267847
0.00026117
0.00025641
0.000253849
0.00025299
0.000253728
0.000256698
0.000261876
0.000269395
0.000279473
0.0002924
0.000308543
0.000328364
0.000352433
0.000381455
0.000416295
0.000458019
0.000507946
0.00056772
0.000639421
0.000725725
0.000830168
0.000957565
0.00111469
0.00131136
0.00156228
0.00188978
0.00232814
0.00292942
0.00377006
0.00495399
0.00660169
0.00880774
0.0115531
0.0145941
0.017186
0.018252
0.0185008
0.0192698
0.0244755
0.0425302
0.0643678
0.027012
0.0256385
0.016765
0.0133746
0.011986
0.0108613
0.00948236
0.0078344
0.00612496
0.00460455
0.00342606
0.00260307
0.00206303
0.00171567
0.00148816
0.00133076
0.00121194
0.00111307
0.00102441
0.000941797
0.000864093
0.000791458
0.000724334
0.000663004
0.000607477
0.000557532
0.000512799
0.000472846
0.00043723
0.000405535
0.000377389
0.000352463
0.000330474
0.000311179
0.00029437
0.000279873
0.000267537
0.000257239
0.00024888
0.000242384
0.000237701
0.000235058
0.000234109
0.000234587
0.000237139
0.000241751
0.000248545
0.000257719
0.000269544
0.000284364
0.000302615
0.000324838
0.000351703
0.000384035
0.00042285
0.000469403
0.000525251
0.000592348
0.000673181
0.000770993
0.000890138
0.00103667
0.00121931
0.00145108
0.00175192
0.0021529
0.00270236
0.00347403
0.00457403
0.00613787
0.00829756
0.0110941
0.0143342
0.0174743
0.0190259
0.0193499
0.0195282
0.0231259
0.0386333
0.0612981
0.0258677
0.0245723
0.0166442
0.0131191
0.0116444
0.0104944
0.00913618
0.00753472
0.00588019
0.00441158
0.00327763
0.00249049
0.00197751
0.00164942
0.00143475
0.00128523
0.00117087
0.00107445
0.000987293
0.000905908
0.000829499
0.000758322
0.000692792
0.000633118
0.000579234
0.00053086
0.000487594
0.000448985
0.000414588
0.00038399
0.000356826
0.000332777
0.000311566
0.000292957
0.000276748
0.000262764
0.000250859
0.000240907
0.000232808
0.000226484
0.00022188
0.000219168
0.000218139
0.000218404
0.000220595
0.000224711
0.000230864
0.000239236
0.000250079
0.000263717
0.000280561
0.000301125
0.000326046
0.000356114
0.000392301
0.000435811
0.000488132
0.00055112
0.00062712
0.000719148
0.000831194
0.000968726
0.00113954
0.0013552
0.00163348
0.00200236
0.00250625
0.00321497
0.00423385
0.00570773
0.0078001
0.0106166
0.0140506
0.0175955
0.0197696
0.0202466