/*--------------------------------*- C++ -*----------------------------------*\
  =========                 |
  \\      /  F ield         | OpenFOAM: The Open Source CFD Toolbox
   \\    /   O peration     | Website:  https://openfoam.org
    \\  /    A nd           | Version:  13
     \\/     M anipulation  |
\*---------------------------------------------------------------------------*/
FoamFile
{
    format      ascii;
    class       volScalarField;
    location    "7.1";
    object      k;
}
// * * * * * * * * * * * * * * * * * * * * * * * * * * * * * * * * * * * * * //

dimensions      [0 2 -2 0 0 0 0];

internalField   nonuniform List<scalar> 
6400
(
5.39083e-07
2.76972e-06
6.72679e-06
1.08427e-05
1.39515e-05
1.56996e-05
1.63353e-05
1.63944e-05
1.64853e-05
1.70792e-05
1.85336e-05
2.1398e-05
2.59347e-05
3.22426e-05
3.99982e-05
4.87737e-05
5.81264e-05
6.78645e-05
7.75542e-05
8.69392e-05
9.63508e-05
0.000106584
0.000118713
0.000133424
0.00015017
0.000167195
0.00018408
0.000200816
0.000217909
0.000235835
0.000254387
0.000272903
0.000291088
0.000308959
0.000327011
0.000345335
0.000364337
0.000384131
0.000404974
0.000426935
0.000450175
0.000474871
0.000501168
0.000529409
0.000559763
0.000593236
0.000631658
0.000679028
0.000728028
0.000777568
0.000826395
0.000873869
0.000918607
0.000959325
0.000994556
0.00102253
0.00103741
0.00104336
0.00104297
0.00102409
0.00098994
0.000940359
0.000875981
0.000799031
0.000711549
0.000617603
0.000521688
0.000427922
0.000339744
0.000260899
0.000196959
0.000143293
9.99363e-05
6.67497e-05
4.28661e-05
2.66027e-05
1.60009e-05
9.17654e-06
4.33383e-06
9.22499e-07
2.60853e-06
2.19482e-05
5.32505e-05
8.33161e-05
0.000105579
0.000118854
0.000125165
0.000127697
0.000129968
0.000134986
0.000146141
0.000167379
0.000199831
0.000242912
0.000294609
0.000352288
0.000413616
0.000476269
0.000538423
0.000599348
0.000660923
0.000727441
0.000804346
0.000894386
0.000993965
0.00109435
0.00119203
0.00128506
0.00137433
0.00146093
0.00154315
0.00161986
0.00168964
0.00175319
0.00181306
0.00186997
0.00192601
0.00198199
0.00203928
0.00209844
0.00216018
0.00222518
0.00229358
0.0023657
0.00244086
0.00251896
0.00259841
0.00267647
0.0027589
0.00284422
0.00293195
0.00301907
0.00310388
0.00318281
0.00325253
0.0033089
0.00334042
0.00335118
0.0033428
0.00330104
0.00322183
0.00310465
0.00294787
0.00275442
0.00252903
0.00227955
0.00201741
0.00175145
0.00148923
0.00123581
0.00099415
0.00077422
0.000582815
0.000422487
0.000294335
0.000196378
0.00012533
7.5441e-05
3.65431e-05
4.87955e-06
5.70681e-06
4.7656e-05
0.000110887
0.000164048
0.000200255
0.000221585
0.000233283
0.000241208
0.000251277
0.000269309
0.000301037
0.00035123
0.000421641
0.000510553
0.00061403
0.000727921
0.000849017
0.000974692
0.0011024
0.00122994
0.00135563
0.00147867
0.00159698
0.00170553
0.00179944
0.0018748
0.00192893
0.00196652
0.00199528
0.00202216
0.00205156
0.00208276
0.00211676
0.0021504
0.00218777
0.0022277
0.00227212
0.00232085
0.00237493
0.0024344
0.00249909
0.00256958
0.0026454
0.00272661
0.0028132
0.00290503
0.0030012
0.0031032
0.0032107
0.00332232
0.00343696
0.00355251
0.00366679
0.00377654
0.00387805
0.00396662
0.00403706
0.0040777
0.00409096
0.00407607
0.00401707
0.00391315
0.00375979
0.00355876
0.00331233
0.00302726
0.00272027
0.00240045
0.0020782
0.00176401
0.00146691
0.00119373
0.000949606
0.000736948
0.000556799
0.000408367
0.00028835
0.000189193
9.60569e-05
1.30461e-05
9.90953e-06
8.01172e-05
0.000174434
0.000245466
0.000291946
0.000320672
0.000339947
0.000358118
0.000383414
0.000423902
0.000486836
0.000576765
0.000693592
0.000832718
0.000987395
0.00115115
0.00131831
0.00148336
0.00164026
0.00178316
0.00190635
0.00200775
0.0020848
0.00213047
0.00215004
0.0021547
0.00214955
0.00214592
0.0021449
0.00214921
0.00215943
0.0021728
0.00219132
0.0022146
0.00224325
0.00227686
0.00231611
0.00236085
0.0024111
0.0024671
0.00252889
0.0025967
0.00267044
0.00275006
0.00283522
0.00292608
0.00302373
0.00312787
0.00323811
0.00335367
0.00347352
0.0035961
0.00371939
0.00384057
0.00395613
0.00406169
0.00415202
0.00422083
0.00425478
0.00426272
0.00423012
0.00415309
0.00403197
0.00386278
0.00364051
0.00336568
0.00305504
0.002719
0.00237344
0.00203261
0.00170875
0.00141085
0.0011442
0.000910938
0.000711141
0.000543224
0.000402789
0.000280209
0.000152403
2.17062e-05
1.58929e-05
0.000123526
0.000249769
0.000337918
0.000394819
0.000432338
0.000462162
0.000495465
0.000542993
0.000614642
0.000717655
0.00085408
0.00101955
0.00120496
0.00139966
0.00159356
0.00177741
0.00194239
0.00207928
0.00218368
0.00224486
0.00226882
0.00227108
0.00224144
0.00221079
0.00218321
0.00216081
0.00214539
0.00213795
0.00213538
0.00213622
0.00214267
0.00215367
0.00216894
0.00218841
0.00221197
0.00223953
0.00227079
0.00230569
0.00234447
0.00238715
0.00243414
0.00248624
0.00254411
0.00260866
0.0026802
0.00275829
0.00284347
0.00293591
0.00303573
0.0031428
0.00325657
0.00337614
0.00349999
0.00362602
0.00375111
0.00387065
0.00397919
0.00407006
0.00412828
0.00415041
0.00413503
0.00406148
0.00393276
0.00375588
0.0035234
0.00323219
0.00290095
0.00254697
0.00218883
0.00184394
0.00152592
0.00124279
0.000997255
0.000788545
0.000613583
0.000466514
0.000335171
0.000190552
2.76739e-05
2.4434e-05
0.000181184
0.00034134
0.00044742
0.000516164
0.000564758
0.000608672
0.000662196
0.000738295
0.000847192
0.000993638
0.00117466
0.00138001
0.00159536
0.00180569
0.00199711
0.00215754
0.00227957
0.00234588
0.00236807
0.00235661
0.00231186
0.00226736
0.00222351
0.00218258
0.00214686
0.00211755
0.00209416
0.00207546
0.00206042
0.00204791
0.00204058
0.00203683
0.00203552
0.00203597
0.00204
0.00204622
0.00205525
0.00206707
0.00208213
0.00210071
0.00212343
0.00215009
0.0021813
0.00221753
0.00225934
0.00230743
0.00236279
0.0024264
0.00249935
0.00258268
0.00267722
0.00278353
0.00290159
0.00303039
0.00316819
0.00331286
0.00345952
0.00360281
0.0037332
0.00384197
0.00390262
0.00392126
0.00388304
0.00377816
0.00361135
0.00336537
0.00305698
0.00270371
0.00232891
0.00195733
0.0016105
0.00130282
0.00104005
0.000821153
0.000640945
0.00049114
0.000357113
0.000207354
2.98465e-05
3.62914e-05
0.000255026
0.000451499
0.000576833
0.000659117
0.000721243
0.000782715
0.000860684
0.000969074
0.00111609
0.00130138
0.00151532
0.00174143
0.00196061
0.00215474
0.00230862
0.00240287
0.00243857
0.00243794
0.0023894
0.00233647
0.00227353
0.00221262
0.00215122
0.002097
0.00205005
0.00200918
0.00197257
0.00193969
0.00191102
0.00188656
0.00186482
0.0018454
0.00182805
0.00181289
0.00180022
0.00178971
0.00178176
0.00177671
0.00177448
0.00177402
0.00177699
0.00178312
0.00179281
0.0018065
0.00182454
0.00184771
0.00187675
0.00191287
0.00195743
0.00201222
0.00207932
0.00216099
0.00225956
0.00237661
0.00251141
0.00266653
0.00283836
0.00302164
0.0032095
0.00339415
0.00356024
0.00368463
0.00374016
0.00374536
0.0036627
0.00350722
0.00324722
0.0029101
0.00252222
0.00211633
0.00172525
0.00137495
0.00107925
0.00083919
0.00064772
0.000492254
0.000355714
0.000206221
2.89795e-05
5.217e-05
0.000346105
0.000580922
0.000726859
0.000824283
0.000902014
0.000983432
0.00108762
0.00122748
0.00140675
0.00161831
0.00184556
0.00206669
0.00225951
0.00240628
0.00247949
0.00249918
0.00246962
0.00241498
0.00233959
0.0022561
0.00216823
0.00209016
0.00201998
0.00196026
0.00190558
0.00185599
0.00181018
0.00176821
0.00172987
0.00169478
0.00166251
0.00163314
0.00160667
0.00158323
0.00156278
0.00154509
0.00153024
0.00151818
0.00150886
0.00150238
0.00149929
0.00149833
0.00150015
0.00150594
0.00151499
0.00152823
0.00154595
0.00156867
0.00159694
0.00163171
0.00167404
0.00172552
0.00178853
0.00186698
0.00196767
0.0020936
0.00225065
0.00243936
0.00264988
0.00288076
0.00311723
0.00334352
0.00353631
0.00364211
0.00367364
0.00362127
0.00346922
0.00318135
0.00280094
0.00236535
0.00191918
0.0015049
0.00115223
0.000871594
0.000655877
0.000488247
0.000347284
0.000199532
2.69377e-05
7.25687e-05
0.000454252
0.000729023
0.000896642
0.00101032
0.00110463
0.00120622
0.00133468
0.00149983
0.00169928
0.00191878
0.00213601
0.00232623
0.00246286
0.00252426
0.00253346
0.00249046
0.0024232
0.00232703
0.0022162
0.00211301
0.00202191
0.00194086
0.00186799
0.00180252
0.0017416
0.00168562
0.00163389
0.00158668
0.00154383
0.00150529
0.00147102
0.00144104
0.00141516
0.00139321
0.00137495
0.00136018
0.00134866
0.00134009
0.00133456
0.00133199
0.00133125
0.00133279
0.00133739
0.00134459
0.00135441
0.00136709
0.00138276
0.00140169
0.00142416
0.00145067
0.00148174
0.0015181
0.00156072
0.00161101
0.00167128
0.00174486
0.00183813
0.00196269
0.00213801
0.00235996
0.00262076
0.00290252
0.00318701
0.00344364
0.00360215
0.00365765
0.00363262
0.00347708
0.0031489
0.00271286
0.00222014
0.00172989
0.00129449
0.000944199
0.000682121
0.000489602
0.000334789
0.00018613
2.46447e-05
9.76883e-05
0.00057788
0.000893889
0.00108396
0.00121409
0.00132419
0.00144329
0.00158995
0.00176944
0.00197271
0.0021794
0.00236384
0.00249365
0.00254834
0.00255265
0.00250705
0.00242229
0.00230234
0.00217509
0.00205965
0.00195604
0.00186424
0.00178139
0.00170598
0.00163704
0.00157361
0.00151622
0.00146469
0.00141929
0.00137986
0.00134628
0.00131825
0.0012954
0.00127725
0.0012633
0.001253
0.00124585
0.00124195
0.00124034
0.0012401
0.00124243
0.00124635
0.00125221
0.00125989
0.00126935
0.00128066
0.00129398
0.00130946
0.00132733
0.00134782
0.0013711
0.00139746
0.00142723
0.0014608
0.0014986
0.00154131
0.00159032
0.00164824
0.00171994
0.00181421
0.00194572
0.0021444
0.00241721
0.00273538
0.00307418
0.00339394
0.0036059
0.00368376
0.00367535
0.00350464
0.00312393
0.00262214
0.00206804
0.00153698
0.00108884
0.000748588
0.00050757
0.000331068
0.000174313
2.2791e-05
0.00012792
0.000713342
0.00107246
0.00128529
0.00143079
0.00155375
0.00168468
0.00184
0.00201973
0.00220886
0.00238303
0.00250751
0.00255888
0.00256111
0.00251515
0.00241608
0.00227914
0.00214066
0.00201146
0.00189722
0.00179509
0.00170366
0.00162069
0.00154554
0.00147788
0.00141775
0.00136551
0.00132098
0.00128402
0.00125407
0.00123051
0.00121257
0.00119944
0.00119031
0.00118466
0.00118197
0.0011811
0.00118173
0.00118446
0.00118833
0.00119378
0.00120043
0.0012085
0.00121795
0.0012289
0.00124146
0.0012558
0.00127205
0.00129034
0.00131079
0.00133353
0.00135866
0.0013863
0.00141664
0.00144996
0.00148645
0.00152604
0.00156938
0.00161796
0.00167511
0.0017485
0.00185199
0.00200934
0.00226392
0.0026098
0.00299257
0.00337633
0.00363799
0.00373466
0.00372957
0.00352646
0.00307991
0.0025049
0.00189174
0.0013311
0.000883612
0.000561513
0.000342121
0.00017174
2.22327e-05
0.000164791
0.000856036
0.00126109
0.00149593
0.00165422
0.00178509
0.00191978
0.00207196
0.00223678
0.00239491
0.0025131
0.00256283
0.00256484
0.00251951
0.00241213
0.00226428
0.002114
0.00197337
0.00184751
0.00173648
0.00163712
0.00154823
0.00146871
0.0013986
0.00133795
0.00128679
0.00124489
0.00121155
0.0011859
0.00116685
0.0011533
0.00114416
0.00113868
0.00113608
0.00113522
0.00113546
0.00113748
0.00114043
0.00114454
0.00114955
0.0011557
0.00116294
0.00117148
0.00118143
0.00119296
0.00120626
0.00122151
0.00123888
0.00125851
0.00128052
0.00130499
0.00133191
0.00136121
0.00139273
0.00142624
0.00146156
0.00149867
0.00153792
0.00157916
0.00162267
0.00167107
0.00173056
0.00181401
0.00194496
0.00216339
0.00251866
0.00294081
0.00338506
0.00368686
0.00379545
0.00377659
0.00351747
0.00299076
0.00233931
0.00167859
0.00110688
0.000675529
0.000381483
0.000179726
2.31229e-05
0.000205808
0.00100627
0.00145572
0.00171048
0.00187763
0.00200989
0.00213877
0.00227533
0.00241103
0.00251927
0.00256696
0.00256951
0.00252496
0.00241524
0.00226081
0.00209893
0.00194667
0.00180994
0.00168945
0.00158319
0.00148893
0.00140619
0.00133459
0.00127427
0.00122488
0.0011858
0.00115593
0.00113392
0.00111834
0.00110778
0.00110103
0.00109727
0.00109555
0.001095
0.00109507
0.00109631
0.00109833
0.00110105
0.0011046
0.00110904
0.00111457
0.00112132
0.0011295
0.00113929
0.0011509
0.00116453
0.00118039
0.00119867
0.00121956
0.00124323
0.00126979
0.00129929
0.00133167
0.00136671
0.00140404
0.0014431
0.00148318
0.00152363
0.00156418
0.00160531
0.00164661
0.00168965
0.00173985
0.00180896
0.00192056
0.00211675
0.0024615
0.00292091
0.00341776
0.00374376
0.00385213
0.0037971
0.00345244
0.00283048
0.00210973
0.00142172
0.000863715
0.000468809
0.000207086
2.67077e-05
0.000249782
0.00116041
0.00165146
0.00192315
0.0020943
0.0022206
0.00233377
0.00244299
0.00253523
0.00257804
0.00258051
0.00253551
0.00242768
0.00226997
0.00209837
0.0019337
0.00178567
0.00165557
0.00154194
0.00144273
0.0013568
0.00128398
0.00122391
0.00117604
0.00113922
0.00111195
0.00109247
0.00107903
0.00107006
0.00106424
0.00106053
0.00105822
0.00105672
0.00105585
0.00105549
0.00105548
0.00105624
0.00105763
0.00105995
0.00106331
0.00106789
0.00107391
0.00108155
0.001091
0.00110246
0.00111614
0.00113224
0.00115099
0.00117261
0.00119732
0.00122532
0.00125678
0.00129177
0.00133022
0.00137187
0.00141618
0.00146227
0.00150894
0.00155483
0.00159883
0.00164079
0.00168119
0.00172091
0.001764
0.00182357
0.00192336
0.00210718
0.00244155
0.00293388
0.00347574
0.0038002
0.00388924
0.0037731
0.00330106
0.00258163
0.00180744
0.00112382
0.000611432
0.000265472
3.51501e-05
0.000295281
0.00131441
0.00184327
0.00212827
0.00229814
0.00241115
0.00249952
0.00257048
0.00260352
0.00260364
0.00255541
0.00245153
0.0022933
0.00211403
0.00193699
0.00177624
0.00163561
0.00151382
0.00140896
0.00131952
0.00124486
0.00118446
0.00113728
0.0011018
0.00107605
0.00105794
0.00104547
0.00103691
0.00103091
0.00102646
0.0010229
0.00101984
0.00101708
0.00101465
0.00101259
0.00101118
0.00101058
0.00101049
0.00101161
0.00101405
0.00101788
0.00102332
0.00103052
0.00103966
0.0010509
0.00106445
0.00108049
0.00109927
0.001121
0.00114598
0.00117446
0.00120673
0.00124304
0.00128353
0.00132821
0.00137682
0.00142872
0.00148278
0.00153729
0.00159005
0.00163887
0.00168247
0.00172074
0.00175656
0.001797
0.00185004
0.00194415
0.002122
0.00245892
0.00298272
0.00355846
0.00384337
0.00389414
0.00367981
0.00304597
0.00223164
0.00143844
0.000801262
0.000351852
4.8392e-05
0.000340889
0.00146433
0.00202648
0.0023209
0.00248403
0.00257722
0.00263116
0.00265282
0.00264405
0.00258965
0.00248933
0.00233235
0.00214747
0.00195859
0.00178375
0.00163063
0.00149925
0.00138742
0.00129338
0.00121591
0.0011541
0.00110657
0.00107133
0.00104607
0.00102834
0.00101593
0.00100701
0.00100018
0.000994484
0.000989341
0.000984452
0.00097973
0.000975229
0.000971095
0.000967498
0.000964637
0.000962891
0.000962198
0.000962233
0.000964144
0.000967535
0.000972625
0.000979562
0.000988471
0.000999508
0.00101283
0.00102863
0.00104712
0.00106853
0.00109316
0.00112131
0.00115335
0.00118964
0.00123054
0.00127634
0.00132715
0.0013828
0.00144263
0.00150531
0.00156864
0.0016296
0.00168463
0.00173211
0.00177003
0.00179662
0.00183286
0.00188563
0.0019776
0.00215808
0.00251399
0.00307967
0.00364061
0.00387656
0.0038585
0.00345599
0.00266392
0.00178783
0.00102673
0.000458997
6.52938e-05
0.000385845
0.0016058
0.00219731
0.00249777
0.00264742
0.00271083
0.0027266
0.00270572
0.00264277
0.0025445
0.00238898
0.00220027
0.00200049
0.0018105
0.00164243
0.00149904
0.00137836
0.00127801
0.00119631
0.00113176
0.00108261
0.00104653
0.00102078
0.00100263
0.000989646
0.000979872
0.000971879
0.00096474
0.00095793
0.000951223
0.000944604
0.000938179
0.000932125
0.000926643
0.000921928
0.000918169
0.000915666
0.00091452
0.000914268
0.000915781
0.000919002
0.000923931
0.000930726
0.00093948
0.000950327
0.000963405
0.000978876
0.000996933
0.0010178
0.00104176
0.00106912
0.00110027
0.00113564
0.00117572
0.00122098
0.00127188
0.00132868
0.00139133
0.00145921
0.00153085
0.00160363
0.00167358
0.00173572
0.00178782
0.00182541
0.00184355
0.00187397
0.00192751
0.00202146
0.00221319
0.00260211
0.00321415
0.00372196
0.00389078
0.00372929
0.00307599
0.00215844
0.001279
0.000580718
8.47993e-05
0.00042906
0.00173758
0.00235254
0.00265167
0.00278157
0.00281645
0.00279628
0.00272741
0.00261962
0.00246573
0.00227411
0.00206466
0.00185902
0.00167351
0.00151487
0.00138257
0.0012737
0.00118584
0.00111695
0.00106481
0.00102671
0.000999569
0.000980332
0.000966315
0.000955405
0.000946113
0.000937505
0.00092909
0.000920695
0.000912349
0.000904198
0.000896442
0.00088929
0.000882942
0.000877573
0.000873339
0.000870488
0.000869157
0.00086882
0.000870156
0.000873315
0.00087817
0.000884866
0.000893489
0.00090415
0.00091697
0.000932095
0.000949694
0.000969971
0.000993176
0.00101961
0.00104963
0.0010837
0.00112231
0.00116607
0.00121561
0.00127155
0.00133433
0.00140408
0.00148022
0.00156117
0.00164382
0.00172326
0.00179281
0.00184944
0.00188092
0.0018945
0.00191905
0.00197451
0.00207536
0.00228985
0.00273649
0.0033919
0.00377164
0.00383162
0.00344111
0.00254021
0.00155415
0.000713167
0.000105994
0.000468918
0.00185618
0.00248702
0.0027799
0.00288789
0.00289895
0.00283663
0.00272063
0.00256706
0.00237119
0.00215309
0.00193196
0.00172694
0.00154942
0.00140176
0.00128141
0.00118501
0.00110981
0.00105307
0.00101169
0.000982231
0.00096128
0.000945855
0.000933637
0.000923014
0.000913006
0.000903123
0.000893214
0.000883338
0.000873666
0.00086441
0.000855783
0.000847982
0.000841173
0.000835493
0.000831059
0.000828082
0.000826689
0.000826325
0.000827573
0.000830672
0.000835445
0.000842022
0.000850487
0.000860938
0.000873488
0.000888266
0.000905427
0.000925151
0.000947657
0.000973215
0.00100216
0.00103489
0.00107191
0.00111383
0.00116136
0.0012153
0.00127643
0.00134543
0.00142257
0.00150737
0.00159808
0.00169106
0.00178033
0.00185745
0.00191427
0.00193814
0.00194745
0.00196722
0.00202649
0.00214055
0.0023973
0.00293039
0.00356047
0.00381474
0.00366835
0.0029114
0.00184815
0.000853684
0.000128166
0.000503975
0.00195863
0.00259861
0.00288235
0.00297132
0.00295553
0.00285163
0.00269553
0.00249508
0.00226803
0.00203198
0.00180622
0.00160627
0.0014388
0.00130298
0.00119499
0.00111105
0.0010478
0.00100167
0.000968839
0.000945497
0.000928293
0.00091462
0.000902675
0.000891371
0.000880177
0.000868938
0.000857723
0.000846714
0.000836132
0.000826191
0.000817079
0.000808951
0.000801935
0.000796129
0.000791616
0.000788563
0.000787119
0.000786724
0.000787851
0.000790828
0.000795455
0.000801849
0.000810097
0.000820292
0.000832544
0.000846973
0.00086372
0.000882948
0.000904852
0.000929667
0.000957681
0.000989256
0.00102484
0.00106501
0.00111046
0.00116202
0.00122066
0.00128739
0.0013631
0.00144823
0.00154232
0.00164332
0.00174682
0.00184539
0.00192843
0.00198132
0.00199647
0.0020009
0.00201831
0.0020833
0.00222229
0.0025526
0.003176
0.00365423
0.0037476
0.00325223
0.00215555
0.000997373
0.00015137
0.000533435
0.00204376
0.00268694
0.00295984
0.00303311
0.00298756
0.00284501
0.00264733
0.00241248
0.00216177
0.00191492
0.00168976
0.00149774
0.00134147
0.00121782
0.00112208
0.00104994
0.000997257
0.000959751
0.000933172
0.000913725
0.000898408
0.000885134
0.000872635
0.000860283
0.000847886
0.000835502
0.000823318
0.000811554
0.000800426
0.000790113
0.000780763
0.000772488
0.000765377
0.000759501
0.00075492
0.000751738
0.000750191
0.000749725
0.000750636
0.000753403
0.000757798
0.000763928
0.000771888
0.000781771
0.000793684
0.000807747
0.000824092
0.00084287
0.000864257
0.000888458
0.000915726
0.000946373
0.000980792
0.00101948
0.00106308
0.0011124
0.00116842
0.00123229
0.00130527
0.00138848
0.00148255
0.00158697
0.00169921
0.00181369
0.00192084
0.00200532
0.00204645
0.00205428
0.00205427
0.00207124
0.00214734
0.00233192
0.00278314
0.00343688
0.00371296
0.00349517
0.00246558
0.00114292
0.000175243
0.000556876
0.00211156
0.00275303
0.00301414
0.00307275
0.00299756
0.00282358
0.00258745
0.0023242
0.00205649
0.00180452
0.00158366
0.00140129
0.00125673
0.00114512
0.00106104
0.000999497
0.000955637
0.000924694
0.000902341
0.000885074
0.000870397
0.000856767
0.000843389
0.000829986
0.000816585
0.000803362
0.000790539
0.000778328
0.000766904
0.000756407
0.00074694
0.00073858
0.000731389
0.000725418
0.000720716
0.000717331
0.00071559
0.000715
0.000715592
0.000718055
0.000722133
0.000727924
0.000735526
0.000745038
0.00075657
0.000770239
0.000786176
0.000804525
0.000825448
0.000849133
0.000875801
0.000905722
0.000939234
0.000976769
0.00101888
0.0010663
0.00111995
0.00118099
0.00125081
0.00133092
0.00142272
0.00152696
0.00164296
0.0017675
0.00189356
0.00200941
0.0020856
0.00211041
0.0021116
0.00210383
0.00212688
0.00222591
0.00249242
0.00308699
0.0035493
0.0035979
0.00277853
0.00130424
0.000201747
0.000574205
0.0021627
0.00279826
0.00304711
0.00309224
0.0029909
0.00278462
0.00251945
0.00223404
0.00195502
0.00170227
0.00148819
0.0013164
0.00118354
0.00108347
0.00101004
0.000957588
0.000920725
0.00089449
0.000874755
0.000858478
0.00084371
0.000829396
0.000815116
0.00080083
0.00078669
0.000772912
0.000759706
0.000747249
0.000735672
0.000725072
0.000715519
0.000707065
0.000699753
0.000693625
0.000688723
0.000685092
0.000683043
0.000682272
0.000682476
0.000684551
0.000688242
0.00069363
0.000700817
0.000709907
0.000721013
0.000734254
0.000749763
0.000767681
0.000788163
0.000811386
0.000837549
0.000866892
0.000899706
0.000936362
0.000977336
0.00102326
0.00107495
0.00113351
0.00120031
0.00127701
0.00136543
0.00146723
0.00158317
0.00171203
0.00184907
0.00198437
0.00210173
0.00216386
0.00217527
0.00216047
0.002146
0.00218863
0.00233369
0.00276099
0.00338811
0.00361218
0.00308361
0.00150594
0.000236072
0.000585708
0.00219817
0.00282366
0.00305907
0.00309145
0.00297087
0.00273616
0.00244694
0.00214487
0.00185919
0.00160886
0.00140311
0.00124221
0.00112068
0.00103131
0.000967276
0.000922331
0.000890776
0.000867729
0.000849445
0.000833413
0.000818192
0.000803131
0.000788073
0.000773124
0.000758484
0.000744365
0.000730943
0.00071835
0.000706678
0.000695989
0.000686331
0.000677739
0.000670252
0.000663905
0.000658744
0.000654817
0.000652354
0.000651297
0.00065117
0.000652768
0.000656023
0.000660962
0.000667692
0.000676319
0.00068696
0.000699739
0.00071479
0.000732257
0.000752293
0.000775069
0.000800774
0.000829626
0.000861882
0.000897864
0.000937981
0.000982769
0.00103295
0.00108949
0.00115366
0.00122714
0.00131192
0.0014102
0.00152392
0.00165378
0.00179781
0.00194941
0.00209549
0.00219896
0.00223614
0.00223613
0.00219908
0.00218533
0.00225897
0.00251059
0.00311366
0.00349578
0.00331917
0.00176107
0.000282279
0.000591391
0.00221831
0.00283038
0.00305561
0.0030799
0.00293633
0.00268066
0.00237267
0.00205874
0.00177012
0.00152444
0.00132785
0.00117774
0.00106688
0.000987169
0.000931157
0.000892198
0.000864515
0.000843497
0.000825884
0.000809682
0.000793886
0.000778149
0.000762486
0.000747072
0.000732114
0.000717793
0.000704244
0.000691558
0.000679795
0.000668996
0.000659193
0.000650418
0.000642704
0.000636092
0.00063063
0.000626374
0.000623428
0.000621996
0.000621613
0.000622677
0.000625464
0.000629928
0.000636172
0.000644306
0.000654451
0.000666734
0.000681295
0.000698279
0.000717844
0.000740161
0.000765413
0.000793808
0.000825582
0.000861022
0.000900481
0.000944419
0.000993453
0.00104842
0.00111047
0.00118113
0.00126243
0.00135677
0.00146676
0.00159443
0.00173994
0.00189946
0.00206281
0.00221144
0.00229223
0.00230723
0.00227682
0.00223392
0.00223655
0.00237636
0.00283946
0.00336112
0.00342898
0.00206491
0.000339902
0.00059101
0.0022259
0.00282543
0.00304097
0.00305366
0.00289297
0.00262077
0.0022988
0.00197708
0.00168836
0.0014488
0.00126168
0.00112193
0.00102089
0.000949677
0.000900346
0.000866027
0.000841067
0.000821251
0.000803823
0.000787257
0.000770896
0.000754604
0.000738498
0.000722773
0.000707616
0.000693169
0.000679528
0.000666751
0.000654878
0.000643935
0.000633949
0.00062495
0.000616973
0.000610063
0.000604269
0.000599649
0.000596265
0.000594411
0.000593768
0.000594303
0.000596609
0.000600587
0.000606332
0.000613955
0.00062358
0.000635339
0.000649375
0.00066584
0.000684897
0.00070672
0.000731496
0.000759428
0.000790745
0.000825707
0.000864631
0.000907917
0.000956091
0.00100987
0.00107026
0.00113864
0.00121691
0.00130753
0.00141347
0.00153776
0.00168245
0.00184666
0.00202381
0.00219893
0.00232763
0.00237317
0.00236659
0.00228943
0.00225103
0.00230976
0.00260312
0.00321835
0.0034542
0.00240552
0.000406561
0.000587816
0.00222387
0.00280934
0.00301118
0.00301522
0.00284273
0.00255856
0.00222692
0.00190082
0.0016141
0.00138151
0.00120378
0.00107375
0.000981559
0.00091767
0.000873781
0.000842974
0.000819863
0.000800686
0.000783168
0.000766177
0.000749319
0.000732598
0.000716177
0.000700245
0.000684956
0.000670414
0.000656683
0.0006438
0.000631789
0.000620672
0.000610474
0.000601227
0.000592971
0.000585751
0.00057962
0.000574636
0.000570861
0.00056856
0.000567646
0.000567705
0.000569528
0.000573022
0.000578267
0.000585372
0.000594463
0.000605674
0.000619154
0.000635062
0.000653567
0.000674851
0.000699108
0.000726545
0.000757387
0.000791886
0.000830335
0.000873088
0.000920602
0.000973494
0.00103262
0.0010992
0.00117494
0.0012622
0.00136403
0.00148399
0.00162543
0.00178978
0.00197371
0.00216529
0.00234065
0.00243201
0.0024468
0.00239095
0.00230089
0.00228865
0.00245007
0.00299534
0.00336832
0.00274127
0.000474694
0.00058078
0.00221517
0.00277959
0.00297147
0.0029682
0.00278762
0.00249569
0.0021582
0.00183048
0.00154727
0.00132203
0.00115332
0.00103222
0.000947868
0.000890183
0.000850649
0.000822448
0.000800546
0.000781644
0.000763897
0.00074649
0.00072922
0.000712173
0.000695527
0.000679449
0.000664058
0.000649426
0.000635595
0.000622585
0.000610414
0.000599104
0.00058868
0.00057918
0.000570645
0.000563125
0.000556676
0.00055136
0.000547241
0.000544483
0.000543208
0.000542967
0.000544296
0.000547317
0.00055207
0.000558659
0.000567208
0.000577856
0.000590755
0.000606071
0.00062398
0.000644675
0.000668359
0.000695248
0.000725573
0.000759587
0.000797569
0.000839847
0.000886826
0.000939038
0.00099722
0.00106242
0.00113616
0.0012206
0.00131872
0.00143433
0.00157168
0.00173424
0.0019221
0.0021281
0.00233336
0.00247605
0.00251914
0.00249293
0.00236537
0.00230145
0.00237413
0.00279233
0.00323711
0.00300262
0.00052863
0.000569844
0.00219689
0.00274119
0.00292435
0.0029146
0.00272936
0.00243344
0.00209342
0.00176631
0.00148761
0.00126977
0.00110951
0.000996478
0.000918951
0.000866442
0.000830344
0.000804042
0.000782895
0.000764044
0.000746011
0.000728227
0.000710621
0.000693325
0.000676511
0.000660317
0.000644833
0.000630105
0.000616158
0.000603005
0.000590663
0.000579153
0.000568506
0.000558761
0.000549966
0.000542171
0.000535436
0.00052982
0.00052539
0.00052222
0.000520584
0.0005201
0.000520968
0.000523536
0.000527813
0.000533895
0.000541904
0.000551981
0.00056428
0.000578974
0.000596248
0.000616304
0.000639358
0.000665639
0.00069539
0.00072887
0.000766359
0.000808171
0.000854676
0.000906345
0.000963811
0.00102798
0.00110016
0.00118229
0.00127716
0.00138857
0.0015212
0.00167981
0.00186703
0.00207942
0.00230241
0.00249656
0.00258323
0.0025869
0.00247635
0.00234771
0.00233929
0.002621
0.00311498
0.00312577
0.000553046
0.000555629
0.00217201
0.00269606
0.00287124
0.00285635
0.00266938
0.0023728
0.00203309
0.00170837
0.0014348
0.00122411
0.00107162
0.000965744
0.000894082
0.000845837
0.000812418
0.000787477
0.000766772
0.00074784
0.000729507
0.000711394
0.000693514
0.00067602
0.000659068
0.000642771
0.000627191
0.000612357
0.000598283
0.00058498
0.000572464
0.000560761
0.000549905
0.000539939
0.000530912
0.000522877
0.000515889
0.000510009
0.000505297
0.000501814
0.000499825
0.000499116
0.000499575
0.000501719
0.000505542
0.000511133
0.000518609
0.000528113
0.000539801
0.000553851
0.000570456
0.000589829
0.000612199
0.000637811
0.000666922
0.000699806
0.000736752
0.000778073
0.000824121
0.000875321
0.000932229
0.000995616
0.00106662
0.00114695
0.00123913
0.00134682
0.00147488
0.00162902
0.00181409
0.00203046
0.00226824
0.00250083
0.00264098
0.002671
0.00259238
0.00240358
0.00233148
0.00247437
0.00300857
0.00316023
0.000557131
0.000538943
0.00214259
0.00264587
0.00281363
0.00279504
0.00260886
0.00231448
0.00197748
0.00165654
0.00138842
0.00118448
0.00103897
0.000939353
0.000872663
0.000827893
0.000796542
0.000772558
0.000752083
0.000732997
0.000714374
0.000695972
0.000677862
0.000660201
0.000643128
0.000626728
0.000611047
0.000596099
0.000581895
0.000568443
0.000555764
0.000543885
0.000532844
0.000522687
0.000513463
0.000505226
0.000498029
0.000491929
0.00048698
0.000483241
0.00048093
0.000480007
0.000480119
0.000481873
0.000485268
0.000490386
0.000497344
0.00050628
0.000517354
0.000530747
0.000546659
0.000565313
0.000586952
0.000611836
0.000640243
0.000672463
0.000708803
0.000749585
0.000795157
0.000845918
0.000902364
0.000965164
0.00103529
0.00111423
0.00120423
0.00130868
0.00143238
0.00158148
0.0017624
0.00197874
0.00222565
0.00248293
0.0026808
0.00274582
0.00270682
0.00250804
0.00236283
0.00240362
0.00284453
0.00313223
0.000546025
0.000520456
0.00211039
0.00259224
0.00275294
0.002732
0.00254873
0.00225898
0.00192672
0.00161065
0.00134806
0.00115031
0.00101096
0.000916738
0.000854207
0.000812239
0.000782466
0.000759143
0.000738757
0.00071948
0.000700583
0.000681926
0.000663616
0.000645807
0.000628616
0.000612112
0.000596325
0.000581262
0.00056693
0.00055334
0.000540514
0.000528483
0.000517288
0.000506975
0.000497595
0.000489198
0.000481836
0.00047556
0.000470424
0.000466482
0.000463879
0.000462715
0.000462582
0.000463972
0.000466967
0.000471638
0.000478095
0.000486476
0.00049694
0.000509671
0.000524876
0.000542785
0.000563655
0.000587763
0.000615405
0.000646895
0.000682561
0.000722743
0.000767797
0.000818114
0.000874148
0.00093649
0.00100598
0.00108388
0.00117217
0.00127394
0.00139377
0.00153798
0.00171406
0.00192818
0.00217961
0.00245246
0.00269979
0.00281202
0.00280929
0.00262797
0.00240594
0.00237506
0.00270222
0.00306303
0.000527586
0.000500767
0.00207613
0.00253636
0.00269039
0.00266828
0.00248971
0.00220664
0.0018808
0.00157039
0.0013133
0.00112112
0.000987098
0.000897421
0.000838319
0.000798583
0.000770003
0.000747121
0.000726731
0.000707248
0.000688096
0.000669211
0.00065072
0.00063277
0.000615463
0.000598854
0.000582959
0.000567784
0.000553334
0.000539622
0.000526672
0.000514518
0.000503202
0.000492771
0.000483273
0.000474758
0.000467272
0.000460865
0.000455585
0.000451481
0.000448624
0.000447218