/*--------------------------------*- C++ -*----------------------------------*\
  =========                 |
  \\      /  F ield         | OpenFOAM: The Open Source CFD Toolbox
   \\    /   O peration     | Website:  https://openfoam.org
    \\  /    A nd           | Version:  13
     \\/     M anipulation  |
\*---------------------------------------------------------------------------*/
FoamFile
{
    format      ascii;
    class       volScalarField;
    location    "7.1";
    object      nut;
}
// * * * * * * * * * * * * * * * * * * * * * * * * * * * * * * * * * * * * * //

dimensions      [0 2 -1 0 0 0 0];

internalField   nonuniform List<scalar> 
6400
(
9.47666e-10
4.86894e-09
1.18251e-08
1.90605e-08
2.45254e-08
2.75984e-08
2.87159e-08
2.88199e-08
2.89796e-08
3.00235e-08
3.25803e-08
3.76155e-08
4.55904e-08
5.6679e-08
7.03124e-08
8.57388e-08
1.0218e-07
1.19298e-07
1.36332e-07
1.52829e-07
1.69374e-07
1.87363e-07
2.08684e-07
2.34544e-07
2.63981e-07
2.93908e-07
3.23589e-07
3.53008e-07
3.83055e-07
4.14568e-07
4.47179e-07
4.79727e-07
5.11695e-07
5.43109e-07
5.74843e-07
6.07054e-07
6.40458e-07
6.75252e-07
7.11893e-07
7.50498e-07
7.91352e-07
8.34763e-07
8.80991e-07
9.30636e-07
9.83995e-07
1.04284e-06
1.11038e-06
1.19365e-06
1.27978e-06
1.36687e-06
1.4527e-06
1.53615e-06
1.61479e-06
1.68636e-06
1.74829e-06
1.79746e-06
1.82361e-06
1.83408e-06
1.83339e-06
1.8002e-06
1.74016e-06
1.65301e-06
1.53984e-06
1.40457e-06
1.25079e-06
1.08565e-06
9.17043e-07
7.52218e-07
5.97213e-07
4.58618e-07
3.46223e-07
2.51886e-07
1.75672e-07
1.17335e-07
7.53516e-08
4.67633e-08
2.8127e-08
1.61309e-08
7.61821e-09
1.62161e-09
4.58557e-09
3.25235e-07
1.17059e-06
1.97625e-06
2.57306e-06
2.92496e-06
3.08699e-06
3.14423e-06
3.18075e-06
3.25641e-06
3.4459e-06
3.81759e-06
4.34158e-06
4.9525e-06
5.58849e-06
6.18671e-06
6.70252e-06
7.08938e-06
7.33178e-06
7.44328e-06
7.49979e-06
7.57029e-06
7.72094e-06
7.98209e-06
8.29778e-06
8.51922e-06
8.72243e-06
8.95199e-06
9.25388e-06
9.6667e-06
1.02011e-05
1.07882e-05
1.14259e-05
1.20809e-05
1.27749e-05
1.34913e-05
1.42407e-05
1.50167e-05
1.58264e-05
1.66655e-05
1.75285e-05
1.84202e-05
1.9335e-05
2.03044e-05
2.12921e-05
2.22692e-05
2.32054e-05
2.40526e-05
2.49083e-05
2.57862e-05
2.66703e-05
2.75496e-05
2.84073e-05
2.92237e-05
2.99759e-05
3.07095e-05
3.11889e-05
3.14826e-05
3.17002e-05
3.16946e-05
3.13613e-05
3.07202e-05
2.9754e-05
2.84425e-05
2.67934e-05
2.48514e-05
2.27151e-05
2.04128e-05
1.79733e-05
1.53476e-05
1.24571e-05
9.66073e-06
7.19177e-06
5.15162e-06
3.5702e-06
2.42517e-06
1.61944e-06
1.04523e-06
4.72215e-07
8.57752e-09
1.0032e-08
8.42672e-07
3.41234e-06
5.93986e-06
7.87908e-06
9.14088e-06
9.85158e-06
1.02103e-05
1.04249e-05
1.06738e-05
1.10855e-05
1.17414e-05
1.26172e-05
1.36148e-05
1.46081e-05
1.54842e-05
1.61932e-05
1.67099e-05
1.70327e-05
1.71758e-05
1.71605e-05
1.70767e-05
1.70056e-05
1.69877e-05
1.70583e-05
1.73028e-05
1.76218e-05
1.79405e-05
1.82833e-05
1.86463e-05
1.9114e-05
1.97679e-05
2.07436e-05
2.17269e-05
2.2851e-05
2.40287e-05
2.52886e-05
2.65728e-05
2.79077e-05
2.93321e-05
3.07259e-05
3.2156e-05
3.35696e-05
3.49081e-05
3.61897e-05
3.7442e-05
3.86555e-05
3.9878e-05
4.11065e-05
4.23382e-05
4.3561e-05
4.47657e-05
4.59356e-05
4.70516e-05
4.80874e-05
4.90102e-05
4.97994e-05
5.03614e-05
5.06176e-05
5.08017e-05
5.06522e-05
5.01851e-05
4.93693e-05
4.807e-05
4.62188e-05
4.38155e-05
4.10588e-05
3.79417e-05
3.44763e-05
3.0703e-05
2.66693e-05
2.25131e-05
1.8433e-05
1.46312e-05
1.12843e-05
8.45373e-06
6.2037e-06
4.2683e-06
1.77554e-06
2.29331e-08
1.74199e-08
1.37955e-06
5.34826e-06
9.15633e-06
1.21077e-05
1.41379e-05
1.53989e-05
1.61112e-05
1.6536e-05
1.68936e-05
1.7383e-05
1.81292e-05
1.91123e-05
2.01933e-05
2.12091e-05
2.20463e-05
2.26431e-05
2.29952e-05
2.31309e-05
2.31071e-05
2.29888e-05
2.2884e-05
2.28604e-05
2.29569e-05
2.3009e-05
2.30195e-05
2.29692e-05
2.33342e-05
2.40432e-05
2.49929e-05
2.62663e-05
2.7473e-05
2.86637e-05
2.99379e-05
3.12486e-05
3.2541e-05
3.38349e-05
3.51901e-05
3.64881e-05
3.77669e-05
3.90027e-05
4.02178e-05
4.13893e-05
4.25194e-05
4.36062e-05
4.46599e-05
4.5715e-05
4.6771e-05
4.78244e-05
4.8871e-05
4.99026e-05
5.09101e-05
5.18805e-05
5.27974e-05
5.36408e-05
5.43873e-05
5.50102e-05
5.54964e-05
5.57567e-05
5.58324e-05
5.56927e-05
5.5224e-05
5.44364e-05
5.36577e-05
5.23929e-05
5.04894e-05
4.81333e-05
4.52806e-05
4.20123e-05
3.83787e-05
3.44222e-05
3.02067e-05
2.58374e-05
2.14775e-05
1.73294e-05
1.35633e-05
1.02867e-05
7.20544e-06
2.98207e-06
3.81564e-08
2.7938e-08
2.06914e-06
7.42325e-06
1.23198e-05
1.59818e-05
1.84515e-05
1.99643e-05
2.0803e-05
2.12796e-05
2.17126e-05
2.23571e-05
2.33008e-05
2.44428e-05
2.55855e-05
2.65506e-05
2.72379e-05
2.76259e-05
2.77533e-05
2.76733e-05
2.75058e-05
2.72517e-05
2.70766e-05
2.69176e-05
2.62916e-05
2.62009e-05
2.66837e-05
2.76192e-05
2.87407e-05
2.98991e-05
3.11917e-05
3.24549e-05
3.36832e-05
3.48912e-05
3.60716e-05
3.71698e-05
3.81905e-05
3.92123e-05
4.01771e-05
4.10066e-05
4.1788e-05
4.24872e-05
4.31344e-05
4.3747e-05
4.43494e-05
4.4966e-05
4.56009e-05
4.62304e-05
4.68679e-05
4.75138e-05
4.81722e-05
4.88447e-05
4.95316e-05
5.02312e-05
5.09391e-05
5.16481e-05
5.23464e-05
5.30181e-05
5.36329e-05
5.41571e-05
5.45365e-05
5.46898e-05
5.46167e-05
5.41256e-05
5.30319e-05
5.22193e-05
5.10991e-05
4.92985e-05
4.69957e-05
4.42594e-05
4.11443e-05
3.76868e-05
3.391e-05
2.98467e-05
2.55818e-05
2.13167e-05
1.72247e-05
1.33803e-05
9.40216e-06
3.82264e-06
4.86469e-08
4.29522e-08
2.9973e-06
9.87428e-06
1.57797e-05
1.99441e-05
2.25965e-05
2.41193e-05
2.49185e-05
2.54134e-05
2.59794e-05
2.68288e-05
2.79445e-05
2.91431e-05
3.02059e-05
3.09766e-05
3.1392e-05
3.14691e-05
3.13344e-05
3.0921e-05
3.05991e-05
3.0095e-05
2.91915e-05
2.90238e-05
2.96974e-05
3.06434e-05
3.1656e-05
3.28069e-05
3.39578e-05
3.50649e-05
3.61315e-05
3.70466e-05
3.79271e-05
3.87377e-05
3.94379e-05
4.00063e-05
4.05089e-05
4.09149e-05
4.1314e-05
4.1617e-05
4.18805e-05
4.21143e-05
4.23362e-05
4.25375e-05
4.27274e-05
4.29117e-05
4.309e-05
4.32672e-05
4.34524e-05
4.36542e-05
4.38827e-05
4.41499e-05
4.44677e-05
4.48484e-05
4.53021e-05
4.58307e-05
4.64239e-05
4.71014e-05
4.7831e-05
4.85861e-05
4.93099e-05
4.99773e-05
5.04544e-05
5.06325e-05
5.05248e-05
4.96579e-05
4.91939e-05
4.79974e-05
4.62449e-05
4.39988e-05
4.13531e-05
3.83803e-05
3.51123e-05
3.1534e-05
2.76122e-05
2.3486e-05
1.92928e-05
1.51714e-05
1.06917e-05
4.22388e-06
5.2466e-08
6.37959e-08
4.208e-06
1.2735e-05
1.95384e-05
2.4013e-05
2.66576e-05
2.80494e-05
2.87509e-05
2.92754e-05
2.99822e-05
3.09778e-05
3.21382e-05
3.32359e-05
3.40699e-05
3.45349e-05
3.46226e-05
3.41626e-05
3.37089e-05
3.3278e-05
3.20908e-05
3.17395e-05
3.21796e-05
3.30273e-05
3.37664e-05
3.46561e-05
3.55441e-05
3.64391e-05
3.722e-05
3.79043e-05
3.85147e-05
3.90556e-05
3.95022e-05
3.98527e-05
4.01103e-05
4.02931e-05
4.04248e-05
4.05066e-05
4.05596e-05
4.05561e-05
4.05482e-05
4.05369e-05
4.04771e-05
4.04189e-05
4.03334e-05
4.02465e-05
4.01391e-05
4.0026e-05
3.99021e-05
3.97788e-05
3.96606e-05
3.95614e-05
3.94987e-05
3.94989e-05
3.96016e-05
3.98578e-05
4.01943e-05
4.0731e-05
4.1455e-05
4.23406e-05
4.33018e-05
4.43645e-05
4.53816e-05
4.63165e-05
4.67992e-05
4.69031e-05
4.63572e-05
4.61726e-05
4.49756e-05
4.31271e-05
4.0771e-05
3.80475e-05
3.50684e-05
3.18755e-05
2.83936e-05
2.44909e-05
2.04537e-05
1.6083e-05
1.09903e-05
4.21304e-06
5.0942e-08
9.17084e-08
5.72121e-06
1.59366e-05
2.34917e-05
2.8098e-05
3.06053e-05
3.18033e-05
3.24024e-05
3.29557e-05
3.37461e-05
3.47621e-05
3.5805e-05
3.66389e-05
3.70964e-05
3.71443e-05
3.66216e-05
3.61536e-05
3.51365e-05
3.43827e-05
3.4299e-05
3.48174e-05
3.52045e-05
3.58191e-05
3.64281e-05
3.71702e-05
3.77961e-05
3.83591e-05
3.8795e-05
3.91482e-05
3.94168e-05
3.96101e-05
3.97307e-05
3.9794e-05
3.98138e-05
3.98053e-05
3.97775e-05
3.97318e-05
3.96735e-05
3.9601e-05
3.95261e-05
3.94024e-05
3.93191e-05
3.92423e-05
3.90593e-05
3.89287e-05
3.87536e-05
3.85781e-05
3.83819e-05
3.81704e-05
3.79392e-05
3.76896e-05
3.74177e-05
3.71214e-05
3.67964e-05
3.64444e-05
3.62678e-05
3.62243e-05
3.64847e-05
3.71726e-05
3.7992e-05
3.91492e-05
4.04646e-05
4.18291e-05
4.31148e-05
4.39438e-05
4.41702e-05
4.39436e-05
4.39196e-05
4.25505e-05
4.04602e-05
3.78272e-05
3.48471e-05
3.17045e-05
2.84722e-05
2.49455e-05
2.09271e-05
1.65748e-05
1.11555e-05
4.10301e-06
4.73527e-08
1.27567e-07
7.52087e-06
1.93901e-05
2.74848e-05
3.21057e-05
3.44034e-05
3.53877e-05
3.58826e-05
3.64256e-05
3.71975e-05
3.80918e-05
3.88774e-05
3.93462e-05
3.92382e-05
3.87557e-05
3.82577e-05
3.69511e-05
3.64338e-05
3.64639e-05
3.65099e-05
3.67678e-05
3.71948e-05
3.7703e-05
3.81734e-05
3.8631e-05
3.89552e-05
3.92086e-05
3.93653e-05
3.94704e-05
3.9524e-05
3.95474e-05
3.955e-05
3.95461e-05
3.95416e-05
3.95398e-05
3.95403e-05
3.95412e-05
3.954e-05
3.95299e-05
3.94947e-05
3.94681e-05
3.94483e-05
3.93598e-05
3.92744e-05
3.91753e-05
3.90466e-05
3.89e-05
3.87263e-05
3.85267e-05
3.8295e-05
3.80313e-05
3.77288e-05
3.7381e-05
3.6982e-05
3.65197e-05
3.59979e-05
3.54085e-05
3.4775e-05
3.41667e-05
3.42635e-05
3.49015e-05
3.60366e-05
3.74841e-05
3.91233e-05
4.07477e-05
4.18239e-05
4.21392e-05
4.21553e-05
4.22306e-05
4.06248e-05
3.82035e-05
3.51651e-05
3.17969e-05
2.83728e-05
2.49326e-05
2.11261e-05
1.66135e-05
1.09066e-05
3.81453e-06
4.33219e-08
1.71724e-07
9.53186e-06
2.29271e-05
3.14354e-05
3.59779e-05
3.8025e-05
3.87853e-05
3.91519e-05
3.96105e-05
4.02448e-05
4.08875e-05
4.13102e-05
4.10925e-05
4.05524e-05
3.99805e-05
3.88802e-05
3.83109e-05
3.80643e-05
3.78098e-05
3.7958e-05
3.8206e-05
3.85348e-05
3.88478e-05
3.90949e-05
3.92835e-05
3.93805e-05
3.9442e-05
3.94656e-05
3.94888e-05
3.95138e-05
3.95572e-05
3.96193e-05
3.97023e-05
3.98007e-05
3.99083e-05
4.0016e-05
4.01143e-05
4.02129e-05
4.02715e-05
4.03013e-05
4.03499e-05
4.03332e-05
4.02972e-05
4.02347e-05
4.01446e-05
4.00267e-05
3.98852e-05
3.97199e-05
3.95344e-05
3.93283e-05
3.90934e-05
3.88241e-05
3.85088e-05
3.81301e-05
3.76793e-05
3.71343e-05
3.64758e-05
3.56934e-05
3.4806e-05
3.38866e-05
3.29783e-05
3.27986e-05
3.3701e-05
3.51474e-05
3.70093e-05
3.88827e-05
4.02411e-05
4.06647e-05
4.07896e-05
4.08422e-05
3.89727e-05
3.61388e-05
3.26086e-05
2.87784e-05
2.49765e-05
2.11002e-05
1.65783e-05
1.06575e-05
3.55206e-06
4.00633e-08
2.24866e-07
1.15917e-05
2.64073e-05
3.52573e-05
3.96682e-05
4.14421e-05
4.19601e-05
4.2149e-05
4.24304e-05
4.28111e-05
4.30956e-05
4.2786e-05
4.21539e-05
4.15066e-05
4.05724e-05
3.98778e-05
3.92863e-05
3.89661e-05
3.88427e-05
3.89694e-05
3.91135e-05
3.92774e-05
3.93903e-05
3.9454e-05
3.9485e-05
3.9494e-05
3.95222e-05
3.95734e-05
3.96677e-05
3.97992e-05
3.99688e-05
4.01647e-05
4.0378e-05
4.05951e-05
4.08184e-05
4.10392e-05
4.11803e-05
4.12958e-05
4.1466e-05
4.1531e-05
4.15959e-05
4.1605e-05
4.159e-05
4.15366e-05
4.14505e-05
4.13307e-05
4.11796e-05
4.09972e-05
4.07849e-05
4.0543e-05
4.02717e-05
3.99721e-05
3.96444e-05
3.92884e-05
3.89019e-05
3.84631e-05
3.79179e-05
3.72181e-05
3.63427e-05
3.52862e-05
3.40958e-05
3.28978e-05
3.18237e-05
3.191e-05
3.33653e-05
3.52185e-05
3.7356e-05
3.89691e-05
3.94953e-05
3.96384e-05
3.95591e-05
3.73497e-05
3.40242e-05
2.99673e-05
2.563e-05
2.13323e-05
1.65853e-05
1.06466e-05
3.49546e-06
3.90816e-08
2.89681e-07
1.34895e-05
2.97357e-05
3.88904e-05
4.31402e-05
4.46224e-05
4.48666e-05
4.48115e-05
4.48191e-05
4.48443e-05
4.4424e-05
4.36784e-05
4.29748e-05
4.21109e-05
4.13212e-05
4.0397e-05
3.99031e-05
3.96261e-05
3.95297e-05
3.95581e-05
3.9571e-05
3.95888e-05
3.95779e-05
3.95707e-05
3.95877e-05
3.96485e-05
3.97719e-05
3.99528e-05
4.01903e-05
4.04676e-05
4.07735e-05
4.1091e-05
4.1422e-05
4.17566e-05
4.20472e-05
4.22441e-05
4.24636e-05
4.26896e-05
4.28479e-05
4.29613e-05
4.30446e-05
4.30819e-05
4.30844e-05
4.30456e-05
4.2969e-05
4.28538e-05
4.27017e-05
4.25129e-05
4.22885e-05
4.2029e-05
4.17347e-05
4.1405e-05
4.10386e-05
4.06336e-05
4.01877e-05
3.96992e-05
3.91675e-05
3.85892e-05
3.78979e-05
3.69963e-05
3.58383e-05
3.44867e-05
3.30265e-05
3.16932e-05
3.07594e-05
3.18805e-05
3.37069e-05
3.60613e-05
3.78476e-05
3.84365e-05
3.85029e-05
3.81882e-05
3.55165e-05
3.16669e-05
2.70736e-05
2.21688e-05
1.70438e-05
1.09117e-05
3.65006e-06
4.06461e-08
3.61784e-07
1.53706e-05
3.29021e-05
4.2301e-05
4.6364e-05
4.75336e-05
4.7461e-05
4.70882e-05
4.67312e-05
4.61311e-05
4.52373e-05
4.44927e-05
4.36014e-05
4.2688e-05
4.15285e-05
4.075e-05
4.03065e-05
4.00339e-05
3.98963e-05
3.98175e-05
3.9739e-05
3.96917e-05
3.96712e-05
3.97147e-05
3.98322e-05
4.00309e-05
4.03058e-05
4.06403e-05
4.10195e-05
4.14229e-05
4.18361e-05
4.2261e-05
4.26749e-05
4.30476e-05
4.33583e-05
4.36567e-05
4.3916e-05
4.4164e-05
4.43726e-05
4.45238e-05
4.46376e-05
4.47067e-05
4.47337e-05
4.47159e-05
4.46545e-05
4.45489e-05
4.43999e-05
4.42084e-05
4.39753e-05
4.37018e-05
4.33888e-05
4.30365e-05
4.26438e-05
4.22083e-05
4.17253e-05
4.11891e-05
4.05937e-05
3.99361e-05
3.922e-05
3.84489e-05
3.75162e-05
3.63125e-05
3.48282e-05
3.3165e-05
3.15143e-05
3.02294e-05
3.06257e-05
3.24627e-05
3.49232e-05
3.6787e-05
3.73604e-05
3.72551e-05
3.65053e-05
3.32982e-05
2.89302e-05
2.37332e-05
1.81305e-05
1.17498e-05
4.12523e-06
4.69469e-08
4.39084e-07
1.71977e-05
3.58635e-05
4.54566e-05
4.9314e-05
5.01484e-05
4.97111e-05
4.8947e-05
4.80508e-05
4.6941e-05
4.61466e-05
4.50686e-05
4.40269e-05
4.26927e-05
4.16354e-05
4.09483e-05
4.05147e-05
4.02192e-05
4.00294e-05
3.98919e-05
3.98022e-05
3.97901e-05
3.98614e-05
4.00371e-05
4.03088e-05
4.06667e-05
4.10903e-05
4.1558e-05
4.20512e-05
4.25524e-05
4.30495e-05
4.35325e-05
4.39862e-05
4.44128e-05
4.48092e-05
4.51577e-05
4.54882e-05
4.57453e-05
4.59921e-05
4.62184e-05
4.63676e-05
4.64765e-05
4.65359e-05
4.65443e-05
4.65017e-05
4.64067e-05
4.62597e-05
4.60614e-05
4.58133e-05
4.55175e-05
4.51766e-05
4.4793e-05
4.43685e-05
4.39029e-05
4.33936e-05
4.2834e-05
4.22135e-05
4.15187e-05
4.07379e-05
3.98689e-05
3.8929e-05
3.78911e-05
3.66285e-05
3.50062e-05
3.32069e-05
3.13812e-05
2.98632e-05
2.96201e-05
3.14049e-05
3.39188e-05
3.57435e-05
3.61672e-05
3.59153e-05
3.43366e-05
3.06376e-05
2.56181e-05
1.97591e-05
1.30431e-05
5.00562e-06
6.17866e-08
5.19066e-07
1.89299e-05
3.85803e-05
4.83321e-05
5.19728e-05
5.24559e-05
5.16178e-05
5.03672e-05
4.89587e-05
4.80574e-05
4.66177e-05
4.544e-05
4.39251e-05
4.26158e-05
4.16496e-05
4.10084e-05
4.05665e-05
4.02536e-05
4.00489e-05
3.9929e-05
3.99117e-05
4.00138e-05
4.02337e-05
4.0569e-05
4.09964e-05
4.14952e-05
4.20402e-05
4.2611e-05
4.31909e-05
4.37665e-05
4.43286e-05
4.48696e-05
4.53836e-05
4.58697e-05
4.63237e-05
4.67544e-05
4.71588e-05
4.74813e-05
4.77492e-05
4.8028e-05
4.82596e-05
4.84053e-05
4.85079e-05
4.8547e-05
4.85271e-05
4.84441e-05
4.82981e-05
4.80892e-05
4.78188e-05
4.74896e-05
4.71056e-05
4.66716e-05
4.6193e-05
4.56747e-05
4.51194e-05
4.4526e-05
4.38874e-05
4.31883e-05
4.2406e-05
4.15133e-05
4.04897e-05
3.93421e-05
3.80602e-05
3.66289e-05
3.49967e-05
3.30792e-05
3.11574e-05
2.93868e-05
2.87675e-05
3.04403e-05
3.30766e-05
3.46172e-05
3.47668e-05
3.43943e-05
3.17719e-05
2.72934e-05
2.15352e-05
1.46133e-05
6.01087e-06
8.50633e-08
5.99237e-07
2.05315e-05
4.10271e-05
5.09174e-05
5.43314e-05
5.44652e-05
5.31362e-05
5.14916e-05
5.02508e-05
4.84437e-05
4.70116e-05
4.53017e-05
4.37352e-05
4.2481e-05
4.15823e-05
4.09633e-05
4.05235e-05
4.02286e-05
4.00686e-05
4.00384e-05
4.01521e-05
4.04068e-05
4.07868e-05
4.12716e-05
4.18317e-05
4.24434e-05
4.30841e-05
4.37372e-05
4.43901e-05
4.50339e-05
4.56624e-05
4.62712e-05
4.6857e-05
4.74176e-05
4.79491e-05
4.84487e-05
4.89316e-05
4.93693e-05
4.96633e-05
4.99744e-05
5.0314e-05
5.05018e-05
5.06531e-05
5.07288e-05
5.07361e-05
5.06692e-05
5.05271e-05
5.03089e-05
5.00152e-05
4.96482e-05
4.92121e-05
4.87129e-05
4.81586e-05
4.75584e-05
4.69217e-05
4.6256e-05
4.55642e-05
4.48411e-05
4.40695e-05
4.32179e-05
4.22417e-05
4.10932e-05
3.98055e-05
3.83202e-05
3.64537e-05
3.46921e-05
3.28202e-05
3.07868e-05
2.87877e-05
2.79982e-05
2.96235e-05
3.21748e-05
3.34973e-05
3.31328e-05
3.21686e-05
2.84411e-05
2.30789e-05
1.62041e-05
7.03873e-06
1.14774e-07
6.78264e-07
2.19501e-05
4.31993e-05
5.32488e-05
5.63616e-05
5.59723e-05
5.4378e-05
5.26922e-05
5.06148e-05
4.88292e-05
4.69018e-05
4.50609e-05
4.34971e-05
4.23042e-05
4.14552e-05
4.08607e-05
4.04557e-05
4.02271e-05
4.01678e-05
4.02739e-05
4.05427e-05
4.09528e-05
4.14776e-05
4.20882e-05
4.2756e-05
4.34595e-05
4.4181e-05
4.49087e-05
4.5634e-05
4.63513e-05
4.70564e-05
4.77457e-05
4.84156e-05
4.9062e-05
4.96801e-05
5.02647e-05
5.08249e-05
5.13505e-05
5.17332e-05
5.20872e-05
5.24864e-05
5.27484e-05
5.29441e-05
5.30623e-05
5.31011e-05
5.30562e-05
5.29247e-05
5.27045e-05
5.23948e-05
5.19961e-05
5.15115e-05
5.09462e-05
5.03086e-05
4.96099e-05
4.88638e-05
4.80851e-05
4.72876e-05
4.648e-05
4.56612e-05
4.48144e-05
4.39013e-05
4.28601e-05
4.16116e-05
4.02068e-05
3.85172e-05
3.62526e-05
3.42632e-05
3.24084e-05
3.02502e-05
2.80593e-05
2.73195e-05
2.88999e-05
3.11064e-05
3.20566e-05
3.12668e-05
2.89534e-05
2.4207e-05
1.76086e-05
7.95891e-06
1.49061e-07
7.5423e-07
2.32184e-05
4.50996e-05
5.51605e-05
5.78937e-05
5.73461e-05
5.57734e-05
5.34935e-05
5.09969e-05
4.88081e-05
4.66704e-05
4.47662e-05
4.32355e-05
4.21019e-05
4.13e-05
4.07527e-05
4.04236e-05
4.03042e-05
4.03813e-05
4.06408e-05
4.10617e-05
4.16113e-05
4.22581e-05
4.29727e-05
4.37308e-05
4.45155e-05
4.53141e-05
4.61187e-05
4.69236e-05
4.77246e-05
4.85175e-05
4.92979e-05
5.00606e-05
5.07996e-05
5.15084e-05
5.21802e-05
5.28227e-05
5.34332e-05
5.38987e-05
5.42999e-05
5.47511e-05
5.50876e-05
5.53265e-05
5.54881e-05
5.55616e-05
5.55442e-05
5.54315e-05
5.52202e-05
5.49074e-05
5.44919e-05
5.39742e-05
5.33573e-05
5.26476e-05
5.18551e-05
5.09946e-05
5.00844e-05
4.91459e-05
4.82e-05
4.72629e-05
4.63396e-05
4.54151e-05
4.4446e-05
4.33531e-05
4.20213e-05
4.0512e-05
3.84064e-05
3.59261e-05
3.37116e-05
3.183e-05
2.9471e-05
2.70553e-05
2.67488e-05
2.83983e-05
2.98958e-05
3.00733e-05
2.89709e-05
2.48971e-05
1.86952e-05
8.69951e-06
1.86319e-07
8.24294e-07
2.42995e-05
4.66262e-05
5.66343e-05
5.91209e-05
5.8758e-05
5.65961e-05
5.37833e-05
5.12031e-05
4.86488e-05
4.63698e-05
4.44495e-05
4.29678e-05
4.18941e-05
4.11515e-05
4.0683e-05
4.04653e-05
4.0482e-05
4.07081e-05
4.11164e-05
4.16732e-05
4.23419e-05
4.30914e-05
4.38958e-05
4.47363e-05
4.56005e-05
4.64798e-05
4.73687e-05
4.82626e-05
4.91567e-05
5.00454e-05
5.09224e-05
5.17805e-05
5.26118e-05
5.34086e-05
5.41631e-05
5.48835e-05
5.55696e-05
5.61043e-05
5.65501e-05
5.7048e-05
5.74483e-05
5.77277e-05
5.79299e-05
5.80388e-05
5.80523e-05
5.79654e-05
5.77737e-05
5.74728e-05
5.70592e-05
5.65305e-05
5.58865e-05
5.51299e-05
5.42673e-05
5.33108e-05
5.22781e-05
5.11928e-05
5.00832e-05
4.89786e-05
4.79039e-05
4.68709e-05
4.58679e-05
4.48483e-05
4.37192e-05
4.23341e-05
4.05796e-05
3.80759e-05
3.54241e-05
3.30455e-05
3.10523e-05
2.83655e-05
2.58193e-05
2.60744e-05
2.78948e-05
2.89408e-05
2.78736e-05
2.5102e-05
1.94179e-05
9.25853e-06
2.25294e-07
8.85919e-07
2.51661e-05
4.77757e-05
5.77406e-05
6.03409e-05
5.97666e-05
5.72746e-05
5.41571e-05
5.11529e-05
4.83996e-05
4.6036e-05
4.41316e-05
4.27085e-05
4.1702e-05
4.10395e-05
4.06789e-05
4.05948e-05
4.07567e-05
4.11274e-05
4.16695e-05
4.23438e-05
4.31147e-05
4.39544e-05
4.48421e-05
4.57642e-05
4.67117e-05
4.76786e-05
4.86598e-05
4.96497e-05
5.06418e-05
5.16283e-05
5.26007e-05
5.35498e-05
5.44666e-05
5.53422e-05
5.61687e-05
5.69528e-05
5.77015e-05
5.82948e-05
5.87747e-05
5.93084e-05
5.97602e-05
6.00743e-05
6.0311e-05
6.04526e-05
6.04976e-05
6.04407e-05
6.02769e-05
6.00007e-05
5.96069e-05
5.90903e-05
5.84471e-05
5.76756e-05
5.67776e-05
5.57599e-05
5.46358e-05
5.34265e-05
5.21614e-05
5.08763e-05
4.961e-05
4.83961e-05
4.7253e-05
4.61698e-05
4.50926e-05
4.39106e-05
4.24457e-05
4.03695e-05
3.75443e-05
3.47474e-05
3.22657e-05
3.00412e-05
2.70348e-05
2.48435e-05
2.5399e-05
2.66155e-05
2.68441e-05
2.50102e-05
1.97902e-05
9.59904e-06
2.66082e-07
9.37707e-07
2.58239e-05
4.85985e-05
5.86096e-05
6.12479e-05
6.0488e-05
5.75671e-05
5.42613e-05
5.10001e-05
4.80982e-05
4.56934e-05
4.38264e-05
4.24704e-05
4.1544e-05
4.09834e-05
4.07502e-05
4.08075e-05
4.11104e-05
4.16127e-05
4.2272e-05
4.30485e-05
4.39103e-05
4.48343e-05
4.58047e-05
4.68116e-05
4.78482e-05
4.89087e-05
4.9987e-05
5.10752e-05
5.21644e-05
5.32444e-05
5.43046e-05
5.53346e-05
5.63244e-05
5.72652e-05
5.81494e-05
5.89779e-05
5.97748e-05
6.04198e-05
6.09175e-05
6.14724e-05
6.1964e-05
6.23042e-05
6.25674e-05
6.27363e-05
6.281e-05
6.27835e-05
6.26519e-05
6.24094e-05
6.20491e-05
6.1564e-05
6.09472e-05
6.01927e-05
5.92967e-05
5.82596e-05
5.70879e-05
5.57963e-05
5.44097e-05
5.29643e-05
5.15052e-05
5.00817e-05
4.87378e-05
4.74977e-05
4.63491e-05
4.52241e-05
4.39799e-05
4.23151e-05
3.97422e-05
3.67777e-05
3.3936e-05
3.13208e-05
2.86833e-05
2.53317e-05
2.40992e-05
2.50012e-05
2.56939e-05
2.42859e-05
1.9815e-05
9.74914e-06
3.08047e-07
9.78912e-07
2.62769e-05
4.91452e-05
5.91984e-05
6.19202e-05
6.10039e-05
5.79358e-05
5.42613e-05
5.07799e-05
4.77719e-05
4.53582e-05
4.35437e-05
4.22644e-05
4.14325e-05
4.09903e-05
4.0893e-05
4.10884e-05
4.15211e-05
4.21404e-05
4.29026e-05
4.37708e-05
4.47176e-05
4.57246e-05
4.67799e-05
4.78759e-05
4.90059e-05
5.0163e-05
5.13384e-05
5.25218e-05
5.37014e-05
5.48652e-05
5.60011e-05
5.70979e-05
5.81457e-05
5.9136e-05
6.00618e-05
6.09176e-05
6.17465e-05
6.24389e-05
6.29368e-05
6.34963e-05
6.40168e-05
6.43737e-05
6.46538e-05
6.48427e-05
6.49394e-05
6.49404e-05
6.48411e-05
6.46358e-05
6.43173e-05
6.38774e-05
6.33067e-05
6.25957e-05
6.17356e-05
6.07201e-05
5.95477e-05
5.82241e-05
5.6766e-05
5.5203e-05
5.3579e-05
5.19502e-05
5.03781e-05
4.89173e-05
4.75974e-05
4.64041e-05
4.52611e-05
4.40143e-05
4.18797e-05
3.88499e-05
3.59231e-05
3.29101e-05
3.01231e-05
2.68639e-05
2.35661e-05
2.32126e-05
2.35403e-05
2.3298e-05
1.97016e-05
9.89903e-06
3.54637e-07
1.00937e-06
2.65393e-05
4.94527e-05
5.95318e-05
6.24212e-05
6.125e-05
5.80496e-05
5.41686e-05
5.05176e-05
4.74397e-05
4.50408e-05
4.32905e-05
4.20975e-05
4.13729e-05
4.1058e-05
4.10953e-05
4.14195e-05
4.1969e-05
4.26923e-05
4.3547e-05
4.45004e-05
4.55299e-05
4.66209e-05
4.7764e-05
4.89519e-05
5.01767e-05
5.14288e-05
5.26966e-05
5.39671e-05
5.52264e-05
5.64609e-05
5.7658e-05
5.88064e-05
5.98965e-05
6.09205e-05
6.18719e-05
6.27458e-05
6.35864e-05
6.4323e-05
6.48085e-05
6.53545e-05
6.58944e-05
6.62583e-05
6.65457e-05
6.67457e-05
6.6858e-05
6.68803e-05
6.68094e-05
6.66401e-05
6.63658e-05
6.59779e-05
6.54656e-05
6.4817e-05
6.40191e-05
6.30599e-05
6.19298e-05
6.0625e-05
5.9151e-05
5.75268e-05
5.57881e-05
5.39891e-05
5.21992e-05
5.04928e-05
4.89323e-05
4.75433e-05
4.62896e-05
4.50494e-05
4.35949e-05
4.09805e-05
3.78088e-05
3.47776e-05
3.15265e-05
2.8526e-05
2.45539e-05
2.24772e-05
2.24708e-05
2.25771e-05
1.95848e-05
1.02728e-05
4.14974e-07
1.0296e-06
2.66363e-05
4.95074e-05
5.95809e-05
6.25878e-05
6.15166e-05
5.80723e-05
5.40128e-05
5.02334e-05
4.71148e-05
4.47482e-05
4.3071e-05
4.19732e-05
4.13642e-05
4.1178e-05
4.1343e-05
4.17844e-05
4.24386e-05
4.32554e-05
4.41956e-05
4.52308e-05
4.63425e-05
4.75189e-05
4.87512e-05
5.00309e-05
5.13478e-05
5.26893e-05
5.4041e-05
5.53874e-05
5.67134e-05
5.80046e-05
5.92485e-05
6.04342e-05
6.1553e-05
6.25981e-05
6.35642e-05
6.44476e-05
6.52802e-05
6.60387e-05
6.65278e-05
6.70386e-05
6.75887e-05
6.79511e-05
6.82365e-05
6.84383e-05
6.85574e-05
6.8593e-05
6.85433e-05
6.84048e-05
6.81718e-05
6.7836e-05
6.73869e-05
6.68109e-05
6.60925e-05
6.52149e-05
6.41618e-05
6.292e-05
6.14834e-05
5.98574e-05
5.80651e-05
5.61509e-05
5.41828e-05
5.22468e-05
5.04339e-05
4.88168e-05
4.74212e-05
4.6198e-05
4.50014e-05
4.29091e-05
3.9733e-05
3.66597e-05
3.32932e-05
2.97585e-05
2.61282e-05
2.2247e-05
2.11997e-05
2.09803e-05
1.92595e-05
1.092e-05
4.96196e-07
1.03958e-06
2.65648e-05
4.93046e-05
5.95082e-05
6.2718e-05
6.15448e-05
5.80038e-05
5.38136e-05
4.99421e-05
4.6806e-05
4.44842e-05
4.28873e-05
4.18913e-05
4.14012e-05
4.13397e-05
4.16224e-05
4.21696e-05
4.29184e-05
4.3821e-05
4.48419e-05
4.5957e-05
4.71507e-05
4.84126e-05
4.9733e-05
5.11013e-05
5.25043e-05
5.39264e-05
5.53508e-05
5.67607e-05
5.81401e-05
5.94747e-05
6.07524e-05
6.19635e-05
6.31003e-05
6.4157e-05
6.51298e-05
6.60164e-05
6.68247e-05
6.75846e-05
6.80969e-05
6.85538e-05
6.91048e-05
6.9459e-05
6.97339e-05
6.99285e-05
7.00451e-05
7.00846e-05
7.00472e-05
6.9931e-05
6.9732e-05
6.94434e-05
6.90553e-05
6.85541e-05
6.79231e-05
6.71423e-05
6.61902e-05
6.50456e-05
6.36913e-05
6.21189e-05
6.03354e-05
5.83699e-05
5.62788e-05
5.41468e-05
5.20783e-05
5.01759e-05
4.85095e-05
4.70803e-05
4.57932e-05
4.44388e-05
4.17041e-05
3.83496e-05
3.51055e-05
3.15482e-05
2.7632e-05
2.32131e-05
2.08454e-05
1.95965e-05
1.87885e-05
1.15944e-05
5.97486e-07
1.03892e-06
2.63936e-05
4.90509e-05
5.92834e-05
6.27083e-05
6.14702e-05
5.78662e-05
5.35873e-05
4.96549e-05
4.65193e-05
4.42512e-05
4.27396e-05
4.18488e-05
4.14764e-05
4.15321e-05
4.19222e-05
4.25651e-05
4.34e-05
4.43824e-05
4.54807e-05
4.6674e-05
4.79488e-05
4.92942e-05
5.0699e-05
5.21497e-05
5.36301e-05
5.51222e-05
5.66075e-05
5.80684e-05
5.94888e-05
6.08552e-05
6.21564e-05
6.33836e-05
6.45301e-05
6.55911e-05
6.65631e-05
6.74441e-05
6.82327e-05
6.89813e-05
6.95208e-05
6.99164e-05
7.04555e-05
7.07976e-05
7.1055e-05
7.12344e-05
7.13395e-05
7.13733e-05
7.13379e-05
7.12337e-05
7.10587e-05
7.08081e-05
7.04735e-05
7.00427e-05
6.94986e-05
6.882e-05
6.7982e-05
6.69573e-05
6.57193e-05
6.42466e-05
6.25295e-05
6.05785e-05
5.84328e-05
5.61668e-05
5.38884e-05
5.17249e-05
4.97926e-05
4.81554e-05
4.67855e-05
4.55452e-05
4.34354e-05
4.00662e-05
3.6993e-05
3.30576e-05
2.90135e-05
2.46908e-05
2.07348e-05
1.90937e-05
1.83837e-05
1.22228e-05
7.14662e-07
1.0333e-06
2.61262e-05
4.86223e-05
5.88645e-05
6.24885e-05
6.12935e-05
5.76743e-05
5.33462e-05
4.93796e-05
4.62585e-05
4.40499e-05
4.26263e-05
4.18412e-05
4.15819e-05
4.1746e-05
4.22334e-05
4.29631e-05
4.38773e-05
4.49347e-05
4.61073e-05
4.73765e-05
4.87296e-05
5.01545e-05
5.16375e-05
5.31623e-05
5.47101e-05
5.62609e-05
5.77955e-05
5.92961e-05
6.07472e-05
6.21362e-05
6.34529e-05
6.46896e-05
6.58403e-05
6.69008e-05
6.7868e-05
6.87394e-05
6.9513e-05
7.02367e-05
7.08089e-05
7.11622e-05
7.16543e-05
7.19873e-05
7.22222e-05
7.23793e-05
7.24649e-05
7.24838e-05
7.24401e-05
7.23366e-05
7.21739e-05
7.19495e-05
7.16574e-05
7.12872e-05
7.08231e-05
7.02441e-05
6.95235e-05
6.86301e-05
6.75301e-05
6.61911e-05
6.45876e-05
6.27104e-05
6.05766e-05
5.8241e-05
5.58012e-05
5.33923e-05
5.11613e-05
4.92232e-05
4.76074e-05
4.62138e-05
4.47969e-05
4.186e-05
3.84355e-05
3.50135e-05
3.06309e-05
2.60852e-05
2.09629e-05
1.86189e-05
1.73523e-05
1.28615e-05
8.34429e-07
1.02093e-06
2.58028e-05
4.79384e-05
5.83335e-05
6.21368e-05
6.10301e-05
5.74406e-05
5.30996e-05
4.91221e-05
4.60259e-05
4.38801e-05
4.2545e-05
4.18632e-05
4.17104e-05
4.19736e-05
4.25491e-05
4.3358e-05
4.43453e-05
4.54733e-05
4.67166e-05
4.80584e-05
4.94853e-05
5.09836e-05
5.2537e-05
5.41263e-05
5.57308e-05
5.73296e-05
5.8903e-05
6.04337e-05
6.19073e-05
6.33121e-05
6.46391e-05
6.58814e-05
6.70338e-05
6.80924e-05
6.90545e-05
6.99181e-05
7.06824e-05
7.13709e-05
7.19521e-05
7.2302e-05
7.27292e-05
7.30499e-05
7.32588e-05
7.33883e-05
7.34474e-05
7.3443e-05
7.33813e-05
7.32676e-05
7.31049e-05
7.28938e-05
7.2631e-05
7.23085e-05
7.19128e-05
7.14243e-05
7.08164e-05
7.00559e-05
6.91045e-05
6.79208e-05
6.64661e-05
6.47124e-05
6.26535e-05
6.03196e-05
5.7789e-05
5.51923e-05
5.26978e-05
5.04714e-05
4.8618e-05
4.71229e-05
4.58202e-05
4.33775e-05
3.98554e-05
3.69002e-05
3.20397e-05
2.73853e-05
2.22766e-05
1.85284e-05
1.62499e-05
1.3339e-05
9.29245e-07
1.00171e-06
2.53838e-05
4.71862e-05
5.77104e-05
6.16688e-05
6.06931e-05
5.7175e-05
5.28548e-05
4.88865e-05
4.58227e-05
4.37407e-05
4.24926e-05
4.19096e-05
4.18555e-05
4.22085e-05
4.28638e-05
4.37448e-05
4.47997e-05
4.59936e-05
4.73034e-05
4.87129e-05
5.02077e-05
5.17718e-05
5.33864e-05
5.50303e-05
5.66814e-05
5.83182e-05
5.99215e-05
6.14748e-05
6.29648e-05
6.43809e-05
6.57153e-05
6.69616e-05
6.81153e-05
6.91728e-05
7.01312e-05
7.09887e-05
7.17449e-05
7.24006e-05
7.2984e-05
7.33415e-05
7.37012e-05
7.40053e-05
7.41861e-05
7.42841e-05
7.43113e-05
7.42766e-05
7.41884e-05
7.40543e-05
7.38802e-05
7.36694e-05
7.34218e-05
7.31325e-05
7.2791e-05
7.23799e-05
7.18741e-05
7.12405e-05
7.04381e-05
6.94199e-05
6.81364e-05
6.65432e-05
6.46114e-05
6.23434e-05
5.97899e-05
5.70628e-05
5.43324e-05
5.17963e-05
4.9618e-05
4.78523e-05
4.63956e-05
4.46364e-05
4.1177e-05
3.83334e-05
3.40182e-05
2.88459e-05
2.35964e-05
1.89509e-05
1.56449e-05
1.35262e-05
9.72166e-07
9.7672e-07
2.48621e-05
4.6323e-05
5.69916e-05
6.11063e-05
6.02951e-05
5.68859e-05
5.2617e-05
4.86753e-05
4.56495e-05
4.36305e-05
4.24658e-05
4.19755e-05
4.20115e-05
4.24456e-05
4.31729e-05
4.41195e-05
4.52363e-05
4.6491e-05
4.78621e-05
4.93333e-05
5.08886e-05
5.251e-05
5.41764e-05
5.58652e-05
5.75533e-05
5.92196e-05
6.08455e-05
6.24156e-05
6.39178e-05
6.53428e-05
6.66833e-05
6.79338e-05
6.90899e-05
7.01478e-05
7.11045e-05
7.19574e-05
7.27044e-05
7.33439e-05
7.39222e-05
7.4289e-05
7.45851e-05
7.48691e-05
7.50209e-05
7.50852e-05
7.50767e-05
7.50064e-05
7.48847e-05
7.47216e-05
7.45257e-05
7.43034e-05
7.40576e-05
7.3787e-05
7.34842e-05
7.31352e-05
7.27173e-05
7.21989e-05
7.15386e-05
7.06862e-05
6.95849e-05
6.81768e-05
6.64128e-05
6.42678e-05
6.1761e-05
5.89765e-05
5.60731e-05
5.32681e-05
5.07816e-05
4.87486e-05
4.71356e-05
4.57047e-05
4.27034e-05
3.9577e-05
3.59564e-05
3.00639e-05
2.46343e-05
1.89352e-05
1.57726e-05
1.35133e-05
9.79347e-07
9.47389e-07
2.4307e-05
4.53741e-05
5.61847e-05
6.04653e-05
5.98467e-05
5.65798e-05
5.23901e-05
4.84904e-05
4.55063e-05
4.35478e-05
4.24614e-05
4.20564e-05
4.2174e-05
4.26808e-05
4.34727e-05
4.44782e-05
4.56511e-05
4.69609e-05
4.83872e-05
4.99129e-05
5.15206e-05
5.31903e-05
5.48992e-05
5.66236e-05
5.83404e-05
6.0029e-05
6.16717e-05
6.32544e-05
6.47662e-05
6.61987e-05
6.75455e-05
6.88013e-05
6.99617e-05
7.10227e-05
7.19806e-05
7.28321e-05
7.35741e-05
7.42043e-05
7.47699e-05
7.51481e-05
7.53903e-05
7.5652e-05
7.57747e-05
7.58042e-05
7.57578e-05
7.56483e-05
7.54881e-05
7.52894e-05
7.50633e-05
7.48192e-05
7.45633e-05
7.42977e-05
7.40188e-05
7.3716e-05
7.33701e-05
7.2952e-05
7.24218e-05
7.17282e-05
7.08101e-05
6.95998e-05
6.80313e-05
6.60542e-05
6.36545e-05
6.08806e-05
5.78653e-05
5.48258e-05
5.20217e-05