/*--------------------------------*- C++ -*----------------------------------*\
  =========                 |
  \\      /  F ield         | OpenFOAM: The Open Source CFD Toolbox
   \\    /   O peration     | Website:  https://openfoam.org
    \\  /    A nd           | Version:  13
     \\/     M anipulation  |
\*---------------------------------------------------------------------------*/
FoamFile
{
    format      ascii;
    class       volVectorField;
    location    "7.1";
    object      U;
}
// * * * * * * * * * * * * * * * * * * * * * * * * * * * * * * * * * * * * * //

dimensions      [0 1 -1 0 0 0 0];

internalField   nonuniform List<vector> 
6400
(
(-0.000125208 8.26115e-05 0)
(0.00043803 -0.000170588 0)
(0.00206857 -0.000429244 0)
(0.00422545 -0.000544278 0)
(0.00637334 -0.000480088 0)
(0.00816666 -0.000320704 0)
(0.00936107 -0.000128724 0)
(0.00995934 1.56653e-05 0)
(0.0100862 6.95677e-05 0)
(0.0099806 4.84189e-05 0)
(0.00976747 -2.88196e-05 0)
(0.00961367 -0.00013455 0)
(0.00958427 -0.000244321 0)
(0.00967748 -0.000333364 0)
(0.00984599 -0.000405609 0)
(0.0100114 -0.000458854 0)
(0.0101003 -0.000492912 0)
(0.0100594 -0.000496424 0)
(0.00984961 -0.000478689 0)
(0.00937716 -0.000439124 0)
(0.0086021 -0.000390525 0)
(0.00746883 -0.000341007 0)
(0.00593288 -0.000294826 0)
(0.00396734 -0.000276238 0)
(0.001537 -0.000322496 0)
(-0.00133327 -0.000435207 0)
(-0.00465976 -0.000488518 0)
(-0.00867761 -0.000321405 0)
(-0.0135046 0.000182953 0)
(-0.0191304 0.00103766 0)
(-0.026358 0.00207289 0)
(-0.0343985 0.00295505 0)
(-0.0431223 0.00367077 0)
(-0.0522238 0.00420546 0)
(-0.0614498 0.00456367 0)
(-0.0705643 0.00475825 0)
(-0.0793821 0.00481301 0)
(-0.0877456 0.00475087 0)
(-0.0955377 0.004594 0)
(-0.102659 0.00436033 0)
(-0.109033 0.00406206 0)
(-0.114598 0.00370809 0)
(-0.119306 0.00330142 0)
(-0.123134 0.00284606 0)
(-0.126045 0.00235347 0)
(-0.127874 0.00187362 0)
(-0.128673 0.00143514 0)
(-0.128671 0.000749026 0)
(-0.127272 0.000188389 0)
(-0.124958 -0.000488473 0)
(-0.121359 -0.00112875 0)
(-0.116681 -0.00179441 0)
(-0.110789 -0.00243413 0)
(-0.103788 -0.00305961 0)
(-0.0957016 -0.00366673 0)
(-0.0866394 -0.00425448 0)
(-0.0766003 -0.00477055 0)
(-0.0657759 -0.0052096 0)
(-0.0543228 -0.00554326 0)
(-0.0424468 -0.00573537 0)
(-0.0303895 -0.00575328 0)
(-0.0184339 -0.00558089 0)
(-0.00683906 -0.00521588 0)
(0.00398655 -0.00470149 0)
(0.0137088 -0.00395798 0)
(0.0220912 -0.00303744 0)
(0.0288204 -0.00196921 0)
(0.0336056 -0.00081941 0)
(0.036476 0.000339818 0)
(0.0368174 0.00157112 0)
(0.0354635 0.00222765 0)
(0.0320089 0.00281631 0)
(0.0267823 0.00302449 0)
(0.020692 0.00273555 0)
(0.0145094 0.00205189 0)
(0.00905106 0.00122145 0)
(0.00476525 0.000537277 0)
(0.00180707 0.000126275 0)
(0.000165295 -0.000165329 0)
(-0.000233001 -0.000343585 0)
(1.46706e-05 -0.000377083 0)
(0.00179462 -0.00208203 0)
(0.00519221 -0.00350748 0)
(0.00899181 -0.0039938 0)
(0.0124997 -0.00361833 0)
(0.0152969 -0.0027552 0)
(0.0172063 -0.00170012 0)
(0.0182513 -0.000737661 0)
(0.0185562 -5.35076e-05 0)
(0.0182816 0.000320354 0)
(0.0176268 0.000424979 0)
(0.016758 0.000342732 0)
(0.0157631 0.000194012 0)
(0.0146344 9.10176e-05 0)
(0.0133015 9.7078e-05 0)
(0.0116618 0.000225842 0)
(0.00962674 0.000456834 0)
(0.00713263 0.000773423 0)
(0.00406714 0.00119205 0)
(0.000325529 0.00172414 0)
(-0.00420034 0.00237403 0)
(-0.0097333 0.00315921 0)
(-0.0163738 0.00404819 0)
(-0.0241859 0.00502729 0)
(-0.0332166 0.00611375 0)
(-0.0435615 0.00731547 0)
(-0.055133 0.00865608 0)
(-0.0675856 0.0101352 0)
(-0.0805506 0.0116995 0)
(-0.0935082 0.0131869 0)
(-0.105905 0.0142923 0)
(-0.117962 0.0149866 0)
(-0.12938 0.015275 0)
(-0.140078 0.0151796 0)
(-0.149959 0.0147709 0)
(-0.158955 0.0140981 0)
(-0.167025 0.0132176 0)
(-0.174135 0.0121737 0)
(-0.180272 0.0110043 0)
(-0.185421 0.00973819 0)
(-0.18957 0.00839315 0)
(-0.192716 0.0069857 0)
(-0.19485 0.00552242 0)
(-0.195967 0.00401533 0)
(-0.196057 0.00247339 0)
(-0.195086 0.000901569 0)
(-0.193057 -0.000720746 0)
(-0.189995 -0.00242283 0)
(-0.185803 -0.00416485 0)
(-0.180559 -0.00594517 0)
(-0.174187 -0.00774549 0)
(-0.166727 -0.00955014 0)
(-0.158144 -0.0113372 0)
(-0.148467 -0.0130759 0)
(-0.137701 -0.0147328 0)
(-0.125917 -0.016256 0)
(-0.113231 -0.0176109 0)
(-0.0997393 -0.0187398 0)
(-0.0856154 -0.0195689 0)
(-0.0710778 -0.0200479 0)
(-0.0563339 -0.0201115 0)
(-0.041642 -0.0197158 0)
(-0.0272886 -0.0188349 0)
(-0.0135823 -0.0174767 0)
(-0.000808425 -0.0156065 0)
(0.0107685 -0.0132653 0)
(0.020855 -0.0104636 0)
(0.0291983 -0.00735903 0)
(0.0356498 -0.00401058 0)
(0.0400117 -0.000600517 0)
(0.0422732 0.00262115 0)
(0.0422964 0.00558559 0)
(0.0401804 0.00802098 0)
(0.0361115 0.00966693 0)
(0.0302263 0.00987428 0)
(0.0229279 0.00894514 0)
(0.0152333 0.00711862 0)
(0.0082589 0.00481918 0)
(0.00308453 0.00234541 0)
(0.000230447 0.000296173 0)
(0.000200996 -0.00161662 0)
(0.00317583 -0.00535175 0)
(0.00743445 -0.00758808 0)
(0.0114249 -0.00787132 0)
(0.0147053 -0.00678531 0)
(0.017066 -0.00498976 0)
(0.0185317 -0.00305262 0)
(0.0191625 -0.00130257 0)
(0.0190346 7.845e-05 0)
(0.0182485 0.0010076 0)
(0.0169514 0.00151511 0)
(0.0152189 0.00174418 0)
(0.0130676 0.00188915 0)
(0.0104594 0.00212421 0)
(0.00730654 0.00255776 0)
(0.00350738 0.00321606 0)
(-0.00106202 0.00408948 0)
(-0.00656171 0.00518786 0)
(-0.0131175 0.00653372 0)
(-0.0208498 0.00816135 0)
(-0.0298437 0.0100775 0)
(-0.0400794 0.0122247 0)
(-0.0515285 0.0145198 0)
(-0.0640533 0.0168428 0)
(-0.0774032 0.0190694 0)
(-0.0912768 0.0211069 0)
(-0.105307 0.0228586 0)
(-0.119179 0.0242649 0)
(-0.132553 0.0252634 0)
(-0.14517 0.0258339 0)
(-0.156864 0.0259689 0)
(-0.167583 0.0256643 0)
(-0.177257 0.0249693 0)
(-0.185953 0.0239177 0)
(-0.193668 0.022554 0)
(-0.200439 0.0209493 0)
(-0.206291 0.0191491 0)
(-0.21125 0.0171996 0)
(-0.215327 0.0151302 0)
(-0.218538 0.0129762 0)
(-0.220891 0.0107487 0)
(-0.222387 0.00845961 0)
(-0.223024 0.00611742 0)
(-0.222794 0.0037215 0)
(-0.221688 0.00127282 0)
(-0.219694 -0.00123508 0)
(-0.216767 -0.00382 0)
(-0.2129 -0.00647338 0)
(-0.208068 -0.00916758 0)
(-0.202254 -0.0119124 0)
(-0.195427 -0.0146858 0)
(-0.187581 -0.0174705 0)
(-0.178702 -0.0202359 0)
(-0.168796 -0.0229412 0)
(-0.157879 -0.0255302 0)
(-0.145994 -0.0279307 0)
(-0.133219 -0.0300732 0)
(-0.119646 -0.0318657 0)
(-0.105394 -0.0332088 0)
(-0.0906514 -0.0340122 0)
(-0.0756328 -0.0341881 0)
(-0.0605671 -0.0336563 0)
(-0.0457386 -0.0323754 0)
(-0.0314536 -0.0303519 0)
(-0.0179839 -0.0275814 0)
(-0.00554726 -0.0240966 0)
(0.00556266 -0.0199607 0)
(0.0151232 -0.0152954 0)
(0.0230364 -0.0102564 0)
(0.0291591 -0.00503008 0)
(0.0334535 0.000157031 0)
(0.0358982 0.00507883 0)
(0.0363581 0.00938417 0)
(0.0347592 0.0127542 0)
(0.0313811 0.0150674 0)
(0.026329 0.015645 0)
(0.0197658 0.0145918 0)
(0.0125912 0.0119844 0)
(0.00589028 0.00795031 0)
(0.000786589 0.00297163 0)
(0.000419655 -0.00356054 0)
(0.00424349 -0.00946833 0)
(0.00861293 -0.0118177 0)
(0.0121247 -0.0113212 0)
(0.014656 -0.00924725 0)
(0.0162021 -0.0065285 0)
(0.0168635 -0.00373706 0)
(0.0167327 -0.00121573 0)
(0.0158893 0.000838141 0)
(0.0143916 0.00235422 0)
(0.012237 0.00341449 0)
(0.00940254 0.00420777 0)
(0.00583652 0.00496724 0)
(0.00146822 0.00589571 0)
(-0.00377724 0.00711376 0)
(-0.00999886 0.00867191 0)
(-0.0173172 0.0105855 0)
(-0.0258519 0.012858 0)
(-0.0356832 0.0154785 0)
(-0.0468244 0.0184131 0)
(-0.0591891 0.0215688 0)
(-0.0725789 0.0247999 0)
(-0.0867023 0.0279292 0)
(-0.101195 0.0307885 0)
(-0.115759 0.0332837 0)
(-0.130045 0.0352302 0)
(-0.143764 0.0365295 0)
(-0.156634 0.0371983 0)
(-0.16849 0.0373016 0)
(-0.179294 0.0368864 0)
(-0.189022 0.0360138 0)
(-0.197735 0.0347227 0)
(-0.205472 0.0330506 0)
(-0.212308 0.0310686 0)
(-0.21828 0.0288225 0)
(-0.223454 0.0263679 0)
(-0.227861 0.023745 0)
(-0.231532 0.0209957 0)
(-0.234485 0.0181433 0)
(-0.236733 0.0152082 0)
(-0.238279 0.0122024 0)
(-0.239118 0.00913076 0)
(-0.239243 0.00599364 0)
(-0.238639 0.00278755 0)
(-0.237288 -0.000490836 0)
(-0.235165 -0.00384765 0)
(-0.232235 -0.00728276 0)
(-0.228474 -0.0108155 0)
(-0.22385 -0.0144306 0)
(-0.218329 -0.0181211 0)
(-0.211877 -0.0218637 0)
(-0.204472 -0.0256363 0)
(-0.196089 -0.0294026 0)
(-0.186713 -0.03311 0)
(-0.176337 -0.0366829 0)
(-0.164977 -0.0400234 0)
(-0.152674 -0.043031 0)
(-0.139506 -0.0455952 0)
(-0.125565 -0.047573 0)
(-0.110987 -0.0488204 0)
(-0.095968 -0.049225 0)
(-0.0807213 -0.0486657 0)
(-0.0655021 -0.047068 0)
(-0.0506262 -0.044397 0)
(-0.0364446 -0.0407199 0)
(-0.0232114 -0.0360967 0)
(-0.0111765 -0.030623 0)
(-0.000558697 -0.0244256 0)
(0.008491 -0.0177415 0)
(0.0158524 -0.0108128 0)
(0.0214713 -0.00389063 0)
(0.0253604 0.00279772 0)
(0.0275656 0.00894232 0)
(0.0280982 0.01413 0)
(0.0268199 0.0180181 0)
(0.0237698 0.0203032 0)
(0.0191237 0.0205441 0)
(0.0132804 0.0185916 0)
(0.00691626 0.0142472 0)
(0.00107174 0.00675041 0)
(0.000697038 -0.00606188 0)
(0.00492587 -0.0138292 0)
(0.00878261 -0.01559 0)
(0.0114309 -0.0139836 0)
(0.0130079 -0.010822 0)
(0.0135878 -0.00716167 0)
(0.0133178 -0.00355077 0)
(0.0122843 -0.000295928 0)
(0.0105238 0.00244865 0)
(0.00802351 0.00466947 0)
(0.00471955 0.00648265 0)
(0.000523499 0.00810163 0)
(-0.00465752 0.00977072 0)
(-0.0109117 0.0116945 0)
(-0.0183215 0.0140024 0)
(-0.0269643 0.0167515 0)
(-0.0368997 0.0199483 0)
(-0.0481481 0.023558 0)
(-0.0606466 0.0274805 0)
(-0.0742207 0.0315725 0)
(-0.0885816 0.0356093 0)
(-0.103371 0.0393902 0)
(-0.118231 0.0427811 0)
(-0.132851 0.0454991 0)
(-0.146847 0.0474173 0)
(-0.159901 0.0485492 0)
(-0.171921 0.0489172 0)
(-0.182851 0.0485797 0)
(-0.19274 0.0476415 0)
(-0.201632 0.0461981 0)
(-0.209589 0.0443305 0)
(-0.216699 0.042109 0)
(-0.22301 0.0395829 0)
(-0.228582 0.0368042 0)
(-0.233465 0.0338151 0)
(-0.237703 0.0306564 0)
(-0.241323 0.0273616 0)
(-0.244348 0.0239607 0)
(-0.246793 0.0204675 0)
(-0.248662 0.016895 0)
(-0.249954 0.01325 0)
(-0.250661 0.00953014 0)
(-0.250772 0.00572861 0)
(-0.25027 0.00183699 0)
(-0.249139 -0.00215167 0)
(-0.247344 -0.00624714 0)
(-0.244851 -0.010454 0)
(-0.241622 -0.0147829 0)
(-0.237629 -0.0192345 0)
(-0.232831 -0.0238047 0)
(-0.227172 -0.0284648 0)
(-0.220614 -0.0331898 0)
(-0.213117 -0.0379398 0)
(-0.204642 -0.0426531 0)
(-0.195162 -0.0472412 0)
(-0.18466 -0.0515828 0)
(-0.173136 -0.0555459 0)
(-0.160645 -0.0590017 0)
(-0.147243 -0.0617639 0)
(-0.133026 -0.0636432 0)
(-0.118162 -0.0644949 0)
(-0.102836 -0.0641416 0)
(-0.0873012 -0.0624668 0)
(-0.0717993 -0.059399 0)
(-0.0566957 -0.0549638 0)
(-0.0424113 -0.0492916 0)
(-0.0292112 -0.0425182 0)
(-0.0173266 -0.0348423 0)
(-0.00696744 -0.0265296 0)
(0.0017156 -0.017888 0)
(0.00864953 -0.00923494 0)
(0.013843 -0.000865082 0)
(0.0173641 0.00691365 0)
(0.0192848 0.0137741 0)
(0.0196207 0.0193538 0)
(0.0183818 0.0232007 0)
(0.0155783 0.0248645 0)
(0.0114186 0.0240258 0)
(0.00626344 0.0200641 0)
(0.000938384 0.0105432 0)
(0.00100585 -0.00895947 0)
(0.00512674 -0.0178429 0)
(0.00803539 -0.0184043 0)
(0.0095682 -0.0156122 0)
(0.0100842 -0.0113607 0)
(0.00963808 -0.00680453 0)
(0.00837493 -0.00240262 0)
(0.00633863 0.00160189 0)
(0.00351208 0.0051134 0)
(-0.000173645 0.00816837 0)
(-0.00482496 0.0109176 0)
(-0.0105568 0.0135847 0)
(-0.0174713 0.0164038 0)
(-0.0256495 0.0195629 0)
(-0.0351459 0.0231719 0)
(-0.0459752 0.027254 0)
(-0.0580912 0.0317541 0)
(-0.0713685 0.0365767 0)
(-0.0855833 0.0414922 0)
(-0.100371 0.0462419 0)
(-0.11538 0.050661 0)
(-0.130259 0.0543932 0)
(-0.144549 0.0572491 0)
(-0.157884 0.0591635 0)
(-0.170127 0.0600994 0)
(-0.18128 0.0601421 0)
(-0.191392 0.0594192 0)
(-0.200536 0.0580621 0)
(-0.2088 0.056184 0)
(-0.21624 0.0538741 0)
(-0.222932 0.0512079 0)
(-0.228928 0.0482415 0)
(-0.234278 0.0450269 0)
(-0.239032 0.0416068 0)
(-0.243227 0.0380152 0)
(-0.246891 0.0342824 0)
(-0.250042 0.0304348 0)
(-0.252697 0.0264969 0)
(-0.254868 0.0224773 0)
(-0.256556 0.0183805 0)
(-0.257762 0.0142086 0)
(-0.258482 0.00995289 0)
(-0.258712 0.00559927 0)
(-0.25844 0.00113178 0)
(-0.257669 -0.00347063 0)
(-0.256365 -0.00822195 0)
(-0.2545 -0.0131269 0)
(-0.252026 -0.0181861 0)
(-0.248899 -0.023403 0)
(-0.245072 -0.0287799 0)
(-0.240487 -0.0342938 0)
(-0.235064 -0.0399076 0)
(-0.228736 -0.0455729 0)
(-0.22143 -0.0512212 0)
(-0.213134 -0.0567922 0)
(-0.203831 -0.0621837 0)
(-0.1934 -0.0671819 0)
(-0.181879 -0.0716456 0)
(-0.169305 -0.0753576 0)
(-0.155684 -0.0780644 0)
(-0.141191 -0.0795955 0)
(-0.125949 -0.0797085 0)
(-0.110205 -0.0782683 0)
(-0.0942139 -0.0751084 0)
(-0.0782633 -0.07021 0)
(-0.0627689 -0.0636641 0)
(-0.048207 -0.0557383 0)
(-0.0348398 -0.0466571 0)
(-0.0229364 -0.0367356 0)
(-0.0127121 -0.0263573 0)
(-0.00429539 -0.015926 0)
(0.00228797 -0.00582549 0)
(0.00710568 0.00359741 0)
(0.0102833 0.0120187 0)
(0.0119368 0.0191108 0)
(0.0121299 0.0244466 0)
(0.0108725 0.0275436 0)
(0.00826101 0.0279272 0)
(0.00464532 0.0246711 0)
(0.000563418 0.0136697 0)
(0.0012576 -0.0120039 0)
(0.00478272 -0.0209979 0)
(0.00639216 -0.0201255 0)
(0.00681557 -0.0160556 0)
(0.00618266 -0.0108124 0)
(0.00467604 -0.00541083 0)
(0.00236339 -0.000216518 0)
(-0.000764895 0.00459422 0)
(-0.00477453 0.00897997 0)
(-0.0097697 0.0130147 0)
(-0.0158705 0.0168653 0)
(-0.0231888 0.020747 0)
(-0.0318097 0.0248672 0)
(-0.0417781 0.0293761 0)
(-0.053086 0.0343335 0)
(-0.065643 0.0396944 0)
(-0.0793063 0.045326 0)
(-0.0937775 0.0509815 0)
(-0.108663 0.05644 0)
(-0.123629 0.0613313 0)
(-0.138205 0.0653799 0)
(-0.151907 0.0683797 0)
(-0.164524 0.0702423 0)
(-0.17603 0.0710211 0)
(-0.186483 0.070854 0)
(-0.195954 0.0698819 0)
(-0.204534 0.0682365 0)
(-0.212309 0.0660412 0)
(-0.219351 0.0633946 0)
(-0.225713 0.0603788 0)
(-0.231449 0.05706 0)
(-0.236599 0.0534859 0)
(-0.241205 0.0497015 0)
(-0.245301 0.0457436 0)
(-0.248914 0.0416442 0)
(-0.252064 0.0374311 0)
(-0.254765 0.0331307 0)
(-0.257027 0.0287593 0)
(-0.258862 0.0243216 0)
(-0.260287 0.0197802 0)
(-0.261328 0.0151434 0)
(-0.261957 0.010433 0)
(-0.262171 0.00562637 0)
(-0.261954 0.000710452 0)
(-0.261296 -0.00433425 0)
(-0.260229 -0.00953383 0)
(-0.258734 -0.0149108 0)
(-0.256816 -0.0204969 0)
(-0.254446 -0.0263167 0)
(-0.251603 -0.0324035 0)
(-0.248246 -0.0387128 0)
(-0.244277 -0.0451994 0)
(-0.239604 -0.0518364 0)
(-0.234121 -0.05856 0)
(-0.227666 -0.0652477 0)
(-0.220067 -0.0717247 0)
(-0.211217 -0.077784 0)
(-0.201082 -0.0832846 0)
(-0.189851 -0.0881334 0)
(-0.17729 -0.0918953 0)
(-0.16359 -0.0943754 0)
(-0.148801 -0.0952493 0)
(-0.133169 -0.0943414 0)
(-0.116892 -0.0914271 0)
(-0.100315 -0.0864473 0)
(-0.0837309 -0.0793697 0)
(-0.0676997 -0.070455 0)
(-0.0527284 -0.0600861 0)
(-0.0390984 -0.0485995 0)
(-0.0271117 -0.0364499 0)
(-0.0169877 -0.0241431 0)
(-0.00882712 -0.0121773 0)
(-0.00260651 -0.000996259 0)
(0.0018177 0.0090347 0)
(0.00464411 0.0176023 0)
(0.00602851 0.024341 0)
(0.00605953 0.0287966 0)
(0.00480665 0.0303578 0)
(0.0026573 0.0278015 0)
(9.97209e-05 0.0156455 0)
(0.00136091 -0.0148546 0)
(0.00378236 -0.023015 0)
(0.00416468 -0.0206185 0)
(0.00335406 -0.0152863 0)
(0.00157713 -0.00915697 0)
(-0.00101879 -0.00294091 0)
(-0.00443245 0.00307547 0)
(-0.00872143 0.00877045 0)
(-0.0139837 0.0141394 0)
(-0.0203337 0.0192755 0)
(-0.0278817 0.0243427 0)
(-0.0367147 0.0295309 0)
(-0.0468767 0.0350021 0)
(-0.0583532 0.0408412 0)
(-0.0710483 0.0470417 0)
(-0.0847861 0.0534592 0)
(-0.0992312 0.0598388 0)
(-0.114019 0.0659048 0)
(-0.128704 0.0712755 0)
(-0.142794 0.0756414 0)
(-0.155895 0.078775 0)
(-0.167898 0.0806605 0)
(-0.178815 0.081399 0)
(-0.18871 0.0811444 0)
(-0.19767 0.0800308 0)
(-0.205785 0.0782049 0)
(-0.213144 0.0757885 0)
(-0.21981 0.0728905 0)
(-0.225837 0.0695949 0)
(-0.231264 0.0659748 0)
(-0.236132 0.0620887 0)
(-0.240471 0.0579849 0)
(-0.244311 0.0537063 0)
(-0.247672 0.0492935 0)
(-0.250566 0.044785 0)
(-0.25303 0.0401796 0)
(-0.255156 0.0354492 0)
(-0.256934 0.030644 0)
(-0.258374 0.0257618 0)
(-0.259475 0.0208385 0)
(-0.260224 0.0158554 0)
(-0.260639 0.0107741 0)
(-0.260723 0.00559319 0)
(-0.260478 0.000292342 0)
(-0.259915 -0.00514601 0)
(-0.259057 -0.0107293 0)
(-0.257877 -0.0164885 0)
(-0.256372 -0.0224394 0)
(-0.254525 -0.0285953 0)
(-0.252309 -0.0349548 0)
(-0.249693 -0.0415974 0)
(-0.246668 -0.0485552 0)
(-0.24319 -0.0557957 0)
(-0.239204 -0.0632872 0)
(-0.234628 -0.0709882 0)
(-0.229368 -0.0787902 0)
(-0.223176 -0.0863587 0)
(-0.215713 -0.0934467 0)
(-0.206576 -0.0995839 0)
(-0.195806 -0.104563 0)
(-0.183597 -0.108279 0)
(-0.169904 -0.110263 0)
(-0.154959 -0.110304 0)
(-0.138886 -0.108055 0)
(-0.122057 -0.103419 0)
(-0.104755 -0.0962881 0)
(-0.0874108 -0.0867368 0)
(-0.0707394 -0.0752382 0)
(-0.0552781 -0.0623047 0)
(-0.0413525 -0.0483973 0)
(-0.0292961 -0.0341255 0)
(-0.0193215 -0.0201205 0)
(-0.0114916 -0.00696908 0)
(-0.00571006 0.0048487 0)
(-0.00174687 0.014971 0)
(0.000678542 0.0230973 0)
(0.00177567 0.0288211 0)
(0.00170879 0.0314751 0)
(0.000808218 0.0294401 0)
(-0.000270402 0.0163946 0)
(0.00127501 -0.0172141 0)
(0.00236205 -0.0237521 0)
(0.00144069 -0.0197604 0)
(-0.000592295 -0.0133628 0)
(-0.00349649 -0.00639176 0)
(-0.00720051 0.00063901 0)
(-0.011747 0.00752194 0)
(-0.0172271 0.0141753 0)
(-0.0237492 0.0206123 0)
(-0.0314175 0.0269255 0)
(-0.0403151 0.0332576 0)
(-0.0504858 0.0397552 0)
(-0.0619123 0.0465145 0)
(-0.0745206 0.053555 0)
(-0.0881215 0.0607546 0)
(-0.10235 0.0678543 0)
(-0.116857 0.0745192 0)
(-0.131166 0.0803823 0)
(-0.144733 0.0850867 0)
(-0.157324 0.0884568 0)
(-0.168822 0.0904801 0)
(-0.179252 0.0912981 0)
(-0.188679 0.0910392 0)
(-0.197201 0.0898725 0)
(-0.204903 0.087936 0)
(-0.211867 0.0853675 0)
(-0.218152 0.0822717 0)
(-0.223805 0.0787434 0)
(-0.228865 0.0748579 0)
(-0.233365 0.0706826 0)
(-0.237338 0.0662735 0)
(-0.240813 0.0616797 0)
(-0.243813 0.056945 0)
(-0.246411 0.0520731 0)
(-0.248643 0.0470971 0)
(-0.250526 0.0420601 0)
(-0.252029 0.0370033 0)
(-0.25317 0.0318919 0)
(-0.253967 0.0267279 0)
(-0.254455 0.0215087 0)
(-0.254675 0.0162241 0)
(-0.254655 0.0108657 0)
(-0.254419 0.00542276 0)
(-0.253993 -0.000128386 0)
(-0.253391 -0.00581593 0)
(-0.252577 -0.0116532 0)
(-0.251581 -0.0176792 0)
(-0.250395 -0.0239234 0)
(-0.249019 -0.0304154 0)
(-0.24744 -0.0371748 0)
(-0.24564 -0.0442139 0)
(-0.243592 -0.051535 0)
(-0.241246 -0.0591312 0)
(-0.23854 -0.0669707 0)
(-0.235385 -0.0749854 0)
(-0.231659 -0.0831436 0)
(-0.227366 -0.091576 0)
(-0.22234 -0.0999773 0)
(-0.216346 -0.108035 0)
(-0.208959 -0.115167 0)
(-0.199445 -0.120652 0)
(-0.187728 -0.124054 0)
(-0.174334 -0.12551 0)
(-0.159204 -0.124427 0)
(-0.142748 -0.12066 0)
(-0.125262 -0.114031 0)
(-0.107107 -0.104452 0)
(-0.0889043 -0.0922003 0)
(-0.0715042 -0.077947 0)
(-0.055521 -0.0623819 0)
(-0.0413296 -0.0461131 0)
(-0.029286 -0.029913 0)
(-0.0195806 -0.0145366 0)
(-0.0122164 -0.000644139 0)
(-0.00699839 0.0112667 0)
(-0.00357342 0.0208692 0)
(-0.00157782 0.0278272 0)
(-0.000679831 0.0314049 0)
(-0.0004894 0.0297979 0)
(-0.000380443 0.0162392 0)
(0.00103373 -0.0185604 0)
(0.000657627 -0.0230971 0)
(-0.00159349 -0.0176076 0)
(-0.00479599 -0.0102851 0)
(-0.0088199 -0.00251237 0)
(-0.0136374 0.00534492 0)
(-0.019318 0.0131347 0)
(-0.0259698 0.0207982 0)
(-0.0336942 0.0283471 0)
(-0.0425695 0.0358541 0)
(-0.0526379 0.0434235 0)
(-0.0638849 0.0511413 0)
(-0.0762523 0.0590438 0)
(-0.0895724 0.0670387 0)
(-0.103483 0.0748597 0)
(-0.117594 0.0821629 0)
(-0.131459 0.0885737 0)
(-0.144585 0.093709 0)
(-0.156733 0.0974162 0)
(-0.167814 0.0997112 0)
(-0.177824 0.100685 0)
(-0.186852 0.100515 0)
(-0.194981 0.0993614 0)
(-0.202299 0.0973833 0)
(-0.208872 0.0947107 0)
(-0.214759 0.0914628 0)
(-0.22 0.0877326 0)
(-0.224634 0.083607 0)
(-0.228696 0.0791575 0)
(-0.232221 0.0744498 0)
(-0.235245 0.069539 0)
(-0.237806 0.0644731 0)
(-0.239948 0.0592904 0)
(-0.241677 0.0540416 0)
(-0.243023 0.0487353 0)
(-0.244025 0.0433809 0)
(-0.244709 0.0379909 0)
(-0.245138 0.0325679 0)
(-0.245353 0.0271238 0)
(-0.245379 0.0216592 0)
(-0.245219 0.0161629 0)
(-0.244901 0.0106189 0)
(-0.24444 0.00500891 0)
(-0.243856 -0.000691178 0)
(-0.243151 -0.006504 0)
(-0.242328 -0.012467 0)
(-0.241413 -0.0186068 0)
(-0.240412 -0.0249576 0)
(-0.239333 -0.0315523 0)
(-0.238178 -0.0384248 0)
(-0.236945 -0.0456081 0)
(-0.235626 -0.0531283 0)
(-0.234199 -0.0610014 0)
(-0.232624 -0.0692245 0)
(-0.230833 -0.0777611 0)
(-0.228726 -0.0865298 0)
(-0.226193 -0.0954103 0)
(-0.223067 -0.104246 0)
(-0.219126 -0.112965 0)
(-0.214333 -0.121556 0)
(-0.20832 -0.129431 0)
(-0.200528 -0.135693 0)
(-0.189849 -0.139154 0)
(-0.176701 -0.139784 0)
(-0.161486 -0.137481 0)
(-0.144586 -0.132006 0)
(-0.126307 -0.123083 0)
(-0.10721 -0.110823 0)
(-0.0880534 -0.0956559 0)
(-0.0698773 -0.078523 0)
(-0.0533968 -0.0603198 0)
(-0.0390386 -0.0418297 0)
(-0.0271585 -0.0239951 0)
(-0.0178998 -0.00768812 0)
(-0.0111753 0.00637531 0)
(-0.00664353 0.0177128 0)
(-0.00379373 0.025991 0)
(-0.00216633 0.0303626 0)
(-0.00115487 0.0292037 0)
(-0.000348569 0.0156347 0)
(0.000722719 -0.0189191 0)
(-0.00122894 -0.0210412 0)
(-0.00474106 -0.014237 0)
(-0.00907595 -0.00606189 0)
(-0.014202 0.00248102 0)
(-0.0201074 0.0111651 0)
(-0.0268851 0.0198813 0)
(-0.0346389 0.0285712 0)
(-0.0434501 0.0372254 0)
(-0.0533612 0.04588 0)
(-0.0643624 0.0545859 0)
(-0.0764082 0.0633775 0)
(-0.089358 0.0721912 0)
(-0.102879 0.0807667 0)
(-0.116565 0.0887512 0)
(-0.129984 0.0957693 0)
(-0.142719 0.101461 0)
(-0.154495 0.105634 0)
(-0.165215 0.108293 0)
(-0.174877 0.109534 0)
(-0.183549 0.10953 0)
(-0.191324 0.108466 0)
(-0.198271 0.106498 0)
(-0.204458 0.10377 0)
(-0.209929 0.1004 0)
(-0.214727 0.0964949 0)
(-0.218887 0.0921449 0)
(-0.22245 0.0874352 0)
(-0.225455 0.0824395 0)
(-0.227947 0.0772251 0)
(-0.229969 0.071849 0)
(-0.231568 0.0663591 0)
(-0.232789 0.0607927 0)
(-0.233671 0.0551817 0)
(-0.234262 0.0495461 0)
(-0.234606 0.0439046 0)
(-0.234738 0.0382714 0)
(-0.234691 0.0326487 0)
(-0.23449 0.0270329 0)
(-0.234153 0.0214158 0)
(-0.233696 0.0157847 0)
(-0.233136 0.0101214 0)
(-0.232487 0.00440501 0)
(-0.231764 -0.00138715 0)
(-0.230976 -0.00727801 0)
(-0.230134 -0.0133035 0)
(-0.229257 -0.0194926 0)
(-0.228358 -0.025879 0)
(-0.227451 -0.0324959 0)
(-0.22655 -0.0393793 0)
(-0.225664 -0.0465651 0)
(-0.224803 -0.0540872 0)
(-0.223967 -0.0619746 0)
(-0.223144 -0.070248 0)
(-0.222301 -0.0789153 0)
(-0.22138 -0.0879651 0)
(-0.220293 -0.0973457 0)
(-0.218899 -0.106923 0)
(-0.217006 -0.116482 0)
(-0.214373 -0.125742 0)
(-0.210679 -0.13441 0)
(-0.205789 -0.142639 0)
(-0.199183 -0.149291 0)
(-0.189872 -0.153127 0)
(-0.177047 -0.15291 0)
(-0.161794 -0.14936 0)
(-0.1443 -0.141886 0)
(-0.125125 -0.130447 0)
(-0.104981 -0.11526 0)
(-0.0848259 -0.0969921 0)
(-0.0658996 -0.0768969 0)
(-0.0490337 -0.056125 0)
(-0.0346945 -0.0356591 0)
(-0.0232037 -0.0166172 0)
(-0.0146225 2.26809e-05 0)
(-0.00872 0.01352 0)
(-0.00492257 0.0233913 0)
(-0.00270432 0.028646 0)
(-0.00120131 0.0280418 0)
(-0.00017133 0.0148374 0)
(0.000150231 -0.0181252 0)
(-0.00321005 -0.0176536 0)
(-0.00787565 -0.0096638 0)
(-0.0132894 -0.000729601 0)
(-0.0194731 0.00854886 0)
(-0.0264111 0.018048 0)
(-0.0342037 0.027683 0)
(-0.0429441 0.0373754 0)
(-0.052683 0.0470776 0)
(-0.0634186 0.0567767 0)
(-0.0751141 0.0664775 0)
(-0.0876555 0.0761332 0)
(-0.100752 0.0854994 0)
(-0.114008 0.0942234 0)
(-0.12701 0.10193 0)
(-0.139392 0.108281 0)
(-0.150865 0.11305 0)
(-0.161283 0.116184 0)
(-0.170654 0.117796 0)
(-0.179023 0.11805 0)
(-0.186477 0.117143 0)
(-0.193084 0.115244 0)
(-0.198896 0.112501 0)
(-0.203962 0.109044 0)
(-0.208319 0.104984 0)
(-0.21201 0.100427 0)
(-0.21508 0.0954664 0)
(-0.217581 0.0901912 0)
(-0.219568 0.0846789 0)
(-0.221099 0.0789987 0)
(-0.22223 0.0732076 0)
(-0.223016 0.0673524 0)
(-0.223508 0.0614689 0)
(-0.223755 0.0555858 0)
(-0.2238 0.0497224 0)
(-0.223676 0.0438928 0)
(-0.223411 0.0381021 0)
(-0.223028 0.0323454 0)
(-0.222544 0.0266153 0)
(-0.221971 0.0208996 0)
(-0.221325 0.0151831 0)
(-0.220615 0.00944705 0)
(-0.219854 0.00367039 0)
(-0.219053 -0.00216955 0)
(-0.21822 -0.00809725 0)
(-0.217369 -0.0141437 0)
(-0.216516 -0.0203385 0)
(-0.215675 -0.0267143 0)
(-0.214864 -0.0333046 0)
(-0.214102 -0.0401449 0)
(-0.213407 -0.0472721 0)
(-0.212798 -0.0547222 0)
(-0.212289 -0.0625292 0)
(-0.21189 -0.0707221 0)
(-0.211595 -0.0793233 0)
(-0.211388 -0.0883454 0)
(-0.211224 -0.0977812 0)
(-0.211019 -0.107589 0)
(-0.210635 -0.117674 0)
(-0.209867 -0.127842 0)
(-0.208427 -0.137742 0)
(-0.205959 -0.146896 0)
(-0.202006 -0.155057 0)
(-0.196303 -0.161914 0)
(-0.187944 -0.165777 0)
(-0.17554 -0.164927 0)
(-0.160101 -0.159891 0)
(-0.141881 -0.150205 0)
(-0.121685 -0.135963 0)
(-0.100418 -0.117592 0)
(-0.0792862 -0.096055 0)
(-0.0597399 -0.072974 0)
(-0.0427192 -0.0498123 0)
(-0.0286925 -0.0277683 0)
(-0.0179023 -0.00814152 0)
(-0.0102742 0.00802275 0)
(-0.00530912 0.0199493 0)
(-0.00245698 0.02652 0)
(-0.000757673 0.0267422 0)
(8.66412e-05 0.0142927 0)
(-0.00042646 -0.0160828 0)
(-0.00514958 -0.0129735 0)
(-0.0108796 -0.00396947 0)
(-0.0173051 0.00564273 0)
(-0.0244731 0.0156148 0)
(-0.0323559 0.0259042 0)
(-0.041051 0.0364224 0)
(-0.0506321 0.0470549 0)
(-0.0611135 0.057705 0)
(-0.0724661 0.0683141 0)
(-0.0845977 0.0788243 0)
(-0.0972632 0.0890058 0)
(-0.110099 0.0985244 0)
(-0.122724 0.107002 0)
(-0.134793 0.114108 0)
(-0.146019 0.119591 0)
(-0.15621 0.123332 0)
(-0.165343 0.125422 0)
(-0.173468 0.126036 0)
(-0.180648 0.125364 0)
(-0.186953 0.123597 0)
(-0.192431 0.12089 0)
(-0.197127 0.117383 0)
(-0.201083 0.113201 0)
(-0.204346 0.108461 0)
(-0.206975 0.103273 0)
(-0.20903 0.0977394 0)
(-0.210581 0.0919519 0)
(-0.211696 0.0859905 0)
(-0.212441 0.079923 0)
(-0.212877 0.0738036 0)
(-0.213061 0.0676743 0)
(-0.213041 0.0615657 0)
(-0.212857 0.0554996 0)
(-0.212544 0.0494886 0)
(-0.212124 0.0435376 0)
(-0.211619 0.0376452 0)
(-0.211041 0.0318036 0)
(-0.210402 0.0260013 0)
(-0.209711 0.0202245 0)
(-0.208976 0.0144564 0)
(-0.208202 0.00867807 0)
(-0.207399 0.00286854 0)
(-0.206572 -0.00299451 0)
(-0.205732 -0.0089353 0)
(-0.204888 -0.0149811 0)
(-0.204055 -0.0211599 0)
(-0.203248 -0.0275021 0)
(-0.202486 -0.0340393 0)
(-0.20179 -0.0408057 0)
(-0.201184 -0.0478371 0)
(-0.200691 -0.0551702 0)
(-0.200336 -0.0628421 0)
(-0.20014 -0.0708883 0)
(-0.200117 -0.079341 0)
(-0.200273 -0.0882252 0)
(-0.200595 -0.0975525 0)
(-0.201048 -0.107314 0)
(-0.201556 -0.117472 0)
(-0.20199 -0.127941 0)
(-0.20214 -0.138552 0)
(-0.201699 -0.148995 0)
(-0.200257 -0.158698 0)
(-0.197274 -0.166996 0)
(-0.19221 -0.173688 0)
(-0.184378 -0.177363 0)
(-0.172265 -0.175742 0)
(-0.156427 -0.169009 0)
(-0.137327 -0.156801 0)
(-0.115985 -0.13942 0)
(-0.0935801 -0.117585 0)
(-0.0715978 -0.0926265 0)
(-0.0517048 -0.0666503 0)
(-0.0349123 -0.0414291 0)
(-0.0216217 -0.0184375 0)
(-0.0119401 0.000905193 0)
(-0.00552333 0.0154942 0)
(-0.00188907 0.0240258 0)
(-4.95151e-05 0.025564 0)
(0.000376186 0.0142428 0)
(-0.00100784 -0.0128835 0)
(-0.00696836 -0.00712044 0)
(-0.013659 0.00276292 0)
(-0.0210073 0.0129744 0)
(-0.0290651 0.0235892 0)
(-0.0377802 0.0346204 0)
(-0.0472422 0.0459573 0)
(-0.0575 0.0574355 0)
(-0.0685396 0.0689085 0)
(-0.080286 0.0802647 0)
(-0.0925345 0.0912685 0)
(-0.104974 0.101619 0)
(-0.117262 0.110939 0)
(-0.12906 0.118888 0)
(-0.140088 0.125192 0)
(-0.150121 0.129674 0)
(-0.159089 0.132368 0)
(-0.167029 0.133445 0)
(-0.174 0.133105 0)
(-0.18006 0.131543 0)
(-0.185261 0.128934 0)
(-0.189646 0.125427 0)
(-0.193263 0.121165 0)
(-0.196168 0.11628 0)
(-0.198428 0.110898 0)
(-0.200116 0.105136 0)
(-0.201313 0.099102 0)
(-0.202096 0.0928875 0)
(-0.202538 0.0865698 0)
(-0.202708 0.0802107 0)
(-0.202662 0.0738569 0)
(-0.202449 0.0675421 0)
(-0.202109 0.0612888 0)
(-0.201671 0.0551099 0)
(-0.20116 0.0490101 0)
(-0.20059 0.042988 0)
(-0.199974 0.0370368 0)
(-0.199318 0.031146 0)
(-0.198629 0.0253021 0)
(-0.197908 0.0194887 0)
(-0.19716 0.0136889 0)
(-0.196386 0.00788433 0)
(-0.195591 0.00205429 0)
(-0.19478 -0.0038223 0)
(-0.193958 -0.00976799 0)
(-0.193135 -0.0158071 0)
(-0.192323 -0.0219649 0)
(-0.191537 -0.0282685 0)
(-0.190796 -0.0347467 0)
(-0.190121 -0.0414307 0)
(-0.189538 -0.0483536 0)
(-0.189074 -0.0555508 0)
(-0.18876 -0.0630596 0)
(-0.188625 -0.0709185 0)
(-0.188696 -0.0791661 0)
(-0.188994 -0.0878381 0)
(-0.189527 -0.0969631 0)
(-0.190289 -0.106556 0)
(-0.191244 -0.11661 0)
(-0.19232 -0.127083 0)
(-0.193386 -0.137882 0)
(-0.194234 -0.148845 0)
(-0.194543 -0.159681 0)
(-0.193864 -0.169861 0)
(-0.191616 -0.17854 0)
(-0.187046 -0.184847 0)
(-0.179393 -0.187972 0)
(-0.167277 -0.185345 0)
(-0.150799 -0.176578 0)
(-0.130638 -0.161429 0)
(-0.108075 -0.140512 0)
(-0.0845937 -0.114881 0)
(-0.0620502 -0.0864241 0)
(-0.0422732 -0.05782 0)
(-0.0262697 -0.0311215 0)
(-0.014281 -0.00809057 0)
(-0.00615016 0.00979454 0)
(-0.00150526 0.021025 0)
(0.000600927 0.0245162 0)
(0.000582052 0.0146263 0)
(-0.00156031 -0.00859198 0)
(-0.00860446 -0.000212783 0)
(-0.0161439 0.0104293 0)
(-0.0243121 0.0211627 0)
(-0.0331426 0.0323584 0)
(-0.0425589 0.0440649 0)
(-0.0526385 0.0561324 0)
(-0.0634042 0.0683447 0)
(-0.0748062 0.0804928 0)
(-0.0866664 0.0923066 0)
(-0.0987412 0.103498 0)
(-0.11073 0.113713 0)
(-0.122299 0.122578 0)
(-0.133174 0.129797 0)
(-0.143112 0.135143 0)
(-0.151993 0.138579 0)
(-0.159822 0.14024 0)
(-0.166654 0.140336 0)
(-0.172542 0.139072 0)
(-0.177537 0.136635 0)
(-0.181687 0.133195 0)
(-0.185044 0.128907 0)
(-0.187671 0.123924 0)
(-0.189644 0.118388 0)
(-0.191049 0.112434 0)
(-0.191975 0.106186 0)
(-0.192507 0.0997468 0)
(-0.192727 0.0932048 0)
(-0.192703 0.0866286 0)
(-0.192496 0.0800701 0)
(-0.192155 0.0735659 0)
(-0.191718 0.0671397 0)
(-0.191213 0.0608048 0)
(-0.190662 0.054566 0)
(-0.190077 0.0484214 0)
(-0.189467 0.0423643 0)
(-0.188835 0.0363836 0)
(-0.188184 0.0304666 0)
(-0.187515 0.0245989 0)
(-0.186825 0.0187627 0)
(-0.186115 0.0129403 0)
(-0.185383 0.00711488 0)
(-0.18463 0.001267 0)
(-0.18386 -0.0046231 0)
(-0.183076 -0.0105755 0)
(-0.182285 -0.0166116 0)
(-0.181498 -0.0227536 0)
(-0.180729 -0.0290251 0)
(-0.179995 -0.0354511 0)
(-0.179316 -0.0420589 0)
(-0.178719 -0.0488781 0)
(-0.178233 -0.055941 0)
(-0.177889 -0.063283 0)
(-0.177723 -0.0709426 0)
(-0.17777 -0.0789607 0)
(-0.178061 -0.0873797 0)
(-0.178623 -0.09624 0)
(-0.17947 -0.105576 0)
(-0.180595 -0.11541 0)
(-0.181962 -0.125738 0)
(-0.183492 -0.136516 0)
(-0.185048 -0.147641 0)