/*--------------------------------*- C++ -*----------------------------------*\
  =========                 |
  \\      /  F ield         | OpenFOAM: The Open Source CFD Toolbox
   \\    /   O peration     | Website:  https://openfoam.org
    \\  /    A nd           | Version:  13
     \\/     M anipulation  |
\*---------------------------------------------------------------------------*/
FoamFile
{
    format      ascii;
    class       volScalarField;
    location    "1.6";
    object      epsilon;
}
// * * * * * * * * * * * * * * * * * * * * * * * * * * * * * * * * * * * * * //

dimensions      [0 2 -3 0 0 0 0];

internalField   nonuniform List<scalar> 
6400
(
1.15898e-05
5.6774e-05
0.000119859
0.000185604
0.000248702
0.00030843
0.000365109
0.000419623
0.000472607
0.00052445
0.00057543
0.000625798
0.000675807
0.000725713
0.000775775
0.000826247
0.000877395
0.000929512
0.000982951
0.00103815
0.00109566
0.00115614
0.00122039
0.00128935
0.00136408
0.00144576
0.00153568
0.00163522
0.00174583
0.00186895
0.00200598
0.00215819
0.00232668
0.00251229
0.00271557
0.00293671
0.00317555
0.00343154
0.00370369
0.00399053
0.00429005
0.00459956
0.00491554
0.00523328
0.00554647
0.00584707
0.00612683
0.00638135
0.00662531
0.00686192
0.00704678
0.00717531
0.00724751
0.00726285
0.0071841
0.00701818
0.00676572
0.00642859
0.00601376
0.00553328
0.00500381
0.00444554
0.00388052
0.00333062
0.00281532
0.00234949
0.00194068
0.00159294
0.00130342
0.00106584
0.000874414
0.000718112
0.000586522
0.000473534
0.000374174
0.00028451
0.000201861
0.000125513
5.86776e-05
1.2033e-05
5.72361e-05
4.87513e-05
7.18674e-05
0.000102362
0.000134114
0.000165532
0.000196099
0.000225853
0.000254981
0.000283714
0.000312315
0.000341073
0.000370301
0.000400312
0.000431405
0.000463853
0.000497904
0.000533792
0.000571763
0.000612099
0.000655153
0.000701375
0.000751333
0.000805723
0.00086537
0.000931219
0.00100431
0.00108573
0.00117658
0.00127788
0.00139047
0.00151494
0.00165148
0.00179979
0.00195907
0.0021279
0.00230435
0.00248602
0.00267015
0.00285375
0.00303376
0.00320715
0.00337096
0.00352238
0.00365877
0.00377815
0.00388009
0.00396605
0.00403725
0.00408751
0.00410853
0.00411045
0.0040787
0.00401458
0.00390947
0.00376556
0.00358368
0.00336601
0.00311681
0.00284248
0.00255136
0.00225313
0.00195811
0.0016762
0.00141587
0.00118315
0.000981227
0.000810585
0.000669158
0.000553339
0.000459662
0.000382967
0.000317938
0.000261093
0.000209948
0.000162791
0.000118897
7.9558e-05
5.10455e-05
5.95336e-05
0.000126487
7.67503e-05
8.41825e-05
0.000105474
0.000131395
0.000158945
0.000186971
0.000214959
0.00024272
0.000270275
0.000297785
0.000325507
0.000353737
0.000382786
0.000412953
0.000444513
0.000477728
0.000512856
0.000550183
0.00059005
0.000632878
0.000679195
0.000729638
0.000784961
0.000846008
0.000913681
0.000988889
0.00107249
0.00116522
0.00126762
0.00137998
0.00150224
0.00163403
0.00177461
0.00192294
0.00207773
0.00223754
0.00240089
0.00256632
0.00273247
0.00289805
0.00306189
0.00322281
0.00337947
0.00353062
0.00367527
0.00381284
0.00394337
0.00406112
0.00416202
0.0042419
0.00429082
0.0043087
0.00429882
0.00424578
0.00414545
0.00399722
0.00380138
0.00356029
0.00327904
0.00296567
0.00263083
0.00228718
0.00194826
0.00162715
0.00133489
0.00107926
0.00086399
0.00068874
0.000549851
0.000441635
0.000357711
0.000291838
0.000238378
0.000193244
0.000153646
0.000118348
8.87779e-05
7.64591e-05
0.000130582
0.000211425
0.000115884
0.000111505
0.000128156
0.000152071
0.000179158
0.000207619
0.000236515
0.000265356
0.000293951
0.000322327
0.000350652
0.000379182
0.000408218
0.000438079
0.000469097
0.00050162
0.000536032
0.000572774
0.00061237
0.000655443
0.000702725
0.00075505
0.00081332
0.000878487
0.000951522
0.00103335
0.00112481
0.00122657
0.00133909
0.00146259
0.00159702
0.00174211
0.00189733
0.00206205
0.00223552
0.00241703
0.00260592
0.00280163
0.00300372
0.00321182
0.00342558
0.00364464
0.00386732
0.00409198
0.00431633
0.00453695
0.00474856
0.00494852
0.00513119
0.0052903
0.00541895
0.00550423
0.00553968
0.00554067
0.0054758
0.00534334
0.00514242
0.00487366
0.00454083
0.0041518
0.00371866
0.00325733
0.00278655
0.00232633
0.00189572
0.0015105
0.00118115
0.000911635
0.000699661
0.000538208
0.000417724
0.000328204
0.000261006
0.000209007
0.000167262
0.000133397
0.000109497
0.000109897
0.000208699
0.000309183
0.000160355
0.00014436
0.000157677
0.000180839
0.000208269
0.000237688
0.000267868
0.000298089
0.000327981
0.000357435
0.00038654
0.00041552
0.000444697
0.000474464
0.000505276
0.000537653
0.000572196
0.000609596
0.000650651
0.000696269
0.000747465
0.000805344
0.000871082
0.000945876
0.00103088
0.00112714
0.00123561
0.00135701
0.00149189
0.00164058
0.00180319
0.00197967
0.00216985
0.00237351
0.00259037
0.0028202
0.00306274
0.0033177
0.00358466
0.00386295
0.00415155
0.00444882
0.00475347
0.0050631
0.00537458
0.00568394
0.0059864
0.00627666
0.00654797
0.00679263
0.00700209
0.00716722
0.00726935
0.00730897
0.00729347
0.00718736
0.00699031
0.00670099
0.00631999
0.00585296
0.00531115
0.00471169
0.00407719
0.00343458
0.00281252
0.00223825
0.00173376
0.00131255
0.000978007
0.000724121
0.000538306
0.000405296
0.000310631
0.000242511
0.000192468
0.000155811
0.000133779
0.000143762
0.000284865
0.000418047
0.000208204
0.000179937
0.000189971
0.000212462
0.00024021
0.000270441
0.00030169
0.000333066
0.000364056
0.000394451
0.000424284
0.000453785
0.000483342
0.000513475
0.000544825
0.000578153
0.000614342
0.000654407
0.000699488
0.000750851
0.000809864
0.00087797
0.000956641
0.00104733
0.00115141
0.00127015
0.00140462
0.00155571
0.0017241
0.00191023
0.00211434
0.0023365
0.00257665
0.00283461
0.00311013
0.00340284
0.00371227
0.00403776
0.00437842
0.00473306
0.0051001
0.00547763
0.0058634
0.00625455
0.0066476
0.0070385
0.00742243
0.00779367
0.00814554
0.00847004
0.00875826
0.00900047
0.00918593
0.00928913
0.00932304
0.00927549
0.00911664
0.00884539
0.00845527
0.00794756
0.00732859
0.00661214
0.00582038
0.0049842
0.00414065
0.0033299
0.00258997
0.00195102
0.00143026
0.0010294
0.00073636
0.000530541
0.000389358
0.000293092
0.000227158
0.000182856
0.000159501
0.000176455
0.000355404
0.000535777
0.000258396
0.000217164
0.000223714
0.000245429
0.000273334
0.000304143
0.000336182
0.000368432
0.000400288
0.000431484
0.000462044
0.000492247
0.000522596
0.000553787
0.000586702
0.000622396
0.000662092
0.000707178
0.000759197
0.000819818
0.000890812
0.000973995
0.00107118
0.00118411
0.00131439
0.00146347
0.00163254
0.00182254
0.00203415
0.00226775
0.00252346
0.00280114
0.00310044
0.00342077
0.00376132
0.00412108
0.00449877
0.0048929
0.00530168
0.00572306
0.00615474
0.0065943
0.00703911
0.00748636
0.00793306
0.00837604
0.00881198
0.00923687
0.00964532
0.0100307
0.0103856
0.0107015
0.0109683
0.0111741
0.011285
0.0113183
0.0112475
0.0110612
0.0107309
0.0102563
0.00963362
0.00886771
0.00797199
0.00697666
0.00592111
0.00485583
0.00383628
0.00291522
0.00213379
0.00151324
0.0010516
0.000727521
0.000509657
0.000366759
0.000274047
0.000215631
0.000186863
0.000207831
0.000419937
0.000660718
0.000310392
0.000255472
0.00025826
0.000279023
0.000306899
0.000338059
0.000370637
0.000403525
0.000436077
0.000468018
0.000499413
0.000530641
0.000562362
0.0005955
0.000631219
0.000670916
0.000716205
0.000768903
0.000831005
0.000904645
0.000992041
0.00109542
0.00121695
0.00135863
0.00152223
0.00170925
0.00192081
0.00215767
0.00242019
0.00270831
0.00302157
0.00335912
0.0037197
0.00410169
0.0045031
0.00492164
0.00535473
0.0057996
0.0062533
0.00671286
0.0071754
0.00763831
0.00809925
0.00855635
0.00900805
0.00945337
0.0098922
0.010318
0.010729
0.0111253
0.0115052
0.011866
0.0122027
0.0125082
0.0127701
0.0129633
0.0130468
0.0130404
0.0128591
0.0125222
0.0120012
0.0113007
0.0104032
0.00933966
0.0081367
0.0068483
0.00554338
0.00429813
0.00318551
0.00226042
0.00154747
0.00103733
0.000694995
0.000475594
0.000338876
0.000256712
0.000216964
0.000238456
0.000479673
0.000791262
0.000363821
0.000294381
0.000293199
0.000312802
0.000340467
0.00037179
0.000404719
0.000438092
0.000471265
0.000504007
0.000536474
0.000569189
0.000603016
0.000639146
0.000679074
0.000724584
0.000777736
0.000840834
0.000916389
0.00100705
0.00111552
0.00124443
0.00139624
0.00157307
0.00177667
0.0020083
0.00226865
0.00255789
0.00287555
0.00322059
0.00359134
0.00398554
0.00440039
0.00483254
0.00527825
0.00573344
0.00619389
0.00665546
0.0071142
0.00756657
0.00800982
0.00844188
0.0088616
0.00926915
0.00966466
0.0100484
0.0104205
0.0107873
0.0111535
0.0115204
0.0118889
0.0122581
0.0126254
0.0129865
0.0133351
0.0136646
0.0139714
0.0142206
0.0143464
0.0143715
0.0141248
0.01365
0.0128887
0.0119093
0.0106846
0.00926945
0.00773455
0.00617086
0.0046843
0.00337474
0.00231298
0.00152389
0.000984455
0.000640486
0.000431705
0.000310589
0.000251726
0.00026933
0.000536521
0.000925738
0.000418349
0.000333477
0.000328215
0.000346431
0.000373725
0.000405073
0.000438241
0.00047204
0.000505868
0.000539584
0.000573483
0.000608274
0.00064507
0.000685369
0.000731044
0.000784324
0.00084777
0.000924241
0.00101682
0.0011287
0.00126306
0.00142285
0.00161064
0.00182842
0.00207755
0.00235858
0.00267131
0.00301467
0.00338678
0.00378489
0.00420547
0.00464417
0.00509599
0.00555538
0.00601642
0.00647311
0.00691971
0.00735111
0.00776312
0.00815265
0.00851898
0.00886138
0.00918123
0.00948501
0.00977677
0.0100613
0.0103432
0.0106271
0.0109248
0.0112411
0.0115812
0.0119484
0.0123438
0.0127651
0.013206
0.0136544
0.0140913
0.0145038
0.0148715
0.0151933
0.0153865
0.0154343
0.0151066
0.0144265
0.013355
0.011982
0.0103538
0.00855122
0.00670484
0.0049627
0.00345821
0.00227782
0.00143921
0.000896116
0.000569619
0.000384843
0.000294275
0.000301919
0.000592898
0.00106257
0.000473576
0.000372579
0.00036299
0.000379628
0.000406427
0.000437719
0.000471092
0.000505351
0.000539971
0.000574945
0.000610745
0.000648309
0.00068904
0.000734792
0.000787865
0.00085099
0.0009273
0.00102026
0.00113357
0.00127096
0.00143596
0.00163165
0.00186039
0.00212364
0.0024218
0.00275419
0.003119
0.00351332
0.00393311
0.00437331
0.00482783
0.00528974
0.00575145
0.00620498
0.00664236
0.00705606
0.00743954
0.00778784
0.00809813
0.00836799
0.00860584
0.00881909
0.00901578
0.00918684
0.00933969
0.00948442
0.00963604
0.00981052
0.0100119
0.0102487
0.0105289
0.0108595
0.0112457
0.0116908
0.012195
0.0127541
0.0133592
0.0139934
0.0146289
0.0152227
0.0157262
0.016144
0.0163656
0.0163863
0.0158225
0.0147263
0.0132365
0.0113682
0.00926297
0.00710618
0.00509894
0.00341406
0.00214804
0.00129763
0.0007811
0.000492237
0.000349796
0.000338317
0.000652013
0.00120028
0.000529174
0.000411457
0.000397269
0.00041216
0.000438374
0.000469582
0.000503196
0.000538035
0.000573679
0.000610288
0.000648549
0.000689671
0.000735387
0.000787956
0.000850163
0.000925305
0.00101714
0.0011298
0.00126755
0.00143459
0.00163459
0.00187043
0.00214378
0.00245498
0.00280288
0.00318484
0.00359681
0.00403334
0.00448767
0.00495181
0.00541679
0.00587283
0.00630982
0.00671776
0.00708744
0.00741094
0.00768226
0.00789826
0.00807531
0.0082292
0.0083356
0.00838994
0.00840835
0.00841377
0.00841884
0.00843784
0.00847771
0.00854506
0.00865252
0.00880505
0.00901153
0.00927984
0.00961809
0.0100343
0.0105356
0.011127
0.0118095
0.0125775
0.0134177
0.0143062
0.0152017
0.0160341
0.0167011
0.0171809
0.017405
0.0171157
0.016093
0.0144269
0.0122743
0.00982431
0.0073287
0.00505852
0.00322767
0.00192746
0.00111227
0.000654134
0.000426927
0.000381762
0.000718616
0.00133753
0.000584845
0.000449896
0.000430843
0.000443834
0.000469406
0.000500552
0.000534506
0.000570116
0.000607092
0.000645788
0.000687141
0.000732668
0.000784478
0.000845284
0.000918417
0.00100779
0.00111785
0.00125335
0.00141911
0.00161954
0.00185815
0.00213709
0.0024568
0.00281579
0.00321068
0.00363624
0.00408554
0.00455006
0.00501987
0.00548387
0.00593012
0.00634639
0.00672081
0.00704263
0.00730326
0.00749651
0.00764609
0.0077387
0.00776787
0.0077474
0.00766806
0.00756297
0.00745669
0.00735604
0.00727127
0.00721691
0.00719411
0.00719229
0.00724555
0.00734318
0.00749266
0.00769861
0.0079681
0.00830999
0.00873571
0.00925905
0.00989325
0.0106514
0.0115405
0.0125578
0.0136821
0.0148772
0.0160728
0.0171514
0.0179336
0.01831
0.0183216
0.0173832
0.0155113
0.0130264
0.0101779
0.00732091
0.00481283
0.00289867
0.00163415
0.000905571
0.000539998
0.00043791
0.000799649
0.00147314
0.00064032
0.000487711
0.000463536
0.000474496
0.000499397
0.00053054
0.000564985
0.000601615
0.000640288
0.000681577
0.000726701
0.00077752
0.000836563
0.000907051
0.000992909
0.00109873
0.00122962
0.00139094
0.00158786
0.00182471
0.00210435
0.00242763
0.00279303
0.00319662
0.0036321
0.0040911
0.00456337
0.00503702
0.00549888
0.00593492
0.00633088
0.00667319
0.00694971
0.00715025
0.00728828
0.00735824
0.00736832
0.00728561
0.00713728
0.00696913
0.00678274
0.00659615
0.00642732
0.00628401
0.00617286
0.00610311
0.00607241
0.00606691
0.00611049
0.00619622
0.00632392
0.0064958
0.00671535
0.00698815
0.00732254
0.0077306
0.00822906
0.00884068
0.00959421
0.0105173
0.0116293
0.0129315
0.0143874
0.0159294
0.0174086
0.0185982
0.0192338
0.0194418
0.0185723
0.0164604
0.0135605
0.0102523
0.00703198
0.00434975
0.00244874
0.0013022
0.000713004
0.000516007
0.000906057
0.00160604
0.00069536
0.000524744
0.000495208
0.000504023
0.000528248
0.000559481
0.000594602
0.000632539
0.000673313
0.000717735
0.000767331
0.000824342
0.000891758
0.000973354
0.0010737
0.00119806
0.00135221
0.00154196
0.00177256
0.00204782
0.00236939
0.00273616
0.00314399
0.00358585
0.00405207
0.00453074
0.00500811
0.00546901
0.00589741
0.00627724
0.00659336
0.00683263
0.00698906
0.00706674
0.00708069
0.00698806
0.00681542
0.00660047
0.00635593
0.0061117
0.00588049
0.00567532
0.00550708
0.00537919
0.00529454
0.0052551
0.00524413
0.00526577
0.00533213
0.00542984
0.00556122
0.00572575
0.00592484
0.00616098
0.00643833
0.00676359
0.00714754
0.00760593
0.00816169
0.0088501
0.00972162
0.0108324
0.0122148
0.0138731
0.0157286
0.0176336
0.019286
0.020204
0.0205489
0.0196761
0.0172136
0.0137858
0.00996512
0.00642517
0.00368822
0.00192632
0.000985213
0.000631162
0.00105399
0.00173531
0.00074975
0.000560866
0.000525748
0.000532321
0.000555882
0.000587316
0.000623324
0.000662879
0.000706174
0.000754278
0.000809048
0.000873135
0.00095003
0.0010441
0.00116057
0.00130539
0.00148489
0.00170512
0.00197102
0.0022854
0.00264807
0.00305527
0.00349967
0.00397068
0.00445494
0.00493695
0.00539962
0.00582506
0.00619545
0.00649408
0.00670619
0.00681906
0.00686086
0.00681013
0.00664565
0.00641583
0.00614056
0.0058504
0.005566
0.00530884
0.00508999
0.00491538
0.00478763
0.00470871
0.00467368
0.00466565
0.00468952
0.00475034
0.0048402
0.00495659
0.0050995
0.00526859
0.00546452
0.00568851
0.00594261
0.00623002
0.00655579
0.00692785
0.00735869
0.00786632
0.00847997
0.0092556
0.0102904
0.0116792
0.0134631
0.0155982
0.0179142
0.0200559
0.0212476
0.0216745
0.0206565
0.0176673
0.013582
0.00923822
0.00550315
0.00289141
0.0014161
0.000807353
0.00126642
0.00186006
0.000803294
0.000595978
0.000555068
0.000559316
0.000582237
0.000613996
0.000651109
0.0006926
0.000738838
0.000791161
0.000851779
0.000923781
0.00101119
0.00111898
0.00125304
0.00141994
0.00162639
0.00187841
0.00218019
0.00253297
0.00293405
0.00337652
0.00384939
0.00433825
0.00482604
0.00529391
0.00572209
0.00609102
0.00638279
0.00657684
0.00666454
0.00667872
0.00656931
0.00636451
0.00608772
0.00577212
0.0054458
0.00513696
0.00486427
0.00463983
0.00446741
0.00434565
0.00427657
0.0042481
0.00424367
0.00427156
0.00433034
0.0044147
0.0045222
0.00465221
0.00480491
0.00498075
0.00518059
0.00540544
0.00565643
0.00593489
0.00624268
0.00658287
0.00696093
0.00738686
0.00787601
0.00844794
0.00914887
0.0100695
0.0113868
0.0132399
0.0156033
0.0183315
0.020958
0.0223642
0.0228124
0.021404
0.0176671
0.0128129
0.00803415
0.00433704
0.00208747
0.00108182
0.00157554
0.00197952
0.00085583
0.000629997
0.000583096
0.000584954
0.000607265
0.000639473
0.000677908
0.00072164
0.000771221
0.000828269
0.000895359
0.000976038
0.00107487
0.00119746
0.00135032
0.00154051
0.00177493
0.00205919
0.00239626
0.00278521
0.00322035
0.00369113
0.00418269
0.00467681
0.00515303
0.00558986
0.00596611
0.00626263
0.00644894
0.00652343
0.00651955
0.00638162
0.00614458
0.00583648
0.0054888
0.00513622
0.00480755
0.00452382
0.00429553
0.00412488
0.00400822
0.00394506
0.00391993
0.00391653
0.0039426
0.00399568
0.00407066
0.00416573
0.00428055
0.00441571
0.00457233
0.0047518
0.00495568
0.0051854
0.00544214
0.00572662
0.00603912
0.00637972
0.00674892
0.00714923
0.00758773
0.00807909
0.00863499
0.00929685
0.0101554
0.011371
0.0132407
0.0158388
0.0190007
0.0220642
0.0235626
0.0239167
0.0217585
0.0170048
0.011364
0.00640956
0.0030996
0.0015092
0.00201797
0.00209307
0.000907225
0.000662879
0.000609732
0.0006092
0.000630924
0.000663696
0.000703653
0.00074991
0.000803199
0.000865423
0.000939532
0.00102954
0.00114057
0.0012788
0.00145132
0.00166553
0.00192825
0.00224427
0.00261486
0.00303641
0.00349982
0.00399067
0.00449023
0.00497674
0.00542705
0.00581818
0.00612926
0.00632329
0.00639789
0.00638555
0.00623861
0.00598632
0.00565678
0.00528554
0.00491026
0.00456337
0.00426721
0.00403244
0.00385981
0.00374356
0.00368022
0.00365396
0.00364865
0.00366674
0.00370945
0.00377067
0.00384891
0.00394415
0.00405731
0.00418998
0.00434416
0.00452215
0.00472636
0.00495911
0.00522234
0.00551735
0.00584445
0.00620275
0.00659024
0.00700436
0.00744377
0.0079117
0.00842151
0.00898015
0.00962724
0.0104562
0.0116418
0.0135028
0.0163566
0.0200235
0.0234247
0.0248732
0.0249273
0.0214166
0.015449
0.00922969
0.00456901
0.00215513
0.00262681
0.00220024
0.000957364
0.000694606
0.00063489
0.000632036
0.000653179
0.000686613
0.000728266
0.000777292
0.000834602
0.00090238
0.000983958
0.00108381
0.0012076
0.00136206
0.00155471
0.00179313
0.00208372
0.0024301
0.00283134
0.00328081
0.00376569
0.0042677
0.00476443
0.00523121
0.00564316
0.00597757
0.00619629
0.00628201
0.00627691
0.00613699
0.00588284
0.00554282
0.0051547
0.00475916
0.00439259
0.0040802
0.0038338
0.00365357
0.00353218
0.00346259
0.00343133
0.00342208
0.00342808
0.00345715
0.00350211
0.00356114
0.00363441
0.00372297
0.00382856
0.00395343
0.00410019
0.00427179
0.00447139
0.0047022
0.00496734
0.00526942
0.00561012
0.00598952
0.00640555
0.00685374
0.00732778
0.0078215
0.00833295
0.00887321
0.00944729
0.0100957
0.0109181
0.0121087
0.0140432
0.0171952
0.0213931
0.0249809
0.0263216
0.0253738
0.0200366
0.0128433
0.00661341
0.00308886
0.00341184
0.00230061
0.00100612
0.000725094
0.000658634
0.000653419
0.000673992
0.000708163
0.000751652
0.000803643
0.00086522
0.000938845
0.00102822
0.00113827
0.00127516
0.0014461
0.00165893
0.00192117
0.0022385
0.00261296
0.00304111
0.00351298
0.00401202
0.00451622
0.00499996
0.00543629
0.00579977
0.00605814
0.00617099
0.00618435
0.00606701
0.00582549
0.00548682
0.00508907
0.00467579
0.0042875
0.00395388
0.0036896
0.0034957
0.00336405
0.00328218
0.00324178
0.0032255
0.0032223
0.00323414
0.00326244
0.00330214
0.00335351
0.0034176
0.00349609
0.00359112
0.00370527
0.00384149
0.00400307
0.00419372
0.00441741
0.0046783
0.00498046
0.00532742
0.00572148
0.00616279
0.00664813
0.00717005
0.00771736
0.0082771
0.00884027
0.00941397
0.0100065
0.0106718
0.0115107
0.0127586
0.0148915
0.0184841
0.0233104
0.0266523
0.027555
0.0246076
0.0171746
0.00931446
0.00436279
0.00435008
0.00239386
0.0010534
0.000754311
0.000680976
0.000673331
0.000693328
0.000728284
0.000773706
0.000828801
0.000894814
0.000974473
0.00107183
0.00119225
0.00134233
0.00152968
0.00176229
0.00204738
0.00238963
0.00278919
0.00323984
0.00372818
0.00423403
0.00473204
0.00519398
0.00559102
0.00589556
0.00605388
0.00609816
0.00601676
0.00580303
0.00547905
0.00508121
0.00465445
0.00424355
0.00388375
0.00359471
0.00338008
0.0032322
0.0031371
0.0030813
0.00305433
0.00304347
0.00304148
0.00305155
0.00307349
0.0031047
0.00314633
0.0031999
0.00326732
0.0033509
0.00345326
0.00357742
0.00372685
0.0039055
0.00411785
0.00436889
0.00466393
0.00500834
0.00540687
0.00586275
0.0063763
0.00694309
0.00755213
0.00818575
0.00882235
0.00944443
0.0100356
0.0106381
0.0113388
0.012216
0.0135973
0.016101
0.0203654
0.0257371
0.0282654
0.0282436
0.021946
0.0127316
0.00598681
0.00541128
0.00247971
0.0010991
0.000782246
0.000701922
0.000691764
0.000711156
0.000746911
0.000794316
0.000852587
0.000923119
0.00100889
0.00111428
0.00124503
0.00140813
0.00161146
0.001863
0.00216946
0.00253425
0.00295538
0.00342374
0.00392256
0.00442827
0.00491274
0.00534613
0.00569949
0.00592255
0.00600504
0.00597206
0.00580154
0.00550754
0.00512214
0.00468958
0.00425788
0.00386854
0.00354814
0.0033054
0.00313478
0.00302223
0.00295148
0.0029093
0.00288638
0.00287541
0.00287186
0.00287569
0.00288928
0.00291127
0.00294309
0.00298639
0.00304316
0.00311562
0.00320631
0.00331818
0.00345462
0.00361964
0.00381796
0.00405503
0.0043371
0.004671
0.00506375
0.00552174
0.0060494
0.00664725
0.0073092
0.00801957
0.00875175
0.00947193
0.0101686
0.010772
0.0113553
0.0120747
0.0130441
0.014662
0.0177953
0.0230506
0.0282634
0.0299311
0.0266531
0.0168744
0.00798202
0.00653026
0.00255793
0.00114316
0.000808893
0.000721483
0.000708715
0.00072745
0.00076398
0.000813363
0.000874815
0.000949858
0.00104169
0.001155
0.00129586
0.00147154
0.00169008
0.00195931
0.00228519
0.00266968
0.00310854
0.00358973
0.00409328
0.00459259
0.00505708
0.00545561
0.00575497
0.00589407
0.00591304
0.00580428
0.00555738
0.00520026
0.00477395
0.00432763
0.00390856
0.00355161
0.00327325
0.00307247
0.0029367
0.00284843
0.00279187
0.00275579
0.00273254
0.00271723
0.00270949
0.00270725
0.00271195
0.00272516
0.00274799
0.00278205
0.00282918
0.00289149
0.00297133
0.00307145
0.0031951
0.00334614
0.00352926
0.00375011
0.00401539
0.00433294
0.0047115
0.0051602
0.00568749
0.00629921
0.00699584
0.00776873
0.00859567
0.00943854
0.010248
0.0110026
0.0116138
0.0121745
0.0129038
0.0140207
0.0160589
0.0201643
0.026653
0.0304326
0.0305389
0.0216643
0.0104182
0.00772506
0.00262837
0.00118548
0.000834256
0.000739671
0.000724188
0.000742188
0.00077943
0.000830734
0.000895297
0.000974749
0.00107249
0.00119345
0.00134396
0.00153153
0.00176422
0.00204953
0.00239252
0.00279359
0.00324618
0.00373549
0.00423862
0.00472646
0.00516674
0.00552721
0.00575213
0.00583076
0.00579227
0.00561038
0.00530027
0.00489695
0.0044478
0.0040038
0.00360829
0.00328771
0.00304868
0.00288256
0.00277211
0.00269917
0.00264988
0.0026151
0.0025891
0.00256907
0.00255445
0.0025466
0.00254438
0.00254937
0.00256426
0.00259024
0.00262895
0.00268227
0.00275238
0.00284178
0.00295348
0.00309111
0.00325916
0.00346316
0.00370994
0.0040078
0.00436656
0.0047974
0.00531209
0.00592151
0.00663296
0.00744606
0.00834748
0.00930479
0.0102645
0.0111738
0.0119402
0.0125347
0.0130559
0.0138428
0.0152316
0.0180892
0.0236633
0.030302
0.0325252
0.0268383
0.0134484
0.00912607
0.00269093
0.00122602
0.000858341
0.000756508
0.000738194
0.000755355
0.000793208
0.00084632
0.000913853
0.000997521
0.00110088
0.00122907
0.00138862
0.00158715
0.00183264
0.00213213
0.00248969
0.00290405
0.00336645
0.00385949
0.00435771
0.00482986
0.0052422
0.00556116
0.00572025
0.00574626
0.00564612
0.00540285
0.00504323
0.00460907
0.0041516
0.00372084
0.00335416
0.00306909
0.002864
0.00272454
0.00263134
0.00256735
0.00252096
0.00248487
0.00245505
0.00242992
0.00240952
0.00239467
0.00238744
0.00238603
0.00239372
0.00241269
0.0024441
0.0024896
0.00255115
0.00263104
0.002732
0.00285737
0.00301131
0.00319908
0.00342731
0.00370433
0.00404045
0.00444808
0.00494146
0.00553566
0.00624438
0.00707608
0.00802802
0.00907838
0.0101776
0.0112461
0.0122328
0.0129758
0.0135
0.0139699
0.0149444
0.016833
0.0210977
0.0286199
0.0332855
0.0317869
0.0172384
0.0108651
0.00274557
0.00126468
0.000881164
0.000772021
0.000750748
0.000766947
0.000805269
0.000860025
0.000930319
0.00101792
0.0011265
0.00126136
0.00142914
0.00163751
0.00189424
0.00220581
0.00257522
0.00299959
0.00346807
0.00396096
0.00445064
0.00490431
0.00528787
0.00555227
0.00565559
0.00564304
0.00548544
0.00519224
0.00479609
0.004344
0.00388886
0.00347768
0.00314086
0.0028877
0.00271014
0.00259015
0.0025081
0.00244886
0.00240278
0.00236416
0.00233024
0.00230026
0.00227461
0.00225417
0.00224102
0.00223576
0.00223711
0.00224989
0.00227493
0.00231364
0.00236777
0.00243937
0.00253091
0.00264543
0.00278673
0.00295963
0.00317039
0.00342704
0.00373988
0.00412185
0.00458868
0.0051585
0.00585036
0.00668101
0.00765911
0.00877678
0.00999867
0.0112523
0.0124365
0.013408
0.0140699
0.0144608
0.0149405
0.0162805
0.019271
0.0258081
0.0334021
0.0352516
0.0219581
0.0128664
0.00279228
0.00130143
0.000902741
0.000786245
0.000761879
0.000776966
0.000815585
0.000871771
0.000944552
0.00103572
0.00114904
0.00128987
0.00146494
0.00168185
0.00194808
0.00226949
0.002648
0.0030792
0.00355036
0.00403983
0.00451832
0.00495185
0.0053055
0.00552015
0.00558077
0.00552406
0.00531916
0.00498697
0.00456568
0.00410579
0.00366002
0.00327106
0.00296235
0.00273626
0.00258
0.00247367
0.00239852
0.00234137
0.00229422
0.00225264
0.00221481
0.00218049
0.00215031
0.00212532
0.00210672
0.00209708
0.00209454
0.00210156
0.002121
0.00215379
0.00220148
0.00226593
0.00234937
0.00245453
0.00258482
0.00274461
0.00293963
0.00317743
0.00346791
0.00382395
0.00426196
0.004802
0.00546712
0.00628107
0.00726322
0.00841989
0.00973183
0.0111385
0.0125277
0.0137798
0.0146676
0.0151269
0.0154313
0.0161353
0.0181872
0.0232857
0.0324147
0.0368921
0.0275785
0.0149953
0.00283114
0.00133617
0.000923091
0.000799222
0.00077162
0.00078543
0.000824139
0.000881498
0.000956437
0.00105074
0.0011682
0.00131422
0.00149552
0.00171954
0.00199344
0.00232239
0.00270727
0.0031423
0.00361312
0.00409648
0.00456162
0.0049734
0.00529587
0.00546324
0.00549492
0.00539734
0.00515446
0.00479326
0.00435629
0.00389599
0.00346353
0.00309681
0.0028129
0.00260875
0.00246839
0.00237134
0.00230022
0.00224358
0.00219472
0.00215021
0.00210884
0.00207071
0.0020366
0.00200757
0.00198475
0.00197048
0.00196499
0.0019671
0.00198154
0.00200912
0.00205122
0.00210953
0.00218607
0.00228328
0.00240422
0.00255278
0.00273411
0.00295513
0.0032251
0.00355647
0.00396561
0.00447351
0.00510591
0.00589199
0.00686062
0.00803244
0.00940677
0.0109438
0.0125458
0.0140685
0.0152505
0.0158583
0.0161127
0.0164135
0.0177281
0.0215326
0.0302132
0.037453
0.0334379
0.0172201
0.00286227
0.00136886
0.000942247
0.000811003
0.000780018
0.000792369
0.000830934
0.000889172
0.000965891
0.00106283
0.00118378
0.00133412
0.00152048
0.00175012
0.00202979
0.00236397
0.00275262
0.0031887
0.00365655
0.00413157
0.00458196
0.00497229
0.00526681
0.00539463
0.00540156
0.00526898
0.00499681
0.00461534
0.00417018
0.00371441
0.00329685
0.00295068
0.00268759
0.00250054
0.00237163
0.00228068
0.00221172
0.00215471
0.00210396
0.00205674
0.00201228
0.00197089
0.00193341
0.00190092
0.00187458
0.00185596
0.00184722
0.00184588
0.00185573
0.00187868
0.00191589
0.00196892
0.00203961
0.00213018
0.00224332
0.00238248
0.00255223
0.00275877
0.00301061
0.00331943
0.00370113
0.00417683
0.00477371
0.00552478
0.00646655
0.00763246
0.00904029
0.0106726
0.0124521
0.014225
0.0157697
0.0166477
0.0169591
0.017059
0.017623
0.0202618
0.0277943
0.0374893
0.0384738
0.0192776
0.00288582
0.00139944
0.000960238
0.000821644
0.000787125
0.000797823
0.00083599
0.000894781
0.00097286
0.0010719
0.00119562
0.00134935
0.00153957
0.00177328
0.00205679
0.00239396
0.00278385
0.00321841
0.00368084
0.00414541
0.00458079
0.00495692
0.00521736
0.00531826
0.00530353
0.0051436
0.00485014
0.00445583
0.00400814
0.00355987
0.00315713
0.00282882
0.00258241
0.00240816
0.00228721
0.00220007
0.00213208
0.00207426
0.00202166
0.00197207
0.00192498
0.00188082
0.00184045
0.00180497
0.00177554
0.00175334
0.00174095
0.0017371
0.00174283
0.00176166
0.00179457
0.00184302
0.00190876
0.0019938
0.00210054
0.00223201
0.00239221
0.0025866
0.00282284
0.00311172
0.0034683
0.00391324
0.0044742
0.00518658
0.00609263
0.0072368
0.00865446
0.0103516
0.0122753
0.0142817
0.0161821
0.0174384
0.0178848
0.0179254
0.0180217
0.0196715
0.0253799
0.0368967
0.0416406
0.0208913
0.00290199
0.00142782
0.000977095
0.000831205
0.000793003
0.000801843
0.000839336
0.000898317
0.000977304
0.00107786
0.00120362
0.00135976
0.00155258
0.00178878
0.00207421
0.00241212
0.00280076
0.00323105
0.00368587
0.0041413
0.00456647
0.00492214
0.00515551
0.00523811
0.00520393
0.00502456
0.00471703
0.00431603
0.00387001
0.0034307
0.00304157
0.00272796
0.00249429
0.00232912
0.00221337
0.00212843
0.00206064
0.00200183
0.00194757
0.00189598
0.00184671
0.00180023
0.00175744
0.00171939
0.00168722
0.00166207
0.00164619
0.00164004
0.00164227
0.00165741
0.0016865
0.00173098
0.00179251
0.00187296
0.00197452
0.00209982
0.00225232
0.00243678
0.00265996
0.00293166
0.00326587
0.00368242
0.00420869
0.00488123
0.00574628
0.00685713
0.00826512
0.0100005
0.0120417
0.0142766
0.016474
0.0181856
0.0188904
0.0189461
0.0187498
0.0195017
0.0238988
0.0351275
0.0430693
0.0216721
0.00291103
0.00145395
0.000992847
0.00083975
0.000797715
0.000804481
0.000840982
0.00089973
0.000979131
0.00108061
0.00120764
0.0013652
0.00155933
0.00179632
0.00208159
0.00241782
0.00280289
0.00322846
0.00367772
0.00412406
0.0045338
0.00487119
0.0050849
0.005155
0.00510597
0.00491417
0.00459903
0.00419627
0.003755
0.00332515
0.00294774
0.00264552
0.00242094
0.00226169
0.00214897
0.00206499
0.00199692
0.00193708
0.00188141
0.00182821
0.00177718
0.00172884
0.00168405
0.00164387
0.0016094
0.00158178
0.00156269
0.00155413
0.00155363
0.00156546
0.00159114
0.00163213
0.00169005
0.00176672
0.00186411
0.00198457
0.00213105
0.0023076
0.00252013
0.00277736
0.00309213
0.00348313
0.00397696
0.00461034
0.00543194
0.0065017
0.00788447
0.00963271
0.0117545
0.0141679
0.0166605
0.0188417
0.0199257
0.020096
0.0196748
0.0197047
0.0228398
0.033287
0.0435094
0.0219712
0.00291257
0.00147767
0.00100751
0.000847339
0.000801337
0.000805805
0.000840967
0.000899267
0.000978598
0.00108023
0.00120751
0.00136535
0.00155945
0.00179589
0.00207996
0.00241406
0.00279571
0.00321549
0.00365546
0.00408912
0.00448511
0.00480825
0.00500812
0.00507026
0.00501174
0.0048139
0.00449667
0.00409636
0.00366204
0.00324152
0.00287363
0.00257958