/*--------------------------------*- C++ -*----------------------------------*\
  =========                 |
  \\      /  F ield         | OpenFOAM: The Open Source CFD Toolbox
   \\    /   O peration     | Website:  https://openfoam.org
    \\  /    A nd           | Version:  13
     \\/     M anipulation  |
\*---------------------------------------------------------------------------*/
FoamFile
{
    format      ascii;
    class       volScalarField;
    location    "1.6";
    object      k;
}
// * * * * * * * * * * * * * * * * * * * * * * * * * * * * * * * * * * * * * //

dimensions      [0 2 -2 0 0 0 0];

internalField   nonuniform List<scalar> 
6400
(
2.26194e-07
1.10807e-06
2.33947e-06
3.62296e-06
4.8549e-06
6.02133e-06
7.12848e-06
8.19361e-06
9.22908e-06
1.02425e-05
1.12392e-05
1.2224e-05
1.32018e-05
1.41775e-05
1.51562e-05
1.61428e-05
1.71425e-05
1.8161e-05
1.92055e-05
2.02845e-05
2.14089e-05
2.25919e-05
2.38494e-05
2.51996e-05
2.66636e-05
2.82647e-05
3.00283e-05
3.19815e-05
3.41528e-05
3.65704e-05
3.92618e-05
4.22519e-05
4.5562e-05
4.92084e-05
5.32016e-05
5.75455e-05
6.22365e-05
6.72637e-05
7.26076e-05
7.82395e-05
8.41198e-05
9.0196e-05
9.63988e-05
0.000102636
0.000108784
0.000114686
0.000120179
0.000125177
0.000129964
0.000134614
0.00013825
0.00014078
0.000142205
0.000142513
0.000140979
0.000137731
0.000132782
0.00012617
0.000118029
0.000108597
9.8199e-05
8.72322e-05
7.61305e-05
6.53242e-05
5.51973e-05
4.6043e-05
3.80107e-05
3.1181e-05
2.54979e-05
2.08378e-05
1.70869e-05
1.40262e-05
1.14518e-05
9.2432e-06
7.30241e-06
5.55195e-06
3.93898e-06
2.44917e-06
1.14502e-06
2.34814e-07
1.11709e-06
9.35212e-06
2.01778e-05
3.11345e-05
4.13491e-05
5.07529e-05
5.95491e-05
6.7917e-05
7.59707e-05
8.37772e-05
9.13836e-05
9.88314e-05
0.000106162
0.000113415
0.000120632
0.000127853
0.000135121
0.000142486
0.000150006
0.000157749
0.000165803
0.000174266
0.000183257
0.000192904
0.00020335
0.000214748
0.000227255
0.000241032
0.000256228
0.000272982
0.000291404
0.000311569
0.000333513
0.00035722
0.000382625
0.000409617
0.000438036
0.000467686
0.000498335
0.000529721
0.000561554
0.000593515
0.000625242
0.00065632
0.000686237
0.000714395
0.000740163
0.000762856
0.000781609
0.000796439
0.0008068
0.000811711
0.000812955
0.000808849
0.000797336
0.000778744
0.000753047
0.00072025
0.000680676
0.000635021
0.000584357
0.000530104
0.000473951
0.000417738
0.000363286
0.000312192
0.000265672
0.000224477
0.000188814
0.000158413
0.000132549
0.00011045
9.14474e-05
7.48318e-05
5.99417e-05
4.6218e-05
3.3252e-05
2.09005e-05
9.6276e-06
1.16178e-06
2.46888e-06
2.10733e-05
4.42703e-05
6.63882e-05
8.63713e-05
0.000104543
0.000121349
0.000137116
0.00015205
0.000166286
0.000179923
0.000193047
0.000205736
0.00021807
0.000230125
0.000241985
0.000253745
0.000265513
0.000277423
0.00028963
0.000302318
0.000315689
0.000329966
0.000345379
0.00036216
0.000380535
0.000400711
0.000422868
0.000447148
0.000473643
0.000502388
0.000533361
0.000566477
0.000601601
0.000638554
0.000677123
0.000717077
0.00075817
0.000800148
0.000842748
0.000885688
0.000928664
0.000971335
0.00101331
0.00105413
0.00109326
0.00113016
0.00116421
0.00119469
0.00122091
0.00124196
0.0012563
0.00126276
0.00126378
0.00125489
0.00123513
0.0012046
0.00116305
0.00111055
0.00104764
0.000975481
0.000895769
0.000810755
0.000723114
0.000635767
0.000551598
0.000473158
0.000402356
0.000340271
0.00028706
0.000242075
0.000204113
0.000171715
0.000143394
0.000117749
9.35221e-05
6.96463e-05
4.54194e-05
2.14838e-05
2.54856e-06
4.12728e-06
3.4938e-05
7.06073e-05
0.000102347
0.000130064
0.00015494
0.000177771
0.000199014
0.000218931
0.000237689
0.00025541
0.000272207
0.000288191
0.000303478
0.0003182
0.000332504
0.000346561
0.000360574
0.000374776
0.000389431
0.000404832
0.000421286
0.000439111
0.00045862
0.000480104
0.000503826
0.000530007
0.000558812
0.000590346
0.000624646
0.000661681
0.000701355
0.000743517
0.000787974
0.000834501
0.000882861
0.000932807
0.000984093
0.00103647
0.00108967
0.00114342
0.0011974
0.00125126
0.00130456
0.00135682
0.00140747
0.00145587
0.00150126
0.00154272
0.00157923
0.00160965
0.00163276
0.00164569
0.00165017
0.00164561
0.00162686
0.00159454
0.00154821
0.00148764
0.00141308
0.00132544
0.00122638
0.0011183
0.00100429
0.000888021
0.000773463
0.000664501
0.000564489
0.00047578
0.000399451
0.000335255
0.000281859
0.000237248
0.000199152
0.000165326
0.000133688
0.000102284
6.92052e-05
3.39503e-05
4.0735e-06
6.03645e-06
5.01557e-05
9.77904e-05
0.000137735
0.000171683
0.000201834
0.000229356
0.000254838
0.000278582
0.000300764
0.000321513
0.000340954
0.000359226
0.000376492
0.000392948
0.000408822
0.000424387
0.000439954
0.000455877
0.000472541
0.000490353
0.000509727
0.000531068
0.00055475
0.000581107
0.000610414
0.00064288
0.000678637
0.000717738
0.00076016
0.000805806
0.000854518
0.000906086
0.000960269
0.0010168
0.00107542
0.00113585
0.00119781
0.00126103
0.00132521
0.00139002
0.00145511
0.00152004
0.00158433
0.00164741
0.00170865
0.0017673
0.00182253
0.00187336
0.0019187
0.00195735
0.00198805
0.00200794
0.00201634
0.00201697
0.00200196
0.00197119
0.00192424
0.00186048
0.00177968
0.00168209
0.00156889
0.00144222
0.00130505
0.00116142
0.00101608
0.000874271
0.000741094
0.000620828
0.000516273
0.000428331
0.000356022
0.000296955
0.00024802
0.000205965
0.000167701
0.000130255
9.03782e-05
4.57229e-05
5.56041e-06
8.16323e-06
6.62817e-05
0.000125364
0.000172607
0.000211907
0.00024647
0.000277841
0.000306754
0.000333562
0.000358453
0.000381561
0.000403028
0.000423023
0.000441766
0.000459528
0.000476636
0.000493476
0.000510484
0.000528143
0.000546966
0.000567477
0.00059019
0.000615587
0.000644092
0.000676059
0.000711754
0.000751349
0.00079492
0.00084245
0.000893834
0.000948894
0.00100739
0.00106903
0.00113351
0.00120049
0.00126961
0.00134054
0.00141291
0.00148636
0.00156048
0.00163488
0.00170908
0.00178262
0.00185496
0.00192553
0.00199372
0.00205886
0.00212021
0.00217687
0.00222787
0.0022721
0.00230837
0.00233538
0.00234968
0.00235425
0.00234668
0.00232196
0.00228003
0.0022198
0.00214068
0.00204164
0.00192286
0.00178585
0.00163265
0.00146701
0.00129382
0.00111928
0.000950145
0.000793046
0.000653472
0.000534705
0.000437231
0.000358936
0.000295989
0.000243915
0.000198305
0.000154912
0.000109049
5.6389e-05
6.93738e-06
1.04639e-05
8.30425e-05
0.000153053
0.000206954
0.000251031
0.000289433
0.000324066
0.000355825
0.00038513
0.000412202
0.000437194
0.000460271
0.000481651
0.000501615
0.000520525
0.000538816
0.000556996
0.000575636
0.000595353
0.000616789
0.000640583
0.000667344
0.000697616
0.000731854
0.000770405
0.000813496
0.000861226
0.000913579
0.000970427
0.00103155
0.00109663
0.00116531
0.00123717
0.00131177
0.00138862
0.00146724
0.00154714
0.00162782
0.00170878
0.00178951
0.00186951
0.00194828
0.00202533
0.00210019
0.00217241
0.00224154
0.00230717
0.00236896
0.00242629
0.00247846
0.00252473
0.00256422
0.00259593
0.00261806
0.0026286
0.00263051
0.00261745
0.00258763
0.00253872
0.00247105
0.00238183
0.00226917
0.00213399
0.00197653
0.00179938
0.00160665
0.00140468
0.0012011
0.0010047
0.00082421
0.000666589
0.00053553
0.000430711
0.00034836
0.000282786
0.000227871
0.000177669
0.000125829
6.60026e-05
8.197e-06
1.2906e-05
0.000100202
0.000180617
0.000240677
0.000289123
0.000330955
0.000368421
0.000402584
0.000433959
0.000462814
0.000489345
0.000513761
0.000536336
0.00055743
0.000577501
0.000597101
0.000616868
0.000637509
0.000659779
0.00068445
0.000712271
0.000743932
0.000780021
0.000820994
0.00086715
0.000918627
0.000975399
0.0010373
0.00110402
0.00117516
0.00125022
0.00132864
0.00140979
0.00149303
0.00157767
0.00166303
0.00174845
0.00183325
0.0019168
0.00199852
0.00207787
0.00215441
0.00222776
0.00229763
0.00236384
0.00242622
0.0024847
0.00253927
0.00258937
0.00263509
0.00267648
0.00271341
0.00274558
0.00277242
0.00279346
0.00280614
0.00281054
0.00280414
0.00278144
0.00273865
0.00267234
0.00257927
0.00246061
0.00231443
0.00214092
0.00194255
0.00172474
0.00149448
0.00126184
0.0010384
0.00083547
0.000661674
0.000520817
0.000411103
0.000326427
0.000258777
0.000199949
0.000141475
7.48122e-05
9.36299e-06
1.54583e-05
0.000117558
0.000207834
0.000273635
0.000326131
0.000371085
0.000411063
0.000447304
0.000480428
0.000510781
0.000538618
0.000564212
0.000587909
0.000610159
0.000631524
0.000652679
0.000674394
0.000697517
0.000722942
0.000751566
0.000784239
0.000821713
0.000864585
0.000913263
0.000967937
0.00102858
0.00109498
0.00116671
0.00124324
0.00132388
0.00140789
0.00149441
0.00158256
0.00167143
0.00176011
0.00184768
0.00193328
0.00201613
0.00209552
0.00217088
0.00224177
0.00230797
0.00236937
0.00242603
0.0024782
0.00252616
0.00257017
0.00261057
0.00264831
0.00268419
0.00271849
0.00275131
0.00278252
0.00281172
0.00283824
0.0028609
0.00287876
0.00288925
0.00289332
0.00288623
0.00286243
0.00281569
0.00273443
0.00261749
0.00246546
0.00227996
0.00206382
0.00182126
0.00156235
0.00130032
0.00105023
0.000826445
0.000639211
0.000491736
0.000379724
0.000293911
0.000223375
0.000156845
8.31498e-05
1.04728e-05
1.80879e-05
0.000134933
0.00023451
0.000305674
0.000361956
0.00040979
0.00045204
0.000490118
0.000524768
0.000556427
0.000585434
0.00061214
0.00063698
0.000660502
0.000683381
0.000706417
0.000730518
0.000756674
0.000785916
0.000819258
0.000857632
0.000901815
0.000952361
0.00100956
0.0010734
0.00114361
0.00121966
0.00130083
0.00138623
0.00147486
0.0015656
0.00165731
0.00174877
0.00183881
0.00192625
0.00201
0.00208907
0.00216264
0.00223007
0.00229093
0.00234507
0.00239291
0.00243454
0.00247071
0.00250253
0.00253092
0.00255686
0.0025809
0.00260401
0.00262781
0.00265314
0.0026805
0.00271023
0.00274237
0.00277657
0.00281197
0.00284709
0.00287953
0.00290609
0.00292199
0.00292779
0.00292256
0.00289761
0.00284324
0.00274165
0.00259034
0.0023978
0.002163
0.00189496
0.00160641
0.00131443
0.00103845
0.000796357
0.000599524
0.000449207
0.000337181
0.000250057
0.000172986
9.14205e-05
1.15741e-05
2.07638e-05
0.000152169
0.000260472
0.00033665
0.000396483
0.000447002
0.000491344
0.000531095
0.000567126
0.000599985
0.000630108
0.000657943
0.000684022
0.000709
0.000733673
0.000758972
0.000785944
0.000815721
0.000849464
0.00088829
0.000933175
0.000984867
0.0010438
0.00111003
0.00118327
0.00126288
0.00134794
0.00143731
0.0015297
0.00162371
0.00171786
0.00181063
0.00190053
0.00198609
0.00206598
0.00213899
0.00220416
0.00226079
0.0023086
0.00234729
0.00237703
0.00240068
0.00241964
0.00243357
0.00244256
0.00244808
0.00245184
0.00245669
0.00246419
0.00247461
0.0024897
0.00251001
0.00253601
0.00256817
0.00260649
0.00265064
0.00269974
0.00275237
0.00280638
0.00285861
0.00290464
0.00293384
0.00294493
0.00293977
0.00290958
0.00283571
0.00269568
0.00249251
0.00223893
0.00194398
0.00162394
0.0013013
0.00100106
0.000744691
0.000543293
0.000394016
0.000282947
0.000191311
0.000100152
1.27298e-05
2.34574e-05
0.000169133
0.000285578
0.000366438
0.000429605
0.000482645
0.000528949
0.000570267
0.000607605
0.000641628
0.000672884
0.000701927
0.000729398
0.000756069
0.000782859
0.000810835
0.000841184
0.000875179
0.000914095
0.000959119
0.00101122
0.00107103
0.00113877
0.00121416
0.0012965
0.00138468
0.00147731
0.00157278
0.00166935
0.00176519
0.00185844
0.00194727
0.00202991
0.00210475
0.00217038
0.00222572
0.00226993
0.00230262
0.00232528
0.00233947
0.0023452
0.00234533
0.00233704
0.00232251
0.00230654
0.00229118
0.00227823
0.00226898
0.00226473
0.00226386
0.00226998
0.00228368
0.00230469
0.00233383
0.00237148
0.00241807
0.0024736
0.00253757
0.00260863
0.00268476
0.00276303
0.00283874
0.00290516
0.00294589
0.00296039
0.00295036
0.00290048
0.00277548
0.00256476
0.0022909
0.00196563
0.00161125
0.00125771
0.000936498
0.000671783
0.000471694
0.000326254
0.000213838
0.000110098
1.40334e-05
2.61422e-05
0.000185714
0.000309714
0.000394929
0.000461227
0.000516651
0.000564823
0.000607652
0.000646276
0.000681486
0.000713947
0.000744328
0.000773389
0.000802022
0.000831276
0.000862356
0.000896589
0.000935375
0.000980081
0.00103191
0.00109176
0.00116004
0.00123662
0.0013208
0.00141132
0.00150657
0.00160459
0.00170328
0.00180044
0.00189384
0.00198129
0.0020607
0.00213017
0.00218811
0.00223318
0.00226511
0.00228319
0.00229039
0.00229076
0.00227888
0.0022538
0.00222428
0.00219235
0.0021602
0.00213008
0.00210377
0.00208246
0.00206687
0.00205835
0.00205521
0.00205719
0.002068
0.00208516
0.00210953
0.0021414
0.00218196
0.00223234
0.00229347
0.00236586
0.0024491
0.0025428
0.00264385
0.0027475
0.00284631
0.00292802
0.00296839
0.00297714
0.00294653
0.0028367
0.00261663
0.00231691
0.00195556
0.00156374
0.0011806
0.000844338
0.000579175
0.000385808
0.000243512
0.000122353
1.56213e-05
2.87949e-05
0.000201821
0.000332788
0.000422042
0.000491275
0.000548964
0.00059894
0.00064326
0.000683193
0.000719656
0.000753435
0.000785322
0.000816197
0.00084708
0.000879153
0.000913757
0.000952355
0.000996452
0.00104747
0.00110656
0.00117444
0.00125119
0.00133623
0.00142828
0.00152549
0.00162565
0.00172625
0.00182469
0.00191835
0.00200468
0.00208124
0.00214587
0.00219667
0.00223286
0.00225091
0.00225679
0.00225435
0.00223533
0.0022025
0.00216134
0.00211586
0.00207018
0.00202679
0.00198769
0.00195456
0.00192837
0.00190945
0.00189852
0.00189426
0.00189393
0.00190049
0.00191318
0.00193076
0.00195361
0.00198164
0.00201481
0.00205375
0.00209974
0.00215521
0.00222363
0.00230722
0.00240797
0.00252406
0.00264873
0.00277819
0.00289738
0.00297327
0.00299928
0.00298129
0.0028813
0.00264652
0.00231171
0.0019077
0.00147636
0.00106805
0.000726094
0.000469232
0.000284564
0.000138584
1.77087e-05
3.13947e-05
0.00021738
0.000354733
0.000447712
0.000519694
0.000579542
0.000631279
0.000677097
0.000718393
0.000756206
0.000791446
0.000825027
0.000857955
0.00089138
0.000926617
0.00096514
0.00100853
0.00105837
0.00111608
0.00118268
0.00125858
0.00134345
0.00143609
0.0015346
0.00163648
0.00173889
0.00183882
0.00193321
0.00201912
0.00209379
0.00215478
0.00220024
0.00222573
0.00223414
0.00223326
0.00221505
0.00217978
0.00213144
0.00207706
0.00202025
0.00196475
0.00191436
0.00187118
0.00183638
0.00181054
0.00179348
0.00178555
0.00178341
0.00178646
0.00179605
0.00181064
0.00182951
0.00185187
0.0018774
0.00190571
0.00193666
0.00197031
0.0020072
0.00204825
0.00209495
0.00214976
0.00221712
0.00230528
0.00242102
0.00256043
0.00271006
0.00286111
0.00297125
0.00301569
0.00300757
0.0029077
0.00264732
0.00226781
0.00181457
0.00134461
0.000920626
0.000585266
0.000342628
0.00016115
2.06124e-05
3.39236e-05
0.000232333
0.0003755
0.000471898
0.000546447
0.000608357
0.000661826
0.000709168
0.000751899
0.000791178
0.000828036
0.00086351
0.000898732
0.000934979
0.0009737
0.00101649
0.00106503
0.00112094
0.00118554
0.00125965
0.00134327
0.00143549
0.00153446
0.00163759
0.00174171
0.00184342
0.00193921
0.00202573
0.00209982
0.00215874
0.00219933
0.00221746
0.00222077
0.00221028
0.00217984
0.00213094
0.00207135
0.00200612
0.00194029
0.00187855
0.00182421
0.00177977
0.00174611
0.00172281
0.00171106
0.00170711
0.00170815
0.00171688
0.00173042
0.00174852
0.00177002
0.00179426
0.0018208
0.00184917
0.00187902
0.00191011
0.00194228
0.00197557
0.00201025
0.00204688
0.00208675
0.00213209
0.00218669
0.00225677
0.00235101
0.0024875
0.00265307
0.00282802
0.00296961
0.00303027
0.00302744
0.00291498
0.002611
0.00217553
0.00166774
0.00116678
0.000742268
0.000424585
0.00019327
2.47832e-05
3.63641e-05
0.00024663
0.000395058
0.000494574
0.000571511
0.000635392
0.00069057
0.000739471
0.000783721
0.000824591
0.000863228
0.000900791
0.000938535
0.000977863
0.00102035
0.00106769
0.00112164
0.00118379
0.0012553
0.00133666
0.00142736
0.00152584
0.00162953
0.00173512
0.00183884
0.00193676
0.00202505
0.00210018
0.00215906
0.00219637
0.00221044
0.00221024
0.00219204
0.00215158
0.00209292
0.00202404
0.00195
0.00187716
0.00181047
0.00175385
0.00170928
0.0016774
0.00165874
0.00165098
0.00164978
0.00165597
0.00166836
0.00168558
0.00170648
0.00173037
0.00175653
0.00178447
0.00181373
0.00184416
0.00187554
0.00190757
0.00193997
0.00197253
0.00200527
0.00203832
0.00207237
0.00210844
0.0021473
0.0021916
0.00224858
0.00232748
0.00244166
0.00261115
0.00280606
0.00297298
0.00304547
0.00303916
0.0028953
0.00252813
0.00202126
0.00146171
0.00094576
0.000537668
0.000239018
3.0851e-05
3.87008e-05
0.000260236
0.00041339
0.000515726
0.000594874
0.000660638
0.000717505
0.000768003
0.000813856
0.00085644
0.000897012
0.000936847
0.000977318
0.00101995
0.00106642
0.00111853
0.00117803
0.00124643
0.00132466
0.00141276
0.00150963
0.00161299
0.00171954
0.00182529
0.0019259
0.00201709
0.00209484
0.00215559
0.00219261
0.00220558
0.00220291
0.00218014
0.00213244
0.00206709
0.00199034
0.00190915
0.00182999
0.00175894
0.0017
0.00165528
0.00162485
0.00160993
0.00160499
0.00160608
0.00161574
0.00163082
0.00165021
0.00167277
0.00169784
0.00172495
0.00175382
0.00178432
0.00181644
0.00185006
0.00188491
0.00192052
0.00195635
0.00199155
0.00202558
0.00205766
0.00208743
0.00211581
0.00214493
0.00217803
0.00221755
0.00226445
0.00233059
0.00243018
0.00258895
0.00279934
0.00298269
0.00305985
0.00303572
0.00283106
0.00237817
0.00179387
0.0011959
0.000687498
0.000302591
3.95312e-05
4.0922e-05
0.000273123
0.000430485
0.000535351
0.000616533
0.000684091
0.000742626
0.000794755
0.000842289
0.0008867
0.000929348
0.000971617
0.00101499
0.0010611
0.00111172
0.00116871
0.00123378
0.00130829
0.00139283
0.00148694
0.00158884
0.00169551
0.00180294
0.00190651
0.00200148
0.00208331
0.00214797
0.00218801
0.00220221
0.00219914
0.00217459
0.00212319
0.00205331
0.00197066
0.001883
0.00179792
0.001722
0.00165992
0.00161374
0.00158441
0.00157094
0.00156719
0.00157038
0.00158155
0.00159813
0.00161842
0.00164149
0.00166669
0.00169368
0.00172232
0.0017526
0.00178457
0.00181833
0.00185404
0.00189183
0.00193174
0.00197324
0.00201546
0.00205652
0.00209492
0.00212909
0.00215858
0.00218239
0.00220194
0.00222221
0.00225259
0.00229551
0.00235013
0.00243942
0.002587
0.00281082
0.00299724
0.00306764
0.00300495
0.00270173
0.00214193
0.00148587
0.000875877
0.000387103
5.14657e-05
4.30181e-05
0.00028527
0.000446346
0.000553456
0.000636496
0.000705756
0.00076593
0.000819714
0.000868994
0.00091533
0.000960173
0.00100501
0.00105142
0.00110113
0.00115599
0.00121786
0.0012884
0.00136871
0.001459
0.00155819
0.00166382
0.00177215
0.00187848
0.00197769
0.00206474
0.00213512
0.00218149
0.00219933
0.00219825
0.00217508
0.0021234
0.00205113
0.0019644
0.00187118
0.00178001
0.00169841
0.00163175
0.00158253
0.00155219
0.00153864
0.0015351
0.00153882
0.00155041
0.00156728
0.00158751
0.00161013
0.00163455
0.00166049
0.0016879
0.00171687
0.00174758
0.00178025
0.00181511
0.00185236
0.00189209
0.00193428
0.00197898
0.00202612
0.00207533
0.00212468
0.00217099
0.00221038
0.00224183
0.00226361
0.00227531
0.00228367
0.00229815
0.00233028
0.00238088
0.00246066
0.00260524
0.0028419
0.00301275
0.00305833
0.00293055
0.0024745
0.00180089
0.00109876
0.000492361
6.68366e-05
4.49812e-05
0.000296666
0.000460975
0.000570051
0.000654774
0.000725638
0.000787414
0.000842862
0.000893938
0.000942273
0.000989404
0.0010369
0.00108643
0.00113981
0.00119892
0.0012656
0.00134136
0.00142703
0.00152233
0.00162557
0.00173358
0.0018419
0.00194528
0.00203817
0.00211535
0.00217096
0.00219593
0.00219867
0.0021801
0.00213145
0.00205957
0.00197072
0.00187307
0.00177584
0.00168758
0.00161468
0.0015604
0.00152657
0.00151133
0.00150709
0.00150996
0.00152093
0.00153717
0.00155665
0.00157818
0.0016012
0.00162546
0.00165095
0.00167781
0.00170628
0.00173664
0.00176924
0.00180439
0.00184241
0.00188357
0.00192805
0.00197588
0.00202681
0.00208036
0.00213632
0.00219417
0.00224965
0.00229708
0.00233239
0.00235087
0.00235698
0.00235722
0.00235585
0.00237152
0.00241582
0.0024923
0.00263923
0.00288877
0.0030199
0.00302311
0.00275642
0.00211874
0.00134611
0.000613656
8.51919e-05
4.68048e-05
0.000307302
0.000474383
0.000585155
0.000671384
0.000743747
0.000807075
0.000864183
0.000917081
0.000967465
0.00101694
0.00106716
0.00111985
0.0011769
0.00124019
0.00131149
0.00139214
0.0014826
0.00158209
0.00168827
0.00179729
0.00190408
0.00200288
0.00208787
0.00215354
0.00218967
0.00219921
0.00218723
0.00214525
0.00207689
0.00198844
0.00188798
0.00178515
0.00168951
0.00160878
0.00154736
0.00150714
0.00148828
0.00148244
0.00148338
0.00149274
0.00150766
0.00152588
0.00154598
0.00156728
0.00158955
0.00161278
0.00163714
0.00166289
0.00169035
0.0017199
0.00175191
0.00178677
0.00182488
0.00186662
0.00191234
0.00196228
0.00201654
0.00207492
0.00213678
0.00220087
0.002267
0.00233193
0.00238801
0.00242551
0.00244204
0.00244485
0.0024331
0.00241722
0.0024129
0.00245446
0.00252964
0.00268976
0.00292662
0.00302893
0.00292062
0.0024121
0.00160477
0.000743135
0.000105928
4.84834e-05
0.00031717
0.000486585
0.000598789
0.000686348
0.000760095
0.000824912
0.000883655
0.00093838
0.000990834
0.00104268
0.00109563
0.00115148
0.00121213
0.00127945
0.00135511
0.00144021
0.00153481
0.00163761
0.00174563
0.00185438
0.00195826
0.00205118
0.00212729
0.00217747
0.00219635
0.00219351
0.00216203
0.00210062
0.00201572
0.00191485
0.00180766
0.00170455
0.00161467
0.00154412
0.00149512
0.00146977
0.00146049
0.00145941
0.00146604
0.00147903
0.00149558
0.00151405
0.00153354
0.00155373
0.00157461
0.00159635
0.00161923
0.00164359
0.00166981
0.00169829
0.00172944
0.00176369
0.00180147
0.00184322
0.00188941
0.00194045
0.00199669
0.00205828
0.00212506
0.00219627
0.00227028
0.00234552
0.00242033
0.00248417
0.0025228
0.00253674
0.00253424
0.00250733
0.00247055
0.00245461
0.00249136
0.00257308
0.0027622
0.00294391
0.00297672
0.00266134
0.00186456
0.000876613
0.000127783
5.00127e-05
0.000326268
0.000497601
0.00061098
0.000699691
0.0007747
0.000840927
0.000901262
0.000957793
0.00101231
0.00106652
0.00112217
0.00118112
0.00124524
0.00131639
0.00139607
0.0014851
0.00158316
0.00168837
0.00179717
0.00190451
0.00200432
0.00209016
0.00215574
0.00218905
0.00219567
0.00217798
0.00212748
0.00204992
0.00195192
0.0018427
0.00173304
0.0016334
0.00155175
0.00149213
0.00145697
0.00144199
0.0014382
0.00144132
0.00145168
0.00146624
0.00148292
0.00150059
0.00151876
0.00153734
0.0015565
0.00157652
0.00159776
0.00162061
0.00164548
0.0016728
0.001703
0.00173651
0.00177377
0.00181526
0.00186148
0.00191295
0.00197018
0.00203363
0.00210355
0.0021798
0.00226153
0.00234676
0.00243245
0.00251714
0.00258673
0.00262368
0.00263433
0.00262074
0.00257445
0.0025159
0.00249053
0.00252618
0.00262461
0.00284622
0.00295908
0.00281739
0.00211589
0.00101837
0.000151133
5.13897e-05
0.000334597
0.000507454
0.000621758
0.000711442
0.000787582
0.000855127
0.000916989
0.000975281
0.00103182
0.00108834
0.00114664
0.00120857
0.001276
0.00135069
0.00143399
0.00152641
0.0016272
0.00173397
0.00184262
0.0019476
0.00204251
0.00212092
0.00217312
0.00219261
0.00218902
0.00215343
0.00208745
0.00199645
0.00188871
0.0017748
0.00166607
0.00157241
0.0015002
0.00145169
0.00142812
0.00141998
0.0014194
0.00142617
0.00143829
0.00145303
0.0014689
0.00148515
0.00150158
0.00151829
0.00153555
0.00155372
0.00157321
0.00159449
0.00161798
0.00164413
0.00167338
0.00170617
0.00174292
0.0017841
0.00183021
0.00188179
0.00193947
0.00200387
0.00207559
0.002155
0.00224198
0.00233551
0.00243309
0.00253047
0.00262479
0.00269532
0.00272729
0.0027318
0.00269951
0.00262689
0.00254889
0.00251994
0.00256297
0.00269596
0.00286241
0.00287774
0.00235614
0.00118273
0.000178545
5.26124e-05
0.000342158
0.000516171
0.000631159
0.000721634
0.000798768
0.000867524
0.00093083
0.000990811
0.0010493
0.00110806
0.00116889
0.00123365
0.00130416
0.00138208
0.00146856
0.0015638
0.00166663
0.00177418
0.00188185
0.00198369
0.00207299
0.00214297
0.00218147
0.00219093
0.00217434
0.00212393
0.0020446
0.00194291
0.0018285
0.0017129
0.00160747
0.00152104
0.00145811
0.00142103
0.00140523
0.00140106
0.00140329
0.0014122
0.00142475
0.00143881
0.00145329
0.00146776
0.00148221
0.00149686
0.00151208
0.0015283
0.00154598
0.00156562
0.0015877
0.00161269
0.00164104
0.00167318
0.00170953
0.00175051
0.00179659
0.0018483
0.00190625
0.00197116
0.00204383
0.00212503
0.00221526
0.00231439
0.00242104
0.00253192
0.00264186
0.00274404
0.0028099
0.00283334
0.00282387
0.00276348
0.00265569
0.00256665
0.00254633
0.00260808
0.00279392
0.00288183
0.00256961
0.00137877
0.000212567
5.368e-05
0.000348956
0.00052378
0.00063922
0.000730307
0.000808288
0.000878136
0.000942784
0.00100436
0.00106471
0.0011256
0.00118882
0.00125621
0.00132954
0.00141034
0.00149954
0.00159703
0.00170124
0.00180887
0.0019149
0.00201306
0.00209651
0.00215709
0.00218364
0.00218502
0.00215441
0.00209152
0.00200118
0.00189138
0.00177294
0.0016579
0.00155724
0.00147849
0.00142444
0.00139655
0.00138599
0.00138417
0.00138868
0.00139843
0.00141054
0.00142336
0.00143611
0.00144858
0.00146088
0.00147334
0.0014864
0.00150057
0.00151635
0.00153428
0.00155491
0.00157874
0.00160623
0.00163782
0.00167391
0.00171489
0.00176117
0.00181319
0.00187153
0.00193689
0.00201017
0.00209236
0.00218445
0.00228708
0.00239998
0.00252114
0.00264583
0.00276826
0.0028724
0.00292657
0.00293857
0.00290239
0.00280276
0.00265329
0.00257178
0.00257139
0.00267761
0.00280592
0.00270118
0.00159456
0.000251669
5.45925e-05
0.000354997
0.000530316
0.000645984
0.000737505
0.000816182
0.000886991
0.000952862
0.00101592
0.001078
0.00114088
0.00120632
0.00127612
0.00135198
0.00143528
0.00152673
0.00162593
0.00173094
0.00183807
0.00194198
0.00203616
0.00211368
0.00216409
0.00218184
0.00217371
0.00213164
0.00205811
0.00195897
0.00184338
0.00172299
0.00161004
0.00151479
0.00144327
0.00139751
0.00137611
0.00136907
0.00136876
0.00137465
0.00138436
0.00139548
0.00140671
0.00141751
0.00142782
0.00143786
0.00144802
0.00145881
0.00147081
0.00148459
0.00150073
0.00151985
0.00154248
0.00156913
0.00160027
0.00163626
0.00167746
0.0017242
0.00177685
0.00183587
0.00190188
0.00197577
0.00205864
0.00215178
0.00225645
0.00237338
0.00250196
0.00263906
0.00277762
0.0029111
0.00300577
0.00304247
0.00303401
0.00295409
0.00280202
0.00263124
0.00256649
0.00261013
0.00274098
0.00275215
0.00181989
0.000293265
5.53514e-05
0.00036029
0.000535811
0.000651498
0.000743276
0.000822495
0.000894125
0.000961085
0.00102549
0.00108917
0.00115386
0.00122133
0.00129329
0.00137137
0.00145678
0.00155003
0.00165042
0.00175571
0.00186189
0.00196333
0.00205335
0.00212478
0.00216586
0.002177
0.00215928
0.00210752
0.00202527
0.00191936
0.00179991
0.00167912
0.00156911
0.00147926
0.00141422
0.00137545
0.00135843
0.00135352
0.00135432
0.00136069
0.00136976
0.00137954
0.00138898
0.00139771
0.00140576
0.00141344
0.00142121
0.00142964
0.00143937
0.00145103
0.00146529
0.00148281
0.0015042
0.00153001
0.00156074
0.00159676
0.0016384
0.00168589
0.00173951
0.00179959
0.00186662
0.00194138
0.00202495
0.00211879
0.00222458
0.00234386
0.00247731
0.0026236
0.00277789
0.00293054
0.00306459
0.00313855
0.00315481
0.00310392
0.00296234
0.00275003
0.00260035
0.00257829
0.00268534
0.00275689
0.00204611
0.000336708
5.5959e-05
0.000364844
0.000540307
0.000655814
0.000747676
0.000827279
0.000899581
0.000967487
0.00103309
0.0010982
0.00116453
0.0012338
0.00130766
0.00138762
0.00147477
0.00156938
0.00167052
0.00177565
0.00188052
0.0019793
0.00206513
0.00213078
0.00216402
0.00216908
0.00214308
0.00208337
0.00199423
0.00188335
0.00176158
0.00164141
0.00153466
0.0014498
0.00139029
0.00135675
0.0013426
0.00133887
0.00134037
0.00134655
0.00135461
0.00136284
0.00137036
0.00137694
0.00138268
0.00138796
0.0013933
0.0013993
0.00140666
0.00141612
0.00142839
0.00144422
0.0014643
0.00148924
0.00151958
0.00155573
0.00159797
0.00164648
0.00170142
0.00176296
0.00183144
0.00190745
0.001992
0.00208654
0.00219301
0.00231352
0.00244985
0.00260226
0.00276779
0.00293807
0.00310187
0.00322072
0.00326508
0.00324645
0.00312698
0.00290908
0.00266657
0.0025722
0.00261092
0.00270008
0.00224274
0.000376838
5.64182e-05
0.000368673
0.000543843
0.000658984
0.000750762
0.00083059
0.00090341
0.000972107
0.00103875
0.00110512
0.00117289
0.00124372
0.0013192
0.00140073
0.00148923
0.00158479
0.00168627
0.0017909
0.00189422
0.00199029
0.00207224
0.00213223
0.00215934
0.00215929
0.00212627
0.00206025
0.00196592
0.00185161
0.00172868
0.00160973
0.00150615
0.00142556
0.00137044
0.00134044
0.00132802
0.00132491
0.00132659
0.00133215
0.00133896
0.00134551
0.00135108
0.0013555
0.00135894
0.00136182
0.0013647
0.00136825
0.0013732
0.00138038
0.0013906
0.00140465
0.00142333
0.00144734
0.00147729
0.0015136
0.00155657
0.00160632
0.00166288
0.00172628
0.00179664
0.00187437
0.00196028
0.00205574
0.00216278
0.00228392
0.00242178
0.00257814
0.00275224
0.00293847
0.00312426
0.00328489
0.00336712
0.00337825
0.0032897
0.00307931
0.00278694
0.0025977
0.00257725
0.00264832
0.00238561
0.000408228
5.67331e-05
0.000371789
0.00054646
0.000661058
0.000752582
0.000832474
0.000905657
0.000974989
0.00104251
0.00110995
0.00117895
0.0012511
0.00132791
0.00141068
0.00150018
0.00159633
0.00169779
0.00180163
0.00190326
0.00199666
0.00207506
0.00213022
0.00215251
0.00214804
0.0021097
0.00203898
0.001941
0.00182454
0.0017013
0.00158382
0.00148303
0.0014058
0.00135385
0.00132594
0.00131436
0.00131142
0.00131286
0.00131749
0.00132293
0.00132777
0.00133139
0.00133369
0.00133489
0.00133543
0.0013359
0.00133704
0.0013396
0.00134447
0.00135256
0.00136477
0.00138198
0.00140499
0.00143449
0.00147097
0.00151474
0.00156589
0.00162433
0.00168992
0.00176259
0.00184248
0.00193018
0.00202692
0.00213465
0.00225613
0.0023946
0.00255307
0.00273269
0.00293027
0.00313528
0.00332812
0.00345887
0.00349922
0.00344615
0.00325288
0.00294443
0.00264989
0.00256272
0.00260284
0.00245438
0.000423392
5.69085e-05
0.000374203
0.00054819
0.000662066
0.000753142
0.000832936
0.000906333
0.000976155
0.0010444
0.00111272
0.00118273
0.00125596
0.00133384
0.00141753
0.00150768
0.00160406
0.00170517
0.00180797
0.0019078
0.00199862
0.00207412
0.00212536
0.00214437
0.00213615
0.00209404
0.00202014
0.00191989
0.00180233
0.00167941
0.0015634
0.00146481
0.00138995
0.00133998
0.00131292
0.00130143
0.0012983
0.00129914
0.00130268
0.00130669
0.00130989
0.00131152
0.00131181
0.00131092
0.00130922
0.00130735
0.00130628
0.00130649
0.00130907
0.00131503
0.00132536
0.00134103
0.00136296
0.00139194
0.00142856
0.00147316
0.0015258