/*--------------------------------*- C++ -*----------------------------------*\
  =========                 |
  \\      /  F ield         | OpenFOAM: The Open Source CFD Toolbox
   \\    /   O peration     | Website:  https://openfoam.org
    \\  /    A nd           | Version:  13
     \\/     M anipulation  |
\*---------------------------------------------------------------------------*/
FoamFile
{
    format      ascii;
    class       volScalarField;
    location    "1.6";
    object      nut;
}
// * * * * * * * * * * * * * * * * * * * * * * * * * * * * * * * * * * * * * //

dimensions      [0 2 -1 0 0 0 0];

internalField   nonuniform List<scalar> 
6400
(
3.97307e-10
1.94639e-09
4.10968e-09
6.36476e-09
8.52952e-09
1.05797e-08
1.2526e-08
1.4399e-08
1.62203e-08
1.80032e-08
1.97569e-08
2.14898e-08
2.32104e-08
2.49274e-08
2.66493e-08
2.8385e-08
3.01435e-08
3.19352e-08
3.37724e-08
3.56706e-08
3.76493e-08
3.97319e-08
4.19466e-08
4.4326e-08
4.69074e-08
4.97319e-08
5.28449e-08
5.62943e-08
6.01303e-08
6.44029e-08
6.91603e-08
7.44466e-08
8.02991e-08
8.67462e-08
9.38062e-08
1.01485e-07
1.09778e-07
1.18663e-07
1.28107e-07
1.38059e-07
1.48449e-07
1.59184e-07
1.70143e-07
1.81163e-07
1.92025e-07
2.02452e-07
2.1216e-07
2.20993e-07
2.29446e-07
2.37671e-07
2.44109e-07
2.48589e-07
2.51121e-07
2.51679e-07
2.48987e-07
2.43264e-07
2.34536e-07
2.22863e-07
2.08486e-07
1.9182e-07
1.73443e-07
1.54054e-07
1.34422e-07
1.1531e-07
9.7398e-08
8.12073e-08
6.70038e-08
5.49319e-08
4.48919e-08
3.66653e-08
3.00505e-08
2.46565e-08
2.01236e-08
1.62381e-08
1.28263e-08
9.7507e-09
6.91761e-09
4.30123e-09
2.01093e-09
4.12395e-10
1.96222e-09
1.61464e-07
5.09867e-07
8.52292e-07
1.14736e-06
1.4005e-06
1.62748e-06
1.83812e-06
2.03716e-06
2.22645e-06
2.40651e-06
2.57742e-06
2.7392e-06
2.89191e-06
3.03585e-06
3.17163e-06
3.30024e-06
3.42308e-06
3.54194e-06
3.65894e-06
3.77644e-06
3.8969e-06
4.02281e-06
4.15659e-06
4.30059e-06
4.45704e-06
4.62811e-06
4.8158e-06
5.02199e-06
5.24834e-06
5.4963e-06
5.76709e-06
6.06172e-06
6.38102e-06
6.72574e-06
7.09654e-06
7.49399e-06
7.91855e-06
8.37046e-06
8.84954e-06
9.35502e-06
9.88522e-06
1.04372e-05
1.10062e-05
1.15839e-05
1.21574e-05
1.27073e-05
1.32059e-05
1.36187e-05
1.39665e-05
1.4259e-05
1.44264e-05
1.45832e-05
1.46669e-05
1.46355e-05
1.44945e-05
1.42416e-05
1.38706e-05
1.33787e-05
1.27679e-05
1.20456e-05
1.12248e-05
1.03245e-05
9.36967e-06
8.38916e-06
7.41389e-06
6.4739e-06
5.59483e-06
4.79493e-06
4.0816e-06
3.43997e-06
2.86691e-06
2.36724e-06
1.93028e-06
1.54024e-06
1.18096e-06
8.36965e-07
4.94166e-07
1.63426e-07
2.04047e-09
4.33706e-09
5.2075e-07
2.0953e-06
3.76078e-06
5.10979e-06
6.18852e-06
7.08831e-06
7.87163e-06
8.57258e-06
9.20767e-06
9.78393e-06
1.03041e-05
1.07692e-05
1.11809e-05
1.15417e-05
1.18559e-05
1.21299e-05
1.23714e-05
1.25898e-05
1.2795e-05
1.29972e-05
1.32059e-05
1.34299e-05
1.36768e-05
1.3953e-05
1.42638e-05
1.46136e-05
1.50058e-05
1.54432e-05
1.59277e-05
1.64608e-05
1.70429e-05
1.76745e-05
1.83551e-05
1.90841e-05
1.98605e-05
2.06825e-05
2.15478e-05
2.24529e-05
2.33928e-05
2.43612e-05
2.53495e-05
2.63478e-05
2.73451e-05
2.83254e-05
2.92685e-05
3.01491e-05
3.09339e-05
3.16308e-05
3.22335e-05
3.27262e-05
3.31049e-05
3.33074e-05
3.34375e-05
3.33808e-05
3.31202e-05
3.26717e-05
3.20259e-05
3.11768e-05
3.01247e-05
2.88774e-05
2.74499e-05
2.58655e-05
2.41551e-05
2.23569e-05
2.05136e-05
1.86693e-05
1.68638e-05
1.513e-05
1.34878e-05
1.19421e-05
1.04822e-05
9.09321e-06
7.76319e-06
6.45726e-06
5.12331e-06
3.68874e-06
2.09132e-06
5.43296e-07
4.47661e-09
7.25126e-09
9.48019e-07
4.02391e-06
7.35617e-06
1.00118e-05
1.20597e-05
1.36993e-05
1.50713e-05
1.62566e-05
1.72975e-05
1.82147e-05
1.9018e-05
1.97131e-05
2.03051e-05
2.08013e-05
2.12116e-05
2.1549e-05
2.18294e-05
2.207e-05
2.2289e-05
2.25038e-05
2.27306e-05
2.29835e-05
2.32748e-05
2.36144e-05
2.40096e-05
2.44656e-05
2.49858e-05
2.55719e-05
2.62241e-05
2.69413e-05
2.77209e-05
2.85594e-05
2.94525e-05
3.03947e-05
3.13797e-05
3.23999e-05
3.34467e-05
3.45098e-05
3.55773e-05
3.66356e-05
3.76695e-05
3.86617e-05
3.96059e-05
4.04904e-05
4.13052e-05
4.20457e-05
4.27162e-05
4.32851e-05
4.37434e-05
4.40781e-05
4.42766e-05
4.42833e-05
4.424e-05
4.3988e-05
4.35005e-05
4.28251e-05
4.19503e-05
4.08681e-05
3.9577e-05
3.80827e-05
3.64003e-05
3.45539e-05
3.25755e-05
3.05083e-05
2.84019e-05
2.63095e-05
2.42799e-05
2.23478e-05
2.0525e-05
1.8795e-05
1.71165e-05
1.54349e-05
1.36761e-05
1.17696e-05
9.61675e-06
7.05852e-06
3.93658e-06
9.43941e-07
7.15581e-09
1.06069e-08
1.41189e-06
5.96195e-06
1.08283e-05
1.46692e-05
1.76038e-05
1.99185e-05
2.18198e-05
2.34316e-05
2.48224e-05
2.6028e-05
2.70669e-05
2.79502e-05
2.86874e-05
2.92893e-05
2.97703e-05
3.01484e-05
3.04448e-05
3.06828e-05
3.08868e-05
3.10801e-05
3.12844e-05
3.15181e-05
3.17964e-05
3.21307e-05
3.25301e-05
3.30007e-05
3.35457e-05
3.41658e-05
3.4859e-05
3.56211e-05
3.64455e-05
3.7324e-05
3.8247e-05
3.92037e-05
4.01826e-05
4.11722e-05
4.21608e-05
4.31377e-05
4.40924e-05
4.5016e-05
4.59011e-05
4.67421e-05
4.75251e-05
4.82426e-05
4.8888e-05
4.94554e-05
4.99374e-05
5.03219e-05
5.05999e-05
5.07623e-05
5.08006e-05
5.06285e-05
5.03357e-05
5.00939e-05
4.9456e-05
4.86553e-05
4.76719e-05
4.64895e-05
4.51035e-05
4.35074e-05
4.17097e-05
3.9731e-05
3.75957e-05
3.53466e-05
3.30371e-05
3.07344e-05
2.85102e-05
2.64284e-05
2.45279e-05
2.2803e-05
2.11917e-05
1.95817e-05
1.78227e-05
1.57434e-05
1.31509e-05
9.8002e-06
5.49519e-06
1.30878e-06
9.76824e-09
1.43464e-08
1.89907e-06
7.86085e-06
1.41148e-05
1.90217e-05
2.27604e-05
2.56899e-05
2.80713e-05
3.00653e-05
3.17642e-05
3.32184e-05
3.44553e-05
3.54912e-05
3.6339e-05
3.70124e-05
3.75284e-05
3.7908e-05
3.81765e-05
3.83617e-05
3.84931e-05
3.85998e-05
3.87093e-05
3.88456e-05
3.90291e-05
3.92761e-05
3.95978e-05
4.00011e-05
4.04885e-05
4.10583e-05
4.17055e-05
4.24221e-05
4.31979e-05
4.4021e-05
4.48785e-05
4.57575e-05
4.66451e-05
4.75292e-05
4.83986e-05
4.92433e-05
5.00545e-05
5.08242e-05
5.15455e-05
5.22117e-05
5.28155e-05
5.33517e-05
5.38154e-05
5.42022e-05
5.45073e-05
5.47226e-05
5.48404e-05
5.48545e-05
5.47567e-05
5.45369e-05
5.40926e-05
5.36998e-05
5.31609e-05
5.23136e-05
5.13202e-05
5.01366e-05
4.87774e-05
4.72029e-05
4.54066e-05
4.341e-05
4.12172e-05
3.88611e-05
3.63851e-05
3.38604e-05
3.1371e-05
2.9012e-05
2.6871e-05
2.49969e-05
2.33654e-05
2.18553e-05
2.02509e-05
1.82691e-05
1.55806e-05
1.18115e-05
6.71003e-06
1.6218e-06
1.21874e-08
1.83926e-08
2.40192e-06
9.70823e-06
1.72304e-05
2.31086e-05
2.75833e-05
3.10766e-05
3.38954e-05
3.62327e-05
3.82023e-05
3.98681e-05
4.12655e-05
4.24154e-05
4.3333e-05
4.40335e-05
4.45355e-05
4.48622e-05
4.50423e-05
4.51089e-05
4.50984e-05
4.50481e-05
4.49942e-05
4.49695e-05
4.50017e-05
4.51118e-05
4.53135e-05
4.56135e-05
4.6012e-05
4.6504e-05
4.708e-05
4.77274e-05
4.84319e-05
4.91778e-05
4.99496e-05
5.07322e-05
5.15114e-05
5.22746e-05
5.30104e-05
5.37091e-05
5.43623e-05
5.4963e-05
5.55052e-05
5.59841e-05
5.63953e-05
5.67356e-05
5.70027e-05
5.71957e-05
5.73171e-05
5.73592e-05
5.73179e-05
5.71927e-05
5.698e-05
5.66741e-05
5.62421e-05
5.56518e-05
5.51851e-05
5.44779e-05
5.35785e-05
5.24407e-05
5.1212e-05
4.97819e-05
4.81048e-05
4.62187e-05
4.41043e-05
4.17679e-05
3.92356e-05
3.65706e-05
3.38445e-05
3.11635e-05
2.86527e-05
2.64272e-05
2.45448e-05
2.29493e-05
2.14299e-05
1.96236e-05
1.70528e-05
1.31751e-05
7.62579e-06
1.88649e-06
1.44002e-08
2.26888e-08
2.91127e-06
1.14925e-05
2.01862e-05
2.69629e-05
3.21207e-05
3.61358e-05
3.93557e-05
4.20019e-05
4.42072e-05
4.60481e-05
4.75669e-05
4.87882e-05
4.97287e-05
5.04042e-05
5.08345e-05
5.10457e-05
5.10715e-05
5.09529e-05
5.07367e-05
5.04725e-05
5.02087e-05
4.99889e-05
4.98482e-05
4.98116e-05
4.98929e-05
5.00958e-05
5.04155e-05
5.08407e-05
5.13556e-05
5.1942e-05
5.25803e-05
5.32508e-05
5.39348e-05
5.46149e-05
5.52755e-05
5.59033e-05
5.64867e-05
5.70162e-05
5.74844e-05
5.78859e-05
5.82173e-05
5.84765e-05
5.86623e-05
5.87745e-05
5.88128e-05
5.87764e-05
5.86632e-05
5.84842e-05
5.82471e-05
5.79507e-05
5.75941e-05
5.71751e-05
5.66897e-05
5.61482e-05
5.54964e-05
5.48413e-05
5.42424e-05
5.3394e-05
5.24931e-05
5.13266e-05
4.98899e-05
4.82193e-05
4.63408e-05
4.41683e-05
4.17386e-05
3.90936e-05
3.62617e-05
3.33402e-05
3.04646e-05
2.77917e-05
2.5463e-05
2.35339e-05
2.18858e-05
2.01641e-05
1.77849e-05
1.40163e-05
8.30266e-06
2.11241e-06
1.64485e-08
2.71797e-08
3.41869e-06
1.32059e-05
2.29838e-05
3.06025e-05
3.64011e-05
4.09036e-05
4.44933e-05
4.74169e-05
4.98249e-05
5.18045e-05
5.34045e-05
5.4652e-05
5.55647e-05
5.61594e-05
5.64579e-05
5.64912e-05
5.63015e-05
5.59421e-05
5.54749e-05
5.49652e-05
5.44759e-05
5.40613e-05
5.3762e-05
5.3603e-05
5.35938e-05
5.3731e-05
5.4001e-05
5.43838e-05
5.48556e-05
5.53914e-05
5.5966e-05
5.65556e-05
5.71387e-05
5.76959e-05
5.8211e-05
5.86702e-05
5.9063e-05
5.93811e-05
5.96193e-05
5.97756e-05
5.98522e-05
5.98505e-05
5.97752e-05
5.96316e-05
5.9426e-05
5.91656e-05
5.88607e-05
5.85151e-05
5.81375e-05
5.77336e-05
5.73032e-05
5.68454e-05
5.63561e-05
5.58275e-05
5.52395e-05
5.45827e-05
5.37742e-05
5.29806e-05
5.2259e-05
5.1311e-05
5.05163e-05
4.92997e-05
4.78413e-05
4.59362e-05
4.37861e-05
4.13553e-05
3.85966e-05
3.56001e-05
3.24863e-05
2.94154e-05
2.65765e-05
2.41312e-05
2.2106e-05
2.02613e-05
1.80089e-05
1.44585e-05
8.79538e-06
2.31036e-06
1.83986e-08
3.18075e-08
3.91686e-06
1.48422e-05
2.56212e-05
3.40359e-05
4.04401e-05
4.54007e-05
4.93322e-05
5.25046e-05
5.50835e-05
5.71661e-05
5.88063e-05
6.00337e-05
6.08673e-05
6.13259e-05
6.14358e-05
6.12363e-05
6.07831e-05
6.01464e-05
5.94073e-05
5.86495e-05
5.79498e-05
5.73701e-05
5.69516e-05
5.67136e-05
5.6656e-05
5.67636e-05
5.70113e-05
5.73688e-05
5.78038e-05
5.82843e-05
5.87806e-05
5.92655e-05
5.97155e-05
6.01109e-05
6.04359e-05
6.06786e-05
6.08306e-05
6.08873e-05
6.08455e-05
6.07092e-05
6.04935e-05
6.0197e-05
5.98392e-05
5.94243e-05
5.89661e-05
5.84792e-05
5.79599e-05
5.74263e-05
5.68876e-05
5.63578e-05
5.58368e-05
5.53277e-05
5.48336e-05
5.43545e-05
5.3888e-05
5.34281e-05
5.29586e-05
5.24059e-05
5.1671e-05
5.07773e-05
4.99606e-05
4.89592e-05
4.81618e-05
4.68925e-05
4.5218e-05
4.31857e-05
4.06684e-05
3.77931e-05
3.46391e-05
3.13327e-05
2.80646e-05
2.50576e-05
2.24767e-05
2.02662e-05
1.79633e-05
1.4623e-05
9.15192e-06
2.49137e-06
2.03346e-08
3.65176e-08
4.4005e-06
1.63888e-05
2.81e-05
3.72678e-05
4.42464e-05
4.96385e-05
5.38867e-05
5.72808e-05
6.00003e-05
6.21508e-05
6.3791e-05
6.49531e-05
6.56585e-05
6.59301e-05
6.58025e-05
6.53282e-05
6.45811e-05
6.36532e-05
6.26473e-05
6.16649e-05
6.07934e-05
6.00964e-05
5.96088e-05
5.9338e-05
5.92694e-05
5.93731e-05
5.96113e-05
5.99432e-05
6.03286e-05
6.07304e-05
6.11153e-05
6.14547e-05
6.17253e-05
6.19089e-05
6.19925e-05
6.19679e-05
6.18327e-05
6.15916e-05
6.12338e-05
6.07703e-05
6.02724e-05
5.97475e-05
5.91188e-05
5.84479e-05
5.77513e-05
5.7045e-05
5.63693e-05
5.57054e-05
5.50476e-05
5.44337e-05
5.38528e-05
5.33012e-05
5.27841e-05
5.23007e-05
5.18513e-05
5.14321e-05
5.10361e-05
5.06537e-05
5.02737e-05
4.98811e-05
4.92596e-05
4.83482e-05
4.75266e-05
4.64966e-05
4.57396e-05
4.44104e-05
4.22419e-05
3.96856e-05
3.67178e-05
3.34002e-05
2.98896e-05
2.64176e-05
2.32355e-05
2.0472e-05
1.7888e-05
1.46379e-05
9.41686e-06
2.66833e-06
2.2368e-08
4.12591e-08
4.86517e-06
1.78389e-05
3.04199e-05
4.03009e-05
4.78248e-05
5.36239e-05
5.8165e-05
6.17553e-05
6.45863e-05
6.6771e-05
6.83728e-05
6.94272e-05
6.99599e-05
7.00016e-05
6.95992e-05
6.8824e-05
6.77726e-05
6.65618e-05
6.53161e-05
6.41515e-05
6.31596e-05
6.23983e-05
6.18892e-05
6.16225e-05
6.15657e-05
6.16736e-05
6.1896e-05
6.21831e-05
6.2489e-05
6.27734e-05
6.30018e-05
6.31466e-05
6.31869e-05
6.31087e-05
6.29062e-05
6.25739e-05
6.21151e-05
6.16113e-05
6.09986e-05
6.01511e-05
5.93901e-05
5.85892e-05
5.7736e-05
5.6908e-05
5.61189e-05
5.53612e-05
5.46543e-05
5.40206e-05
5.3309e-05
5.26688e-05
5.20851e-05
5.1514e-05
5.09673e-05
5.0442e-05
4.9948e-05
4.94909e-05
4.90736e-05
4.86938e-05
4.83476e-05
4.80274e-05
4.77094e-05
4.73736e-05
4.67662e-05
4.59085e-05
4.50108e-05
4.42373e-05
4.30805e-05
4.10359e-05
3.8482e-05
3.53952e-05
3.18818e-05
2.81437e-05
2.44549e-05
2.10725e-05
1.80034e-05
1.46449e-05
9.6396e-06
2.85763e-06
2.46644e-08
4.59858e-08
5.30749e-06
1.91889e-05
3.25808e-05
4.31371e-05
5.11786e-05
5.73613e-05
6.21727e-05
6.59349e-05
6.88497e-05
7.10369e-05
7.25647e-05
7.34735e-05
7.37962e-05
7.3575e-05
7.28745e-05
7.1789e-05
7.04418e-05
6.89752e-05
6.75323e-05
6.62375e-05
6.5179e-05
6.44012e-05
6.39064e-05
6.36643e-05
6.36242e-05
6.37261e-05
6.39095e-05
6.41183e-05
6.43036e-05
6.44243e-05
6.44476e-05
6.43493e-05
6.4115e-05
6.37317e-05
6.32272e-05
6.25844e-05
6.17478e-05
6.10286e-05
6.01707e-05
5.90091e-05
5.80681e-05
5.71965e-05
5.63227e-05
5.55122e-05
5.47807e-05
5.40808e-05
5.34432e-05
5.3017e-05
5.24668e-05
5.18689e-05
5.13697e-05
5.08289e-05
5.02643e-05
4.96635e-05
4.90499e-05
4.84391e-05
4.78508e-05
4.72949e-05
4.6777e-05
4.63398e-05
4.59793e-05
4.56663e-05
4.53645e-05
4.49873e-05
4.42198e-05
4.35663e-05
4.26484e-05
4.16619e-05
3.97264e-05
3.70883e-05
3.38164e-05
3.00611e-05
2.60643e-05
2.21349e-05
1.84743e-05
1.47932e-05
9.88304e-06
3.07673e-06
2.7465e-08
5.06559e-08
5.72503e-06
2.04369e-05
3.45835e-05
4.57783e-05
5.43105e-05
6.08543e-05
6.59141e-05
6.9825e-05
7.27976e-05
7.49582e-05
7.63805e-05
7.71119e-05
7.71957e-05
7.66902e-05
7.56823e-05
7.42935e-05
7.26751e-05
7.09927e-05
6.94031e-05
6.80312e-05
6.69535e-05
6.61946e-05
6.5734e-05
6.55199e-05
6.54843e-05
6.55553e-05
6.56651e-05
6.57545e-05
6.57743e-05
6.5686e-05
6.54612e-05
6.50785e-05
6.45651e-05
6.3773e-05
6.28927e-05
6.21599e-05
6.1032e-05
5.99249e-05
5.89056e-05
5.78148e-05
5.68661e-05
5.60491e-05
5.53235e-05
5.47144e-05
5.42172e-05
5.37661e-05
5.34211e-05
5.32295e-05
5.28318e-05
5.24625e-05
5.20917e-05
5.16493e-05
5.11503e-05
5.0574e-05
4.98942e-05
4.91051e-05
4.82195e-05
4.72863e-05
4.63828e-05
4.55531e-05
4.48737e-05
4.43395e-05
4.38871e-05
4.3608e-05
4.33999e-05
4.27799e-05
4.20933e-05
4.11446e-05
4.02302e-05
3.8296e-05
3.54676e-05
3.1948e-05
2.78965e-05
2.36027e-05
1.9377e-05
1.52173e-05
1.02214e-05
3.34976e-06
3.11503e-08
5.52333e-08
6.11609e-06
2.15823e-05
3.64294e-05
4.82267e-05
5.72235e-05
6.41063e-05
6.93935e-05
7.3431e-05
7.64374e-05
7.85454e-05
7.98355e-05
8.03646e-05
8.01902e-05
7.93911e-05
7.80804e-05
7.64089e-05
7.45552e-05
7.27043e-05
7.10192e-05
6.96171e-05
6.85562e-05
6.78366e-05
6.74138e-05
6.72157e-05
6.716e-05
6.7166e-05
6.71624e-05
6.70899e-05
6.69032e-05
6.657e-05
6.60807e-05
6.52531e-05
6.42751e-05
6.35186e-05
6.23641e-05
6.11943e-05
5.99925e-05
5.88254e-05
5.7793e-05
5.68456e-05
5.6089e-05
5.55244e-05
5.5112e-05
5.48458e-05
5.46774e-05
5.46015e-05
5.45851e-05
5.45468e-05
5.44474e-05
5.43399e-05
5.41678e-05
5.39053e-05
5.354e-05
5.30529e-05
5.24294e-05
5.16579e-05
5.073e-05
4.96429e-05
4.8396e-05
4.69975e-05
4.55075e-05
4.41535e-05
4.31871e-05
4.25299e-05
4.20252e-05
4.178e-05
4.11982e-05
4.05116e-05
3.96174e-05
3.86724e-05
3.66424e-05
3.35754e-05
2.97376e-05
2.53251e-05
2.0682e-05
1.60037e-05
1.0724e-05
3.70307e-06
3.62797e-08
5.96857e-08
6.47958e-06
2.26257e-05
3.81208e-05
5.04853e-05
5.99208e-05
6.71209e-05
7.26151e-05
7.67586e-05
7.97772e-05
8.18105e-05
8.29475e-05
8.32571e-05
8.28151e-05
8.17243e-05
8.01269e-05
7.82036e-05
7.61575e-05
7.41863e-05
7.2452e-05
7.10566e-05
7.00344e-05
6.93596e-05
6.89643e-05
6.87592e-05
6.86511e-05
6.85544e-05
6.83976e-05
6.81249e-05
6.7697e-05
6.70356e-05
6.59899e-05
6.50918e-05
6.40853e-05
6.27967e-05
6.1496e-05
6.01864e-05
5.89857e-05
5.79146e-05
5.70618e-05
5.64147e-05
5.60083e-05
5.58247e-05
5.5795e-05
5.5959e-05
5.61185e-05
5.62834e-05
5.65708e-05
5.67312e-05
5.68485e-05
5.68874e-05
5.68182e-05
5.66333e-05
5.63174e-05
5.58608e-05
5.52562e-05
5.44975e-05
5.35799e-05
5.24984e-05
5.12422e-05
4.98211e-05
4.8246e-05
4.64956e-05
4.45436e-05
4.2593e-05
4.1364e-05
4.06131e-05
4.01799e-05
3.95731e-05
3.88951e-05
3.80579e-05
3.70217e-05
3.47286e-05
3.13625e-05
2.70965e-05
2.22642e-05
1.71496e-05
1.14572e-05
4.16395e-06
4.36493e-08
6.39823e-08
6.81489e-06
2.35686e-05
3.96605e-05
5.25574e-05
6.2406e-05
6.99023e-05
7.55842e-05
7.98147e-05
8.28267e-05
8.47674e-05
8.57361e-05
8.58171e-05
8.51074e-05
8.3737e-05
8.18785e-05
7.97409e-05
7.75469e-05
7.55004e-05
7.37544e-05
7.23901e-05
7.14152e-05
7.07781e-05
7.03902e-05
7.01483e-05
6.99526e-05
6.97169e-05
6.93745e-05
6.88783e-05
6.80209e-05
6.68626e-05
6.59707e-05
6.47511e-05
6.34218e-05
6.19415e-05
6.05655e-05
5.92896e-05
5.82351e-05
5.74273e-05
5.69126e-05
5.66718e-05
5.66837e-05
5.69827e-05
5.73629e-05
5.76633e-05
5.81578e-05
5.86454e-05
5.90499e-05
5.93669e-05
5.959e-05
5.96887e-05
5.96454e-05
5.94422e-05
5.90826e-05
5.85685e-05
5.78976e-05
5.70716e-05
5.60944e-05
5.49759e-05
5.37181e-05
5.23257e-05
5.07993e-05
4.9122e-05
4.72495e-05
4.51911e-05
4.28167e-05
4.05255e-05
3.93269e-05
3.86579e-05
3.79556e-05
3.73249e-05
3.64402e-05
3.5248e-05
3.25594e-05
2.86971e-05
2.39347e-05
1.85614e-05
1.24638e-05
4.75276e-06
5.43691e-08
6.80963e-08
7.12178e-06
2.44131e-05
4.10525e-05
5.44465e-05
6.46832e-05
7.24552e-05
7.83065e-05
8.2607e-05
8.55967e-05
8.74315e-05
8.82232e-05
8.8074e-05
8.7105e-05
8.54753e-05
8.33876e-05
8.10759e-05
7.87767e-05
7.66931e-05
7.49626e-05
7.36419e-05
7.27113e-05
7.20954e-05
7.16884e-05
7.13776e-05
7.10608e-05
7.06548e-05
7.00944e-05
6.90888e-05
6.7889e-05
6.69514e-05
6.56138e-05
6.41306e-05
6.25847e-05
6.10865e-05
5.97645e-05
5.8681e-05
5.79193e-05
5.74956e-05
5.74077e-05
5.76045e-05
5.81978e-05
5.87672e-05
5.9224e-05
5.9991e-05
6.07118e-05
6.13381e-05
6.18655e-05
6.22793e-05
6.25599e-05
6.2692e-05
6.2669e-05
6.24922e-05
6.21601e-05
6.16656e-05
6.0997e-05
6.01501e-05
5.91088e-05
5.78813e-05
5.64619e-05
5.4854e-05
5.30987e-05
5.12513e-05
4.94434e-05
4.76049e-05
4.54433e-05
4.2991e-05
4.01428e-05
3.80862e-05
3.7118e-05
3.62885e-05
3.57619e-05
3.46789e-05
3.31521e-05
2.99335e-05
2.54855e-05
2.00817e-05
1.3724e-05
5.46019e-06
6.96961e-08
7.20067e-08
7.40019e-06
2.51608e-05
4.23039e-05
5.6156e-05
6.67566e-05
7.47849e-05
8.07886e-05
8.51443e-05
8.80993e-05
8.98197e-05
9.04317e-05
9.00579e-05
8.88454e-05
8.69829e-05
8.47013e-05
8.22551e-05
7.98888e-05
7.77977e-05
7.60994e-05
7.4824e-05
7.39261e-05
7.33091e-05
7.28541e-05
7.24433e-05
7.19761e-05
7.13696e-05
7.02962e-05
6.90269e-05
6.80316e-05
6.66498e-05
6.50328e-05
6.33857e-05
6.17871e-05
6.03743e-05
5.92485e-05
5.84822e-05
5.81126e-05
5.8122e-05
5.85344e-05
5.93301e-05
6.00641e-05
6.07416e-05
6.16985e-05
6.26884e-05
6.35498e-05
6.43132e-05
6.49549e-05
6.54565e-05
6.58011e-05
6.59774e-05
6.59788e-05
6.58026e-05
6.54566e-05
6.49533e-05
6.43093e-05
6.35141e-05
6.25531e-05
6.13652e-05
5.99346e-05
5.82457e-05
5.63362e-05
5.41797e-05
5.18161e-05
4.94912e-05
4.74359e-05
4.53551e-05
4.26978e-05
3.96636e-05
3.68251e-05
3.55115e-05
3.45153e-05
3.40503e-05
3.26019e-05
3.06744e-05
2.67273e-05
2.15288e-05
1.51115e-05
6.25782e-06
9.07506e-08
7.56964e-08
7.65031e-06
2.58135e-05
4.3422e-05
5.76889e-05
6.86308e-05
7.6897e-05
8.3038e-05
8.74364e-05
9.0348e-05
9.19501e-05
9.23855e-05
9.17988e-05
9.03642e-05
8.82992e-05
8.58599e-05
8.33163e-05
8.09142e-05
7.88364e-05
7.71775e-05
7.59411e-05
7.50582e-05
7.44151e-05
7.38835e-05
7.33449e-05
7.27052e-05
7.16512e-05
7.02572e-05
6.92305e-05
6.78341e-05
6.6123e-05
6.43636e-05
6.2657e-05
6.1132e-05
5.9918e-05
5.91029e-05
5.87308e-05
5.87918e-05
5.9349e-05
6.03222e-05
6.12515e-05
6.2109e-05
6.32189e-05
6.44884e-05
6.56083e-05
6.66243e-05
6.75223e-05
6.82779e-05
6.88726e-05
6.92917e-05
6.95251e-05
6.95664e-05
6.94128e-05
6.90641e-05
6.85214e-05
6.77891e-05
6.68898e-05
6.58566e-05
6.47182e-05
6.34267e-05
6.18913e-05
6.00071e-05
5.78306e-05
5.53408e-05
5.25102e-05
4.96822e-05
4.70826e-05
4.47619e-05
4.21328e-05
3.88043e-05
3.55248e-05
3.39771e-05
3.27009e-05
3.19816e-05
3.04619e-05
2.75039e-05
2.2727e-05
1.64293e-05
7.06334e-06
1.17837e-07
7.91519e-08
7.87279e-06
2.63756e-05
4.44045e-05
5.90518e-05
7.03117e-05
7.87981e-05
8.50627e-05
8.94941e-05
9.2357e-05
9.38417e-05
9.41087e-05
9.33259e-05
9.16946e-05
8.94593e-05
8.68972e-05
8.42885e-05
8.18751e-05
7.9823e-05
7.82028e-05
7.69934e-05
7.61051e-05
7.54105e-05
7.47749e-05
7.40805e-05
7.31368e-05
7.16376e-05
7.05032e-05
6.91676e-05
6.73938e-05
6.55335e-05
6.37044e-05
6.2046e-05
6.07007e-05
5.97813e-05
5.93459e-05
5.93926e-05
5.9999e-05
6.11077e-05
6.22814e-05
6.3298e-05
6.45451e-05
6.59965e-05
6.74321e-05
6.8709e-05
6.98777e-05
7.09082e-05
7.17777e-05
7.24679e-05
7.29643e-05
7.32561e-05
7.3336e-05
7.32e-05
7.28479e-05
7.22833e-05
7.15138e-05
7.05495e-05
6.93991e-05
6.80785e-05
6.66495e-05
6.51755e-05
6.35259e-05
6.15358e-05
5.91515e-05
5.62646e-05
5.31106e-05
4.99762e-05
4.68061e-05
4.39737e-05
4.11689e-05
3.75408e-05
3.39154e-05
3.22196e-05
3.0796e-05
2.98503e-05
2.77885e-05
2.35239e-05
1.75085e-05
7.76833e-06
1.50156e-07
8.23615e-08
8.06825e-06
2.68503e-05
4.52535e-05
6.02498e-05
7.18048e-05
8.0495e-05
8.68715e-05
9.13288e-05
9.41414e-05
9.55135e-05
9.56247e-05
9.46667e-05
9.28667e-05
9.04933e-05
8.78406e-05
8.51938e-05
8.27863e-05
8.07653e-05
7.91776e-05
7.79797e-05
7.7065e-05
7.62966e-05
7.55351e-05
7.46547e-05
7.31938e-05
7.19023e-05
7.06045e-05
6.88389e-05
6.68983e-05
6.49472e-05
6.31352e-05
6.162e-05
6.05392e-05
5.99771e-05
5.99459e-05
6.04816e-05
6.16756e-05
6.30478e-05
6.42705e-05
6.56588e-05
6.72175e-05
6.88968e-05
7.04904e-05
7.19292e-05
7.32441e-05
7.44029e-05
7.53838e-05
7.61688e-05
7.67427e-05
7.70939e-05
7.72138e-05
7.70971e-05
7.67424e-05
7.61527e-05
7.53359e-05
7.43042e-05
7.3074e-05
7.1664e-05
7.00906e-05
6.83698e-05
6.66179e-05
6.48045e-05
6.26986e-05
6.00154e-05
5.68292e-05
5.36051e-05
5.00841e-05
4.63775e-05
4.28935e-05
3.98751e-05
3.57692e-05
3.19725e-05
2.99513e-05
2.92122e-05
2.71815e-05
2.38603e-05
1.82049e-05
8.30201e-06
1.86623e-07
8.53156e-08
8.23736e-06
2.72406e-05
4.59728e-05
6.12877e-05
7.31162e-05
8.19952e-05
8.84738e-05
9.29526e-05
9.57165e-05
9.69847e-05
9.69564e-05
9.58466e-05
9.39067e-05
9.14263e-05
8.87116e-05
8.60481e-05
8.36576e-05
8.16675e-05
8.01022e-05
7.88989e-05
7.7938e-05
7.70776e-05
7.61829e-05
7.48703e-05
7.33055e-05
7.21115e-05
7.04439e-05
6.84533e-05
6.63967e-05
6.44258e-05
6.27109e-05
6.14142e-05
6.06541e-05
6.0479e-05
6.08654e-05
6.202e-05
6.35204e-05
6.49464e-05
6.64884e-05
6.82088e-05
7.00106e-05
7.18388e-05
7.36024e-05
7.51975e-05
7.66491e-05
7.79288e-05
7.90159e-05
7.98927e-05
8.05443e-05
8.09584e-05
8.11251e-05
8.10375e-05
8.06916e-05
8.0088e-05
7.9232e-05
7.81355e-05
7.68162e-05
7.52974e-05
7.36051e-05
7.17629e-05
6.97844e-05
6.77408e-05
6.57416e-05
6.34618e-05
6.04742e-05
5.69555e-05
5.36587e-05
4.98273e-05
4.54941e-05
4.15715e-05
3.80997e-05
3.34845e-05
2.97899e-05
2.75974e-05
2.66437e-05
2.39164e-05
1.85424e-05
8.66454e-06
2.25039e-07
8.80066e-08
8.38083e-06
2.75495e-05
4.65662e-05
6.21703e-05
7.42517e-05
8.33062e-05
8.98793e-05
9.43778e-05
9.70977e-05
9.82738e-05
9.8125e-05
9.68885e-05
9.48377e-05
9.2279e-05
8.95267e-05
8.68626e-05
8.4495e-05
8.25316e-05
8.09768e-05
7.97516e-05
7.8726e-05
7.775e-05
7.6664e-05
7.49394e-05
7.36139e-05
7.22004e-05
7.01818e-05
6.8053e-05
6.59387e-05
6.40139e-05
6.24614e-05
6.14341e-05
6.10183e-05
6.12179e-05
6.21804e-05
6.37243e-05
6.53543e-05
6.69683e-05
6.88242e-05
7.08086e-05
7.28369e-05
7.47956e-05
7.66815e-05
7.84336e-05
8.0011e-05
8.14005e-05
8.25847e-05
8.3548e-05
8.42765e-05
8.47581e-05
8.49823e-05
8.494e-05
8.46242e-05
8.40307e-05
8.31603e-05
8.202e-05
8.06252e-05
7.89998e-05
7.71758e-05
7.51894e-05
7.30738e-05
7.08503e-05
6.85458e-05
6.63402e-05
6.38029e-05
6.04542e-05
5.67657e-05
5.32249e-05
4.89957e-05
4.41478e-05
3.98158e-05
3.57649e-05
3.07461e-05
2.73548e-05
2.5895e-05
2.33929e-05
1.85988e-05
8.95894e-06
2.66108e-07
9.04292e-08
8.49945e-06
2.77803e-05
4.70378e-05
6.29028e-05
7.52178e-05
8.44358e-05
9.1098e-05
9.56169e-05
9.83003e-05
9.93988e-05
9.91504e-05
9.7813e-05
9.5679e-05
9.30681e-05
9.02983e-05
8.76452e-05
8.53024e-05
8.33591e-05
8.18024e-05
8.05408e-05
7.94394e-05
7.83563e-05
7.68961e-05
7.52206e-05
7.39637e-05
7.20537e-05
6.99008e-05
6.76802e-05
6.55609e-05
6.37375e-05
6.2396e-05
6.167e-05
6.16095e-05
6.22125e-05
6.36784e-05
6.54633e-05
6.71767e-05
6.90813e-05
7.11943e-05
7.33914e-05
7.55879e-05
7.77121e-05
7.96858e-05
8.15404e-05
8.32409e-05
8.47275e-05
8.5996e-05
8.70367e-05
8.78385e-05
8.83909e-05
8.86835e-05
8.87056e-05
8.84467e-05
8.78971e-05
8.70502e-05
8.59051e-05
8.44699e-05
8.27641e-05
8.082e-05
7.8681e-05
7.63964e-05
7.40112e-05
7.15537e-05
6.90383e-05
6.66386e-05
6.3698e-05
5.99108e-05
5.6251e-05
5.23238e-05
4.75687e-05
4.22396e-05
3.75213e-05
3.2682e-05
2.76436e-05
2.43351e-05
2.29153e-05
1.86162e-05
9.36151e-06
3.14379e-07
9.25799e-08
8.59408e-06
2.79363e-05
4.73922e-05
6.34902e-05
7.60208e-05
8.53922e-05
9.214e-05
9.66824e-05
9.93391e-05
0.000100376
0.00010005
9.86378e-05
9.64469e-05
9.38067e-05
9.10359e-05
8.84016e-05
8.60828e-05
8.41519e-05
8.25815e-05
8.12701e-05
8.00759e-05
7.88429e-05
7.7015e-05
7.5524e-05
7.40479e-05
7.19074e-05
6.96368e-05
6.73656e-05
6.52858e-05
6.36047e-05
6.25008e-05
6.20782e-05
6.23466e-05
6.34566e-05
6.52292e-05
6.71394e-05
6.90317e-05
7.11986e-05
7.35213e-05
7.58906e-05
7.82267e-05
8.04684e-05
8.25691e-05
8.44642e-05
8.62418e-05
8.78185e-05
8.91556e-05
9.02605e-05
9.11279e-05
9.17508e-05
9.21201e-05
9.22248e-05
9.2051e-05
9.15832e-05
9.08063e-05
8.97084e-05
8.8286e-05
8.6548e-05
8.45203e-05
8.22466e-05
7.97855e-05
7.72014e-05
7.45511e-05
7.18677e-05
6.91915e-05
6.6585e-05
6.31864e-05
5.90629e-05
5.53093e-05
5.09122e-05
4.54363e-05
3.96732e-05
3.46665e-05
2.90168e-05
2.45471e-05
2.24555e-05
1.86951e-05
9.9249e-06
3.74283e-07
9.44574e-08
8.66564e-06
2.80211e-05
4.76337e-05
6.39381e-05
7.66672e-05
8.61837e-05
9.30155e-05
9.75866e-05
0.000100228
0.000101222
0.000100841
9.93783e-05
9.71547e-05
9.45052e-05
9.17465e-05
8.9136e-05
8.68385e-05
8.4912e-05
8.33175e-05
8.1947e-05
8.066e-05
7.91953e-05
7.72917e-05
7.59758e-05
7.40266e-05
7.17721e-05
6.94158e-05
6.71293e-05
6.51236e-05
6.36113e-05
6.27571e-05
6.26371e-05
6.32376e-05
6.47681e-05
6.67481e-05
6.87508e-05
7.08736e-05
7.32506e-05
7.57421e-05
7.82479e-05
8.06943e-05
8.3027e-05
8.52087e-05
8.71772e-05
8.89389e-05
9.05874e-05
9.19769e-05
9.31291e-05
9.40499e-05
9.47378e-05
9.51875e-05
9.53888e-05
9.5326e-05
9.4978e-05
9.43205e-05
9.3329e-05
9.19846e-05
9.02807e-05
8.82295e-05
8.58671e-05
8.32539e-05
8.04682e-05
7.75918e-05
7.46892e-05
7.17848e-05
6.89784e-05
6.59918e-05
6.19813e-05
5.79629e-05
5.38844e-05
4.88901e-05
4.24078e-05
3.6563e-05
3.08797e-05
2.50023e-05
2.12138e-05
1.86282e-05
1.04215e-05
4.43043e-07
9.60616e-08
8.71509e-06
2.80381e-05
4.7767e-05
6.42519e-05
7.7164e-05
8.68185e-05
9.37347e-05
9.83414e-05
0.000100981
0.00010195
0.000101537
0.000100048
9.78135e-05
9.51721e-05
9.24358e-05
8.98519e-05
8.75724e-05
8.56434e-05
8.40174e-05
8.25831e-05
8.11998e-05
7.94453e-05
7.76134e-05
7.61996e-05
7.40306e-05
7.16701e-05
6.92564e-05
6.6983e-05
6.50746e-05
6.37431e-05
6.3133e-05
6.32848e-05
6.42388e-05
6.6058e-05
6.81947e-05
7.03001e-05
7.26373e-05
7.51802e-05
7.78027e-05
8.04111e-05
8.29362e-05
8.53274e-05
8.75485e-05
8.95739e-05
9.13325e-05
9.29538e-05
9.43866e-05
9.55671e-05
9.65245e-05
9.7267e-05
9.7795e-05
9.81012e-05
9.81698e-05
9.79756e-05
9.74852e-05
9.66607e-05
9.54658e-05
9.38736e-05
9.18761e-05
8.94936e-05
8.67793e-05
8.38179e-05
8.07133e-05
7.75664e-05
7.44448e-05
7.13499e-05
6.84744e-05
6.49057e-05
6.04577e-05
5.64832e-05
5.19205e-05
4.57915e-05
3.86177e-05
3.25955e-05
2.63317e-05
2.08598e-05
1.84779e-05
1.08084e-05
5.16188e-07
9.73953e-08
8.74346e-06
2.79912e-05
4.77971e-05
6.44376e-05
7.75178e-05
8.73049e-05
9.43073e-05
9.8958e-05
0.00010161
0.000102574
0.00010215
0.000100657
9.84323e-05
9.58138e-05
9.31082e-05
9.05528e-05
8.82881e-05
8.63508e-05
8.46877e-05
8.31854e-05
8.1699e-05
7.97201e-05
7.80741e-05
7.63658e-05
7.4064e-05
7.16186e-05
6.91711e-05
6.69308e-05
6.51312e-05
6.3978e-05
6.3594e-05
6.39912e-05
6.52682e-05
6.72827e-05
6.95311e-05
7.1765e-05
7.42712e-05
7.69405e-05
7.96585e-05
8.23366e-05
8.49091e-05
8.73286e-05
8.95624e-05
9.15914e-05
9.33523e-05
9.4891e-05
9.6332e-05
9.75189e-05
9.8493e-05
9.92748e-05
9.98731e-05
0.000100286
0.0001005
0.000100486
0.000100205
9.96052e-05
9.86311e-05
9.72327e-05
9.53768e-05
9.30596e-05
9.03172e-05
8.72302e-05
8.39158e-05
8.05079e-05
7.7124e-05
7.38298e-05
7.06267e-05
6.73733e-05
6.30166e-05
5.87359e-05
5.46772e-05
4.90169e-05
4.14683e-05
3.43276e-05
2.77851e-05
2.14805e-05
1.82639e-05
1.12683e-05
5.92538e-07
9.84626e-08
8.75181e-06
2.78842e-05
4.77289e-05
6.45008e-05
7.77355e-05
8.76509e-05
9.47429e-05
9.94474e-05
0.000102127
0.000103104
0.000102692
0.000101216
9.90188e-05
9.64362e-05
9.37683e-05
9.12427e-05
8.89905e-05
8.70414e-05
8.53394e-05
8.37695e-05
8.21792e-05
8.00232e-05
7.84934e-05
7.65243e-05
7.41394e-05
7.1631e-05
6.91676e-05
6.69716e-05
6.52813e-05
6.42937e-05
6.41114e-05
6.47276e-05
6.62534e-05
6.84048e-05
7.07388e-05
7.31068e-05
7.57354e-05
7.8494e-05
8.12737e-05
8.39896e-05
8.65784e-05
8.89949e-05
9.12086e-05
9.32019e-05
9.49493e-05
9.64051e-05
9.77775e-05
9.8952e-05
9.99209e-05
0.000100723
0.000101378
0.000101893
0.000102257
0.000102444
0.000102406
0.000102081
0.000101394
0.000100271
9.86476e-05
9.64908e-05
9.38102e-05
9.06705e-05
8.71915e-05
8.35312e-05
7.98505e-05
7.62649e-05
7.27942e-05
6.95421e-05
6.56288e-05
6.08424e-05
5.69778e-05
5.1891e-05
4.46478e-05
3.63137e-05
2.93883e-05
2.20737e-05
1.75021e-05
1.17662e-05
6.62979e-07
9.92687e-08
8.74123e-06
2.77211e-05
4.75672e-05
6.4447e-05
7.78232e-05
8.7864e-05
9.50504e-05
9.98198e-05
0.000102543
0.000103553
0.000103172
0.000101733
9.95801e-05
9.70452e-05
9.44215e-05
9.19282e-05
8.96895e-05
8.77318e-05
8.60023e-05
8.43689e-05
8.25466e-05
8.04329e-05
7.89032e-05
7.67206e-05
7.42703e-05
7.17168e-05
6.92493e-05
6.71008e-05
6.5511e-05
6.46677e-05
6.46559e-05
6.54537e-05
6.71507e-05
6.93978e-05
7.18087e-05
7.42873e-05
7.69987e-05
7.98121e-05
8.26219e-05
8.53452e-05
8.79213e-05
9.03065e-05
9.24724e-05
9.44035e-05
9.60965e-05
9.74826e-05
9.87229e-05
9.98593e-05
0.000100799
0.0001016
0.000102295
0.000102901
0.000103415
0.000103812
0.000104042
0.000104032
0.00010369
0.000102915
0.000101614
9.9715e-05
9.7195e-05
9.40919e-05
9.05154e-05
8.66379e-05
8.26628e-05
7.87725e-05
7.5072e-05