/*--------------------------------*- C++ -*----------------------------------*\
  =========                 |
  \\      /  F ield         | OpenFOAM: The Open Source CFD Toolbox
   \\    /   O peration     | Website:  https://openfoam.org
    \\  /    A nd           | Version:  13
     \\/     M anipulation  |
\*---------------------------------------------------------------------------*/
FoamFile
{
    format      ascii;
    class       volScalarField;
    location    "2.6";
    object      p;
}
// * * * * * * * * * * * * * * * * * * * * * * * * * * * * * * * * * * * * * //

dimensions      [0 2 -2 0 0 0 0];

internalField   nonuniform List<scalar> 
6400
(
-4.753e-09
6.88317e-06
1.9023e-06
-1.88215e-05
-5.61504e-05
-0.000107801
-0.000170346
-0.000240738
-0.000316828
-0.000397554
-0.000482678
-0.000572715
-0.000668541
-0.000771335
-0.00088239
-0.00100303
-0.0011348
-0.00127922
-0.00143757
-0.00161086
-0.00180018
-0.00200644
-0.0022307
-0.00247493
-0.00274233
-0.00303391
-0.00334849
-0.00368353
-0.00403192
-0.00438063
-0.00472182
-0.00505244
-0.00536688
-0.00565961
-0.00592585
-0.00616059
-0.00635855
-0.0065139
-0.00662018
-0.0066706
-0.00665825
-0.00657622
-0.00641809
-0.00617861
-0.0058541
-0.00544292
-0.0049446
-0.00435511
-0.00366956
-0.00289932
-0.00205684
-0.0011473
-0.000185062
0.000814657
0.00183132
0.00284206
0.00382062
0.00473893
0.00556597
0.00627075
0.00682691
0.00721448
0.00742251
0.00745052
0.00730979
0.00702093
0.00662328
0.00615868
0.0056722
0.00520689
0.00479196
0.00445097
0.00420072
0.00402937
0.00392291
0.0038683
0.00385004
0.00385413
0.00387027
0.00388758
-5.97029e-06
6.75539e-07
-5.34502e-06
-2.68556e-05
-6.41197e-05
-0.0001148
-0.000175517
-0.000243399
-0.000316648
-0.00039444
-0.000476636
-0.000563538
-0.000656006
-0.000755066
-0.000862104
-0.000978461
-0.00110541
-0.00124444
-0.00139676
-0.00156298
-0.00174409
-0.0019414
-0.00215557
-0.00238746
-0.00263851
-0.00291135
-0.00320784
-0.00352813
-0.00386998
-0.00422636
-0.00458435
-0.00493306
-0.00526662
-0.0055796
-0.00586681
-0.00612261
-0.00634103
-0.00651593
-0.00664077
-0.00670889
-0.0067137
-0.006649
-0.006509
-0.00628854
-0.00598376
-0.00559231
-0.00511247
-0.00454255
-0.00388656
-0.00315145
-0.00233902
-0.0014605
-0.000528865
0.000440044
0.001427
0.00240968
0.00336224
0.00425641
0.00506417
0.005759
0.00631499
0.00671188
0.00693861
0.00699445
0.00688934
0.00664498
0.0062947
0.00587703
0.00543736
0.00501452
0.00464106
0.0043418
0.00412131
0.00397802
0.00389954
0.00387064
0.00386929
0.00387951
0.00389512
0.00391208
-4.53115e-06
1.35125e-06
-6.71051e-06
-3.06395e-05
-6.94772e-05
-0.000119842
-0.000178392
-0.000242817
-0.000311863
-0.000385142
-0.000462397
-0.000544032
-0.00063078
-0.000723432
-0.000822913
-0.000930487
-0.00104761
-0.0011757
-0.00131638
-0.00147142
-0.00164208
-0.00183007
-0.00203792
-0.00226816
-0.00252322
-0.00280479
-0.00311345
-0.00344768
-0.00380371
-0.00417569
-0.00455486
-0.00493106
-0.00529523
-0.00563917
-0.005956
-0.00623958
-0.00648369
-0.00668208
-0.00682846
-0.00691661
-0.00694039
-0.00689423
-0.00677312
-0.00657248
-0.00628882
-0.00592018
-0.00546606
-0.00492635
-0.00429835
-0.00359177
-0.0028119
-0.0019673
-0.00106951
-0.000133175
0.000823764
0.00178035
0.00271261
0.00359362
0.00439594
0.00509396
0.00566328
0.00608345
0.00634268
0.00643975
0.00638285
0.00619195
0.00589751
0.00553709
0.00514957
0.0047758
0.00444505
0.00417848
0.0039939
0.00388466
0.00383392
0.00382608
0.00384253
0.00386629
0.00389142
0.0039146
9.12396e-06
1.26665e-05
1.51577e-06
-2.5771e-05
-6.70775e-05
-0.000117688
-0.000174122
-0.000234691
-0.000298756
-0.000366072
-0.000436973
-0.000511816
-0.000591207
-0.000675931
-0.000766979
-0.000865668
-0.000973662
-0.00109283
-0.00122536
-0.0013739
-0.00154119
-0.00173051
-0.00194607
-0.0021915
-0.0024693
-0.00277988
-0.00312245
-0.00349391
-0.00388832
-0.00429751
-0.00471225
-0.0051232
-0.00552072
-0.00589603
-0.00624166
-0.00655073
-0.00681713
-0.00703498
-0.00719829
-0.00730142
-0.00733893
-0.00730569
-0.00719735
-0.00701016
-0.00674128
-0.00638903
-0.00595296
-0.00543211
-0.00482797
-0.00414505
-0.00338893
-0.00256773
-0.00169185
-0.00077449
0.000167935
0.00111557
0.00204567
0.0029326
0.00374954
0.00447015
0.00507055
0.00552946
0.00583321
0.00597816
0.00597119
0.00582912
0.00558006
0.00526013
0.00490905
0.00456525
0.00426017
0.00401638
0.00384755
0.00375317
0.00372318
0.00373587
0.00377026
0.00381142
0.00385024
0.00388007
3.88585e-05
3.77615e-05
2.22667e-05
-9.17123e-06
-5.30833e-05
-0.000103925
-0.000158502
-0.000215615
-0.000275013
-0.000336877
-0.000401658
-0.000469906
-0.000542388
-0.000620141
-0.000704547
-0.000797467
-0.00090131
-0.00101901
-0.00115396
-0.00131036
-0.00149257
-0.00170467
-0.00195068
-0.00223263
-0.00255219
-0.00290933
-0.0033006
-0.00371998
-0.00415963
-0.00461009
-0.00506115
-0.00550331
-0.00592775
-0.00632692
-0.00669363
-0.00702094
-0.00730304
-0.00753414
-0.0077087
-0.00782175
-0.00786858
-0.00784445
-0.00774593
-0.00756986
-0.00731369
-0.00697579
-0.00655596
-0.00605383
-0.00547065
-0.00480931
-0.00407452
-0.00327372
-0.00241621
-0.00151345
-0.000580273
0.000364639
0.00130029
0.00220268
0.00304597
0.00380325
0.00445011
0.00496465
0.00533003
0.00553718
0.00559126
0.00550766
0.00531055
0.00503295
0.00471488
0.0043954
0.00410769
0.00387596
0.00371457
0.00362578
0.00360079
0.00362202
0.00366817
0.00372217
0.00377165
0.00380573
8.77129e-05
8.00827e-05
5.80315e-05
2.0715e-05
-2.61472e-05
-7.73155e-05
-0.000130312
-0.000184479
-0.000239991
-0.000297366
-0.000357296
-0.00042065
-0.000488589
-0.000562704
-0.000645156
-0.000738834
-0.000847463
-0.000975539
-0.00112797
-0.00130977
-0.00152619
-0.00178012
-0.00207426
-0.00241053
-0.0027877
-0.00320209
-0.00364672
-0.00411332
-0.0045938
-0.00507968
-0.00556137
-0.00602959
-0.00647598
-0.00689344
-0.00727537
-0.00761569
-0.00790883
-0.00814908
-0.00833158
-0.00845214
-0.00850645
-0.00849019
-0.00840139
-0.00823734
-0.0079959
-0.00767569
-0.00727628
-0.00679741
-0.00623934
-0.00560386
-0.00489481
-0.00411869
-0.00328346
-0.00239889
-0.00147923
-0.000540245
0.000399794
0.00131822
0.00219079
0.00299141
0.00369479
0.0042775
0.00472042
0.00501134
0.00514778
0.00514188
0.00501663
0.00480076
0.00453099
0.00424673
0.0039825
0.00376472
0.00360952
0.00352148
0.00349441
0.00351394
0.00356085
0.00361652
0.00366836
0.0037023
0.000157635
0.000142095
0.00011061
6.59393e-05
1.53535e-05
-3.64329e-05
-8.82546e-05
-0.00014021
-0.000192982
-0.000247503
-0.000304882
-0.000366505
-0.000434219
-0.000510536
-0.000598786
-0.000703268
-0.000829376
-0.000982702
-0.00116915
-0.00139353
-0.00165969
-0.00197118
-0.00232827
-0.00272877
-0.00316715
-0.00363718
-0.00413159
-0.00464185
-0.00515952
-0.00567628
-0.00618349
-0.00667285
-0.00713669
-0.00756831
-0.00796177
-0.00831176
-0.00861291
-0.00885959
-0.00904763
-0.00917353
-0.00923371
-0.00922697
-0.00915031
-0.00900119
-0.00877801
-0.00847959
-0.00810402
-0.00765104
-0.00712194
-0.00651901
-0.0058455
-0.00510508
-0.00430368
-0.00345025
-0.00255467
-0.00162836
-0.0006888
0.000241721
0.00114032
0.00198479
0.00274975
0.0034101
0.00394496
0.00433914
0.00458443
0.00468452
0.00465675
0.0045279
0.00433004
0.0041004
0.00387409
0.00367938
0.0035348
0.00344758
0.00341473
0.00342586
0.00346388
0.00351186
0.00355625
0.00358408
0.000249565
0.000224671
0.000181075
0.000127366
7.23813e-05
1.93786e-05
-3.2001e-05
-8.28983e-05
-0.000134696
-0.000188913
-0.000247286
-0.000311979
-0.000385847
-0.000472658
-0.00057715
-0.000705057
-0.000862829
-0.001057
-0.00129231
-0.00157386
-0.00190437
-0.00228399
-0.00270833
-0.00317202
-0.00366901
-0.00419173
-0.00473203
-0.00528156
-0.00583211
-0.00637557
-0.00690414
-0.00741049
-0.00788778
-0.00832989
-0.00873142
-0.0090874
-0.00939253
-0.00964257
-0.0098348
-0.00996632
-0.0100352
-0.0100401
-0.00997659
-0.00984298
-0.00963789
-0.00936071
-0.00901044
-0.00858725
-0.00809252
-0.00752834
-0.0068971
-0.00620048
-0.00544211
-0.00462827
-0.00376679
-0.00286942
-0.0019515
-0.00102648
-0.000111196
0.00077397
0.00159851
0.00234022
0.00297777
0.00349078
0.00386639
0.00410051
0.00420095
0.00418767
0.00408867
0.00393722
0.0037676
0.00360945
0.00348395
0.00340153
0.00336248
0.00336117
0.00338384
0.00341719
0.00344567
0.00346314
0.000363697
0.00032668
0.000269167
0.000204224
0.000143927
8.89321e-05
3.69009e-05
-1.46409e-05
-6.79889e-05
-0.00012547
-0.000189686
-0.000263841
-0.000352056
-0.000459489
-0.000592086
-0.000756709
-0.000960566
-0.00120917
-0.00150713
-0.00185767
-0.00225932
-0.0027079
-0.00319827
-0.00372327
-0.00427525
-0.00484597
-0.0054272
-0.00601097
-0.00658951
-0.00715527
-0.00770118
-0.00822064
-0.00870757
-0.00915647
-0.00956231
-0.00992043
-0.0102273
-0.0104812
-0.0106795
-0.0108188
-0.0108966
-0.01091
-0.0108576
-0.0107384
-0.0105514
-0.0102962
-0.00997297
-0.00958185
-0.00912339
-0.00859857
-0.00800879
-0.00735674
-0.00664603
-0.00588121
-0.00506838
-0.00421595
-0.00333184
-0.0024234
-0.00150753
-0.000607227
0.000262097
0.00108155
0.00182009
0.00245759
0.00297742
0.00336679
0.00362305
0.00375537
0.00378426
0.00373714
0.00364544
0.00353979
0.00344425
0.00337325
0.00333214
0.00331628
0.0033196
0.00333229
0.00334079
0.00334572
0.000495431
0.000446136
0.000371339
0.00029347
0.000226831
0.000168938
0.000114741
6.02436e-05
2.02438e-06
-6.32795e-05
-0.000139362
-0.000230667
-0.000342691
-0.00048169
-0.000654597
-0.000868847
-0.0011311
-0.00144611
-0.00181599
-0.00223935
-0.00271265
-0.00322972
-0.00378319
-0.00436472
-0.00496615
-0.0055792
-0.00619597
-0.00680884
-0.00741056
-0.00799421
-0.00855337
-0.00908217
-0.00957528
-0.0100279
-0.0104359
-0.0107956
-0.0111044
-0.0113596
-0.0115583
-0.0116989
-0.0117798
-0.0117993
-0.0117565
-0.0116509
-0.0114819
-0.0112493
-0.0109534
-0.0105944
-0.0101731
-0.00969004
-0.00914642
-0.00854398
-0.00788506
-0.00717259
-0.00641035
-0.00560299
-0.0047564
-0.00388127
-0.00298833
-0.00208827
-0.00119098
-0.000321812
0.00050006
0.00125583
0.00191877
0.00247227
0.00290307
0.003207
0.00339257
0.00347823
0.0034887
0.00345354
0.00340045
0.00334821
0.00330713
0.00327958
0.00326345
0.00325241
0.00324107
0.00323327
0.000639975
0.000577234
0.000482747
0.000390356
0.000316363
0.000254175
0.000195767
0.000135375
6.82201e-05
-1.03079e-05
-0.000105172
-0.000222163
-0.000367865
-0.00054934
-0.00077401
-0.00104895
-0.00137956
-0.00176781
-0.00221217
-0.00270925
-0.00325258
-0.00383397
-0.00444511
-0.00507731
-0.00572233
-0.00637206
-0.00701889
-0.00765563
-0.0082755
-0.00887219
-0.00943999
-0.00997373
-0.0104688
-0.0109212
-0.0113274
-0.0116845
-0.0119904
-0.0122427
-0.0124395
-0.0125797
-0.0126623
-0.0126863
-0.0126514
-0.0125573
-0.0124039
-0.0121914
-0.0119201
-0.0115907
-0.0112037
-0.0107601
-0.0102608
-0.00970687
-0.00909999
-0.00844191
-0.00773475
-0.006981
-0.0061842
-0.00535009
-0.00448498
-0.00359672
-0.00269903
-0.00180359
-0.000920915
-7.55782e-05
0.00071319
0.00142209
0.00203025
0.00252136
0.00288805
0.00313478
0.0032755
0.00333322
0.00333731
0.00331302
0.00327689
0.00323941
0.0032043
0.00317029
0.00314097
0.00312162
0.000790681
0.000713059
0.000596932
0.000488562
0.000405902
0.000337629
0.000272481
0.000202711
0.000121979
2.42764e-05
-9.67238e-05
-0.000247981
-0.000436728
-0.000670553
-0.000956571
-0.00130043
-0.00170483
-0.00216858
-0.00268766
-0.00325561
-0.00386414
-0.00450425
-0.00516705
-0.00584383
-0.00652637
-0.00720683
-0.00787794
-0.00853291
-0.0091655
-0.00977006
-0.0103416
-0.0108756
-0.0113684
-0.0118165
-0.0122171
-0.0125681
-0.0128677
-0.0131145
-0.0133071
-0.0134449
-0.0135272
-0.0135537
-0.0135243
-0.0134392
-0.0132988
-0.0131032
-0.0128534
-0.0125499
-0.0121936
-0.0117855
-0.0113263
-0.0108171
-0.0102589
-0.00965265
-0.00899947
-0.00830056
-0.00755762
-0.00677305
-0.00594975
-0.00509191
-0.00420637
-0.00330122
-0.0023892
-0.00148293
-0.000598172
0.000240227
0.00101024
0.00168695
0.0022477
0.00267891
0.00297856
0.00315746
0.00323943
0.00325532
0.0032305
0.00318505
0.00313211
0.00307698
0.00303208
0.00300318
0.000938874
0.000845994
0.000705989
0.000580285
0.000487441
0.000410958
0.000336161
0.000253157
0.000153918
3.09504e-05
-0.000123477
-0.000316867
-0.000556846
-0.000851009
-0.00120502
-0.00162227
-0.00210229
-0.00264086
-0.00323125
-0.00386508
-0.00453299
-0.00522553
-0.00593357
-0.00664847
-0.00736213
-0.00806704
-0.00875629
-0.00942359
-0.0100633
-0.0106705
-0.011241
-0.011771
-0.0122575
-0.0126977
-0.0130897
-0.0134319
-0.0137231
-0.0139623
-0.0141488
-0.0142823
-0.0143625
-0.0143896
-0.0143637
-0.0142853
-0.0141551
-0.0139736
-0.0137418
-0.0134607
-0.013131
-0.0127539
-0.0123303
-0.011861
-0.0113467
-0.010788
-0.0101853
-0.00953888
-0.00884893
-0.00811586
-0.00734026
-0.00652343
-0.0056678
-0.00477695
-0.00385703
-0.00291678
-0.0019708
-0.00103464
-0.00013213
0.000709697
0.00145986
0.00208699
0.00256889
0.00289882
0.00308748
0.00316236
0.00315941
0.00311003
0.00304017
0.00296588
0.00290746
0.00286975
0.00107476
0.000964985
0.000800795
0.000656797
0.000552132
0.000465087
0.000377522
0.00027731
0.000154643
3.34935e-07
-0.000193961
-0.000435862
-0.000733759
-0.00109358
-0.00151922
-0.00201105
-0.00256518
-0.0031748
-0.00383128
-0.00452491
-0.00524568
-0.00598389
-0.00673037
-0.00747659
-0.00821472
-0.00893759
-0.00963878
-0.0103126
-0.0109541
-0.0115593
-0.0121245
-0.0126467
-0.0131237
-0.0135534
-0.0139346
-0.0142662
-0.0145474
-0.0147777
-0.0149569
-0.0150848
-0.0151618
-0.015188
-0.015164
-0.0150904
-0.0149682
-0.0147981
-0.0145812
-0.0143186
-0.0140115
-0.0136609
-0.0132679
-0.0128332
-0.0123576
-0.0118412
-0.0112842
-0.010686
-0.0100462
-0.00936352
-0.00863701
-0.00786559
-0.00704871
-0.00618669
-0.0052812
-0.00433589
-0.00335816
-0.00235979
-0.00136003
-0.000385537
0.000530555
0.00134787
0.0020241
0.00252986
0.002857
0.00301925
0.00305436
0.00300966
0.00292527
0.00283284
0.00276056
0.00271325
0.0011877
0.00106093
0.000872194
0.000709111
0.000590946
0.000490899
0.000387447
0.000266132
0.000115127
-7.56534e-05
-0.000314413
-0.000610429
-0.00097037
-0.00139853
-0.00189641
-0.00246069
-0.00308491
-0.00376021
-0.00447645
-0.00522305
-0.00598964
-0.0067664
-0.00754426
-0.00831489
-0.00907081
-0.0098053
-0.0105125
-0.0111876
-0.0118263
-0.0124253
-0.0129817
-0.0134934
-0.0139586
-0.0143762
-0.0147453
-0.0150653
-0.0153358
-0.0155567
-0.015728
-0.01585
-0.0159229
-0.0159474
-0.0159242
-0.0158539
-0.0157377
-0.0155766
-0.0153718
-0.0151245
-0.014836
-0.0145075
-0.0141401
-0.0137348
-0.0132921
-0.0128124
-0.0122954
-0.0117404
-0.0111462
-0.0105109
-0.00983229
-0.00910765
-0.00833419
-0.00750944
-0.00663183
-0.00570122
-0.00471958
-0.00369278
-0.00263363
-0.00156404
-0.000516338
0.000467143
0.00133339
0.00203037
0.00252358
0.00280602
0.00290549
0.0028791
0.00278588
0.00267502
0.00258524
0.00252697
0.00126705
0.00112399
0.000911177
0.00072858
0.000595319
0.000479924
0.000357675
0.000211562
2.80186e-05
-0.000202481
-0.000490026
-0.000843249
-0.00126687
-0.00176363
-0.00233118
-0.00296373
-0.0036525
-0.00438696
-0.0051559
-0.00594818
-0.00675325
-0.00756132
-0.00836348
-0.00915174
-0.00991905
-0.0106593
-0.0113674
-0.0120392
-0.0126713
-0.013261
-0.0138063
-0.0143056
-0.0147579
-0.0151626
-0.0155191
-0.0158273
-0.0160871
-0.0162987
-0.0164622
-0.0165781
-0.0166469
-0.0166693
-0.016646
-0.016578
-0.0164664
-0.0163124
-0.0161171
-0.0158821
-0.0156087
-0.0152982
-0.0149519
-0.0145708
-0.0141556
-0.0137067
-0.0132239
-0.0127062
-0.0121524
-0.01156
-0.0109261
-0.010247
-0.00951839
-0.00873579
-0.00789491
-0.00699246
-0.00602661
-0.00499828
-0.0039137
-0.0027878
-0.00164746
-0.000533257
0.000500488
0.00138747
0.00206666
0.00250089
0.00269706
0.00271116
0.00261938
0.00249008
0.00237643
0.00230647
0.0013038
0.00114538
0.000909653
0.000707519
0.000557789
0.000424999
0.000281368
0.000107029
-0.00011133
-0.00038425
-0.000723161
-0.00113429
-0.00162148
-0.002184
-0.00281696
-0.00351214
-0.00425884
-0.00504523
-0.00585938
-0.00668985
-0.00752601
-0.00835823
-0.00917787
-0.00997741
-0.0107503
-0.0114913
-0.0121959
-0.0128609
-0.0134835
-0.0140618
-0.0145946
-0.0150807
-0.0155198
-0.0159116
-0.0162558
-0.0165527
-0.0168024
-0.0170052
-0.0171614
-0.0172716
-0.0173364
-0.0173566
-0.0173329
-0.0172664
-0.0171582
-0.0170096
-0.016822
-0.0165967
-0.0163353
-0.0160392
-0.0157098
-0.0153482
-0.0149554
-0.0145318
-0.0140773
-0.0135912
-0.013072
-0.0125173
-0.0119238
-0.0112872
-0.0106024
-0.00986343
-0.00906421
-0.0081988
-0.00726245
-0.00625216
-0.00516864
-0.00402015
-0.00282583
-0.00162006
-0.000454163
0.000603201
0.00147088
0.00208227
0.00241101
0.00249507
0.00241911
0.00227374
0.00213064
0.00204873
0.00129001
0.00111772
0.000860908
0.000639655
0.00047244
0.000320639
0.000153175
-5.11371e-05
-0.000305543
-0.000623409
-0.00101368
-0.0014818
-0.00202973
-0.0026537
-0.00334645
-0.0040976
-0.00489492
-0.00572566
-0.00657741
-0.0074386
-0.00829867
-0.00914823
-0.00997906
-0.0107842
-0.0115578
-0.0122953
-0.0129931
-0.0136487
-0.01426
-0.0148259
-0.0153455
-0.0158185
-0.0162447
-0.0166241
-0.0169569
-0.0172434
-0.0174839
-0.0176787
-0.0178285
-0.0179337
-0.0179949
-0.018013
-0.0179887
-0.0179232
-0.0178176
-0.0176732
-0.0174914
-0.0172737
-0.0170217
-0.0167368
-0.0164206
-0.0160745
-0.0156994
-0.015296
-0.0148645
-0.0144043
-0.0139141
-0.0133916
-0.0128335
-0.0122354
-0.0115915
-0.0108954
-0.0101397
-0.00931635
-0.00841831
-0.0074398
-0.00637705
-0.00523206
-0.00401682
-0.00275714
-0.00149786
-0.000304339
0.000737384
0.00153702
0.00202775
0.00221341
0.00217746
0.00202271
0.0018466
0.00175293
0.0012196
0.00103543
0.000759963
0.000520464
0.000335282
0.000163199
-2.98685e-05
-0.000264621
-0.000556541
-0.000919028
-0.00135916
-0.00188192
-0.00248611
-0.00316597
-0.00391191
-0.00471174
-0.00555207
-0.0064195
-0.00730138
-0.00818611
-0.00906332
-0.00992398
-0.0107604
-0.0115663
-0.0123366
-0.0130675
-0.0137561
-0.0144006
-0.0149997
-0.0155528
-0.0160595
-0.0165199
-0.016934
-0.0173022
-0.0176247
-0.017902
-0.0181345
-0.0183225
-0.0184667
-0.0185676
-0.0186258
-0.0186421
-0.0186173
-0.0185525
-0.0184488
-0.0183076
-0.0181303
-0.0179183
-0.0176734
-0.0173971
-0.0170911
-0.0167567
-0.0163953
-0.0160077
-0.0155943
-0.0151549
-0.0146883
-0.0141927
-0.0136648
-0.0131003
-0.0124936
-0.0118379
-0.0111249
-0.0103458
-0.00949129
-0.00855325
-0.00752522
-0.00640358
-0.00519351
-0.00391268
-0.00259636
-0.00130418
-0.000119443
0.000857426
0.00152984
0.00185328
0.00188316
0.00173015
0.00152559
0.00141902
0.00108871
0.000895113
0.000603862
0.000347396
0.000144175
-4.9094e-05
-0.000267956
-0.000533487
-0.000863333
-0.00126837
-0.00175586
-0.00232891
-0.00298409
-0.00371344
-0.00450541
-0.00534638
-0.0062221
-0.00711878
-0.00802364
-0.0089252
-0.00981342
-0.0106797
-0.011517
-0.0123198
-0.0130837
-0.0138056
-0.0144836
-0.0151162
-0.015703
-0.0162436
-0.0167381
-0.0171868
-0.01759
-0.0179483
-0.0182619
-0.0185313
-0.0187571
-0.0189395
-0.0190791
-0.0191765
-0.0192323
-0.0192471
-0.0192219
-0.0191576
-0.0190554
-0.0189166
-0.0187426
-0.0185349
-0.0182952
-0.0180253
-0.0177268
-0.0174012
-0.0170501
-0.0166744
-0.0162749
-0.0158515
-0.0154037
-0.0149298
-0.014427
-0.0138914
-0.0133175
-0.0126985
-0.0120262
-0.0112908
-0.0104822
-0.00958975
-0.00860508
-0.00752108
-0.00633612
-0.00506053
-0.00371984
-0.0023642
-0.00107389
5.60639e-05
0.00091115
0.00139873
0.0015206
0.00138811
0.00117035
0.00104598
0.000895697
0.000695609
0.000391723
0.000120042
-0.000100856
-0.000315567
-0.000559791
-0.000856256
-0.001222
-0.00166682
-0.00219811
-0.00281637
-0.00351645
-0.00428842
-0.00511907
-0.0059937
-0.00689746
-0.00781632
-0.00873756
-0.00964991
-0.0105437
-0.011411
-0.0122454
-0.013042
-0.0137973
-0.0145089
-0.0151754
-0.0157962
-0.0163709
-0.0168997
-0.0173831
-0.0178214
-0.0182152
-0.0185649
-0.018871
-0.019134
-0.0193543
-0.0195322
-0.0196683
-0.019763
-0.019817
-0.0198308
-0.0198053
-0.0197414
-0.0196403
-0.0195032
-0.0193316
-0.019127
-0.0188911
-0.0186256
-0.0183324
-0.0180131
-0.0176693
-0.0173023
-0.016913
-0.0165018
-0.0160684
-0.0156117
-0.0151293
-0.0146177
-0.0140721
-0.0134858
-0.0128507
-0.0121572
-0.0113942
-0.01055
-0.00961358
-0.00857627
-0.00743112
-0.00618069
-0.00484215
-0.00345467
-0.00209491
-0.000846707
0.000171231
0.000834249
0.00108118
0.000992412
0.000777731
0.000629355
0.000641499
0.000437752
0.000124701
-0.000160129
-0.000397947
-0.000633431
-0.000902461
-0.00122885
-0.00162754
-0.00210887
-0.00267913
-0.00333704
-0.00407561
-0.00488318
-0.00574528
-0.00664637
-0.00757126
-0.00850583
-0.0094375
-0.0103553
-0.0112502
-0.0121147
-0.0129432
-0.0137315
-0.0144768
-0.0151774
-0.0158324
-0.0164415
-0.0170049
-0.0175231
-0.0179966
-0.0184259
-0.0188116
-0.0191542
-0.0194543
-0.0197122
-0.0199282
-0.0201028
-0.0202363
-0.0203291
-0.0203818
-0.020395
-0.0203693
-0.0203058
-0.0202055
-0.0200697
-0.0198997
-0.0196971
-0.0194637
-0.0192012
-0.0189115
-0.0185964
-0.0182576
-0.0178965
-0.0175144
-0.017112
-0.0166893
-0.0162457
-0.0157794
-0.0152875
-0.0147656
-0.0142078
-0.0136062
-0.0129515
-0.0122323
-0.0114364
-0.010551
-0.0095654
-0.00847012
-0.00726034
-0.00594476
-0.00455155
-0.00315414
-0.00182527
-0.000672536
0.000160162
0.000554352
0.000535484
0.000338438
0.000161569
0.000329499
0.000124274
-0.00019428
-0.00048991
-0.000743467
-0.000998603
-0.00129162
-0.00164527
-0.00207367
-0.00258771
-0.00319183
-0.00388344
-0.00465392
-0.00549021
-0.00637683
-0.00729769
-0.00823738
-0.00918186
-0.0101188
-0.0110376
-0.0119298
-0.0127886
-0.013609
-0.0143876
-0.0151222
-0.0158115
-0.0164553
-0.0170536
-0.0176067
-0.0181154
-0.0185803
-0.019002
-0.0193812
-0.0197182
-0.0200135
-0.0202675
-0.0204805
-0.0206527
-0.0207844
-0.0208761
-0.020928
-0.0209409
-0.0209154
-0.0208522
-0.0207525
-0.0206175
-0.0204485
-0.0202472
-0.0200152
-0.0197544
-0.0194667
-0.019154
-0.0188182
-0.0184609
-0.0180835
-0.017687
-0.017272
-0.0168381
-0.0163842
-0.0159079
-0.0154056
-0.014872
-0.0142999
-0.0136803
-0.0130023
-0.0122532
-0.0114194
-0.0104879
-0.00944824
-0.00829122
-0.00701676
-0.00563961
-0.00422139
-0.00285088
-0.00159856
-0.000617481
-6.77387e-05
1.2583e-05
-0.000153997
-0.000366497
-3.55228e-05
-0.000240161
-0.000560617
-0.000864539
-0.00113234
-0.00140584
-0.00172091
-0.00209876
-0.00255356
-0.00309579
-0.00372854
-0.0044479
-0.00524388
-0.00610233
-0.00700703
-0.00794156
-0.00889043
-0.00983976
-0.0107775
-0.0116937
-0.0125803
-0.0134312
-0.0142422
-0.0150102
-0.0157338
-0.0164122
-0.0170454
-0.0176337
-0.0181778
-0.0186783
-0.019136
-0.0195515
-0.0199253
-0.020258
-0.0205498
-0.0208011
-0.021012
-0.0211827
-0.0213135
-0.0214046
-0.0214564
-0.0214693
-0.021444
-0.0213812
-0.021282
-0.0211475
-0.020979
-0.0207783
-0.0205469
-0.0202867
-0.0199998
-0.0196882
-0.0193537
-0.0189982
-0.0186235
-0.0182307
-0.0178206
-0.0173936
-0.0169489
-0.0164848
-0.0159984
-0.015485
-0.0149384
-0.0143501
-0.0137097
-0.0130048
-0.0122214
-0.0113449
-0.0103632
-0.00926563
-0.00804547
-0.00670808
-0.00528307
-0.00389821
-0.00258883
-0.00149209
-0.000790664
-0.00058678
-0.000709538
-0.000965248
-0.000447604
-0.000649406
-0.000968499
-0.00127825
-0.00155851
-0.00184856
-0.00218288
-0.00258196
-0.00305969
-0.00362551
-0.00428159
-0.00502286
-0.00583827
-0.00671281
-0.00762978
-0.00857255
-0.00952571
-0.0104756
-0.0114106
-0.0123213
-0.0132001
-0.0140417
-0.0148422
-0.0155995
-0.0163123
-0.0169803
-0.0176037
-0.0181831
-0.0187193
-0.0192128
-0.0196646
-0.0200752
-0.020445
-0.0207745
-0.021064
-0.0213135
-0.0215233
-0.0216934
-0.0218239
-0.021915
-0.021967
-0.0219803
-0.0219554
-0.021893
-0.0217942
-0.0216599
-0.0214916
-0.0212908
-0.0210593
-0.0207989
-0.0205118
-0.0202
-0.0198655
-0.0195105
-0.0191367
-0.0187456
-0.0183385
-0.017916
-0.0174778
-0.0170229
-0.016549
-0.0160523
-0.0155274
-0.0149666
-0.0143601
-0.0136961
-0.0129606
-0.0121384
-0.0112153
-0.0101798
-0.00902118
-0.00773726
-0.00633861
-0.00494446
-0.00361841
-0.00244309
-0.0016113
-0.00127843
-0.00134362
-0.00164333
-0.000899523
-0.00109632
-0.00141119
-0.00172415
-0.00201465
-0.00231892
-0.00266992
-0.00308734
-0.00358418
-0.0041691
-0.00484339
-0.00560108
-0.00643031
-0.00731546
-0.00823954
-0.00918586
-0.0101392
-0.0110862
-0.0120156
-0.0129185
-0.013788
-0.0146193
-0.0154092
-0.0161557
-0.0168582
-0.0175165
-0.0181311
-0.0187027
-0.0192321
-0.0197199
-0.020167
-0.0205738
-0.0209407
-0.0212681
-0.0215561
-0.0218048
-0.0220143
-0.0221844
-0.0223152
-0.0224069
-0.0224595
-0.0224734
-0.0224491
-0.0223872
-0.0222886
-0.0221544
-0.0219859
-0.0217847
-0.0215525
-0.0212913
-0.0210031
-0.0206902
-0.0203547
-0.0199988
-0.0196245
-0.0192337
-0.0188278
-0.0184078
-0.0179739
-0.0175257
-0.0170616
-0.0165784
-0.0160717
-0.0155346
-0.0149584
-0.0143316
-0.0136409
-0.0128709
-0.0120058
-0.0110333
-0.00994063
-0.00872002
-0.00737809
-0.00597496
-0.00465727
-0.00344403
-0.00251276
-0.00206196
-0.00206349
-0.00239786
-0.00138322
-0.00157305
-0.00188083
-0.00219439
-0.00249285
-0.00280918
-0.00317451
-0.00360712
-0.0041193
-0.00471895
-0.00540665
-0.00617572
-0.00701371
-0.00790465
-0.00883138
-0.00977731
-0.0107274
-0.0116686
-0.0125903
-0.013484
-0.0143432
-0.0151638
-0.0159429
-0.0166791
-0.0173719
-0.0180214
-0.0186282
-0.0191931
-0.0197167
-0.0202
-0.0206434
-0.0210474
-0.0214125
-0.0217387
-0.0220261
-0.0222747
-0.0224845
-0.0226552
-0.0227869
-0.0228795
-0.0229332
-0.022948
-0.0229244
-0.022863
-0.0227647
-0.0226304
-0.0224615
-0.0222595
-0.0220261
-0.0217635
-0.0214736
-0.0211588
-0.0208214
-0.0204636
-0.0200879
-0.019696
-0.0192899
-0.0188708
-0.0184395
-0.0179959
-0.017539
-0.0170667
-0.016575
-0.0160583
-0.0155086
-0.0149154
-0.0142659
-0.013545
-0.0127366
-0.0118264
-0.0108024
-0.00965315
-0.00837577
-0.00698605
-0.00568688
-0.00447402
-0.00347661
-0.00292074
-0.0028594
-0.00321751
-0.00189006
-0.00207119
-0.00236934
-0.00268124
-0.00298571
-0.00331207
-0.00368901
-0.00413358
-0.00465747
-0.0052678
-0.00596451
-0.00674042
-0.00758273
-0.00847529
-0.00940093
-0.0103432
-0.0112874
-0.0122208
-0.0131331
-0.0140165
-0.014865
-0.0156748
-0.0164435
-0.0171699
-0.0178538
-0.0184954
-0.0190953
-0.0196544
-0.0201734
-0.020653
-0.0210937
-0.021496
-0.0218599
-0.0221857
-0.0224733
-0.0227225
-0.0229331
-0.023105
-0.023238
-0.0233319
-0.0233868
-0.0234027
-0.02338
-0.0233192
-0.0232211
-0.0230867
-0.0229172
-0.0227142
-0.0224794
-0.0222148
-0.0219227
-0.0216054
-0.0212653
-0.020905
-0.0205268
-0.0201329
-0.0197254
-0.019306
-0.0188757
-0.018435
-0.0179834
-0.0175196
-0.0170403
-0.0165409
-0.0160143
-0.015451
-0.0148391
-0.0141639
-0.0134093
-0.0125594
-0.011603
-0.0105267
-0.0093214
-0.00798371
-0.00668794
-0.00550207
-0.00447591
-0.00383271
-0.00371341
-0.00407996
-0.0024113
-0.00258228
-0.00286907
-0.0031775
-0.00348588
-0.00381994
-0.00420571
-0.00465927
-0.00519153
-0.00580884
-0.00651062
-0.0072894
-0.00813221
-0.00902288
-0.00994434
-0.0108804
-0.0118165
-0.0127405
-0.0136426
-0.0145152
-0.0153528
-0.016152
-0.0169107
-0.017628
-0.0183038
-0.0189384
-0.0195324
-0.0200868
-0.020602
-0.0210789
-0.0215177
-0.0219189
-0.0222824
-0.0226084
-0.0228967
-0.023147
-0.023359
-0.0235324
-0.023667
-0.0237625
-0.0238189
-0.0238362
-0.0238145
-0.0237544
-0.0236566
-0.023522
-0.0233518
-0.0231476
-0.022911
-0.0226443
-0.0223495
-0.0220293
-0.021686
-0.0213224
-0.020941
-0.0205443
-0.0201346
-0.0197137
-0.0192832
-0.018844
-0.0183962
-0.0179387
-0.0174695
-0.0169846
-0.016478
-0.0159412
-0.0153631
-0.0147299
-0.0140256
-0.0132339
-0.0123426
-0.0113375
-0.0102069
-0.00895018
-0.00765387
-0.00650504
-0.00547967
-0.00477208
-0.00460167
-0.00494291
-0.00293843
-0.0030984
-0.00337249
-0.00367557
-0.00398578
-0.00432521
-0.00471734
-0.00517718
-0.00571478
-0.00633578
-0.00703921
-0.00781744
-0.00865752
-0.00954341
-0.0104582
-0.011386
-0.0123127
-0.0132263
-0.0141175
-0.014979
-0.015806
-0.016595
-0.0173444
-0.0180533
-0.0187218
-0.0193503
-0.0199393
-0.0204897
-0.021002
-0.0214769
-0.0219145
-0.0223153
-0.0226791
-0.0230058
-0.0232952
-0.023547
-0.0237607
-0.023936
-0.0240725
-0.0241698
-0.0242279
-0.0242466
-0.0242262
-0.0241669
-0.0240694
-0.0239345
-0.0237636
-0.0235581
-0.0233197
-0.0230505
-0.0227528
-0.0224292
-0.0220824
-0.021715
-0.0213299
-0.0209297
-0.020517
-0.0200939
-0.0196623
-0.0192234
-0.0187778
-0.0183252
-0.0178641
-0.0173913
-0.0169017
-0.0163881
-0.0158403
-0.0152452
-0.0145876
-0.0138512
-0.0130221
-0.0120877
-0.011035
-0.00985974
-0.00858108
-0.00746871
-0.00646592
-0.00571523
-0.00549365
-0.00578218
-0.00346363
-0.00361202
-0.0038721
-0.00416802
-0.00447823
-0.00482098
-0.00521723
-0.0056809
-0.00622115
-0.00684297
-0.0075451
-0.00831989
-0.00915458
-0.0100334
-0.0109397
-0.0118578
-0.0127739
-0.0136765
-0.0145566
-0.0154073
-0.0162239
-0.0170033
-0.0177441
-0.0184455
-0.0191075
-0.0197307
-0.0203155
-0.0208627
-0.0213728
-0.0218462
-0.0222833
-0.0226841
-0.0230486
-0.0233765
-0.0236674
-0.023921
-0.0241367
-0.0243141
-0.0244526
-0.024552
-0.0246119
-0.0246322
-0.024613
-0.0245546
-0.0244574
-0.0243225
-0.0241508
-0.0239439
-0.0237035
-0.0234318
-0.023131
-0.0228039
-0.0224531
-0.0220816
-0.0216924
-0.0212883
-0.020872
-0.020446
-0.0200124
-0.019573
-0.0191286
-0.0186794
-0.0182246
-0.0177617
-0.0172868
-0.0167934
-0.0162724
-0.0157119
-0.0150973
-0.0144125
-0.0136421
-0.0127758
-0.0118004
-0.010705
-0.00947931
-0.00838454
-0.00741334
-0.00664288
-0.00637004
-0.0066034
-0.00397951
-0.00411584
-0.0043608
-0.00464821
-0.00495679
-0.005301
-0.00569936
-0.00616463
-0.00670516
-0.00732538
-0.00802377
-0.00879266
-0.0096198
-0.0104897
-0.011386
-0.0122934
-0.0131984
-0.0140898
-0.0149588
-0.015799
-0.0166058
-0.0173764
-0.0181093
-0.0188039
-0.0194603
-0.0200789
-0.0206602
-0.0212049
-0.0217134
-0.022186
-0.022623
-0.0230243
-0.0233897
-0.023719
-0.0240117
-0.0242673
-0.0244852
-0.0246648
-0.0248056
-0.0249071
-0.0249689
-0.0249909
-0.024973
-0.0249155
-0.0248188
-0.0246837
-0.0245113
-0.0243031
-0.0240607
-0.0237864
-0.0234824
-0.0231516
-0.0227967
-0.0224209
-0.0220272
-0.0216188
-0.0211985
-0.0207691
-0.020333
-0.0198922
-0.0194481
-0.0190012
-0.0185512
-0.0180966
-0.017634
-0.017158
-0.0166607
-0.0161311
-0.0155556
-0.0149183
-0.0142033
-0.0134006
-0.0124969
-0.01148
-0.0103382
-0.00925038
-0.00831402
-0.00754287
-0.00722693
-0.00741211
-0.00447973
-0.00460337
-0.00483254
-0.00511031