/*--------------------------------*- C++ -*----------------------------------*\
  =========                 |
  \\      /  F ield         | OpenFOAM: The Open Source CFD Toolbox
   \\    /   O peration     | Website:  https://openfoam.org
    \\  /    A nd           | Version:  13
     \\/     M anipulation  |
\*---------------------------------------------------------------------------*/
FoamFile
{
    format      ascii;
    class       volVectorField;
    location    "2.6";
    object      U;
}
// * * * * * * * * * * * * * * * * * * * * * * * * * * * * * * * * * * * * * //

dimensions      [0 1 -1 0 0 0 0];

internalField   nonuniform List<vector> 
6400
(
(4.21859e-05 -5.01565e-05 0)
(0.000641735 -0.000186651 0)
(0.00168844 -0.00028054 0)
(0.00286273 -0.000308806 0)
(0.00397385 -0.000285559 0)
(0.00488988 -0.000231575 0)
(0.00557375 -0.000175528 0)
(0.00605565 -0.000136182 0)
(0.00638191 -0.000116159 0)
(0.00659722 -0.000110954 0)
(0.00673875 -0.000116684 0)
(0.00682797 -0.00012949 0)
(0.00687773 -0.00014685 0)
(0.00688913 -0.000167876 0)
(0.00686294 -0.000186183 0)
(0.00678867 -0.000204647 0)
(0.00664897 -0.000220765 0)
(0.00642548 -0.000231508 0)
(0.00608919 -0.000234912 0)
(0.00560833 -0.000231863 0)
(0.00494292 -0.000221942 0)
(0.0040621 -0.000205428 0)
(0.00294005 -0.000189188 0)
(0.0015602 -0.000186791 0)
(-0.000101986 -0.000211369 0)
(-0.00200153 -0.000258607 0)
(-0.00424102 -0.000285065 0)
(-0.00687272 -0.000252266 0)
(-0.00996995 -9.24927e-05 0)
(-0.013549 0.000236608 0)
(-0.0179117 0.000704077 0)
(-0.0228849 0.00119364 0)
(-0.0284097 0.00167013 0)
(-0.0343843 0.00211161 0)
(-0.0406871 0.00249952 0)
(-0.0471823 0.00281513 0)
(-0.0537389 0.00304976 0)
(-0.0602277 0.00320291 0)
(-0.0665353 0.00327865 0)
(-0.0725607 0.00328431 0)
(-0.0782184 0.00322839 0)
(-0.0834324 0.00311788 0)
(-0.0881391 0.00295699 0)
(-0.0922859 0.00274768 0)
(-0.0958176 0.0024899 0)
(-0.0987027 0.00218711 0)
(-0.100912 0.00184935 0)
(-0.102293 0.00151844 0)
(-0.10289 0.00121466 0)
(-0.102886 0.000718262 0)
(-0.101793 0.000297578 0)
(-0.0999612 -0.000206536 0)
(-0.0971268 -0.000702577 0)
(-0.0934097 -0.00121869 0)
(-0.0887311 -0.00172538 0)
(-0.0831499 -0.00221536 0)
(-0.0766848 -0.00267085 0)
(-0.0694059 -0.00308644 0)
(-0.0614345 -0.00348143 0)
(-0.0528203 -0.00381701 0)
(-0.0437194 -0.00405596 0)
(-0.0343042 -0.00416952 0)
(-0.0248055 -0.00414435 0)
(-0.0154556 -0.00396109 0)
(-0.00650232 -0.00360999 0)
(0.00172788 -0.00311594 0)
(0.00892334 -0.00246366 0)
(0.0148475 -0.00166654 0)
(0.0192575 -0.000788031 0)
(0.0220388 0.000108869 0)
(0.0229462 0.00102201 0)
(0.0222814 0.00146895 0)
(0.0201242 0.00180798 0)
(0.0166004 0.00186285 0)
(0.0126122 0.00160164 0)
(0.00864922 0.00114438 0)
(0.00518427 0.00068843 0)
(0.00249084 0.000341264 0)
(0.000728967 8.37374e-05 0)
(-4.20205e-05 -0.000103174 0)
(0.000155534 -0.000623301 0)
(0.00151601 -0.00155787 0)
(0.0034319 -0.002043 0)
(0.00534972 -0.00208491 0)
(0.00698986 -0.00181621 0)
(0.00825414 -0.00141751 0)
(0.00913703 -0.00102298 0)
(0.00967074 -0.00069182 0)
(0.00990958 -0.000439182 0)
(0.00990204 -0.000253182 0)
(0.00969093 -0.000120734 0)
(0.00928347 -1.23698e-05 0)
(0.00869229 8.4915e-05 0)
(0.00790475 0.000184364 0)
(0.00690187 0.000295231 0)
(0.00566407 0.000425125 0)
(0.00414299 0.000587934 0)
(0.00228987 0.000795936 0)
(4.62833e-05 0.00106366 0)
(-0.00265377 0.00140452 0)
(-0.00591823 0.00182591 0)
(-0.00979516 0.00230805 0)
(-0.0143567 0.00283909 0)
(-0.0196648 0.00341582 0)
(-0.0257747 0.00405148 0)
(-0.0327539 0.004785 0)
(-0.0405287 0.00562552 0)
(-0.0490474 0.00654507 0)
(-0.0581422 0.00751682 0)
(-0.0675754 0.0085084 0)
(-0.0770172 0.00938723 0)
(-0.086429 0.0101072 0)
(-0.0956494 0.0106477 0)
(-0.104554 0.0109709 0)
(-0.113032 0.0110809 0)
(-0.120985 0.010983 0)
(-0.128348 0.0106976 0)
(-0.135066 0.0102479 0)
(-0.141099 0.0096562 0)
(-0.146419 0.00894458 0)
(-0.151004 0.00813293 0)
(-0.154836 0.00723551 0)
(-0.157899 0.00626225 0)
(-0.160178 0.00522654 0)
(-0.161668 0.00413733 0)
(-0.162361 0.00299917 0)
(-0.162246 0.00181612 0)
(-0.161283 0.000597599 0)
(-0.159469 -0.000667826 0)
(-0.156815 -0.00201148 0)
(-0.153251 -0.00339778 0)
(-0.148832 -0.00482128 0)
(-0.143502 -0.00627033 0)
(-0.137286 -0.00772847 0)
(-0.130166 -0.00917739 0)
(-0.122163 -0.0105876 0)
(-0.113299 -0.0119198 0)
(-0.103615 -0.0131404 0)
(-0.0931613 -0.0142161 0)
(-0.0820881 -0.0150948 0)
(-0.0705406 -0.015724 0)
(-0.0586674 -0.0160433 0)
(-0.0466685 -0.0160052 0)
(-0.0347726 -0.0155654 0)
(-0.0232174 -0.0146869 0)
(-0.0122623 -0.013365 0)
(-0.00217789 -0.0115928 0)
(0.00675719 -0.00940693 0)
(0.0143012 -0.00687742 0)
(0.0202694 -0.00411642 0)
(0.0244495 -0.00128133 0)
(0.0268021 0.00139064 0)
(0.0272031 0.00373772 0)
(0.0257065 0.00556928 0)
(0.0225823 0.00651007 0)
(0.0179822 0.00654124 0)
(0.0126084 0.00574418 0)
(0.00732679 0.00437406 0)
(0.00300203 0.00262776 0)
(0.00031099 0.000829751 0)
(0.000262788 -0.00162259 0)
(0.00206838 -0.00349046 0)
(0.00415327 -0.00410267 0)
(0.00590383 -0.00385872 0)
(0.00721369 -0.0031747 0)
(0.00809056 -0.00235669 0)
(0.0085666 -0.00157108 0)
(0.00868149 -0.000893424 0)
(0.00847121 -0.000337298 0)
(0.00795778 0.000116798 0)
(0.00715361 0.000504082 0)
(0.00605199 0.000863317 0)
(0.00463143 0.00122611 0)
(0.00285413 0.00161939 0)
(0.00066808 0.00206609 0)
(-0.00199747 0.00259074 0)
(-0.00520972 0.00321475 0)
(-0.00904571 0.00395987 0)
(-0.0135824 0.00484791 0)
(-0.0188887 0.00589477 0)
(-0.0249952 0.00709197 0)
(-0.0319551 0.00843007 0)
(-0.0397767 0.00988284 0)
(-0.0484256 0.0114055 0)
(-0.0578094 0.0129473 0)
(-0.0677777 0.0144325 0)
(-0.0781269 0.0157962 0)
(-0.0886402 0.0169979 0)
(-0.0991027 0.0179895 0)
(-0.109329 0.0187445 0)
(-0.11914 0.0192351 0)
(-0.12843 0.0194342 0)
(-0.137076 0.0193462 0)
(-0.145027 0.0189889 0)
(-0.15226 0.0183917 0)
(-0.158767 0.0175766 0)
(-0.164549 0.0165678 0)
(-0.169612 0.015397 0)
(-0.173966 0.0140888 0)
(-0.177618 0.012664 0)
(-0.180577 0.0111435 0)
(-0.182848 0.00954397 0)
(-0.184436 0.00787514 0)
(-0.18534 0.00614254 0)
(-0.185557 0.0043483 0)
(-0.185079 0.00249365 0)
(-0.183899 0.000581294 0)
(-0.182 -0.00139129 0)
(-0.179352 -0.00343417 0)
(-0.175945 -0.00554678 0)
(-0.17176 -0.00770327 0)
(-0.166784 -0.00990827 0)
(-0.160993 -0.0121462 0)
(-0.154379 -0.0143978 0)
(-0.146931 -0.0166342 0)
(-0.138653 -0.0188163 0)
(-0.129561 -0.0208981 0)
(-0.119695 -0.0228261 0)
(-0.109109 -0.0245265 0)
(-0.0978881 -0.0259241 0)
(-0.0861602 -0.0269452 0)
(-0.074077 -0.0275024 0)
(-0.0618024 -0.0275109 0)
(-0.0495601 -0.0269156 0)
(-0.0375794 -0.0256681 0)
(-0.02609 -0.0237431 0)
(-0.015325 -0.0211314 0)
(-0.00553235 -0.0178886 0)
(0.00305979 -0.0141059 0)
(0.0102707 -0.00992263 0)
(0.0159563 -0.00551998 0)
(0.0199915 -0.00112172 0)
(0.022375 0.00302398 0)
(0.0229772 0.00656455 0)
(0.0217247 0.00927808 0)
(0.0189681 0.0107729 0)
(0.0147543 0.0109243 0)
(0.00970361 0.00968221 0)
(0.00463099 0.00705864 0)
(0.000625955 0.00310139 0)
(0.000351124 -0.00285081 0)
(0.00227171 -0.00552631 0)
(0.0040794 -0.00589852 0)
(0.00533238 -0.00514702 0)
(0.00609074 -0.00398479 0)
(0.00641809 -0.00274983 0)
(0.0063596 -0.0015963 0)
(0.00594213 -0.000580398 0)
(0.00517233 0.000299873 0)
(0.00404183 0.0010792 0)
(0.00252838 0.00180891 0)
(0.0005948 0.00254084 0)
(-0.00180848 0.00332108 0)
(-0.00474333 0.00419005 0)
(-0.00828115 0.00518304 0)
(-0.0124993 0.00633021 0)
(-0.0174743 0.00765597 0)
(-0.0232763 0.0091783 0)
(-0.0299576 0.010904 0)
(-0.0375422 0.0128239 0)
(-0.0460115 0.0149064 0)
(-0.0553039 0.0170955 0)
(-0.0653008 0.0193067 0)
(-0.0758258 0.0214295 0)
(-0.0866645 0.0233814 0)
(-0.0975934 0.0250856 0)
(-0.108412 0.026473 0)
(-0.118917 0.0274716 0)
(-0.128942 0.0280528 0)
(-0.138348 0.0282462 0)
(-0.14705 0.0280872 0)
(-0.155022 0.0275983 0)
(-0.16224 0.0268055 0)
(-0.168738 0.0257358 0)
(-0.174523 0.0244245 0)
(-0.179625 0.0229116 0)
(-0.184073 0.0212243 0)
(-0.187893 0.0193904 0)
(-0.191102 0.0174334 0)
(-0.193721 0.0153756 0)
(-0.195759 0.0132289 0)
(-0.197225 0.0110054 0)
(-0.198122 0.00871188 0)
(-0.198447 0.00634986 0)
(-0.198193 0.00391884 0)
(-0.197348 0.00141639 0)
(-0.1959 -0.00115962 0)
(-0.193828 -0.00381265 0)
(-0.191106 -0.00654351 0)
(-0.187716 -0.00936195 0)
(-0.183634 -0.0122554 0)
(-0.178836 -0.0152178 0)
(-0.173298 -0.0182338 0)
(-0.166996 -0.02128 0)
(-0.15991 -0.02432 0)
(-0.152026 -0.0273033 0)
(-0.143343 -0.0301704 0)
(-0.133876 -0.0328453 0)
(-0.123657 -0.0352357 0)
(-0.112741 -0.0372333 0)
(-0.101216 -0.0387185 0)
(-0.0892273 -0.0395858 0)
(-0.0769101 -0.0397147 0)
(-0.0644676 -0.0390183 0)
(-0.0521452 -0.0374283 0)
(-0.040206 -0.0349458 0)
(-0.028867 -0.0315484 0)
(-0.0183645 -0.0272904 0)
(-0.00893978 -0.0222985 0)
(-0.000786596 -0.0167462 0)
(0.00594311 -0.010864 0)
(0.011136 -0.00491484 0)
(0.0147534 0.000841986 0)
(0.0167903 0.00606297 0)
(0.0172388 0.0103523 0)
(0.0160271 0.0133857 0)
(0.0133584 0.0148107 0)
(0.00950312 0.0143724 0)
(0.00494557 0.0117153 0)
(0.000717347 0.00587329 0)
(0.000420136 -0.00413918 0)
(0.002161 -0.00730779 0)
(0.00342775 -0.00718563 0)
(0.00406956 -0.00586869 0)
(0.00422233 -0.00423145 0)
(0.00395397 -0.00259428 0)
(0.00330234 -0.00107189 0)
(0.00227377 0.000308225 0)
(0.000848757 0.00156868 0)
(-0.00101037 0.00276111 0)
(-0.00335521 0.0039486 0)
(-0.00624829 0.00519498 0)
(-0.00975983 0.00655732 0)
(-0.0139651 0.0080839 0)
(-0.0189397 0.0098134 0)
(-0.0247526 0.0117736 0)
(-0.0314585 0.0139786 0)
(-0.0390854 0.0164237 0)
(-0.0476203 0.0190788 0)
(-0.0570002 0.0218852 0)
(-0.0671032 0.0247466 0)
(-0.0777529 0.0275456 0)
(-0.0887279 0.0301642 0)
(-0.0998062 0.0324831 0)
(-0.110783 0.0344149 0)
(-0.121442 0.0358536 0)
(-0.131588 0.036776 0)
(-0.141076 0.0371969 0)
(-0.149859 0.037131 0)
(-0.157904 0.0366184 0)
(-0.16522 0.0357236 0)
(-0.171828 0.0344981 0)
(-0.177763 0.0329914 0)
(-0.183066 0.0312435 0)
(-0.187761 0.0292893 0)
(-0.191885 0.027163 0)
(-0.195467 0.0248888 0)
(-0.198526 0.022493 0)
(-0.201084 0.0199926 0)
(-0.203158 0.0174027 0)
(-0.204753 0.0147331 0)
(-0.205875 0.0119888 0)
(-0.206522 0.00917433 0)
(-0.206691 0.00628446 0)
(-0.206372 0.00331464 0)
(-0.205556 0.000257752 0)
(-0.204225 -0.0028919 0)
(-0.202354 -0.00613758 0)
(-0.199925 -0.0094888 0)
(-0.196911 -0.0129508 0)
(-0.193283 -0.0165179 0)
(-0.189009 -0.0201817 0)
(-0.184061 -0.0239279 0)
(-0.178405 -0.0277333 0)
(-0.172012 -0.0315585 0)
(-0.164843 -0.0353436 0)
(-0.156879 -0.0390179 0)
(-0.148109 -0.0424887 0)
(-0.138538 -0.0456438 0)
(-0.128187 -0.0483436 0)
(-0.117103 -0.0504433 0)
(-0.105382 -0.0517847 0)
(-0.093159 -0.0522329 0)
(-0.0805951 -0.0516395 0)
(-0.0679006 -0.0498934 0)
(-0.0553688 -0.0469624 0)
(-0.0433168 -0.0428889 0)
(-0.0319585 -0.0377063 0)
(-0.0215568 -0.0315629 0)
(-0.0123472 -0.0246764 0)
(-0.00451512 -0.0173257 0)
(0.00180773 -0.00982917 0)
(0.00656168 -0.00251521 0)
(0.00975084 0.00425606 0)
(0.011408 0.0101032 0)
(0.0115566 0.0146148 0)
(0.0102746 0.017379 0)
(0.00772417 0.0180088 0)
(0.00422841 0.015792 0)
(0.000583032 0.00848639 0)
(0.000458461 -0.00534035 0)
(0.00179756 -0.00858907 0)
(0.00237563 -0.00783521 0)
(0.0023561 -0.00594812 0)
(0.00186195 -0.0038548 0)
(0.000955887 -0.00181982 0)
(-0.000344276 8.86173e-05 0)
(-0.00205555 0.00187501 0)
(-0.00422178 0.00358446 0)
(-0.00690489 0.00528397 0)
(-0.0101778 0.00704749 0)
(-0.0141187 0.0089454 0)
(-0.0188061 0.0110375 0)
(-0.0243127 0.0133694 0)
(-0.0306978 0.0159699 0)
(-0.0379981 0.0188473 0)
(-0.0462163 0.0219846 0)
(-0.0553097 0.0253304 0)
(-0.0651783 0.0287936 0)
(-0.0756643 0.0322645 0)
(-0.0865656 0.0355979 0)
(-0.0976531 0.0386463 0)
(-0.108699 0.0413035 0)
(-0.11948 0.043408 0)
(-0.129762 0.0448971 0)
(-0.139385 0.0457551 0)
(-0.14829 0.0459904 0)
(-0.15646 0.0456695 0)
(-0.163923 0.0448656 0)
(-0.170708 0.0436464 0)
(-0.176852 0.0420777 0)
(-0.182389 0.0402155 0)
(-0.187359 0.0381086 0)
(-0.191798 0.0357935 0)
(-0.195734 0.0333047 0)
(-0.199201 0.0306715 0)
(-0.202218 0.0279156 0)
(-0.204804 0.0250553 0)
(-0.206975 0.0221046 0)
(-0.208741 0.0190747 0)
(-0.21011 0.0159711 0)
(-0.211082 0.0127947 0)
(-0.211655 0.00954695 0)
(-0.21183 0.00621609 0)
(-0.211602 0.00279343 0)
(-0.210966 -0.000735414 0)
(-0.20991 -0.00438398 0)
(-0.208406 -0.00815327 0)
(-0.206423 -0.0120458 0)
(-0.203943 -0.0160711 0)
(-0.200934 -0.02023 0)
(-0.197354 -0.0245126 0)
(-0.193163 -0.0289053 0)
(-0.188322 -0.03339 0)
(-0.182821 -0.0379552 0)
(-0.176581 -0.0425208 0)
(-0.169555 -0.0470032 0)
(-0.161709 -0.0512972 0)
(-0.153021 -0.0552828 0)
(-0.143467 -0.0587962 0)
(-0.133065 -0.0616583 0)
(-0.121844 -0.0636745 0)
(-0.109903 -0.0646642 0)
(-0.0973903 -0.0644095 0)
(-0.0845019 -0.0627755 0)
(-0.0714297 -0.0596541 0)
(-0.0585601 -0.0550643 0)
(-0.0462355 -0.049108 0)
(-0.0347067 -0.0419269 0)
(-0.0242698 -0.0337703 0)
(-0.0151678 -0.0249711 0)
(-0.00758072 -0.0159178 0)
(-0.00160636 -0.00701845 0)
(0.00274236 0.00131305 0)
(0.00551583 0.00866274 0)
(0.00679595 0.0146036 0)
(0.00668559 0.0186972 0)
(0.00529541 0.0204364 0)
(0.00301905 0.0188638 0)
(0.000343393 0.0105267 0)
(0.00045154 -0.00634036 0)
(0.00120827 -0.00925146 0)
(0.0010616 -0.00777184 0)
(0.000337114 -0.00533983 0)
(-0.000835752 -0.0028136 0)
(-0.00241897 -0.000376568 0)
(-0.00441615 0.00194664 0)
(-0.00686758 0.00419149 0)
(-0.00983796 0.00642398 0)
(-0.0134064 0.00872364 0)
(-0.0176572 0.0111698 0)
(-0.0226719 0.0138313 0)
(-0.0285218 0.0167596 0)
(-0.0352588 0.0199836 0)
(-0.0429062 0.0235051 0)
(-0.0514468 0.0272938 0)
(-0.060816 0.0312818 0)
(-0.0708911 0.0353668 0)
(-0.0815059 0.0394025 0)
(-0.0924378 0.0432228 0)
(-0.103451 0.046705 0)
(-0.114315 0.049642 0)
(-0.124753 0.0519169 0)
(-0.134562 0.0534636 0)
(-0.14366 0.0542623 0)
(-0.15203 0.0543789 0)
(-0.15969 0.0538866 0)
(-0.166678 0.0528726 0)
(-0.173038 0.0514134 0)
(-0.17881 0.0495815 0)
(-0.184036 0.0474408 0)
(-0.188751 0.0450438 0)
(-0.192988 0.0424345 0)
(-0.196774 0.0396481 0)
(-0.200138 0.036715 0)
(-0.203101 0.0336585 0)
(-0.205684 0.030498 0)
(-0.2079 0.0272503 0)
(-0.20976 0.0239277 0)
(-0.211269 0.0205401 0)
(-0.212429 0.0170935 0)
(-0.213277 0.0135379 0)
(-0.213791 0.00991957 0)
(-0.213971 0.006218 0)
(-0.21381 0.0024248 0)
(-0.213299 -0.00147462 0)
(-0.212434 -0.00549603 0)
(-0.211223 -0.00965763 0)
(-0.209653 -0.0139789 0)
(-0.207704 -0.0184748 0)
(-0.205359 -0.0231674 0)
(-0.202581 -0.0280359 0)
(-0.199314 -0.0330622 0)
(-0.195495 -0.0382215 0)
(-0.191032 -0.0434605 0)
(-0.185894 -0.0487492 0)
(-0.180007 -0.0540023 0)
(-0.173307 -0.0591104 0)
(-0.165773 -0.0639801 0)
(-0.15731 -0.0684019 0)
(-0.147896 -0.0721681 0)
(-0.13751 -0.0750475 0)
(-0.12619 -0.0767909 0)
(-0.114007 -0.0771546 0)
(-0.101139 -0.0759341 0)
(-0.0877947 -0.0729498 0)
(-0.0742443 -0.0681358 0)
(-0.0609185 -0.0615947 0)
(-0.0482068 -0.053531 0)
(-0.0364246 -0.0441956 0)
(-0.0258943 -0.0339732 0)
(-0.0168718 -0.0233295 0)
(-0.00952172 -0.0127669 0)
(-0.00390524 -0.00278758 0)
(1.17986e-05 0.00612798 0)
(0.0023468 0.0135154 0)
(0.00326338 0.0189192 0)
(0.00293469 0.0217618 0)
(0.00169251 0.020795 0)
(9.92239e-05 0.0117664 0)
(0.000398421 -0.00698326 0)
(0.000465402 -0.00919708 0)
(-0.000448287 -0.00696715 0)
(-0.00188546 -0.00402856 0)
(-0.00375727 -0.00107962 0)
(-0.0060454 0.00177221 0)
(-0.00877282 0.00454563 0)
(-0.0119993 0.00730423 0)
(-0.0158048 0.0101307 0)
(-0.0202769 0.013111 0)
(-0.0255003 0.0163214 0)
(-0.0315463 0.0198186 0)
(-0.0384636 0.0236323 0)
(-0.0462683 0.0277598 0)
(-0.0549333 0.0321597 0)
(-0.0643799 0.0367485 0)
(-0.0744843 0.041416 0)
(-0.0850629 0.0459937 0)
(-0.0958801 0.0503148 0)
(-0.106718 0.0541884 0)
(-0.117283 0.0574182 0)
(-0.127315 0.0598779 0)
(-0.136672 0.061497 0)
(-0.145311 0.0623105 0)
(-0.153239 0.0623815 0)
(-0.160482 0.0618007 0)
(-0.167086 0.0606559 0)
(-0.173098 0.0590355 0)
(-0.17856 0.0570143 0)
(-0.183513 0.0546602 0)
(-0.187993 0.0520324 0)
(-0.192028 0.0491795 0)
(-0.195643 0.0461411 0)
(-0.198863 0.0429502 0)
(-0.201707 0.0396349 0)
(-0.20419 0.0362196 0)
(-0.206322 0.0327273 0)
(-0.20813 0.029154 0)
(-0.209649 0.0254986 0)
(-0.210881 0.021774 0)
(-0.211836 0.0179785 0)
(-0.212499 0.0141489 0)
(-0.212886 0.01023 0)
(-0.212996 0.00622352 0)
(-0.212832 0.00211643 0)
(-0.212394 -0.00210128 0)
(-0.211687 -0.00644175 0)
(-0.210707 -0.010925 0)
(-0.209446 -0.0155682 0)
(-0.207892 -0.0203837 0)
(-0.206025 -0.0253772 0)
(-0.203824 -0.0305895 0)
(-0.201267 -0.0360335 0)
(-0.19832 -0.0416994 0)
(-0.194931 -0.0475605 0)
(-0.191045 -0.0535817 0)
(-0.186588 -0.0597043 0)
(-0.181392 -0.0657029 0)
(-0.175294 -0.0714391 0)
(-0.168251 -0.0767915 0)
(-0.160216 -0.0815711 0)
(-0.151089 -0.0854909 0)
(-0.140843 -0.0882568 0)
(-0.129469 -0.0895473 0)
(-0.117062 -0.0890721 0)
(-0.103782 -0.0866051 0)
(-0.0898929 -0.0819646 0)
(-0.0757602 -0.0751666 0)
(-0.061876 -0.0664197 0)
(-0.0487214 -0.056064 0)
(-0.03666 -0.0444891 0)
(-0.0260485 -0.0322401 0)
(-0.0171484 -0.0199252 0)
(-0.0101006 -0.00816199 0)
(-0.00492407 0.00245904 0)
(-0.00150746 0.0114052 0)
(0.000363347 0.0181551 0)
(0.000968295 0.0220836 0)
(0.00063294 0.0217385 0)
(-4.60055e-05 0.0123091 0)
(0.000312402 -0.00719654 0)
(-0.00040423 -0.00838599 0)
(-0.00208318 -0.00542327 0)
(-0.00422443 -0.00200063 0)
(-0.00680534 0.00136555 0)
(-0.00981059 0.0046481 0)
(-0.01328 0.00790747 0)
(-0.0172881 0.0112301 0)
(-0.0219231 0.0147085 0)
(-0.0272719 0.0184266 0)
(-0.0334079 0.0224468 0)
(-0.0403805 0.0268018 0)
(-0.0482045 0.0314871 0)
(-0.0568504 0.0364554 0)
(-0.0662352 0.041614 0)
(-0.0762411 0.0468372 0)
(-0.0866749 0.0519431 0)
(-0.0973008 0.0567497 0)
(-0.107875 0.0610236 0)
(-0.118102 0.064573 0)
(-0.127744 0.0672483 0)
(-0.136719 0.0690201 0)
(-0.144984 0.0699199 0)
(-0.152548 0.0700295 0)
(-0.159447 0.0694325 0)
(-0.165726 0.0682284 0)
(-0.171435 0.0665076 0)
(-0.176616 0.0643538 0)
(-0.181309 0.0618378 0)
(-0.185546 0.0590233 0)
(-0.189357 0.0559634 0)
(-0.192766 0.0527025 0)
(-0.195795 0.049278 0)
(-0.198466 0.0457199 0)
(-0.200797 0.0420526 0)
(-0.202809 0.0382968 0)
(-0.204521 0.0344658 0)
(-0.205947 0.0305831 0)
(-0.20708 0.0266585 0)
(-0.207936 0.0226815 0)
(-0.208535 0.0186464 0)
(-0.208886 0.0145515 0)
(-0.209009 0.0103831 0)
(-0.208917 0.00613607 0)
(-0.208623 0.00179687 0)
(-0.208141 -0.00264873 0)
(-0.20747 -0.007219 0)
(-0.206608 -0.011938 0)
(-0.205556 -0.0168291 0)
(-0.204311 -0.0219146 0)
(-0.202865 -0.027214 0)
(-0.201203 -0.032743 0)
(-0.199308 -0.0385091 0)
(-0.197145 -0.0445116 0)
(-0.194668 -0.0507353 0)
(-0.19182 -0.0571483 0)
(-0.188517 -0.0636926 0)
(-0.184711 -0.0704069 0)
(-0.180285 -0.0771077 0)
(-0.1751 -0.0836113 0)
(-0.168843 -0.0894708 0)
(-0.161395 -0.0945133 0)
(-0.152733 -0.0985111 0)
(-0.142719 -0.101032 0)
(-0.131354 -0.101705 0)
(-0.118712 -0.100186 0)
(-0.104969 -0.0961968 0)
(-0.0904557 -0.0896286 0)
(-0.0756354 -0.0805693 0)
(-0.061135 -0.0693953 0)
(-0.0475201 -0.0566196 0)
(-0.0352118 -0.0428036 0)
(-0.0246005 -0.0286704 0)
(-0.0159401 -0.0149705 0)
(-0.00932548 -0.00243918 0)
(-0.00470227 0.00825492 0)
(-0.00185599 0.0164945 0)
(-0.000433983 0.0215057 0)
(-1.28435e-05 0.021852 0)
(-5.6171e-05 0.0123772 0)
(0.000151248 -0.0069068 0)
(-0.00136229 -0.0068146 0)
(-0.00377659 -0.00313254 0)
(-0.006611 0.000744536 0)
(-0.00989266 0.00452259 0)
(-0.0136069 0.00825159 0)
(-0.0178051 0.0120275 0)
(-0.0225714 0.0159525 0)
(-0.0279938 0.0201201 0)
(-0.0341495 0.024602 0)
(-0.0410918 0.0294363 0)
(-0.0488393 0.0346203 0)
(-0.057367 0.0401043 0)
(-0.0665973 0.0457907 0)
(-0.0764132 0.0515456 0)
(-0.0866219 0.057172 0)
(-0.0970021 0.0624619 0)
(-0.107282 0.0671659 0)
(-0.117173 0.0710711 0)
(-0.126495 0.0740352 0)
(-0.135151 0.076035 0)
(-0.143107 0.0771078 0)
(-0.150368 0.0773194 0)
(-0.156975 0.0767723 0)
(-0.162972 0.0755646 0)
(-0.168407 0.0737972 0)
(-0.173323 0.0715562 0)
(-0.177756 0.0689193 0)
(-0.181737 0.0659529 0)
(-0.185294 0.0627159 0)
(-0.188452 0.0592578 0)
(-0.191232 0.055621 0)
(-0.193655 0.051841 0)
(-0.195743 0.0479479 0)
(-0.197515 0.0439669 0)
(-0.198989 0.039917 0)
(-0.200185 0.0358113 0)
(-0.201112 0.0316611 0)
(-0.201791 0.0274699 0)
(-0.202246 0.0232397 0)
(-0.202491 0.0189708 0)
(-0.202542 0.0146604 0)
(-0.202415 0.0102974 0)
(-0.202125 0.00587156 0)
(-0.201686 0.00136698 0)
(-0.201107 -0.00323526 0)
(-0.200397 -0.00795682 0)
(-0.199566 -0.0128213 0)
(-0.198622 -0.0178532 0)
(-0.197569 -0.0230784 0)
(-0.19641 -0.0285226 0)
(-0.19514 -0.0342112 0)
(-0.193752 -0.0401644 0)
(-0.192227 -0.0463963 0)
(-0.190535 -0.05291 0)
(-0.18863 -0.0596927 0)
(-0.186446 -0.0667033 0)
(-0.183902 -0.0738727 0)
(-0.180891 -0.0810976 0)
(-0.177262 -0.0882275 0)
(-0.172896 -0.0952209 0)
(-0.167586 -0.101702 0)
(-0.160924 -0.107044 0)
(-0.152793 -0.111008 0)
(-0.143082 -0.113175 0)
(-0.131728 -0.113073 0)
(-0.118801 -0.110281 0)
(-0.10452 -0.104527 0)
(-0.0892882 -0.0957481 0)
(-0.0737122 -0.0841666 0)
(-0.0585737 -0.0703859 0)
(-0.0445358 -0.055131 0)
(-0.0320885 -0.0391691 0)
(-0.021634 -0.0234027 0)
(-0.013395 -0.00873984 0)
(-0.00740403 0.00395521 0)
(-0.00347314 0.013918 0)
(-0.00126674 0.020191 0)
(-0.000238096 0.0214207 0)
(1.7293e-05 0.0122909 0)
(-4.7307e-05 -0.00605152 0)
(-0.00235898 -0.0044784 0)
(-0.00547254 -0.000119348 0)
(-0.00897557 0.00418666 0)
(-0.0129339 0.00837268 0)
(-0.0173287 0.0125604 0)
(-0.0222189 0.0168737 0)
(-0.0276912 0.0214221 0)
(-0.0338268 0.0262907 0)
(-0.0406854 0.0315289 0)
(-0.0482935 0.0371406 0)
(-0.0566351 0.0430783 0)
(-0.0656445 0.0492436 0)
(-0.0752136 0.0554968 0)
(-0.0851521 0.0616261 0)
(-0.0952491 0.0674076 0)
(-0.105235 0.0725763 0)
(-0.11483 0.0768915 0)
(-0.123878 0.0802265 0)
(-0.132273 0.0825378 0)
(-0.139973 0.0838488 0)
(-0.146986 0.0842344 0)
(-0.153345 0.0837954 0)
(-0.159097 0.0826418 0)
(-0.164285 0.0808745 0)
(-0.168952 0.0785882 0)
(-0.173131 0.075864 0)
(-0.176853 0.0727745 0)
(-0.180146 0.0693826 0)
(-0.183033 0.0657445 0)
(-0.18554 0.0619077 0)
(-0.187689 0.0579137 0)
(-0.189503 0.0537982 0)
(-0.191006 0.049591 0)
(-0.19222 0.0453161 0)
(-0.193166 0.0409911 0)
(-0.193866 0.036629 0)
(-0.19434 0.0322413 0)
(-0.194608 0.027834 0)
(-0.194691 0.0234076 0)
(-0.194606 0.0189606 0)
(-0.194369 0.0144879 0)
(-0.193995 0.00997844 0)
(-0.193499 0.00541989 0)
(-0.192896 0.00079565 0)
(-0.1922 -0.00391375 0)
(-0.191422 -0.00872999 0)
(-0.190578 -0.0136776 0)
(-0.18968 -0.0187827 0)
(-0.188738 -0.0240733 0)
(-0.187762 -0.0295783 0)
(-0.186758 -0.0353273 0)
(-0.185726 -0.0413471 0)
(-0.184662 -0.0476607 0)
(-0.18355 -0.0542841 0)
(-0.182361 -0.061222 0)
(-0.18105 -0.0684637 0)
(-0.179551 -0.0759779 0)
(-0.177773 -0.0836896 0)
(-0.175585 -0.0914744 0)
(-0.172831 -0.0991476 0)
(-0.169308 -0.106472 0)
(-0.164787 -0.113255 0)
(-0.158955 -0.118951 0)
(-0.151387 -0.122839 0)
(-0.141967 -0.124554 0)
(-0.130566 -0.123495 0)
(-0.117263 -0.1192 0)
(-0.102336 -0.111403 0)
(-0.0862971 -0.100117 0)
(-0.0699317 -0.0857745 0)
(-0.0541939 -0.0692509 0)
(-0.0398645 -0.0515472 0)
(-0.0274827 -0.0336401 0)
(-0.0174359 -0.0166471 0)
(-0.00988985 -0.00165594 0)
(-0.00473722 0.0103489 0)
(-0.00170441 0.0182255 0)
(-0.000192273 0.0206044 0)
(0.000169499 0.0122059 0)
(-0.00027094 -0.00461491 0)
(-0.00335133 -0.00141546 0)
(-0.00711878 0.00358105 0)
(-0.0112528 0.00829194 0)
(-0.0158479 0.0128802 0)
(-0.0208763 0.0175314 0)
(-0.0264 0.0223891 0)
(-0.0325024 0.0275615 0)
(-0.0392515 0.0331162 0)
(-0.0466848 0.039071 0)
(-0.0547987 0.0453872 0)
(-0.0635446 0.0519697 0)
(-0.0728288 0.0586788 0)
(-0.0824705 0.0652897 0)
(-0.0922681 0.0715655 0)
(-0.10197 0.0772314 0)
(-0.111308 0.0820207 0)
(-0.120124 0.0857973 0)
(-0.128307 0.0884963 0)
(-0.135802 0.0901223 0)
(-0.142612 0.0907505 0)
(-0.148768 0.0904848 0)
(-0.154311 0.0894382 0)
(-0.159284 0.0877197 0)
(-0.163726 0.0854273 0)
(-0.16767 0.0826496 0)
(-0.171147 0.0794641 0)
(-0.174185 0.0759404 0)
(-0.176811 0.0721404 0)
(-0.179051 0.0681184 0)
(-0.180932 0.0639224 0)
(-0.182482 0.0595944 0)
(-0.183727 0.0551701 0)
(-0.184693 0.0506781 0)
(-0.185405 0.0461409 0)
(-0.185886 0.0415763 0)
(-0.18616 0.0369978 0)
(-0.186248 0.0324152 0)
(-0.186169 0.0278325 0)
(-0.185941 0.0232492 0)
(-0.18558 0.018662 0)
(-0.185101 0.0140642 0)
(-0.184519 0.00944491 0)
(-0.183849 0.00479101 0)
(-0.183104 8.6045e-05 0)
(-0.1823 -0.00468907 0)
(-0.181451 -0.00955608 0)
(-0.180574 -0.0145396 0)
(-0.179684 -0.0196665 0)
(-0.178797 -0.0249659 0)
(-0.177927 -0.0304689 0)
(-0.177087 -0.0362078 0)
(-0.176287 -0.0422144 0)
(-0.17553 -0.0485187 0)
(-0.174815 -0.055146 0)
(-0.174127 -0.0621142 0)
(-0.173439 -0.0694295 0)
(-0.172706 -0.0770808 0)
(-0.17186 -0.0850288 0)
(-0.170798 -0.0931989 0)
(-0.169382 -0.101469 0)
(-0.167428 -0.109632 0)
(-0.164706 -0.117393 0)
(-0.160921 -0.124378 0)
(-0.155737 -0.130181 0)
(-0.148672 -0.133957 0)
(-0.139438 -0.135077 0)
(-0.127872 -0.132851 0)
(-0.114057 -0.126778 0)
(-0.0983591 -0.116611 0)
(-0.0814483 -0.102503 0)
(-0.0643178 -0.0851672 0)
(-0.0481278 -0.0658418 0)
(-0.0337598 -0.0458129 0)
(-0.0217627 -0.0263194 0)
(-0.0124883 -0.00873369 0)
(-0.00596706 0.00568526 0)
(-0.00200579 0.0156168 0)
(-2.80135e-05 0.0195564 0)
(0.000325596 0.0122883 0)
(-0.000507362 -0.00259916 0)
(-0.00430336 0.00233393 0)
(-0.00866729 0.00792312 0)
(-0.0133837 0.013014 0)
(-0.0185612 0.0179937 0)
(-0.0241603 0.0231026 0)
(-0.0302413 0.0284961 0)
(-0.0368795 0.0342725 0)
(-0.0441258 0.0404731 0)
(-0.0519924 0.0470768 0)
(-0.0604495 0.0539982 0)
(-0.0694241 0.0611042 0)
(-0.0787526 0.0681628 0)
(-0.0882456 0.0749235 0)
(-0.0976743 0.0811087 0)
(-0.106784 0.0864287 0)
(-0.115406 0.0907156 0)
(-0.12342 0.093877 0)
(-0.130758 0.0958995 0)
(-0.137413 0.096845 0)
(-0.143409 0.096819 0)
(-0.148783 0.0959385 0)
(-0.153577 0.094318 0)
(-0.157828 0.0920628 0)
(-0.161569 0.0892672 0)
(-0.16483 0.0860164 0)
(-0.167642 0.0823863 0)
(-0.170034 0.0784465 0)
(-0.172036 0.0742579 0)
(-0.17368 0.069876 0)
(-0.174997 0.0653498 0)
(-0.176018 0.0607206 0)
(-0.176771 0.0560223 0)
(-0.177284 0.0512824 0)
(-0.177582 0.0465222 0)
(-0.177691 0.0417587 0)
(-0.17763 0.0370033 0)
(-0.17742 0.0322628 0)
(-0.177076 0.0275396 0)
(-0.176615 0.0228319 0)
(-0.176049 0.0181353 0)
(-0.175392 0.013442 0)
(-0.174657 0.00874132 0)
(-0.173856 0.00401998 0)
(-0.173004 -0.000737809 0)
(-0.172114 -0.00555022 0)
(-0.171202 -0.0104386 0)
(-0.170284 -0.0154268 0)
(-0.169378 -0.0205412 0)
(-0.168502 -0.025811 0)
(-0.167676 -0.031268 0)
(-0.166916 -0.0369462 0)
(-0.166241 -0.0428807 0)
(-0.165663 -0.0491067 0)
(-0.165189 -0.0556574 0)
(-0.16482 -0.0625617 0)
(-0.164544 -0.0698404 0)
(-0.164333 -0.0775005 0)
(-0.164138 -0.0855277 0)
(-0.163885 -0.093879 0)
(-0.163465 -0.102471 0)
(-0.162724 -0.111162 0)
(-0.161455 -0.119736 0)
(-0.159396 -0.127864 0)
(-0.156218 -0.135097 0)
(-0.151512 -0.140854 0)
(-0.144775 -0.144341 0)
(-0.135563 -0.144674 0)
(-0.123648 -0.141011 0)
(-0.109158 -0.132807 0)
(-0.0925709 -0.119878 0)
(-0.0747583 -0.102594 0)
(-0.0570053 -0.0820723 0)
(-0.0406503 -0.0599851 0)
(-0.0266305 -0.0378963 0)
(-0.0154789 -0.0174305 0)
(-0.00744319 -0.000194355 0)
(-0.00242191 0.0123 0)
(8.91371e-05 0.018267 0)
(0.000465794 0.0125369 0)
(-0.000732654 -2.17107e-05 0)
(-0.00518196 0.00671098 0)
(-0.0100815 0.0128487 0)
(-0.0153186 0.0182934 0)
(-0.0210113 0.0236472 0)
(-0.027105 0.029197 0)
(-0.033654 0.0351019 0)
(-0.0407217 0.0414429 0)
(-0.0483398 0.0482282 0)
(-0.0564992 0.0553906 0)
(-0.065151 0.0628128 0)
(-0.0741566 0.0702688 0)
(-0.0833421 0.0774877 0)
(-0.0925035 0.0841977 0)
(-0.101404 0.0900857 0)
(-0.109863 0.0949452 0)
(-0.117745 0.0986444 0)
(-0.12497 0.101144 0)
(-0.131515 0.102489 0)
(-0.137396 0.102776 0)
(-0.142646 0.102126 0)
(-0.147304 0.100659 0)
(-0.151404 0.0984892 0)
(-0.154982 0.0957174 0)
(-0.158068 0.0924364 0)
(-0.160694 0.0887307 0)
(-0.162895 0.0846771 0)
(-0.164702 0.080345 0)
(-0.166152 0.0757971 0)
(-0.167281 0.0710903 0)
(-0.168122 0.0662717 0)
(-0.168708 0.0613802 0)
(-0.169068 0.0564486 0)
(-0.16923 0.0515019 0)
(-0.169219 0.0465595 0)
(-0.169055 0.0416357 0)
(-0.168757 0.0367387 0)
(-0.168341 0.0318729 0)
(-0.167819 0.0270386 0)
(-0.167204 0.0222331 0)
(-0.166507 0.0174507 0)
(-0.165736 0.0126832 0)
(-0.164904 0.00792021 0)
(-0.164019 0.00314893 0)
(-0.163095 -0.00164549 0)
(-0.162143 -0.00648005 0)
(-0.161179 -0.0113746 0)
(-0.160218 -0.0163514 0)
(-0.15928 -0.0214354 0)
(-0.158385 -0.0266549 0)
(-0.157553 -0.0320409 0)
(-0.156808 -0.0376278 0)
(-0.156172 -0.0434523 0)
(-0.155666 -0.049553 0)
(-0.155306 -0.0559692 0)
(-0.155103 -0.0627385 0)
(-0.15506 -0.0698936 0)
(-0.155165 -0.0774585 0)
(-0.155389 -0.0854415 0)
(-0.155678 -0.0938279 0)
(-0.155952 -0.102569 0)
(-0.156087 -0.111568 0)
(-0.155914 -0.120663 0)
(-0.155198 -0.129602 0)
(-0.153643 -0.138015 0)
(-0.150878 -0.145382 0)
(-0.146449 -0.151018 0)
(-0.139803 -0.154007 0)
(-0.130385 -0.153273 0)
(-0.117903 -0.147797 0)
(-0.102558 -0.136999 0)
(-0.0849819 -0.120813 0)
(-0.0663321 -0.0999798 0)
(-0.0482618 -0.0761591 0)
(-0.0321839 -0.0514779 0)
(-0.019046 -0.0278905 0)
(-0.00933412 -0.00740934 0)
(-0.00311083 0.00814497 0)
(5.91501e-05 0.0166392 0)
(0.000580018 0.0128834 0)
(-0.000947989 0.0030743 0)
(-0.00596629 0.0116398 0)
(-0.0113286 0.0182883 0)
(-0.0170167 0.0240599 0)
(-0.0231479 0.0297641 0)
(-0.029651 0.0357268 0)
(-0.0365705 0.0421042 0)
(-0.0439559 0.0489539 0)
(-0.0518211 0.0562446 0)
(-0.0601478 0.0638795 0)
(-0.0688283 0.071655 0)
(-0.0777025 0.0792819 0)
(-0.0865946 0.086497 0)
(-0.0952953 0.0929697 0)
(-0.103608 0.0984484 0)
(-0.111389 0.102757 0)
(-0.118539 0.105817 0)
(-0.125019 0.107645 0)
(-0.13083 0.108327 0)
(-0.136002 0.10798 0)
(-0.140568 0.106732 0)
(-0.144565 0.104703 0)
(-0.148026 0.102003 0)
(-0.150984 0.0987335 0)
(-0.153473 0.0949881 0)
(-0.15553 0.0908524 0)
(-0.157191 0.0864039 0)
(-0.158496 0.0817138 0)
(-0.159486 0.0768469 0)
(-0.160198 0.0718568 0)
(-0.160665 0.0667879 0)
(-0.160922 0.0616776 0)
(-0.160996 0.0565553 0)
(-0.160913 0.0514429 0)
(-0.160693 0.0463562 0)
(-0.160355 0.041306 0)
(-0.159911 0.0362978 0)
(-0.159375 0.0313332 0)
(-0.158755 0.0264109 0)
(-0.158058 0.0215268 0)
(-0.157294 0.0166746 0)
(-0.156467 0.0118459 0)
(-0.155586 0.00703079 0)
(-0.154658 0.00221743 0)
(-0.153693 -0.00260769 0)
(-0.152702 -0.0074599 0)
(-0.151699 -0.0123569 0)
(-0.150698 -0.0173186 0)
(-0.149719 -0.0223679 0)