/*--------------------------------*- C++ -*----------------------------------*\
  =========                 |
  \\      /  F ield         | OpenFOAM: The Open Source CFD Toolbox
   \\    /   O peration     | Website:  https://openfoam.org
    \\  /    A nd           | Version:  13
     \\/     M anipulation  |
\*---------------------------------------------------------------------------*/
FoamFile
{
    format      ascii;
    class       volScalarField;
    location    "3.5";
    object      epsilon;
}
// * * * * * * * * * * * * * * * * * * * * * * * * * * * * * * * * * * * * * //

dimensions      [0 2 -3 0 0 0 0];

internalField   nonuniform List<scalar> 
400
(
8.56696e-06
1.93636e-05
3.11817e-05
0.000107061
0.000364762
0.000669897
0.000839747
0.000981927
0.00110235
0.00121193
0.00131434
0.00141491
0.00151472
0.00158585
0.00161751
0.00162177
0.00150875
0.00117953
0.00072514
0.000511892
3.68255e-05
5.24818e-05
0.000124628
0.000370228
0.000719303
0.000846465
0.000895273
0.000934899
0.00096309
0.00102269
0.00109894
0.00120611
0.00133684
0.00149165
0.00166664
0.00184531
0.00193351
0.00194278
0.00161789
0.00118735
0.000125909
0.000194106
0.000407176
0.000691202
0.000800681
0.00083798
0.000855883
0.00086686
0.000913034
0.000981558
0.00106607
0.00117001
0.0012883
0.00142838
0.00159451
0.00178774
0.00196901
0.0020465
0.00196281
0.00167915
0.000279848
0.000407274
0.000625921
0.000755182
0.000784127
0.000791895
0.000791854
0.000812632
0.000854815
0.000909201
0.000976128
0.00105528
0.00115586
0.00128677
0.00146277
0.00169477
0.00196821
0.00211413
0.00213232
0.0020148
0.00043418
0.000566496
0.000707975
0.000744462
0.000740074
0.00072625
0.00072302
0.000734369
0.000758087
0.000789151
0.000831011
0.000890089
0.000978262
0.00111151
0.00131409
0.00160853
0.00198941
0.00226467
0.0023328
0.00227909
0.000544955
0.000649189
0.000710241
0.000715643
0.000680376
0.000659922
0.00065091
0.0006482
0.000649725
0.000656575
0.000674174
0.000712519
0.000786733
0.000919518
0.0011457
0.00150504
0.00201024
0.00245561
0.00259345
0.00249692
0.000603681
0.00065104
0.000690778
0.000666299
0.000624145
0.000599505
0.000582624
0.000566173
0.000549974
0.000539632
0.000537316
0.000555857
0.000613228
0.000736556
0.000972146
0.00138371
0.00201707
0.00268256
0.00290918
0.00268087
0.000595844
0.00063087
0.000645931
0.000614497
0.000573901
0.000546646
0.000524131
0.000499121
0.000472438
0.000447808
0.000435595
0.00043763
0.000477509
0.000583975
0.000812627
0.00125287
0.00199473
0.00291766
0.00330307
0.00283305
0.00056784
0.000584413
0.000591136
0.000564936
0.000529283
0.000501952
0.000477148
0.000448868
0.000417866
0.000387639
0.000366299
0.000359727
0.000384513
0.000471805
0.000682345
0.00112844
0.0019508
0.00311826
0.00373229
0.00295237
0.000503509
0.000528735
0.000537656
0.00052005
0.000490156
0.000464714
0.000440358
0.000412621
0.000381874
0.000351155
0.00032604
0.000314113
0.000328911
0.000398413
0.000585521
0.00101953
0.00190148
0.00327887
0.00420157
0.00304386
0.000442096
0.000474311
0.000487237
0.000479676
0.000458085
0.000434338
0.000411458
0.000385953
0.000357777
0.000329096
0.00030437
0.000291979
0.000302173
0.00035714
0.000519571
0.000925905
0.00182925
0.00339502
0.00468061
0.0031011
0.000384149
0.00042332
0.000441756
0.000443768
0.000432026
0.00041128
0.000389502
0.000365841
0.00034042
0.000314652
0.00029217
0.000281978
0.000290978
0.000337297
0.000478602
0.000851452
0.00174036
0.00345084
0.00514551
0.00312846
0.000327031
0.000374895
0.000398996
0.000413019
0.000409007
0.000396388
0.000375407
0.000352301
0.000328289
0.00030477
0.000284745
0.000277998
0.000287398
0.000328926
0.000452288
0.000789125
0.00164095
0.00346791
0.00553076
0.00313706
0.000271482
0.000326433
0.000356531
0.000382697
0.000391323
0.000385427
0.000370159
0.000347452
0.000323274
0.000300272
0.000281396
0.000277312
0.000287249
0.000326533
0.000438782
0.000741433
0.00153352
0.00342517
0.00571792
0.00313051
0.000224681
0.000279078
0.000315632
0.000351491
0.000374033
0.000375952
0.00036773
0.000349054
0.000325133
0.000302051
0.000283439
0.000280996
0.000291641
0.000330962
0.000437743
0.000722269
0.00147197
0.00335316
0.0057681
0.00311085
0.00018072
0.000233192
0.000276238
0.000319873
0.000356088
0.000372895
0.000369841
0.000356972
0.00033481
0.000313441
0.000298597
0.000300701
0.000317707
0.000367696
0.000485973
0.000771447
0.00147051
0.00332098
0.00545251
0.00308856
0.00016043
0.00019253
0.000257196
0.000320347
0.00036584
0.000392032
0.000398143
0.000394439
0.000384558
0.000377218
0.000381461
0.000402496
0.000452688
0.000554826
0.00072627
0.00108425
0.00178181
0.0035167
0.00491944
0.00302847
0.000180384
0.000204126
0.000311901
0.000408909
0.000489942
0.000552725
0.000598503
0.000638086
0.000679477
0.000736392
0.000819841
0.000943598
0.00112476
0.0013963
0.00174172
0.00237813
0.00308906
0.00446287
0.00464794
0.00294662
0.000272339
0.00031094
0.000637518
0.000949626
0.0012191
0.00146597
0.00169926
0.00195273
0.00222271
0.00255085
0.00294092
0.00341937
0.00401416
0.00472801
0.00552267
0.00657371
0.00655329
0.00602247
0.00480233
0.0027737
0.000214596
0.000350124
0.000642436
0.00093293
0.00119589
0.00140718
0.00160156
0.0017435
0.00190116
0.0020005
0.00215141
0.00223433
0.00240014
0.00249066
0.00267532
0.00276608
0.00288482
0.00292389
0.00286553
0.00254725
)
;

boundaryField
{
    movingWall
    {
        type            epsilonWallFunction;
        value           nonuniform List<scalar> 
20
(
0.000214596
0.000350124
0.000642436
0.00093293
0.00119589
0.00140718
0.00160156
0.0017435
0.00190116
0.0020005
0.00215141
0.00223433
0.00240014
0.00249066
0.00267532
0.00276608
0.00288482
0.00292389
0.00286553
0.00254725
)
;
    }
    fixedWalls
    {
        type            epsilonWallFunction;
        value           nonuniform List<scalar> 
60
(
8.56696e-06
3.68255e-05
0.000125909
0.000279848
0.00043418
0.000544955
0.000603681
0.000595844
0.00056784
0.000503509
0.000442096
0.000384149
0.000327031
0.000271482
0.000224681
0.00018072
0.00016043
0.000180384
0.000272339
0.000214596
0.000511892
0.00118735
0.00167915
0.0020148
0.00227909
0.00249692
0.00268087
0.00283305
0.00295237
0.00304386
0.0031011
0.00312846
0.00313706
0.00313051
0.00311085
0.00308856
0.00302847
0.00294662
0.0027737
0.00254725
8.56696e-06
1.93636e-05
3.11817e-05
0.000107061
0.000364762
0.000669897
0.000839747
0.000981927
0.00110235
0.00121193
0.00131434
0.00141491
0.00151472
0.00158585
0.00161751
0.00162177
0.00150875
0.00117953
0.00072514
0.000511892
)
;
    }
    frontAndBack
    {
        type            empty;
    }
}


// ************************************************************************* //
