/*--------------------------------*- C++ -*----------------------------------*\
  =========                 |
  \\      /  F ield         | OpenFOAM: The Open Source CFD Toolbox
   \\    /   O peration     | Website:  https://openfoam.org
    \\  /    A nd           | Version:  13
     \\/     M anipulation  |
\*---------------------------------------------------------------------------*/
FoamFile
{
    format      ascii;
    class       volScalarField;
    location    "3.5";
    object      k;
}
// * * * * * * * * * * * * * * * * * * * * * * * * * * * * * * * * * * * * * //

dimensions      [0 2 -2 0 0 0 0];

internalField   nonuniform List<scalar> 
400
(
2.66805e-06
6.02642e-06
9.77216e-06
3.38556e-05
0.000114833
0.000209674
0.000262407
0.000306786
0.000344273
0.000378499
0.000410438
0.000441852
0.000473009
0.00049521
0.000505085
0.000506413
0.000471095
0.000368242
0.000226387
0.000159851
1.14723e-05
4.09769e-05
6.16484e-05
0.000142563
0.000301782
0.000413378
0.000484752
0.000563436
0.000623226
0.000691824
0.000751327
0.000816464
0.000872247
0.000925011
0.000966237
0.000985114
0.00098767
0.000873584
0.000596333
0.000370732
3.93109e-05
0.000140742
0.000214025
0.00037172
0.000507863
0.0005902
0.000659985
0.0007257
0.000779386
0.000840145
0.000894165
0.000948243
0.000996589
0.00104368
0.00108419
0.00110321
0.00110703
0.00103525
0.000769233
0.000524308
8.75505e-05
0.000283548
0.000372265
0.000515628
0.000611089
0.000678919
0.000740591
0.000792077
0.000839526
0.00088816
0.000934215
0.000979009
0.00102226
0.0010697
0.00112239
0.00116836
0.00118324
0.0011581
0.000921337
0.000629099
0.000135973
0.000391996
0.000480881
0.000593208
0.000660922
0.000714419
0.000760121
0.000798961
0.000837394
0.000875815
0.000910791
0.000947074
0.0009909
0.00104721
0.00112119
0.0012093
0.00126118
0.00126716
0.00106197
0.000711583
0.000170718
0.000463361
0.0005474
0.000626033
0.000673478
0.000715708
0.000755162
0.000786135
0.000811187
0.000829377
0.000848288
0.000875354
0.000917612
0.00098337
0.00108314
0.0012192
0.00134276
0.00137875
0.00120708
0.000779598
0.000189213
0.000495269
0.000569624
0.000625009
0.000669594
0.000707714
0.000737714
0.000753575
0.000760782
0.000764534
0.000771415
0.000789087
0.00082715
0.00089823
0.00101808
0.00119665
0.0014032
0.00149507
0.00135449
0.000837006
0.000186782
0.000491702
0.000565592
0.000616487
0.000657213
0.00068832
0.000706753
0.000712168
0.000709515
0.000702128
0.00069873
0.000706746
0.000739045
0.000811197
0.000943597
0.00115405
0.00142986
0.00160489
0.00151341
0.000884505
0.000178043
0.000478269
0.000552849
0.000597392
0.000632769
0.000659836
0.000672766
0.000673283
0.000663895
0.000648913
0.000638054
0.000638143
0.000664702
0.000735694
0.000875212
0.00110868
0.00143682
0.00170315
0.00166596
0.000921743
0.000157926
0.000452231
0.000527927
0.000570685
0.000603217
0.00062732
0.000638745
0.000637033
0.000625017
0.000606712
0.000590327
0.000586242
0.00060808
0.000676615
0.000818299
0.00106339
0.00142795
0.00178656
0.00181673
0.00095029
0.00013869
0.000415524
0.000497752
0.000541453
0.000571823
0.0005937
0.000604145
0.00060192
0.000590863
0.000571947
0.000554455
0.000550449
0.000569339
0.000634478
0.000775031
0.00102193
0.00140281
0.00184032
0.00195596
0.000968148
0.000120526
0.000373168
0.00046565
0.0005123
0.000542
0.000561444
0.000570464
0.000568046
0.000558667
0.000541497
0.000526339
0.000525804
0.000544948
0.000608029
0.000743994
0.000984968
0.0013714
0.00186414
0.00208357
0.000976683
0.000102603
0.00032846
0.000431497
0.000484367
0.00051643
0.000534601
0.000541329
0.000538283
0.000529455
0.000514882
0.000505045
0.000508355
0.000530533
0.000592424
0.000720301
0.000946524
0.00132512
0.00186955
0.00217683
0.000979365
8.51174e-05
0.000283202
0.000396291
0.00045896
0.000496484
0.000515701
0.000521104
0.000517855
0.000509581
0.000497345
0.000492925
0.000499067
0.000523603
0.000582685
0.000698122
0.000903377
0.0012599
0.00184278
0.00221832
0.000977315
7.03676e-05
0.000243607
0.00036047
0.000432015
0.000479395
0.000508714
0.00051948
0.00051675
0.000508702
0.000496283
0.000492968
0.000499298
0.000522731
0.000577979
0.000683343
0.000868151
0.00118826
0.00179098
0.00222302
0.000971185
5.65068e-05
0.000205803
0.000328223
0.000417253
0.000479414
0.000514259
0.000528563
0.000526589
0.000519581
0.000507809
0.00050553
0.000512268
0.000535227
0.000587166
0.000682989
0.000857956
0.00115542
0.00174029
0.00209294
0.000964178
5.0032e-05
0.000194795
0.000327562
0.000425404
0.000495435
0.000539548
0.000561491
0.000564343
0.000561383
0.000555668
0.000558396
0.000571628
0.00060364
0.00066706
0.000767907
0.000947309
0.0012005
0.00172396
0.0019139
0.000945387
5.62211e-05
0.000219902
0.000379319
0.000496723
0.000583455
0.000643738
0.000682134
0.00070471
0.000721076
0.000740486
0.000770961
0.000818719
0.000892164
0.000997286
0.00114161
0.00135846
0.00157318
0.0018697
0.0017458
0.000919732
8.49132e-05
0.000311522
0.000562409
0.000750533
0.000895552
0.00101294
0.00111101
0.00120426
0.00129351
0.00139402
0.00150782
0.00164037
0.00180427
0.00198085
0.00219372
0.00241469
0.00238425
0.00217199
0.00168121
0.000865628
6.68952e-05
0.00010918
0.000200417
0.000291143
0.000373237
0.000439145
0.000499747
0.00054394
0.000593038
0.000623923
0.000670926
0.000696739
0.000748441
0.000776696
0.000834324
0.00086278
0.000899898
0.000912236
0.00089406
0.000794791
)
;

boundaryField
{
    movingWall
    {
        type            kqRWallFunction;
        value           nonuniform List<scalar> 
20
(
6.68952e-05
0.00010918
0.000200417
0.000291143
0.000373237
0.000439145
0.000499747
0.00054394
0.000593038
0.000623923
0.000670926
0.000696739
0.000748441
0.000776696
0.000834324
0.00086278
0.000899898
0.000912236
0.00089406
0.000794791
)
;
    }
    fixedWalls
    {
        type            kqRWallFunction;
        value           nonuniform List<scalar> 
60
(
2.66805e-06
1.14723e-05
3.93109e-05
8.75505e-05
0.000135973
0.000170718
0.000189213
0.000186782
0.000178043
0.000157926
0.00013869
0.000120526
0.000102603
8.51174e-05
7.03676e-05
5.65068e-05
5.0032e-05
5.62211e-05
8.49132e-05
6.68952e-05
0.000159851
0.000370732
0.000524308
0.000629099
0.000711583
0.000779598
0.000837006
0.000884505
0.000921743
0.00095029
0.000968148
0.000976683
0.000979365
0.000977315
0.000971185
0.000964178
0.000945387
0.000919732
0.000865628
0.000794791
2.66805e-06
6.02642e-06
9.77216e-06
3.38556e-05
0.000114833
0.000209674
0.000262407
0.000306786
0.000344273
0.000378499
0.000410438
0.000441852
0.000473009
0.00049521
0.000505085
0.000506413
0.000471095
0.000368242
0.000226387
0.000159851
)
;
    }
    frontAndBack
    {
        type            empty;
    }
}


// ************************************************************************* //
