/*--------------------------------*- C++ -*----------------------------------*\
  =========                 |
  \\      /  F ield         | OpenFOAM: The Open Source CFD Toolbox
   \\    /   O peration     | Website:  https://openfoam.org
    \\  /    A nd           | Version:  13
     \\/     M anipulation  |
\*---------------------------------------------------------------------------*/
FoamFile
{
    format      ascii;
    class       volScalarField;
    location    "3.5";
    object      nut;
}
// * * * * * * * * * * * * * * * * * * * * * * * * * * * * * * * * * * * * * //

dimensions      [0 2 -1 0 0 0 0];

internalField   nonuniform List<scalar> 
400
(
7.47832e-08
1.68801e-07
2.75628e-07
9.63551e-07
3.25364e-06
5.90641e-06
7.3798e-06
8.62648e-06
9.67674e-06
1.06389e-05
1.15354e-05
1.24185e-05
1.32938e-05
1.39174e-05
1.41947e-05
1.42319e-05
1.32386e-05
1.03467e-05
6.36097e-06
4.49255e-06
3.2166e-07
2.87946e-06
2.74454e-06
4.9407e-06
1.13951e-05
1.81689e-05
2.36225e-05
3.0561e-05
3.62966e-05
4.21201e-05
4.62302e-05
4.97426e-05
5.12201e-05
5.16261e-05
5.0416e-05
4.73311e-05
4.54068e-05
3.53532e-05
1.97821e-05
1.0418e-05
1.10462e-06
9.18443e-06
1.01249e-05
1.79916e-05
2.89919e-05
3.74117e-05
4.58033e-05
5.46773e-05
5.98771e-05
6.47194e-05
6.74981e-05
6.91661e-05
6.93838e-05
6.86334e-05
6.63479e-05
6.12702e-05
5.60163e-05
4.71326e-05
2.71319e-05
1.47342e-05
2.46512e-06
1.77668e-05
1.99264e-05
3.16857e-05
4.28613e-05
5.23855e-05
6.23382e-05
6.94838e-05
7.42059e-05
7.80846e-05
8.04692e-05
8.17424e-05
8.13698e-05
8.00317e-05
7.75098e-05
7.24909e-05
6.40202e-05
5.70961e-05
3.58283e-05
1.76786e-05
3.83247e-06
2.44123e-05
2.93969e-05
4.25417e-05
5.31213e-05
6.32503e-05
7.19214e-05
7.8231e-05
8.32498e-05
8.74797e-05
8.98406e-05
9.06937e-05
9.0333e-05
8.87966e-05
8.60945e-05
8.1824e-05
7.1957e-05
6.38121e-05
4.35103e-05
1.99955e-05
4.81327e-06
2.97653e-05
3.79706e-05
4.92879e-05
5.99985e-05
6.9859e-05
7.88499e-05
8.58081e-05
9.11495e-05
9.42892e-05
9.60633e-05
9.67863e-05
9.63236e-05
9.46491e-05
9.21607e-05
8.88886e-05
8.07223e-05
6.96712e-05
5.05633e-05
2.19069e-05
5.33748e-06
3.39091e-05
4.22747e-05
5.27649e-05
6.46517e-05
7.51909e-05
8.40678e-05
9.02706e-05
9.47154e-05
9.74851e-05
9.96757e-05
0.000100816
0.000100413
9.85852e-05
9.59571e-05
9.314e-05
8.78539e-05
7.49924e-05
5.67571e-05
2.35193e-05
5.26965e-06
3.44911e-05
4.4572e-05
5.56634e-05
6.77358e-05
7.8004e-05
8.57705e-05
9.14539e-05
9.59006e-05
9.90794e-05
0.000100874
0.000102722
0.000102944
0.000101415
9.86109e-05
9.56716e-05
9.22454e-05
7.94506e-05
6.24073e-05
2.48535e-05
5.02419e-06
3.52262e-05
4.65338e-05
5.68542e-05
6.8084e-05
7.80643e-05
8.53723e-05
9.08906e-05
9.49301e-05
9.77662e-05
0.000100028
0.000101884
0.000103415
0.000103246
0.000101033
9.80345e-05
9.52428e-05
8.37213e-05
6.69264e-05
2.58995e-05
4.45803e-06
3.48117e-05
4.66536e-05
5.63626e-05
6.6812e-05
7.62142e-05
8.33858e-05
8.85147e-05
9.20676e-05
9.43426e-05
9.61962e-05
9.84716e-05
0.000101178
0.000103417
0.000102926
9.98229e-05
9.65106e-05
8.76097e-05
7.06984e-05
2.67011e-05
3.91578e-06
3.27621e-05
4.57645e-05
5.50068e-05
6.42421e-05
7.30378e-05
7.98361e-05
8.44863e-05
8.7822e-05
8.94606e-05
9.09022e-05
9.33955e-05
9.65448e-05
0.000101447
0.000104048
0.000101513
9.68205e-05
8.97814e-05
7.35627e-05
2.72026e-05
3.40335e-06
2.96062e-05
4.41753e-05
5.32274e-05
6.11972e-05
6.8979e-05
7.51951e-05
7.93812e-05
8.25151e-05
8.38695e-05
8.53371e-05
8.82419e-05
9.18531e-05
9.86457e-05
0.00010409
0.000102548
9.72591e-05
9.06306e-05
7.59328e-05
2.74422e-05
2.89718e-06
2.59e-05
4.19982e-05
5.11238e-05
5.8686e-05
6.48904e-05
7.02527e-05
7.402e-05
7.68499e-05
7.82863e-05
8.06206e-05
8.36633e-05
8.81421e-05
9.60305e-05
0.000103242
0.000102179
9.63067e-05
9.07085e-05
7.71091e-05
2.75175e-05
2.4018e-06
2.21128e-05
3.96436e-05
4.9538e-05
5.66914e-05
6.21006e-05
6.60243e-05
6.94647e-05
7.22933e-05
7.41385e-05
7.77116e-05
8.08336e-05
8.58991e-05
9.35799e-05
9.99669e-05
9.90623e-05
9.31596e-05
8.92297e-05
7.74555e-05
2.74598e-05
1.98345e-06
1.9138e-05
3.70509e-05
4.77888e-05
5.52994e-05
6.19523e-05
6.60467e-05
6.88511e-05
7.16323e-05
7.33872e-05
7.71651e-05
7.98477e-05
8.43238e-05
9.08424e-05
9.60066e-05
9.39148e-05
8.63317e-05
8.60929e-05
7.71075e-05
2.72878e-05
1.59015e-06
1.63467e-05
3.50991e-05
4.89851e-05
5.80908e-05
6.38292e-05
6.79862e-05
6.99121e-05
7.25688e-05
7.40435e-05
7.70284e-05
7.85421e-05
8.11506e-05
8.4387e-05
8.63887e-05
8.58751e-05
8.17055e-05
8.20766e-05
7.23034e-05
2.70894e-05
1.40428e-06
1.77378e-05
3.75461e-05
5.08422e-05
6.03844e-05
6.68313e-05
7.1267e-05
7.26691e-05
7.37564e-05
7.36682e-05
7.35659e-05
7.30647e-05
7.24435e-05
7.21799e-05
7.30737e-05
7.449e-05
7.2796e-05
7.60614e-05
6.7014e-05
2.65606e-05
1.57704e-06
2.13207e-05
4.15178e-05
5.43055e-05
6.25335e-05
6.74764e-05
6.99707e-05
7.00461e-05
6.887e-05
6.70142e-05
6.52496e-05
6.39331e-05
6.36902e-05
6.41069e-05
6.73443e-05
6.98393e-05
7.21062e-05
7.04975e-05
5.90163e-05
2.5837e-05
2.38277e-06
2.80895e-05
4.46534e-05
5.33863e-05
5.92087e-05
6.29919e-05
6.53758e-05
6.68406e-05
6.77486e-05
6.85645e-05
6.95757e-05
7.08241e-05
7.29878e-05
7.46907e-05
7.8425e-05
7.98277e-05
7.80704e-05
7.04989e-05
5.29704e-05
2.43134e-05
1.87677e-06
3.06415e-06
5.62706e-06
8.1772e-06
1.04838e-05
1.23341e-05
1.40346e-05
1.52729e-05
1.6649e-05
1.75132e-05
1.88308e-05
1.95539e-05
2.10049e-05
2.17987e-05
2.34173e-05
2.42202e-05
2.52645e-05
2.56151e-05
2.51056e-05
2.23191e-05
)
;

boundaryField
{
    movingWall
    {
        type            nutkWallFunction;
        Cmu             0.09;
        kappa           0.41;
        E               9.8;
        value           uniform 0;
    }
    fixedWalls
    {
        type            nutkWallFunction;
        Cmu             0.09;
        kappa           0.41;
        E               9.8;
        value           uniform 0;
    }
    frontAndBack
    {
        type            empty;
    }
}


// ************************************************************************* //
