/*--------------------------------*- C++ -*----------------------------------*\
  =========                 |
  \\      /  F ield         | OpenFOAM: The Open Source CFD Toolbox
   \\    /   O peration     | Website:  https://openfoam.org
    \\  /    A nd           | Version:  13
     \\/     M anipulation  |
\*---------------------------------------------------------------------------*/
FoamFile
{
    format      ascii;
    class       volScalarField;
    location    "9.2";
    object      k;
}
// * * * * * * * * * * * * * * * * * * * * * * * * * * * * * * * * * * * * * //

dimensions      [0 2 -2 0 0 0 0];

internalField   nonuniform List<scalar> 
6400
(
5.67863e-07
2.91721e-06
7.09678e-06
1.14282e-05
1.46826e-05
1.65001e-05
1.71512e-05
1.72053e-05
1.73051e-05
1.79349e-05
1.94738e-05
2.24927e-05
2.72559e-05
3.38607e-05
4.19493e-05
5.10662e-05
6.0737e-05
7.07701e-05
8.06844e-05
9.02526e-05
9.98875e-05
0.000110431
0.000123005
0.000138239
0.000155443
0.000172733
0.000189938
0.000207031
0.000224552
0.000242963
0.000261991
0.000281025
0.000299751
0.000318254
0.000336973
0.000356032
0.000375802
0.000396407
0.000418085
0.000440896
0.000465004
0.000490593
0.000517806
0.000546951
0.000578313
0.000613017
0.000653196
0.00070342
0.000752436
0.000802838
0.000851832
0.000899389
0.000943824
0.000983979
0.00101834
0.00104487
0.00105799
0.00106312
0.00105947
0.00103804
0.00100101
0.00094868
0.000881558
0.000802569
0.000713042
0.000617746
0.000521189
0.000426985
0.000338568
0.000260369
0.000196467
0.000142873
9.96128e-05
6.66228e-05
4.28784e-05
2.66826e-05
1.61072e-05
9.28076e-06
4.40104e-06
9.39469e-07
2.74339e-06
2.30475e-05
5.59435e-05
8.73667e-05
0.000110517
0.000124259
0.00013077
0.000133394
0.000135785
0.000141081
0.00015282
0.000175057
0.000208903
0.000253653
0.000307144
0.000366619
0.000429616
0.00049366
0.000556919
0.000618804
0.000681577
0.000749771
0.000828992
0.000921592
0.0010233
0.00112492
0.00122384
0.00131799
0.00140835
0.00149593
0.00157889
0.00165638
0.00172689
0.00179149
0.00185245
0.00191069
0.00196817
0.00202575
0.00208473
0.00214565
0.00220922
0.00227611
0.00234637
0.00242012
0.00249672
0.00257613
0.00265631
0.00273445
0.00281897
0.0029051
0.00299364
0.0030809
0.00316533
0.00324314
0.00331096
0.00336471
0.00339193
0.0034
0.00338618
0.00333823
0.00325249
0.00312867
0.00296513
0.00276582
0.00253524
0.00228236
0.00201825
0.00175096
0.00148821
0.0012336
0.000991901
0.000772525
0.000581632
0.000422369
0.000294801
0.000197109
0.000126197
7.63068e-05
3.71275e-05
4.96428e-06
5.99779e-06
4.99541e-05
0.000116079
0.0001713
0.000208756
0.000230786
0.000242906
0.000251217
0.000261847
0.00028082
0.000314039
0.00036634
0.00043939
0.000531272
0.000637828
0.000754748
0.00087868
0.00100687
0.00113675
0.00126618
0.00139357
0.00151825
0.001638
0.0017474
0.00184151
0.00191648
0.00196972
0.00200704
0.00203605
0.00206395
0.00209464
0.00212731
0.0021624
0.00219762
0.00223643
0.00227805
0.00232415
0.00237467
0.00243065
0.00249202
0.0025586
0.00263104
0.00270869
0.00279179
0.00288019
0.00297379
0.00307195
0.00317583
0.00328519
0.00339823
0.00351403
0.00363022
0.00374456
0.00385364
0.0039536
0.00403963
0.00410652
0.00414123
0.00415077
0.00412918
0.00406242
0.00395028
0.0037885
0.00357956
0.00332573
0.00303549
0.00272483
0.00240254
0.00207898
0.00176439
0.00146751
0.00119493
0.000951413
0.000739434
0.000559615
0.000411252
0.000291087
0.000191574
9.76024e-05
1.32867e-05
1.04177e-05
8.39171e-05
0.000182175
0.000255734
0.000303747
0.000333438
0.000353473
0.000372503
0.000399027
0.000441352
0.000506861
0.000600067
0.000720657
0.000863735
0.00102229
0.00118962
0.00135988
0.00152737
0.00168598
0.00182985
0.00195335
0.00205465
0.00213108
0.00217548
0.00219421
0.00219848
0.00219362
0.00219108
0.00219066
0.00219654
0.00220774
0.00222241
0.00224219
0.00226684
0.00229683
0.00233188
0.00237263
0.00241894
0.00247077
0.0025285
0.00259204
0.0026617
0.00273728
0.00281879
0.00290577
0.00299881
0.00309857
0.00320477
0.00331698
0.00343424
0.00355555
0.00367918
0.003803
0.00392405
0.00403871
0.00414241
0.00423001
0.00429269
0.00432141
0.00432503
0.00428436
0.00419858
0.00407076
0.00389242
0.00366115
0.00337891
0.00306247
0.00272282
0.00237529
0.00203391
0.00171049
0.00141349
0.00114781
0.000915343
0.000716049
0.000548226
0.000407541
0.000284347
0.000155184
2.21755e-05
1.67195e-05
0.000129324
0.000260475
0.000351591
0.000410319
0.00044911
0.000480104
0.000514852
0.000564414
0.000638894
0.000745557
0.000886249
0.00105624
0.00124604
0.00144469
0.00164182
0.00182796
0.00199414
0.00213117
0.00223495
0.00229421
0.00231671
0.00231808
0.00228713
0.00225665
0.00222937
0.00220723
0.00219262
0.00218583
0.00218391
0.00218606
0.00219339
0.00220536
0.00222155
0.00224188
0.00226635
0.00229481
0.00232698
0.00236287
0.00240274
0.00244663
0.00249501
0.00254865
0.00260835
0.00267504
0.00274859
0.00282885
0.00291627
0.003011
0.00311311
0.00322233
0.00333809
0.00345934
0.0035845
0.00371137
0.00383629
0.00395462
0.00406063
0.0041477
0.0041993
0.00421678
0.00419062
0.00410778
0.00396926
0.00378451
0.0035412
0.0032422
0.00290533
0.00254804
0.00218872
0.0018443
0.00152771
0.00124631
0.00100228
0.000794605
0.000620083
0.000472893
0.00034085
0.000194489
2.83646e-05
2.57174e-05
0.000189531
0.000355553
0.000465034
0.000535919
0.00058613
0.000631686
0.000687311
0.000766275
0.000878913
0.00102982
0.00121566
0.00142568
0.00164511
0.00185857
0.00205195
0.00221298
0.00233438
0.00239865
0.00241953
0.00240521
0.00235953
0.00231435
0.00227
0.00222936
0.00219394
0.00216512
0.00214251
0.00212446
0.00210984
0.00209821
0.00209065
0.00208685
0.00208545
0.00208563
0.00208952
0.00209558
0.0021046
0.00211656
0.00213194
0.00215103
0.0021745
0.0022022
0.00223471
0.00227252
0.00231613
0.00236636
0.00242415
0.00249046
0.00256637
0.00265279
0.00275051
0.00285999
0.00298095
0.00311225
0.00325246
0.00339836
0.00354548
0.00368737
0.00381489
0.0039181
0.00396902
0.00398099
0.00393013
0.003814
0.0036359
0.00337901
0.0030618
0.0027027
0.00232516
0.00195357
0.00160867
0.00130382
0.0010438
0.000826959
0.000647896
0.000498368
0.000363814
0.00021216
3.06876e-05
3.82033e-05
0.000266472
0.000469751
0.000598923
0.000683676
0.000747791
0.000811402
0.000892112
0.00100408
0.00115546
0.00134558
0.00156427
0.00179451
0.00201671
0.00221244
0.0023666
0.0024592
0.00249351
0.00248962
0.00243929
0.0023849
0.00232145
0.00226022
0.00219925
0.00214523
0.00209844
0.00205768
0.00202088
0.00198741
0.00195771
0.00193197
0.00190916
0.00188858
0.00187008
0.00185379
0.00184012
0.00182873
0.00182012
0.0018147
0.00181234
0.00181188
0.00181519
0.00182191
0.00183249
0.00184729
0.00186674
0.00189167
0.00192282
0.00196134
0.00200881
0.00206706
0.00213809
0.00222417
0.00232741
0.0024486
0.00258869
0.00274815
0.00292337
0.00310883
0.0032974
0.00348062
0.00364227
0.00375544
0.00380182
0.00379651
0.00370293
0.00352849
0.00325507
0.00290789
0.00251402
0.00210631
0.00171697
0.00137064
0.0010794
0.000843027
0.000653898
0.00049926
0.000362491
0.000211139
2.98224e-05
5.4909e-05
0.000361178
0.000603696
0.000753901
0.000854127
0.000934213
0.00101822
0.00112565
0.00126954
0.00145339
0.00166958
0.00190094
0.0021251
0.00231952
0.00246547
0.00253704
0.00255514
0.0025226
0.00246599
0.00238918
0.00230472
0.00221668
0.0021384
0.00206788
0.00200758
0.00195203
0.00190122
0.00185381
0.00180996
0.00176955
0.00173239
0.00169815
0.00166682
0.00163856
0.0016135
0.00159172
0.00157297
0.00155733
0.00154476
0.00153517
0.00152892
0.0015261
0.00152541
0.00152826
0.00153493
0.0015452
0.00155977
0.00157902
0.00160355
0.00163387
0.00167096
0.00171598
0.00177071
0.00183785
0.00192211
0.00202876
0.00216209
0.00232675
0.00252131
0.00273772
0.00297136
0.00320759
0.00343085
0.00361417
0.00370479
0.00372583
0.00366174
0.00348643
0.00318266
0.00279081
0.00234923
0.00190269
0.00149249
0.00114607
0.000871427
0.000659921
0.00049435
0.000353846
0.000204393
2.7732e-05
7.63418e-05
0.000473416
0.000756716
0.000929025
0.00104582
0.00114279
0.0012473
0.00137927
0.00154851
0.00175227
0.0019757
0.00219589
0.00238769
0.00252331
0.00258295
0.00259067
0.00254523
0.00247523
0.00237715
0.00226543
0.00216153
0.00206976
0.00198773
0.00191352
0.00184629
0.00178321
0.00172474
0.0016703
0.00162029
0.00157467
0.00153352
0.00149683
0.00146467
0.00143695
0.00141347
0.00139401
0.00137838
0.00136632
0.0013575
0.00135228
0.00135003
0.00134957
0.00135216
0.00135768
0.001366
0.00137707
0.00139113
0.00140827
0.00142875
0.00145288
0.00148113
0.00151409
0.00155251
0.00159746
0.00165053
0.00171418
0.00179234
0.00189227
0.00202784
0.00221371
0.00244711
0.00271231
0.00299817
0.00327996
0.00352941
0.00366926
0.00371238
0.00367343
0.00349037
0.00314361
0.00269478
0.00219655
0.00170798
0.00127935
0.000937381
0.000682219
0.000493842
0.000340396
0.000190636
2.53414e-05
0.000102692
0.000601404
0.000926768
0.00112196
0.00125548
0.00136843
0.00149055
0.00164069
0.00182394
0.0020308
0.00224033
0.00242635
0.00255517
0.00260806
0.00261088
0.002563
0.00247539
0.00235304
0.00222459
0.00210806
0.00200317
0.00190977
0.00182482
0.00174684
0.00167492
0.00160824
0.00154744
0.00149251
0.00144386
0.00140141
0.00136514
0.00133479
0.00131
0.00129031
0.00127521
0.00126414
0.00125663
0.00125291
0.00125155
0.00125156
0.00125484
0.00125959
0.00126664
0.00127551
0.00128632
0.00129903
0.00131381
0.00133077
0.00135016
0.00137213
0.0013969
0.00142475
0.00145604
0.00149118
0.00153062
0.00157524
0.00162665
0.00168771
0.00176407
0.00186498
0.00200767
0.00222479
0.00251067
0.00283345
0.00317421
0.00348755
0.00367751
0.00374108
0.00371632
0.00351402
0.00311218
0.00259685
0.00203847
0.00151162
0.00107267
0.000742317
0.00050834
0.000334369
0.000177751
2.33285e-05
0.000134452
0.000741286
0.0011107
0.00132904
0.0014781
0.00160394
0.00173777
0.00189619
0.00207901
0.00227071
0.00244642
0.00257
0.00261961
0.00262035
0.00257205
0.00246982
0.00233032
0.00219036
0.00205961
0.00194357
0.00183919
0.00174498
0.00165873
0.00157989
0.00150833
0.00144423
0.00138815
0.00134004
0.00129986
0.0012671
0.0012412
0.00122136
0.0012068
0.00119666
0.00119056
0.00118775
0.00118694
0.0011881
0.00119151
0.00119631
0.00120295
0.00121087
0.00122039
0.00123133
0.00124385
0.00125799
0.0012739
0.00129166
0.00131142
0.00133325
0.0013573
0.00138366
0.00141251
0.00144404
0.00147862
0.00151622
0.00155715
0.00160204
0.00165277
0.00171317
0.00179196
0.00190448
0.00207597
0.00235373
0.00270981
0.00310017
0.00347655
0.00371401
0.0037942
0.00376995
0.00353174
0.00306223
0.00247387
0.00185855
0.00130482
0.000868286
0.000556606
0.000343125
0.000173444
2.25154e-05
0.000173037
0.00088862
0.00130476
0.00154544
0.00170736
0.00184096
0.00197816
0.00213279
0.00229975
0.00245925
0.00257666
0.00262471
0.00262525
0.00257756
0.0024669
0.00231638
0.00216384
0.00202132
0.00189314
0.00177929
0.00167654
0.00158374
0.00149994
0.00142539
0.00136035
0.00130503
0.00125934
0.00122267
0.00119421
0.00117286
0.00115752
0.00114708
0.00114086
0.00113796
0.00113707
0.00113764
0.0011403
0.0011442
0.00114947
0.00115586
0.00116355
0.00117244
0.00118273
0.00119447
0.00120783
0.00122292
0.00123991
0.00125892
0.00128009
0.00130349
0.00132919
0.00135717
0.00138736
0.00141962
0.00145377
0.00148972
0.00152756
0.00156778
0.00160994
0.00165483
0.0017055
0.00176934
0.00186042
0.00200484
0.00224622
0.00262212
0.00305253
0.00349199
0.00376665
0.00385613
0.00381514
0.00351858
0.00296775
0.0023047
0.00164496
0.00108243
0.00066251
0.000378041
0.00018003
2.32185e-05
0.000215843
0.0010435
0.00150477
0.00176563
0.00193633
0.00207098
0.00220177
0.00233992
0.00247666
0.00258412
0.0026302
0.0026313
0.00258431
0.00247124
0.00231384
0.00214929
0.00199451
0.00185509
0.00173126
0.00162107
0.00152237
0.00143485
0.00135838
0.00129332
0.00123955
0.00119654
0.00116331
0.0011385
0.00112069
0.00110846
0.00110055
0.00109626
0.00109438
0.00109388
0.00109449
0.00109657
0.00109971
0.0011038
0.00110892
0.0011151
0.00112251
0.00113123
0.00114145
0.00115331
0.00116698
0.00118262
0.00120042
0.00122052
0.0012431
0.00126826
0.00129611
0.00132666
0.00135983
0.00139541
0.00143303
0.00147218
0.00151223
0.0015527
0.00159352
0.00163535
0.00167732
0.00172201
0.00177554
0.00185127
0.00197405
0.00218848
0.00256473
0.00303549
0.00353045
0.00382553
0.00391187
0.00383333
0.00344796
0.00280305
0.00207506
0.00139098
0.000843325
0.000458971
0.000204687
2.64042e-05
0.000261646
0.00120219
0.00170571
0.00198365
0.00215818
0.00228636
0.00240067
0.00251051
0.00260183
0.00264298
0.00264398
0.00259643
0.00248517
0.00232419
0.00214951
0.00198183
0.0018306
0.00169678
0.00157876
0.00147466
0.00138352
0.00130547
0.00124038
0.00118793
0.0011471
0.00111643
0.0010942
0.00107861
0.00106807
0.0010612
0.00105695
0.00105468
0.00105363
0.00105332
0.00105366
0.00105511
0.00105731
0.00106045
0.00106465
0.00107002
0.00107675
0.00108497
0.00109487
0.0011066
0.00112032
0.00113622
0.00115446
0.00117524
0.00119874
0.00122514
0.00125461
0.00128727
0.00132315
0.00136215
0.001404
0.00144816
0.00149378
0.00153978
0.00158496
0.0016285
0.00167065
0.00171139
0.00175188
0.00179819
0.0018634
0.00197326
0.00217581
0.0025428
0.00305091
0.00359147
0.00387979
0.00394742
0.00380565
0.00328897
0.00255353
0.00177582
0.0010987
0.000596662
0.000259386
3.42736e-05
0.000308952
0.00136048
0.00190239
0.00219374
0.00236668
0.00248095
0.00256953
0.00263946
0.00267128
0.00266895
0.00261824
0.00251086
0.00234905
0.0021663
0.00198581
0.00182141
0.00167666
0.00155014
0.00143998
0.00134498
0.00126476
0.0011991
0.00114717
0.00110758
0.00107841
0.00105757
0.001043
0.00103296
0.00102601
0.00102112
0.00101757
0.00101492
0.00101285
0.00101151
0.00101096
0.00101092
0.00101186
0.00101388
0.00101713
0.00102174
0.00102785
0.00103564
0.00104524
0.00105679
0.00107046
0.00108639
0.00110477
0.00112578
0.00114964
0.00117656
0.00120679
0.00124054
0.00127801
0.00131929
0.00136435
0.00141288
0.00146422
0.00151725
0.00157036
0.00162156
0.00166901
0.001712
0.0017502
0.00178766
0.00183039
0.00188857
0.00199191
0.00218869
0.00255967
0.00310604
0.00366374
0.00392298
0.00395301
0.00369878
0.00303167
0.00220456
0.00141243
0.000783665
0.000343806
4.71869e-05
0.000356426
0.00151431
0.0020901
0.00239089
0.00255669
0.00265045
0.00270323
0.00272358
0.00271224
0.00265469
0.00255095
0.00239009
0.00220134
0.00200858
0.00182967
0.00167206
0.00153564
0.00141821
0.00131826
0.00123495
0.00116762
0.00111516
0.0010757
0.00104696
0.00102649
0.00101202
0.00100165
0.00099393
0.000987845
0.00098275
0.000978289
0.00097432
0.000970846
0.000968007
0.000966012
0.000965098
0.000964915
0.000965956
0.000968541
0.000972606
0.00097832
0.000985808
0.000995195
0.0010066
0.00102015
0.00103599
0.00105429
0.00107523
0.00109901
0.00112588
0.00115611
0.00119001
0.00122787
0.00126999
0.00131657
0.00136767
0.00142303
0.00148196
0.0015431
0.00160435
0.00166286
0.00171552
0.0017622
0.00179806
0.00182769
0.001867
0.00192307
0.00202432
0.00222353
0.00261204
0.00320125
0.00374269
0.00395913
0.00390552
0.00345977
0.00264544
0.00176405
0.00100852
0.000450238
6.39694e-05
0.000403015
0.00165941
0.00226516
0.00257183
0.0027235
0.00278648
0.00280093
0.00277733
0.00271094
0.00260888
0.00244926
0.00225628
0.0020522
0.00185775
0.00168485
0.00153611
0.00140956
0.00130303
0.00121517
0.00114485
0.00109057
0.00105011
0.00102079
0.000999849
0.000984787
0.000973574
0.000964709
0.000957192
0.000950431
0.00094414
0.000938243
0.000932801
0.000927953
0.000923881
0.000920754
0.000919015
0.000918377
0.0009186
0.000920789
0.000924525
0.00093
0.00093729
0.00094652
0.000957782
0.000971195
0.000986883
0.00100499
0.00102568
0.00104916
0.00107565
0.00110545
0.00113887
0.00117628
0.00121809
0.0012647
0.00131645
0.00137351
0.00143574
0.00150243
0.00157207
0.00164208
0.00170868
0.00176733
0.00181784
0.00185254
0.00187282
0.00190763
0.00196461
0.00206821
0.00227929
0.00270219
0.00333323
0.00381235
0.00395567
0.00376403
0.00307058
0.00213921
0.00126178
0.000572311
8.35655e-05
0.000447821
0.00179453
0.0024239
0.00272906
0.00286044
0.00289472
0.00287206
0.00279962
0.00268757
0.00252916
0.00233291
0.00211872
0.00190822
0.00171754
0.00155327
0.00141485
0.00129955
0.00120525
0.0011303
0.00107275
0.00103008
0.000999223
0.000977096
0.000960943
0.00094856
0.000938375
0.000929369
0.000920974
0.000912945
0.000905251
0.000897986
0.000891306
0.000885395
0.000880432
0.000876573
0.000874213
0.000873233
0.000873137
0.000874976
0.000878509
0.000883802
0.000890927
0.000900003
0.000911107
0.000924346
0.000939832
0.000957693
0.000978081
0.00100118
0.00102719
0.00105639
0.00108909
0.00112566
0.00116656
0.00121227
0.00126334
0.00132024
0.00138331
0.00145253
0.00152723
0.00160574
0.00168499
0.0017602
0.0018251
0.00187953
0.00190861
0.00192314
0.00195253
0.00201197
0.00212325
0.00235875
0.00283965
0.00351039
0.00385201
0.00388667
0.00345277
0.00252797
0.00153919
0.000705931
0.000105027
0.000489085
0.00191598
0.00256139
0.00286013
0.00296916
0.00297918
0.00291343
0.00279295
0.00263451
0.00243351
0.00221023
0.0019838
0.00177327
0.00158983
0.00143582
0.00130877
0.00120565
0.00112407
0.00106162
0.0010154
0.000982015
0.000958024
0.000940355
0.000926589
0.000915015
0.000904556
0.000894633
0.000885015
0.000875692
0.000866777
0.000858437
0.000850857
0.000844212
0.000838658
0.000834329
0.00083153
0.000830282
0.000830031
0.000831526
0.000834866
0.000839956
0.000846885
0.000855759
0.000866656
0.000879675
0.00089492
0.00091251
0.000932583
0.000955299
0.000980849
0.00100947
0.00104144
0.00107712
0.00111693
0.0011614
0.00121113
0.00126678
0.001329
0.0013983
0.0014748
0.00155788
0.00164569
0.00173464
0.00181886
0.00189029
0.00194394
0.00196574
0.00197563
0.00200104
0.00206493
0.00219116
0.00247367
0.00303773
0.00365773
0.00389083
0.00370768
0.00291004
0.00183729
0.00084868
0.000127692
0.00052535
0.00202084
0.00267545
0.00296487
0.00305486
0.00303723
0.00292928
0.0027679
0.00256182
0.00232905
0.00208725
0.00185558
0.00164941
0.00147533
0.00133258
0.00121758
0.00112691
0.00105758
0.00100627
0.000969231
0.000942628
0.000923018
0.000907677
0.000894687
0.00088285
0.000871534
0.00086049
0.000849711
0.000839314
0.000829472
0.000820366
0.000812166
0.000805021
0.000799059
0.000794384
0.000791207
0.000789714
0.000789316
0.000790436
0.000793522
0.000798344
0.000805007
0.000813606
0.000824229
0.000836969
0.000851929
0.000869223
0.000888978
0.000911339
0.000936477
0.000964597
0.00099595
0.00103085
0.00106968
0.00111293
0.0011612
0.0012152
0.00127574
0.00134365
0.00141961
0.00150391
0.00159591
0.00169348
0.00179226
0.00188489
0.00196092
0.00200914
0.0020236
0.00202888
0.00205282
0.00212355
0.00227692
0.00263628
0.00328567
0.00373355
0.00380249
0.00326488
0.00215072
0.00099603
0.000151355
0.000555823
0.00210798
0.00276582
0.00304425
0.00311833
0.00307027
0.00292291
0.00271944
0.00247834
0.00222133
0.00196812
0.00173639
0.00153748
0.00137403
0.00124308
0.00114025
0.0010616
0.00100332
0.000961234
0.000931097
0.000909015
0.000891859
0.000877407
0.000864265
0.000851689
0.00083938
0.000827308
0.000815587
0.000804385
0.00079388
0.000784235
0.000775592
0.000768071
0.000761773
0.000756789
0.000753208
0.00075143
0.000750855
0.000751534
0.000754276
0.000758751
0.000765066
0.000773314
0.00078359
0.000795989
0.000810614
0.000827578
0.000847003
0.000869024
0.000893796
0.000921502
0.000952359
0.000986638
0.00102468
0.00106691
0.00111388
0.00116628
0.00122495
0.00129086
0.00136504
0.00144839
0.00154131
0.00164313
0.00175132
0.00186055
0.00196179
0.00203862
0.00207379
0.00208109
0.00208202
0.00210711
0.00219057
0.00239193
0.00287636
0.00353122
0.00379092
0.00353334
0.00246888
0.0011451
0.000175906
0.00058007
0.00217741
0.00283353
0.00310004
0.00315928
0.0030812
0.00290178
0.00265914
0.00238904
0.00211443
0.00185547
0.0016274
0.00143757
0.00128539
0.00116632
0.00107528
0.00100763
0.000958726
0.000923835
0.000898539
0.0008792
0.000863169
0.000848756
0.000835034
0.000821605
0.000808394
0.000795494
0.000783065
0.000771279
0.000760293
0.000750241
0.000741236
0.000733372
0.000726733
0.000721395
0.000717433
0.000715252
0.000714452
0.000714649
0.000716947
0.000721004
0.000726897
0.000734724
0.000744589
0.000756587
0.000770826
0.00078742
0.000806489
0.000828164
0.000852591
0.000879936
0.000910392
0.000944194
0.000981634
0.00102308
0.00106902
0.00112008
0.00117704
0.0012409
0.00131282
0.00139407
0.00148575
0.00158831
0.00170087
0.00182012
0.00193925
0.00204731
0.00211753
0.00213754
0.00213793
0.00213158
0.00216523
0.00227236
0.00256197
0.00318197
0.00362351
0.00365294
0.00278843
0.00130732
0.000202625
0.000598028
0.00222983
0.00288
0.00313412
0.00317973
0.00307483
0.00286278
0.00259057
0.00229773
0.0020112
0.00175085
0.00152897
0.00134924
0.00120851
0.001101
0.00102091
0.000962854
0.000921544
0.000891965
0.000869847
0.000851982
0.000836255
0.000821458
0.000807033
0.000792822
0.000778878
0.000765348
0.000752396
0.000740172
0.000728805
0.000718403
0.000709056
0.000700843
0.000693838
0.000688112
0.000683738
0.00068101
0.00067985
0.000679707
0.000681436
0.000685017
0.000690437
0.00069779
0.000707189
0.000718736
0.00073254
0.000748719
0.000767395
0.000788699
0.000812773
0.000839773
0.000869878
0.000903295
0.000940279
0.000981149
0.00102632
0.00107633
0.00113189
0.00119394
0.00126366
0.00134245
0.00143185
0.00153316
0.00164687
0.00177154
0.00190238
0.00202967
0.00213771
0.00219295
0.00220215
0.00218668
0.00217547
0.00222726
0.00238797
0.00284193
0.00346928
0.00367546
0.00310346
0.00150771
0.000236624
0.000609985
0.00226627
0.00290626
0.00314677
0.00317929
0.00305512
0.00281413
0.00251736
0.0022073
0.00191353
0.00165501
0.00144095
0.00127177
0.00114229
0.00104565
0.000975363
0.000925359
0.000889943
0.000864106
0.000843928
0.000826711
0.00081084
0.000795505
0.000780412
0.000765552
0.000751042
0.000737036
0.000723679
0.000711097
0.000699393
0.000688652
0.000678952
0.000670364
0.000662962
0.000656816
0.000652003
0.000648671
0.000647069
0.000646638
0.000647733
0.000650799
0.000655712
0.000662557
0.000671454
0.000682508
0.000695834
0.000711552
0.000729791
0.000750683
0.000774371
0.00080101
0.000830769
0.00086384
0.000900451
0.00094088
0.00098548
0.00103472
0.00108921
0.0011498
0.00121758
0.00129397
0.00138069
0.00147957
0.00159216
0.00171885
0.00185753
0.00200175
0.002139
0.00223313
0.00226423
0.00226127
0.00222909
0.00222005
0.00230421
0.00257247
0.0031992
0.0035699
0.00335766
0.00176252
0.000282584
0.00061599
0.00228705
0.00291344
0.00314353
0.00316801
0.00302056
0.00275829
0.0024423
0.00211984
0.00182256
0.00156816
0.00136285
0.00120426
0.0010855
0.000998812
0.000937016
0.000893547
0.000862549
0.000839236
0.000820144
0.000803081
0.000786861
0.000770978
0.000755314
0.00073994
0.000724992
0.000710611
0.000696917
0.000684011
0.000671976
0.000660887
0.000650814
0.000641828
0.000634001
0.00062741
0.000622131
0.000618248
0.000616144
0.000615416
0.000615897
0.000618423
0.000622815
0.000629134
0.000637506
0.000648037
0.000660848
0.000676064
0.000693817
0.000714246
0.0007375
0.000763735
0.000793119
0.000825839
0.000862104
0.000902165
0.00094633
0.000995
0.00104871
0.00110818
0.0011744
0.0012487
0.0013328
0.00142878
0.0015388
0.00166447
0.00180559
0.00195822
0.00211226
0.00224938
0.00232184
0.00233366
0.00230052
0.00226273
0.00227759
0.00242756
0.00291175
0.00342654
0.00347965
0.0020678
0.0003405
0.00061565
0.00229496
0.00290856
0.00312904
0.00314192
0.00297704
0.00269794
0.00236756
0.00203682
0.00173891
0.00149015
0.00129401
0.0011457
0.00103692
0.0009591
0.000904476
0.000866174
0.000838393
0.00081671
0.000798146
0.000780969
0.00076434
0.000747964
0.000731833
0.000716052
0.000700753
0.000686054
0.000672054
0.000658833
0.000646465
0.000635017
0.00062456
0.000615167
0.000606913
0.000599875
0.000594132
0.000589761
0.000587096
0.000586038
0.000586027
0.000587998
0.000591867
0.000597661
0.000605496
0.000615487
0.000627754
0.000642428
0.000659649
0.000679561
0.000702321
0.000728092
0.000757048
0.000789374
0.000825276
0.000864987
0.000908783
0.000957015
0.00101014
0.00106878
0.0011338
0.00120641
0.00128823
0.0013814
0.00148845
0.00161193
0.00175348
0.001912
0.00208115
0.00224661
0.00236337
0.00240153
0.00239091
0.00231678
0.00228303
0.00235297
0.00266704
0.00328836
0.00351099
0.00241282
0.000407967
0.000612424
0.00229296
0.00289249
0.00309922
0.00310325
0.00292647
0.00263518
0.00229478
0.00195919
0.0016628
0.00142063
0.00123366
0.00109509
0.0009954
0.00092531
0.000876613
0.00084231
0.000816816
0.000796135
0.000777758
0.000760343
0.000743311
0.000726516
0.000710006
0.000693894
0.000678297
0.000663311
0.000649017
0.000635484
0.00062278
0.000610974
0.000600138
0.000590348
0.000581684
0.000574228
0.00056806
0.000563265
0.000560042
0.000558557
0.000558246
0.000559641
0.000562997
0.000568274
0.000575575
0.000585015
0.000596718
0.000610819
0.000627463
0.000646805
0.000669009
0.000694248
0.000722706
0.000754575
0.000790063
0.000829396
0.000872835
0.000920692
0.000973366
0.00103139
0.00109552
0.0011668
0.00124672
0.00133732
0.00144123
0.00156148
0.00170087
0.00186037
0.00203651
0.00221774
0.00238068
0.0024618
0.00247332
0.00241406
0.00233367
0.00232763
0.00249954
0.00306399
0.00343331
0.00275954
0.000478374
0.000605251
0.00228418
0.00286241
0.00305908
0.0030558
0.00287089
0.00257168
0.00222513
0.00188751
0.00159421
0.00135908
0.00118101
0.00105146
0.000959899
0.000896428
0.000852545
0.000821286
0.000797382
0.000777278
0.000758892
0.000741193
0.000723797
0.00070665
0.000689826
0.000673433
0.000657569
0.000642312
0.000627732
0.000613893
0.000600863
0.000588711
0.000577516
0.000567358
0.000558319
0.000550483
0.000543934
0.000538757
0.000535042
0.00053315
0.000532579
0.00053345
0.000536315
0.000541094
0.000547869
0.000556757
0.000567884
0.000581387
0.000597418
0.000616139
0.000637726
0.000662363
0.000690247
0.000721581
0.000756582
0.000795482
0.000838532
0.000886026
0.000938319
0.000995877
0.00105934
0.00112963
0.00120805
0.0012965
0.00139757
0.00151454
0.00165107
0.00181005
0.00199129
0.0021879
0.00238176
0.00251151
0.0025474
0.00251651
0.00239186
0.00233425
0.00241674
0.00285012
0.00329552
0.00303624
0.000535767
0.000594046
0.00226566
0.00282347
0.00301134
0.0030016
0.00281204
0.00250875
0.00215942
0.00182207
0.00153292
0.00130493
0.00113526
0.00101394
0.000929512
0.000871621
0.000831597
0.000802625
0.000779801
0.000759999
0.000741495
0.00072351
0.000705794
0.000688349
0.000671258
0.000654616
0.000638504
0.00062299
0.000608136
0.000594005
0.000580667
0.000568198
0.000556679
0.000546194
0.000536826
0.000528661
0.000521778
0.000516257
0.000512174
0.000509883
0.000509074
0.000509493
0.000511899
0.000516202
0.000522469
0.000530811
0.000541356
0.000554244
0.000569632
0.000587691
0.000608606
0.000632574
0.000659807
0.000690525
0.000724957
0.000763347
0.000805951
0.000853052
0.000904981
0.000962151
0.00102511
0.00109466
0.00117193
0.00125863
0.00135718
0.00147088
0.00160377
0.00175989
0.00194134
0.00214473
0.0023567
0.00253717
0.00261327
0.00261357
0.00250037
0.00238095
0.00237763
0.00267548
0.00316747
0.0031682
0.000562439
0.000579439
0.00224032
0.0027776
0.00295745
0.0029426
0.00275137
0.00244738
0.00209819
0.00176294
0.00147861
0.0012576
0.00109569
0.000981712
0.000903471
0.000850225
0.00081326
0.000785986
0.00076388
0.000744202
0.00072553
0.000707273
0.000689278
0.000671576
0.00065425
0.000637382
0.00062104
0.000605284
0.000590174
0.000575775
0.000562162
0.000549415
0.000537617
0.000526857
0.000517217
0.00050878
0.000501624
0.00049582
0.000491437
0.000488778
0.000487745
0.000487805
0.00048979
0.000493644
0.000499421
0.00050723
0.000517195
0.000529459
0.000544183
0.000561546
0.000581742
0.000604984
0.000631496
0.000661517
0.000695296
0.000733091
0.000775172
0.000821826
0.00087337
0.000930182
0.000992747
0.00106174
0.00113817
0.0012235
0.00131998
0.00143078
0.00156015
0.00171301
0.00189344
0.00210135
0.00232707
0.00254507
0.00267377
0.00269882
0.00261611
0.0024327
0.00236746
0.00251875
0.00306114
0.00320547
0.000567162
0.000562258
0.0022103
0.00272652
0.00289891
0.00288043
0.00269008
0.00238832
0.00204174
0.00171004
0.00143091
0.0012165
0.00106162
0.000954099
0.000881136
0.000831714
0.000797151
0.000771126
0.000749482
0.000729817
0.000710955
0.000692449
0.000674207
0.00065628
0.000638744
0.000621669
0.000605115
0.000589139
0.0005738
0.000559167
0.00054532
0.000532341
0.000520319
0.00050934
0.000499489
0.000490843
0.000483477
0.000477457
0.000472846
0.00046985
0.000468547
0.000468394
0.000469983
0.000473417
0.000478729
0.00048602
0.000495413
0.000507052
0.000521101
0.000537744
0.000557187
0.000579653
0.000605384
0.000634636
0.00066768
0.000704796
0.000746271
0.000792405
0.000843517
0.000899965
0.000962186
0.00103077
0.00110656
0.00119087
0.00128567
0.00139393
0.00151985
0.00166881
0.00184635
0.00205551
0.00229165
0.00253571
0.00271869
0.00277612
0.00273229
0.00253427
0.00239484
0.00244262
0.00289346
0.00317762
0.000555917
0.000543175
0.0021774
0.00267186
0.00283717
0.00281641
0.00262912
0.00233208
0.0019902
0.00166319
0.00138941
0.0011811
0.00103244
0.000930501
0.000861981
0.00081567
0.000782978
0.000757862
0.000736501
0.000716783
0.000697727
0.000678993
0.000660534
0.000642406
0.000624681
0.00060742
0.000590677
0.000574507
0.000558973
0.000544148
0.000530112
0.000516955
0.000504763
0.000493625
0.000483621
0.000474826
0.000467308
0.000461129
0.000456345
0.00045307
0.000451521
0.000451196
0.000452435
0.00045548
0.000460353
0.000467147
0.000475982
0.000487001
0.000500371
0.000516282
0.000534947
0.000556602
0.000581503
0.000609927
0.000642164
0.000678519
0.000719305
0.000764841
0.000815458
0.00087151
0.000933403
0.00100166
0.001077
0.00116055
0.00125406
0.00136022
0.00148307
0.00162814
0.00180195
0.00200975
0.00225061
0.00250994
0.00274213
0.00284396
0.00283589
0.00265409
0.00243865
0.00241139
0.00274426
0.00310442
0.000536491
0.000522841
0.00214235
0.00261485
0.00277348
0.00275164
0.00256923
0.002279
0.00194357
0.00162213
0.0013537
0.0011509
0.00100762
0.000910415
0.000845576
0.000801765
0.000770515
0.000746052
0.000724852
0.000705042
0.000685797
0.000666857
0.000648204
0.000629899
0.000612006
0.000594581
0.000577676
0.000561345
0.000545655
0.000530681
0.000516507
0.000503224
0.000490918
0.000479676
0.000469575
0.000460684
0.000453066
0.000446774
0.000441861
0.000438379
0.000436609
0.00043613
0.000437067
0.000439757
0.000444218
0.000450537