/*--------------------------------*- C++ -*----------------------------------*\
  =========                 |
  \\      /  F ield         | OpenFOAM: The Open Source CFD Toolbox
   \\    /   O peration     | Website:  https://openfoam.org
    \\  /    A nd           | Version:  13
     \\/     M anipulation  |
\*---------------------------------------------------------------------------*/
FoamFile
{
    format      ascii;
    class       volScalarField;
    location    "9.2";
    object      nut;
}
// * * * * * * * * * * * * * * * * * * * * * * * * * * * * * * * * * * * * * //

dimensions      [0 2 -1 0 0 0 0];

internalField   nonuniform List<scalar> 
6400
(
9.98216e-10
5.12801e-09
1.24751e-08
2.00891e-08
2.58098e-08
2.90047e-08
3.01491e-08
3.02442e-08
3.04194e-08
3.15264e-08
3.42313e-08
3.95379e-08
4.79108e-08
5.95206e-08
7.37388e-08
8.97644e-08
1.06763e-07
1.24399e-07
1.41826e-07
1.58644e-07
1.7558e-07
1.94113e-07
2.16215e-07
2.42995e-07
2.73235e-07
3.03628e-07
3.33872e-07
3.6392e-07
3.94719e-07
4.27082e-07
4.60532e-07
4.93992e-07
5.26909e-07
5.59435e-07
5.9234e-07
6.25843e-07
6.60596e-07
6.96815e-07
7.34922e-07
7.75019e-07
8.17396e-07
8.62377e-07
9.10213e-07
9.61443e-07
1.01657e-06
1.07757e-06
1.1482e-06
1.23648e-06
1.32264e-06
1.41124e-06
1.49735e-06
1.58095e-06
1.65905e-06
1.72964e-06
1.79002e-06
1.83666e-06
1.85973e-06
1.86874e-06
1.86231e-06
1.82465e-06
1.75955e-06
1.66757e-06
1.54958e-06
1.41073e-06
1.25336e-06
1.08585e-06
9.16126e-07
7.50536e-07
5.95119e-07
4.57662e-07
3.45338e-07
2.51133e-07
1.75092e-07
1.17104e-07
7.53682e-08
4.69004e-08
2.8312e-08
1.63131e-08
7.73587e-09
1.65135e-09
4.82246e-09
3.38604e-07
1.21771e-06
2.05062e-06
2.66479e-06
3.0255e-06
3.19097e-06
3.2495e-06
3.28653e-06
3.36466e-06
3.56087e-06
3.94456e-06
4.48338e-06
5.10785e-06
5.75339e-06
6.35655e-06
6.87153e-06
7.24996e-06
7.47924e-06
7.57686e-06
7.62804e-06
7.69736e-06
7.85379e-06
8.12232e-06
8.43807e-06
8.64269e-06
8.84718e-06
9.08322e-06
9.39751e-06
9.82818e-06
1.03767e-05
1.09811e-05
1.16338e-05
1.23079e-05
1.30201e-05
1.37564e-05
1.45252e-05
1.53212e-05
1.6151e-05
1.70089e-05
1.78891e-05
1.87975e-05
1.97347e-05
2.07194e-05
2.17173e-05
2.26931e-05
2.36216e-05
2.44435e-05
2.53212e-05
2.61955e-05
2.70833e-05
2.79586e-05
2.88098e-05
2.96147e-05
3.03514e-05
3.10762e-05
3.15023e-05
3.17967e-05
3.19679e-05
3.19188e-05
3.15299e-05
3.08433e-05
2.98218e-05
2.84678e-05
2.67779e-05
2.48126e-05
2.26612e-05
2.03453e-05
1.78998e-05
1.52262e-05
1.23332e-05
9.55655e-06
7.1121e-06
5.10624e-06
3.54786e-06
2.41867e-06
1.62252e-06
1.05358e-06
4.78516e-07
8.7259e-09
1.05432e-08
8.72518e-07
3.51764e-06
6.10078e-06
8.07623e-06
9.3589e-06
1.00807e-05
1.04462e-05
1.06662e-05
1.09223e-05
1.13482e-05
1.20222e-05
1.29158e-05
1.39261e-05
1.49219e-05
1.57937e-05
1.6491e-05
1.69893e-05
1.72893e-05
1.7408e-05
1.73689e-05
1.7273e-05
1.71979e-05
1.71823e-05
1.72625e-05
1.75299e-05
1.78516e-05
1.81837e-05
1.854e-05
1.89227e-05
1.9426e-05
2.01363e-05
2.11346e-05
2.21556e-05
2.33082e-05
2.45166e-05
2.58035e-05
2.71065e-05
2.84674e-05
2.99186e-05
3.13181e-05
3.27659e-05
3.41695e-05
3.55045e-05
3.67778e-05
3.80285e-05
3.92447e-05
4.04672e-05
4.17008e-05
4.29296e-05
4.41501e-05
4.53477e-05
4.6507e-05
4.7607e-05
4.86204e-05
4.95113e-05
5.03027e-05
5.07999e-05
5.10234e-05
5.11644e-05
5.09674e-05
5.04516e-05
4.95596e-05
4.81977e-05
4.62738e-05
4.38237e-05
4.10337e-05
3.78863e-05
3.43978e-05
3.05996e-05
2.65525e-05
2.23982e-05
1.8333e-05
1.45589e-05
1.12363e-05
8.43025e-06
6.20491e-06
4.28669e-06
1.7925e-06
2.33543e-08
1.83125e-08
1.42751e-06
5.49942e-06
9.38042e-06
1.23793e-05
1.44381e-05
1.57151e-05
1.64377e-05
1.68696e-05
1.72384e-05
1.77436e-05
1.85065e-05
1.9502e-05
2.05872e-05
2.15993e-05
2.24227e-05
2.29988e-05
2.33258e-05
2.34357e-05
2.3389e-05
2.32545e-05
2.31439e-05
2.31236e-05
2.32313e-05
2.32884e-05
2.33023e-05
2.32959e-05
2.37111e-05
2.44634e-05
2.54667e-05
2.67575e-05
2.79852e-05
2.92022e-05
3.04995e-05
3.18272e-05
3.31268e-05
3.44363e-05
3.58139e-05
3.71045e-05
3.83938e-05
3.96262e-05
4.08433e-05
4.20085e-05
4.31357e-05
4.42142e-05
4.52706e-05
4.63261e-05
4.7382e-05
4.84347e-05
4.94776e-05
5.05046e-05
5.15047e-05
5.24651e-05
5.33689e-05
5.41963e-05
5.49236e-05
5.55259e-05
5.59724e-05
5.61969e-05
5.62417e-05
5.60621e-05
5.55106e-05
5.47421e-05
5.392e-05
5.25827e-05
5.06224e-05
4.82163e-05
4.53307e-05
4.20346e-05
3.83739e-05
3.43931e-05
3.01591e-05
2.57832e-05
2.14289e-05
1.72989e-05
1.35543e-05
1.03025e-05
7.24111e-06
3.01415e-06
3.89783e-08
2.93901e-08
2.14227e-06
7.6284e-06
1.26134e-05
1.63299e-05
1.88307e-05
2.036e-05
2.12085e-05
2.16944e-05
2.21406e-05
2.28005e-05
2.37568e-05
2.49033e-05
2.60404e-05
2.69909e-05
2.76564e-05
2.80185e-05
2.81196e-05
2.80181e-05
2.7837e-05
2.75802e-05
2.74029e-05
2.72438e-05
2.66203e-05
2.65772e-05
2.71233e-05
2.80803e-05
2.92274e-05
3.03934e-05
3.1702e-05
3.29841e-05
3.42237e-05
3.54429e-05
3.66296e-05
3.77241e-05
3.87505e-05
3.9783e-05
4.07351e-05
4.15622e-05
4.23404e-05
4.30357e-05
4.36834e-05
4.42962e-05
4.49049e-05
4.55322e-05
4.61696e-05
4.68046e-05
4.74469e-05
4.80977e-05
4.87605e-05
4.94366e-05
5.01262e-05
5.08271e-05
5.15346e-05
5.22418e-05
5.2936e-05
5.35969e-05
5.41949e-05
5.46984e-05
5.50455e-05
5.51721e-05
5.50298e-05
5.44456e-05
5.33389e-05
5.2532e-05
5.13202e-05
4.94804e-05
4.71495e-05
4.43885e-05
4.12471e-05
3.7761e-05
3.39554e-05
2.98674e-05
2.55887e-05
2.13283e-05
1.72517e-05
1.34257e-05
9.46216e-06
3.87129e-06
4.98572e-08
4.52071e-08
3.1036e-06
1.01425e-05
1.61481e-05
2.03697e-05
2.30521e-05
2.45893e-05
2.5397e-05
2.59013e-05
2.64793e-05
2.73398e-05
2.84601e-05
2.96534e-05
3.07005e-05
3.14475e-05
3.18351e-05
3.18831e-05
3.17203e-05
3.12953e-05
3.09773e-05
3.04259e-05
2.95609e-05
2.94297e-05
3.01434e-05
3.11171e-05
3.21353e-05
3.33036e-05
3.44697e-05
3.55885e-05
3.66617e-05
3.75972e-05
3.84652e-05
3.92673e-05
3.99605e-05
4.05147e-05
4.10094e-05
4.14055e-05
4.17983e-05
4.2096e-05
4.23577e-05
4.25917e-05
4.28169e-05
4.30243e-05
4.32221e-05
4.34142e-05
4.36e-05
4.37863e-05
4.39806e-05
4.41919e-05
4.44308e-05
4.47084e-05
4.5037e-05
4.54288e-05
4.58916e-05
4.64233e-05
4.70301e-05
4.77111e-05
4.84417e-05
4.91862e-05
4.98931e-05
5.05688e-05
5.09448e-05
5.10638e-05
5.0816e-05
4.99828e-05
4.94732e-05
4.82392e-05
4.64574e-05
4.41902e-05
4.15232e-05
3.85282e-05
3.52361e-05
3.16276e-05
2.7678e-05
2.35422e-05
1.9351e-05
1.52503e-05
1.07869e-05
4.28815e-06
5.39405e-08
6.71553e-08
4.35485e-06
1.30715e-05
1.99822e-05
2.45135e-05
2.71848e-05
2.85877e-05
2.92955e-05
2.98273e-05
3.0542e-05
3.15416e-05
3.26975e-05
3.37802e-05
3.45891e-05
3.50211e-05
3.50776e-05
3.46017e-05
3.41497e-05
3.36622e-05
3.24743e-05
3.21445e-05
3.26421e-05
3.34945e-05
3.4275e-05
3.51718e-05
3.60676e-05
3.6971e-05
3.77494e-05
3.84238e-05
3.90114e-05
3.9523e-05
3.9955e-05
4.02887e-05
4.05334e-05
4.07044e-05
4.08302e-05
4.0908e-05
4.09619e-05
4.09677e-05
4.09678e-05
4.0963e-05
4.09216e-05
4.0875e-05
4.08057e-05
4.07307e-05
4.06357e-05
4.05326e-05
4.04168e-05
4.0298e-05
4.0183e-05
4.00872e-05
4.00294e-05
4.00412e-05
4.017e-05
4.04089e-05
4.07745e-05
4.13336e-05
4.20797e-05
4.29711e-05
4.39519e-05
4.5011e-05
4.60074e-05
4.68696e-05
4.72639e-05
4.72752e-05
4.67911e-05
4.64522e-05
4.521e-05
4.33329e-05
4.09509e-05
3.82091e-05
3.52227e-05
3.20239e-05
2.85172e-05
2.46009e-05
2.05539e-05
1.6169e-05
1.10843e-05
4.27936e-06
5.242e-08
9.65212e-08
5.9149e-06
1.63426e-05
2.4008e-05
2.86689e-05
3.11988e-05
3.2404e-05
3.3006e-05
3.35625e-05
3.43544e-05
3.53662e-05
3.63963e-05
3.72088e-05
3.76391e-05
3.76309e-05
3.70984e-05
3.66231e-05
3.55527e-05
3.48102e-05
3.47754e-05
3.53127e-05
3.57022e-05
3.63301e-05
3.69444e-05
3.76747e-05
3.82891e-05
3.88327e-05
3.92428e-05
3.95676e-05
3.9807e-05
3.99765e-05
4.00816e-05
4.01321e-05
4.01465e-05
4.01379e-05
4.01174e-05
4.00848e-05
4.00451e-05
3.99954e-05
3.99454e-05
3.98573e-05
3.97983e-05
3.97452e-05
3.95984e-05
3.9491e-05
3.93382e-05
3.91795e-05
3.89938e-05
3.8787e-05
3.85532e-05
3.82917e-05
3.79974e-05
3.76661e-05
3.72894e-05
3.69566e-05
3.67557e-05
3.67352e-05
3.70601e-05
3.77397e-05
3.86168e-05
3.98111e-05
4.1106e-05
4.24706e-05
4.37326e-05
4.44019e-05
4.44944e-05
4.43864e-05
4.41815e-05
4.27661e-05
4.06263e-05
3.79534e-05
3.49664e-05
3.18434e-05
2.86266e-05
2.50784e-05
2.1063e-05
1.6693e-05
1.12642e-05
4.16847e-06
4.87455e-08
1.34197e-07
7.76535e-06
1.98632e-05
2.80691e-05
3.27424e-05
3.50581e-05
3.60451e-05
3.65382e-05
3.70782e-05
3.7844e-05
3.87256e-05
3.94904e-05
3.99314e-05
3.97618e-05
3.92586e-05
3.87501e-05
3.74294e-05
3.69149e-05
3.69577e-05
3.70152e-05
3.72791e-05
3.76971e-05
3.81977e-05
3.86454e-05
3.90726e-05
3.93649e-05
3.95819e-05
3.97036e-05
3.97777e-05
3.98071e-05
3.98154e-05
3.98119e-05
3.98098e-05
3.98169e-05
3.98346e-05
3.98622e-05
3.98963e-05
3.99336e-05
3.99635e-05
3.99875e-05
4.00011e-05
4.00064e-05
3.99855e-05
3.99328e-05
3.98745e-05
3.97758e-05
3.96562e-05
3.95007e-05
3.93113e-05
3.90818e-05
3.88098e-05
3.84878e-05
3.81083e-05
3.76652e-05
3.71503e-05
3.65583e-05
3.58863e-05
3.51501e-05
3.46177e-05
3.47429e-05
3.55413e-05
3.66604e-05
3.81752e-05
3.97807e-05
4.13891e-05
4.2299e-05
4.24579e-05
4.25995e-05
4.24948e-05
4.08111e-05
3.83021e-05
3.52196e-05
3.18677e-05
2.8496e-05
2.50818e-05
2.12595e-05
1.67492e-05
1.10128e-05
3.87763e-06
4.45437e-08
1.80517e-07
9.82396e-06
2.34595e-05
3.20837e-05
3.66757e-05
3.87363e-05
3.94939e-05
3.98526e-05
4.03009e-05
4.09209e-05
4.15431e-05
4.19389e-05
4.16587e-05
4.10885e-05
4.04945e-05
3.93996e-05
3.88245e-05
3.85672e-05
3.8325e-05
3.84649e-05
3.86975e-05
3.8998e-05
3.92785e-05
3.94818e-05
3.96257e-05
3.96789e-05
3.96997e-05
3.96906e-05
3.96908e-05
3.97041e-05
3.97474e-05
3.98204e-05
3.99243e-05
4.0053e-05
4.01987e-05
4.03505e-05
4.05006e-05
4.06726e-05
4.07822e-05
4.0844e-05
4.09772e-05
4.10043e-05
4.10321e-05
4.10151e-05
4.09743e-05
4.08962e-05
4.07904e-05
4.06529e-05
4.04885e-05
4.02914e-05
4.0056e-05
3.97749e-05
3.94359e-05
3.90194e-05
3.85137e-05
3.79005e-05
3.71576e-05
3.62744e-05
3.52911e-05
3.42557e-05
3.3241e-05
3.32936e-05
3.43548e-05
3.58051e-05
3.76958e-05
3.95763e-05
4.07282e-05
4.09762e-05
4.12056e-05
4.11137e-05
3.91042e-05
3.61612e-05
3.26006e-05
2.88084e-05
2.50771e-05
2.1232e-05
1.66983e-05
1.07286e-05
3.59343e-06
4.10055e-08
2.36346e-07
1.1919e-05
2.69929e-05
3.59639e-05
4.04226e-05
4.22052e-05
4.27146e-05
4.28886e-05
4.31518e-05
4.35103e-05
4.37674e-05
4.33938e-05
4.27264e-05
4.20532e-05
4.11134e-05
4.04198e-05
3.97962e-05
3.94828e-05
3.9345e-05
3.94417e-05
3.95472e-05
3.96622e-05
3.97226e-05
3.97297e-05
3.97095e-05
3.96734e-05
3.96671e-05
3.96964e-05
3.97821e-05
3.99182e-05
4.01047e-05
4.03283e-05
4.05786e-05
4.08403e-05
4.11245e-05
4.14144e-05
4.16056e-05
4.1783e-05
4.20263e-05
4.21569e-05
4.2297e-05
4.23692e-05
4.24223e-05
4.24279e-05
4.23991e-05
4.23285e-05
4.22198e-05
4.20708e-05
4.18826e-05
4.16544e-05
4.13869e-05
4.10808e-05
4.07368e-05
4.03549e-05
3.99333e-05
3.94342e-05
3.88162e-05
3.8021e-05
3.70333e-05
3.58445e-05
3.45237e-05
3.32238e-05
3.20488e-05
3.24894e-05
3.39749e-05
3.59614e-05
3.80667e-05
3.94719e-05
3.98064e-05
4.00117e-05
3.98007e-05
3.74128e-05
3.39909e-05
2.99164e-05
2.56278e-05
2.14039e-05
1.66787e-05
1.07009e-05
3.50807e-06
3.95765e-08
3.04172e-07
1.38546e-05
3.03716e-05
3.96512e-05
4.39469e-05
4.54331e-05
4.5662e-05
4.55844e-05
4.5566e-05
4.55618e-05
4.50766e-05
4.4293e-05
4.35624e-05
4.26956e-05
4.18871e-05
4.09351e-05
4.04156e-05
4.01226e-05
3.99851e-05
3.99615e-05
3.99145e-05
3.98668e-05
3.97916e-05
3.97241e-05
3.96921e-05
3.97157e-05
3.98171e-05
3.99906e-05
4.02345e-05
4.05307e-05
4.08662e-05
4.12224e-05
4.16078e-05
4.20053e-05
4.23576e-05
4.26181e-05
4.29058e-05
4.32106e-05
4.34531e-05
4.36467e-05
4.38147e-05
4.39326e-05
4.40159e-05
4.4052e-05
4.40459e-05
4.39931e-05
4.38947e-05
4.37491e-05
4.35563e-05
4.33157e-05
4.30271e-05
4.26898e-05
4.23028e-05
4.18648e-05
4.13752e-05
4.08341e-05
4.02424e-05
3.95965e-05
3.88044e-05
3.77818e-05
3.64799e-05
3.49791e-05
3.33688e-05
3.19029e-05
3.11657e-05
3.25261e-05
3.4437e-05
3.67947e-05
3.83769e-05
3.87633e-05
3.88701e-05
3.83649e-05
3.55345e-05
3.16034e-05
2.69977e-05
2.21443e-05
1.70586e-05
1.09254e-05
3.6412e-06
4.08127e-08
3.79417e-07
1.57706e-05
3.35836e-05
4.31117e-05
4.72189e-05
4.83875e-05
4.82929e-05
4.78899e-05
4.74993e-05
4.68323e-05
4.58962e-05
4.51224e-05
4.42164e-05
4.32699e-05
4.20883e-05
4.12736e-05
4.07936e-05
4.0477e-05
4.02742e-05
4.0124e-05
3.99695e-05
3.98474e-05
3.97597e-05
3.97475e-05
3.98248e-05
3.99986e-05
4.02646e-05
4.06037e-05
4.09995e-05
4.143e-05
4.18796e-05
4.23623e-05
4.28378e-05
4.3265e-05
4.36478e-05
4.40152e-05
4.43599e-05
4.47124e-05
4.50091e-05
4.52586e-05
4.54733e-05
4.56419e-05
4.57675e-05
4.58438e-05
4.58708e-05
4.58453e-05
4.57664e-05
4.56327e-05
4.54436e-05
4.51987e-05
4.4898e-05
4.45408e-05
4.41262e-05
4.36521e-05
4.31155e-05
4.25129e-05
4.18414e-05
4.1102e-05
4.03018e-05
3.94425e-05
3.83799e-05
3.70312e-05
3.53873e-05
3.35718e-05
3.17865e-05
3.03923e-05
3.12387e-05
3.31596e-05
3.56724e-05
3.73435e-05
3.77124e-05
3.76696e-05
3.66345e-05
3.32957e-05
2.8857e-05
2.36456e-05
1.80741e-05
1.16983e-05
4.08413e-06
4.6413e-08
4.59931e-07
1.76295e-05
3.65856e-05
4.63122e-05
5.02124e-05
5.10409e-05
5.05748e-05
4.9774e-05
4.88076e-05
4.76491e-05
4.68228e-05
4.57176e-05
4.4636e-05
4.32698e-05
4.21751e-05
4.14373e-05
4.09469e-05
4.05806e-05
4.0306e-05
4.00824e-05
3.99078e-05
3.98198e-05
3.98287e-05
3.99581e-05
4.02006e-05
4.05443e-05
4.09674e-05
4.1446e-05
4.19605e-05
4.24927e-05
4.30305e-05
4.35753e-05
4.41031e-05
4.45927e-05
4.50448e-05
4.54988e-05
4.59067e-05
4.62781e-05
4.66618e-05
4.69821e-05
4.72537e-05
4.74825e-05
4.76606e-05
4.7785e-05
4.78524e-05
4.78592e-05
4.78033e-05
4.76827e-05
4.74967e-05
4.72454e-05
4.69296e-05
4.65504e-05
4.61089e-05
4.5605e-05
4.50368e-05
4.43995e-05
4.36856e-05
4.28864e-05
4.19965e-05
4.10215e-05
3.99855e-05
3.88216e-05
3.73947e-05
3.56283e-05
3.36521e-05
3.16427e-05
3.00138e-05
3.01627e-05
3.20668e-05
3.4662e-05
3.62944e-05
3.65295e-05
3.63502e-05
3.4436e-05
3.06401e-05
2.55474e-05
1.96698e-05
1.29575e-05
4.93404e-06
6.02469e-08
5.43088e-07
1.93885e-05
3.93376e-05
4.92275e-05
5.29093e-05
5.33809e-05
5.25048e-05
5.11877e-05
4.97464e-05
4.87767e-05
4.7307e-05
4.60829e-05
4.45273e-05
4.3173e-05
4.21508e-05
4.14396e-05
4.09177e-05
4.0512e-05
4.02085e-05
3.99943e-05
3.98911e-05
3.99225e-05
4.00887e-05
4.03873e-05
4.07932e-05
4.12832e-05
4.18306e-05
4.24137e-05
4.3016e-05
4.36246e-05
4.42305e-05
4.48266e-05
4.5401e-05
4.59668e-05
4.65248e-05
4.70368e-05
4.753e-05
4.79669e-05
4.83755e-05
4.88184e-05
4.9154e-05
4.94504e-05
4.96912e-05
4.98706e-05
4.99851e-05
5.00293e-05
4.99998e-05
4.98937e-05
4.97095e-05
4.94472e-05
4.91083e-05
4.86957e-05
4.82135e-05
4.76654e-05
4.70544e-05
4.638e-05
4.56371e-05
4.48139e-05
4.38928e-05
4.28549e-05
4.16912e-05
4.04228e-05
3.90099e-05
3.74656e-05
3.56638e-05
3.35573e-05
3.14207e-05
2.95359e-05
2.92504e-05
3.10962e-05
3.3749e-05
3.51822e-05
3.5172e-05
3.47709e-05
3.18928e-05
2.7297e-05
2.14727e-05
1.45232e-05
5.94307e-06
8.29473e-08
6.26538e-07
2.10089e-05
4.18148e-05
5.18477e-05
5.53005e-05
5.54179e-05
5.4028e-05
5.23506e-05
5.10384e-05
4.91716e-05
4.76968e-05
4.59372e-05
4.43181e-05
4.30012e-05
4.20253e-05
4.1315e-05
4.07741e-05
4.03705e-05
4.01043e-05
3.99784e-05
4.00111e-05
4.02028e-05
4.05367e-05
4.09902e-05
4.15311e-05
4.21339e-05
4.27751e-05
4.34379e-05
4.41105e-05
4.47845e-05
4.54541e-05
4.61145e-05
4.67623e-05
4.73989e-05
4.80279e-05
4.86539e-05
4.92204e-05
4.97485e-05
5.02253e-05
5.07157e-05
5.1174e-05
5.15314e-05
5.18454e-05
5.20863e-05
5.22555e-05
5.23444e-05
5.23483e-05
5.22627e-05
5.20846e-05
5.1813e-05
5.14488e-05
5.09955e-05
5.04588e-05
4.98466e-05
4.91672e-05
4.84282e-05
4.76334e-05
4.67796e-05
4.58531e-05
4.48277e-05
4.36675e-05
4.23386e-05
4.09318e-05
3.92373e-05
3.7321e-05
3.54264e-05
3.32968e-05
3.10554e-05
2.89672e-05
2.84565e-05
3.02275e-05
3.27958e-05
3.40873e-05
3.34981e-05
3.23825e-05
2.85363e-05
2.30791e-05
1.61418e-05
6.99168e-06
1.12449e-07
7.08435e-07
2.24464e-05
4.40184e-05
5.42108e-05
5.73529e-05
5.69337e-05
5.53111e-05
5.35522e-05
5.14081e-05
4.95652e-05
4.75805e-05
4.5679e-05
4.40462e-05
4.27697e-05
4.18217e-05
4.1116e-05
4.05935e-05
4.02472e-05
4.00803e-05
4.00946e-05
4.02891e-05
4.06423e-05
4.11242e-05
4.17034e-05
4.2349e-05
4.30388e-05
4.37549e-05
4.4486e-05
4.52243e-05
4.59649e-05
4.67039e-05
4.74386e-05
4.81668e-05
4.88867e-05
4.95941e-05
5.03148e-05
5.09966e-05
5.15896e-05
5.21463e-05
5.26886e-05
5.32709e-05
5.36956e-05
5.40857e-05
5.43944e-05
5.46254e-05
5.47677e-05
5.48151e-05
5.47612e-05
5.46008e-05
5.43308e-05
5.39502e-05
5.34613e-05
5.28693e-05
5.21833e-05
5.14155e-05
5.05801e-05
4.96909e-05
4.87577e-05
4.77817e-05
4.67492e-05
4.56272e-05
4.43617e-05
4.28878e-05
4.13375e-05
3.94114e-05
3.70592e-05
3.49843e-05
3.28672e-05
3.04997e-05
2.82235e-05
2.78135e-05
2.94876e-05
3.16026e-05
3.24176e-05
3.16765e-05
2.91424e-05
2.4278e-05
1.75992e-05
7.94417e-06
1.46897e-07
7.87197e-07
2.37328e-05
4.59378e-05
5.61423e-05
5.89019e-05
5.83498e-05
5.67147e-05
5.43663e-05
5.17975e-05
4.95411e-05
4.73351e-05
4.53554e-05
4.37359e-05
4.2497e-05
4.15756e-05
4.09008e-05
4.04437e-05
4.0204e-05
4.01767e-05
4.03499e-05
4.07014e-05
4.11958e-05
4.17978e-05
4.24758e-05
4.32045e-05
4.39667e-05
4.47501e-05
4.55477e-05
4.63544e-05
4.71669e-05
4.79823e-05
4.87976e-05
4.96095e-05
5.04143e-05
5.12062e-05
5.20095e-05
5.2791e-05
5.34697e-05
5.41022e-05
5.47088e-05
5.53822e-05
5.5892e-05
5.6354e-05
5.67352e-05
5.7033e-05
5.7237e-05
5.73389e-05
5.73303e-05
5.72039e-05
5.69537e-05
5.65759e-05
5.60697e-05
5.54381e-05
5.46883e-05
5.3833e-05
5.28893e-05
5.18778e-05
5.08202e-05
4.97342e-05
4.86272e-05
4.74878e-05
4.62769e-05
4.49217e-05
4.33185e-05
4.1643e-05
3.93244e-05
3.67063e-05
3.44004e-05
3.22551e-05
2.96871e-05
2.72293e-05
2.7236e-05
2.90417e-05
3.03928e-05
3.04033e-05
2.92276e-05
2.50359e-05
1.87433e-05
8.72054e-06
1.84625e-07
8.59732e-07
2.48275e-05
4.7481e-05
5.7635e-05
6.01557e-05
5.97771e-05
5.75492e-05
5.46615e-05
5.20046e-05
4.93727e-05
4.70116e-05
4.49978e-05
4.3406e-05
4.22061e-05
4.13268e-05
4.07194e-05
4.03692e-05
4.02676e-05
4.03941e-05
4.072e-05
4.12084e-05
4.18187e-05
4.25169e-05
4.32755e-05
4.40754e-05
4.49045e-05
4.57546e-05
4.66212e-05
4.75006e-05
4.83894e-05
4.92841e-05
5.01807e-05
5.10747e-05
5.19608e-05
5.28331e-05
5.37101e-05
5.45772e-05
5.53426e-05
5.6043e-05
5.67174e-05
5.74514e-05
5.80557e-05
5.85842e-05
5.90384e-05
5.94056e-05
5.96772e-05
5.98428e-05
5.98928e-05
5.98173e-05
5.96078e-05
5.92571e-05
5.87606e-05
5.81171e-05
5.73302e-05
5.64092e-05
5.53701e-05
5.42355e-05
5.30333e-05
5.1794e-05
5.05446e-05
4.93003e-05
4.80539e-05
4.67631e-05
4.53397e-05
4.36442e-05
4.16814e-05
3.89727e-05
3.61594e-05
3.36911e-05
3.14315e-05
2.85055e-05
2.60641e-05
2.65285e-05
2.84117e-05
2.94033e-05
2.82532e-05
2.53027e-05
1.95294e-05
9.3129e-06
2.24466e-07
9.23478e-07
2.57044e-05
4.86435e-05
5.87602e-05
6.13989e-05
6.08047e-05
5.82496e-05
5.50432e-05
5.19513e-05
4.9108e-05
4.6646e-05
4.46279e-05
4.30735e-05
4.19226e-05
4.11106e-05
4.06049e-05
4.03884e-05
4.04359e-05
4.07105e-05
4.11709e-05
4.17733e-05
4.24785e-05
4.32565e-05
4.40857e-05
4.49523e-05
4.58477e-05
4.67666e-05
4.77049e-05
4.86588e-05
4.9624e-05
5.05956e-05
5.15686e-05
5.25372e-05
5.34956e-05
5.4438e-05
5.53745e-05
5.63157e-05
5.7161e-05
5.79177e-05
5.86484e-05
5.94308e-05
6.01242e-05
6.07143e-05
6.12378e-05
6.1674e-05
6.20155e-05
6.22509e-05
6.23693e-05
6.23593e-05
6.22097e-05
6.19102e-05
6.14523e-05
6.08301e-05
6.00419e-05
5.90916e-05
5.79904e-05
5.67579e-05
5.54228e-05
5.40213e-05
5.25934e-05
5.11758e-05
4.97915e-05
4.84357e-05
4.70596e-05
4.55532e-05
4.37295e-05
4.13817e-05
3.83938e-05
3.54266e-05
3.28623e-05
3.03668e-05
2.7181e-05
2.51755e-05
2.58832e-05
2.70319e-05
2.71287e-05
2.52463e-05
1.99588e-05
9.69632e-06
2.66062e-07
9.77044e-07
2.63703e-05
4.94778e-05
5.9645e-05
6.23224e-05
6.15363e-05
5.85461e-05
5.515e-05
5.17908e-05
4.87845e-05
4.62629e-05
4.42615e-05
4.2755e-05
4.16694e-05
4.09511e-05
4.0571e-05
4.04986e-05
4.06906e-05
4.10977e-05
4.16719e-05
4.23692e-05
4.31545e-05
4.40032e-05
4.48987e-05
4.58311e-05
4.67941e-05
4.77829e-05
4.87929e-05
4.9819e-05
5.08556e-05
5.18966e-05
5.29358e-05
5.39674e-05
5.49856e-05
5.59854e-05
5.69636e-05
5.79653e-05
5.88841e-05
5.96842e-05
6.04573e-05
6.1275e-05
6.20491e-05
6.26946e-05
6.3281e-05
6.37828e-05
6.41932e-05
6.45005e-05
6.46929e-05
6.4758e-05
6.46829e-05
6.44546e-05
6.40611e-05
6.34919e-05
6.27397e-05
6.18018e-05
6.06825e-05
5.93949e-05
5.79629e-05
5.64221e-05
5.48181e-05
5.32021e-05
5.16218e-05
5.01081e-05
4.86591e-05
4.72209e-05
4.56665e-05
4.36216e-05
4.07145e-05
3.75719e-05
3.4527e-05
3.18456e-05
2.89433e-05
2.54535e-05
2.44496e-05
2.54713e-05
2.61633e-05
2.46368e-05
2.00322e-05
9.87133e-06
3.09219e-07
1.01967e-06
2.68277e-05
5.0039e-05
6.02469e-05
6.30169e-05
6.20767e-05
5.89237e-05
5.515e-05
5.15585e-05
4.843e-05
4.588e-05
4.39113e-05
4.24647e-05
4.14632e-05
4.08592e-05
4.06161e-05
4.06852e-05
4.10084e-05
4.153e-05
4.22005e-05
4.29789e-05
4.38354e-05
4.47501e-05
4.57106e-05
4.6709e-05
4.77396e-05
4.87968e-05
4.98747e-05
5.09666e-05
5.20656e-05
5.31646e-05
5.42571e-05
5.53373e-05
5.63997e-05
5.744e-05
5.84541e-05
5.94938e-05
6.04793e-05
6.13154e-05
6.21145e-05
6.29534e-05
6.37996e-05
6.44934e-05
6.51346e-05
6.56961e-05
6.6171e-05
6.65482e-05
6.68157e-05
6.69604e-05
6.69684e-05
6.6825e-05
6.65154e-05
6.60252e-05
6.5342e-05
6.44564e-05
6.33647e-05
6.20715e-05
6.05921e-05
5.89558e-05
5.72062e-05
5.54e-05
5.36003e-05
5.18647e-05
5.02284e-05
4.8685e-05
4.71702e-05
4.55504e-05
4.31107e-05
3.97643e-05
3.65795e-05
3.33998e-05
3.05658e-05
2.70155e-05
2.38048e-05
2.3542e-05
2.38881e-05
2.36008e-05
1.99159e-05
1.0011e-05
3.56187e-07
1.05123e-06
2.70944e-05
5.03563e-05
6.05927e-05
6.35331e-05
6.23264e-05
5.90437e-05
5.50546e-05
5.12802e-05
4.80646e-05
4.55099e-05
4.35869e-05
4.22135e-05
4.13126e-05
4.08351e-05
4.07292e-05
4.09291e-05
4.1368e-05
4.1988e-05
4.27415e-05
4.3592e-05
4.45146e-05
4.54933e-05
4.65181e-05
4.75817e-05
4.86775e-05
4.97986e-05
5.09372e-05
5.20854e-05
5.32352e-05
5.43793e-05
5.55117e-05
5.66269e-05
5.77207e-05
5.87896e-05
5.98306e-05
6.088e-05
6.19103e-05
6.28003e-05
6.36062e-05
6.44527e-05
6.53615e-05
6.6097e-05
6.67838e-05
6.73972e-05
6.79301e-05
6.8372e-05
6.87111e-05
6.89347e-05
6.90284e-05
6.89766e-05
6.87628e-05
6.83698e-05
6.77807e-05
6.69805e-05
6.59577e-05
6.47073e-05
6.32345e-05
6.15577e-05
5.97129e-05
5.77543e-05
5.57522e-05
5.37836e-05
5.19158e-05
5.01821e-05
4.85544e-05
4.69178e-05
4.50498e-05
4.21049e-05
3.87047e-05
3.53304e-05
3.1934e-05
2.87924e-05
2.47045e-05
2.2764e-05
2.27998e-05
2.28523e-05
1.97948e-05
1.03529e-05
4.15953e-07
1.07225e-06
2.71948e-05
5.04183e-05
6.06502e-05
6.3707e-05
6.26013e-05
5.90708e-05
5.48936e-05
5.09768e-05
4.77026e-05
4.51613e-05
4.32957e-05
4.20077e-05
4.12189e-05
4.08714e-05
4.08956e-05
4.12129e-05
4.17527e-05
4.24583e-05
4.32855e-05
4.42024e-05
4.51881e-05
4.62294e-05
4.73169e-05
4.84428e-05
4.95989e-05
5.07766e-05
5.19665e-05
5.31597e-05
5.4348e-05
5.55247e-05
5.66841e-05
5.78223e-05
5.89363e-05
6.00239e-05
6.10836e-05
6.21269e-05
6.31867e-05
6.41351e-05
6.49359e-05
6.57768e-05
6.67345e-05
6.75077e-05
6.82308e-05
6.88874e-05
6.94698e-05
6.99684e-05
7.03726e-05
7.06698e-05
7.08463e-05
7.08864e-05
7.07727e-05
7.04863e-05
7.00074e-05
6.93163e-05
6.83949e-05
6.72292e-05
6.58132e-05
6.41529e-05
6.22714e-05
6.02134e-05
5.80467e-05
5.58581e-05
5.37413e-05
5.17756e-05
4.99973e-05
4.83714e-05
4.67674e-05
4.42628e-05
4.07739e-05
3.7428e-05
3.38319e-05
3.01563e-05
2.63443e-05
2.24369e-05
2.15181e-05
2.13376e-05
1.95168e-05
1.09824e-05
4.96743e-07
1.08281e-06
2.71247e-05
5.022e-05
6.05822e-05
6.38434e-05
6.2637e-05
5.90051e-05
5.46875e-05
5.0664e-05
4.73547e-05
4.48407e-05
4.30423e-05
4.18492e-05
4.11783e-05
4.09575e-05
4.11009e-05
4.15222e-05
4.21507e-05
4.29322e-05
4.38266e-05
4.4806e-05
4.58526e-05
4.69542e-05
4.81013e-05
4.92845e-05
5.04939e-05
5.17192e-05
5.29499e-05
5.41768e-05
5.53922e-05
5.65898e-05
5.77655e-05
5.89163e-05
6.00406e-05
6.11372e-05
6.22056e-05
6.32452e-05
6.43171e-05
6.53205e-05
6.61214e-05
6.69536e-05
6.7926e-05
6.87403e-05
6.94908e-05
7.01812e-05
7.08036e-05
7.13495e-05
7.18092e-05
7.21716e-05
7.24236e-05
7.25501e-05
7.25341e-05
7.2356e-05
7.19943e-05
7.14261e-05
7.06281e-05
6.95789e-05
6.8262e-05
6.66701e-05
6.48116e-05
6.27162e-05
6.04406e-05
5.80691e-05
5.57065e-05
5.34593e-05
5.14045e-05
4.95528e-05
4.78142e-05
4.59698e-05
4.28574e-05
3.92805e-05
3.57253e-05
3.19362e-05
2.80059e-05
2.33492e-05
2.10427e-05
1.98382e-05
1.90094e-05
1.16738e-05
5.98549e-07
1.08221e-06
2.6953e-05
4.99643e-05
6.03639e-05
6.38462e-05
6.25695e-05
5.88692e-05
5.44531e-05
5.03542e-05
4.70283e-05
4.45523e-05
4.28285e-05
4.17364e-05
4.11838e-05
4.10823e-05
4.13331e-05
4.18465e-05
4.25536e-05
4.34037e-05
4.43604e-05
4.53992e-05
4.65039e-05
4.76626e-05
4.88645e-05
5.00986e-05
5.1353e-05
5.26163e-05
5.38777e-05
5.51281e-05
5.63606e-05
5.75702e-05
5.87539e-05
5.99102e-05
6.10384e-05
6.21382e-05
6.32091e-05
6.42491e-05
6.53125e-05
6.636e-05
6.71829e-05
6.80032e-05
6.89621e-05
6.9817e-05
7.05877e-05
7.13027e-05
7.19551e-05
7.25376e-05
7.3042e-05
7.34584e-05
7.37753e-05
7.39787e-05
7.40526e-05
7.39777e-05
7.37322e-05
7.32913e-05
7.26284e-05
7.17163e-05
7.05295e-05
6.90489e-05
6.72672e-05
6.51967e-05
6.28774e-05
6.03829e-05
5.78204e-05
5.53186e-05
5.30007e-05
5.09452e-05
4.91455e-05
4.74815e-05
4.48795e-05
4.11466e-05
3.77237e-05
3.35483e-05
2.93423e-05
2.48851e-05
2.09325e-05
1.93329e-05
1.85931e-05
1.22933e-05
7.17145e-07
1.07654e-06
2.66834e-05
4.95404e-05
5.99513e-05
6.36314e-05
6.23984e-05
5.86782e-05
5.42034e-05
5.00563e-05
4.67287e-05
4.42984e-05
4.26544e-05
4.16657e-05
4.12274e-05
4.12356e-05
4.15825e-05
4.21778e-05
4.29556e-05
4.38685e-05
4.48834e-05
4.59783e-05
4.71377e-05
4.8349e-05
4.95997e-05
5.08771e-05
5.21681e-05
5.34605e-05
5.47437e-05
5.60092e-05
5.72514e-05
5.84667e-05
5.96534e-05
6.08112e-05
6.19405e-05
6.30418e-05
6.41154e-05
6.51608e-05
6.62047e-05
6.72673e-05
6.81504e-05
6.89426e-05
6.98774e-05
7.07654e-05
7.15502e-05
7.22809e-05
7.29533e-05
7.35614e-05
7.40986e-05
7.45566e-05
7.49255e-05
7.51934e-05
7.53454e-05
7.53636e-05
7.52268e-05
7.49099e-05
7.43844e-05
7.36191e-05
7.2582e-05
7.12436e-05
6.95824e-05
6.75922e-05
6.52924e-05
6.27375e-05
6.00235e-05
5.7283e-05
5.46643e-05
5.22903e-05
5.0206e-05
4.83305e-05
4.64162e-05
4.30548e-05
3.93817e-05
3.55545e-05
3.10792e-05
2.64027e-05
2.11413e-05
1.88288e-05
1.76201e-05
1.29411e-05
8.40906e-07
1.06393e-06
2.63573e-05
4.88544e-05
5.94217e-05
6.32834e-05
6.21394e-05
5.8445e-05
5.39486e-05
4.97773e-05
4.64597e-05
4.40802e-05
4.25184e-05
4.16319e-05
4.13015e-05
4.14092e-05
4.18418e-05
4.25104e-05
4.33521e-05
4.43228e-05
4.53921e-05
4.65394e-05
4.77491e-05
4.90075e-05
5.03004e-05
5.16136e-05
5.29333e-05
5.42471e-05
5.55449e-05
5.68196e-05
5.80667e-05
5.92841e-05
6.04715e-05
6.16296e-05
6.27595e-05
6.38625e-05
6.4939e-05
6.59898e-05
6.7016e-05
6.80872e-05
6.90339e-05
6.9798e-05
7.0702e-05
7.16146e-05
7.24081e-05
7.31465e-05
7.38291e-05
7.44519e-05
7.50096e-05
7.5496e-05
7.59032e-05
7.62211e-05
7.64371e-05
7.6535e-05
7.64948e-05
7.62924e-05
7.58988e-05
7.5281e-05
7.44023e-05
7.32254e-05
7.17165e-05
6.98524e-05
6.76309e-05
6.50834e-05
6.2287e-05
5.9369e-05
5.64957e-05
5.38383e-05
5.15178e-05
4.9545e-05
4.77696e-05
4.48125e-05
4.09346e-05
3.75611e-05
3.25482e-05
2.7701e-05
2.24217e-05
1.86724e-05
1.64605e-05
1.34477e-05
9.4179e-07
1.04423e-06
2.59363e-05
4.81e-05
5.87986e-05
6.28181e-05
6.18062e-05
5.81801e-05
5.36965e-05
4.95221e-05
4.62236e-05
4.38976e-05
4.24178e-05
4.16297e-05
4.1399e-05
4.15962e-05
4.21055e-05
4.28399e-05
4.37396e-05
4.47634e-05
4.58829e-05
4.70782e-05
4.83332e-05
4.96327e-05
5.09612e-05
5.23033e-05
5.36448e-05
5.49739e-05
5.62814e-05
5.75615e-05
5.88113e-05
6.00299e-05
6.12182e-05
6.23776e-05
6.351e-05
6.46163e-05
6.56968e-05
6.67508e-05
6.77762e-05
6.88445e-05
6.98497e-05
7.05945e-05
7.1464e-05
7.23924e-05
7.31898e-05
7.39284e-05
7.46122e-05
7.52389e-05
7.58052e-05
7.63068e-05
7.67381e-05
7.70911e-05
7.73556e-05
7.75176e-05
7.75592e-05
7.74577e-05
7.71852e-05
7.6708e-05
7.59873e-05
7.49803e-05
7.36436e-05
7.19391e-05
6.98438e-05
6.73636e-05
6.4549e-05
6.15079e-05
5.84045e-05
5.54349e-05
5.27724e-05
5.05004e-05
4.85655e-05
4.62897e-05
4.23965e-05
3.91387e-05
3.45171e-05
2.92635e-05
2.38325e-05
1.91571e-05
1.5781e-05
1.36529e-05
9.88672e-07
1.01856e-06
2.54097e-05
4.72327e-05
5.80786e-05
6.22572e-05
6.14113e-05
5.78921e-05
5.3453e-05
4.92943e-05
4.60218e-05
4.37497e-05
4.23494e-05
4.16538e-05
4.15139e-05
4.17913e-05
4.23689e-05
4.31624e-05
4.41147e-05
4.51869e-05
4.63521e-05
4.75906e-05
4.88855e-05
5.022e-05
5.15778e-05
5.29427e-05
5.43008e-05
5.56409e-05
5.69553e-05
5.82394e-05
5.94916e-05
6.07126e-05
6.1904e-05
6.3068e-05
6.42063e-05
6.53199e-05
6.64083e-05
6.74697e-05
6.85002e-05
6.95621e-05
7.06079e-05
7.1354e-05
7.21877e-05
7.3123e-05
7.39195e-05
7.46519e-05
7.53285e-05
7.59492e-05
7.65126e-05
7.70168e-05
7.74582e-05
7.78314e-05
7.81287e-05
7.83385e-05
7.84455e-05
7.84291e-05
7.82631e-05
7.79147e-05
7.73445e-05
7.65067e-05
7.53512e-05
7.3828e-05
7.1896e-05
6.9536e-05
6.67692e-05
6.36767e-05
6.04101e-05
5.71797e-05
5.42061e-05
5.16381e-05
4.94675e-05
4.74868e-05
4.40636e-05
4.05316e-05
3.65719e-05
3.05601e-05
2.49582e-05
1.91351e-05
1.59168e-05
1.36434e-05
9.96973e-07
9.88355e-07
2.48484e-05
4.6278e-05
5.72691e-05
6.16169e-05
6.09658e-05
5.75878e-05
5.32224e-05
4.90962e-05
4.58548e-05
4.36355e-05
4.23099e-05
4.16994e-05
4.16412e-05
4.19899e-05
4.26284e-05
4.34747e-05
4.44742e-05
4.559e-05
4.67962e-05
4.80727e-05
4.94018e-05
5.07658e-05
5.21472e-05
5.35302e-05
5.4901e-05
5.62497e-05
5.75697e-05
5.88581e-05
6.01146e-05
6.13407e-05
6.25389e-05
6.37117e-05
6.48608e-05
6.59868e-05
6.70885e-05
6.81635e-05
6.92073e-05
7.02579e-05
7.13173e-05
7.20989e-05
7.28925e-05
7.38253e-05
7.46165e-05
7.53371e-05
7.59989e-05
7.66045e-05
7.71546e-05
7.76493e-05
7.80877e-05
7.8467e-05
7.87818e-05
7.90234e-05
7.91792e-05
7.92312e-05
7.91553e-05
7.89207e-05
7.84888e-05
7.78127e-05
7.68383e-05
7.55072e-05
7.37631e-05
7.15639e-05
6.89005e-05
6.58205e-05