/*--------------------------------*- C++ -*----------------------------------*\
  =========                 |
  \\      /  F ield         | OpenFOAM: The Open Source CFD Toolbox
   \\    /   O peration     | Website:  https://openfoam.org
    \\  /    A nd           | Version:  13
     \\/     M anipulation  |
\*---------------------------------------------------------------------------*/
FoamFile
{
    format      ascii;
    class       volScalarField;
    location    "9.2";
    object      p;
}
// * * * * * * * * * * * * * * * * * * * * * * * * * * * * * * * * * * * * * //

dimensions      [0 2 -2 0 0 0 0];

internalField   nonuniform List<scalar> 
6400
(
-1.53486e-08
2.02924e-05
2.93682e-05
1.36824e-05
-3.203e-05
-0.000102433
-0.000187574
-0.000278086
-0.000367588
-0.000452905
-0.000534832
-0.000617724
-0.000706357
-0.000805992
-0.000921908
-0.00105826
-0.00121802
-0.00140284
-0.00161398
-0.00185209
-0.00211756
-0.00241185
-0.00273797
-0.00310055
-0.00350611
-0.00395952
-0.004455
-0.00498332
-0.00552075
-0.00603274
-0.00651496
-0.00697562
-0.00741301
-0.00782449
-0.00820449
-0.00854403
-0.0088313
-0.00905274
-0.00919417
-0.00924152
-0.00918145
-0.00900274
-0.00869747
-0.00826204
-0.00769464
-0.00698631
-0.00612847
-0.00514217
-0.00404441
-0.00284225
-0.00155702
-0.000210503
0.00116758
0.00254402
0.00387737
0.0051223
0.006235
0.00717408
0.00790076
0.00838501
0.00860993
0.00857514
0.00829604
0.00779286
0.00713145
0.00636133
0.00554836
0.0047551
0.00403729
0.00342402
0.00294905
0.0026206
0.0024082
0.00228734
0.00223665
0.0022332
0.00225803
0.00229614
0.00233702
0.00236455
-1.53579e-05
5.36169e-06
9.65468e-06
-1.11362e-05
-5.97829e-05
-0.000130142
-0.000211239
-0.000294344
-0.000374418
-0.000450159
-0.000523728
-0.000599316
-0.000681856
-0.000776188
-0.000886244
-0.00101563
-0.00116765
-0.0013448
-0.00154763
-0.00177633
-0.00202982
-0.00230876
-0.00261646
-0.00295547
-0.00332899
-0.00374464
-0.00420987
-0.0047228
-0.0052688
-0.00582289
-0.00635727
-0.00686316
-0.00734274
-0.00779297
-0.00820798
-0.00857874
-0.00889376
-0.00914012
-0.00930445
-0.00937398
-0.00933654
-0.00918204
-0.00890293
-0.00849374
-0.00794994
-0.0072678
-0.00645406
-0.00551683
-0.00445873
-0.00329872
-0.00205478
-0.000750866
0.000584506
0.00191722
0.00320937
0.0044206
0.00550797
0.00643027
0.00715226
0.00764473
0.00789038
0.00788768
0.00765079
0.00720741
0.00660502
0.00589942
0.00515173
0.00442077
0.00375911
0.00320736
0.00278181
0.00248908
0.00231469
0.00223529
0.00222688
0.00226031
0.00230518
0.00234477
0.00237771
0.00240364
-3.18289e-05
-8.90581e-06
-1.04665e-05
-4.0672e-05
-9.7509e-05
-0.000170458
-0.00024751
-0.000320356
-0.000386371
-0.000447294
-0.000506973
-0.000570503
-0.000643009
-0.000728307
-0.000828931
-0.000946729
-0.00108326
-0.00124079
-0.00142154
-0.00162831
-0.00186475
-0.00213407
-0.00244071
-0.0027897
-0.0031853
-0.00363013
-0.0041246
-0.00466448
-0.00523848
-0.00582863
-0.00641485
-0.00698131
-0.00751891
-0.00802113
-0.00848087
-0.00888881
-0.00923448
-0.00950667
-0.00969346
-0.00978331
-0.00976596
-0.00963256
-0.00937619
-0.00899194
-0.00847686
-0.0078295
-0.0070487
-0.00614678
-0.0051302
-0.00401273
-0.00281165
-0.00154926
-0.000252637
0.00104637
0.00231201
0.00350579
0.00458587
0.00551154
0.00624815
0.00676758
0.00705148
0.00709624
0.00691514
0.00653569
0.00600137
0.00536515
0.00468371
0.00401755
0.00341447
0.00291039
0.00252921
0.00228241
0.00215697
0.00212281
0.00215122
0.00221618
0.00228722
0.00234603
0.00239394
0.00243148
-4.0618e-05
-1.884e-05
-2.81398e-05
-6.98181e-05
-0.000136959
-0.000213063
-0.000286321
-0.000350106
-0.000403087
-0.000447654
-0.000490145
-0.000537431
-0.000595123
-0.000666999
-0.00075478
-0.000859269
-0.000981873
-0.00112545
-0.00129395
-0.00149304
-0.00172994
-0.00201266
-0.00234855
-0.00274021
-0.00319001
-0.00369916
-0.00426345
-0.00487204
-0.00550891
-0.00615714
-0.00680009
-0.00742244
-0.00801198
-0.00855958
-0.00905664
-0.00949381
-0.00986193
-0.0101511
-0.0103511
-0.0104518
-0.0104448
-0.0103222
-0.0100778
-0.00970744
-0.00920953
-0.00858261
-0.0078285
-0.00695304
-0.00596392
-0.00487376
-0.00369876
-0.00245962
-0.00118117
0.0001075
0.00137239
0.00257499
0.00367491
0.00463209
0.00540987
0.0059793
0.00632008
0.00642465
0.006304
0.00598547
0.0055094
0.00492576
0.00429194
0.00366612
0.00309846
0.00262563
0.00227091
0.00204412
0.001937
0.00193275
0.00199978
0.00209915
0.00220228
0.00229164
0.0023637
0.00241382
-3.4801e-05
-2.08461e-05
-4.05396e-05
-9.39921e-05
-0.000170815
-0.000249781
-0.000319248
-0.000374138
-0.000414504
-0.00044484
-0.000472528
-0.000505312
-0.000549253
-0.00060807
-0.000683927
-0.000778688
-0.000895534
-0.00104029
-0.00122016
-0.00144347
-0.00172008
-0.00205574
-0.00245525
-0.00292288
-0.00345787
-0.0040541
-0.00470116
-0.00538425
-0.00608566
-0.00678898
-0.0074787
-0.00814218
-0.0087687
-0.00934776
-0.00987009
-0.0103269
-0.0107093
-0.0110085
-0.0112159
-0.0113234
-0.0113233
-0.0112093
-0.0109754
-0.0106175
-0.0101362
-0.00953052
-0.0088012
-0.00795148
-0.00698823
-0.00592321
-0.00477176
-0.00355247
-0.00228679
-0.000999989
0.000275317
0.00149963
0.00263428
0.00364109
0.00448229
0.0051264
0.00555044
0.0057421
0.00570616
0.00546559
0.00506123
0.00454077
0.00395893
0.00337313
0.00283521
0.00238428
0.00204642
0.00183093
0.0017333
0.00173684
0.00181531
0.0019357
0.00206499
0.0021825
0.00227759
0.0023372
-5.43e-06
-5.90954e-06
-3.83118e-05
-0.000105859
-0.00019093
-0.000270952
-0.00033629
-0.000383365
-0.000413535
-0.000432966
-0.000450212
-0.000473428
-0.000508842
-0.000560868
-0.000633383
-0.000730951
-0.000860227
-0.00103015
-0.00125176
-0.00153227
-0.00187947
-0.0023007
-0.0027974
-0.00336632
-0.00399853
-0.00468183
-0.00540393
-0.00615067
-0.00690642
-0.00765581
-0.00838454
-0.00908092
-0.00973459
-0.0103359
-0.0108763
-0.0113471
-0.0117394
-0.0120457
-0.0122592
-0.0123732
-0.0123808
-0.0122781
-0.0120594
-0.0117199
-0.0112654
-0.0106903
-0.00999509
-0.00918221
-0.00825677
-0.00722868
-0.00611147
-0.00491986
-0.00367116
-0.00238755
-0.00110284
0.000144469
0.00132055
0.00239033
0.00331286
0.00405417
0.0045899
0.00490152
0.00498828
0.00486324
0.00456273
0.00413494
0.0036319
0.00310756
0.0026141
0.00219372
0.00187473
0.00166948
0.00157562
0.00157908
0.00165597
0.00177808
0.00191494
0.00204353
0.00214881
0.00221174
5.80188e-05
3.95847e-05
-9.47907e-06
-9.41136e-05
-0.000184488
-0.000264832
-0.000326894
-0.000368461
-0.000392883
-0.000407549
-0.000421554
-0.000443341
-0.000479797
-0.000537116
-0.00062227
-0.00074303
-0.000909893
-0.00113472
-0.00142601
-0.00179263
-0.00224124
-0.00277273
-0.00337825
-0.00404708
-0.00476905
-0.005532
-0.00632209
-0.00712525
-0.00792757
-0.00871556
-0.00947651
-0.0101995
-0.0108747
-0.0114932
-0.0120471
-0.0125277
-0.0129258
-0.0132367
-0.0134553
-0.0135763
-0.0135963
-0.0135102
-0.0133148
-0.0130083
-0.0125842
-0.0120439
-0.0113893
-0.0106239
-0.00975262
-0.00878102
-0.00771588
-0.00656853
-0.00535563
-0.00410033
-0.00282749
-0.00156471
-0.00034282
0.000799747
0.00181615
0.00267603
0.00335176
0.00381681
0.00406622
0.00410317
0.00395348
0.00365988
0.00327228
0.00284239
0.0024202
0.00204931
0.00176079
0.0015704
0.001479
0.00147832
0.00154447
0.00165502
0.00178244
0.00190381
0.00200398
0.00206191
0.00016584
0.000126518
5.51844e-05
-4.34473e-05
-0.000139352
-0.000221125
-0.000282091
-0.000322597
-0.000347682
-0.000365816
-0.00038652
-0.000418684
-0.000470575
-0.000551257
-0.000670814
-0.000840911
-0.00107353
-0.00138043
-0.00177026
-0.00224932
-0.00281409
-0.00345617
-0.00416498
-0.00492875
-0.00573444
-0.00656901
-0.00741909
-0.0082716
-0.00911397
-0.00993412
-0.0107208
-0.0114642
-0.0121548
-0.0127836
-0.0133428
-0.0138243
-0.0142249
-0.0145412
-0.014768
-0.0149009
-0.0149362
-0.014868
-0.0146943
-0.0144136
-0.0140235
-0.0135232
-0.0129153
-0.012204
-0.0113936
-0.0104871
-0.00948792
-0.00840563
-0.00725482
-0.00605341
-0.00481812
-0.0035666
-0.00232922
-0.0011422
-3.56908e-05
0.00096008
0.00179381
0.00244132
0.00289066
0.00313394
0.00318466
0.0030735
0.00284486
0.00254792
0.00222981
0.00193433
0.00169475
0.00153049
0.0014469
0.00143782
0.00148779
0.00157833
0.00168353
0.00178482
0.00186529
0.00190862
0.000323487
0.000263114
0.000166664
5.40262e-05
-4.85492e-05
-0.000133258
-0.000197104
-0.00024258
-0.000276593
-0.000308609
-0.000348641
-0.000406475
-0.00049246
-0.000618795
-0.000798989
-0.00104529
-0.00137054
-0.00178618
-0.00229516
-0.00289319
-0.00357292
-0.00432279
-0.00512955
-0.00597968
-0.00685993
-0.0077573
-0.00865926
-0.00955366
-0.0104289
-0.011274
-0.0120788
-0.0128342
-0.0135308
-0.0141607
-0.0147183
-0.0152015
-0.0156095
-0.0159348
-0.0161717
-0.0163153
-0.0163606
-0.0163069
-0.016153
-0.0158982
-0.0155402
-0.0150811
-0.0145216
-0.0138637
-0.01311
-0.0122647
-0.0113336
-0.0103243
-0.00924743
-0.00811604
-0.0069424
-0.00573682
-0.00451992
-0.00331685
-0.00214918
-0.00106
-8.0645e-05
0.000768557
0.00143908
0.00192174
0.00221572
0.00233612
0.00231308
0.00219119
0.00201361
0.00182236
0.00165406
0.00153166
0.00146491
0.00145209
0.00148385
0.00154615
0.00162102
0.00169318
0.00174298
0.00176729
0.000538581
0.000454702
0.000330404
0.000202377
9.04671e-05
-4.4452e-07
-7.2197e-05
-0.000130174
-0.000183149
-0.000241534
-0.000316035
-0.000417712
-0.000559535
-0.000756586
-0.00102289
-0.00137076
-0.00181206
-0.00235109
-0.00298379
-0.00370156
-0.00449275
-0.00534289
-0.00623835
-0.00716532
-0.00811087
-0.00906233
-0.0100078
-0.0109359
-0.0118358
-0.0126976
-0.013512
-0.0142711
-0.0149684
-0.0155995
-0.0161596
-0.0166449
-0.0170495
-0.017369
-0.0176005
-0.0177427
-0.0177937
-0.0177521
-0.0176172
-0.0173885
-0.0170645
-0.0166469
-0.0161366
-0.0155355
-0.0148454
-0.0140695
-0.0132123
-0.012279
-0.0112762
-0.0102112
-0.00909316
-0.00793739
-0.0067615
-0.00558053
-0.00440664
-0.00326231
-0.0021686
-0.00116572
-0.000284436
0.000453429
0.00101665
0.00140842
0.00163792
0.00173487
0.00173774
0.00168366
0.00161023
0.00154719
0.00150947
0.00150073
0.00151626
0.00154879
0.00158869
0.00162411
0.00164006
0.00164541
0.000813384
0.000700134
0.000546584
0.000397856
0.000274457
0.000172838
8.67373e-05
7.2904e-06
-7.62198e-05
-0.000175158
-0.000301014
-0.000466744
-0.000687505
-0.000978826
-0.00135397
-0.00182339
-0.00239274
-0.00306023
-0.00381667
-0.00464915
-0.00554357
-0.00648506
-0.00745977
-0.00845409
-0.00945533
-0.0104513
-0.0114306
-0.0123826
-0.0132977
-0.0141672
-0.0149833
-0.0157395
-0.0164308
-0.0170528
-0.0176018
-0.0180749
-0.018468
-0.0187786
-0.0190049
-0.019146
-0.0192009
-0.0191689
-0.0190497
-0.018843
-0.0185488
-0.018168
-0.017702
-0.0171525
-0.0165216
-0.015812
-0.0150269
-0.0141705
-0.013247
-0.0122609
-0.0112176
-0.0101252
-0.00899323
-0.00783319
-0.00666494
-0.00550552
-0.00436325
-0.00325636
-0.00220583
-0.00125213
-0.000418702
0.000260206
0.000777267
0.00113682
0.00136234
0.00148412
0.00153473
0.00154918
0.00155284
0.00155641
0.00156193
0.00156711
0.0015711
0.00156708
0.0015508
0.00153956
0.00113569
0.000992339
0.000803113
0.000630771
0.000492542
0.000375776
0.00026801
0.000157057
3.04145e-05
-0.000124077
-0.000319143
-0.000569048
-0.000889581
-0.00129499
-0.00179575
-0.0023977
-0.00310039
-0.00389559
-0.00476996
-0.005709
-0.00669744
-0.00772049
-0.00876418
-0.00981514
-0.0108609
-0.0118899
-0.0128914
-0.0138559
-0.0147751
-0.0156417
-0.0164496
-0.0171937
-0.0178703
-0.018476
-0.0190083
-0.0194651
-0.0198444
-0.0201443
-0.0203639
-0.0205025
-0.0205594
-0.0205347
-0.0204283
-0.0202403
-0.0199715
-0.0196227
-0.0191955
-0.0186915
-0.0181129
-0.0174619
-0.0167415
-0.0159547
-0.0151047
-0.0141947
-0.0132284
-0.01221
-0.0111435
-0.0100341
-0.0088898
-0.00772117
-0.0065457
-0.0053813
-0.00423206
-0.00311673
-0.00206254
-0.00111217
-0.000300189
0.00035245
0.000841873
0.00118161
0.00139491
0.00151242
0.00157067
0.00159426
0.00159514
0.00157798
0.00154905
0.00150861
0.00146542
0.0014401
0.00149111
0.00131592
0.0010863
0.000887413
0.000730566
0.000592702
0.000455033
0.000301935
0.000119367
-0.000105768
-0.000386695
-0.000738567
-0.00117581
-0.00170948
-0.00234572
-0.0030846
-0.00391901
-0.00483594
-0.00582011
-0.00685605
-0.00792809
-0.00902154
-0.0101224
-0.0112177
-0.0122954
-0.0133447
-0.0143562
-0.0153218
-0.0162346
-0.0170893
-0.0178811
-0.0186068
-0.0192635
-0.0198492
-0.0203624
-0.0208016
-0.0211657
-0.0214539
-0.0216656
-0.0218003
-0.021858
-0.0218388
-0.021743
-0.0215712
-0.0213241
-0.021003
-0.0206093
-0.0201448
-0.0196115
-0.0190116
-0.0183476
-0.0176219
-0.0168371
-0.0159954
-0.0150992
-0.0141507
-0.0131517
-0.0121042
-0.0110101
-0.00987174
-0.00869408
-0.00748705
-0.00626919
-0.00505234
-0.00384584
-0.00267938
-0.00159924
-0.000650227
0.000131332
0.000729109
0.00114834
0.00140801
0.00154279
0.0015961
0.00159635
0.00156132
0.00150514
0.00143571
0.00137286
0.00133834
0.00186116
0.00165123
0.00137917
0.00114917
0.000969155
0.000803798
0.000627697
0.000421996
0.000171362
-0.000137582
-0.000519066
-0.00098716
-0.00155308
-0.00222349
-0.00299845
-0.00387177
-0.00483126
-0.00586108
-0.00694487
-0.00806648
-0.00921019
-0.0103613
-0.0115062
-0.0126324
-0.013729
-0.0147863
-0.0157967
-0.0167537
-0.0176522
-0.0184884
-0.0192593
-0.0199627
-0.0205972
-0.0211615
-0.0216547
-0.0220762
-0.0224253
-0.0227018
-0.0229055
-0.0230362
-0.023094
-0.0230793
-0.0229928
-0.0228348
-0.0226065
-0.0223091
-0.0219442
-0.0215136
-0.0210191
-0.0204629
-0.0198472
-0.0191741
-0.0184457
-0.0176636
-0.0168293
-0.0159437
-0.0150072
-0.0140196
-0.0129803
-0.0118882
-0.0107423
-0.00954246
-0.00829217
-0.0070019
-0.00569527
-0.00438128
-0.00308973
-0.00187716
-0.000801417
8.36117e-05
0.000749323
0.00119705
0.00144729
0.00154856
0.00155623
0.00150647
0.00142777
0.00133649
0.00126105
0.00122119
0.00222062
0.00197462
0.00165635
0.00139358
0.00118625
0.000987047
0.000764299
0.000496741
0.000167986
-0.000236379
-0.000730153
-0.00132424
-0.00202561
-0.00283433
-0.0037447
-0.00474524
-0.00582007
-0.00695172
-0.00812308
-0.0093176
-0.0105196
-0.0117147
-0.01289
-0.014034
-0.0151373
-0.0161921
-0.0171924
-0.0181336
-0.0190124
-0.0198263
-0.0205738
-0.0212538
-0.0218655
-0.0224085
-0.0228825
-0.0232872
-0.0236225
-0.0238883
-0.0240847
-0.0242119
-0.0242699
-0.0242593
-0.0241811
-0.024035
-0.023823
-0.0235461
-0.0232059
-0.0228041
-0.0223425
-0.0218232
-0.0212482
-0.0206195
-0.0199389
-0.0192076
-0.0184266
-0.0175961
-0.0167155
-0.0157833
-0.0147971
-0.0137536
-0.012649
-0.0114793
-0.0102412
-0.00893423
-0.00756557
-0.00615226
-0.00471832
-0.00329903
-0.0019633
-0.000786431
0.000159715
0.000838881
0.0012544
0.00144089
0.00147011
0.00141169
0.00131292
0.00120329
0.00112016
0.00107641
0.00254185
0.00226025
0.00189558
0.00159793
0.00135899
0.00111953
0.000843062
0.000506196
9.09136e-05
-0.000418114
-0.0010315
-0.00175614
-0.00259266
-0.00353541
-0.00457335
-0.00569059
-0.00686875
-0.00808935
-0.00933473
-0.0105882
-0.0118344
-0.0130597
-0.0142523
-0.0154025
-0.0165024
-0.0175465
-0.0185304
-0.0194513
-0.0203073
-0.0210975
-0.021821
-0.0224778
-0.0230678
-0.023591
-0.0240474
-0.0244371
-0.0247602
-0.0250168
-0.0252071
-0.0253315
-0.0253901
-0.0253834
-0.0253118
-0.0251772
-0.0249796
-0.0247205
-0.0244015
-0.0240242
-0.0235904
-0.0231021
-0.0225612
-0.0219695
-0.0213287
-0.0206398
-0.0199037
-0.0191201
-0.018288
-0.0174052
-0.0164684
-0.0154729
-0.0144129
-0.0132818
-0.0120729
-0.010781
-0.00940386
-0.00794517
-0.00642065
-0.00486383
-0.00332554
-0.00188888
-0.000651826
0.000300505
0.000929613
0.00125234
0.00133539
0.00127948
0.00116255
0.0010355
0.000945124
0.000894808
0.00280457
0.00248389
0.00207358
0.00173939
0.00146454
0.00117953
0.000844379
0.000432742
-7.62616e-05
-0.000695035
-0.00143016
-0.00228355
-0.00324978
-0.00431805
-0.00547233
-0.00669336
-0.00796114
-0.00925646
-0.0105614
-0.0118594
-0.0131359
-0.0143785
-0.015577
-0.0167237
-0.0178127
-0.0188402
-0.0198038
-0.0207021
-0.0215346
-0.022301
-0.0230016
-0.0236367
-0.0242068
-0.0247121
-0.0251531
-0.0255299
-0.0258427
-0.0260918
-0.0262774
-0.0263999
-0.0264596
-0.0264569
-0.0263925
-0.0262674
-0.0260824
-0.0258389
-0.0255381
-0.0251817
-0.0247715
-0.0243092
-0.0237967
-0.0232356
-0.0226276
-0.0219738
-0.0212747
-0.0205301
-0.019739
-0.0188989
-0.0180061
-0.0170553
-0.0160399
-0.0149516
-0.0137814
-0.0125203
-0.0111609
-0.00970001
-0.00814178
-0.00650545
-0.00483301
-0.00319507
-0.00169541
-0.00045332
0.000437951
0.000954038
0.00114079
0.00110899
0.000981154
0.000835854
0.000731915
0.000669164
0.00297312
0.00262092
0.00216835
0.00179723
0.0014832
0.00114962
0.000752149
0.000260522
-0.000344557
-0.00107266
-0.00192711
-0.00290299
-0.00398996
-0.00517201
-0.006429
-0.00773931
-0.00908183
-0.0104369
-0.0117866
-0.0131152
-0.0144092
-0.0156579
-0.016853
-0.0179889
-0.0190617
-0.0200692
-0.0210107
-0.0218858
-0.0226951
-0.023439
-0.0241185
-0.0247341
-0.0252865
-0.0257764
-0.0262041
-0.0265701
-0.0268745
-0.0271177
-0.0272999
-0.0274214
-0.0274827
-0.0274841
-0.0274263
-0.0273101
-0.0271365
-0.0269066
-0.0266217
-0.0262834
-0.0258931
-0.0254527
-0.0249638
-0.0244282
-0.0238472
-0.0232221
-0.0225533
-0.0218408
-0.0210836
-0.0202793
-0.0194245
-0.0185137
-0.01754
-0.0164946
-0.0153674
-0.014147
-0.0128223
-0.0113846
-0.00983033
-0.00816671
-0.00642066
-0.00464932
-0.00294503
-0.00143269
-0.00025145
0.000510029
0.000861241
0.000896074
0.000768885
0.000604592
0.000475938
0.000395719
0.00303452
0.00265384
0.00216259
0.00175485
0.00140029
0.00101632
0.000553689
-1.89438e-05
-0.000718668
-0.0015528
-0.00251933
-0.00360833
-0.00480407
-0.00608585
-0.00743044
-0.0088146
-0.0102165
-0.0116164
-0.0129968
-0.0143431
-0.0156434
-0.016889
-0.0180737
-0.0191936
-0.0202469
-0.0212329
-0.0221518
-0.0230045
-0.0237919
-0.0245153
-0.0251757
-0.0257742
-0.0263114
-0.0267881
-0.0272049
-0.027562
-0.0278597
-0.0280984
-0.0282783
-0.0283997
-0.028463
-0.0284686
-0.028417
-0.0283091
-0.0281458
-0.027928
-0.0276571
-0.0273343
-0.0269612
-0.0265394
-0.0260704
-0.0255559
-0.0249973
-0.0243956
-0.0237515
-0.0230652
-0.0223357
-0.0215612
-0.0207383
-0.0198622
-0.018926
-0.0179212
-0.016837
-0.0156614
-0.014381
-0.0129832
-0.0114587
-0.00980503
-0.00803462
-0.00618822
-0.00434583
-0.00261755
-0.00115292
-0.000102713
0.000468085
0.000620929
0.0005207
0.00033819
0.000172637
7.36048e-05
0.00297353
0.00256911
0.0020441
0.00160143
0.00120621
0.000770235
0.00024179
-0.000408871
-0.00119868
-0.00213191
-0.00320097
-0.00439102
-0.00568134
-0.00704744
-0.00846381
-0.00990612
-0.0113522
-0.0127826
-0.0141808
-0.0155336
-0.0168311
-0.0180666
-0.0192357
-0.0203367
-0.0213688
-0.0223329
-0.0232299
-0.0240614
-0.0248289
-0.0255338
-0.0261776
-0.0267612
-0.0272855
-0.0277512
-0.0281589
-0.0285089
-0.0288015
-0.0290369
-0.0292155
-0.0293374
-0.029403
-0.0294128
-0.0293672
-0.029267
-0.029113
-0.0289061
-0.0286475
-0.0283384
-0.0279801
-0.0275742
-0.0271222
-0.0266255
-0.0260854
-0.0255031
-0.0248793
-0.0242143
-0.0235074
-0.0227573
-0.021961
-0.0211143
-0.020211
-0.019243
-0.0181999
-0.0170693
-0.015837
-0.0144883
-0.0130098
-0.0113922
-0.00963543
-0.00776163
-0.00583715
-0.00395865
-0.00225707
-0.000913452
-7.17499e-05
0.000261803
0.000225919
2.78316e-05
-0.000181952
-0.000299052
0.00278124
0.00235877
0.00180599
0.00133113
0.000895388
0.000408016
-0.000182943
-0.000907234
-0.0017808
-0.0028034
-0.00396316
-0.00524033
-0.00660987
-0.00804435
-0.00951665
-0.0110018
-0.0124777
-0.0139256
-0.0153304
-0.0166804
-0.0179679
-0.0191881
-0.0203385
-0.0214186
-0.0224293
-0.0233719
-0.0242482
-0.0250603
-0.0258099
-0.0264986
-0.0271279
-0.0276988
-0.0282122
-0.0286688
-0.0290691
-0.0294134
-0.0297021
-0.0299353
-0.0301132
-0.0302361
-0.0303043
-0.0303183
-0.0302784
-0.0301854
-0.0300399
-0.0298428
-0.0295952
-0.0292982
-0.028953
-0.028561
-0.0281235
-0.0276419
-0.0271175
-0.0265514
-0.0259444
-0.0252969
-0.0246086
-0.0238784
-0.0231041
-0.0222821
-0.0214071
-0.0204718
-0.0194664
-0.0183791
-0.0171954
-0.0158995
-0.0144757
-0.0129106
-0.0111954
-0.00933313
-0.00736628
-0.00540036
-0.00352856
-0.00191967
-0.000779052
-0.000211654
-0.000138725
-0.00033491
-0.000588528
-0.000722072
0.00245526
0.00202088
0.00144692
0.000943203
0.000468606
-6.76608e-05
-0.000716559
-0.00150802
-0.00245641
-0.00355739
-0.00479468
-0.00614412
-0.00757718
-0.00906425
-0.0105772
-0.0120908
-0.0135836
-0.0150376
-0.0164394
-0.0177794
-0.0190516
-0.020253
-0.0213827
-0.0224414
-0.0234309
-0.0243531
-0.0252104
-0.0260049
-0.0267386
-0.0274131
-0.0280299
-0.02859
-0.0290942
-0.0295433
-0.0299376
-0.0302774
-0.0305631
-0.0307947
-0.0309726
-0.0310969
-0.0311678
-0.0311859
-0.0311515
-0.0310651
-0.0309275
-0.0307393
-0.0305017
-0.0302155
-0.0298818
-0.029502
-0.0290772
-0.0286088
-0.0280978
-0.0275455
-0.0269526
-0.0263197
-0.0256468
-0.0249331
-0.0241771
-0.0233758
-0.0225249
-0.021618
-0.0206465
-0.0195993
-0.0184626
-0.0172202
-0.0158547
-0.0143503
-0.0126934
-0.0108747
-0.00890635
-0.00688693
-0.00491311
-0.00310204
-0.0016768
-0.000832726
-0.000590635
-0.000758433
-0.00104489
-0.00119482
0.00199894
0.00155909
0.000970635
0.000441843
-6.86953e-05
-0.0006493
-0.00135037
-0.00220173
-0.00321471
-0.00438183
-0.0056827
-0.00708939
-0.00857062
-0.0100953
-0.0116347
-0.0131638
-0.0146619
-0.0161126
-0.0175039
-0.0188283
-0.0200814
-0.0212619
-0.0223701
-0.0234075
-0.0243766
-0.0252798
-0.0261197
-0.0268984
-0.027618
-0.0282801
-0.0288861
-0.029437
-0.0299335
-0.0303762
-0.0307656
-0.0311019
-0.0313853
-0.0316161
-0.0317943
-0.0319201
-0.0319939
-0.0320159
-0.0319866
-0.0319065
-0.0317761
-0.0315961
-0.0313675
-0.031091
-0.0307678
-0.0303989
-0.0299854
-0.0295285
-0.0290294
-0.028489
-0.0279083
-0.0272879
-0.026628
-0.0259282
-0.0251875
-0.0244037
-0.0235732
-0.0226909
-0.0217493
-0.0207385
-0.0196458
-0.0184553
-0.0171491
-0.0157092
-0.0141193
-0.0123646
-0.010438
-0.0083844
-0.00635908
-0.00441749
-0.00274945
-0.00161579
-0.00115625
-0.00125961
-0.00155026
-0.00172225
0.00142073
0.000981842
0.000385123
-0.000164108
-0.000706453
-0.00132634
-0.00207307
-0.00297549
-0.00404238
-0.00526305
-0.00661359
-0.00806296
-0.00957788
-0.0111263
-0.0126794
-0.0142127
-0.0157066
-0.0171461
-0.0185213
-0.019826
-0.0210577
-0.0222161
-0.0233026
-0.0243194
-0.0252692
-0.0261548
-0.0269788
-0.0277433
-0.0284505
-0.0291017
-0.0296984
-0.0302413
-0.0307313
-0.0311688
-0.0315541
-0.0318875
-0.0321693
-0.0323995
-0.0325783
-0.0327058
-0.0327824
-0.0328082
-0.0327837
-0.0327094
-0.0325857
-0.0324133
-0.0321929
-0.0319253
-0.0316115
-0.0312525
-0.0308491
-0.0304026
-0.029914
-0.0293843
-0.0288143
-0.0282048
-0.0275562
-0.0268684
-0.0261409
-0.025372
-0.0245591
-0.0236981
-0.0227828
-0.0218046
-0.0207521
-0.0196106
-0.0183624
-0.0169879
-0.0154691
-0.0137893
-0.0119291
-0.00988784
-0.00782209
-0.00581515
-0.00397076
-0.00256954
-0.00185793
-0.00183739
-0.00210908
-0.00231493
0.000733153
0.000301631
-0.00029705
-0.000861858
-0.00143106
-0.00208475
-0.00287046
-0.00381494
-0.00492481
-0.00618659
-0.00757341
-0.00905187
-0.0105873
-0.0121471
-0.0137029
-0.0152309
-0.0167127
-0.0181352
-0.0194899
-0.0207724
-0.0219813
-0.0231173
-0.0241824
-0.0251794
-0.0261112
-0.0269805
-0.02779
-0.0285419
-0.0292379
-0.0298796
-0.0304681
-0.0310041
-0.0314884
-0.0319214
-0.0323034
-0.0326345
-0.0329149
-0.0331448
-0.0333244
-0.0334536
-0.0335329
-0.0335624
-0.0335424
-0.0334735
-0.033356
-0.0331905
-0.0329777
-0.0327184
-0.0324132
-0.0320631
-0.0316691
-0.031232
-0.030753
-0.0302329
-0.0296726
-0.0290729
-0.0284344
-0.0277573
-0.0270413
-0.0262855
-0.025488
-0.0246456
-0.0237535
-0.0228043
-0.0217883
-0.0206921
-0.0194988
-0.0181888
-0.0167419
-0.01514
-0.0133614
-0.0113883
-0.00928493
-0.00725146
-0.00530637
-0.00368743
-0.00271441
-0.00250726
-0.00273723
-0.00298928
-4.65372e-05
-0.000466536
-0.00106065
-0.00163619
-0.00222774
-0.00290976
-0.00372694
-0.00470445
-0.00584668
-0.00713776
-0.0085485
-0.0100437
-0.011588
-0.0131486
-0.0146977
-0.0162127
-0.0176765
-0.0190776
-0.020409
-0.0216676
-0.0228531
-0.0239668
-0.0250113
-0.0259895
-0.0269044
-0.0277588
-0.0285551
-0.0292955
-0.0299816
-0.0306148
-0.031196
-0.031726
-0.0322053
-0.0326344
-0.0330134
-0.0333426
-0.033622
-0.0338518
-0.0340322
-0.0341631
-0.0342449
-0.0342778
-0.0342621
-0.0341982
-0.0340865
-0.0339274
-0.0337216
-0.0334698
-0.0331726
-0.0328309
-0.0324454
-0.0320171
-0.0315469
-0.0310357
-0.0304844
-0.0298937
-0.0292645
-0.028597
-0.0278915
-0.0271475
-0.0263637
-0.0255379
-0.0246663
-0.0237431
-0.0227599
-0.0217052
-0.0205634
-0.0193155
-0.01794
-0.0164177
-0.0147284
-0.0128425
-0.0107493
-0.00869575
-0.00671411
-0.00494351
-0.0037299
-0.00330427
-0.00345249
-0.0037666
-0.000899187
-0.00130515
-0.00188968
-0.00247157
-0.00308052
-0.00378494
-0.00462628
-0.00562809
-0.00679267
-0.00810221
-0.00952578
-0.0110271
-0.0125701
-0.0141227
-0.0156577
-0.0171537
-0.018595
-0.0199717
-0.021278
-0.022512
-0.023674
-0.024766
-0.0257908
-0.0267512
-0.0276504
-0.028491
-0.0292753
-0.0300052
-0.0306823
-0.0313078
-0.0318825
-0.0324071
-0.0328821
-0.0333077
-0.0336841
-0.0340116
-0.0342901
-0.0345199
-0.0347011
-0.0348337
-0.0349179
-0.034954
-0.0349422
-0.0348829
-0.0347765
-0.0346234
-0.0344242
-0.0341793
-0.0338896
-0.0335556
-0.0331781
-0.032758
-0.0322961
-0.0317932
-0.0312503
-0.0306681
-0.0300476
-0.0293892
-0.0286934
-0.0279601
-0.0271888
-0.026378
-0.0255249
-0.024625
-0.0236715
-0.0226545
-0.0215602
-0.0203707
-0.0190646
-0.0176207
-0.0160185
-0.0142275
-0.012221
-0.0101374
-0.00815693
-0.0063085
-0.00489972
-0.0042483
-0.00427258
-0.00467483
-0.00180634
-0.00219593
-0.00276691
-0.00335078
-0.00397215
-0.00469316
-0.00555191
-0.00657
-0.00774789
-0.0090663
-0.0104931
-0.0119913
-0.0135249
-0.0150624
-0.0165775
-0.0180501
-0.019466
-0.0208163
-0.0220967
-0.023306
-0.024445
-0.025516
-0.026522
-0.0274658
-0.0283503
-0.0291781
-0.0299513
-0.0306717
-0.0313406
-0.0319591
-0.0325279
-0.0330476
-0.0335185
-0.033941
-0.0343151
-0.034641
-0.0349188
-0.0351487
-0.0353306
-0.0354647
-0.0355511
-0.0355901
-0.035582
-0.035527
-0.0354255
-0.035278
-0.0350847
-0.0348464
-0.0345636
-0.0342368
-0.0338669
-0.0334545
-0.0330004
-0.0325054
-0.0319705
-0.0313965
-0.0307842
-0.0301345
-0.0294479
-0.0287248
-0.0279651
-0.027168
-0.0263318
-0.0254531
-0.0245265
-0.0235438
-0.0224932
-0.0213584
-0.020119
-0.0187518
-0.0172357
-0.0155452
-0.0136483
-0.011567
-0.00960876
-0.0077503
-0.00620811
-0.00534002
-0.00522383
-0.00573111
-0.00274927
-0.00312053
-0.00367449
-0.00425604
-0.00488524
-0.00561759
-0.00648769
-0.00751496
-0.00869829
-0.0100173
-0.0114393
-0.012927
-0.0144447
-0.0159617
-0.0174527
-0.0188989
-0.0202874
-0.0216106
-0.0228649
-0.0240498
-0.0251665
-0.0262175
-0.0272057
-0.0281338
-0.0290048
-0.0298207
-0.0305837
-0.0312953
-0.0319566
-0.0325686
-0.033132
-0.0336471
-0.0341144
-0.034534
-0.034906
-0.0352305
-0.0355076
-0.0357374
-0.03592
-0.0360555
-0.036144
-0.0361857
-0.0361809
-0.0361299
-0.036033
-0.0358905
-0.0357028
-0.0354706
-0.0351942
-0.0348742
-0.0345113
-0.0341062
-0.0336596
-0.0331722
-0.032645
-0.0320788
-0.0314746
-0.0308332
-0.0301555
-0.0294421
-0.0286934
-0.0279092
-0.0270885
-0.0262292
-0.0253272
-0.0243758
-0.0233652
-0.022281
-0.0211041
-0.0198117
-0.018383
-0.0167966
-0.0150116
-0.0129881
-0.0110329
-0.00921584
-0.00760951
-0.00656412
-0.00633045
-0.00692205
-0.00370984
-0.0040606
-0.0045946
-0.00517046
-0.0058034
-0.00654235
-0.00741843
-0.00844878
-0.0096309
-0.0109438
-0.0123544
-0.0138258
-0.0153227
-0.0168152
-0.0182794
-0.0196974
-0.0210578
-0.0223537
-0.0235823
-0.0247435
-0.0258389
-0.0268709
-0.0278423
-0.0287559
-0.0296141
-0.030419
-0.0311725
-0.0318759
-0.0325302
-0.0331363
-0.0336946
-0.0342056
-0.0346694
-0.0350863
-0.0354563
-0.0357795
-0.0360559
-0.0362857
-0.0364689
-0.0366056
-0.0366959
-0.0367401
-0.0367384
-0.036691
-0.0365982
-0.0364604
-0.0362779
-0.0360513
-0.0357809
-0.0354673
-0.035111
-0.0347128
-0.0342733
-0.0337932
-0.0332734
-0.0327149
-0.0321185
-0.0314852
-0.0308161
-0.0301121
-0.0293739
-0.0286019
-0.0277958
-0.0269544
-0.0260749
-0.0251522
-0.0241781
-0.0231403
-0.0220217
-0.0208005
-0.0194543
-0.0179626
-0.0162903
-0.0143979
-0.0124325
-0.0106658
-0.00905127
-0.00788794
-0.00758402
-0.00821595
-0.00467025
-0.00499874
-0.00551046
-0.00607791
-0.00671115
-0.00745264
-0.00833014
-0.0093585
-0.0105341
-0.0118354
-0.0132297
-0.0146804
-0.0161531
-0.0176187
-0.0190544
-0.0204436
-0.0217757
-0.0230447
-0.0242485
-0.0253871
-0.0264623
-0.0274764
-0.0284321
-0.029332
-0.0301784
-0.0309731
-0.0317177
-0.0324135
-0.0330613
-0.0336618
-0.0342154
-0.0347225
-0.0351831
-0.0355974
-0.0359655
-0.0362875
-0.0365632
-0.0367929
-0.0369766
-0.0371144
-0.0372064
-0.0372528
-0.0372538
-0.0372097
-0.0371207
-0.0369872
-0.0368095
-0.036588
-0.0363232
-0.0360155
-0.0356655
-0.0352738
-0.034841
-0.0343679
-0.0338553
-0.0333041
-0.0327154
-0.0320901
-0.0314294
-0.0307345
-0.0300065
-0.0292461
-0.0284538
-0.0276291
-0.0267704
-0.0258739
-0.0249333
-0.0239382
-0.0228736
-0.0217194
-0.0204523
-0.019051
-0.017489
-0.0157326
-0.0137965
-0.0120767
-0.0104925
-0.00926879
-0.00892321
-0.00953653
-0.00561404
-0.00591902
-0.00640689
-0.00696365
-0.00759432
-0.008335
-0.00921019
-0.0102326
-0.0113975
-0.0126831
-0.0140575
-0.0154846
-0.0169309
-0.0183683
-0.019775
-0.0211354
-0.0224398
-0.023683
-0.024863
-0.0259803
-0.0270364
-0.0280338
-0.0289749
-0.0298621
-0.0306975
-0.0314827
-0.0322192
-0.0329079
-0.0335496
-0.0341449
-0.0346942
-0.0351975
-0.0356551
-0.0360671
-0.0364334
-0.0367541
-0.0370292
-0.0372588
-0.0374429
-0.0375816
-0.0376751
-0.0377234
-0.0377269
-0.0376857
-0.0376002
-0.0374706
-0.0372972
-0.0370805
-0.0368208
-0.0365186
-0.0361744
-0.0357888
-0.0353624
-0.0348959
-0.0343902
-0.0338461
-0.0332648
-0.0326472
-0.0319948
-0.0313088
-0.0305906
-0.0298414
-0.0290621
-0.028253
-0.0274135
-0.0265412
-0.0256312
-0.0246752
-0.0236601
-0.0225677
-0.0213756
-0.0200635
-0.0186105
-0.0169747
-0.0151216
-0.0134234
-0.0118879
-0.0106491
-0.0102529
-0.0107661
-0.00652545
-0.00680707
-0.00727013
-0.00781443
-0.00844023
-0.00917745
-0.0100474
-0.0110608
-0.0122124
-0.0134792
-0.014831
-0.0162329
-0.017652
-0.0190608
-0.0204388
-0.0217712
-0.0230491
-0.0242677
-0.0254253
-0.0265226
-0.0275611
-0.0285429
-0.0294705
-0.030346
-0.0311712
-0.0319476
-0.0326764
-0.0333586
-0.0339947
-0.0345852