/*--------------------------------*- C++ -*----------------------------------*\
  =========                 |
  \\      /  F ield         | OpenFOAM: The Open Source CFD Toolbox
   \\    /   O peration     | Website:  https://openfoam.org
    \\  /    A nd           | Version:  13
     \\/     M anipulation  |
\*---------------------------------------------------------------------------*/
FoamFile
{
    format      ascii;
    class       surfaceScalarField;
    location    "9.2";
    object      phi;
}
// * * * * * * * * * * * * * * * * * * * * * * * * * * * * * * * * * * * * * //

dimensions      [0 3 -1 0 0 0 0];

internalField   nonuniform List<scalar> 
12640
(
1.70063e-09
-1.70032e-09
1.56583e-08
-1.39577e-08
4.01784e-08
-2.45201e-08
6.84182e-08
-2.82398e-08
9.38486e-08
-2.54303e-08
1.1282e-07
-1.89713e-08
1.23972e-07
-1.11524e-08
1.28257e-07
-4.28468e-09
1.28033e-07
2.24219e-10
1.25697e-07
2.33612e-09
1.23263e-07
2.43328e-09
1.22031e-07
1.23191e-09
1.224e-07
-3.68802e-10
1.24088e-07
-1.68798e-09
1.26228e-07
-2.13944e-09
1.27868e-07
-1.64055e-09
1.28113e-07
-2.45113e-10
1.26437e-07
1.67583e-09
1.21961e-07
4.47676e-09
1.13786e-07
8.17492e-09
1.01364e-07
1.24219e-08
8.40862e-08
1.72777e-08
6.15094e-08
2.25768e-08
3.34403e-08
2.80691e-08
-1.63384e-10
3.36037e-08
-3.94914e-08
3.9328e-08
-8.60454e-08
4.6554e-08
-1.4234e-07
5.62943e-08
-2.1133e-07
6.899e-08
-2.95134e-07
8.38045e-08
-3.92537e-07
9.74031e-08
-4.99792e-07
1.07254e-07
-6.13272e-07
1.1348e-07
-7.29466e-07
1.16195e-07
-8.45338e-07
1.15872e-07
-9.58261e-07
1.12923e-07
-1.06611e-06
1.07846e-07
-1.16716e-06
1.01051e-07
-1.26007e-06
9.29151e-08
-1.34382e-06
8.37436e-08
-1.41754e-06
7.37233e-08
-1.48057e-06
6.30313e-08
-1.5323e-06
5.17336e-08
-1.57217e-06
3.98617e-08
-1.59955e-06
2.73816e-08
-1.61447e-06
1.49199e-08
-1.61688e-06
2.41583e-09
-1.60492e-06
-1.19685e-08
-1.57952e-06
-2.53997e-08
-1.53948e-06
-4.004e-08
-1.48505e-06
-5.44288e-08
-1.41605e-06
-6.89965e-08
-1.33288e-06
-8.31732e-08
-1.236e-06
-9.68724e-08
-1.12609e-06
-1.09913e-07
-1.00409e-06
-1.21999e-07
-8.71479e-07
-1.32613e-07
-7.3012e-07
-1.4136e-07
-5.82427e-07
-1.47692e-07
-4.31312e-07
-1.51115e-07
-2.80322e-07
-1.5099e-07
-1.33297e-07
-1.47025e-07
5.76904e-09
-1.39066e-07
1.33627e-07
-1.27858e-07
2.45416e-07
-1.11789e-07
3.3745e-07
-9.20337e-08
4.06584e-07
-6.91341e-08
4.50433e-07
-4.38493e-08
4.67796e-07
-1.73623e-08
4.5752e-07
1.02758e-08
4.22783e-07
3.47375e-08
3.66237e-07
5.65455e-08
2.94194e-07
7.20428e-08
2.16749e-07
7.74454e-08
1.44178e-07
7.25712e-08
8.37773e-08
6.04004e-08
3.92067e-08
4.45706e-08
1.09561e-08
2.82506e-08
-9.84097e-10
1.19402e-08
-9.84096e-10
1.08079e-08
-1.25083e-08
4.43493e-08
-4.74991e-08
9.06496e-08
-7.08204e-08
1.37759e-07
-7.53497e-08
1.7799e-07
-6.56606e-08
2.0755e-07
-4.85315e-08
2.25874e-07
-2.94767e-08
2.33999e-07
-1.24093e-08
2.33758e-07
4.65135e-10
2.27535e-07
8.55856e-09
2.1763e-07
1.23384e-08
2.05617e-07
1.3245e-08
1.91983e-07
1.32653e-08
1.76142e-07
1.41533e-08
1.57035e-07
1.69672e-08
1.33517e-07
2.18781e-08
1.04649e-07
2.86226e-08
6.91431e-08
3.71816e-08
2.57433e-08
4.78765e-08
-2.71121e-08
6.10304e-08
-9.15113e-08
7.68211e-08
-1.69243e-07
9.50097e-08
-2.61509e-07
1.14843e-07
-3.69162e-07
1.35722e-07
-4.92751e-07
1.57192e-07
-6.31961e-07
1.78538e-07
-7.84102e-07
1.98695e-07
-9.44781e-07
2.16973e-07
-1.1084e-06
2.32609e-07
-1.26909e-06
2.44491e-07
-1.42344e-06
2.51759e-07
-1.57049e-06
2.54297e-07
-1.70882e-06
2.51811e-07
-1.83722e-06
2.44595e-07
-1.95472e-06
2.33373e-07
-2.06069e-06
2.1889e-07
-2.15466e-06
2.0182e-07
-2.23637e-06
1.82758e-07
-2.3056e-06
1.62144e-07
-2.36223e-06
1.40374e-07
-2.40615e-06
1.17644e-07
-2.43726e-06
9.4144e-08
-2.45548e-06
6.99572e-08
-2.46078e-06
4.51593e-08
-2.45316e-06
1.97598e-08
-2.43193e-06
-6.30999e-09
-2.39722e-06
-3.22956e-08
-2.34945e-06
-5.97386e-08
-2.28754e-06
-8.73037e-08
-2.21214e-06
-1.15442e-07
-2.12282e-06
-1.43752e-07
-2.0197e-06
-1.72117e-07
-1.90271e-06
-2.00162e-07
-1.77211e-06
-2.27476e-07
-1.62857e-06
-2.53455e-07
-1.47324e-06
-2.77325e-07
-1.30743e-06
-2.98421e-07
-1.13305e-06
-3.15743e-07
-9.52443e-07
-3.28298e-07
-7.6834e-07
-3.35219e-07
-5.83796e-07
-3.35533e-07
-4.02257e-07
-3.28564e-07
-2.27276e-07
-3.14046e-07
-6.31332e-08
-2.92001e-07
8.73241e-08
-2.62246e-07
2.20589e-07
-2.25299e-07
3.33331e-07
-1.81876e-07
4.22987e-07
-1.33505e-07
4.87168e-07
-8.15437e-08
5.25594e-07
-2.815e-08
5.36432e-07
2.38992e-08
5.20525e-07
7.24524e-08
4.7989e-07
1.12678e-07
4.15346e-07
1.4199e-07
3.30816e-07
1.57102e-07
2.3679e-07
1.54426e-07
1.45722e-07
1.35638e-07
7.00017e-08
1.03971e-07
1.96105e-08
6.23314e-08
1.86264e-08
2.04533e-08
-3.29616e-08
6.76983e-08
-9.4744e-08
1.20526e-07
-1.23648e-07
1.66919e-07
-1.21742e-07
2.02462e-07
-1.01204e-07
2.26237e-07
-7.23071e-08
2.38973e-07
-4.22126e-08
2.41669e-07
-1.51055e-08
2.35517e-07
6.61771e-09
2.22017e-07
2.20584e-08
2.02567e-07
3.17885e-08
1.77745e-07
3.80672e-08
1.4735e-07
4.36598e-08
1.10551e-07
5.09528e-08
6.61673e-08
6.13506e-08
1.27549e-08
7.52905e-08
-5.14465e-08
9.2824e-08
-1.28271e-07
1.14006e-07
-2.19279e-07
1.38885e-07
-3.25709e-07
1.67461e-07
-4.4802e-07
1.99132e-07
-5.85809e-07
2.32798e-07
-7.37957e-07
2.6699e-07
-9.01896e-07
2.99662e-07
-1.07407e-06
3.29369e-07
-1.25013e-06
3.54592e-07
-1.4257e-06
3.74273e-07
-1.59675e-06
3.88023e-07
-1.75969e-06
3.95542e-07
-1.91197e-06
3.96775e-07
-2.05217e-06
3.91955e-07
-2.1794e-06
3.81526e-07
-2.29374e-06
3.66152e-07
-2.39564e-06
3.46502e-07
-2.48544e-06
3.23172e-07
-2.5635e-06
2.96951e-07
-2.63012e-06
2.68439e-07
-2.68555e-06
2.38186e-07
-2.72994e-06
2.06536e-07
-2.76342e-06
1.7385e-07
-2.78604e-06
1.40264e-07
-2.79778e-06
1.05886e-07
-2.79859e-06
7.07632e-08
-2.78833e-06
3.49066e-08
-2.7668e-06
-1.76863e-09
-2.73399e-06
-3.91201e-08
-2.68898e-06
-7.73129e-08
-2.63218e-06
-1.16531e-07
-2.56302e-06
-1.56466e-07
-2.48135e-06
-1.97118e-07
-2.38692e-06
-2.38181e-07
-2.27963e-06
-2.79403e-07
-2.15947e-06
-3.20323e-07
-2.02663e-06
-3.60316e-07
-1.88158e-06
-3.98505e-07
-1.72507e-06
-4.33835e-07
-1.5582e-06
-4.6529e-07
-1.38242e-06
-4.91526e-07
-1.19967e-06
-5.11042e-07
-1.01251e-06
-5.22383e-07
-8.23777e-07
-5.24265e-07
-6.36814e-07
-5.15528e-07
-4.55228e-07
-4.95632e-07
-2.82719e-07
-4.6451e-07
-1.22414e-07
-4.22552e-07
2.26424e-08
-3.70355e-07
1.49849e-07
-3.09082e-07
2.56723e-07
-2.4038e-07
3.41862e-07
-1.66683e-07
4.0445e-07
-9.0738e-08
4.4378e-07
-1.54313e-08
4.59235e-07
5.69976e-08
4.4983e-07
1.22084e-07
4.16724e-07
1.75096e-07
3.62018e-07
2.11807e-07
2.88404e-07
2.28039e-07
2.0267e-07
2.21372e-07
1.15463e-07
1.91178e-07
4.047e-08
1.37325e-07
5.90965e-08
2.84164e-08
-6.1378e-08
8.20565e-08
-1.48384e-07
1.32296e-07
-1.73888e-07
1.70613e-07
-1.60059e-07
1.95841e-07
-1.26431e-07
2.09255e-07
-8.57215e-08
2.12089e-07
-4.50463e-08
2.05484e-07
-8.50092e-09
1.90229e-07
2.1873e-08
1.66782e-07
4.55051e-08
1.34918e-07
6.36532e-08
9.41178e-08
7.8867e-08
4.35985e-08
9.4179e-08
-1.75906e-08
1.12142e-07
-9.05689e-08
1.34329e-07
-1.76725e-07
1.61446e-07
-2.77536e-07
1.93635e-07
-3.94276e-07
2.30746e-07
-5.27478e-07
2.72087e-07
-6.76603e-07
3.16585e-07
-8.39742e-07
3.62271e-07
-1.01365e-06
4.06703e-07
-1.19436e-06
4.47706e-07
-1.3775e-06
4.82802e-07
-1.55889e-06
5.10755e-07
-1.73458e-06
5.30284e-07
-1.90109e-06
5.40783e-07
-2.0558e-06
5.4273e-07
-2.19743e-06
5.37172e-07
-2.32565e-06
5.25001e-07
-2.44075e-06
5.07054e-07
-2.54334e-06
4.84111e-07
-2.63407e-06
4.56886e-07
-2.71369e-06
4.2612e-07
-2.7829e-06
3.92378e-07
-2.84223e-06
3.56281e-07
-2.89208e-06
3.18292e-07
-2.93275e-06
2.78855e-07
-2.96442e-06
2.38211e-07
-2.98715e-06
1.9658e-07
-3.00093e-06
1.54047e-07
-3.00569e-06
1.10645e-07
-3.00125e-06
6.63167e-08
-2.98735e-06
2.10128e-08
-2.96382e-06
-2.53061e-08
-2.93023e-06
-7.27046e-08
-2.88621e-06
-1.21332e-07
-2.83149e-06
-1.71256e-07
-2.76558e-06
-2.2237e-07
-2.68817e-06
-2.74528e-07
-2.59891e-06
-3.27444e-07
-2.49752e-06
-3.80797e-07
-2.38378e-06
-4.34059e-07
-2.2576e-06
-4.865e-07
-2.11905e-06
-5.37051e-07
-1.9686e-06
-5.84287e-07
-1.80703e-06
-6.26856e-07
-1.63544e-06
-6.63117e-07
-1.45539e-06
-6.91094e-07
-1.26896e-06
-7.08814e-07
-1.07869e-06
-7.14529e-07
-8.87715e-07
-7.06506e-07
-6.99714e-07
-6.83634e-07
-5.18828e-07
-6.45397e-07
-3.48725e-07
-5.92655e-07
-1.92481e-07
-5.26599e-07
-5.29758e-08
-4.48588e-07
6.76646e-08
-3.6102e-07
1.67831e-07
-2.66849e-07
2.46558e-07
-1.69465e-07
3.03552e-07
-7.24252e-08
3.39551e-07
2.09988e-08
3.54421e-07
1.07213e-07
3.47679e-07
1.81837e-07
3.19242e-07
2.40245e-07
2.70057e-07
2.77225e-07
2.03923e-07
2.87506e-07
1.26721e-07
2.68381e-07
4.89957e-08
2.15049e-07
1.08092e-07
3.45006e-08
-9.58786e-08
8.72822e-08
-2.01166e-07
1.28568e-07
-2.15174e-07
1.55193e-07
-1.86684e-07
1.68045e-07
-1.39283e-07
1.69402e-07
-8.7079e-08
1.60651e-07
-3.62945e-08
1.42517e-07
9.63265e-09
1.15157e-07
4.92332e-08
7.80963e-08
8.25657e-08
3.03535e-08
1.11396e-07
-2.9269e-08
1.38489e-07
-1.0194e-07
1.6685e-07
-1.88741e-07
1.98944e-07
-2.90696e-07
2.36284e-07
-4.0866e-07
2.7941e-07
-5.43048e-07
3.28023e-07
-6.93562e-07
3.81259e-07
-8.58638e-07
4.37162e-07
-1.0351e-06
4.93049e-07
-1.21905e-06
5.46219e-07
-1.40586e-06
5.93518e-07
-1.59118e-06
6.33023e-07
-1.77075e-06
6.62365e-07
-1.94023e-06
6.80235e-07
-2.09715e-06
6.87212e-07
-2.24074e-06
6.84364e-07
-2.37104e-06
6.73032e-07
-2.48855e-06
6.54681e-07
-2.59399e-06
6.30444e-07
-2.68825e-06
6.0131e-07
-2.77214e-06
5.68006e-07
-2.84641e-06
5.31158e-07
-2.91171e-06
4.91411e-07
-2.9686e-06
4.49274e-07
-3.01751e-06
4.05194e-07
-3.05876e-06
3.59534e-07
-3.09254e-06
3.12636e-07
-3.11897e-06
2.64641e-07
-3.13805e-06
2.15667e-07
-3.14969e-06
1.65681e-07
-3.1538e-06
1.1476e-07
-3.15019e-06
6.27041e-08
-3.13848e-06
9.30756e-09
-3.11854e-06
-4.52523e-08
-3.08989e-06
-1.01354e-07
-3.05213e-06
-1.5909e-07
-3.00487e-06
-2.18513e-07
-2.94755e-06
-2.79696e-07
-2.8796e-06
-3.42475e-07
-2.80056e-06
-4.06485e-07
-2.70995e-06
-4.71409e-07
-2.60733e-06
-5.36674e-07
-2.4923e-06
-6.01536e-07
-2.36445e-06
-6.64896e-07
-2.22394e-06
-7.24794e-07
-2.0712e-06
-7.79596e-07
-1.90684e-06
-8.27485e-07
-1.732e-06
-8.65933e-07
-1.54839e-06
-8.9242e-07
-1.35816e-06
-9.04758e-07
-1.16418e-06
-9.00493e-07
-9.6962e-07
-8.78189e-07
-7.78603e-07
-8.36414e-07
-5.95852e-07
-7.75406e-07
-4.25497e-07
-6.96953e-07
-2.70601e-07
-6.03484e-07
-1.33853e-07
-4.97768e-07
-1.73007e-08
-3.83401e-07
7.78978e-08
-2.64664e-07
1.51379e-07
-1.45906e-07
2.03727e-07
-3.13492e-08
2.35838e-07
7.51022e-08
2.48233e-07
1.69443e-07
2.41141e-07
2.47336e-07
2.1491e-07
3.03455e-07
1.70553e-07
3.31863e-07
1.11184e-07
3.2775e-07
4.45506e-08
2.81683e-07
1.52643e-07
3.79703e-08
-1.33849e-07
8.32649e-08
-2.4646e-07
1.11677e-07
-2.43586e-07
1.24195e-07
-1.99202e-07
1.23765e-07
-1.38853e-07
1.12388e-07
-7.57015e-08
9.10366e-08
-1.49433e-08
5.98278e-08
4.08414e-08
1.82718e-08
9.07892e-08
-3.47865e-08
1.35624e-07
-1.00746e-07
1.77356e-07
-1.81013e-07
2.18756e-07
-2.7677e-07
2.62606e-07
-3.8886e-07
3.11034e-07
-5.1771e-07
3.65135e-07
-6.6307e-07
4.2477e-07
-8.23795e-07
4.88748e-07
-9.97452e-07
5.54916e-07
-1.18049e-06
6.20202e-07
-1.36826e-06
6.80821e-07
-1.55622e-06
7.34173e-07
-1.73935e-06
7.76654e-07
-1.91254e-06
8.06207e-07
-2.07283e-06
8.22655e-07
-2.21947e-06
8.26874e-07
-2.35275e-06
8.20494e-07
-2.47349e-06
8.05103e-07
-2.58271e-06
7.82255e-07
-2.6813e-06
7.53271e-07
-2.77008e-06
7.1923e-07
-2.84981e-06
6.81032e-07
-2.92111e-06
6.39309e-07
-2.98461e-06
5.94665e-07
-3.04083e-06
5.47625e-07
-3.09016e-06
4.98603e-07
-3.1329e-06
4.47937e-07
-3.16921e-06
3.95841e-07
-3.19923e-06
3.42659e-07
-3.22307e-06
2.88481e-07
-3.24079e-06
2.33388e-07
-3.25221e-06
1.77098e-07
-3.25742e-06
1.19964e-07
-3.25639e-06
6.16795e-08
-3.24857e-06
1.48241e-09
-3.23441e-06
-5.94077e-08
-3.21304e-06
-1.22727e-07
-3.18404e-06
-1.88085e-07
-3.14696e-06
-2.55598e-07
-3.10119e-06
-3.25459e-07
-3.04601e-06
-3.9766e-07
-2.98064e-06
-4.71857e-07
-2.90424e-06
-5.47808e-07
-2.81608e-06
-6.24831e-07
-2.71572e-06
-7.019e-07
-2.60258e-06
-7.78036e-07
-2.476e-06
-8.51373e-07
-2.33586e-06
-9.19729e-07
-2.18221e-06
-9.81138e-07
-2.01568e-06
-1.03246e-06
-1.83768e-06
-1.07043e-06
-1.6497e-06
-1.09273e-06
-1.45443e-06
-1.09576e-06
-1.25484e-06
-1.07779e-06
-1.05469e-06
-1.03656e-06
-8.58578e-07
-9.71523e-07
-6.71855e-07
-8.83676e-07
-4.98921e-07
-7.76418e-07
-3.43119e-07
-6.53569e-07
-2.07258e-07
-5.19263e-07
-9.32834e-08
-3.78638e-07
-1.95529e-09
-2.37235e-07
6.71196e-08
-1.00424e-07
1.152e-07
2.70219e-08
1.43879e-07
1.40763e-07
1.54106e-07
2.3711e-07
1.46489e-07
3.11072e-07
1.21492e-07
3.5686e-07
8.13773e-08
3.67865e-07
3.23856e-08
3.30675e-07
1.85028e-07
3.78051e-08
-1.71654e-07
7.01969e-08
-2.78852e-07
8.35984e-08
-2.56988e-07
8.12686e-08
-1.96873e-07
6.7065e-08
-1.24649e-07
4.2373e-08
-5.10095e-08
7.49235e-09
1.99373e-08
-3.80632e-08
8.63969e-08
-9.53569e-08
1.48083e-07
-1.65804e-07
2.06071e-07
-2.50901e-07
2.62453e-07
-3.51925e-07
3.1978e-07
-4.69693e-07
3.80375e-07
-6.04388e-07
4.45728e-07
-7.55409e-07
5.16156e-07
-9.21159e-07
5.9052e-07
-1.09867e-06
6.66263e-07
-1.28376e-06
7.39998e-07
-1.47169e-06
8.08136e-07
-1.65734e-06
8.6647e-07
-1.83469e-06
9.11526e-07
-1.9998e-06
9.41759e-07
-2.15117e-06
9.57585e-07
-2.28897e-06
9.60446e-07
-2.41409e-06
9.52003e-07
-2.5276e-06
9.34001e-07
-2.63055e-06
9.08052e-07
-2.72392e-06
8.75623e-07
-2.80849e-06
8.37838e-07
-2.88491e-06
7.9565e-07
-2.95371e-06
7.49839e-07
-3.01541e-06
7.01007e-07
-3.07045e-06
6.49704e-07
-3.11918e-06
5.96356e-07
-3.16193e-06
5.4135e-07
-3.19897e-06
4.84979e-07
-3.23025e-06
4.27119e-07
-3.256e-06
3.68412e-07
-3.27636e-06
3.08842e-07
-3.29139e-06
2.48417e-07
-3.30134e-06
1.8705e-07
-3.30595e-06
1.24567e-07
-3.30503e-06
6.07656e-08
-3.29876e-06
-4.78885e-09
-3.28686e-06
-7.13114e-08
-3.26966e-06
-1.39928e-07
-3.24703e-06
-2.10713e-07
-3.21875e-06
-2.83872e-07
-3.18456e-06
-3.59651e-07
-3.14388e-06
-4.38346e-07
-3.0957e-06
-5.20028e-07
-3.03904e-06
-6.04477e-07
-2.97252e-06
-6.91342e-07
-2.89433e-06
-7.80095e-07
-2.80262e-06
-8.69746e-07
-2.69606e-06
-9.57933e-07
-2.57408e-06
-1.04171e-06
-2.43681e-06
-1.11841e-06
-2.28456e-06
-1.18472e-06
-2.11751e-06
-1.23747e-06
-1.93654e-06
-1.2737e-06
-1.74415e-06
-1.28815e-06
-1.54282e-06
-1.27912e-06
-1.33617e-06
-1.24321e-06
-1.12848e-06
-1.17921e-06
-9.25227e-07
-1.08693e-06
-7.32764e-07
-9.68882e-07
-5.55871e-07
-8.30462e-07
-3.98137e-07
-6.76997e-07
-2.62541e-07
-5.14234e-07
-1.50842e-07
-3.48933e-07
-6.3281e-08
-1.87986e-07
1.39172e-09
-3.76508e-08
4.50177e-08
9.71375e-08
7.00357e-08
2.12092e-07
7.79664e-08
3.03142e-07
6.96119e-08
3.65214e-07
4.72677e-08
3.90209e-07
1.72777e-08
3.60665e-07
2.02306e-07
3.28441e-08
-2.04498e-07
4.97937e-08
-2.95802e-07
4.70348e-08
-2.54229e-07
2.96311e-08
-1.79469e-07
1.37912e-09
-9.63975e-08
-3.70944e-08
-1.2536e-08
-8.62326e-08
6.90755e-08
-1.46995e-07
1.47159e-07
-2.20706e-07
2.21794e-07
-3.08797e-07
2.94163e-07
-4.12544e-07
3.66199e-07
-5.32784e-07
4.4002e-07
-6.69652e-07
5.17243e-07
-8.2245e-07
5.98527e-07
-9.89393e-07
6.83099e-07
-1.16716e-06
7.68291e-07
-1.35128e-06
8.50377e-07
-1.53674e-06
9.25462e-07
-1.71743e-06
9.88819e-07
-1.88808e-06
1.03712e-06
-2.04565e-06
1.0691e-06
-2.18962e-06
1.08573e-06
-2.32047e-06
1.08843e-06
-2.43918e-06
1.07916e-06
-2.54686e-06
1.05968e-06
-2.64461e-06
1.03175e-06
-2.73336e-06
9.968e-07
-2.81381e-06
9.56076e-07
-2.88653e-06
9.10555e-07
-2.95198e-06
8.61102e-07
-3.01056e-06
8.08418e-07
-3.06265e-06
7.53093e-07
-3.10856e-06
6.95611e-07
-3.14847e-06
6.36268e-07
-3.18264e-06
5.75519e-07
-3.21163e-06
5.13968e-07
-3.23622e-06
4.51709e-07
-3.25647e-06
3.88665e-07
-3.27239e-06
3.24764e-07
-3.28382e-06
2.59845e-07
-3.29096e-06
1.9419e-07
-3.2937e-06
1.27312e-07
-3.29217e-06
5.92275e-08
-3.28644e-06
-1.05189e-08
-3.27664e-06
-8.11107e-08
-3.26271e-06
-1.53852e-07
-3.24458e-06
-2.28847e-07
-3.22204e-06
-3.06406e-07
-3.19492e-06
-3.86779e-07
-3.16302e-06
-4.70241e-07
-3.12601e-06
-5.57035e-07
-3.08343e-06
-6.47062e-07
-3.03458e-06
-7.40193e-07
-2.97871e-06
-8.35966e-07
-2.91471e-06
-9.33742e-07
-2.83973e-06
-1.03291e-06
-2.74979e-06
-1.13165e-06
-2.64119e-06
-1.22701e-06
-2.51247e-06
-1.31343e-06
-2.36439e-06
-1.38555e-06
-2.19901e-06
-1.43908e-06
-2.01685e-06
-1.47032e-06
-1.82018e-06
-1.47579e-06
-1.6124e-06
-1.45098e-06
-1.39756e-06
-1.39406e-06
-1.18058e-06
-1.30391e-06
-9.68736e-07
-1.18072e-06
-7.69443e-07
-1.02976e-06
-5.87949e-07
-8.58491e-07
-4.28155e-07
-6.74028e-07
-2.93171e-07
-4.83917e-07
-1.8449e-07
-2.96667e-07
-1.0171e-07
-1.20431e-07
-4.25231e-08
3.79507e-08
-3.71782e-09
1.73286e-07
1.73225e-08
2.82101e-07
2.29776e-08
3.59559e-07
1.62206e-08
3.96966e-07
3.53329e-09
3.73352e-07
2.05839e-07
2.3484e-08
-2.27982e-07
2.36032e-08
-2.95921e-07
4.09342e-09
-2.34719e-07
-2.78112e-08
-1.47564e-07
-7.01079e-08
-5.41008e-08
-1.22736e-07
4.00919e-08
-1.8652e-07
1.32859e-07
-2.62706e-07
2.23346e-07
-3.52633e-07
3.11721e-07
-4.575e-07
3.9903e-07
-5.78127e-07
4.86827e-07
-7.14667e-07
5.7656e-07
-8.66499e-07
6.69075e-07
-1.03191e-06
7.63935e-07
-1.20741e-06
8.58599e-07
-1.38837e-06
9.49252e-07
-1.5695e-06
1.03151e-06
-1.74459e-06
1.10055e-06
-1.90889e-06
1.15312e-06
-2.0602e-06
1.18842e-06
-2.19811e-06
1.20701e-06
-2.32321e-06
1.21083e-06
-2.43651e-06
1.20174e-06
-2.53915e-06
1.18179e-06
-2.63213e-06
1.15267e-06
-2.71631e-06
1.11593e-06
-2.79233e-06
1.07282e-06
-2.86068e-06
1.02443e-06
-2.92179e-06
9.71663e-07
-2.97603e-06
9.15342e-07
-3.02375e-06
8.56143e-07
-3.06533e-06
7.94673e-07
-3.10126e-06
7.31535e-07
-3.13221e-06
6.67221e-07
-3.15866e-06
6.01965e-07
-3.18039e-06
5.35697e-07
-3.19755e-06
4.68878e-07
-3.21018e-06
4.01286e-07
-3.21851e-06
3.33102e-07
-3.22309e-06
2.64423e-07
-3.22423e-06
1.95325e-07
-3.22236e-06
1.25445e-07
-3.21777e-06
5.46356e-08
-3.21084e-06
-1.74515e-08
-3.20119e-06
-9.07526e-08
-3.18899e-06
-1.66056e-07
-3.17426e-06
-2.4358e-07
-3.15698e-06
-3.2368e-07
-3.13707e-06
-4.06688e-07
-3.11435e-06
-4.92969e-07
-3.08853e-06
-5.82854e-07
-3.05907e-06
-6.76523e-07
-3.02523e-06
-7.74029e-07
-2.98606e-06
-8.75135e-07
-2.94071e-06
-9.79096e-07
-2.88817e-06
-1.08545e-06
-2.82706e-06
-1.19276e-06
-2.75524e-06
-1.29882e-06
-2.66701e-06
-1.40167e-06
-2.5552e-06
-1.49736e-06
-2.41758e-06
-1.5767e-06
-2.25555e-06
-1.63234e-06
-2.07343e-06
-1.6579e-06
-1.87275e-06
-1.65166e-06
-1.65805e-06
-1.60877e-06
-1.43358e-06
-1.52838e-06
-1.20591e-06
-1.4084e-06
-9.84225e-07
-1.25144e-06
-7.77398e-07
-1.06532e-06
-5.91293e-07
-8.60133e-07
-4.30103e-07
-6.45108e-07
-2.9697e-07
-4.29799e-07
-1.92871e-07
-2.2453e-07
-1.16386e-07
-3.85348e-08
-6.39651e-08
1.20866e-07
-3.09998e-08
2.49136e-07
-1.36448e-08
3.42204e-07
-7.00396e-09
3.90325e-07
-5.33974e-09
3.71688e-07
2.005e-07
1.10356e-08
-2.39018e-07
-6.59982e-09
-2.78285e-07
-4.17816e-08
-1.99537e-07
-8.82909e-08
-1.01055e-07
-1.44708e-07
2.31601e-09
-2.1146e-07
1.06844e-07
-2.89748e-07
2.11147e-07
-3.80852e-07
3.1445e-07
-4.8591e-07
4.16778e-07
-6.057e-07
5.18819e-07
-7.40405e-07
6.21532e-07
-8.89539e-07
7.25693e-07
-1.0516e-06
8.31139e-07
-1.22325e-06
9.35578e-07
-1.39971e-06
1.03507e-06
-1.57558e-06
1.12512e-06
-1.74513e-06
1.20106e-06
-1.90396e-06
1.25938e-06
-2.05004e-06
1.29919e-06
-2.18285e-06
1.32124e-06
-2.30305e-06
1.32721e-06
-2.41161e-06
1.3194e-06
-2.50964e-06
1.29976e-06
-2.59803e-06
1.27019e-06
-2.67755e-06
1.23219e-06
-2.74876e-06
1.18715e-06
-2.81214e-06
1.13619e-06
-2.86809e-06
1.08038e-06
-2.91704e-06
1.02061e-06
-2.95942e-06
9.57722e-07
-2.9957e-06
8.92422e-07
-3.02636e-06
8.25334e-07
-3.05174e-06
7.56911e-07
-3.07208e-06
6.87568e-07
-3.08771e-06
6.17588e-07
-3.09912e-06
5.47106e-07
-3.10674e-06
4.765e-07
-3.11119e-06
4.05738e-07
-3.11297e-06
3.34879e-07
-3.11236e-06
2.63821e-07
-3.10948e-06
1.92438e-07
-3.10454e-06
1.20511e-07
-3.09774e-06
4.7829e-08
-3.08929e-06
-2.58995e-08
-3.07914e-06
-1.00903e-07
-3.06754e-06
-1.77655e-07
-3.05464e-06
-2.56482e-07
-3.04054e-06
-3.3778e-07
-3.0253e-06
-4.21931e-07
-3.00891e-06
-5.09351e-07
-2.99133e-06
-6.00432e-07
-2.97235e-06
-6.95506e-07
-2.95158e-06
-7.94802e-07
-2.92837e-06
-8.98346e-07
-2.90153e-06
-1.00593e-06
-2.86977e-06
-1.11722e-06
-2.83129e-06
-1.23123e-06
-2.78425e-06
-1.34587e-06
-2.72653e-06
-1.45938e-06
-2.65557e-06
-1.56832e-06
-2.56374e-06
-1.66853e-06
-2.44149e-06
-1.7546e-06
-2.28723e-06
-1.81216e-06
-2.10491e-06
-1.83398e-06
-1.90032e-06
-1.81336e-06
-1.67743e-06
-1.75127e-06
-1.44195e-06
-1.64387e-06
-1.20233e-06
-1.49106e-06
-9.69948e-07
-1.2977e-06
-7.5548e-07
-1.0746e-06
-5.6551e-07
-8.35078e-07
-4.04454e-07
-5.90855e-07
-2.75223e-07
-3.53761e-07
-1.77847e-07
-1.3591e-07
-1.09491e-07
5.25093e-08
-6.47104e-08
2.04356e-07
-3.75745e-08
3.15068e-07
-2.0595e-08
3.73346e-07
-9.45303e-09
3.60546e-07
1.91047e-07
-3.19468e-09
-2.35823e-07
-3.80517e-08
-2.43428e-07
-8.88219e-08
-1.48767e-07
-1.49606e-07
-4.02712e-08
-2.19748e-07
7.24583e-08
-3.00243e-07
1.87339e-07
-3.92328e-07
3.03232e-07
-4.97162e-07
4.19285e-07
-6.15527e-07
5.35143e-07
-7.47649e-07
6.50942e-07
-8.93172e-07
7.67055e-07
-1.05087e-06
8.83393e-07
-1.2177e-06
9.97973e-07
-1.38901e-06
1.10688e-06
-1.55948e-06
1.20554e-06
-1.72386e-06
1.28949e-06
-1.87795e-06
1.35515e-06
-2.01955e-06
1.40099e-06
-2.14811e-06
1.42775e-06
-2.26406e-06
1.43718e-06
-2.36841e-06
1.43157e-06
-2.46211e-06
1.4131e-06
-2.54601e-06
1.38366e-06
-2.62074e-06
1.34491e-06
-2.68682e-06
1.29827e-06
-2.74469e-06
1.24502e-06
-2.79479e-06
1.1863e-06
-2.83761e-06
1.12319e-06
-2.87365e-06
1.05665e-06
-2.90346e-06
9.8754e-07
-2.92762e-06
9.16577e-07
-2.94665e-06
8.44365e-07
-2.96111e-06
7.71368e-07
-2.97152e-06
6.9798e-07
-2.97841e-06
6.24475e-07
-2.98234e-06
5.51042e-07
-2.9837e-06
4.77854e-07
-2.98283e-06
4.04874e-07
-2.98001e-06
3.32057e-07
-2.97546e-06
2.59266e-07
-2.96935e-06
1.86333e-07
-2.96188e-06
1.13038e-07
-2.95319e-06
3.91461e-08
-2.94348e-06
-3.56175e-08
-2.93283e-06
-1.11552e-07
-2.92145e-06
-1.89029e-07
-2.90953e-06
-2.68401e-07
-2.89725e-06
-3.5006e-07
-2.88478e-06
-4.34409e-07
-2.87226e-06
-5.21872e-07
-2.85982e-06
-6.12872e-07
-2.84751e-06
-7.07811e-07
-2.83528e-06
-8.07034e-07
-2.82283e-06
-9.10792e-07
-2.80954e-06
-1.01922e-06
-2.7945e-06
-1.13226e-06
-2.77633e-06
-1.2494e-06
-2.75263e-06
-1.36957e-06
-2.7208e-06
-1.49122e-06
-2.67784e-06
-1.61128e-06
-2.62043e-06
-1.72594e-06
-2.54433e-06
-1.8307e-06
-2.43782e-06
-1.91867e-06
-2.29298e-06
-1.97882e-06
-2.1115e-06
-1.99484e-06
-1.90211e-06
-1.96066e-06
-1.66949e-06
-1.87648e-06
-1.42165e-06
-1.73891e-06
-1.16917e-06
-1.55018e-06
-9.2599e-07
-1.31778e-06
-7.04736e-07
-1.05633e-06
-5.12717e-07
-7.82874e-07
-3.54342e-07
-5.12136e-07
-2.31806e-07
-2.58446e-07
-1.43659e-07
-3.56374e-08
-8.49518e-08
1.45648e-07
-4.8254e-08
2.7837e-07
-2.45377e-08
3.4963e-07
-8.88233e-09
3.4489e-07
1.82164e-07
-1.84297e-08
-2.17393e-07
-7.00332e-08
-1.91825e-07
-1.35392e-07
-8.3408e-08
-2.09699e-07
3.40358e-08
-2.92932e-07
1.55691e-07
-3.86254e-07
2.80661e-07
-4.90888e-07
4.07866e-07
-6.07714e-07
5.3611e-07
-7.37055e-07
6.64484e-07
-8.78673e-07
7.9256e-07
-1.0316e-06
9.19987e-07
-1.19321e-06
1.045e-06
-1.35914e-06
1.1639e-06
-1.52435e-06
1.27209e-06
-1.68399e-06
1.36518e-06
-1.83405e-06
1.43955e-06
-1.97196e-06
1.49307e-06
-2.09694e-06
1.52596e-06
-2.20932e-06
1.54013e-06
-2.30994e-06
1.5378e-06
-2.3997e-06
1.52133e-06
-2.47932e-06
1.49272e-06
-2.54938e-06
1.45372e-06
-2.61037e-06
1.4059e-06
-2.66275e-06
1.35065e-06
-2.70704e-06
1.28931e-06
-2.74383e-06
1.22309e-06
-2.77378e-06
1.15314e-06
-2.79758e-06
1.08046e-06
-2.81595e-06
1.00591e-06
-2.82958e-06
9.30206e-07
-2.83912e-06
8.53911e-07
-2.8452e-06
7.7745e-07
-2.84837e-06
7.01149e-07
-2.84911e-06
6.25209e-07
-2.84781e-06
5.49748e-07
-2.84477e-06
4.74809e-07
-2.84021e-06
4.00317e-07
-2.83432e-06
3.26167e-07
-2.82726e-06
2.52201e-07
-2.81916e-06
1.78235e-07
-2.81017e-06
1.04045e-07
-2.80041e-06
2.93864e-08
-2.79001e-06
-4.60112e-08
-2.77912e-06
-1.22442e-07
-2.76791e-06
-2.0024e-07
-2.75657e-06
-2.79742e-07
-2.74531e-06
-3.61321e-07
-2.73435e-06
-4.45364e-07
-2.72394e-06
-5.32283e-07
-2.71432e-06
-6.22501e-07
-2.70568e-06
-7.16445e-07
-2.6982e-06
-8.14521e-07
-2.69188e-06
-9.17103e-07
-2.6866e-06
-1.0245e-06
-2.68196e-06
-1.1369e-06
-2.67714e-06
-1.25422e-06
-2.67066e-06
-1.37605e-06
-2.66042e-06
-1.50146e-06
-2.6431e-06
-1.62859e-06
-2.61444e-06
-1.7546e-06
-2.57041e-06
-1.87473e-06
-2.50554e-06
-1.98353e-06
-2.41164e-06
-2.07273e-06
-2.2745e-06
-2.13198e-06
-2.09373e-06
-2.14143e-06
-1.87787e-06
-2.09235e-06
-1.63387e-06
-1.9829e-06
-1.37241e-06
-1.81164e-06
-1.10683e-06
-1.58337e-06
-8.53856e-07
-1.30931e-06
-6.28069e-07
-1.00866e-06
-4.37195e-07
-7.0301e-07
-2.85243e-07
-4.10397e-07
-1.72868e-07
-1.48013e-07
-9.65366e-08
6.93166e-08
-4.87939e-08
2.30627e-07
-2.03715e-08
3.21207e-07
-4.53833e-09
3.29057e-07
1.77626e-07
-3.36508e-08
-1.83742e-07
-1.00805e-07
-1.24671e-07
-1.79848e-07
-4.36507e-09
-2.66744e-07
1.20932e-07
-3.62032e-07
2.50979e-07
-4.66913e-07
3.85543e-07
-5.82457e-07
5.2341e-07
-7.0919e-07
6.62843e-07
-8.47032e-07
8.02326e-07
-9.95238e-07
9.40766e-07
-1.15158e-06
1.07633e-06
-1.31221e-06
1.20562e-06
-1.47246e-06
1.32415e-06
-1.62784e-06
1.42748e-06
-1.77449e-06
1.51182e-06
-1.90951e-06
1.57458e-06
-2.03168e-06
1.61523e-06
-2.14118e-06
1.63546e-06
-2.23868e-06
1.63764e-06
-2.32501e-06
1.62412e-06
-2.40082e-06
1.59714e-06
-2.46665e-06
1.55855e-06
-2.52299e-06
1.51007e-06
-2.57036e-06
1.45327e-06
-2.6094e-06
1.38968e-06
-2.64082e-06
1.32073e-06
-2.66544e-06
1.24771e-06
-2.68411e-06
1.17181e-06
-2.69768e-06
1.09402e-06
-2.70694e-06
1.01517e-06
-2.71261e-06
9.35883e-07
-2.71535e-06
8.5665e-07
-2.7157e-06
7.77802e-07
-2.71412e-06
6.99561e-07
-2.71094e-06
6.22036e-07
-2.70645e-06
5.45258e-07
-2.70083e-06
4.69187e-07
-2.69422e-06
3.93711e-07
-2.68674e-06
3.18686e-07
-2.67848e-06
2.43937e-07
-2.66951e-06
1.69271e-07
-2.65993e-06
9.4465e-08
-2.64983e-06
1.92803e-08
-2.63929e-06
-5.65476e-08
-2.62845e-06
-1.33286e-07
-2.61745e-06
-2.11235e-07
-2.60649e-06
-2.90704e-07
-2.59578e-06
-3.7203e-07
-2.58558e-06
-4.55568e-07
-2.57616e-06
-5.41701e-07
-2.56783e-06
-6.3083e-07
-2.5609e-06
-7.23375e-07
-2.55565e-06
-8.19767e-07
-2.55232e-06
-9.20437e-07
-2.55103e-06
-1.0258e-06
-2.55175e-06
-1.13618e-06
-2.55416e-06
-1.25181e-06
-2.55755e-06
-1.37266e-06
-2.56064e-06
-1.49838e-06
-2.56121e-06
-1.62802e-06
-2.556e-06
-1.75981e-06
-2.54007e-06
-1.89066e-06
-2.50776e-06
-2.01584e-06
-2.45285e-06
-2.12764e-06
-2.36647e-06
-2.21835e-06
-2.23431e-06
-2.27359e-06
-2.05223e-06
-2.27443e-06
-1.82768e-06
-2.20744e-06
-1.57052e-06
-2.0688e-06
-1.29466e-06
-1.85923e-06
-1.01671e-06
-1.58725e-06
-7.56549e-07
-1.26882e-06
-5.30309e-07
-9.29249e-07
-3.45505e-07
-5.95202e-07
-2.04948e-07
-2.8857e-07
-1.07017e-07
-2.8614e-08
-4.55968e-08
1.69207e-07
-1.22177e-08
2.87828e-07
1.66706e-09
3.15172e-07
1.79293e-07
-4.81612e-08
-1.35581e-07
-1.29467e-07
-4.33648e-08
-2.2077e-07
8.69379e-08
-3.19166e-07
2.19327e-07
-4.25187e-07
3.57e-07
-5.40059e-07
5.00415e-07
-6.64622e-07
6.47973e-07
-7.99076e-07
7.97297e-07
-9.42891e-07
9.46141e-07
-1.09423e-06
1.0921e-06
-1.24979e-06
1.23189e-06
-1.4055e-06
1.36133e-06
-1.55714e-06
1.47579e-06
-1.70093e-06
1.57127e-06
-1.8338e-06
1.64469e-06
-1.95401e-06
1.69479e-06
-2.06141e-06
1.72263e-06
-2.15657e-06
1.73061e-06
-2.24016e-06
1.72123e-06
-2.31285e-06
1.69681e-06
-2.37515e-06
1.65944e-06
-2.42757e-06
1.61098e-06
-2.47074e-06
1.55323e-06
-2.50537e-06
1.48791e-06
-2.53235e-06
1.41666e-06
-2.55263e-06
1.34101e-06
-2.5672e-06
1.26227e-06
-2.577e-06
1.18161e-06
-2.58291e-06
1.09994e-06
-2.58571e-06
1.01796e-06
-2.58604e-06
9.36219e-07
-2.58446e-06
8.55063e-07
-2.58137e-06
7.74717e-07
-2.57711e-06
6.95295e-07
-2.57189e-06
6.1682e-07
-2.56588e-06
5.39248e-07
-2.55917e-06
4.62479e-07
-2.55184e-06
3.86375e-07
-2.54392e-06
3.10766e-07
-2.53544e-06
2.35463e-07
-2.52644e-06
1.60269e-07
-2.51695e-06
8.49748e-08
-2.50704e-06
9.36675e-09
-2.49674e-06
-6.68428e-08
-2.48617e-06
-1.43853e-07
-2.47547e-06
-2.21936e-07
-2.46481e-06
-3.0137e-07
-2.45439e-06
-3.82448e-07
-2.44447e-06
-4.65483e-07
-2.43536e-06
-5.50813e-07
-2.42739e-06
-6.38802e-07
-2.42092e-06
-7.29843e-07
-2.41633e-06
-8.24358e-07
-2.41397e-06
-9.22795e-07
-2.41415e-06
-1.02562e-06
-2.41707e-06
-1.13327e-06
-2.42273e-06
-1.24614e-06
-2.43087e-06
-1.36452e-06
-2.44082e-06
-1.48843e-06
-2.45129e-06
-1.61755e-06
-2.46016e-06
-1.75094e-06
-2.46405e-06
-1.88678e-06
-2.45808e-06
-2.02181e-06
-2.43493e-06
-2.15079e-06
-2.38745e-06
-2.26584e-06
-2.30523e-06
-2.3558e-06
-2.17405e-06
-2.40562e-06
-1.98753e-06
-2.39397e-06
-1.7517e-06
-2.30463e-06
-1.4798e-06
-2.13112e-06
-1.1895e-06
-1.87755e-06
-9.01431e-07
-1.55689e-06
-6.3891e-07
-1.19177e-06
-4.18551e-07
-8.15562e-07
-2.46698e-07
-4.60423e-07
-1.23917e-07
-1.51394e-07
-4.57887e-08
9.10782e-08
-5.22215e-09
2.47262e-07
7.3252e-09
3.02625e-07
1.86618e-07
-6.13667e-08
-7.42146e-08
-1.55006e-07
5.02748e-08
-2.57359e-07
1.89291e-07
-3.65768e-07
3.27736e-07
-4.80958e-07
4.7219e-07
-6.04049e-07
6.23506e-07
-7.35657e-07
7.79581e-07
-8.75564e-07
9.37204e-07
-1.02231e-06
1.09289e-06
-1.17319e-06
1.24299e-06
-1.32481e-06
1.38351e-06
-1.47319e-06
1.50971e-06
-1.61466e-06
1.61727e-06
-1.74604e-06
1.70265e-06
-1.86516e-06
1.76381e-06
-1.97137e-06
1.801e-06
-2.06503e-06
1.8163e-06
-2.14677e-06
1.81236e-06
-2.2172e-06
1.79166e-06
-2.27685e-06
1.75647e-06
-2.3263e-06
1.70888e-06
-2.36622e-06
1.6509e-06
-2.39746e-06
1.58447e-06
-2.42102e-06
1.51147e-06
-2.43799e-06
1.43363e-06
-2.44946e-06
1.35247e-06
-2.45647e-06
1.26929e-06
-2.45996e-06
1.18511e-06
-2.46075e-06
1.10072e-06
-2.45949e-06
1.0167e-06
-2.45671e-06
9.33443e-07
-2.45282e-06
8.51171e-07
-2.4481e-06
7.69999e-07
-2.44276e-06
6.89947e-07
-2.4369e-06
6.10963e-07
-2.43059e-06
5.32942e-07
-2.42386e-06
4.55749e-07
-2.41671e-06
3.79223e-07
-2.40913e-06
3.03182e-07
-2.40109e-06
2.2743e-07
-2.39259e-06
1.51771e-07
-2.38362e-06
7.60031e-08
-2.37426e-06
5.81251e-12
-2.36445e-06
-7.66524e-08
-2.35434e-06
-1.5397e-07
-2.34401e-06
-2.3226e-07
-2.33363e-06
-3.1175e-07
-2.32339e-06
-3.92688e-07
-2.31354e-06
-4.75339e-07
-2.30436e-06
-5.5999e-07
-2.2962e-06
-6.46959e-07
-2.28945e-06
-7.36594e-07
-2.28453e-06
-8.29283e-07
-2.28187e-06
-9.25459e-07
-2.28189e-06
-1.0256e-06
-2.28496e-06
-1.13019e-06
-2.29134e-06
-1.23977e-06
-2.30107e-06
-1.35478e-06