/*--------------------------------*- C++ -*----------------------------------*\
  =========                 |
  \\      /  F ield         | OpenFOAM: The Open Source CFD Toolbox
   \\    /   O peration     | Website:  https://openfoam.org
    \\  /    A nd           | Version:  13
     \\/     M anipulation  |
\*---------------------------------------------------------------------------*/
FoamFile
{
    format      ascii;
    class       volScalarField;
    location    "4.6";
    object      epsilon;
}
// * * * * * * * * * * * * * * * * * * * * * * * * * * * * * * * * * * * * * //

dimensions      [0 2 -3 0 0 0 0];

internalField   nonuniform List<scalar> 
6400
(
2.28361e-05
0.000117057
0.000281692
0.000454584
0.000588334
0.000667401
0.000700972
0.000710423
0.000719896
0.000750768
0.000819555
0.000945376
0.00114106
0.00141117
0.00174423
0.00212392
0.0025329
0.00296355
0.00339789
0.00382268
0.00424496
0.00469646
0.0052215
0.00585919
0.00660441
0.00739525
0.00817891
0.00895953
0.00975259
0.0105763
0.0114298
0.0122814
0.0131168
0.0139287
0.0147369
0.0155514
0.0163879
0.0172571
0.0181698
0.0191342
0.0201554
0.0212413
0.0223994
0.0236388
0.0249682
0.0264068
0.0280056
0.0298719
0.0322363
0.034512
0.0368705
0.0391625
0.0413857
0.0434545
0.0453055
0.0468567
0.0479656
0.0485028
0.0486958
0.0482962
0.047059
0.045061
0.0423209
0.0388866
0.0349094
0.0305063
0.0259508
0.0214343
0.0171436
0.0131808
0.00997548
0.00729693
0.00511446
0.00342964
0.0022078
0.00136824
0.000817594
0.000463056
0.000215977
4.58167e-05
0.000111005
0.000109058
0.000177065
0.000257112
0.000319071
0.000358499
0.000379968
0.000391817
0.000404182
0.000429198
0.000478379
0.000565904
0.000705682
0.000908035
0.00117689
0.00151432
0.0019228
0.0024083
0.00297594
0.00363316
0.00438935
0.00526411
0.00630349
0.00753884
0.00897043
0.0105966
0.0123608
0.0141153
0.0157686
0.0172326
0.0184055
0.0193225
0.019989
0.0204526
0.0207636
0.0209648
0.0210995
0.0211997
0.0212933
0.021397
0.021531
0.0217103
0.021942
0.0222123
0.0225159
0.0228732
0.0233189
0.0238333
0.0244268
0.025075
0.0257588
0.0264697
0.0271685
0.0278352
0.0284222
0.0288688
0.0290788
0.0291225
0.0289216
0.0284223
0.0275295
0.0262968
0.0246746
0.0227052
0.0204622
0.0180356
0.015537
0.0130856
0.0107749
0.00867526
0.00690492
0.00539758
0.00411041
0.00301952
0.00211948
0.00139859
0.000855053
0.000478569
0.000246507
0.000241333
0.000244133
0.000197576
0.000261912
0.000330576
0.000374189
0.000398209
0.000412966
0.000429311
0.000459298
0.000517922
0.000623398
0.000798164
0.0010644
0.00143915
0.00193368
0.00256049
0.0033311
0.00425886
0.00535318
0.00662025
0.00806455
0.00967282
0.0113844
0.0130918
0.0146476
0.0158718
0.0166531
0.0171284
0.0173882
0.0175506
0.0176661
0.0176861
0.0174935
0.0172385
0.0169751
0.0167245
0.016512
0.0163504
0.0162704
0.0162437
0.0162776
0.0164082
0.0166053
0.0169029
0.0173037
0.0178017
0.0183751
0.0190232
0.0197412
0.0205231
0.0213552
0.0222265
0.0231148
0.0239976
0.0248398
0.0256018
0.0262386
0.0266471
0.0268008
0.0267305
0.0262734
0.0253874
0.0240637
0.0223398
0.0202946
0.0180211
0.0156327
0.013242
0.0109585
0.00887189
0.00705276
0.00551439
0.00424295
0.00320538
0.00236408
0.0016884
0.00114524
0.000716027
0.000443707
0.000637819
0.000424931
0.000341399
0.000415635
0.000483311
0.000520883
0.000542374
0.000563822
0.000601789
0.000675283
0.000808613
0.00103367
0.00138468
0.00189139
0.00257401
0.00344419
0.00450781
0.00576826
0.00721287
0.00880277
0.0104673
0.0121021
0.0135815
0.0147833
0.0155462
0.0159023
0.0160278
0.0160543
0.0158487
0.0154385
0.0149375
0.0143658
0.0138699
0.0134765
0.0131625
0.0129076
0.0127269
0.0126368
0.012605
0.0126294
0.0127481
0.0129305
0.0131915
0.0135224
0.0139303
0.0144116
0.0149665
0.0155941
0.016296
0.0170711
0.0179184
0.0188328
0.0198064
0.0208255
0.0218715
0.0229161
0.0239223
0.0248413
0.0256148
0.0261241
0.0263286
0.0262763
0.0257566
0.0248582
0.0234796
0.0215836
0.0193471
0.0168785
0.014321
0.0118242
0.00951679
0.00749181
0.0057942
0.00442318
0.00334231
0.00250103
0.0018468
0.00132857
0.000913616
0.000653924
0.00104376
0.000680785
0.00054216
0.000617478
0.000685083
0.000726163
0.000759674
0.000807543
0.000894867
0.00105267
0.00132005
0.00174164
0.00235829
0.00319663
0.00426452
0.00555294
0.00703627
0.00866525
0.0103542
0.0119756
0.0133834
0.0144369
0.0149572
0.0151471
0.0151697
0.0149099
0.0143757
0.0136309
0.012911
0.012287
0.0117411
0.0112628
0.0108871
0.0105921
0.0103706
0.010218
0.0101433
0.0101172
0.0101269
0.0102143
0.0103479
0.0105354
0.010775
0.0110673
0.0114148
0.0118195
0.0122854
0.0128162
0.0134171
0.0140925
0.0148468
0.0156833
0.0166032
0.0176031
0.018675
0.0198046
0.0209693
0.0221319
0.0232388
0.0242277
0.0250195
0.0254125
0.0255123
0.0251312
0.0243226
0.0229139
0.0209121
0.0184824
0.0157974
0.0130521
0.0104347
0.00809958
0.00614232
0.00458783
0.00340227
0.00251853
0.00185903
0.00136431
0.000991897
0.000787983
0.00131233
0.00104425
0.000807411
0.000871003
0.000942291
0.000999254
0.00106295
0.00116295
0.00133632
0.00162892
0.00209354
0.00278063
0.00372355
0.00492686
0.00636312
0.00797402
0.00966897
0.0113222
0.0127776
0.0138593
0.0143796
0.0145405
0.0145114
0.0141181
0.0133786
0.0125005
0.011688
0.0109625
0.0103325
0.00980505
0.00936263
0.00900262
0.0087198
0.00849838
0.00833325
0.0082173
0.00815111
0.00812192
0.00811598
0.00815513
0.0082248
0.00832875
0.00846499
0.00863569
0.00884293
0.00909037
0.00938291
0.00972667
0.0101297
0.0106014
0.0111529
0.0117952
0.0125414
0.0134016
0.0143828
0.0154865
0.0167063
0.0180266
0.0194135
0.0208184
0.0221727
0.0233744
0.0242254
0.0245837
0.0245918
0.0239833
0.0226459
0.0205167
0.0178563
0.0149023
0.0119132
0.00913893
0.00676893
0.00489375
0.00350448
0.00251801
0.00182475
0.00133643
0.000988354
0.000838202
0.00140217
0.00154741
0.00114283
0.00118607
0.00126975
0.00135819
0.00147385
0.00165665
0.00195756
0.00243549
0.00314823
0.004136
0.00540382
0.00691167
0.00857418
0.0102652
0.0118265
0.0130904
0.0137878
0.0140302
0.0140418
0.0136603
0.0128636
0.0118877
0.0109807
0.0101516
0.00944056
0.00883243
0.00832199
0.00789739
0.00754511
0.00725663
0.00702135
0.00682995
0.00667704
0.00655684
0.00646535
0.00639791
0.00635709
0.0063392
0.00633492
0.00635338
0.00639383
0.00645674
0.00654349
0.00665758
0.00680241
0.00698301
0.007206
0.0074795
0.00781488
0.00822593
0.0087295
0.00934775
0.0101041
0.0110184
0.0121108
0.0134004
0.0148851
0.0165301
0.0182868
0.0200851
0.0218048
0.0232813
0.0241289
0.0244104
0.024197
0.0229132
0.0205861
0.0176028
0.0142702
0.0109495
0.00797533
0.0055696
0.0037972
0.00258995
0.00180003
0.00128029
0.000955284
0.000830332
0.00135974
0.0022203
0.00155264
0.00157411
0.00168214
0.0018205
0.00201213
0.00230917
0.00277472
0.00347236
0.00444908
0.00571448
0.00722501
0.00888017
0.0105305
0.0119959
0.0130426
0.0135134
0.0136263
0.0134082
0.0127207
0.0116948
0.0106775
0.00974546
0.00893422
0.00823638
0.00764956
0.00715348
0.00673765
0.00638812
0.00609441
0.00584765
0.00563997
0.0054655
0.00531992
0.0051994
0.00510058
0.00502099
0.00495961
0.00491431
0.00488788
0.0048769
0.00487546
0.00489653
0.00493361
0.00499116
0.00507016
0.00517413
0.00530707
0.00547423
0.00568109
0.00593513
0.0062467
0.00663001
0.0071054
0.00770519
0.00846951
0.00944113
0.0106766
0.0122021
0.0140118
0.0160837
0.0183122
0.0205867
0.022685
0.0241839
0.0248304
0.02495
0.0236829
0.0210792
0.0176442
0.0138131
0.0100899
0.00690603
0.00449634
0.00286631
0.0018601
0.00125757
0.000908773
0.000799002
0.00126717
0.00308553
0.00203994
0.00204321
0.00219383
0.00239909
0.00268882
0.00312506
0.00377599
0.00469601
0.00590286
0.00735778
0.0089573
0.0105409
0.0119143
0.0127879
0.0131315
0.0131825
0.012764
0.0118277
0.0107333
0.0096919
0.00876019
0.00795777
0.00727812
0.00670458
0.00622235
0.00581483
0.00547141
0.00518101
0.00493592
0.00472931
0.00455583
0.00441122
0.00429167
0.00419407
0.00411619
0.00405595
0.00401176
0.00398341
0.00397017
0.00396627
0.00397445
0.00399951
0.00403659
0.00408937
0.00415786
0.00424446
0.00435085
0.00447988
0.00463484
0.00482018
0.00504153
0.00530608
0.00562377
0.00600777
0.00647898
0.00706795
0.00782408
0.00883674
0.0102235
0.0120465
0.0142876
0.0168982
0.0196968
0.022461
0.0246938
0.0257701
0.0260995
0.0248301
0.0218266
0.0177986
0.0133692
0.00922229
0.00587714
0.00353491
0.00209971
0.00130367
0.000890157
0.000757158
0.00117657
0.00415395
0.0026108
0.00260425
0.00280997
0.00309758
0.00350087
0.00408669
0.00491741
0.00602273
0.00737596
0.00888165
0.0103807
0.0116746
0.0124448
0.0127155
0.0127038
0.0121131
0.0110692
0.0099668
0.00890142
0.00797256
0.00717831
0.00651063
0.00595026
0.00547991
0.0050849
0.00475318
0.0044758
0.00424461
0.0040535
0.00389691
0.00377025
0.00366942
0.00359093
0.00353163
0.00348891
0.00346116
0.00344781
0.00344345
0.0034474
0.00346419
0.00349005
0.00352696
0.00357381
0.00363228
0.00370268
0.0037865
0.00388509
0.00400032
0.00413437
0.0042899
0.00447022
0.00467968
0.00492407
0.00521146
0.00554938
0.0059533
0.00644586
0.00706586
0.00787802
0.00899456
0.010647
0.0129377
0.0158092
0.0191242
0.0225654
0.0255581
0.0270487
0.0275422
0.0261757
0.0226115
0.0178451
0.0127645
0.00824777
0.00485416
0.00267993
0.00148834
0.00092066
0.000734739
0.00112232
0.00543965
0.00327678
0.00326171
0.00352978
0.00390845
0.00442864
0.00515389
0.00612849
0.00734477
0.00872468
0.0101209
0.0113393
0.0120626
0.0123138
0.0122293
0.0115718
0.0104879
0.00935161
0.00828557
0.00734715
0.00655961
0.0058994
0.00535018
0.00489246
0.00451205
0.00419711
0.00393833
0.00372787
0.00355874
0.00342495
0.00332096
0.00324196
0.00318366
0.00314237
0.00311527
0.00310188
0.00309696
0.00309708
0.00310835
0.00312572
0.00315159
0.00318467
0.00322633
0.00327681
0.00333742
0.00340913
0.00349342
0.00359175
0.00370578
0.00383719
0.00398776
0.00415933
0.00435389
0.0045737
0.00482171
0.00510237
0.00542293
0.00579578
0.00624024
0.00678258
0.00747773
0.0084272
0.00981104
0.011997
0.0150624
0.018857
0.0229937
0.0267311
0.0285726
0.0291573
0.0275165
0.0231766
0.0175501
0.0118422
0.00710456
0.00383239
0.00194041
0.0010468
0.00075133
0.00113586
0.00701576
0.00406271
0.00401353
0.00434315
0.00481183
0.00543709
0.0062696
0.00732536
0.00855327
0.00982801
0.0109683
0.0116688
0.0119161
0.011809
0.0111165
0.0100519
0.00889059
0.0078097
0.00686599
0.00607327
0.00541879
0.004877
0.00443148
0.00406595
0.00376888
0.00353004
0.00334084
0.00319337
0.00308049
0.00299583
0.00293375
0.00288946
0.00285893
0.0028391
0.0028292
0.00282525
0.00282471
0.00283081
0.00284278
0.00285993
0.00288352
0.00291382
0.0029521
0.00299934
0.00305697
0.00312636
0.00320914
0.00330701
0.00342176
0.0035552
0.00370915
0.0038853
0.00408514
0.00430981
0.00456007
0.00483645
0.00513987
0.00547296
0.00584274
0.00626517
0.00677094
0.00740038
0.00824627
0.00948689
0.011472
0.0146594
0.0188971
0.0237886
0.0281855
0.0302555
0.0308185
0.0285848
0.0232401
0.0166758
0.0104957
0.00578832
0.00284338
0.00136187
0.000832593
0.00123667
0.00878167
0.004937
0.00484298
0.00522973
0.00577733
0.00648074
0.00736974
0.00842682
0.0095599
0.0106105
0.0112929
0.0115396
0.0114421
0.010763
0.00973372
0.00856967
0.00746457
0.00650598
0.00570408
0.00504642
0.00450975
0.00407264
0.00372026
0.00343881
0.00321758
0.00304641
0.00291634
0.00281911
0.00274748
0.00269526
0.00265734
0.00262975
0.00260954
0.00259479
0.00258427
0.00257721
0.002574
0.00257337
0.00257781
0.0025872
0.0026029
0.00262565
0.00265677
0.00269751
0.00274934
0.00281378
0.00289257
0.00298754
0.0031007
0.00323418
0.00339018
0.00357086
0.0037782
0.00401375
0.00427833
0.00457179
0.00489285
0.00523935
0.00560937
0.00600402
0.00643285
0.00692328
0.00752267
0.00830883
0.0094575
0.0113211
0.0145804
0.0192949
0.0250038
0.0299136
0.0320213
0.0323901
0.029097
0.0224595
0.0150539
0.00870813
0.00436043
0.00199937
0.00104925
0.00152047
0.0106859
0.00588004
0.00572913
0.00616219
0.00676785
0.00751019
0.0083934
0.00936738
0.0103094
0.0109643
0.0112062
0.0111398
0.0105144
0.00952659
0.00837204
0.00724322
0.00625641
0.00543662
0.00476863
0.00422987
0.00379732
0.00345324
0.00318356
0.0029753
0.00281734
0.00269921
0.00261176
0.002547
0.00249839
0.00246079
0.00243038
0.00240457
0.00238178
0.00236127
0.00234279
0.00232659
0.00231325
0.00230423
0.00230032
0.00229971
0.00230675
0.00232171
0.00234549
0.00237934
0.00242464
0.00248288
0.00255574
0.00264513
0.00275319
0.00288232
0.00303517
0.00321453
0.00342325
0.00366394
0.00393865
0.00424841
0.00459259
0.0049685
0.00537122
0.00579446
0.00623331
0.00669044
0.00718783
0.00778112
0.00854223
0.00965402
0.0115088
0.0148553
0.0200879
0.0266858
0.0319434
0.0338906
0.0336924
0.028584
0.0206086
0.0126423
0.00660395
0.00304202
0.00148706
0.00205224
0.0126672
0.00686812
0.0066464
0.00710862
0.00774347
0.00847767
0.00928859
0.0100991
0.0107043
0.0109367
0.0109117
0.0103637
0.00942784
0.0082892
0.00713867
0.00611316
0.00526189
0.00457432
0.00402518
0.00359034
0.0032492
0.00298559
0.00278528
0.00263522
0.00252396
0.00244125
0.00237863
0.00232931
0.00228824
0.0022519
0.00221809
0.00218569
0.00215436
0.0021243
0.00209604
0.00207039
0.00204822
0.00203047
0.00201879
0.00201365
0.00201289
0.00202164
0.00203969
0.00206758
0.00210676
0.00215845
0.00222425
0.002306
0.00240586
0.00252637
0.00267049
0.00284154
0.00304319
0.00327924
0.00355333
0.00386845
0.00422623
0.00462602
0.00506402
0.00553264
0.0060211
0.00651818
0.00701899
0.00754015
0.00814318
0.00890389
0.0100213
0.0119466
0.0155299
0.0213267
0.0288166
0.0340959
0.0357326
0.0341102
0.0267951
0.0175617
0.00963945
0.00454105
0.00215066
0.00277854
0.0146618
0.00787474
0.00756648
0.00803541
0.00866532
0.0093414
0.0100156
0.0105523
0.0107737
0.0107598
0.0103057
0.00943221
0.00831797
0.00714746
0.00607539
0.00517731
0.00445685
0.00388745
0.00344175
0.0030967
0.00283325
0.00263537
0.00248849
0.0023797
0.00229801
0.00223435
0.0021818
0.00213542
0.00209199
0.00204972
0.0020079
0.00196656
0.00192621
0.00188764
0.00185171
0.00181936
0.00179145
0.00176878
0.00175208
0.00174347
0.00174045
0.001744
0.00175836
0.00178159
0.00181546
0.00186086
0.00191926
0.00199233
0.00208213
0.0021912
0.00232256
0.00247982
0.00266716
0.00288932
0.00315132
0.00345818
0.00381422
0.00422208
0.00468139
0.00518737
0.00572962
0.00629235
0.00685723
0.00741153
0.00796726
0.00859381
0.00937294
0.0105448
0.0126481
0.0167024
0.0232562
0.0316265
0.0361705
0.0371454
0.0329824
0.023369
0.0135411
0.00654382
0.00305602
0.00365136
0.0166073
0.00887156
0.0084606
0.00891009
0.0094992
0.0100696
0.0105322
0.0107348
0.0107035
0.0103409
0.00953494
0.00845567
0.00727012
0.00614551
0.00518546
0.00441508
0.00381245
0.00334587
0.00298872
0.00271898
0.00251811
0.00236994
0.00226016
0.00217676
0.00211015
0.00205317
0.00200095
0.00195052
0.00190042
0.00185029
0.00180047
0.00175171
0.00170493
0.00166108
0.00162104
0.00158559
0.00155538
0.00153097
0.00151282
0.00150287
0.00149907
0.00149998
0.00151191
0.00153172
0.00156115
0.00160088
0.00165218
0.00171652
0.00179579
0.00189235
0.00200912
0.00214969
0.00231841
0.00252044
0.00276175
0.00304888
0.00338853
0.00378672
0.00424748
0.00477096
0.00535132
0.00597485
0.00661965
0.00725908
0.00787211
0.00846844
0.00912653
0.00994362
0.0112289
0.0136554
0.0184777
0.0262061
0.0346592
0.0380965
0.0378092
0.0297535
0.0183889
0.00915361
0.00423196
0.00461644
0.0184964
0.00983441
0.00930137
0.00970418
0.0102194
0.010629
0.0108088
0.010769
0.0104647
0.00973452
0.00869954
0.0075083
0.00632944
0.00529339
0.00445361
0.00380063
0.00330076
0.00292195
0.00263857
0.00242917
0.00227547
0.00216168
0.0020746
0.00200392
0.00194213
0.00188428
0.00182755
0.00177072
0.00171371
0.00165707
0.00160175
0.00154874
0.00149903
0.00145343
0.00141263
0.00137714
0.00134735
0.00132357
0.00130601
0.00129626
0.00129247
0.00129257
0.00130286
0.00132015
0.00134591
0.00138071
0.00142559
0.00148185
0.00155114
0.00163556
0.00173779
0.00186118
0.00200992
0.0021892
0.00240527
0.00266551
0.00297823
0.00335217
0.00379544
0.00431377
0.00490796
0.00557076
0.006284
0.00701792
0.00773558
0.00840763
0.00904772
0.00973727
0.0106191
0.0120926
0.0150431
0.0208976
0.030193
0.0378972
0.039986
0.0360623
0.0241979
0.0125024
0.00572191
0.00563325
0.0202521
0.0107395
0.010066
0.0103969
0.0108036
0.0109938
0.0109773
0.0106689
0.0100272
0.00904821
0.00786302
0.00663465
0.00551235
0.00458259
0.00385795
0.00330845
0.0028964
0.00259074
0.00236658
0.00220297
0.00208223
0.0019898
0.00191432
0.00184773
0.00178481
0.00172272
0.00166036
0.00159783
0.00153587
0.00147553
0.00141787
0.00136387
0.0013143
0.00126973
0.00123056
0.00119704
0.0011693
0.00114742
0.00113145
0.00112267
0.0011193
0.00111946
0.00112856
0.00114392
0.00116662
0.00119719
0.00123649
0.00128562
0.00134601
0.00141948
0.0015084
0.00161576
0.00174539
0.00190214
0.00209211
0.00232278
0.00260319
0.0029437
0.00335548
0.00384915
0.00443244
0.00510673
0.00586253
0.00667533
0.00750423
0.00829854
0.00902082
0.00969627
0.0104245
0.01141
0.013216
0.0170622
0.0243311
0.0351628
0.0404896
0.0407318
0.0307175
0.016737
0.00755148
0.00668469
0.0218055
0.011563
0.0107366
0.0109734
0.0112124
0.011241
0.0109709
0.0104184
0.00949753
0.00833465
0.00706763
0.0058561
0.0048176
0.00399645
0.00337588
0.0029154
0.0025769
0.00233045
0.00215184
0.00202092
0.00192132
0.00184038
0.00176909
0.00170171
0.00163518
0.0015684
0.00150153
0.00143543
0.00137124
0.00131007
0.00125288
0.0012004
0.00115311
0.00111129
0.00107508
0.00104449
0.00101948
0.00099997
0.000985891
0.000978294
0.000975436
0.00097595
0.000984103
0.000997849
0.00101796
0.00104491
0.00107943
0.00112245
0.00117518
0.0012392
0.00131654
0.0014098
0.00152236
0.00165858
0.00182404
0.00202588
0.00227304
0.00257647
0.002949
0.00340466
0.00395702
0.00461604
0.00538326
0.00624562
0.00716949
0.00809868
0.00896445
0.00972095
0.0104013
0.0111898
0.01236
0.0147527
0.0200721
0.0295645
0.039725
0.0427828
0.037363
0.021967
0.00978032
0.007781
0.0231136
0.0122859
0.0112958
0.0114106
0.0115105
0.0113608
0.0108759
0.0100433
0.00891902
0.00763237
0.00633781
0.00517822
0.00423471
0.0035161
0.0029866
0.00260129
0.00232303
0.00212296
0.00197778
0.00186873
0.00178134
0.00170527
0.00163393
0.00156377
0.00149348
0.00142322
0.00135388
0.00128667
0.00122274
0.00116306
0.00110831
0.00105891
0.00101506
0.000976783
0.00094401
0.000916596
0.000894374
0.000877188
0.000864894
0.000858387
0.000855999
0.000856812
0.000864134
0.000876458
0.000894334
0.000918189
0.000948638
0.00098648
0.00103275
0.00108879
0.00115633
0.00123761
0.00133554
0.00145393
0.00159772
0.0017734
0.00198934
0.0022562
0.00258728
0.00299839
0.003507
0.00413006
0.0048797
0.0057566
0.00674139
0.00778675
0.0088156
0.0097374
0.0105172
0.0111691
0.0120525
0.0135652
0.0169831
0.0243097
0.036552
0.0432596
0.0429381
0.0282059
0.0125101
0.00893855
0.0241573
0.0129004
0.0117383
0.0117193
0.0116911
0.0113464
0.0106584
0.00960571
0.00832608
0.00696696
0.00568472
0.00459709
0.00374947
0.00312342
0.00267192
0.00234903
0.00211893
0.00195396
0.00183221
0.00173676
0.00165545
0.00158037
0.00150718
0.00143413
0.00136119
0.00128926
0.00121958
0.00115336
0.00109158
0.00103489
0.000983687
0.0009381
0.000898087
0.000863494
0.000834102
0.000809673
0.000789979
0.000774825
0.000764044
0.000758406
0.000756377
0.000757328
0.000763872
0.000774904
0.000790821
0.000812008
0.000838994
0.000872467
0.000913316
0.000962684
0.00102205
0.00109331
0.00117898
0.00128231
0.00140762
0.0015606
0.00174879
0.0019821
0.00227335
0.00263874
0.00309775
0.00367203
0.00438236
0.00524268
0.00625072
0.0073763
0.00855099
0.00966948
0.0106203
0.0113738
0.0120063
0.0130748
0.0152524
0.0205557
0.0309502
0.0427567
0.0459017
0.0353232
0.0159836
0.010356
0.0249292
0.0134122
0.0120603
0.0119146
0.0117509
0.0112577
0.0103539
0.00913304
0.00774371
0.00635341
0.00511054
0.00410383
0.00334706
0.00280226
0.00241655
0.00214457
0.00195207
0.00181281
0.00170668
0.00161899
0.00154001
0.00146411
0.00138883
0.00131378
0.00123973
0.00116795
0.00109969
0.00103596
0.000977459
0.000924545
0.000877317
0.000835682
0.000799427
0.000768273
0.000741925
0.0007201
0.000702548
0.000689064
0.000679483
0.000674472
0.000672683
0.000673606
0.000679404
0.000689249
0.000703437
0.000722313
0.000746342
0.00077612
0.000812416
0.000856214
0.000908778
0.000971739
0.00104723
0.00113803
0.00124786
0.00138164
0.00154601
0.00174986
0.00200503
0.00232711
0.00273596
0.00325566
0.00391287
0.00473238
0.00572864
0.00689249
0.00817538
0.00947709
0.0106542
0.0116115
0.0122576
0.0129516
0.0144075
0.0178869
0.026002
0.0400779
0.0470363
0.0425964
0.0204492
0.0122489
0.0254428
0.0138179
0.0122737
0.0120027
0.0117166
0.0110673
0.00999959
0.00864863
0.00718901
0.00579886
0.00461192
0.00368764
0.00301367
0.00253886
0.00220789
0.00197679
0.00181297
0.00169196
0.00159575
0.00151204
0.00143341
0.00135622
0.00127946
0.00120366
0.00113001
0.00105982
0.000994179
0.000933828
0.00087915
0.000830233
0.000786953
0.000749055
0.000716215
0.000688089
0.00066435
0.000644701
0.000628895
0.000616735
0.00060807
0.000603474
0.000601824
0.000602591
0.000607672
0.000616426
0.000629081
0.000645947
0.000667436
0.000694073
0.000726529
0.00076566
0.000812556
0.00086862
0.000935674
0.00101611
0.00111309
0.00123087
0.00137519
0.00155386
0.00177753
0.0020606
0.00242221
0.00288702
0.00348491
0.0042485
0.00520642
0.00637082
0.00771872
0.0091709
0.0105818
0.0117678
0.0125987
0.0131274
0.0141045
0.0163683
0.0224849
0.0351038
0.0471631
0.0485776
0.0261405
0.0146634
0.0256993
0.0141212
0.0123885
0.0119923
0.0116088
0.01081
0.00961502
0.00816981
0.00667256
0.00530497
0.00418255
0.00333756
0.00273714
0.00232183
0.00203589
0.0018371
0.00169473
0.0015863
0.00149609
0.00141414
0.00133509
0.0012569
0.00117961
0.00110426
0.0010322
0.000964596
0.000902276
0.000845682
0.000794927
0.00074988
0.00071026
0.000675708
0.000645842
0.000620293
0.000598726
0.000580854
0.000566443
0.000555315
0.000547333
0.000542989
0.000541398
0.000541931
0.000546331
0.000554086
0.000565379
0.000580488
0.000599782
0.000623728
0.000652922
0.000688114
0.000730256
0.000780565
0.000840613
0.000912453
0.000998803
0.00110331
0.00123092
0.00138843
0.00158521
0.00183422
0.00215324
0.00256615
0.00310383
0.00380344
0.00470419
0.00583704
0.00720606
0.00876224
0.0103759
0.0118303
0.0129555
0.0135387
0.0140727
0.0156331
0.019768
0.030157
0.0460275
0.0517338
0.0336867
0.0174729
0.0256861
0.0143215
0.0124153
0.0119252
0.0114155
0.0105083
0.0092168
0.00770896
0.00619996
0.00486991
0.00381489
0.00304342
0.00250719
0.00214192
0.00189264
0.00171908
0.00159248
0.00149253
0.0014058
0.00132447
0.00124494
0.00116638
0.0010895
0.0010156
0.000945944
0.000881483
0.000822759
0.000769946
0.000722935
0.000681439
0.000645073
0.000613424
0.000586084
0.000562685
0.000542903
0.000526468
0.000513167
0.000502837
0.00049536
0.000491151
0.000489565
0.000489827
0.000493587
0.000500435
0.000510515
0.00052408
0.000541463
0.000563086
0.000589483
0.00062132
0.00065944
0.00070491
0.0007591
0.000823789
0.000901319
0.000994827
0.00110857
0.00124843
0.00142258
0.00164248
0.00192423
0.00229016
0.00277055
0.00340444
0.00423794
0.00531693
0.00667076
0.00828514
0.0100675
0.0118198
0.0132461
0.0140371
0.0144702
0.0153913
0.0181314
0.0260948
0.0426861
0.0529936
0.0423831
0.0206365
0.0255461
0.0144508
0.0123857
0.0117788
0.0111701
0.0101773
0.00881761
0.00727422
0.00577328
0.00448982
0.00350124
0.00279621
0.00231529
0.00199177
0.00177208
0.00161801
0.00150287
0.00140855
0.00132379
0.00124265
0.00116294
0.0010847
0.00100903
0.000937248
0.000870464
0.000809364
0.000754224
0.000704993
0.000661401
0.000623054
0.000589511
0.000560332
0.000535113
0.000513495
0.000495174
0.000479904
0.000467488
0.00045778
0.000450679
0.00044652
0.000444897
0.000444898
0.000448063
0.000454086
0.000463086
0.000475288
0.000490997
0.000510597
0.000534571
0.000563523
0.000598204
0.000639566
0.000688815
0.000747508
0.000817683
0.000902053
0.0010043
0.00112948
0.00128471
0.00148003
0.00172976
0.00205429
0.00248222
0.00305242
0.00381449
0.00482479
0.00613353
0.00775868
0.00964676
0.0116296
0.0134077
0.0145076
0.0149795
0.0154159
0.017322
0.0232934
0.0381179
0.0531342
0.0507793
0.0236336
0.0252359
0.0145284
0.0123031
0.0115759
0.010886
0.00982964
0.00842698
0.00687051
0.00539213
0.00415989
0.00323432
0.00258823
0.00215451
0.00186558
0.00166963
0.0015305
0.00142363
0.00133303
0.00124942
0.00116844
0.00108898
0.00101166
0.000937757
0.000868503
0.000804776
0.000747012
0.000695259
0.000649297
0.00060874
0.00057313
0.000541999
0.000514906
0.000491457
0.000471315
0.000454197
0.000439877
0.000428177
0.000418967
0.00041216
0.000407987
0.00040624
0.00040608
0.000408681
0.00041396
0.000421995
0.000432989
0.000447221
0.000465045
0.000486902
0.000513344
0.000545054
0.000582888
0.000627926
0.000681546
0.00074554
0.000822276
0.000914946
0.00102794
0.00116741
0.00134212
0.0015647
0.00185343
0.00223472
0.00274585
0.00343734
0.00437213
0.00561715
0.00722078
0.0091724
0.0113479
0.0134624
0.0149944
0.0156351
0.0159244
0.017
0.0210738
0.0334287
0.052535
0.0570396
0.0258018
0.0247612
0.0145362
0.0121612
0.0113336
0.0105757
0.00947562
0.00805171
0.00650028
0.00505461
0.00387495
0.00300753
0.00241302
0.00201926
0.00175884
0.00158182
0.00145412
0.00135321
0.00126511
0.00118225
0.0011016
0.00102281
0.000946865
0.000875073
0.00080851
0.000747821
0.000693214
0.000644557
0.000601502
0.000563591
0.000530331
0.000501248
0.00047591
0.000453943
0.00043503
0.00041891
0.000405376
0.000394265
0.000385461
0.000378883
0.000374668
0.000372791
0.000372487
0.000374585
0.000379195
0.000386369
0.000396288
0.00040921
0.000425462
0.000445454
0.000469692
0.000498806
0.000533578
0.000574985
0.000624268
0.000683019
0.000753328
0.000837988
0.00094082
0.00106717
0.00122467
0.00142438
0.00168255
0.0020231
0.00248089
0.0031053
0.00396221
0.00512991
0.00668178
0.00864824
0.010959
0.0133861
0.0153901
0.0162608
0.0165236
0.0169692
0.0198345
0.0294536
0.0502529
0.0601327
0.0267119
0.0241464
0.014515
0.0119878
0.0110642
0.0102501
0.00912333
0.00769638
0.00616418
0.0047579
0.00362998
0.00281515
0.00226524
0.00190507
0.00166803
0.00150608
0.00138711
0.00129053
0.00120417
0.00112194
0.00104181
0.000964034
0.000889763
0.000820243
0.000756366
0.000698562
0.000646848
0.000600954
0.000560444
0.000524815
0.000493561
0.000466213
0.000442355
0.000421634
0.000403753
0.000388471
0.000375597
0.000364981
0.000356515
0.000350125
0.000345863
0.000343859
0.000343421
0.000345078
0.000349091
0.000355496
0.000364458
0.000376214
0.000391067
0.000409401
0.000431687
0.000458511
0.000490595
0.000528838
0.000574369
0.000628627
0.000693475
0.000771386
0.000865711
0.000981115
0.00112425
0.00130479
0.00153709
0.00184257
0.00225325
0.00281614
0.00359741
0.00468253
0.00616479
0.00811108
0.0104987
0.0131347
0.0156169
0.0169468
0.0173149
0.0174607
0.0192423
0.0269297
0.0465409
0.0612231
0.0268611
0.0234217
0.0144606
0.0117923
0.010778
0.00991787
0.00877891
0.00736375
0.00586166
0.0044988
0.00342029
0.00265223
0.00214051
0.0018084
0.00159045
0.00144046
0.00132817
0.00123479
0.00114972
0.00106811
0.000988723
0.000912184
0.000839733
0.0007725
0.000711189
0.000656039
0.000606918
0.000563451
0.000525145
0.000491473
0.000461927
0.00043605
0.000413446
0.00039378
0.000376775
0.000362206
0.000349894
0.000339701
0.000331525
0.000325296
0.000320998
0.000318875
0.000318309
0.000319585
0.000323068
0.00032879
0.000336897
0.000347611
0.000361215
0.000378067
0.000398612
0.000423398
0.0004531
0.000488555
0.000530805
0.000581168
0.00064133
0.000713504
0.000800661
0.0009069
0.00103804
0.00120255
0.00141305
0.00168859
0.00205819
0.00256569
0.00327544
0.00427619
0.00567595
0.00757541
0.0100075
0.0128429
0.0156933
0.017577
0.0181004
0.0180958
0.0190325
0.0247593
0.0428127
0.0612514
0.0264608
0.0226203
0.0143794
0.0115834
0.0104839
0.00958643
0.00844691
0.00705528
0.00559133
0.00427386
0.00324163
0.00251463
0.00203525
0.0017264
0.00152396
0.00138346
0.00127633
0.00118536
0.00110132
0.00102038
0.000941895
0.00086673
0.000796132
0.000731098
0.000672161
0.000619399
0.000572563
0.000531205
0.000494794
0.000462793
0.000434701
0.000410076
0.00038854
0.000369774
0.000353519
0.000339563
0.000327738
0.000317912
0.000309988
0.000303899
0.000299604
0.000297359
0.000296674
0.000297623
0.000300639
0.000305752
0.000313098
0.00032288
0.000335365
0.000350889
0.000369872
0.000392831
0.000420405
0.00045338
0.000492731
0.00053968
0.000595777
0.000663028
0.000744098
0.000842622
0.000963722
0.00111483
0.00130703
0.00155721
0.00189142
0.00234996
0.00299406
0.00391257
0.0052226
0.00705093
0.00947931
0.0124493
0.0156601
0.0181368
0.018993
0.0189478
0.0190862
0.0233097
0.0392212
0.0594781
0.0257619
0.0217649
0.0142856
0.011369
0.0101892
0.00926144
0.00813053
0.00677143
0.00535135
0.0040798
0.00309021
0.00239886
0.00194657
0.00165683
0.00146693
0.00133393
0.0012308
0.00114171
0.00105858
0.000978364
0.000900874
0.00082713
0.000758332
0.000695346
0.000638551
0.0005879
0.000543052
0.00050351
0.000468721
0.000438146
0.000411293
0.000387737
0.000367113
0.000349121
0.000333514
0.000320091
0.000308692
0.00029919
0.000291491
0.000285528
0.00028126
0.0002789
0.000278104
0.000278777
0.000281383
0.000285958
0.000292625
0.000301574
0.000313055
0.000327385
0.000344963
0.000366278
0.000391939
0.00042269
0.000459456
0.000503383
0.000555914
0.000618898
0.000694753
0.00078674
0.000899404
0.0010393
0.00121617
0.00144493
0.00174888
0.00216464
0.0027495
0.00359024
0.00480893
0.00655317
0.00894858
0.0119972
0.015452
0.0185658
0.0198612
0.0199081
0.0196689
0.0223495
0.0360247
0.0569716
0.0248574
0.0208687
0.0141949
0.011158
0.00990026
0.00894742
0.00783198
0.00651204
0.00513945
0.00391352
0.00296285
0.00230202
0.00187213
0.0015979
0.00141803
0.00129097
0.00119097
0.00110339
0.00102108
0.000941645
0.000865201
0.000792855
0.000725747
0.000664617
0.00060972
0.000560907
0.000517772
0.000479783
0.000446376
0.000417014
0.000391219
0.000368576
0.000348737
0.000331414
0.000316371
0.000303414
0.000292391
0.000283178
0.000275683
0.000269839
0.000265605
0.000263145
0.000262248
0.000262687
0.000264936
0.000269035
0.0002751
0.000283305
0.000293887
0.000307144
0.000323455
0.000343287
0.00036722
0.000395967
0.000430409
0.000471636
0.00052101
0.000580254
0.000651599
0.000738005
0.000843546
0.000974032
0.00113807
0.00134884
0.00162706
0.00200579
0.00253795
0.00330654
0.00443477
0.00608512
0.00842346
0.0115183