/*--------------------------------*- C++ -*----------------------------------*\
  =========                 |
  \\      /  F ield         | OpenFOAM: The Open Source CFD Toolbox
   \\    /   O peration     | Website:  https://openfoam.org
    \\  /    A nd           | Version:  13
     \\/     M anipulation  |
\*---------------------------------------------------------------------------*/
FoamFile
{
    format      ascii;
    class       surfaceScalarField;
    location    "4.6";
    object      phi;
}
// * * * * * * * * * * * * * * * * * * * * * * * * * * * * * * * * * * * * * //

dimensions      [0 3 -1 0 0 0 0];

internalField   nonuniform List<scalar> 
12640
(
1.69336e-09
-1.69409e-09
1.41218e-08
-1.24284e-08
3.57344e-08
-2.16126e-08
6.07204e-08
-2.49861e-08
8.34546e-08
-2.27342e-08
1.00694e-07
-1.7239e-08
1.11194e-07
-1.05001e-08
1.15655e-07
-4.46172e-09
1.16047e-07
-3.9195e-10
1.14448e-07
1.59895e-09
1.12608e-07
1.84053e-09
1.11679e-07
9.29352e-10
1.12055e-07
-3.7654e-10
1.13528e-07
-1.47302e-09
1.15405e-07
-1.87705e-09
1.16891e-07
-1.48607e-09
1.17205e-07
-3.13514e-10
1.1589e-07
1.31512e-09
1.12215e-07
3.6742e-09
1.05335e-07
6.88036e-09
9.46225e-08
1.07126e-08
7.95822e-08
1.50402e-08
5.97652e-08
1.98171e-08
3.50013e-08
2.47638e-08
5.30124e-09
2.97001e-08
-2.94648e-08
3.4766e-08
-7.02024e-08
4.07377e-08
-1.18732e-07
4.85298e-08
-1.77473e-07
5.87408e-08
-2.48693e-07
7.12199e-08
-3.32512e-07
8.3819e-08
-4.26582e-07
9.40703e-08
-5.27942e-07
1.0136e-07
-6.3363e-07
1.05689e-07
-7.409e-07
1.0727e-07
-8.4729e-07
1.06389e-07
-9.50678e-07
1.03389e-07
-1.04931e-06
9.86291e-08
-1.14173e-06
9.24185e-08
-1.22678e-06
8.50533e-08
-1.30353e-06
7.67489e-08
-1.37119e-06
6.76582e-08
-1.42908e-06
5.78971e-08
-1.47659e-06
4.75091e-08
-1.51308e-06
3.64909e-08
-1.53787e-06
2.4782e-08
-1.551e-06
1.31324e-08
-1.55217e-06
1.17474e-09
-1.53961e-06
-1.25635e-08
-1.51405e-06
-2.5562e-08
-1.47419e-06
-3.98588e-08
-1.42023e-06
-5.39598e-08
-1.35194e-06
-6.8291e-08
-1.26966e-06
-8.22745e-08
-1.17388e-06
-9.57781e-08
-1.06535e-06
-1.08535e-07
-9.45078e-07
-1.20273e-07
-8.1456e-07
-1.30518e-07
-6.75749e-07
-1.38811e-07
-5.3122e-07
-1.4453e-07
-3.84109e-07
-1.4711e-07
-2.38095e-07
-1.46014e-07
-9.71761e-08
-1.40919e-07
3.45718e-08
-1.31748e-07
1.53325e-07
-1.18753e-07
2.54432e-07
-1.01107e-07
3.34444e-07
-8.00124e-08
3.90407e-07
-5.59633e-08
4.20487e-07
-3.00801e-08
4.23571e-07
-3.08334e-09
4.01535e-07
2.20353e-08
3.56614e-07
4.49215e-08
2.93888e-07
6.27256e-08
2.22032e-07
7.18559e-08
1.52161e-07
6.98712e-08
9.18575e-08
6.03035e-08
4.57188e-08
4.61388e-08
1.52072e-08
3.05115e-08
9.0862e-10
1.42986e-08
9.08619e-10
9.75181e-09
-1.14459e-08
3.96106e-08
-4.22872e-08
8.11526e-08
-6.31546e-08
1.23968e-07
-6.78019e-08
1.61027e-07
-5.97926e-08
1.8871e-07
-4.49217e-08
2.06289e-07
-2.80792e-08
2.14621e-07
-1.27943e-08
2.15353e-07
-1.12386e-09
2.10578e-07
6.37397e-09
2.02346e-07
1.00728e-08
1.92039e-07
1.12365e-08
1.80131e-07
1.1531e-08
1.66158e-07
1.25004e-08
1.49188e-07
1.50925e-08
1.28156e-07
1.95464e-08
1.02234e-07
2.56077e-08
7.03351e-08
3.32143e-08
3.13331e-08
4.26762e-08
-1.60996e-08
5.4313e-08
-7.37044e-08
6.83174e-08
-1.43241e-07
8.45769e-08
-2.2593e-07
1.02506e-07
-3.2256e-07
1.21394e-07
-4.33664e-07
1.40803e-07
-5.59195e-07
1.60297e-07
-6.97536e-07
1.79079e-07
-8.45234e-07
1.96228e-07
-9.97818e-07
2.11325e-07
-1.15012e-06
2.2352e-07
-1.2983e-06
2.32005e-07
-1.4407e-06
2.36469e-07
-1.57603e-06
2.36689e-07
-1.70298e-06
2.32632e-07
-1.82045e-06
2.24742e-07
-1.92769e-06
2.13632e-07
-2.02416e-06
1.99854e-07
-2.10948e-06
1.83956e-07
-2.18342e-06
1.66357e-07
-2.24579e-06
1.47424e-07
-2.29646e-06
1.27423e-07
-2.33531e-06
1.06505e-07
-2.3622e-06
8.47855e-08
-2.377e-06
6.23111e-08
-2.37963e-06
3.91185e-08
-2.36998e-06
1.51352e-08
-2.34744e-06
-9.40581e-09
-2.31195e-06
-3.4316e-08
-2.2638e-06
-6.0713e-08
-2.20198e-06
-8.73894e-08
-2.12701e-06
-1.14824e-07
-2.03843e-06
-1.42543e-07
-1.93632e-06
-1.70403e-07
-1.82059e-06
-1.98002e-07
-1.69147e-06
-2.24893e-07
-1.54959e-06
-2.50421e-07
-1.3961e-06
-2.73759e-07
-1.23247e-06
-2.94148e-07
-1.06076e-06
-3.10524e-07
-8.83412e-07
-3.21875e-07
-7.03285e-07
-3.27238e-07
-5.23602e-07
-3.25696e-07
-3.47997e-07
-3.16525e-07
-1.80223e-07
-2.99522e-07
-2.4378e-08
-2.74598e-07
1.16538e-07
-2.42023e-07
2.38724e-07
-2.02199e-07
3.39124e-07
-1.56363e-07
4.15117e-07
-1.06073e-07
4.65145e-07
-5.31123e-08
4.88783e-07
-1.60182e-09
4.8426e-07
4.94436e-08
4.5425e-07
9.27361e-08
4.00452e-07
1.25654e-07
3.25207e-07
1.45116e-07
2.37687e-07
1.47823e-07
1.49873e-07
1.33953e-07
7.42257e-08
1.06159e-07
2.17093e-08
6.68151e-08
2.26179e-08
1.80814e-08
-2.95273e-08
6.02406e-08
-8.44464e-08
1.0841e-07
-1.11324e-07
1.51515e-07
-1.10907e-07
1.85104e-07
-9.33813e-08
2.08069e-07
-6.78871e-08
2.20915e-07
-4.09246e-08
2.24516e-07
-1.63956e-08
2.19935e-07
3.4574e-09
2.08424e-07
1.78843e-08
1.91319e-07
2.71782e-08
1.69197e-07
3.33581e-08
1.41915e-07
3.88136e-08
1.08767e-07
4.56481e-08
6.86804e-08
5.51791e-08
2.03564e-08
6.78704e-08
-3.7786e-08
8.37502e-08
-1.07437e-07
1.02865e-07
-1.9002e-07
1.25259e-07
-2.86737e-07
1.5103e-07
-3.98187e-07
1.79768e-07
-5.24156e-07
2.10545e-07
-6.63766e-07
2.42117e-07
-8.15124e-07
2.72751e-07
-9.7534e-07
3.01019e-07
-1.14067e-06
3.25624e-07
-1.30715e-06
3.45558e-07
-1.47109e-06
3.60172e-07
-1.62904e-06
3.69275e-07
-1.77828e-06
3.72762e-07
-1.91705e-06
3.70769e-07
-2.04417e-06
3.63595e-07
-2.15928e-06
3.51796e-07
-2.26261e-06
3.35965e-07
-2.35446e-06
3.16588e-07
-2.43513e-06
2.94302e-07
-2.50493e-06
2.69656e-07
-2.56414e-06
2.43161e-07
-2.61295e-06
2.1517e-07
-2.65152e-06
1.85991e-07
-2.67994e-06
1.5585e-07
-2.69826e-06
1.24822e-07
-2.70643e-06
9.29553e-08
-2.70435e-06
6.02354e-08
-2.69185e-06
2.66176e-08
-2.6688e-06
-7.91476e-09
-2.63486e-06
-4.33523e-08
-2.58935e-06
-7.98204e-08
-2.53255e-06
-1.17512e-07
-2.46379e-06
-1.56152e-07
-2.38285e-06
-1.95769e-07
-2.28944e-06
-2.35953e-07
-2.18344e-06
-2.76402e-07
-2.0648e-06
-3.16637e-07
-1.9337e-06
-3.55998e-07
-1.79056e-06
-3.93555e-07
-1.63616e-06
-4.28165e-07
-1.47166e-06
-4.58647e-07
-1.2986e-06
-4.83583e-07
-1.11913e-06
-5.01348e-07
-9.35856e-07
-5.10509e-07
-7.51844e-07
-5.09708e-07
-5.70606e-07
-4.97763e-07
-3.95843e-07
-4.74285e-07
-2.31156e-07
-4.39285e-07
-7.98369e-08
-3.93341e-07
5.51281e-08
-3.37164e-07
1.71065e-07
-2.723e-07
2.65835e-07
-2.00843e-07
3.38462e-07
-1.25739e-07
3.87123e-07
-5.02624e-08
4.12981e-07
2.35848e-08
4.13862e-07
9.18556e-08
3.90482e-07
1.49034e-07
3.44282e-07
1.91316e-07
2.78387e-07
2.13718e-07
1.98562e-07
2.13777e-07
1.1486e-07
1.89862e-07
4.08754e-08
1.408e-07
6.34932e-08
2.49411e-08
-5.44684e-08
7.32277e-08
-1.32733e-07
1.19763e-07
-1.5786e-07
1.56066e-07
-1.4721e-07
1.80572e-07
-1.17887e-07
1.94204e-07
-8.15197e-08
1.98014e-07
-4.47344e-08
1.92998e-07
-1.13795e-08
1.79858e-07
1.65977e-08
1.59095e-07
3.86473e-08
1.30486e-07
5.57874e-08
9.35999e-08
7.02437e-08
4.77428e-08
8.46708e-08
-7.96054e-09
1.01351e-07
-7.45214e-08
1.2174e-07
-1.53171e-07
1.4652e-07
-2.45304e-07
1.75883e-07
-3.52142e-07
2.09703e-07
-4.74311e-07
2.47428e-07
-6.11571e-07
2.88291e-07
-7.62557e-07
3.30753e-07
-9.24485e-07
3.72474e-07
-1.09402e-06
4.11646e-07
-1.26723e-06
4.45965e-07
-1.44026e-06
4.74047e-07
-1.60939e-06
4.94758e-07
-1.77117e-06
5.07338e-07
-1.92284e-06
5.11843e-07
-2.06272e-06
5.0915e-07
-2.19012e-06
5.00167e-07
-2.30506e-06
4.85703e-07
-2.40797e-06
4.66511e-07
-2.49942e-06
4.43244e-07
-2.58005e-06
4.16592e-07
-2.65054e-06
3.8708e-07
-2.71149e-06
3.55252e-07
-2.76338e-06
3.21543e-07
-2.80655e-06
2.86333e-07
-2.84125e-06
2.49874e-07
-2.86764e-06
2.12385e-07
-2.88579e-06
1.73991e-07
-2.89566e-06
1.347e-07
-2.89719e-06
9.44769e-08
-2.89016e-06
5.32127e-08
-2.87432e-06
1.07755e-08
-2.8494e-06
-3.28363e-08
-2.81499e-06
-7.77634e-08
-2.77066e-06
-1.24144e-07
-2.71616e-06
-1.72014e-07
-2.65098e-06
-2.21336e-07
-2.57463e-06
-2.72112e-07
-2.48669e-06
-3.23895e-07
-2.38688e-06
-3.7622e-07
-2.27496e-06
-4.28557e-07
-2.15081e-06
-4.80147e-07
-2.01447e-06
-5.29894e-07
-1.86634e-06
-5.76287e-07
-1.70731e-06
-6.17681e-07
-1.53848e-06
-6.52416e-07
-1.36154e-06
-6.7829e-07
-1.17872e-06
-6.93327e-07
-9.92761e-07
-6.95666e-07
-8.06982e-07
-6.83542e-07
-6.2536e-07
-6.55908e-07
-4.52032e-07
-6.12613e-07
-2.90604e-07
-5.54769e-07
-1.4416e-07
-4.83608e-07
-1.54884e-08
-4.00971e-07
9.35208e-08
-3.09852e-07
1.81355e-07
-2.13573e-07
2.47097e-07
-1.16005e-07
2.91326e-07
-2.06439e-08
3.14398e-07
6.8784e-08
3.15648e-07
1.47784e-07
2.95109e-07
2.11856e-07
2.53206e-07
2.55621e-07
1.93504e-07
2.7348e-07
1.21419e-07
2.61947e-07
4.71982e-08
2.1502e-07
1.10691e-07
3.02201e-08
-8.46885e-08
7.84072e-08
-1.8092e-07
1.17349e-07
-1.96802e-07
1.43228e-07
-1.73088e-07
1.56436e-07
-1.31095e-07
1.5892e-07
-8.40035e-08
1.51914e-07
-3.77284e-08
1.36113e-07
4.42085e-09
1.11625e-07
4.10866e-08
7.80912e-08
7.21806e-08
3.46448e-08
9.92338e-08
-1.97849e-08
1.24673e-07
-8.62721e-08
1.51158e-07
-1.65823e-07
1.80902e-07
-2.59391e-07
2.15308e-07
-3.67816e-07
2.54945e-07
-4.91619e-07
2.99686e-07
-6.30703e-07
3.48787e-07
-7.83925e-07
4.0065e-07
-9.48707e-07
4.53072e-07
-1.12168e-06
5.03729e-07
-1.29862e-06
5.49415e-07
-1.47551e-06
5.88529e-07
-1.64833e-06
6.18786e-07
-1.81291e-06
6.38626e-07
-1.9663e-06
6.48148e-07
-2.1072e-06
6.48241e-07
-2.23546e-06
6.40104e-07
-2.35138e-06
6.25067e-07
-2.45558e-06
6.04365e-07
-2.54881e-06
5.78942e-07
-2.6319e-06
5.49596e-07
-2.70557e-06
5.16913e-07
-2.77047e-06
4.81495e-07
-2.82723e-06
4.43838e-07
-2.87633e-06
4.04353e-07
-2.91817e-06
3.63381e-07
-2.95304e-06
3.21206e-07
-2.9811e-06
2.77931e-07
-3.0024e-06
2.33686e-07
-3.017e-06
1.8859e-07
-3.02484e-06
1.42541e-07
-3.02582e-06
9.54545e-08
-3.01977e-06
4.71597e-08
-3.00632e-06
-2.67322e-09
-2.98526e-06
-5.38908e-08
-2.95601e-06
-1.07012e-07
-2.91812e-06
-1.62036e-07
-2.87116e-06
-2.18977e-07
-2.81471e-06
-2.77784e-07
-2.7482e-06
-3.38623e-07
-2.67085e-06
-4.01246e-07
-2.58214e-06
-4.64925e-07
-2.48166e-06
-5.29036e-07
-2.36898e-06
-5.92827e-07
-2.24369e-06
-6.55186e-07
-2.10575e-06
-7.14233e-07
-1.95571e-06
-7.67717e-07
-1.7942e-06
-8.13923e-07
-1.62239e-06
-8.501e-07
-1.44217e-06
-8.73552e-07
-1.25585e-06
-8.81981e-07
-1.06641e-06
-8.72989e-07
-8.77345e-07
-8.44968e-07
-6.93201e-07
-7.96757e-07
-5.18857e-07
-7.29113e-07
-3.57985e-07
-6.4448e-07
-2.13735e-07
-5.45221e-07
-8.87876e-08
-4.348e-07
1.51511e-08
-3.17512e-07
9.72173e-08
-1.98071e-07
1.57544e-07
-8.09707e-08
1.96973e-07
2.93556e-08
2.16102e-07
1.28654e-07
2.15468e-07
2.12489e-07
1.95488e-07
2.75601e-07
1.57091e-07
3.11877e-07
1.03179e-07
3.15859e-07
4.13145e-08
2.76884e-07
1.52006e-07
3.33623e-08
-1.18051e-07
7.55653e-08
-2.23123e-07
1.03016e-07
-2.24252e-07
1.16025e-07
-1.86097e-07
1.16886e-07
-1.31957e-07
1.07433e-07
-7.45501e-08
8.85802e-08
-1.88756e-08
6.04383e-08
3.25627e-08
2.26204e-08
7.89045e-08
-2.5911e-08
1.20712e-07
-8.64206e-08
1.59743e-07
-1.60192e-07
1.98445e-07
-2.48339e-07
2.39305e-07
-3.5169e-07
2.84253e-07
-4.70704e-07
3.34323e-07
-6.05284e-07
3.89525e-07
-7.5461e-07
4.49013e-07
-9.16788e-07
5.10965e-07
-1.08878e-06
5.7264e-07
-1.26639e-06
6.3068e-07
-1.44532e-06
6.82662e-07
-1.62115e-06
7.25249e-07
-1.78877e-06
7.56143e-07
-1.94476e-06
7.74779e-07
-2.08785e-06
7.81711e-07
-2.21799e-06
7.78288e-07
-2.33581e-06
7.66065e-07
-2.44225e-06
7.46541e-07
-2.53819e-06
7.21013e-07
-2.62446e-06
6.90628e-07
-2.70177e-06
6.5626e-07
-2.77082e-06
6.18645e-07
-2.83226e-06
5.78354e-07
-2.88666e-06
5.35888e-07
-2.93447e-06
4.91648e-07
-2.97603e-06
4.45916e-07
-3.01166e-06
3.99005e-07
-3.0416e-06
3.51155e-07
-3.06593e-06
3.02255e-07
-3.08462e-06
2.52375e-07
-3.09781e-06
2.01786e-07
-3.10546e-06
1.50186e-07
-3.10748e-06
9.7479e-08
-3.10377e-06
4.34497e-08
-3.0942e-06
-1.22419e-08
-3.07861e-06
-6.94882e-08
-3.05665e-06
-1.28967e-07
-3.02788e-06
-1.90812e-07
-2.99162e-06
-2.55234e-07
-2.94714e-06
-3.22262e-07
-2.89384e-06
-3.91922e-07
-2.8307e-06
-4.64385e-07
-2.75679e-06
-5.38836e-07
-2.67128e-06
-6.14546e-07
-2.5736e-06
-6.90509e-07
-2.46326e-06
-7.65524e-07
-2.33954e-06
-8.37958e-07
-2.20231e-06
-9.04939e-07
-2.05165e-06
-9.64587e-07
-1.88816e-06
-1.01359e-06
-1.71337e-06
-1.04835e-06
-1.52895e-06
-1.0664e-06
-1.33777e-06
-1.06417e-06
-1.14302e-06
-1.03972e-06
-9.48748e-07
-9.91029e-07
-7.60164e-07
-9.17698e-07
-5.82603e-07
-8.2204e-07
-4.20168e-07
-7.07656e-07
-2.76307e-07
-5.78661e-07
-1.53573e-07
-4.40246e-07
-5.34642e-08
-2.9818e-07
2.38411e-08
-1.58276e-07
7.92087e-08
-2.6012e-08
1.14092e-07
9.37713e-08
1.29909e-07
1.96672e-07
1.27541e-07
2.77968e-07
1.07682e-07
3.31737e-07
7.27032e-08
3.50837e-07
2.88617e-08
3.20726e-07
1.80868e-07
3.34848e-08
-1.51536e-07
6.45333e-08
-2.54172e-07
7.83929e-08
-2.38112e-07
7.75842e-08
-1.85289e-07
6.55017e-08
-1.19874e-07
4.34942e-08
-5.25426e-08
1.18745e-08
1.27441e-08
-2.97766e-08
7.42139e-08
-8.2401e-08
1.31529e-07
-1.47287e-07
1.85598e-07
-2.25807e-07
2.38263e-07
-3.19161e-07
2.91799e-07
-4.28166e-07
3.4831e-07
-5.53097e-07
4.09184e-07
-6.93502e-07
4.74728e-07
-8.4812e-07
5.44142e-07
-1.01453e-06
6.1542e-07
-1.1891e-06
6.85534e-07
-1.36743e-06
7.50972e-07
-1.54484e-06
8.08086e-07
-1.71563e-06
8.53462e-07
-1.87559e-06
8.85202e-07
-2.02256e-06
9.03114e-07
-2.15632e-06
9.08541e-07
-2.27751e-06
9.02897e-07
-2.38708e-06
8.87864e-07
-2.48608e-06
8.6506e-07
-2.57545e-06
8.35914e-07
-2.65605e-06
8.01614e-07
-2.72858e-06
7.6316e-07
-2.79367e-06
7.21352e-07
-2.85187e-06
6.76843e-07
-2.90368e-06
6.30158e-07
-2.94951e-06
5.81723e-07
-2.98976e-06
5.31893e-07
-3.02454e-06
4.80704e-07
-3.05414e-06
4.28602e-07
-3.07878e-06
3.75797e-07
-3.09891e-06
3.2238e-07
-3.11473e-06
2.68203e-07
-3.12603e-06
2.13082e-07
-3.13276e-06
1.56912e-07
-3.13479e-06
9.95096e-08
-3.13196e-06
4.06212e-08
-3.12428e-06
-1.99253e-08
-3.11167e-06
-8.209e-08
-3.09414e-06
-1.46499e-07
-3.07157e-06
-2.13389e-07
-3.04379e-06
-2.8301e-07
-3.01039e-06
-3.55664e-07
-2.97092e-06
-4.31391e-07
-2.92489e-06
-5.10414e-07
-2.87091e-06
-5.92813e-07
-2.80735e-06
-6.78104e-07
-2.73237e-06
-7.65494e-07
-2.64407e-06
-8.53826e-07
-2.54078e-06
-9.41241e-07
-2.42195e-06
-1.02378e-06
-2.28774e-06
-1.09879e-06
-2.13845e-06
-1.16287e-06
-1.97438e-06
-1.21242e-06
-1.79665e-06
-1.24413e-06
-1.60778e-06
-1.25303e-06
-1.41062e-06
-1.23688e-06
-1.20884e-06
-1.1928e-06
-1.00741e-06
-1.11913e-06
-8.12663e-07
-1.01679e-06
-6.30489e-07
-8.8983e-07
-4.65447e-07
-7.43703e-07
-3.2124e-07
-5.84453e-07
-2.00399e-07
-4.19021e-07
-1.03993e-07
-2.54682e-07
-3.15413e-08
-9.8464e-08
1.87172e-08
4.35129e-08
4.9071e-08
1.66318e-07
6.15429e-08
2.65497e-07
5.76284e-08
3.35652e-07
3.9717e-08
3.68749e-07
1.42091e-08
3.46234e-07
1.95077e-07
2.95459e-08
-1.81081e-07
4.67071e-08
-2.71333e-07
4.57218e-08
-2.37126e-07
3.07378e-08
-1.70305e-07
5.41097e-09
-9.45472e-08
-2.96261e-08
-1.75055e-08
-7.47054e-08
5.78233e-08
-1.3069e-07
1.30199e-07
-1.98793e-07
1.99631e-07
-2.80337e-07
2.67142e-07
-3.76521e-07
3.34448e-07
-4.88177e-07
4.03455e-07
-6.15529e-07
4.75662e-07
-7.58025e-07
5.51681e-07
-9.14198e-07
6.30901e-07
-1.08129e-06
7.11232e-07
-1.25533e-06
7.89464e-07
-1.43166e-06
8.61867e-07
-1.60471e-06
9.24013e-07
-1.76912e-06
9.72505e-07
-1.92143e-06
1.00577e-06
-2.06056e-06
1.02433e-06
-2.1867e-06
1.02925e-06
-2.30063e-06
1.02248e-06
-2.40338e-06
1.00565e-06
-2.49607e-06
9.80555e-07
-2.57967e-06
9.48656e-07
-2.65498e-06
9.11223e-07
-2.72268e-06
8.6931e-07
-2.78332e-06
8.23804e-07
-2.8374e-06
7.75436e-07
-2.88535e-06
7.24789e-07
-2.9275e-06
6.72312e-07
-2.96414e-06
6.1836e-07
-2.99578e-06
5.6353e-07
-3.02313e-06
5.08059e-07
-3.04651e-06
4.5198e-07
-3.06587e-06
3.95151e-07
-3.08113e-06
3.37643e-07
-3.09246e-06
2.79538e-07
-3.09991e-06
2.20531e-07
-3.10365e-06
1.60649e-07
-3.10381e-06
9.96749e-08
-3.10053e-06
3.734e-08
-3.09393e-06
-2.65286e-08
-3.08397e-06
-9.20486e-08
-3.07055e-06
-1.59918e-07
-3.05353e-06
-2.30412e-07
-3.03264e-06
-3.03902e-07
-3.00756e-06
-3.80746e-07
-2.97779e-06
-4.61154e-07
-2.94305e-06
-5.45152e-07
-2.90281e-06
-6.33053e-07
-2.85639e-06
-7.24526e-07
-2.80289e-06
-8.18996e-07
-2.74115e-06
-9.15565e-07
-2.66896e-06
-1.01343e-06
-2.58166e-06
-1.11108e-06
-2.47566e-06
-1.20479e-06
-2.34954e-06
-1.28899e-06
-2.20403e-06
-1.35794e-06
-2.04116e-06
-1.407e-06
-1.86171e-06
-1.43249e-06
-1.66838e-06
-1.43021e-06
-1.46432e-06
-1.39686e-06
-1.25428e-06
-1.32917e-06
-1.04419e-06
-1.22689e-06
-8.41954e-07
-1.09206e-06
-6.54367e-07
-9.31291e-07
-4.86454e-07
-7.52366e-07
-3.42133e-07
-5.63342e-07
-2.23806e-07
-3.73008e-07
-1.32023e-07
-1.90247e-07
-6.54078e-08
-2.31025e-08
-2.09381e-08
1.21848e-07
4.68962e-09
2.39869e-07
1.41139e-08
3.26227e-07
1.1169e-08
3.71693e-07
1.92593e-09
3.55477e-07
1.97003e-07
2.17573e-08
-2.02839e-07
2.35251e-08
-2.73101e-07
6.83808e-09
-2.20439e-07
-2.18959e-08
-1.41571e-07
-6.05076e-08
-5.59355e-08
-1.08893e-07
3.08797e-08
-1.6779e-07
1.1672e-07
-2.38336e-07
2.00745e-07
-3.21776e-07
2.83071e-07
-4.19244e-07
3.6461e-07
-5.31551e-07
4.46755e-07
-6.5893e-07
5.30834e-07
-8.0086e-07
6.17592e-07
-9.5589e-07
7.0671e-07
-1.12115e-06
7.96159e-07
-1.29248e-06
8.82567e-07
-1.46494e-06
9.6192e-07
-1.63256e-06
1.02949e-06
-1.79056e-06
1.08201e-06
-1.93628e-06
1.11822e-06
-2.06885e-06
1.13834e-06
-2.18853e-06
1.14401e-06
-2.29625e-06
1.13697e-06
-2.39307e-06
1.1193e-06
-2.48007e-06
1.09265e-06
-2.5582e-06
1.05868e-06
-2.62821e-06
1.01867e-06
-2.69076e-06
9.73771e-07
-2.74638e-06
9.24932e-07
-2.79555e-06
8.72976e-07
-2.8387e-06
8.18584e-07
-2.87626e-06
7.6235e-07
-2.9088e-06
7.04848e-07
-2.93686e-06
6.46424e-07
-2.96047e-06
5.87139e-07
-2.97972e-06
5.27302e-07
-2.99465e-06
4.66919e-07
-3.00569e-06
4.06183e-07
-3.01326e-06
3.45221e-07
-3.01768e-06
2.83956e-07
-3.01934e-06
2.22194e-07
-3.0185e-06
1.59806e-07
-3.01538e-06
9.65509e-08
-3.01017e-06
3.21282e-08
-3.00299e-06
-3.37054e-08
-2.99375e-06
-1.0129e-07
-2.98252e-06
-1.71148e-07
-2.96929e-06
-2.43639e-07
-2.954e-06
-3.19189e-07
-2.93655e-06
-3.98203e-07
-2.91668e-06
-4.81019e-07
-2.89392e-06
-5.67909e-07
-2.86779e-06
-6.59184e-07
-2.83745e-06
-7.5487e-07
-2.80174e-06
-8.54701e-07
-2.75938e-06
-9.57931e-07
-2.70951e-06
-1.0633e-06
-2.65053e-06
-1.17006e-06
-2.58019e-06
-1.27512e-06
-2.49288e-06
-1.3763e-06
-2.38172e-06
-1.4691e-06
-2.24496e-06
-1.54376e-06
-2.08439e-06
-1.59306e-06
-1.90411e-06
-1.61049e-06
-1.70576e-06
-1.59521e-06
-1.49415e-06
-1.54077e-06
-1.27449e-06
-1.44655e-06
-1.05441e-06
-1.31214e-06
-8.43739e-07
-1.14196e-06
-6.50478e-07
-9.45626e-07
-4.80168e-07
-7.33653e-07
-3.36817e-07
-5.16359e-07
-2.22551e-07
-3.04512e-07
-1.36988e-07
-1.08666e-07
-7.75362e-08
6.23964e-08
-3.97066e-08
2.02039e-07
-1.88266e-08
3.05347e-07
-9.09509e-09
3.61962e-07
-5.41115e-09
3.51793e-07
1.91591e-07
1.0989e-08
-2.13828e-07
-3.78011e-09
-2.58332e-07
-3.52651e-08
-1.88954e-07
-7.77283e-08
-9.91077e-08
-1.29659e-07
-4.0044e-09
-1.9139e-07
9.26103e-08
-2.63995e-07
1.89325e-07
-3.4867e-07
2.85421e-07
-4.46499e-07
3.80899e-07
-5.58253e-07
4.76364e-07
-6.84183e-07
5.72684e-07
-8.23861e-07
6.70511e-07
-9.75976e-07
7.69708e-07
-1.1377e-06
8.6843e-07
-1.30483e-06
9.6329e-07
-1.47231e-06
1.05005e-06
-1.63444e-06
1.12405e-06
-1.78674e-06
1.18179e-06
-1.92682e-06
1.22209e-06
-2.05377e-06
1.24517e-06
-2.16793e-06
1.25251e-06
-2.27018e-06
1.24626e-06
-2.36163e-06
1.22843e-06
-2.44327e-06
1.20094e-06
-2.51601e-06
1.16538e-06
-2.58055e-06
1.12322e-06
-2.6375e-06
1.07562e-06
-2.6874e-06
1.02367e-06
-2.73075e-06
9.68281e-07
-2.76802e-06
9.10247e-07
-2.79969e-06
8.50252e-07
-2.8262e-06
7.88863e-07
-2.84784e-06
7.26479e-07
-2.86491e-06
6.63499e-07
-2.87788e-06
6.00111e-07
-2.88723e-06
5.36649e-07
-2.89351e-06
4.73198e-07
-2.89711e-06
4.09782e-07
-2.89829e-06
3.46404e-07
-2.89732e-06
2.82987e-07
-2.89449e-06
2.19359e-07
-2.89001e-06
1.55328e-07
-2.88408e-06
9.06245e-08
-2.87689e-06
2.49358e-08
-2.86857e-06
-4.20207e-08
-2.85922e-06
-1.10644e-07
-2.849e-06
-1.81367e-07
-2.83803e-06
-2.54608e-07
-2.8264e-06
-3.30824e-07
-2.81414e-06
-4.10461e-07
-2.8012e-06
-4.93954e-07
-2.78739e-06
-5.81723e-07
-2.77242e-06
-6.74156e-07
-2.75579e-06
-7.71496e-07
-2.73673e-06
-8.73762e-07
-2.71401e-06
-9.80648e-07
-2.68578e-06
-1.09154e-06
-2.65037e-06
-1.20546e-06
-2.6055e-06
-1.32e-06
-2.549e-06
-1.4328e-06
-2.47788e-06
-1.54022e-06
-2.38414e-06
-1.63751e-06
-2.2596e-06
-1.71759e-06
-2.104e-06
-1.76609e-06
-1.92252e-06
-1.77669e-06
-1.71865e-06
-1.74465e-06
-1.49793e-06
-1.66726e-06
-1.26711e-06
-1.54296e-06
-1.03608e-06
-1.373e-06
-8.16659e-07
-1.16505e-06
-6.183e-07
-9.32012e-07
-4.4696e-07
-6.87699e-07
-3.06611e-07
-4.44862e-07
-1.9858e-07
-2.16698e-07
-1.21288e-07
-1.48948e-08
-7.01359e-08
1.50887e-07
-3.89814e-08
2.74193e-07
-1.98169e-08
3.42797e-07
-8.06757e-09
3.40043e-07
1.83524e-07
-1.73848e-09
-2.12089e-07
-3.24467e-08
-2.27623e-07
-7.86838e-08
-1.42717e-07
-1.34636e-07
-4.31551e-08
-1.99555e-07
6.09143e-08
-2.74276e-07
1.67331e-07
-3.59956e-07
2.75005e-07
-4.57697e-07
3.83162e-07
-5.68273e-07
4.91476e-07
-6.91964e-07
6.00055e-07
-8.28434e-07
7.09155e-07
-9.76573e-07
8.1865e-07
-1.13378e-06
9.26916e-07
-1.29595e-06
1.0306e-06
-1.45811e-06
1.12544e-06
-1.615e-06
1.20694e-06
-1.7623e-06
1.27135e-06
-1.89756e-06
1.31705e-06
-2.01978e-06
1.34432e-06
-2.12914e-06
1.35452e-06
-2.22659e-06
1.34995e-06
-2.31311e-06
1.33278e-06
-2.38968e-06
1.305e-06
-2.4571e-06
1.26836e-06
-2.51607e-06
1.22434e-06
-2.56716e-06
1.17431e-06
-2.61093e-06
1.1194e-06
-2.64793e-06
1.06067e-06
-2.6787e-06
9.99044e-07
-2.70376e-06
9.35312e-07
-2.72366e-06
8.7015e-07
-2.7389e-06
8.04102e-07
-2.75001e-06
7.37594e-07
-2.75751e-06
6.70994e-07
-2.76193e-06
6.04537e-07
-2.76372e-06
5.38436e-07
-2.76325e-06
4.7273e-07
-2.76087e-06
4.07404e-07
-2.75688e-06
3.42408e-07
-2.7515e-06
2.77608e-07
-2.74496e-06
2.12816e-07
-2.73744e-06
1.47812e-07
-2.72914e-06
8.23193e-08
-2.72023e-06
1.6029e-08
-2.71087e-06
-5.13752e-08
-2.70123e-06
-1.20284e-07
-2.6915e-06
-1.91105e-07
-2.68183e-06
-2.64271e-07
-2.67242e-06
-3.40242e-07
-2.66339e-06
-4.19488e-07
-2.65485e-06
-5.02491e-07
-2.64684e-06
-5.89737e-07
-2.63931e-06
-6.81687e-07
-2.63208e-06
-7.78723e-07
-2.62474e-06
-8.81098e-07
-2.61651e-06
-9.8888e-07
-2.60615e-06
-1.1019e-06
-2.5921e-06
-1.21952e-06
-2.57171e-06
-1.34038e-06
-2.542e-06
-1.46251e-06
-2.49985e-06
-1.58237e-06
-2.44171e-06
-1.69564e-06
-2.36245e-06
-1.79686e-06
-2.25003e-06
-1.87851e-06
-2.10038e-06
-1.92634e-06
-1.91696e-06
-1.92806e-06
-1.7062e-06
-1.87802e-06
-1.47455e-06
-1.77461e-06
-1.23136e-06
-1.61619e-06
-9.88945e-07
-1.40746e-06
-7.61457e-07
-1.1595e-06
-5.59717e-07
-8.89439e-07
-3.8991e-07
-6.14668e-07
-2.55522e-07
-3.51085e-07
-1.56488e-07
-1.13929e-07
-8.93479e-08
8.37468e-08
-4.72476e-08
2.32093e-07
-2.16218e-08
3.17172e-07
-6.52761e-09
3.24949e-07
1.76996e-07
-1.53222e-08
-1.96767e-07
-6.18719e-08
-1.81074e-07
-1.21924e-07
-8.26655e-08
-1.90683e-07
2.56039e-08
-2.67981e-07
1.38213e-07
-3.54863e-07
2.54212e-07
-4.52479e-07
3.72621e-07
-5.6169e-07
4.92374e-07
-6.8286e-07
6.12645e-07
-8.15751e-07
7.32947e-07
-9.5945e-07
8.52854e-07
-1.11168e-06
9.70884e-07
-1.26863e-06
1.08386e-06
-1.42556e-06
1.18753e-06
-1.57762e-06
1.2775e-06
-1.72061e-06
1.34994e-06
-1.8518e-06
1.40254e-06
-1.97007e-06
1.43531e-06
-2.07542e-06
1.44967e-06
-2.16868e-06
1.44778e-06
-2.25081e-06
1.43208e-06
-2.3227e-06
1.40467e-06
-2.38512e-06
1.36742e-06
-2.43873e-06
1.32197e-06
-2.48415e-06
1.26977e-06
-2.522e-06
1.21215e-06
-2.55289e-06
1.15029e-06
-2.57747e-06
1.08525e-06
-2.5964e-06
1.01797e-06
-2.61033e-06
9.49248e-07
-2.61991e-06
8.79727e-07
-2.62574e-06
8.09932e-07
-2.62841e-06
7.40265e-07
-2.62844e-06
6.71024e-07
-2.6263e-06
6.02396e-07
-2.62236e-06
5.34491e-07
-2.61692e-06
4.67299e-07
-2.61028e-06
4.00763e-07
-2.60266e-06
3.34782e-07
-2.59424e-06
2.69188e-07
-2.58519e-06
2.03769e-07
-2.57567e-06
1.38294e-07
-2.56584e-06
7.24816e-08
-2.55584e-06
6.03409e-09
-2.54583e-06
-6.13819e-08
-2.53599e-06
-1.30128e-07
-2.5265e-06
-2.00598e-07
-2.51756e-06
-2.73211e-07
-2.50938e-06
-3.48415e-07
-2.50219e-06
-4.26679e-07
-2.49619e-06
-5.08496e-07
-2.49155e-06
-5.94377e-07
-2.4884e-06
-6.84829e-07
-2.4868e-06
-7.80325e-07
-2.48663e-06
-8.81274e-07
-2.48753e-06
-9.87977e-07
-2.48887e-06
-1.10056e-06
-2.48956e-06
-1.21883e-06
-2.48779e-06
-1.34215e-06
-2.48107e-06
-1.46923e-06
-2.4657e-06
-1.59774e-06
-2.43719e-06
-1.72415e-06
-2.39117e-06
-1.84289e-06
-2.32176e-06
-1.94792e-06
-2.21912e-06
-2.02898e-06
-2.07359e-06
-2.0736e-06
-1.88748e-06
-2.06414e-06
-1.6678e-06
-1.99429e-06
-1.42363e-06
-1.86035e-06
-1.16733e-06
-1.66377e-06
-9.14085e-07
-1.41274e-06
-6.80647e-07
-1.12288e-06
-4.78774e-07
-8.16542e-07
-3.14458e-07
-5.15401e-07
-1.89939e-07
-2.38448e-07
-1.03247e-07
-2.94549e-09
-4.83453e-08
1.77191e-07
-1.70922e-08
2.85918e-07
-1.95941e-09
3.09817e-07
1.75037e-07
-2.92168e-08
-1.6755e-07
-9.04447e-08
-1.19846e-07
-1.63426e-07
-9.68445e-09
-2.44103e-07
1.06281e-07
-3.32823e-07
2.26933e-07
-4.30684e-07
3.52074e-07
-5.38707e-07
4.80644e-07
-6.57437e-07
6.11103e-07
-7.8679e-07
7.41999e-07
-9.26034e-07
8.7219e-07
-1.07322e-06
1.00004e-06
-1.22497e-06
1.12263e-06
-1.37694e-06
1.23583e-06
-1.52461e-06
1.33521e-06
-1.66396e-06
1.41685e-06
-1.79193e-06
1.4779e-06
-1.90704e-06
1.51766e-06
-2.0092e-06
1.53747e-06
-2.099e-06
1.53947e-06
-2.17739e-06
1.52616e-06
-2.24519e-06
1.49989e-06
-2.30317e-06
1.46264e-06
-2.35199e-06
1.41624e-06
-2.39232e-06
1.3623e-06
-2.42485e-06
1.3023e-06
-2.45031e-06
1.23761e-06
-2.46946e-06
1.16944e-06
-2.48308e-06
1.09888e-06
-2.49194e-06
1.02683e-06
-2.49676e-06
9.54072e-07
-2.49823e-06
8.81193e-07
-2.49695e-06
8.08651e-07
-2.49346e-06
7.36774e-07
-2.48821e-06
6.65776e-07
-2.48158e-06
5.95765e-07
-2.47386e-06
5.26769e-07
-2.46528e-06
4.58726e-07
-2.45606e-06
3.91534e-07
-2.44632e-06
3.25051e-07
-2.43622e-06
2.59084e-07
-2.42586e-06
1.93407e-07
-2.41534e-06
1.27777e-07
-2.40478e-06
6.1923e-08
-2.39431e-06
-4.44062e-09
-2.38404e-06
-7.16517e-08
-2.37414e-06
-1.4003e-07
-2.36479e-06
-2.09949e-07
-2.3562e-06
-2.81801e-07
-2.34861e-06
-3.56005e-07
-2.34227e-06
-4.33011e-07
-2.33747e-06
-5.13298e-07
-2.33447e-06
-5.97374e-07
-2.33354e-06
-6.85765e-07
-2.33486e-06
-7.79e-07
-2.33855e-06
-8.77586e-07
-2.34455e-06
-9.81979e-07
-2.35259e-06
-1.09252e-06
-2.36205e-06
-1.20936e-06
-2.37187e-06
-1.33233e-06
-2.38034e-06
-1.46077e-06
-2.38476e-06
-1.59331e-06
-2.38135e-06
-1.72756e-06
-2.36465e-06
-1.85959e-06
-2.32898e-06
-1.98359e-06
-2.26746e-06
-2.0905e-06
-2.16988e-06
-2.17118e-06
-2.0254e-06
-2.20861e-06
-1.83425e-06
-2.18545e-06
-1.60342e-06
-2.09118e-06
-1.34543e-06
-1.92176e-06
-1.07604e-06
-1.68213e-06
-8.13981e-07
-1.38493e-06
-5.78585e-07
-1.05194e-06
-3.81807e-07
-7.12179e-07
-2.28525e-07
-3.91729e-07
-1.19006e-07
-1.12465e-07
-4.88021e-08
1.06987e-07
-1.08503e-08
2.47967e-07
3.52523e-09
2.95441e-07
1.78562e-07
-4.25762e-08
-1.24974e-07
-1.1718e-07
-4.52419e-08
-2.01834e-07
7.49692e-08
-2.93382e-07
1.97829e-07
-3.92279e-07
3.2583e-07
-4.99643e-07
4.59437e-07
-6.16286e-07
5.97287e-07
-7.42388e-07
7.37206e-07
-8.77452e-07
8.77063e-07
-1.01982e-06
1.01456e-06
-1.16658e-06
1.14681e-06
-1.31396e-06
1.27001e-06
-1.45773e-06
1.37961e-06
-1.59402e-06
1.4715e-06
-1.71957e-06
1.5424e-06
-1.83245e-06
1.59078e-06
-1.93228e-06
1.61749e-06
-2.01951e-06
1.6247e-06
-2.09495e-06
1.61491e-06
-2.15946e-06
1.59067e-06
-2.21377e-06
1.5542e-06
-2.25859e-06
1.50747e-06
-2.29466e-06
1.45231e-06
-2.32274e-06
1.39038e-06
-2.34368e-06
1.32324e-06
-2.35835e-06
1.25228e-06
-2.36764e-06
1.17873e-06
-2.3724e-06
1.10364e-06
-2.37344e-06
1.02788e-06
-2.37149e-06
9.52123e-07
-2.36719e-06
8.76887e-07
-2.36107e-06
8.02532e-07
-2.35359e-06
7.2929e-07
-2.3451e-06
6.57283e-07
-2.33587e-06
5.86538e-07
-2.32611e-06
5.17012e-07
-2.31598e-06
4.48597e-07
-2.3056e-06
3.81149e-07
-2.29504e-06
3.14491e-07
-2.28437e-06
2.48419e-07
-2.27366e-06
1.82692e-07
-2.26295e-06
1.17066e-07
-2.25231e-06
5.12873e-08
-2.24183e-06
-1.49215e-08
-2.23161e-06
-8.18683e-08
-2.22179e-06
-1.4985e-07
-2.21254e-06
-2.19202e-07
-2.20406e-06
-2.90279e-07
-2.1966e-06
-3.63463e-07
-2.19045e-06
-4.39166e-07
-2.18591e-06
-5.17835e-07
-2.18333e-06
-5.99955e-07
-2.18305e-06
-6.86047e-07
-2.18539e-06
-7.76659e-07
-2.19062e-06
-8.72358e-07
-2.19889e-06
-9.73704e-07
-2.21021e-06
-1.08121e-06
-2.22431e-06
-1.19526e-06
-2.24057e-06
-1.31606e-06
-2.25789e-06
-1.44345e-06
-2.27445e-06
-1.57675e-06
-2.28752e-06
-1.71449e-06
-2.29306e-06
-1.85405e-06
-2.28557e-06
-1.99108e-06
-2.25723e-06
-2.11883e-06
-2.20079e-06
-2.22762e-06
-2.10421e-06
-2.30519e-06
-1.95712e-06
-2.33254e-06
-1.75743e-06
-2.29087e-06
-1.51322e-06
-2.16596e-06
-1.24063e-06
-1.95473e-06
-9.59482e-07
-1.66608e-06
-6.92773e-07
-1.31865e-06
-4.61829e-07
-9.43123e-07
-2.77385e-07
-5.76173e-07
-1.42418e-07
-2.47433e-07
-5.4346e-08
1.89156e-08
-7.44479e-09
2.01065e-07
7.73727e-09
2.80259e-07
1.86299e-07
-5.48351e-08
-7.0139e-08
-1.41176e-07
4.10986e-08
-2.36274e-07
1.70068e-07
-3.37323e-07
2.98878e-07
-4.44925e-07
4.33432e-07
-5.60108e-07
5.7462e-07
-6.83436e-07
7.20615e-07
-8.14719e-07
8.68489e-07
-9.52642e-07
1.01499e-06
-1.09476e-06
1.15668e-06
-1.23796e-06
1.29e-06
-1.37833e-06
1.41038e-06
-1.51211e-06
1.51339e-06
-1.63597e-06
1.59536e-06
-1.74753e-06
1.65397e-06
-1.84599e-06
1.68924e-06
-1.9316e-06
1.7031e-06
-2.00506e-06
1.69816e-06
-2.06719e-06
1.67705e-06
-2.11878e-06
1.64226e-06
-2.16056e-06
1.59599e-06
-2.19334e-06
1.54025e-06
-2.21797e-06
1.47694e-06
-2.23539e-06
1.4078e-06
-2.24658e-06
1.33443e-06
-2.25252e-06
1.25822e-06
-2.25416e-06
1.18037e-06
-2.25236e-06
1.10184e-06
-2.24789e-06
1.02341e-06
-2.24142e-06
9.45649e-07
-2.23349e-06
8.68958e-07
-2.22454e-06
7.93589e-07
-2.21493e-06
7.19676e-07
-2.2049e-06
6.4725e-07
-2.19462e-06
5.76264e-07
-2.18423e-06
5.06616e-07
-2.17378e-06
4.38155e-07
-2.16334e-06
3.70704e-07
-2.15291e-06
3.04059e-07
-2.1425e-06
2.38012e-07
-2.13213e-06
1.72323e-07
-2.1218e-06
1.06738e-07
-2.11155e-06
4.10333e-08
-2.10142e-06
-2.50527e-08
-2.09149e-06
-9.17963e-08
-2.08187e-06
-1.59464e-07
-2.07272e-06
-2.28353e-07
-2.06423e-06
-2.98773e-07
-2.05663e-06
-3.71059e-07
-2.05022e-06
-4.45577e-07
-2.04533e-06
-5.22728e-07
-2.04233e-06
-6.02957e-07
-2.04162e-06
-6.86755e-07
-2.04361e-06
-7.74664e-07
-2.0487e-06
-8.67271e-07
-2.05721e-06
-9.65196e-07
-2.06935e-06
-1.06907e-06
-2.08514e-06
-1.17947e-06
-2.10433e-06