/*--------------------------------*- C++ -*----------------------------------*\
  =========                 |
  \\      /  F ield         | OpenFOAM: The Open Source CFD Toolbox
   \\    /   O peration     | Website:  https://openfoam.org
    \\  /    A nd           | Version:  13
     \\/     M anipulation  |
\*---------------------------------------------------------------------------*/
FoamFile
{
    format      ascii;
    class       volVectorField;
    location    "4.6";
    object      U;
}
// * * * * * * * * * * * * * * * * * * * * * * * * * * * * * * * * * * * * * //

dimensions      [0 1 -1 0 0 0 0];

internalField   nonuniform List<vector> 
6400
(
(-0.000103863 6.72605e-05 0)
(0.000424642 -0.00015834 0)
(0.00190543 -0.000382927 0)
(0.00385827 -0.000481881 0)
(0.00581229 -0.000427108 0)
(0.00745578 -0.000290327 0)
(0.00857236 -0.000125792 0)
(0.00915626 -3.40429e-08 0)
(0.00931904 5.02633e-05 0)
(0.00925218 3.48969e-05 0)
(0.00909443 -2.74773e-05 0)
(0.00896972 -0.000118148 0)
(0.00894802 -0.000212684 0)
(0.00902983 -0.00029229 0)
(0.00917568 -0.000358517 0)
(0.00932091 -0.00041019 0)
(0.00939948 -0.000445903 0)
(0.00936643 -0.000453961 0)
(0.00918599 -0.00044306 0)
(0.00877433 -0.000411448 0)
(0.00808693 -0.000367801 0)
(0.0070762 -0.000322322 0)
(0.00569468 -0.000279517 0)
(0.00391987 -0.000256105 0)
(0.00172444 -0.000285376 0)
(-0.000890903 -0.000376582 0)
(-0.0038829 -0.000453353 0)
(-0.00746956 -0.000368078 0)
(-0.0117624 -1.86834e-05 0)
(-0.0167697 0.000639826 0)
(-0.0230046 0.00150994 0)
(-0.0302058 0.0023424 0)
(-0.0380848 0.00304705 0)
(-0.0464332 0.00361048 0)
(-0.0550165 0.00402516 0)
(-0.063619 0.00429427 0)
(-0.0720563 0.00443122 0)
(-0.0801713 0.00445402 0)
(-0.0878386 0.00438049 0)
(-0.0949563 0.00422772 0)
(-0.10144 0.00400846 0)
(-0.107219 0.00373156 0)
(-0.112234 0.00340178 0)
(-0.116444 0.00301948 0)
(-0.119821 0.00258743 0)
(-0.122347 0.00212119 0)
(-0.123751 0.00170029 0)
(-0.124286 0.00131185 0)
(-0.123965 0.000580396 0)
(-0.122312 6.24283e-05 0)
(-0.119746 -0.000615191 0)
(-0.115929 -0.00123222 0)
(-0.111046 -0.00188535 0)
(-0.104975 -0.002505 0)
(-0.0978191 -0.00311098 0)
(-0.0896192 -0.0036955 0)
(-0.0804683 -0.00425119 0)
(-0.0703978 -0.00473128 0)
(-0.0596168 -0.00513353 0)
(-0.0482739 -0.00541136 0)
(-0.0366078 -0.00553567 0)
(-0.0248762 -0.00547485 0)
(-0.0133753 -0.00521955 0)
(-0.00239424 -0.00477191 0)
(0.00766613 -0.00416233 0)
(0.0164698 -0.00331586 0)
(0.0237653 -0.00232994 0)
(0.0292622 -0.00123139 0)
(0.0328515 -0.000103678 0)
(0.034154 0.00120385 0)
(0.0334471 0.00185162 0)
(0.0309389 0.00247801 0)
(0.0263741 0.0028162 0)
(0.0208131 0.00266043 0)
(0.0149498 0.00209658 0)
(0.00959085 0.00132933 0)
(0.00525687 0.000648398 0)
(0.00215597 0.000198491 0)
(0.000364434 -0.00010696 0)
(-0.000190063 -0.000300974 0)
(2.35251e-05 -0.000371034 0)
(0.00165656 -0.00191068 0)
(0.00475682 -0.00318447 0)
(0.00825827 -0.00363265 0)
(0.0115197 -0.00331394 0)
(0.0141459 -0.00255154 0)
(0.0159665 -0.00161165 0)
(0.01699 -0.000743995 0)
(0.0173345 -0.00011903 0)
(0.0171366 0.000228037 0)
(0.0165927 0.000337555 0)
(0.0158294 0.000282556 0)
(0.0149395 0.000164641 0)
(0.0139164 8.15476e-05 0)
(0.0127001 8.99529e-05 0)
(0.0112 0.000205031 0)
(0.00932778 0.000412201 0)
(0.00703716 0.000692467 0)
(0.00422173 0.00106446 0)
(0.000787184 0.00154213 0)
(-0.00336604 0.00212938 0)
(-0.00840882 0.0028363 0)
(-0.0144856 0.00364786 0)
(-0.0216424 0.00453369 0)
(-0.0299257 0.00550403 0)
(-0.0394003 0.00657987 0)
(-0.0500615 0.00778102 0)
(-0.0616156 0.00909261 0)
(-0.0737671 0.010499 0)
(-0.0860831 0.0118913 0)
(-0.0980586 0.0130336 0)
(-0.10969 0.0138271 0)
(-0.120841 0.0142638 0)
(-0.131361 0.0143497 0)
(-0.141164 0.0141298 0)
(-0.150169 0.0136503 0)
(-0.15833 0.0129563 0)
(-0.165607 0.0120907 0)
(-0.17198 0.0110878 0)
(-0.177433 0.00997813 0)
(-0.181953 0.00878156 0)
(-0.185529 0.00751258 0)
(-0.188155 0.00618136 0)
(-0.189819 0.00479366 0)
(-0.190519 0.00335661 0)
(-0.190236 0.00187725 0)
(-0.188931 0.000370794 0)
(-0.186623 -0.00118645 0)
(-0.183274 -0.00285389 0)
(-0.178848 -0.00455269 0)
(-0.173389 -0.00630088 0)
(-0.166828 -0.00806859 0)
(-0.159199 -0.0098414 0)
(-0.150469 -0.0115931 0)
(-0.140668 -0.0132901 0)
(-0.129805 -0.0148907 0)
(-0.117963 -0.0163441 0)
(-0.105256 -0.0176156 0)
(-0.0918044 -0.0186306 0)
(-0.0778114 -0.0193245 0)
(-0.0634813 -0.0196359 0)
(-0.0490522 -0.019507 0)
(-0.034798 -0.018895 0)
(-0.0210155 -0.0177825 0)
(-0.00800673 -0.0161711 0)
(0.00392284 -0.0140426 0)
(0.0144904 -0.0114618 0)
(0.0234461 -0.00850055 0)
(0.0305761 -0.00525285 0)
(0.0356677 -0.0018619 0)
(0.0387006 0.00140769 0)
(0.0395101 0.0044218 0)
(0.038129 0.00699242 0)
(0.0347371 0.00883426 0)
(0.0295446 0.00935296 0)
(0.0227976 0.00874753 0)
(0.0154419 0.00717916 0)
(0.00858777 0.00504284 0)
(0.00331065 0.00261614 0)
(0.000282156 0.000501522 0)
(0.000187481 -0.00150984 0)
(0.00288282 -0.00489482 0)
(0.00679852 -0.00694914 0)
(0.0105311 -0.00725673 0)
(0.0136343 -0.00631038 0)
(0.0158989 -0.00470024 0)
(0.017333 -0.0029402 0)
(0.0179906 -0.00133926 0)
(0.0179425 -6.40022e-05 0)
(0.0172694 0.000810579 0)
(0.0161098 0.00130468 0)
(0.0145342 0.00154904 0)
(0.0125621 0.00171109 0)
(0.0101602 0.00194506 0)
(0.00725414 0.00234998 0)
(0.00374437 0.0029574 0)
(-0.000474923 0.00375632 0)
(-0.00555803 0.00475693 0)
(-0.0116178 0.00597907 0)
(-0.0187675 0.00745657 0)
(-0.0270922 0.00920263 0)
(-0.0365975 0.0111758 0)
(-0.0472419 0.0132981 0)
(-0.0589366 0.0154664 0)
(-0.0714699 0.0175654 0)
(-0.0845787 0.019507 0)
(-0.0979408 0.0212153 0)
(-0.111248 0.0226171 0)
(-0.124206 0.0236628 0)
(-0.136542 0.0243255 0)
(-0.148075 0.0245958 0)
(-0.158715 0.0244654 0)
(-0.168393 0.02397 0)
(-0.177125 0.0231418 0)
(-0.18493 0.0220137 0)
(-0.191825 0.0206402 0)
(-0.197838 0.0190674 0)
(-0.202994 0.0173383 0)
(-0.207311 0.015481 0)
(-0.2108 0.0135247 0)
(-0.213476 0.011492 0)
(-0.215343 0.00938928 0)
(-0.2164 0.00722515 0)
(-0.216642 0.00500081 0)
(-0.216062 0.00271395 0)
(-0.214643 0.00036525 0)
(-0.212359 -0.00205017 0)
(-0.209182 -0.00454708 0)
(-0.205096 -0.00712273 0)
(-0.20007 -0.00974762 0)
(-0.194084 -0.0124381 0)
(-0.187105 -0.0151589 0)
(-0.179126 -0.0178918 0)
(-0.170133 -0.0206008 0)
(-0.160135 -0.0232408 0)
(-0.14915 -0.0257486 0)
(-0.137227 -0.028048 0)
(-0.124453 -0.0300582 0)
(-0.110922 -0.03168 0)
(-0.0967836 -0.032816 0)
(-0.0822358 -0.0333691 0)
(-0.0675028 -0.033252 0)
(-0.0528387 -0.0323875 0)
(-0.0385451 -0.0307622 0)
(-0.0249178 -0.0283699 0)
(-0.0122238 -0.0252323 0)
(-0.00071119 -0.0213958 0)
(0.00937661 -0.0169634 0)
(0.0178512 -0.0120804 0)
(0.0245848 -0.00693361 0)
(0.0294536 -0.00175452 0)
(0.0325202 0.00324896 0)
(0.0336595 0.00773386 0)
(0.0327273 0.0113366 0)
(0.0298839 0.0139477 0)
(0.0254019 0.0149123 0)
(0.019321 0.0142617 0)
(0.0124761 0.0120107 0)
(0.00591091 0.00823376 0)
(0.000805615 0.00326962 0)
(0.000373679 -0.00326941 0)
(0.00383335 -0.0086556 0)
(0.00789392 -0.0108884 0)
(0.0112191 -0.0105227 0)
(0.0136509 -0.00867852 0)
(0.0151707 -0.00621165 0)
(0.0158629 -0.00365453 0)
(0.0158095 -0.00132823 0)
(0.0150788 0.000585524 0)
(0.0137298 0.00201681 0)
(0.0117589 0.00303656 0)
(0.00914669 0.00381259 0)
(0.00584853 0.00455014 0)
(0.00180042 0.0054309 0)
(-0.00306961 0.00656827 0)
(-0.00884759 0.00801097 0)
(-0.0156477 0.00977669 0)
(-0.0235842 0.0118687 0)
(-0.0327352 0.0142802 0)
(-0.0431255 0.0169904 0)
(-0.0546941 0.0199237 0)
(-0.0672795 0.0229525 0)
(-0.0806235 0.025918 0)
(-0.0944082 0.0286666 0)
(-0.108341 0.0310995 0)
(-0.122112 0.0330673 0)
(-0.135428 0.0344571 0)
(-0.148021 0.0352485 0)
(-0.159705 0.0354996 0)
(-0.170401 0.0352587 0)
(-0.180084 0.0345843 0)
(-0.188782 0.033516 0)
(-0.196535 0.0320879 0)
(-0.203404 0.0303574 0)
(-0.209435 0.0283702 0)
(-0.214681 0.0261756 0)
(-0.219187 0.023811 0)
(-0.222984 0.021312 0)
(-0.226093 0.0187066 0)
(-0.228534 0.0160137 0)
(-0.230312 0.0132467 0)
(-0.231433 0.0104109 0)
(-0.231889 0.00750603 0)
(-0.231671 0.00452792 0)
(-0.230759 0.00147142 0)
(-0.229134 -0.00166626 0)
(-0.226763 -0.00489289 0)
(-0.223618 -0.00821798 0)
(-0.21967 -0.0116486 0)
(-0.214885 -0.0151734 0)
(-0.209228 -0.0187885 0)
(-0.202658 -0.0224619 0)
(-0.195148 -0.0261643 0)
(-0.186678 -0.0298554 0)
(-0.177231 -0.033477 0)
(-0.166803 -0.0369452 0)
(-0.155412 -0.0401541 0)
(-0.143109 -0.0429924 0)
(-0.129975 -0.0453392 0)
(-0.116115 -0.0470378 0)
(-0.101687 -0.0479551 0)
(-0.0869003 -0.0479644 0)
(-0.0719785 -0.0469528 0)
(-0.057214 -0.0448631 0)
(-0.042951 -0.0417004 0)
(-0.0295106 -0.0375498 0)
(-0.017138 -0.0324638 0)
(-0.0060702 -0.0265801 0)
(0.00348614 -0.0201025 0)
(0.0113921 -0.013275 0)
(0.0175575 -0.00637034 0)
(0.0219796 0.000391757 0)
(0.0246809 0.00670243 0)
(0.0257231 0.0121675 0)
(0.0249746 0.0163904 0)
(0.0224084 0.0190806 0)
(0.0182335 0.0197927 0)
(0.0127886 0.0183112 0)
(0.00670058 0.014354 0)
(0.00103391 0.00698237 0)
(0.000606559 -0.00552012 0)
(0.00445127 -0.012666 0)
(0.00808477 -0.0144388 0)
(0.0106269 -0.0130772 0)
(0.0121767 -0.0102281 0)
(0.012793 -0.00687958 0)
(0.0126073 -0.00354906 0)
(0.0116979 -0.000526469 0)
(0.0100969 0.00204195 0)
(0.00779382 0.00414109 0)
(0.00473295 0.00587154 0)
(0.000834958 0.00742232 0)
(-0.00398494 0.00901075 0)
(-0.00980884 0.0108217 0)
(-0.0167147 0.0129757 0)
(-0.0247758 0.015531 0)
(-0.0340544 0.0184997 0)
(-0.0445788 0.021852 0)
(-0.0563029 0.0255045 0)
(-0.069086 0.0293476 0)
(-0.0826859 0.033184 0)
(-0.0967633 0.0368003 0)
(-0.110997 0.0400983 0)
(-0.125081 0.0428201 0)
(-0.138669 0.0448135 0)
(-0.151435 0.0460638 0)
(-0.163225 0.0465949 0)
(-0.173991 0.0464512 0)
(-0.183746 0.0457189 0)
(-0.192533 0.0444958 0)
(-0.200407 0.0428594 0)
(-0.207443 0.0408813 0)
(-0.213696 0.0386116 0)
(-0.219225 0.0360999 0)
(-0.224078 0.0333861 0)
(-0.228303 0.030506 0)
(-0.231935 0.0274918 0)
(-0.234998 0.0243708 0)
(-0.237511 0.0211568 0)
(-0.239484 0.0178661 0)
(-0.240918 0.0145058 0)
(-0.241817 0.0110712 0)
(-0.242171 0.00755689 0)
(-0.241969 0.00395207 0)
(-0.241192 0.000244703 0)
(-0.239823 -0.00357714 0)
(-0.237815 -0.00751833 0)
(-0.235137 -0.0115879 0)
(-0.231749 -0.0157894 0)
(-0.227611 -0.020122 0)
(-0.222703 -0.0245931 0)
(-0.216957 -0.0291698 0)
(-0.210321 -0.0338093 0)
(-0.202758 -0.0384683 0)
(-0.19423 -0.0430809 0)
(-0.18471 -0.0475488 0)
(-0.174179 -0.0517381 0)
(-0.162648 -0.055505 0)
(-0.150175 -0.0587047 0)
(-0.136823 -0.0611374 0)
(-0.12271 -0.0626231 0)
(-0.108014 -0.062991 0)
(-0.0929439 -0.0620772 0)
(-0.0777509 -0.0597813 0)
(-0.0627304 -0.0560592 0)
(-0.0483112 -0.0509955 0)
(-0.0348485 -0.044739 0)
(-0.022578 -0.0374582 0)
(-0.0117506 -0.0294067 0)
(-0.00254783 -0.0208873 0)
(0.00491937 -0.0122372 0)
(0.0106261 -0.00376445 0)
(0.0146197 0.00420606 0)
(0.0169784 0.0113374 0)
(0.0177357 0.0172642 0)
(0.016902 0.0215411 0)
(0.0145046 0.0237063 0)
(0.0107279 0.0233928 0)
(0.00590013 0.0198869 0)
(0.000863579 0.0105957 0)
(0.000869436 -0.00812143 0)
(0.00465342 -0.0164019 0)
(0.00744339 -0.0171321 0)
(0.00895042 -0.014676 0)
(0.00950625 -0.0108072 0)
(0.00915141 -0.0066118 0)
(0.0080209 -0.00253016 0)
(0.0061548 0.00120572 0)
(0.00353839 0.00450216 0)
(0.000110033 0.00738908 0)
(-0.00422677 0.00999912 0)
(-0.00957718 0.0125315 0)
(-0.0160369 0.0151965 0)
(-0.0236834 0.0181648 0)
(-0.0325709 0.0215401 0)
(-0.0427188 0.0253537 0)
(-0.0540977 0.0295683 0)
(-0.0666032 0.0340959 0)
(-0.0800524 0.0387422 0)
(-0.0941269 0.0432712 0)
(-0.108469 0.0475401 0)
(-0.122771 0.0512154 0)
(-0.13662 0.054103 0)
(-0.149611 0.056116 0)
(-0.161591 0.0572098 0)
(-0.172511 0.0574402 0)
(-0.182413 0.0569199 0)
(-0.191367 0.0557766 0)
(-0.199444 0.0541181 0)
(-0.206714 0.0520399 0)
(-0.213239 0.0496147 0)
(-0.219078 0.0469052 0)
(-0.224283 0.0439589 0)
(-0.228906 0.0408175 0)
(-0.232984 0.0375157 0)
(-0.236552 0.0340817 0)
(-0.239635 0.0305404 0)
(-0.242253 0.0269126 0)
(-0.24442 0.0232086 0)
(-0.24614 0.0194364 0)
(-0.247414 0.0155946 0)
(-0.248249 0.011671 0)
(-0.248636 0.00765699 0)
(-0.248569 0.00353604 0)
(-0.24804 -0.000712636 0)
(-0.247035 -0.00511393 0)
(-0.245538 -0.00967652 0)
(-0.243518 -0.0144141 0)
(-0.240932 -0.0193287 0)
(-0.237708 -0.0244065 0)
(-0.233805 -0.0296586 0)
(-0.229163 -0.0350704 0)
(-0.2237 -0.0405852 0)
(-0.217331 -0.0461448 0)
(-0.209992 -0.0516804 0)
(-0.201677 -0.05713 0)
(-0.192343 -0.0623582 0)
(-0.181892 -0.0671436 0)
(-0.170371 -0.07133 0)
(-0.157803 -0.074674 0)
(-0.144244 -0.0769392 0)
(-0.129854 -0.0779212 0)
(-0.114783 -0.0773964 0)
(-0.0993083 -0.0752153 0)
(-0.0836814 -0.0712513 0)
(-0.0682478 -0.0655223 0)
(-0.0535173 -0.058264 0)
(-0.039846 -0.0496855 0)
(-0.027519 -0.0400996 0)
(-0.0167951 -0.0298827 0)
(-0.00784224 -0.0194518 0)
(-0.000730244 -0.00921308 0)
(0.00457191 0.000448963 0)
(0.00817057 0.00918338 0)
(0.0101927 0.0166452 0)
(0.0107267 0.0224228 0)
(0.00980877 0.0260272 0)
(0.00752305 0.0269384 0)
(0.00424981 0.0241674 0)
(0.000490833 0.0135037 0)
(0.00109322 -0.0108597 0)
(0.00437193 -0.0193948 0)
(0.00597562 -0.0188037 0)
(0.00643728 -0.0151711 0)
(0.00590613 -0.010357 0)
(0.0045408 -0.00535643 0)
(0.00240848 -0.000520763 0)
(-0.000498964 0.0039804 0)
(-0.00424102 0.00810454 0)
(-0.00891259 0.0119149 0)
(-0.0146244 0.0155598 0)
(-0.0214809 0.0192326 0)
(-0.0295641 0.0231213 0)
(-0.0389209 0.0273637 0)
(-0.0495493 0.0320185 0)
(-0.0613779 0.0370557 0)
(-0.0742825 0.0423738 0)
(-0.0880131 0.0477531 0)
(-0.102211 0.0529746 0)
(-0.116556 0.0577286 0)
(-0.130607 0.0617329 0)
(-0.143918 0.0647844 0)
(-0.156214 0.0667652 0)
(-0.167431 0.0677084 0)
(-0.177619 0.0677247 0)
(-0.186827 0.0669489 0)
(-0.19515 0.0655127 0)
(-0.202665 0.0635334 0)
(-0.209448 0.061112 0)
(-0.215558 0.0583341 0)
(-0.221049 0.0552653 0)
(-0.225968 0.0519593 0)
(-0.230357 0.0484589 0)
(-0.234256 0.0448012 0)
(-0.237691 0.0410179 0)
(-0.240687 0.0371384 0)
(-0.243258 0.0331877 0)
(-0.245416 0.0291823 0)
(-0.247194 0.0250828 0)
(-0.248645 0.0208753 0)
(-0.249727 0.0166149 0)
(-0.250449 0.0122728 0)
(-0.2508 0.00784289 0)
(-0.250772 0.00330836 0)
(-0.250353 -0.0013492 0)
(-0.249533 -0.0061509 0)
(-0.248332 -0.0111213 0)
(-0.246726 -0.0162879 0)
(-0.24471 -0.0216803 0)
(-0.242276 -0.0273321 0)
(-0.239364 -0.0332446 0)
(-0.23596 -0.0394563 0)
(-0.231984 -0.045865 0)
(-0.227305 -0.0524117 0)
(-0.221802 -0.0590277 0)
(-0.2153 -0.0655755 0)
(-0.20766 -0.0718852 0)
(-0.198754 -0.0777201 0)
(-0.188622 -0.082972 0)
(-0.177325 -0.0874246 0)
(-0.164753 -0.0907098 0)
(-0.151083 -0.092593 0)
(-0.136373 -0.0927528 0)
(-0.120894 -0.0910128 0)
(-0.104889 -0.0871832 0)
(-0.0886531 -0.0811889 0)
(-0.0726698 -0.0731577 0)
(-0.0575006 -0.0634511 0)
(-0.0435182 -0.0524115 0)
(-0.031067 -0.0404958 0)
(-0.0204065 -0.028213 0)
(-0.0116871 -0.0160849 0)
(-0.00493625 -0.00460328 0)
(-5.90711e-05 0.00580979 0)
(0.0031316 0.0148012 0)
(0.00482305 0.0220091 0)
(0.00513809 0.0269718 0)
(0.00417701 0.0290659 0)
(0.00230084 0.0269653 0)
(5.30695e-05 0.0152483 0)
(0.00119836 -0.0134385 0)
(0.0035046 -0.0213424 0)
(0.00394504 -0.0193488 0)
(0.0032491 -0.0145126 0)
(0.00162547 -0.0088509 0)
(-0.000779286 -0.00307318 0)
(-0.00396217 0.00254402 0)
(-0.00797529 0.00788296 0)
(-0.0129086 0.0129357 0)
(-0.0188681 0.017784 0)
(-0.0259574 0.0225744 0)
(-0.0342598 0.0274783 0)
(-0.0438213 0.0326444 0)
(-0.0546344 0.0381542 0)
(-0.0666143 0.0439994 0)
(-0.0796174 0.0500748 0)
(-0.0933538 0.0561573 0)
(-0.10747 0.0619959 0)
(-0.121571 0.067224 0)
(-0.135189 0.0715463 0)
(-0.147896 0.0747379 0)
(-0.159565 0.076744 0)
(-0.170164 0.0776284 0)
(-0.179748 0.0775444 0)
(-0.188394 0.0766148 0)
(-0.196188 0.0749827 0)
(-0.203222 0.0727717 0)
(-0.209562 0.0700888 0)
(-0.21527 0.0670235 0)
(-0.220391 0.0636503 0)
(-0.224969 0.0600306 0)
(-0.229042 0.0562135 0)
(-0.232639 0.052241 0)
(-0.235784 0.0481534 0)
(-0.238491 0.0439868 0)
(-0.240844 0.0397034 0)
(-0.242869 0.0353383 0)
(-0.244577 0.0309003 0)
(-0.245973 0.0264315 0)
(-0.247028 0.0219377 0)
(-0.247777 0.0173567 0)
(-0.248219 0.0126956 0)
(-0.248372 0.00793507 0)
(-0.248243 0.00306012 0)
(-0.247846 -0.00194654 0)
(-0.247185 -0.00710173 0)
(-0.24625 -0.0124351 0)
(-0.245033 -0.017971 0)
(-0.243519 -0.0237306 0)
(-0.241687 -0.0297308 0)
(-0.239506 -0.0359736 0)
(-0.236932 -0.0424468 0)
(-0.233927 -0.04926 0)
(-0.230471 -0.0563964 0)
(-0.226495 -0.0637924 0)
(-0.221908 -0.071384 0)
(-0.216605 -0.0790494 0)
(-0.210319 -0.0864114 0)
(-0.202655 -0.0931619 0)
(-0.193349 -0.0988807 0)
(-0.182427 -0.10336 0)
(-0.170148 -0.106472 0)
(-0.156405 -0.107704 0)
(-0.141462 -0.106822 0)
(-0.12552 -0.103569 0)
(-0.108883 -0.0977671 0)
(-0.0919306 -0.0894273 0)
(-0.0752772 -0.078825 0)
(-0.0595745 -0.0664924 0)
(-0.0452454 -0.0529362 0)
(-0.0326712 -0.0387551 0)
(-0.0221125 -0.0245966 0)
(-0.0136959 -0.0110946 0)
(-0.00738963 0.00119324 0)
(-0.00300537 0.0118357 0)
(-0.000268841 0.0204823 0)
(0.0010763 0.0267324 0)
(0.00125945 0.0299106 0)
(0.000590595 0.0283456 0)
(-0.000261523 0.0158308 0)
(0.00114406 -0.0155964 0)
(0.00223683 -0.0221091 0)
(0.00144442 -0.0186199 0)
(-0.000416869 -0.0127501 0)
(-0.00311514 -0.00628482 0)
(-0.00657678 0.000269212 0)
(-0.0108396 0.00670871 0)
(-0.0159867 0.0129546 0)
(-0.0221191 0.0190165 0)
(-0.0293351 0.0249762 0)
(-0.0377146 0.0309618 0)
(-0.0473029 0.037107 0)
(-0.0580925 0.0435018 0)
(-0.0700075 0.0501631 0)
(-0.0828957 0.0569938 0)
(-0.0964468 0.0637678 0)
(-0.110318 0.0701936 0)
(-0.124058 0.0759054 0)
(-0.13716 0.0805672 0)
(-0.149352 0.083977 0)
(-0.160488 0.0860984 0)
(-0.170568 0.0870468 0)
(-0.17964 0.0869359 0)
(-0.187801 0.0859331 0)
(-0.195131 0.0841717 0)
(-0.201717 0.0817919 0)
(-0.207629 0.0789012 0)
(-0.212918 0.0755961 0)
(-0.217634 0.0719559 0)
(-0.221815 0.0680483 0)
(-0.225499 0.0639299 0)
(-0.228719 0.0596479 0)
(-0.231501 0.055243 0)
(-0.233915 0.0507237 0)
(-0.235986 0.0461224 0)
(-0.237704 0.0414969 0)
(-0.239066 0.0368363 0)
(-0.240091 0.032136 0)
(-0.240831 0.0273928 0)
(-0.241297 0.022601 0)
(-0.241537 0.0177515 0)
(-0.241564 0.0128402 0)
(-0.241401 0.00784978 0)
(-0.241063 0.00276082 0)
(-0.240567 -0.00245178 0)
(-0.239911 -0.00781526 0)
(-0.239089 -0.0133618 0)
(-0.23811 -0.0191238 0)
(-0.23697 -0.0251355 0)
(-0.235663 -0.0314282 0)
(-0.234174 -0.0380246 0)
(-0.232473 -0.044936 0)
(-0.230526 -0.0521594 0)
(-0.228283 -0.059677 0)
(-0.225666 -0.0674501 0)
(-0.222576 -0.0753981 0)
(-0.218877 -0.0834656 0)
(-0.214564 -0.0917814 0)
(-0.209447 -0.100002 0)
(-0.203265 -0.107699 0)
(-0.195493 -0.114259 0)
(-0.185499 -0.118914 0)
(-0.173565 -0.121585 0)
(-0.159914 -0.122026 0)
(-0.144736 -0.11988 0)
(-0.128253 -0.114804 0)
(-0.110915 -0.106765 0)
(-0.0931309 -0.0957997 0)
(-0.0757055 -0.082413 0)
(-0.059417 -0.0673495 0)
(-0.0447563 -0.0512927 0)
(-0.0321257 -0.0349971 0)
(-0.0217817 -0.0192575 0)
(-0.0138037 -0.00481473 0)
(-0.0080695 0.00773699 0)
(-0.0042694 0.0179652 0)
(-0.00201154 0.0255112 0)
(-0.000911258 0.0296074 0)
(-0.000543938 0.0285241 0)
(-0.000333806 0.0156437 0)
(0.000949726 -0.0168776 0)
(0.000691205 -0.021575 0)
(-0.00136709 -0.0166542 0)
(-0.00434489 -0.0098886 0)
(-0.00810961 -0.00265354 0)
(-0.012632 0.0046855 0)
(-0.0179756 0.0119843 0)
(-0.0242392 0.0191865 0)
(-0.0315189 0.0263009 0)
(-0.0398907 0.0333922 0)
(-0.0493984 0.0405544 0)
(-0.0600354 0.0478669 0)
(-0.0717424 0.0553578 0)
(-0.0843739 0.0629535 0)
(-0.0976167 0.0704288 0)
(-0.111119 0.0774649 0)
(-0.124438 0.0837012 0)
(-0.137082 0.0887664 0)
(-0.148817 0.0924911 0)
(-0.15951 0.0948565 0)
(-0.169137 0.0959368 0)
(-0.177774 0.0958898 0)
(-0.185497 0.0948738 0)
(-0.192402 0.0930496 0)
(-0.198559 0.0905482 0)
(-0.204036 0.0874934 0)
(-0.208883 0.0839813 0)
(-0.213146 0.0801005 0)
(-0.216865 0.0759244 0)
(-0.220079 0.0715173 0)
(-0.222826 0.0669334 0)
(-0.22514 0.0622184 0)
(-0.227064 0.0574085 0)
(-0.228602 0.0525447 0)
(-0.229798 0.0476317 0)
(-0.230675 0.0426889 0)
(-0.231286 0.0377202 0)
(-0.231682 0.0327383 0)
(-0.231864 0.0277482 0)
(-0.231866 0.0227424 0)
(-0.231709 0.01771 0)
(-0.231412 0.0126373 0)
(-0.230992 0.00750385 0)
(-0.230464 0.00228656 0)
(-0.229841 -0.00304211 0)
(-0.22913 -0.00851174 0)
(-0.228344 -0.0141557 0)
(-0.227494 -0.0200073 0)
(-0.226588 -0.0261031 0)
(-0.225632 -0.0324788 0)
(-0.224624 -0.0391686 0)
(-0.223556 -0.0462044 0)
(-0.22241 -0.0536141 0)
(-0.221157 -0.0614087 0)
(-0.219746 -0.0695779 0)
(-0.218093 -0.078074 0)
(-0.216085 -0.0867977 0)
(-0.213592 -0.0956018 0)
(-0.210429 -0.104299 0)
(-0.206385 -0.112898 0)
(-0.201379 -0.121187 0)
(-0.194968 -0.128407 0)
(-0.186401 -0.133602 0)
(-0.175019 -0.135802 0)
(-0.161561 -0.135379 0)
(-0.146055 -0.131675 0)
(-0.128977 -0.124579 0)
(-0.110787 -0.114019 0)
(-0.0920704 -0.100182 0)
(-0.0738198 -0.0838414 0)
(-0.0569558 -0.0659979 0)
(-0.042047 -0.0475323 0)
(-0.0295028 -0.0293735 0)
(-0.0195537 -0.0124785 0)
(-0.0121974 0.00233887 0)
(-0.00717466 0.0144574 0)
(-0.00399087 0.023441 0)
(-0.00217544 0.0283863 0)
(-0.00105684 0.0278352 0)
(-0.00026933 0.0150634 0)
(0.000687651 -0.0172444 0)
(-0.00104135 -0.0197196 0)
(-0.00430335 -0.0135278 0)
(-0.00835868 -0.00593657 0)
(-0.0131755 0.00203666 0)
(-0.0187362 0.0101626 0)
(-0.0251245 0.0183405 0)
(-0.0324399 0.0265166 0)
(-0.040761 0.0346815 0)
(-0.0501315 0.0428668 0)
(-0.0605479 0.0511182 0)
(-0.0719615 0.0594585 0)
(-0.0842484 0.0678348 0)
(-0.0971177 0.076026 0)
(-0.1102 0.0837124 0)
(-0.12308 0.0905305 0)
(-0.135326 0.0961126 0)
(-0.146666 0.100266 0)
(-0.15698 0.102968 0)
(-0.166229 0.104281 0)
(-0.174479 0.104373 0)
(-0.181817 0.103418 0)
(-0.188321 0.10158 0)
(-0.194065 0.0990046 0)
(-0.199106 0.095815 0)
(-0.203496 0.0921215 0)
(-0.207278 0.0880157 0)
(-0.210497 0.0835823 0)
(-0.213195 0.0788936 0)
(-0.215416 0.0740136 0)
(-0.217202 0.0689961 0)
(-0.218595 0.0638858 0)
(-0.219639 0.0587173 0)
(-0.220372 0.0535194 0)
(-0.220839 0.0483111 0)
(-0.221077 0.0431127 0)
(-0.221121 0.0379304 0)
(-0.221003 0.0327656 0)
(-0.220741 0.0276168 0)
(-0.220362 0.0224759 0)
(-0.21988 0.0173276 0)
(-0.219314 0.0121553 0)
(-0.218677 0.0069369 0)
(-0.217986 0.00164844 0)
(-0.217251 -0.00373732 0)
(-0.216488 -0.00925022 0)
(-0.215708 -0.014924 0)
(-0.214929 -0.0207933 0)
(-0.214162 -0.0268949 0)
(-0.213421 -0.0332664 0)
(-0.212716 -0.0399454 0)
(-0.212053 -0.0469693 0)
(-0.211432 -0.0543735 0)
(-0.210847 -0.0621857 0)
(-0.210274 -0.0704216 0)
(-0.209666 -0.07908 0)
(-0.208947 -0.0881346 0)
(-0.208003 -0.0975109 0)
(-0.206671 -0.107039 0)
(-0.204743 -0.11646 0)
(-0.201951 -0.125455 0)
(-0.197965 -0.133912 0)
(-0.192617 -0.141523 0)
(-0.185248 -0.147055 0)
(-0.174674 -0.149092 0)
(-0.161284 -0.14752 0)
(-0.145418 -0.142141 0)
(-0.127597 -0.132745 0)
(-0.108416 -0.119366 0)
(-0.0887033 -0.102438 0)
(-0.0696371 -0.0830132 0)
(-0.0522998 -0.0624138 0)
(-0.0373194 -0.0417249 0)
(-0.0250949 -0.0221097 0)
(-0.0157878 -0.0046451 0)
(-0.00925444 0.00978694 0)
(-0.00501292 0.0205311 0)
(-0.00253838 0.0265555 0)
(-0.00101074 0.0266796 0)
(-7.65241e-05 0.0144001 0)
(0.000193019 -0.0165768 0)
(-0.00287569 -0.0166052 0)
(-0.00724211 -0.00925505 0)
(-0.012326 -0.000927928 0)
(-0.01815 0.00774879 0)
(-0.0246948 0.0166523 0)
(-0.0320522 0.0257042 0)
(-0.0403123 0.0348349 0)
(-0.0495265 0.0440009 0)
(-0.0596978 0.0531885 0)
(-0.070785 0.0623904 0)
(-0.0826855 0.0715643 0)
(-0.0951449 0.0805009 0)
(-0.107804 0.0888845 0)
(-0.120266 0.0963511 0)
(-0.132153 0.102553 0)
(-0.143168 0.107255 0)
(-0.153158 0.110395 0)
(-0.162097 0.112046 0)
(-0.170018 0.112362 0)
(-0.177014 0.111536 0)
(-0.183157 0.109742 0)
(-0.188513 0.107132 0)
(-0.19314 0.103843 0)
(-0.197088 0.0999884 0)
(-0.200405 0.0956754 0)
(-0.203139 0.0909958 0)
(-0.205344 0.0860348 0)
(-0.207069 0.0808657 0)
(-0.208369 0.0755531 0)
(-0.209296 0.0701502 0)
(-0.209899 0.0647002 0)
(-0.210227 0.0592367 0)
(-0.210324 0.053787 0)
(-0.210232 0.0483693 0)
(-0.20998 0.0429959 0)
(-0.209599 0.0376678 0)
(-0.209111 0.0323825 0)
(-0.208536 0.0271337 0)
(-0.207891 0.0219093 0)
(-0.207188 0.0166933 0)
(-0.206442 0.0114672 0)
(-0.205665 0.00620872 0)
(-0.204869 0.000893633 0)
(-0.204065 -0.00450492 0)
(-0.203267 -0.0100165 0)
(-0.202489 -0.0156738 0)
(-0.201748 -0.021511 0)
(-0.201059 -0.027565 0)
(-0.20044 -0.0338738 0)
(-0.199908 -0.040477 0)
(-0.199478 -0.0474148 0)
(-0.199165 -0.0547269 0)
(-0.198975 -0.0624483 0)
(-0.198908 -0.070607 0)
(-0.198945 -0.0792204 0)
(-0.19905 -0.0882911 0)
(-0.199156 -0.0977954 0)
(-0.19915 -0.107666 0)
(-0.198862 -0.117772 0)
(-0.19805 -0.12785 0)
(-0.196402 -0.137479 0)
(-0.193518 -0.146162 0)
(-0.188994 -0.153787 0)
(-0.18238 -0.159373 0)
(-0.17253 -0.16115 0)
(-0.159132 -0.158401 0)
(-0.142796 -0.151142 0)
(-0.124053 -0.139106 0)
(-0.103792 -0.122622 0)
(-0.0830659 -0.102376 0)
(-0.0633042 -0.0797954 0)
(-0.0457111 -0.0565564 0)
(-0.0309592 -0.0340066 0)
(-0.0193948 -0.013529 0)
(-0.0110292 0.00367986 0)
(-0.00549778 0.0166831 0)
(-0.0022989 0.0242796 0)
(-0.000527855 0.0254281 0)
(0.000183679 0.0140213 0)
(-0.000321681 -0.0147559 0)
(-0.00468745 -0.0122607 0)
(-0.0100711 -0.00391172 0)
(-0.0161181 0.00507357 0)
(-0.0228796 0.0144152 0)
(-0.0303254 0.0240717 0)
(-0.0385456 0.0339657 0)
(-0.0476125 0.0439953 0)
(-0.0575445 0.0540716 0)
(-0.068308 0.0641279 0)
(-0.0798181 0.0741069 0)
(-0.0918593 0.0838093 0)
(-0.104105 0.0929359 0)
(-0.116186 0.101123 0)
(-0.12775 0.108032 0)
(-0.138503 0.113399 0)
(-0.148243 0.117097 0)
(-0.156928 0.11919 0)
(-0.16459 0.11983 0)
(-0.171297 0.119209 0)
(-0.177128 0.11752 0)
(-0.182143 0.114927 0)
(-0.1864 0.111574 0)
(-0.189951 0.107591 0)
(-0.192849 0.103094 0)
(-0.195151 0.0981907 0)
(-0.196918 0.0929759 0)
(-0.198212 0.0875366 0)
(-0.199095 0.0819471 0)
(-0.199626 0.0762703 0)
(-0.199864 0.0705569 0)
(-0.199859 0.0648468 0)
(-0.199657 0.0591697 0)
(-0.199299 0.0535463 0)
(-0.198817 0.0479885 0)
(-0.198237 0.0425016 0)
(-0.197581 0.0370832 0)
(-0.196865 0.0317264 0)
(-0.196104 0.026421 0)
(-0.195308 0.0211529 0)
(-0.194487 0.0159046 0)
(-0.19365 0.0106568 0)
(-0.192804 0.00538739 0)
(-0.19196 7.24795e-05 0)
(-0.191127 -0.00531376 0)
(-0.190317 -0.0107999 0)
(-0.189543 -0.0164164 0)
(-0.188821 -0.022196 0)
(-0.188168 -0.0281737 0)
(-0.187606 -0.0343867 0)
(-0.187155 -0.0408744 0)
(-0.186838 -0.0476779 0)
(-0.186676 -0.0548394 0)
(-0.186689 -0.0623998 0)
(-0.186889 -0.0703967 0)
(-0.187279 -0.0788614 0)
(-0.187848 -0.0878136 0)
(-0.188564 -0.0972539 0)
(-0.189361 -0.107155 0)
(-0.190132 -0.117449 0)
(-0.190704 -0.128008 0)
(-0.190821 -0.138602 0)
(-0.190127 -0.148815 0)
(-0.188179 -0.158001 0)
(-0.184398 -0.165464 0)
(-0.178267 -0.170848 0)
(-0.168723 -0.172006 0)
(-0.155193 -0.167992 0)
(-0.138163 -0.158486 0)
(-0.118355 -0.143454 0)
(-0.0969561 -0.123526 0)
(-0.0753004 -0.0997354 0)
(-0.0550833 -0.0740041 0)
(-0.0376254 -0.0484152 0)
(-0.0235572 -0.0245942 0)
(-0.0130825 -0.00413003 0)
(-0.00600382 0.0117106 0)
(-0.00191315 0.0215325 0)
(9.79117e-05 0.0242458 0)
(0.000429658 0.014111 0)
(-0.000846605 -0.0118587 0)
(-0.00639561 -0.00679929 0)
(-0.0126978 0.00242057 0)
(-0.0196231 0.0119893 0)
(-0.0272323 0.021948 0)
(-0.0354722 0.0323131 0)
(-0.0444256 0.0429902 0)
(-0.0541424 0.0538323 0)
(-0.064607 0.064695 0)
(-0.0757491 0.0754658 0)
(-0.087385 0.0859367 0)
(-0.0992372 0.0958365 0)
(-0.110976 0.104808 0)
(-0.122259 0.112502 0)
(-0.132801 0.118637 0)
(-0.142367 0.123023 0)
(-0.150872 0.125675 0)
(-0.158341 0.126744 0)
(-0.164829 0.126421 0)
(-0.170409 0.12491 0)
(-0.175146 0.122392 0)
(-0.179095 0.119026 0)
(-0.182313 0.114954 0)
(-0.184861 0.110309 0)
(-0.186802 0.105209 0)
(-0.188206 0.0997675 0)
(-0.189145 0.0940814 0)
(-0.189689 0.0882373 0)
(-0.189904 0.0823069 0)
(-0.189853 0.0763487 0)
(-0.18959 0.0704077 0)
(-0.189163 0.0645171 0)
(-0.18861 0.0586992 0)
(-0.187965 0.0529676 0)
(-0.187251 0.0473276 0)
(-0.186488 0.0417784 0)
(-0.18569 0.0363132 0)
(-0.184867 0.0309223 0)
(-0.184028 0.0255929 0)
(-0.183178 0.0203082 0)
(-0.182321 0.0150498 0)
(-0.181463 0.0097986 0)
(-0.180607 0.00453303 0)
(-0.179761 -0.000769908 0)
(-0.17893 -0.00613449 0)
(-0.178126 -0.0115871 0)
(-0.177359 -0.0171559 0)
(-0.176645 -0.0228707 0)
(-0.176002 -0.0287638 0)
(-0.175452 -0.03487 0)
(-0.175018 -0.0412267 0)
(-0.174727 -0.0478741 0)
(-0.174606 -0.0548546 0)
(-0.174683 -0.0622122 0)
(-0.174982 -0.0699907 0)
(-0.175521 -0.0782319 0)
(-0.176307 -0.0869712 0)
(-0.177332 -0.0962315 0)
(-0.178564 -0.106015 0)
(-0.179934 -0.116291 0)
(-0.181331 -0.126981 0)
(-0.182577 -0.137943 0)
(-0.183409 -0.148938 0)
(-0.183443 -0.159568 0)
(-0.182161 -0.16914 0)
(-0.178934 -0.176717 0)
(-0.173029 -0.181588 0)
(-0.163428 -0.18183 0)
(-0.149486 -0.176151 0)
(-0.131526 -0.163961 0)
(-0.110534 -0.14549 0)
(-0.0880087 -0.121718 0)
(-0.0656399 -0.0941838 0)
(-0.0454106 -0.0654678 0)
(-0.028658 -0.0380585 0)
(-0.015861 -0.0138627 0)
(-0.00701722 0.00541469 0)
(-0.00182464 0.0181683 0)
(0.000575099 0.0230965 0)
(0.000616208 0.0145708 0)
(-0.00135056 -0.0079394 0)
(-0.00793954 -0.000332563 0)
(-0.0150528 0.0096426 0)
(-0.0227579 0.019721 0)
(-0.0311033 0.0302386 0)
(-0.0400118 0.0412504 0)
(-0.0495552 0.052628 0)
(-0.0597558 0.0641689 0)
(-0.0705646 0.0756796 0)
(-0.0818227 0.0869032 0)
(-0.0933105 0.0975816 0)
(-0.104743 0.107381 0)
(-0.115787 0.115927 0)
(-0.126165 0.122918 0)
(-0.135622 0.128114 0)
(-0.144029 0.131458 0)
(-0.15138 0.133071 0)
(-0.157726 0.133152 0)
(-0.163132 0.131907 0)
(-0.167663 0.129537 0)
(-0.171381 0.126219 0)
(-0.174344 0.12211 0)
(-0.17662 0.117358 0)
(-0.178279 0.1121 0)
(-0.179402 0.106463 0)
(-0.180065 0.100557 0)
(-0.180349 0.0944821 0)
(-0.180324 0.0883191 0)
(-0.180058 0.082134 0)
(-0.179607 0.0759773 0)
(-0.179021 0.0698859 0)
(-0.178338 0.0638846 0)
(-0.177589 0.0579878 0)
(-0.176799 0.0522015 0)
(-0.175984 0.0465251 0)
(-0.175155 0.0409524 0)
(-0.17432 0.035473 0)
(-0.173484 0.0300737 0)
(-0.172648 0.0247394 0)
(-0.171815 0.0194539 0)
(-0.170984 0.0141971 0)
(-0.170155 0.00894906 0)
(-0.169331 0.00369116 0)
(-0.168514 -0.00159887 0)
(-0.16771 -0.00694348 0)
(-0.166926 -0.0123661 0)
(-0.166172 -0.0178919 0)
(-0.165461 -0.0235474 0)
(-0.164813 -0.0293615 0)
(-0.164246 -0.0353653 0)
(-0.163787 -0.0415933 0)
(-0.163464 -0.0480828 0)
(-0.163308 -0.0548748 0)
(-0.163352 -0.0620137 0)
(-0.163629 -0.0695463 0)
(-0.164168 -0.077521 0)
(-0.164993 -0.0859844 0)
(-0.166113 -0.0949775 0)
(-0.167522 -0.104529 0)