/*--------------------------------*- C++ -*----------------------------------*\
  =========                 |
  \\      /  F ield         | OpenFOAM: The Open Source CFD Toolbox
   \\    /   O peration     | Website:  https://openfoam.org
    \\  /    A nd           | Version:  13
     \\/     M anipulation  |
\*---------------------------------------------------------------------------*/
FoamFile
{
    format      ascii;
    class       volScalarField;
    location    "100";
    object      k;
}
// * * * * * * * * * * * * * * * * * * * * * * * * * * * * * * * * * * * * * //

dimensions      [0 2 -2 0 0 0 0];

internalField   nonuniform List<scalar> 
12225
(
0.712911
1.42729
3.11337
3.31882
2.54083
2.22765
1.49767
2.2362
2.92511
2.3434
1.64549
1.46641
2.13044
2.61762
2.01032
1.66925
1.49364
1.37329
0.178543
0.128738
0.114115
0.307455
0.258601
0.237338
0.25618
0.283786
0.3188
0.365081
0.388419
0.404663
0.438783
0.48508
0.513634
0.548373
0.569092
0.610244
0.344703
0.148138
0.0581598
0.0478379
0.0397547
0.0293399
0.0265544
0.0297128
0.0308144
0.0411987
0.0472125
0.0503568
0.0539092
0.059789
0.0642476
0.0697854
0.0745904
0.0850454
0.386023
0.278922
0.145557
0.0748706
0.0409268
0.0264245
0.0227263
0.0207142
0.0182225
0.0180212
0.0182612
0.0176492
0.0175291
0.0175762
0.0178788
0.0186755
0.0199825
0.0210921
0.349094
0.302744
0.278951
0.210804
0.155077
0.123954
0.101812
0.0864628
0.0780454
0.0723777
0.0702125
0.0683251
0.0676503
0.0658147
0.0649073
0.0624428
0.0614121
0.0580227
0.3614
0.315794
0.31407
0.288137
0.254508
0.230158
0.21086
0.191928
0.181532
0.171887
0.165225
0.1575
0.152641
0.145253
0.141185
0.134594
0.131081
0.126753
0.366884
0.360663
0.348031
0.324702
0.30077
0.284481
0.2704
0.260604
0.252763
0.245321
0.239235
0.23238
0.22664
0.220192
0.215434
0.209703
0.207239
0.202018
0.370955
0.368511
0.361184
0.347327
0.335056
0.325147
0.318505
0.310597
0.304627
0.298204
0.292619
0.286969
0.281946
0.276916
0.272973
0.268593
0.266329
0.262688
0.373039
0.370931
0.367895
0.36038
0.353526
0.347353
0.342724
0.337903
0.333459
0.328897
0.324908
0.320814
0.317211
0.313621
0.310613
0.307457
0.305645
0.302459
0.373584
0.371708
0.369141
0.365317
0.361568
0.3578
0.354417
0.350898
0.347691
0.344389
0.341488
0.338498
0.33598
0.33329
0.331195
0.328705
0.32717
0.324785
0.373763
0.371628
0.369389
0.366826
0.364311
0.361711
0.359233
0.356661
0.354248
0.351796
0.349581
0.347333
0.345376
0.343327
0.341636
0.339732
0.338329
0.336529
0.373813
0.371581
0.369432
0.367247
0.365141
0.363018
0.360969
0.358891
0.356909
0.354925
0.353085
0.351251
0.349592
0.347906
0.346427
0.344856
0.343566
0.34208
0.373825
0.371565
0.369426
0.367357
0.365393
0.363478
0.361641
0.35983
0.358095
0.356388
0.354779
0.353199
0.351731
0.350274
0.348945
0.34759
0.346396
0.345122
0.373827
0.371557
0.369412
0.367369
0.365436
0.363589
0.361832
0.360139
0.358526
0.356966
0.355486
0.354053
0.352702
0.351388
0.350155
0.348944
0.347822
0.3467
0.373827
0.371554
0.369403
0.367361
0.365427
0.36359
0.361846
0.360184
0.358605
0.357095
0.35566
0.354287
0.352981
0.35173
0.350541
0.349398
0.348313
0.347267
0.373826
0.371552
0.369397
0.367353
0.365415
0.363575
0.361829
0.360168
0.35859
0.357088
0.355658
0.354296
0.352999
0.351762
0.350583
0.349457
0.348383
0.347357
0.373825
0.37155
0.369393
0.367347
0.365406
0.363563
0.361813
0.360149
0.358567
0.357062
0.355629
0.354265
0.352965
0.351726
0.350544
0.349418
0.348342
0.347316
0.373825
0.371549
0.369392
0.367344
0.365401
0.363556
0.361803
0.360136
0.358551
0.357042
0.355605
0.354237
0.352932
0.351689
0.350503
0.349373
0.348292
0.347263
0.373825
0.371549
0.369392
0.367343
0.3654
0.363553
0.3618
0.36013
0.358543
0.357031
0.355592
0.35422
0.352912
0.351665
0.350475
0.34934
0.348257
0.347223
0.373826
0.37155
0.369394
0.367347
0.365405
0.363558
0.361804
0.360135
0.358547
0.357034
0.355593
0.35422
0.35291
0.351662
0.350469
0.349333
0.348247
0.347212
0.373824
0.371555
0.369398
0.367353
0.36541
0.363566
0.361812
0.360144
0.358557
0.357046
0.355605
0.354232
0.352923
0.351674
0.350483
0.349345
0.34826
0.347223
0.373812
0.37156
0.369394
0.367344
0.365391
0.363542
0.361787
0.360123
0.358544
0.357041
0.35561
0.354245
0.352943
0.351698
0.35051
0.349375
0.34829
0.347254
0.373684
0.371485
0.369194
0.367108
0.36506
0.363174
0.3614
0.35976
0.358257
0.356816
0.35545
0.354139
0.352883
0.351672
0.350504
0.349378
0.348292
0.347252
0.37227
0.370199
0.367151
0.365209
0.362536
0.360556
0.358591
0.35714
0.356291
0.355094
0.353994
0.353068
0.352166
0.351178
0.350144
0.349079
0.348013
0.346973
0.362237
0.357863
0.35503
0.355652
0.34858
0.345387
0.34205
0.342748
0.347599
0.342887
0.343577
0.346347
0.348244
0.348369
0.347901
0.347336
0.346584
0.345718
0.292568
0.325102
0.324342
0.313574
0.309801
0.303307
0.299752
0.296062
0.314148
0.30959
0.309679
0.321359
0.334911
0.331611
0.333766
0.338669
0.341249
0.341919
0.282144
0.251496
0.20678
0.216011
0.166521
0.184408
0.238989
0.215876
0.253063
0.235743
0.240651
0.246498
0.265137
0.294245
0.322348
0.320287
0.327382
0.333302
0.308042
0.252822
0.184048
0.143392
0.119981
0.103267
0.107329
0.160216
0.155721
0.162458
0.176735
0.240172
0.244867
0.254252
0.290821
0.321918
0.336733
0.345862
0.416272
0.299352
0.214291
0.249616
0.252092
0.229946
0.228301
0.273568
0.346354
0.415225
0.466289
0.508746
0.542925
0.565885
0.591409
0.609725
0.626576
0.638937
0.957483
1.26075
1.45824
1.56174
1.60257
1.59333
1.57029
1.52976
1.48642
1.44593
1.41027
1.37805
1.34973
1.32449
1.3017
1.2819
1.26372
1.24801
5.3946e-05
0.000989593
0.00345654
0.00868012
0.0163506
0.0256222
0.0355395
0.0451188
0.0547514
0.0646338
0.0754404
0.0873192
0.100731
0.115013
0.129456
0.141545
0.147266
0.144286
0.157184
0.142425
0.163999
0.179725
0.199625
0.219985
0.240118
0.261197
0.282165
0.303005
0.323946
0.344328
0.364966
0.385101
0.405772
0.426132
0.447275
0.468413
0.489973
0.511087
0.532716
0.553618
0.574791
0.594943
0.615032
0.633853
0.652238
0.668062
0.683751
0.698069
0.709159
0.718352
0.73159
0.743447
0.739763
0.731599
0.721574
0.706968
0.677397
0.636243
0.585839
0.526538
0.461583
0.399505
0.333519
0.286403
0.23981
0.204954
0.171635
0.160994
0.129089
0.114266
0.140224
0.126657
0.0828187
0.0484613
0.0216026
0.0167307
0.0281437
0.0551775
0.0862564
0.0961504
0.08251
0.0710973
0.0756644
0.123437
0.147961
0.243435
0.376846
0.50872
0.586266
0.650567
0.700822
0.741767
0.775241
0.801921
0.817037
0.83451
0.836596
0.86249
0.860323
0.86836
0.864599
0.862825
0.859589
0.855501
0.849132
0.844565
0.835702
0.831096
0.820279
0.813282
0.803323
0.787661
0.77308
0.759997
0.741821
0.725036
0.707844
0.690045
0.6712
0.650254
0.630409
0.605753
0.584144
0.563432
0.545672
0.52637
0.509257
0.490424
0.472959
0.458692
0.443001
0.428701
0.414483
0.400965
0.388121
0.375673
0.364125
0.353409
0.343179
0.333695
0.324723
0.316569
0.309147
0.301851
0.297624
0.29566
0.293726
0.290019
0.286851
0.286057
0.282297
0.281993
0.281424
0.281192
0.282565
0.284272
0.286593
0.290263
0.294546
0.298939
0.305028
0.311951
0.318656
0.323365
0.325285
0.328021
0.330707
0.331298
0.335856
0.339865
0.344733
0.343356
0.343068
0.341885
0.340719
0.33757
0.334701
0.328217
0.330446
0.30065
0.000438866
0.00597425
0.0146145
0.0254811
0.0375042
0.0501764
0.0629149
0.0758292
0.0888969
0.102497
0.116626
0.131678
0.147915
0.165361
0.184355
0.204772
0.22709
0.252347
0.282999
0.316923
0.35776
0.400394
0.444976
0.49092
0.537839
0.585031
0.632278
0.679028
0.725482
0.771325
0.81703
0.862323
0.907732
0.953021
0.998678
1.04438
1.09134
1.13925
1.1886
1.23947
1.29137
1.3431
1.39423
1.44368
1.49065
1.53389
1.5722
1.60483
1.62839
1.64612
1.65591
1.65388
1.64198
1.62006
1.58775
1.54487
1.49197
1.43198
1.36731
1.27218
1.14482
0.994929
0.828869
0.664801
0.508908
0.381074
0.28333
0.224318
0.19336
0.174854
0.15732
0.130665
0.0995159
0.0789156
0.0641958
0.0673343
0.098913
0.162092
0.203033
0.213277
0.211395
0.212286
0.399627
0.650558
0.724894
0.778766
0.843151
0.901833
0.951381
1.00854
1.06848
1.13076
1.19626
1.26037
1.31769
1.36733
1.40767
1.43789
1.46237
1.48463
1.49829
1.51372
1.5489
1.58679
1.59743
1.60287
1.58317
1.60137
1.61612
1.58846
1.61867
1.57888
1.593
1.57657
1.55219
1.48362
1.49103
1.4339
1.42001
1.41256
1.37885
1.28756
1.2687
1.20381
1.19778
1.12651
1.11327
1.09313
1.00444
0.989327
0.956413
0.928634
0.900264
0.873114
0.847017
0.821955
0.798398
0.777519
0.757509
0.739475
0.722944
0.709523
0.697823
0.689673
0.68459
0.681666
0.682189
0.684478
0.695251
0.695825
0.700492
0.706305
0.713173
0.720995
0.729748
0.740693
0.755163
0.770874
0.787354
0.80301
0.818896
0.83473
0.846419
0.856927
0.86165
0.864241
0.866494
0.861442
0.860971
0.863889
0.866406
0.860321
0.85221
0.838364
0.826827
0.805595
0.79219
0.762011
0.750184
0.697564
0.00116917
0.0147933
0.034458
0.0524092
0.0716741
0.0922834
0.113472
0.134909
0.156651
0.178601
0.201377
0.225518
0.251649
0.28016
0.311518
0.345864
0.383529
0.424575
0.469146
0.516328
0.565974
0.616817
0.668676
0.720865
0.773248
0.825221
0.876848
0.928135
0.979106
1.02976
1.08049
1.13146
1.18313
1.23563
1.28934
1.34433
1.4009
1.45891
1.51833
1.57871
1.63958
1.70009
1.7594
1.81633
1.86964
1.91796
1.95949
1.99257
2.01502
2.03299
2.03779
2.03024
2.01141
1.98141
1.93979
1.88628
1.82104
1.74407
1.65734
1.5626
1.46229
1.35913
1.22575
1.06131
0.880472
0.695693
0.519274
0.375058
0.274537
0.215151
0.175828
0.147116
0.122261
0.103498
0.0896599
0.095206
0.147066
0.210568
0.282611
0.377234
0.622913
0.869899
0.966174
1.0419
1.09709
1.17491
1.27437
1.38317
1.49635
1.60552
1.70626
1.79679
1.87803
1.94737
2.00776
2.05798
2.10137
2.13669
2.16838
2.19708
2.22269
2.24833
2.27323
2.29582
2.31997
2.34671
2.35594
2.37783
2.38388
2.38224
2.37785
2.36753
2.32934
2.31135
2.2771
2.22363
2.19627
2.16139
2.12763
2.08731
2.04527
1.99346
1.94728
1.89319
1.84197
1.7831
1.7284
1.67125
1.60895
1.55363
1.49492
1.43791
1.38159
1.32701
1.27444
1.22434
1.1772
1.13458
1.09503
1.05924
1.02812
1.00151
0.979857
0.961658
0.948397
0.938848
0.933915
0.934118
0.934527
0.934916
0.938041
0.942786
0.950209
0.959181
0.969288
0.981129
0.994393
1.00845
1.02253
1.0353
1.04715
1.05858
1.06801
1.07602
1.07831
1.08149
1.07836
1.07643
1.07525
1.07711
1.07315
1.06288
1.05118
1.0339
1.01834
0.993205
0.975284
0.93962
0.921802
0.873317
0.0025234
0.0293213
0.0611368
0.08811
0.116208
0.144973
0.173253
0.200669
0.227287
0.253346
0.279433
0.30631
0.334927
0.36612
0.400678
0.439022
0.481417
0.527721
0.577708
0.630718
0.686224
0.743447
0.801825
0.860767
0.919899
0.97875
1.03717
1.09494
1.15214
1.20879
1.26521
1.32162
1.37841
1.43582
1.49417
1.55357
1.61415
1.67576
1.73821
1.80102
1.86362
1.92516
1.9847
2.04106
2.09304
2.13922
2.17829
2.20742
2.22872
2.24454
2.24712
2.23729
2.21505
2.18026
2.13261
2.07195
1.9987
1.91393
1.81895
1.7159
1.60654
1.49473
1.3816
1.2673
1.12631
0.95918
0.77605
0.590526
0.427052
0.301573
0.224154
0.177288
0.14438
0.123277
0.114712
0.136522
0.235377
0.372501
0.636357
1.04027
1.12903
1.18173
1.24152
1.31791
1.42378
1.55288
1.69482
1.83566
1.96874
2.09033
2.19938
2.29614
2.38214
2.45714
2.5243
2.58321
2.63676
2.68438
2.72854
2.76912
2.80627
2.84073
2.87274
2.90302
2.93228
2.95825
2.98089
3.00309
3.01171
3.01453
3.0197
3.01611
2.9898
2.97716
2.95446
2.92604
2.89885
2.86593
2.82816
2.78473
2.73663
2.68214
2.62431
2.56135
2.49508
2.42433
2.35084
2.27374
2.19354
2.1121
2.02835
1.94402
1.8596
1.77617
1.6946
1.61582
1.54071
1.4708
1.4059
1.34673
1.29414
1.24835
1.20981
1.17742
1.15178
1.13208
1.11827
1.10921
1.10324
1.09905
1.09778
1.09757
1.09915
1.10221
1.10652
1.1121
1.11886
1.12628
1.13362
1.14197
1.15014
1.15784
1.1608
1.16568
1.16944
1.16693
1.16579
1.1637
1.16506
1.16325
1.15828
1.14805
1.13782
1.12229
1.108
1.08511
1.06727
1.03581
1.01597
0.97366
0.00417431
0.0458294
0.091031
0.128006
0.164634
0.200027
0.233826
0.265852
0.296185
0.325162
0.353428
0.381805
0.411353
0.443151
0.478261
0.517466
0.561288
0.609795
0.662795
0.719721
0.779945
0.842644
0.907118
0.9726
1.03852
1.10425
1.16947
1.23381
1.29723
1.35969
1.42139
1.48251
1.54339
1.60425
1.66538
1.72685
1.78877
1.85097
1.91326
1.97514
2.03607
2.09523
2.15176
2.20457
2.25257
2.29451
2.3297
2.35314
2.37636
2.38606
2.38392
2.3709
2.34691
2.31075
2.26143
2.19872
2.12258
2.03365
1.93398
1.82488
1.70854
1.58831
1.46702
1.3481
1.23194
1.11306
0.959663
0.784906
0.606208
0.445063
0.322211
0.244023
0.194019
0.163573
0.167048
0.236333
0.432885
0.76504
1.283
1.31232
1.30718
1.35603
1.44541
1.56559
1.70764
1.86392
2.02517
2.17799
2.31995
2.44941
2.5663
2.6715
2.76635
2.85162
2.92931
2.99999
3.06525
3.12543
3.18153
3.23374
3.28242
3.3282
3.37079
3.41053
3.44734
3.48058
3.51016
3.53595
3.55595
3.56655
3.57671
3.58086
3.57576
3.56897
3.55542
3.53574
3.5113
3.48042
3.44297
3.3989
3.34909
3.29294
3.23104
3.16318
3.08981
3.01083
2.92664
2.83726
2.74321
2.64501
2.54303
2.43812
2.33117
2.22321
2.11548
2.0093
1.90588
1.80677
1.71309
1.62591
1.54612
1.47498
1.41302
1.36035
1.3169
1.28118
1.25349
1.22986
1.21082
1.19609
1.1833
1.1725
1.16715
1.16328
1.16062
1.15916
1.15916
1.16049
1.16247
1.16642
1.17066
1.17484
1.17494
1.17612
1.17926
1.17735
1.17715
1.17781
1.17697
1.17271
1.16884
1.16074
1.15401
1.14207
1.13111
1.11294
1.09758
1.0737
1.05422
1.02626
0.00592733
0.0629972
0.122297
0.169372
0.213384
0.254686
0.293369
0.329458
0.363198
0.395029
0.42563
0.455874
0.486846
0.519692
0.555591
0.595528
0.640259
0.690113
0.745088
0.804772
0.868561
0.935603
1.00505
1.07596
1.14758
1.21909
1.28996
1.35969
1.42807
1.49495
1.56046
1.62471
1.688
1.75052
1.81258
1.87429
1.93578
1.997
2.05785
2.11798
2.17698
2.23416
2.28879
2.3399
2.38655
2.42754
2.46068
2.48387
2.50767
2.51697
2.51421
2.49975
2.47325
2.43468
2.38379
2.32007
2.24263
2.15132
2.04698
1.93164
1.80829
1.67873
1.54655
1.41659
1.29228
1.17528
1.06006
0.918723
0.755257
0.59036
0.440889
0.330326
0.261685
0.237926
0.268681
0.455812
0.841725
1.37289
1.45751
1.41504
1.41845
1.50326
1.62308
1.76519
1.92517
2.10133
2.27409
2.43696
2.58832
2.72733
2.85399
2.96944
3.07479
3.1709
3.25927
3.34071
3.41634
3.48684
3.55286
3.61474
3.67299
3.72786
3.77947
3.8275
3.8719
3.91251
3.94917
3.98112
4.00797
4.02743
4.04658
4.05443
4.05988
4.059
4.05184
4.03828
4.01797
3.99024
3.95538
3.91365
3.86536
3.81067
3.74897
3.68007
3.60406
3.52098
3.43099
3.33427
3.23115
3.12202
3.00732
2.88767
2.76387
2.6369
2.50797
2.37844
2.24965
2.12332
2.00119
1.88509
1.77667
1.67745
1.58849
1.5101
1.44352
1.385
1.33323
1.29148
1.25969
1.23356
1.2102
1.19227
1.17471
1.15788
1.14224
1.12857
1.11687
1.10784
1.10059
1.09791
1.09678
1.09637
1.09671
1.09695
1.09718
1.09754
1.09903
1.10002
1.10021
1.0977
1.09991
1.09932
1.09979
1.09455
1.08999
1.08056
1.07045
1.05829
1.04246
1.02833
0.00798307
0.0808372
0.153888
0.210964
0.262138
0.308937
0.352032
0.391791
0.428663
0.463216
0.49622
0.528592
0.56142
0.595861
0.633112
0.674231
0.720093
0.771195
0.827692
0.889321
0.955547
1.02553
1.09834
1.17294
1.24837
1.3237
1.39822
1.4713
1.54262
1.61196
1.67938
1.74498
1.80907
1.87189
1.93383
1.99511
2.056
2.11658
2.17696
2.23698
2.29642
2.35477
2.4114
2.46541
2.51582
2.56126
2.60122
2.62799
2.65652
2.67229
2.67538
2.66488
2.64026
2.60164
2.54885
2.48206
2.40092
2.30491
2.19467
2.07128
1.93664
1.7946
1.64903
1.50379
1.36326
1.23209
1.11159
0.995132
0.862049
0.709689
0.55621
0.418725
0.336292
0.328647
0.446608
0.870098
1.47646
1.61622
1.51171
1.46418
1.51671
1.62649
1.76519
1.92906
2.11638
2.30908
2.4939
2.66696
2.82735
2.97495
3.11038
3.23446
3.34821
3.4527
3.5491
3.6383
3.72129
3.79876
3.87138
3.93963
4.00405
4.06478
4.12206
4.17558
4.22544
4.27137
4.31297
4.3499
4.38199
4.4087
4.43075
4.4465
4.45365
4.45712
4.45413
4.44455
4.42759
4.40316
4.37201
4.33421
4.28902
4.23626
4.17559
4.10686
4.02997
3.94493
3.85174
3.75057
3.64154
3.52502
3.40129
3.27091
3.13442
2.99281
2.8472
2.6989
2.54907
2.39947
2.25219
2.10907
1.97214
1.84379
1.72603
1.61861
1.51878
1.43627
1.36647
1.30961
1.25824
1.21296
1.17125
1.13458
1.10178
1.07286
1.04683
1.02457
1.00566
0.990875
0.978227
0.971443
0.968078
0.965429
0.964557
0.965294
0.964617
0.964723
0.96955
0.972066
0.971645
0.974018
0.979054
0.983073
0.991096
0.995433
1.00427
1.00296
0.998926
0.999413
0.990276
0.987982
0.0106027
0.100011
0.185909
0.25248
0.310518
0.362487
0.409615
0.452644
0.492272
0.529246
0.56446
0.598887
0.633619
0.6698
0.708601
0.751067
0.798079
0.850197
0.907663
0.970306
1.03766
1.10891
1.18314
1.25925
1.33622
1.41302
1.48887
1.56308
1.63529
1.70526
1.77305
1.83881
1.90292
1.96572
2.02769
2.08922
2.15073
2.21243
2.2746
2.33725
2.40035
2.46354
2.52632
2.58786
2.64713
2.70275
2.75348
2.79669
2.82732
2.85875
2.87445
2.87421
2.85703
2.82278
2.77145
2.70222
2.61567
2.51295
2.39476
2.26154
2.11436
1.95659
1.79346
1.62846
1.46717
1.31451
1.17473
1.04783
0.928173
0.802291
0.653963
0.514443
0.455092
0.514613
0.807515
1.36783
1.65197
1.63067
1.52575
1.52395
1.61282
1.74462
1.90324
2.0875
2.29242
2.49565
2.68915
2.87028
3.03858
3.19414
3.33767
3.46979
3.59136
3.70334
3.80672
3.9024
3.99126
4.07405
4.15141
4.22397
4.29217
4.35634
4.41664
4.47307
4.52556
4.57389
4.61781
4.65713
4.69158
4.72099
4.74483
4.76356
4.77209
4.77739
4.77677
4.76961
4.75534
4.73455
4.70706
4.67231
4.62972
4.57909
4.5201
4.4525
4.37607
4.29066
4.19619
4.09266
3.98011
3.85872
3.72871
3.59037
3.44413
3.2908
3.13149
2.96738
2.79919
2.62858
2.45797
2.28911
2.12409
1.96461
1.8122
1.67518
1.5524
1.44821
1.35085
1.26432
1.18967
1.12677
1.07324
1.02757
0.988386
0.955005
0.926037
0.901848
0.88249
0.866229
0.853103
0.843861
0.839056
0.835162
0.834219
0.832604
0.832443
0.834478
0.836701
0.840477
0.845882
0.851624
0.859499
0.866439
0.876031
0.884693
0.893257
0.904523
0.908946
0.922517
0.925558
0.925686
0.0139275
0.120643
0.218386
0.293638
0.357862
0.414393
0.465006
0.510813
0.55278
0.591835
0.62898
0.665229
0.701669
0.739409
0.779558
0.823101
0.870876
0.923428
0.981023
1.04354
1.11056
1.18135
1.25502
1.3305
1.40679
1.48288
1.558
1.63149
1.70301
1.77238
1.83971
1.90523
1.96938
2.03263
2.09554
2.1586
2.22233
2.28708
2.35318
2.42081
2.4901
2.56087
2.63279
2.70516
2.77707
2.84716
2.91373
2.9751
3.02851
3.06606
3.10392
3.12256
3.12134
3.09857
3.05338
2.98529
2.89471
2.78331
2.65254
2.50557
2.34449
2.1705
1.98631
1.79883
1.61341
1.43604
1.27122
1.12246
0.989704
0.865307
0.714785
0.621054
0.596605
0.770321
1.2313
1.56733
1.66898
1.6072
1.54608
1.59556
1.7095
1.85749
2.03102
2.23227
2.44725
2.65798
2.85848
3.04674
3.22235
3.38549
3.53664
3.67625
3.80498
3.92366
4.03314
4.13428
4.22787
4.31474
4.39544
4.47069
4.54092
4.60663
4.66796
4.72515
4.77804
4.82655
4.87039
4.90956
4.94371
4.97283
4.9962
5.01468
5.02329
5.02822
5.02784
5.02125
5.00854
4.98984
4.96433
4.93154
4.89099
4.84239
4.78537
4.71951
4.64451
4.56001
4.46585
4.36178
4.24777
4.12378
3.98989
3.84606
3.69252
3.52973
3.35873
3.18078
2.99571
2.80516
2.61181
2.4139
2.21585
2.02723
1.84968
1.68791
1.5276
1.38521
1.26362
1.16296
1.07992
1.01318
0.95855
0.913042
0.875179
0.843265
0.815846
0.793593
0.776389
0.760736
0.749192
0.741231
0.73451
0.731003
0.726386
0.725499
0.727066
0.730178
0.734252
0.738811
0.744714
0.751294
0.759487
0.767911
0.778069
0.788409
0.798877
0.81129
0.819935
0.83284
0.838446
0.854291
0.0179356
0.142185
0.250633
0.333454
0.402957
0.463315
0.516822
0.564936
0.608849
0.649637
0.68838
0.726113
0.763905
0.802811
0.843863
0.887961
0.935865
0.988071
1.04483
1.10604
1.17134
1.24009
1.31148
1.38457
1.45844
1.53218
1.60511
1.67667
1.7466
1.81478
1.88142
1.94679
2.01141
2.07577
2.1405
2.20611
2.2732
2.34219
2.4135
2.48741
2.56422
2.64402
2.72674
2.81192
2.89885
2.98631
3.07264
3.15559
3.23285
3.30125
3.34892
3.3951
3.41776
3.41533
3.38538
3.32659
3.23845
3.12151
2.97787
2.81173
2.62989
2.43602
2.23074
2.01714
1.80342
1.59819
1.40735
1.23135
1.07247
0.929942
0.787074
0.722784
0.78289
1.13221
1.5067
1.67208
1.6654
1.58609
1.58714
1.66963
1.7994
1.95804
2.14233
2.35731
2.57927
2.79602
3.00277
3.1977
3.38031
3.55068
3.70905
3.8557
3.99112
4.11597
4.23103
4.33699
4.43464
4.52473
4.60784
4.68461
4.75564
4.82139
4.88222
4.93835
4.98984
5.03647
5.07812
5.11469
5.14603
5.1721
5.19222
5.20686
5.21335
5.21542
5.21276
5.20458
5.19111
5.17177
5.1461
5.11356
5.07381
5.02644
4.97096
4.90684
4.83357
4.75069
4.65781
4.55449
4.44043
4.31538
4.17907
4.0312
3.87171
3.70061
3.51813
3.326
3.12323
2.91024
2.69093
2.47218
2.25055
2.03351
1.81115
1.60462
1.42086
1.26535
1.13994
1.04109
0.962537
0.901683
0.852483
0.811259
0.777686
0.748439
0.723804
0.704255
0.688782
0.673862
0.663911
0.656333
0.650078
0.646603
0.639521
0.639758
0.643659
0.648284
0.653206
0.658217
0.664324
0.671082
0.679472
0.688634
0.699174
0.710672
0.72291
0.73654
0.748311
0.762442
0.770929
0.787454
0.022443
0.163561
0.281361
0.37048
0.444295
0.507764
0.563632
0.613641
0.659166
0.701386
0.741425
0.780313
0.819082
0.858721
0.900169
0.944234
0.991589
1.04267
1.09771
1.15663
1.21915
1.28472
1.35268
1.42222
1.49259
1.56303
1.63299
1.70204
1.77
1.83682
1.90277
1.96816
2.03351
2.09929
2.16613
2.23457
2.30521
2.37855
2.45515
2.53539
2.61978
2.70869
2.80242
2.90089
3.00376
3.11013
3.21854
3.32678
3.43197
3.53012
3.61772
3.67904
3.73452
3.76086
3.75527
3.71467
3.63746
3.52322
3.37306
3.19038
2.98188
2.7581
2.52705
2.28864
2.04509
1.8041
1.57864
1.36912
1.17788
1.00026
0.897112
0.865631
1.0525
1.37338
1.59387
1.6658
1.64333
1.59529
1.63645
1.73879
1.87823
2.04467
2.23981
2.46206
2.68922
2.91122
3.12379
3.32511
3.51449
3.6918
3.85712
4.01055
4.15244
4.28326
4.4037
4.51424
4.61561
4.70838
4.79327
4.8708
4.94173
5.00647
5.06558
5.11924
5.16772
5.21065
5.24807
5.27977
5.30569
5.32594
5.33977
5.34657
5.34736
5.34313
5.33359
5.31908
5.29975
5.27534
5.24567
5.21026
5.16875
5.12065
5.06532
5.00206
4.93007
4.84873
4.75725
4.65501
4.5414
4.41598
4.27805
4.12709
3.96256
3.78395
3.59136
3.38911
3.1745
2.94634
2.71176
2.45833
2.18954
1.92451
1.67523
1.45501
1.27047
1.12255
1.0093
0.922533
0.855287
0.803597
0.761294
0.724816
0.696569
0.669495
0.648338
0.630176
0.615712
0.601898
0.592252
0.585116
0.579546
0.574133
0.569884
0.572323
0.577593
0.582603
0.587576
0.592706
0.599034
0.606155
0.614926
0.624987
0.636527
0.649454
0.663586
0.678759
0.69309
0.708225
0.719764
0.735307
0.0270883
0.183403
0.309042
0.403187
0.480424
0.546374
0.604159
0.655741
0.702624
0.74605
0.787156
0.826947
0.866401
0.906426
0.947872
0.99145
1.03775
1.08717
1.13992
1.19597
1.25513
1.31696
1.38095
1.44647
1.51293
1.57975
1.64654
1.71297
1.77899
1.84435
1.90947
1.9747
2.04055
2.10743
2.17588
2.24637
2.31966
2.39632
2.47696
2.56219
2.65272
2.7493
2.85262
2.96305
3.08088
3.20599
3.33721
3.47256
3.60919
3.74285
3.86806
3.9793
4.05842
4.12419
4.15351
4.14208
4.0863
3.98445
3.8363
3.64352
3.4124
3.1536
2.88516
2.61465
2.3368
2.05603
1.78821
1.53944
1.3144
1.12583
1.04236
1.06294
1.27605
1.48919
1.63085
1.6493
1.61677
1.61844
1.68561
1.79916
1.94397
2.11572
2.32036
2.54727
2.77849
3.0052
3.22325
3.43066
3.6265
3.81046
3.98247
4.14256
4.29082
4.42758
4.55321
4.66818
4.77305
4.86842
4.95484
5.03292
5.10322
5.16636
5.2228
5.27298
5.31706
5.35479
5.38607
5.4109
5.42862
5.43835
5.44136
5.43654
5.42602
5.41026
5.38954
5.36622
5.33897
5.30765
5.27221
5.23229
5.18745
5.13711
5.08046
5.01666
4.94483
4.8641
4.77352
4.67226
4.55957
4.43471
4.29681
4.14499
3.97835
3.79575
3.59692
3.38488
3.15002
2.89246
2.60923
2.31201
2.01418
1.73274
1.48293
1.27491
1.10941
0.982733
0.889275
0.817511
0.763116
0.720499
0.68493
0.6533
0.628583
0.60332
0.584654
0.566986
0.55382
0.541055
0.533309
0.525105
0.516788
0.516884
0.519584
0.522717
0.525661
0.529131
0.533377
0.538496
0.545278
0.553069
0.562931
0.574308
0.587533
0.602497
0.619092
0.636104
0.652543
0.668372
0.682022
0.695988
0.03135
0.200345
0.332274
0.430267
0.510147
0.578061
0.637415
0.690334
0.738407
0.782911
0.824969
0.865546
0.905553
0.945814
0.987086
1.03
1.07507
1.12265
1.17296
1.22602
1.28173
1.33981
1.39993
1.46158
1.52429
1.58763
1.65138
1.71506
1.77896
1.84278
1.90687
1.9715
2.03706
2.10392
2.17253
2.24322
2.3174
2.39524
2.47745
2.56485
2.65842
2.75921
2.86845
2.98754
3.11766
3.25913
3.41152
3.57366
3.74359
3.91654
4.08651
4.24575
4.38571
4.48731
4.56482
4.59629
4.57589
4.49984
4.36627
4.17485
3.93006
3.64329
3.32883
3.00595
2.68216
2.35777
2.04471
1.75443
1.48259
1.30718
1.22944
1.26612
1.43508
1.57206
1.64136
1.63469
1.61604
1.64844
1.73052
1.84926
1.99628
2.172
2.384
2.6141
2.8485
3.07928
3.30227
3.51525
3.71707
3.90723
4.0856
4.25206
4.4064
4.54882
4.67957
4.79905
4.90759
5.00575
5.09384
5.17248
5.24203
5.30324
5.35643
5.40234
5.44103
5.47219
5.49549
5.50957
5.51418
5.50982
5.49743
5.48018
5.45703
5.42849
5.39499
5.35747
5.31658
5.27283
5.22644
5.17731
5.12514
5.06929
5.00889
4.94292
4.87043
4.7902
4.70113
4.6019
4.4913
4.36799
4.23058
4.07747
3.90709
3.71659
3.50424
3.26665
2.9968
2.70106
2.38751
2.07126
1.7709
1.50261
1.2768
1.09809
0.96117
0.859959
0.786291
0.729537
0.687437
0.651755
0.621057
0.592912
0.570198
0.547071
0.529308
0.513707
0.500464
0.48951
0.482726
0.472937
0.472334
0.47354
0.475451
0.477497
0.479862
0.483387
0.487914
0.493762
0.501443
0.510398
0.521916
0.535244
0.55092
0.568721
0.588003
0.607153
0.625157
0.641589
0.655665
0.666122
0.0349145
0.213493
0.350044
0.450799
0.532659
0.602114
0.66277
0.716865
0.766044
0.811591
0.854607
0.896005
0.936625
0.977204
1.01841
1.06078
1.10479
1.15075
1.19888
1.24926
1.30187
1.35658
1.4132
1.47141
1.53086
1.59113
1.65172
1.71253
1.77358
1.83515
1.8975
1.96081
2.0254
2.09151
2.15947
2.22935
2.3018
2.37751
2.45733
2.54226
2.63376
2.73358
2.84399
2.96641
3.10272
3.25372
3.42265
3.60996
3.81271
4.02628
4.24514
4.46006
4.6606
4.83463
4.96361
5.05427
5.08658
5.05403
4.95285
4.78097
4.53932
4.23895
3.89075
3.51212
3.12555
2.74643
2.38326
2.04628
1.73956
1.53701
1.44257
1.45603
1.55291
1.6333
1.64317
1.62496
1.63231
1.68224
1.77104
1.8907
2.03796
2.21826
2.4325
2.66378
2.90004
3.13383
3.36078
3.57847
3.78541
3.98104
4.16503
4.33716
4.49721
4.64513
4.78108
4.90521
5.01778
5.11899
5.20912
5.28849
5.35751
5.4166
5.46616
5.50689
5.53911
5.56044
5.57104
5.57112
5.56173
5.54363
5.51716
5.48194
5.43951
5.39122
5.33845
5.28249
5.22437
5.16497
5.10477
5.04394
4.98228
4.91926
4.85397
4.78517
4.7114
4.63112
4.5428
4.44462
4.33472
4.21114
4.07159
3.91349
3.73431
3.52776
3.29056
3.0233
2.72709
2.41222
2.09403
1.78774
1.5109
1.27558
1.08698
0.943442
0.835873
0.758828
0.703137
0.659107
0.625065
0.593741
0.56653
0.540547
0.520248
0.497915
0.482834
0.466593
0.455146
0.442043
0.436124
0.43503
0.435236
0.435958
0.437093
0.438724
0.441347
0.445451
0.450594
0.457552
0.466337
0.476973
0.490597
0.507396
0.527151
0.549034
0.571346
0.592697
0.611261
0.627182
0.639593
0.650326
0.0369461
0.221641
0.361493
0.464218
0.54757
0.618243
0.67999
0.735141
0.785385
0.832007
0.876072
0.918444
0.959889
1.00106
1.04252
1.08476
1.12816
1.17303
1.21957
1.2679
1.31806
1.36999
1.42361
1.47873
1.53508
1.5923
1.64966
1.70735
1.76548
1.82432
1.884
1.94459
2.0063
2.06925
2.13373
2.19992
2.26826
2.33947
2.41412
2.49301
2.57754
2.6694
2.77214
2.88903
3.02451
3.18567
3.36699
3.57227
3.79809
4.05124
4.32067
4.59454
4.86249
5.11055
5.32295
5.48309
5.58644
5.61707
5.56924
5.43915
5.22468
4.93169
4.57062
4.15607
3.71258
3.26693
2.84124
2.44319
2.08872
1.81358
1.66768
1.62024
1.63761
1.66189
1.64839
1.63968
1.66069
1.71783
1.80724
1.92447
2.06996
2.25365
2.46713
2.69727
2.93351
3.16865
3.39822
3.61923
3.83014
4.03005
4.21859
4.39545
4.56052
4.71351
4.85444
4.98323
5.09996
5.20446
5.29681
5.37704
5.44537
5.50175
5.5462
5.57953
5.60181
5.61198
5.61034
5.59665
5.57151
5.5344
5.48676
5.42961
5.36483
5.29418
5.21973
5.14325
5.06633
4.9902
4.91568
4.84303
4.77196
4.70188
4.63156
4.55946
4.48361
4.40211
4.31296
4.21377
4.10179
3.97434
3.82772
3.65765
3.46079
3.23438
2.97625
2.69168
2.38882
2.07873
1.77881
1.50311
1.26674
1.07436
0.926797
0.816348
0.737298
0.680166
0.637127
0.601497
0.571764
0.544282
0.518646
0.496073
0.476742
0.456478
0.443311
0.427887
0.419417
0.408097
0.398834
0.396333
0.398269
0.400108
0.402479
0.40539
0.409313
0.414373
0.42055
0.428754
0.439632
0.453889
0.472385
0.49426
0.51778
0.543017
0.567875
0.590944
0.60976
0.624667
0.635037
0.642777
0.0375606
0.220078
0.364907
0.470974
0.555838
0.627249
0.689786
0.74585
0.797132
0.844888
0.890137
0.933679
0.976229
1.01835
1.06053
1.10317
1.14658
1.19103
1.23673
1.28377
1.33225
1.38214
1.43343
1.48604
1.53982
1.5944
1.6491
1.70385
1.75869
1.81392
1.86971
1.9261
1.98309
2.04071
2.09911
2.15843
2.21902
2.28129
2.34587
2.41368
2.48638
2.56637
2.65642
2.76109
2.88572
3.03544
3.21667
3.43721
3.70724
3.99371
4.30429
4.63751
4.97584
5.30442
5.6049
5.85914
6.05059
6.16316
6.18964
6.12401
5.96261
5.70499
5.35895
4.93573
4.45616
3.95226
3.45826
2.98412
2.54341
2.17474
1.92669
1.79729
1.74821
1.69251
1.67925
1.68272
1.71037
1.7666
1.85062
1.96109
2.10022
2.27973
2.48833
2.71446
2.94851
3.18344
3.41437
3.63762
3.85117
4.05423
4.24621
4.42706
4.59665
4.7546
4.90059
5.03433
5.15535
5.26311
5.35692
5.43712
5.50324
5.55541
5.59372
5.61842
5.62902
5.62605
5.60808
5.57557
5.529
5.46919
5.39764
5.31628
5.2274
5.13356
5.03736
4.94107
4.84657
4.75532
4.66819
4.58533
4.50624
4.43014
4.35542
4.27995
4.20132
4.11702
4.02492
3.92147
3.80293
3.6656
3.50609
3.32064
3.10689
2.86584
2.60046
2.31625
2.02463
1.73819
1.47446
1.24457
1.05723
0.9084
0.798717
0.718857
0.661744
0.617255
0.582624
0.551651
0.525506
0.500059
0.477723
0.456735
0.438852
0.421266
0.408626
0.396122
0.387957
0.37834
0.372042
0.369528
0.37128
0.373037
0.376301
0.379885
0.384814
0.391614
0.400323
0.411868
0.427292
0.444979
0.46733
0.493467
0.522772
0.553437
0.58211
0.606666
0.624791
0.63694
0.643516
0.646676
0.0372309
0.220976
0.365175
0.471886
0.557425
0.629528
0.692959
0.749946
0.802262
0.851153
0.897576
0.942208
0.985947
1.02929
1.0726
1.11618
1.16031
1.20518
1.25094
1.29768
1.34546
1.3943
1.44424
1.49522
1.54715
1.59983
1.65295
1.70612
1.75895
1.81153
1.86379
1.91566
1.96706
2.01848
2.06997
2.12155
2.17347
2.22603
2.27979
2.33562
2.395
2.46049
2.53549
2.62486
2.73526
2.87458
3.0514
3.27086
3.54012
3.87207
4.22268
4.59527
4.99165
5.39482
5.7795
6.12684
6.41403
6.62431
6.73541
6.74889
6.65912
6.46266
6.16143
5.76458
5.2866
4.75438
4.20852
3.66587
3.12842
2.63823
2.25155
1.99786
1.83475
1.76654
1.73986
1.74261
1.77081
1.82216
1.89541
1.99391
2.12964
2.3017
2.50241
2.72257
2.95281
3.18657
3.42046
3.6448