/*--------------------------------*- C++ -*----------------------------------*\
  =========                 |
  \\      /  F ield         | OpenFOAM: The Open Source CFD Toolbox
   \\    /   O peration     | Website:  https://openfoam.org
    \\  /    A nd           | Version:  13
     \\/     M anipulation  |
\*---------------------------------------------------------------------------*/
FoamFile
{
    format      ascii;
    class       volScalarField;
    location    "100";
    object      nut;
}
// * * * * * * * * * * * * * * * * * * * * * * * * * * * * * * * * * * * * * //

dimensions      [0 2 -1 0 0 0 0];

internalField   nonuniform List<scalar> 
12225
(
7.08974e-06
1.44185e-05
3.20269e-05
3.48535e-05
2.72847e-05
2.44404e-05
1.67515e-05
2.54866e-05
3.39273e-05
2.76316e-05
1.97152e-05
1.78064e-05
2.61487e-05
3.24374e-05
2.51342e-05
2.10269e-05
1.89274e-05
1.74979e-05
1.96932e-06
2.29719e-06
4.71388e-06
1.96007e-05
1.10723e-05
1.44287e-05
8.67839e-06
1.20747e-05
1.7259e-05
1.95524e-05
1.84985e-05
2.12124e-05
2.22189e-05
2.39556e-05
2.46226e-05
2.71175e-05
2.7312e-05
2.9947e-05
1.62291e-05
7.98744e-06
3.25149e-06
2.32105e-06
2.87187e-06
1.63601e-06
2.21278e-06
1.80709e-06
2.87793e-06
3.20052e-06
3.5183e-06
3.85016e-06
4.27786e-06
5.05196e-06
5.8205e-06
6.62906e-06
7.46367e-06
8.72798e-06
7.22371e-05
3.43817e-05
2.79127e-05
8.58359e-06
2.61426e-06
2.88346e-06
1.74128e-06
1.50226e-06
1.3294e-06
1.43482e-06
1.63949e-06
1.7802e-06
1.97153e-06
2.15832e-06
2.38662e-06
2.65331e-06
3.0273e-06
3.34044e-06
0.000167206
9.1853e-05
6.20994e-05
2.9941e-05
1.46046e-05
1.76721e-05
1.15772e-05
8.91626e-06
8.13478e-06
7.93932e-06
8.34256e-06
8.83182e-06
9.59487e-06
1.0107e-05
1.08081e-05
1.10643e-05
1.16064e-05
1.14777e-05
0.000156465
0.000112121
0.000127548
0.000126123
0.000112929
9.23618e-05
6.20003e-05
3.71538e-05
4.20723e-05
3.49929e-05
3.26645e-05
3.20573e-05
3.26816e-05
3.29825e-05
3.40026e-05
3.40338e-05
3.502e-05
3.4867e-05
0.000329022
0.000420398
0.000401622
0.000205056
0.000266145
0.000208168
0.000104491
0.000114851
8.66401e-05
7.66988e-05
7.46272e-05
7.47937e-05
7.6516e-05
7.78396e-05
8.01339e-05
8.05118e-05
8.29531e-05
8.21546e-05
0.000639345
0.000668875
0.000613418
0.000530012
0.00037054
0.000369469
0.000315004
0.00020717
0.000210618
0.000176197
0.000161741
0.000157452
0.00015662
0.000156648
0.000157664
0.000157271
0.00015847
0.0001568
0.000826324
0.000876027
0.000753733
0.000567487
0.000478818
0.000380645
0.000413721
0.000390692
0.000340491
0.000336201
0.000324053
0.000313761
0.000301434
0.00029368
0.000289308
0.000285962
0.000285452
0.000281106
0.00085371
0.000860879
0.000830358
0.000761977
0.000691443
0.000630312
0.000588568
0.000559728
0.00053526
0.000516112
0.00050147
0.00048943
0.000480034
0.000471045
0.000464712
0.000458444
0.000452884
0.000447486
0.00085378
0.000850443
0.00084218
0.000823393
0.000797813
0.000768946
0.000744751
0.000723259
0.000704784
0.000687855
0.000673668
0.000660845
0.000650702
0.000640921
0.000633526
0.000625985
0.000620045
0.000612282
0.000852275
0.000850511
0.000851435
0.000844105
0.000834434
0.000822645
0.000811792
0.00080139
0.000791369
0.000781119
0.000771649
0.000762729
0.000754351
0.000747111
0.000739335
0.000732883
0.000727212
0.000719815
0.000851559
0.00085111
0.000850074
0.000848363
0.000845553
0.000842143
0.000838184
0.000834752
0.000830398
0.000825769
0.000821191
0.000816294
0.000811888
0.000807297
0.000803169
0.000798606
0.000795024
0.000790497
0.000851501
0.000850757
0.000849968
0.000849079
0.000848056
0.000846906
0.000845744
0.000844396
0.000843044
0.000841364
0.000839811
0.000837871
0.000836246
0.000834204
0.000832701
0.000830556
0.000829319
0.000827059
0.000851533
0.00085068
0.00084988
0.000849087
0.000848336
0.000847577
0.000846883
0.000846146
0.000845473
0.000844707
0.000844022
0.000843221
0.000842537
0.000841724
0.000841072
0.000840262
0.000839656
0.000838861
0.000851538
0.000850674
0.000849859
0.000849076
0.000848339
0.000847627
0.000846961
0.000846312
0.000845705
0.000845105
0.000844545
0.000843985
0.000843466
0.000842945
0.000842463
0.000841978
0.00084153
0.000841079
0.000851537
0.000850674
0.000849852
0.000849072
0.000848329
0.000847623
0.00084695
0.000846309
0.000845698
0.000845113
0.000844557
0.000844023
0.000843516
0.000843027
0.000842563
0.000842116
0.00084169
0.000841279
0.000851538
0.000850679
0.000849857
0.00084908
0.000848335
0.00084763
0.000846955
0.000846314
0.000845699
0.000845115
0.000844554
0.00084402
0.000843507
0.000843019
0.00084255
0.000842104
0.000841674
0.000841265
0.000851536
0.000850676
0.000849851
0.000849072
0.000848324
0.000847618
0.000846938
0.000846295
0.000845676
0.000845089
0.000844524
0.000843986
0.000843469
0.000842977
0.000842503
0.000842053
0.000841619
0.000841207
0.000851532
0.000850678
0.000849851
0.000849073
0.000848323
0.000847617
0.000846936
0.000846294
0.000845672
0.000845086
0.000844517
0.00084398
0.000843458
0.000842966
0.000842488
0.000842037
0.0008416
0.000841186
0.000851497
0.000850707
0.000849864
0.000849063
0.000848296
0.000847576
0.000846901
0.000846264
0.000845656
0.000845073
0.000844514
0.000843976
0.00084346
0.000842963
0.000842486
0.000842028
0.000841587
0.000841165
0.000851076
0.000851065
0.000849686
0.000848691
0.000847582
0.000846726
0.000846079
0.000845638
0.000845134
0.000844736
0.000844221
0.000843756
0.000843252
0.000842766
0.000842251
0.000841758
0.000841238
0.000840759
0.000847175
0.000853381
0.000844831
0.000843444
0.00083896
0.000836478
0.000836386
0.000838081
0.000838234
0.000840493
0.000839506
0.000839982
0.000840017
0.000839749
0.000839237
0.000838362
0.000837475
0.000836631
0.000727221
0.000830285
0.000781243
0.000788562
0.000762897
0.000754409
0.000762559
0.000776102
0.000776566
0.00080764
0.000773061
0.000788634
0.000803
0.000810515
0.000814475
0.000809204
0.000811425
0.000810755
0.000204016
0.00070197
0.000584612
0.000552995
0.00052635
0.000458187
0.000448489
0.000459275
0.000501392
0.000595132
0.000521254
0.00056539
0.000632551
0.000693079
0.000679253
0.000696188
0.000709492
0.000714865
1.34126e-05
0.000230977
0.000119997
0.000138894
0.00012648
0.000146868
0.000128644
0.000133948
0.000165941
0.000228547
0.000207666
0.000232644
0.000316597
0.00038281
0.000461846
0.000440316
0.000483416
0.000501429
6.32853e-06
7.58144e-06
7.44703e-06
1.25958e-05
1.12317e-05
1.65789e-05
3.60486e-05
2.89828e-05
3.73486e-05
4.34608e-05
7.03635e-05
6.42201e-05
7.6829e-05
0.00011314
0.000167202
0.000197104
0.000238127
0.000224304
1.63526e-05
1.75776e-05
1.43184e-05
1.24818e-05
1.14721e-05
1.07174e-05
1.04842e-05
1.69544e-05
1.68025e-05
1.88022e-05
2.27832e-05
3.59265e-05
4.93505e-05
4.6664e-05
5.59625e-05
7.10648e-05
8.78889e-05
8.49485e-05
0.000103675
2.32626e-05
2.37275e-05
2.66103e-05
2.10358e-05
2.13435e-05
2.11682e-05
2.35573e-05
2.89317e-05
3.44814e-05
3.89022e-05
4.41735e-05
4.87159e-05
5.21598e-05
5.63368e-05
5.77241e-05
5.85383e-05
5.90123e-05
1.25132e-05
1.66302e-05
1.94624e-05
2.11185e-05
2.19657e-05
2.21289e-05
2.20854e-05
2.17707e-05
2.13851e-05
2.10113e-05
2.06822e-05
2.03803e-05
2.01163e-05
1.98812e-05
1.96674e-05
1.94867e-05
1.93213e-05
1.91832e-05
4.706e-09
3.93596e-07
1.3736e-06
3.44639e-06
6.4862e-06
1.01552e-05
1.40733e-05
1.78504e-05
2.16417e-05
2.55245e-05
2.97646e-05
3.44193e-05
3.96687e-05
4.525e-05
5.08838e-05
5.31146e-05
5.14261e-05
4.68752e-05
4.77259e-05
4.07773e-05
4.45903e-05
4.66069e-05
4.94812e-05
5.22599e-05
5.49202e-05
5.77848e-05
6.06109e-05
6.34245e-05
6.62981e-05
6.9108e-05
7.20491e-05
7.50197e-05
7.82564e-05
8.15612e-05
8.33432e-05
8.51139e-05
8.68784e-05
8.85629e-05
9.02664e-05
9.1876e-05
9.35098e-05
9.5036e-05
9.65732e-05
9.80024e-05
9.93498e-05
0.000100492
0.000101797
0.00010236
0.000103067
0.0001038
0.000105556
0.000107556
0.000107411
0.000107547
0.000108174
0.00010887
0.000108082
0.000106099
0.000102863
9.80168e-05
8.93461e-05
7.29199e-05
5.85003e-05
4.92075e-05
4.11658e-05
3.59447e-05
3.15e-05
3.17367e-05
2.8202e-05
2.86952e-05
4.18161e-05
4.42728e-05
3.03066e-05
1.77062e-05
7.88044e-06
6.0935e-06
1.02338e-05
2.00316e-05
3.12633e-05
3.47921e-05
2.98067e-05
2.56409e-05
2.72419e-05
4.43661e-05
3.61915e-05
4.3231e-05
4.95677e-05
5.48165e-05
5.47277e-05
5.44406e-05
5.37877e-05
5.30822e-05
5.2376e-05
5.16398e-05
5.05412e-05
4.99035e-05
4.86221e-05
4.89353e-05
4.78383e-05
4.74836e-05
4.66373e-05
4.60396e-05
4.54889e-05
4.50055e-05
4.45081e-05
4.41981e-05
4.37529e-05
4.36145e-05
4.32311e-05
4.31265e-05
4.29372e-05
4.25093e-05
4.22012e-05
4.20358e-05
4.16452e-05
4.1381e-05
4.11395e-05
4.0906e-05
4.06477e-05
4.02883e-05
4.00282e-05
3.94758e-05
3.91218e-05
3.88427e-05
3.87766e-05
3.86134e-05
3.86152e-05
3.84786e-05
3.84485e-05
3.86699e-05
3.87629e-05
3.89586e-05
3.91373e-05
3.93507e-05
3.95948e-05
3.9839e-05
4.01356e-05
4.04852e-05
4.08535e-05
4.12787e-05
4.17439e-05
4.2306e-05
4.29801e-05
4.37066e-05
4.49645e-05
4.67155e-05
4.86935e-05
5.06563e-05
5.30804e-05
5.64533e-05
5.81776e-05
5.80802e-05
5.77325e-05
5.78149e-05
5.76267e-05
5.77583e-05
5.7833e-05
5.80536e-05
5.83754e-05
5.85838e-05
5.90128e-05
5.96776e-05
6.04728e-05
6.08596e-05
6.07994e-05
6.11649e-05
6.12192e-05
6.0839e-05
6.10688e-05
6.10046e-05
5.62898e-05
5.1613e-05
4.79507e-05
4.48267e-05
4.22247e-05
3.98387e-05
3.78531e-05
3.59051e-05
3.50491e-05
3.17753e-05
3.82846e-08
3.08501e-06
9.68778e-06
1.66912e-05
2.47164e-05
3.32687e-05
4.16034e-05
5.14204e-05
5.99461e-05
7.01091e-05
7.88602e-05
8.81258e-05
9.75285e-05
0.000107189
0.00011708
0.000126976
0.000136709
0.000146369
0.000162827
0.000176008
0.000196359
0.000219215
0.000239884
0.000262002
0.000284962
0.000308281
0.000332043
0.000355925
0.000379746
0.000403332
0.000426531
0.000449039
0.000470644
0.000491056
0.000510119
0.000527457
0.000545372
0.000563519
0.000582087
0.000601294
0.000620854
0.000640369
0.000659574
0.000678198
0.000695788
0.000712758
0.000727758
0.000737602
0.000746513
0.000756731
0.000768656
0.000776145
0.000776689
0.000772923
0.000764871
0.000752565
0.000738595
0.000727746
0.000720442
0.000697447
0.00064499
0.000582748
0.000503164
0.000392026
0.000278997
0.000179042
0.000141836
0.000107604
8.79529e-05
7.39292e-05
6.78205e-05
5.61656e-05
4.40584e-05
3.6914e-05
3.18782e-05
3.56261e-05
5.64382e-05
9.36674e-05
0.000110112
0.000121579
0.000108495
6.64617e-05
7.91527e-05
0.000100169
0.000105381
0.000124511
0.00015488
0.000194423
0.000236359
0.000264629
0.000293475
0.000318758
0.000359382
0.000390537
0.000433516
0.000458177
0.0005016
0.00052095
0.00054829
0.00056804
0.000586271
0.000598527
0.000627787
0.000645086
0.000668728
0.000668907
0.000662135
0.000674937
0.000679556
0.000677631
0.000690258
0.000685454
0.000695833
0.00069349
0.000687517
0.000662711
0.000671931
0.000650878
0.00065108
0.000654948
0.000645097
0.000608905
0.000607934
0.000582413
0.000585282
0.000554875
0.000553768
0.000549224
0.000508207
0.000504946
0.000492021
0.000481376
0.000470088
0.000459097
0.000448293
0.000437195
0.000426541
0.000417892
0.000409472
0.00040153
0.000393951
0.000387474
0.000381691
0.000377453
0.000373724
0.000370887
0.0003681
0.000370352
0.000375276
0.00037361
0.000373371
0.000375389
0.000377169
0.000379831
0.000381256
0.000384172
0.000388166
0.000391776
0.000395607
0.000398998
0.000402522
0.00040777
0.000410988
0.000414025
0.000414194
0.000417013
0.000416603
0.000412792
0.000410876
0.00041108
0.000410878
0.000407513
0.000402126
0.000395375
0.000388663
0.000378348
0.000371258
0.000354208
0.000348035
0.000302472
1.01993e-07
8.31239e-06
3.02424e-05
4.85663e-05
6.79018e-05
8.77146e-05
0.000107653
0.000125604
0.000143529
0.0001616
0.000178878
0.000196735
0.000215483
0.000235735
0.00025793
0.000282301
0.000309092
0.000338649
0.000373257
0.00040901
0.000450355
0.00049131
0.000531539
0.000571697
0.000614588
0.000653299
0.000687435
0.000726654
0.000764683
0.000801449
0.000836981
0.000871331
0.000904519
0.000936816
0.000968257
0.000998693
0.00102911
0.0010592
0.00108888
0.00111804
0.00114643
0.00117373
0.00119952
0.00122345
0.00124479
0.00126366
0.00127865
0.00128836
0.00129295
0.0012983
0.00129924
0.00129669
0.00128992
0.00127921
0.00126444
0.00124525
0.00122166
0.00119405
0.00116379
0.00113393
0.00110293
0.0010722
0.000989462
0.000850915
0.000678321
0.000504844
0.000335113
0.000220363
0.000149906
0.000109959
9.31914e-05
7.58814e-05
6.42594e-05
5.7483e-05
5.36411e-05
5.88613e-05
9.8236e-05
0.000122645
0.000145532
0.00011221
0.000106529
0.000128555
0.000155264
0.000206996
0.000291003
0.000397428
0.000493219
0.000563296
0.000645482
0.000722967
0.000796674
0.000854229
0.000934301
0.000981197
0.00105868
0.00109047
0.00115607
0.00118338
0.00122097
0.00124856
0.0012752
0.00129773
0.00132226
0.00133824
0.00136004
0.00137631
0.00138499
0.00140161
0.00140742
0.00141008
0.00140924
0.00140689
0.0013871
0.00138277
0.00136828
0.00134331
0.00133448
0.00132027
0.0013078
0.00129172
0.00127341
0.00124959
0.00122991
0.00120384
0.00117943
0.00114932
0.00112204
0.00109304
0.00105957
0.00103083
0.000999229
0.000968132
0.000936865
0.000906087
0.000876255
0.000846215
0.000813537
0.000789023
0.000765018
0.000741474
0.000720805
0.000700805
0.000686622
0.000675098
0.000660175
0.000651852
0.0006454
0.000643543
0.000640491
0.00063733
0.000635484
0.000634586
0.000635168
0.000637096
0.000638724
0.000641172
0.000644933
0.000649669
0.00065522
0.000661425
0.000668284
0.000677085
0.000684901
0.000692401
0.000696654
0.000702466
0.000704308
0.000706638
0.00071017
0.000715784
0.000716223
0.000712454
0.000706098
0.000697678
0.000687928
0.000672781
0.000660674
0.00063421
0.000617003
0.000563965
2.2013e-07
1.65234e-05
6.46106e-05
0.000107949
0.000149623
0.000190232
0.000227466
0.000259335
0.000288496
0.000314038
0.000336386
0.000357411
0.000378983
0.000402966
0.000430826
0.000463458
0.000501168
0.000543856
0.00059172
0.000642937
0.000697262
0.000752892
0.000808685
0.000864318
0.000917777
0.000968634
0.00101694
0.00106226
0.00110441
0.00114357
0.00118005
0.00121421
0.00124642
0.00127704
0.00130625
0.00133404
0.00136088
0.00138679
0.00141175
0.00143566
0.00145836
0.00147963
0.00149916
0.00151659
0.00153148
0.00154355
0.00155242
0.00155596
0.00155522
0.0014814
0.00140253
0.00134622
0.00130758
0.00128075
0.00126526
0.00126108
0.00126907
0.00128648
0.00131008
0.00131691
0.00127981
0.0012446
0.00120677
0.00115805
0.00104803
0.000878066
0.000668915
0.000456445
0.000298521
0.000194976
0.000137808
0.000110467
8.94548e-05
8.09678e-05
7.59804e-05
8.85405e-05
0.000140719
0.000171852
0.00013085
0.000149376
0.00018263
0.000251722
0.000368295
0.000543619
0.000651412
0.000760216
0.000893231
0.00100074
0.00111335
0.00121483
0.00130769
0.00138632
0.00146952
0.00152948
0.00160186
0.00164559
0.00170186
0.00173875
0.00177913
0.00181476
0.00184543
0.00187155
0.0018957
0.00191392
0.00192939
0.00194703
0.00196461
0.00197884
0.0019789
0.00198623
0.00198351
0.00198664
0.00196761
0.00196705
0.00195445
0.00193449
0.00192349
0.00190792
0.00188986
0.00186826
0.00184325
0.00181424
0.00178324
0.00174852
0.00171149
0.00167123
0.00162887
0.00158392
0.00153643
0.00148793
0.00143736
0.00138582
0.00133354
0.00128119
0.00122931
0.0011781
0.0011232
0.00107721
0.00103295
0.000991452
0.000954895
0.000919591
0.00089237
0.000865541
0.000843081
0.000825417
0.000811009
0.000799368
0.000788956
0.000780312
0.000773174
0.000757085
0.000739424
0.000722199
0.000705816
0.000691437
0.000680523
0.000674143
0.000671692
0.000673453
0.00067855
0.00068527
0.000690149
0.000697424
0.000706222
0.000713574
0.000723538
0.000734306
0.000747936
0.000760013
0.000770125
0.000776545
0.000782292
0.00078347
0.000784091
0.00077563
0.000766939
0.000739774
0.000710907
0.000649536
3.64148e-07
2.49788e-05
0.000101913
0.000181941
0.00025618
0.000323902
0.000383869
0.000436539
0.000480419
0.000517998
0.000549615
0.000577134
0.000602928
0.000629585
0.000659459
0.000694292
0.000734985
0.000781602
0.000833747
0.000889967
0.000948864
0.00100858
0.00106747
0.00112435
0.001178
0.00122771
0.00127327
0.00131461
0.00135183
0.00138543
0.001416
0.00144348
0.00146882
0.0014925
0.00151482
0.00153593
0.0015559
0.00157495
0.00159315
0.0016104
0.00162656
0.00164139
0.00165464
0.00166602
0.00167516
0.00168164
0.00168556
0.00168337
0.00168271
0.00167016
0.00158732
0.00150633
0.00142622
0.00136044
0.00131249
0.0012785
0.0012579
0.00125186
0.00126276
0.00128639
0.00132302
0.00132182
0.00128125
0.00124266
0.00119996
0.00111849
0.000960953
0.000742883
0.000527577
0.000344404
0.000248992
0.000184296
0.000141884
0.000111501
0.000110916
0.000145086
0.000220391
0.000150246
0.000190195
0.000247117
0.00036178
0.000544368
0.000714723
0.000842147
0.000978449
0.00111279
0.00125612
0.00138193
0.00150484
0.00161432
0.00171281
0.00179879
0.00188067
0.00194909
0.00201627
0.0020697
0.00212386
0.00216939
0.00221086
0.00224777
0.00227681
0.00230921
0.00234072
0.00235789
0.00237529
0.0023925
0.00241223
0.00242599
0.00243402
0.00243826
0.002441
0.00244227
0.00243651
0.00242845
0.00242428
0.00241155
0.00239388
0.00237726
0.0023562
0.0023311
0.00230226
0.00226955
0.0022333
0.00218086
0.00211982
0.0020578
0.00199451
0.00192944
0.00186251
0.00179409
0.00172374
0.00165198
0.00157921
0.00150613
0.0014333
0.00136147
0.00129144
0.00122436
0.00116087
0.00110187
0.00104785
0.000999404
0.00095625
0.000917829
0.000882793
0.000850314
0.000820677
0.000792409
0.000765553
0.000739984
0.00071506
0.000690899
0.000670134
0.000651384
0.000635377
0.000623112
0.000614953
0.000610574
0.000609308
0.000611601
0.00061625
0.000622536
0.000627999
0.000635415
0.000645649
0.000654723
0.000665913
0.000678492
0.000690981
0.000701933
0.00071334
0.000722016
0.00073126
0.000736382
0.000740774
0.000737632
0.000732681
0.000714857
0.000693886
0.000654197
5.17073e-07
3.21316e-05
0.000132503
0.000244796
0.000349916
0.000444226
0.000527985
0.000600912
0.000662942
0.000716363
0.000760899
0.000799202
0.000833189
0.000865341
0.000898141
0.000933686
0.000973394
0.00101771
0.00106627
0.00111802
0.0011716
0.00122542
0.00127795
0.0013279
0.00137471
0.00141639
0.00145376
0.00148702
0.00151655
0.00154276
0.00156623
0.00158751
0.00160683
0.00162458
0.0016411
0.00165678
0.0016718
0.00168626
0.00170017
0.00171344
0.00172594
0.00173746
0.00174775
0.00175652
0.0017635
0.00176833
0.00176993
0.00176719
0.00176781
0.00176179
0.00175003
0.00173382
0.00169201
0.00160781
0.00151602
0.00143218
0.00136453
0.0013143
0.00128306
0.00127275
0.001282
0.00130558
0.00131507
0.0012765
0.00124103
0.00120258
0.00112341
0.000970281
0.000764559
0.000547629
0.000375565
0.000280513
0.00019628
0.000162428
0.000168168
0.000236722
0.000180692
0.000223156
0.000301612
0.000447082
0.000682257
0.000827116
0.000965026
0.00110422
0.00125091
0.00140113
0.00155048
0.00168622
0.00181411
0.00192701
0.00202922
0.00211667
0.00220006
0.00227176
0.00233819
0.00239577
0.00244876
0.00249622
0.00254025
0.00257992
0.00261421
0.00264615
0.00267667
0.0027062
0.00272202
0.00273778
0.00275454
0.00276706
0.00277721
0.00278317
0.0027897
0.00278875
0.00278799
0.00278617
0.00277956
0.00277006
0.002754
0.00273682
0.00271516
0.00268964
0.00264619
0.00258009
0.00251381
0.00244725
0.00238023
0.00231226
0.00224277
0.0021714
0.00209806
0.0020226
0.00194466
0.00186424
0.0017817
0.00169761
0.00161256
0.00152704
0.00144191
0.00135827
0.00127757
0.00120087
0.00112871
0.00106213
0.00100109
0.000945448
0.000895011
0.000847395
0.000802103
0.000761058
0.000724525
0.00069144
0.000660518
0.00063398
0.000610236
0.000590146
0.000573867
0.000561604
0.000552809
0.00054759
0.00054524
0.000546949
0.000550945
0.000556595
0.000563667
0.000571734
0.000581055
0.000591249
0.000602744
0.000614547
0.00062654
0.000637315
0.000651125
0.000663237
0.000676154
0.00068475
0.000692404
0.000694522
0.000693212
0.000685144
0.000672044
0.00064808
6.96406e-07
3.86024e-05
0.000154701
0.000292283
0.000422612
0.000538292
0.00064005
0.000729467
0.000808176
0.000875833
0.000934177
0.000984092
0.00102761
0.00106669
0.00110329
0.00113888
0.00117692
0.00121792
0.00125998
0.00130342
0.00134755
0.00139139
0.00143387
0.00147412
0.0015116
0.00154605
0.00157695
0.00160396
0.00162739
0.00164772
0.00166544
0.00168116
0.00169543
0.00170863
0.0017211
0.00173303
0.00174458
0.00175585
0.00176687
0.0017776
0.00178795
0.00179775
0.00180678
0.00181478
0.00182145
0.00182638
0.00182976
0.00182686
0.00182859
0.0018255
0.00181702
0.00180481
0.00178166
0.00175683
0.00172665
0.00169082
0.00161945
0.00151395
0.00142279
0.00135394
0.00131275
0.00129693
0.00130329
0.00131033
0.00127111
0.00123159
0.00118898
0.00110095
0.000944726
0.000750174
0.000566652
0.000385542
0.000277334
0.00022479
0.000251171
0.000229371
0.00027211
0.000349683
0.000491463
0.00074802
0.000893341
0.00103061
0.00117336
0.00132413
0.00148807
0.00165086
0.0018075
0.00194996
0.00208102
0.00219482
0.00230019
0.00239139
0.00247409
0.00254734
0.00261375
0.00267241
0.00272535
0.00277311
0.00281625
0.00285491
0.0028893
0.00292012
0.00294817
0.00297378
0.00299399
0.00301169
0.0030259
0.00303743
0.00304705
0.00305401
0.0030586
0.00305948
0.00305594
0.00305478
0.00304215
0.00303352
0.00301928
0.00300108
0.00297953
0.00291476
0.00284498
0.00277701
0.00270977
0.00264274
0.00257551
0.00250744
0.00243798
0.00236659
0.00229309
0.00221713
0.00213819
0.00205588
0.00197034
0.00188201
0.00179152
0.00169904
0.001605
0.00151038
0.00141625
0.00132399
0.00123509
0.00115057
0.00107063
0.000994482
0.000920461
0.000854183
0.00079311
0.000738639
0.000688645
0.000645122
0.000607281
0.00057626
0.000550916
0.000530622
0.00051441
0.000502327
0.000493776
0.000489009
0.000486682
0.000488642
0.000493467
0.000499535
0.000507306
0.000516649
0.000525989
0.000536168
0.000549469
0.000561877
0.00057301
0.000586024
0.000600943
0.000615258
0.000632129
0.000646
0.000661746
0.000668909
0.0006717
0.000672981
0.000666822
0.00065271
9.24932e-07
4.50385e-05
0.00017275
0.000327131
0.000476702
0.000610946
0.000729593
0.000833366
0.000923417
0.00100054
0.00106669
0.00112353
0.00117244
0.00121542
0.00125443
0.00129136
0.00132709
0.00136268
0.00139903
0.00143594
0.00147296
0.00150945
0.00154449
0.00157731
0.00160744
0.00163461
0.0016589
0.00168052
0.00169951
0.00171608
0.00173055
0.00174333
0.00175481
0.00176536
0.00177529
0.00178485
0.00179424
0.00180361
0.00181305
0.00182261
0.00183226
0.0018419
0.00185135
0.00186038
0.00186867
0.0018758
0.00188156
0.0018849
0.00188301
0.00188674
0.00188286
0.00187569
0.00185632
0.00183317
0.00180536
0.00177165
0.00173182
0.00168584
0.00163395
0.00155577
0.00144488
0.00136707
0.0013244
0.00130746
0.00131381
0.00126895
0.00122048
0.00116469
0.0010641
0.000922597
0.000711608
0.000512348
0.000389916
0.000350901
0.00028818
0.00030715
0.000378214
0.0005183
0.000756262
0.000928816
0.00106673
0.00120993
0.00136193
0.00152623
0.00170284
0.00187285
0.00203586
0.00218004
0.00231578
0.00243346
0.00253893
0.0026318
0.00271491
0.00278867
0.00285452
0.0029125
0.00296406
0.00300988
0.00305035
0.00308613
0.00311751
0.00314506
0.00316963
0.00319129
0.00320941
0.00322409
0.00323538
0.0032441
0.00325057
0.00325457
0.00325556
0.00325384
0.00324585
0.00323797
0.00322527
0.00321435
0.00319939
0.00318097
0.00311718
0.00304537
0.00297612
0.00290895
0.00284302
0.00277777
0.00271273
0.00264719
0.00258038
0.00251155
0.00244031
0.00236622
0.00228867
0.0022071
0.00212115
0.00203087
0.00193636
0.00183842
0.00173739
0.0016342
0.00153049
0.00142698
0.00132347
0.00121964
0.00111531
0.00101567
0.000920617
0.000835471
0.000756155
0.000687535
0.000630536
0.000584461
0.000547507
0.000518206
0.000495083
0.000477227
0.00046351
0.000453808
0.000448003
0.000444973
0.000444489
0.000447007
0.000452765
0.000459705
0.000468911
0.000478159
0.000488508
0.000500516
0.000513086
0.000527007
0.000542269
0.000557938
0.000575127
0.000591596
0.000609617
0.000626572
0.00064279
0.000659985
0.000670104
0.000682835
0.000688021
0.000676795
1.21497e-06
5.17196e-05
0.000189402
0.000356594
0.000520503
0.000669089
0.000800572
0.000915202
0.00101399
0.00109817
0.00117002
0.00123166
0.00128393
0.00132888
0.00136838
0.00140411
0.00143738
0.00146918
0.00150026
0.00153088
0.00156098
0.00159035
0.00161872
0.00164578
0.00167104
0.00169416
0.00171499
0.00173352
0.00174979
0.00176396
0.00177627
0.00178705
0.00179662
0.00180531
0.00181344
0.00182133
0.00182923
0.00183737
0.00184592
0.001855
0.0018647
0.00187501
0.00188586
0.00189706
0.00190838
0.00191944
0.00192973
0.00193888
0.00194593
0.00194662
0.00195207
0.00195026
0.0019434
0.00192204
0.00189536
0.00186221
0.00182214
0.00177564
0.00172304
0.00166534
0.00160332
0.00153352
0.00140927
0.00133167
0.00128978
0.00127986
0.00126307
0.00119862
0.00111593
0.000987086
0.000792244
0.00061889
0.000484135
0.000389438
0.000356164
0.000396451
0.000522345
0.000741536
0.000943698
0.00107767
0.0012209
0.00137114
0.00153264
0.00171048
0.00189545
0.00207111
0.00223488
0.00238522
0.00251999
0.00263894
0.00274483
0.00283817
0.00292089
0.00299382
0.00305802
0.00311384
0.00316224
0.00320486
0.00324133
0.00327268
0.00329935
0.00332182
0.00334141
0.00335754
0.00337023
0.00337947
0.00338565
0.00338933
0.00339073
0.00338981
0.00338611
0.00338031
0.00336908
0.00335698
0.00334211
0.00332566
0.00330812
0.00325031
0.00317506
0.00310392
0.00303629
0.00297145
0.00290842
0.00284651
0.00278495
0.00272307
0.00265999
0.00259485
0.0025268
0.00245501
0.00237834
0.0022968
0.00221029
0.0021188
0.00202326
0.00192441
0.00182098
0.00171329
0.00160212
0.00148407
0.00135951
0.00123426
0.00110998
0.000991367
0.000874281
0.000771764
0.000686788
0.000619143
0.000565804
0.000524983
0.000493532
0.000469205
0.000450676
0.000436797
0.000426471
0.000420029
0.000417339
0.000416288
0.000418315
0.000423119
0.00042929
0.000437982
0.000446261
0.00045705
0.000469721
0.000483903
0.000499172
0.000515176
0.00053239
0.000550345
0.000569617
0.000589169
0.00061007
0.000631135
0.000651939
0.000673415
0.000689933
0.000706091
0.000717355
0.000721064
1.56462e-06
5.85314e-05
0.000205374
0.000383271
0.000558644
0.000718374
0.000859444
0.000981636
0.00108595
0.00117382
0.00124798
0.00131095
0.00136358
0.00140814
0.00144651
0.00148038
0.00151116
0.00153993
0.00156748
0.00159425
0.00162039
0.00164587
0.00167051
0.00169405
0.00171616
0.00173654
0.00175497
0.00177133
0.00178564
0.00179802
0.0018087
0.00181788
0.00182598
0.00183312
0.00183964
0.00184593
0.00185234
0.00185918
0.0018667
0.00187513
0.00188468
0.0018955
0.00190768
0.00192123
0.00193602
0.00195181
0.00196812
0.00198424
0.00199951
0.00201283
0.00201785
0.00202713
0.00202777
0.00202061
0.00199722
0.00196619
0.00192665
0.00187854
0.0018225
0.00176037
0.00169497
0.00162747
0.00155794
0.00140988
0.00128461
0.00121521
0.00117862
0.00117756
0.0011427
0.00100938
0.000824266
0.000661341
0.000515266
0.000426713
0.000446691
0.000534984
0.000719972
0.000955571
0.00107413
0.00121319
0.00136085
0.00151743
0.00168736
0.00187589
0.00206428
0.00224369
0.00241088
0.00256079
0.00269496
0.0028135
0.0029182
0.00300988
0.00308995
0.00315937
0.00321986
0.00327153
0.00331485
0.00335422
0.00338687
0.00341355
0.00343492
0.00345189
0.00346462
0.0034738
0.00347978
0.00348266
0.00348275
0.0034804
0.00347586
0.00346925
0.00346021
0.00344921
0.00343454
0.00341889
0.00340174
0.00338434
0.00330701
0.00322768
0.00315384
0.00308508
0.0030205
0.00295935
0.00290062
0.00284337
0.00278652
0.00272898
0.00266934
0.00260741
0.00254295
0.00247504
0.00240342
0.00232759
0.00224659
0.00215997
0.00206781
0.00196963
0.00186247
0.00174481
0.00161774
0.00148414
0.0013414
0.00119517
0.00104433
0.000905348
0.000784864
0.000686289
0.000609779
0.000551935
0.000507952
0.000475657
0.000451209
0.000432259
0.000418476
0.000407961
0.000400754
0.000397289
0.000396884
0.00039743
0.000401671
0.000408067
0.00041582
0.000425633
0.000432985
0.000445697
0.000461668
0.000478825
0.000496734
0.000515226
0.000535142
0.000556313
0.00057957
0.000604374
0.000631211
0.000659526
0.000688387
0.000717227
0.000742094
0.000764389
0.000782196
0.000789681
1.95782e-06
6.51348e-05
0.000220184
0.000406981
0.000591524
0.000759867
0.000908089
0.00103561
0.00114345
0.00123332
0.00130835
0.0013713
0.00142326
0.00146666
0.00150353
0.00153559
0.00156429
0.00159075
0.00161579
0.00163991
0.00166337
0.0016862
0.00170829
0.0017294
0.00174927
0.00176762
0.00178418
0.00179871
0.00181077
0.00182158
0.00183075
0.00183858
0.00184549
0.00185068
0.00185521
0.00185934
0.00186354
0.0018682
0.0018737
0.00188041
0.00188869
0.00189894
0.00191149
0.00192659
0.00194439
0.00196485
0.00198762
0.00201207
0.00203721
0.00206149
0.00208365
0.00209549
0.00210957
0.00211278
0.00210498
0.00207891
0.00204229
0.00199468
0.00193616
0.00186868
0.00179532
0.00172136
0.00164859
0.00157807
0.00136923
0.00121331
0.00111648
0.00107988
0.00109016
0.000978893
0.000836198
0.000709458
0.000508413
0.000501627
0.000557983
0.000698859
0.000958821
0.00106697
0.00119297
0.00133499
0.00148611
0.00164801
0.00182635
0.0020191
0.00221219
0.00239382
0.00256033
0.00270956
0.00284226
0.00295904
0.00306122
0.0031497
0.00322536
0.00328929
0.00334838
0.00339788
0.00343943
0.0034731
0.00349911
0.00351865
0.00353267
0.00354207
0.00354752
0.00354963
0.00354878
0.00354514
0.003539
0.00353063
0.0035202
0.00350802
0.00349366
0.00347694
0.00345849
0.0034392
0.0033733
0.00328106
0.0031973
0.00312066
0.00305054
0.00298608
0.00292623
0.00286973
0.00281521
0.00276253
0.00271143
0.00266077
0.00260997
0.00255832
0.00250463
0.00244788
0.0023874
0.0023211
0.0022469
0.00216311
0.002069
0.00196636
0.00185152
0.00172222
0.00158187
0.00142303
0.00125146
0.00108259
0.000926906
0.000793629
0.000685807
0.000602439
0.000541017
0.000495885
0.000462491
0.000438455
0.000420174
0.000405628
0.000396321
0.000388216
0.000384216
0.000382668
0.000383996
0.000386242
0.000391743
0.00039949
0.000408526
0.000417674
0.000427999
0.000444047
0.000463145
0.000482838
0.000503356
0.000525034
0.000549148
0.000575664
0.000605604
0.000638762
0.000675112
0.000713874
0.00075361
0.000792255
0.000826402
0.000854485
0.000878458
0.000885815
2.36306e-06
7.10628e-05
0.000232917
0.000426641
0.00061817
0.000792964
0.000946456
0.00107781
0.00118808
0.00127923
0.00135468
0.00141732
0.00146855
0.00151093
0.00154656
0.00157724
0.00160442
0.00162922
0.00165248
0.00167469
0.00169612
0.00171681
0.00173671
0.00175556
0.00177327
0.00178895
0.00180381
0.00181716
0.00182898
0.0018384
0.00184564