/*--------------------------------*- C++ -*----------------------------------*\
  =========                 |
  \\      /  F ield         | OpenFOAM: The Open Source CFD Toolbox
   \\    /   O peration     | Website:  https://openfoam.org
    \\  /    A nd           | Version:  13
     \\/     M anipulation  |
\*---------------------------------------------------------------------------*/
FoamFile
{
    format      ascii;
    class       volScalarField;
    location    "100";
    object      omega;
}
// * * * * * * * * * * * * * * * * * * * * * * * * * * * * * * * * * * * * * //

dimensions      [0 0 -1 0 0 0 0];

internalField   nonuniform List<scalar> 
12225
(
31477.7
31477.7
31477.7
31477.7
43295.5
39652.2
37032
31477.7
31477.7
41400.2
47267.6
42409.5
31477.7
31477.7
41981.4
41156.4
44686.4
39615.5
90662.2
56041.3
24208.3
15685.9
23355.8
16449
29519.3
23502.5
18471.5
18672
20997.3
19076.7
19748.2
20249.1
20860.2
20222.1
20836.7
20377.5
21239.9
18546.3
17887.1
20610.4
13842.8
17933.8
12000.4
16442.4
10707.1
12872.5
13419.1
13079.1
12601.9
11834.8
11038.2
10527.2
9993.8
9743.99
5343.83
8112.5
5214.71
8722.54
15655.2
9164.16
13051.5
13788.6
13707.4
12559.9
11138.4
9914.14
8891.14
8143.45
7491.24
7038.55
6600.76
6314.18
2087.82
3295.96
4492
7040.64
10618.3
7014.09
8794.18
9697.2
9594.04
9116.36
8416.18
7736.24
7050.67
6511.79
6005.45
5643.64
5291.2
5055.27
2309.78
2816.55
2462.36
2284.56
2253.71
2491.92
3400.96
5165.76
4314.77
4912.06
5058.24
4913.07
4670.53
4403.93
4152.19
3954.72
3743.02
3635.34
1115.07
857.908
866.563
1583.48
1130.1
1366.6
2587.78
2269.07
2917.39
3198.5
3205.73
3106.95
2962
2828.79
2688.42
2604.63
2498.27
2458.99
580.211
550.941
588.806
655.318
904.237
880.038
1011.12
1499.24
1446.35
1692.45
1809.19
1822.58
1800.19
1767.76
1731.36
1707.83
1680.63
1675.3
451.444
423.424
488.097
635.045
738.331
912.539
828.395
864.883
979.348
978.276
1002.64
1022.48
1052.34
1067.9
1073.64
1075.17
1070.74
1075.96
437.6
431.777
444.556
479.433
522.918
567.655
602.168
626.908
649.575
667.276
680.974
691.617
699.908
707.555
712.689
717.002
722.414
725.799
437.774
436.982
438.61
445.506
456.637
470.398
482.353
493.131
502.634
511.44
518.922
525.589
530.774
535.677
539.262
542.715
545.652
549.63
438.606
436.892
433.894
435.072
437.592
441.281
444.657
447.836
451.002
454.38
457.573
460.519
463.434
465.668
468.566
470.547
472.443
475.234
438.989
436.565
434.581
433.019
432.135
431.611
431.458
431.062
431.233
431.584
432.03
432.686
433.226
433.885
434.46
435.246
435.705
436.589
439.022
436.737
434.619
432.667
430.911
429.314
427.827
426.505
425.276
424.271
423.293
422.563
421.768
421.225
420.505
420.133
419.407
419.196
439.004
436.773
434.653
432.654
430.758
428.976
427.268
425.676
424.147
422.745
421.387
420.158
418.951
417.869
416.779
415.821
414.828
413.975
439.001
436.774
434.657
432.65
430.742
428.933
427.208
425.574
424.013
422.536
421.124
419.789
418.51
417.302
416.141
415.043
413.988
412.99
439.001
436.772
434.656
432.646
430.736
428.921
427.195
425.553
423.99
422.502
421.084
419.733
418.445
417.218
416.045
414.929
413.86
412.843
439
436.768
434.651
432.638
430.727
428.908
427.181
425.535
423.97
422.478
421.057
419.702
418.41
417.178
416.002
414.881
413.809
412.787
439.001
436.77
434.655
432.641
430.732
428.912
427.185
425.538
423.972
422.478
421.056
419.698
418.405
417.17
415.992
414.867
413.794
412.768
439.004
436.77
434.658
432.644
430.738
428.918
427.192
425.544
423.979
422.483
421.061
419.702
418.409
417.172
415.993
414.866
413.792
412.764
439.02
436.76
434.655
432.657
430.758
428.948
427.219
425.57
423.999
422.502
421.077
419.719
418.424
417.188
416.01
414.885
413.813
412.788
439.223
436.582
434.741
432.836
431.099
429.35
427.604
425.859
424.246
422.666
421.229
419.843
418.549
417.314
416.159
415.054
414.021
413.024
441.095
435.309
437.003
435.249
435.134
434.17
432.097
429.266
427.395
424.532
423.404
421.604
420.091
418.783
417.646
416.739
415.884
415.06
511.908
445.869
469.957
463.133
475.21
477.931
470.247
460.171
458.803
439.669
457.912
447.695
438.563
433.278
429.901
431.386
428.891
427.962
1775.53
509.798
607.291
643.139
662.259
753.814
762.671
746.28
693.267
576.152
659.134
612.58
550.539
502.64
512.181
498.912
488.496
483.613
21812.8
1407.51
2702.92
2257.65
2449.41
2065.17
2330.1
2210.27
1893.14
1354.6
1491.23
1381.33
1057.85
866.253
722.678
769.15
705.913
681.889
44582.9
33172.6
27766.7
17149.4
14826
11123.1
6629.64
7448.4
6775.71
5424.28
3420.12
3838.33
3451
2600.71
1927.89
1624.96
1374.82
1485.94
18837.5
14383.2
12853.9
11488.1
10458.5
9635.47
10237.3
9449.81
9267.73
8640.36
7757.25
6685.08
4961.78
5448.57
5196.72
4529.92
3831.34
4071.43
4015.16
12868.4
9031.35
9380.42
11984
10773.6
10785.1
11612.9
11971.4
12042
11986.2
11517
11144.7
10849.1
10497.7
10299.2
10103
10174.6
18117.5
23167.3
25284
26340.5
26776.2
26727.5
26569.1
26261.6
25914.2
25575.2
25267.7
24976.5
24713.3
24471.7
24251
24054.5
23873.8
23714.1
11463.2
2514.24
2516.41
2518.61
2520.83
2523.07
2525.32
2527.6
2529.9
2532.22
2534.57
2536.93
2539.31
2541.72
2544.15
2546.6
2549.08
3013.3
2554.09
3019.38
3108.3
3268.5
3442.71
3636.69
3810.87
3990.18
4162.59
4328.65
4490.36
4643.73
4794.42
4938.67
5083.23
5224.69
5366.67
5503.37
5639.76
5770.89
5901.6
6025.71
6146.85
6260.19
6368.56
6467.73
6565.07
6647.94
6716.81
6819.72
6880.57
6920.51
6930.83
6912.2
6887.24
6802.58
6670.48
6493.69
6267.44
5996.68
5695.33
5371.92
5024.94
4699.81
4367.48
4110.53
3764.93
3530.08
3191.74
3250.75
3365.28
3341.91
2724.27
2728.46
2732.69
2736.97
2741.29
2745.66
2750.07
2754.53
2759.03
2763.57
2768.17
2772.81
2777.5
2782.24
4088.29
5147.3
5973.83
6414.19
6750.1
7002.79
7208.42
7371.72
7506.93
7615.87
7696.15
7732.58
7807.33
7816.39
7846.78
7842.62
7832.06
7809.63
7786.12
7756.13
7723.86
7698.87
7656.53
7634.85
7585.31
7555.04
7513.42
7455.71
7374.93
7320.54
7235.26
7170.09
7079.65
7007.42
6917.52
6812.5
6715.5
6614.82
6491.99
6383.8
6282.23
6195.21
6090.57
5996.89
5919.8
5834.8
5754.09
5674.65
5597.03
5521.02
5449.28
5378.15
5311.27
5249.55
5190.57
5135.65
5083.11
5032.09
4987.54
4934.66
4899.74
4892.95
4892.1
4886.88
4855.39
4853.45
4852.33
4855.23
4874.61
4863.66
4903.37
4921.76
4955.52
4999.92
5045.72
5102.75
5168.85
5227.27
5269.41
5313.3
5350.15
5362.89
5402.01
5445.49
5499.63
5519.34
5539.98
5552.48
5594.95
5564.7
5599.18
5544.57
5556.46
5552.89
5445.51
5318.09
11463.2
1936.54
1508.55
1526.62
1517.38
1508.22
1512.25
1474.69
1482.95
1461.96
1478.89
1494.21
1516.63
1542.7
1574.6
1612.68
1661.12
1724.06
1738.03
1800.62
1821.97
1826.49
1854.97
1873.72
1887.41
1897.72
1904.21
1907.79
1910.44
1912.38
1915.52
1920.37
1928.7
1940.76
1957.74
1980.04
2001.1
2021.66
2041.97
2061.33
2079.99
2097.39
2113.83
2128.7
2142.39
2152.05
2160.34
2175.74
2181.33
2175.3
2154.3
2130.9
2114.08
2096.02
2075.84
2052.8
2020.01
1967.69
1897.88
1824.06
1774.94
1707.31
1647.31
1695.81
1824.06
2128.41
1997.58
2084.67
2198.44
2365.16
2319.64
2326.43
2258.72
2137.82
2013.78
1890.02
1752.59
1730.51
1843.87
1754.22
1948.43
2037.36
3901.71
4863.59
4969.41
4809.71
4568.6
4268.72
4025.16
3811.14
3640.79
3547.38
3328.66
3227.28
3039.54
2984.27
2806.36
2760.13
2667.14
2613.6
2555.62
2529.08
2467.24
2459.82
2388.76
2396.25
2391.01
2372.63
2378.2
2344.14
2345.02
2303.42
2289.34
2273.38
2257.68
2238.71
2219.02
2203.02
2181
2156.75
2137.43
2114.55
2086.9
2066.93
2046.5
2030.21
2010.36
1990.33
1976.44
1959.27
1943.84
1929.12
1915.1
1901.81
1889.43
1880.07
1871.79
1860.57
1849.97
1841.64
1835.11
1831.15
1828.24
1827.18
1831.81
1837.93
1853.27
1848.18
1852.64
1862.44
1876.13
1881.53
1890.86
1898.2
1914.06
1928.02
1945.46
1967.64
1990.24
2012.56
2034.41
2047.06
2059.47
2069.75
2080.3
2072.46
2079.9
2086.87
2095.45
2101.51
2108.67
2111.15
2119.26
2120.43
2127.36
2129.25
2133.8
2151.31
2155.49
2306.21
11463.2
1779.67
1139.39
1079.13
1055.55
1052.09
1054.06
1074.08
1091.42
1105.21
1125.78
1146.3
1167.83
1188.45
1207.76
1225.16
1240.82
1253.73
1256.9
1262.38
1256.73
1255.45
1258
1260.92
1258.16
1263.16
1275.54
1277.27
1280.41
1284.87
1290.94
1298.54
1308.02
1318.97
1331.61
1346.09
1361.27
1377.38
1394.39
1412.03
1430.16
1448.46
1466.76
1484.6
1501.98
1517.77
1532.47
1546.59
1558.47
1565.89
1568.45
1565.7
1559.33
1548.93
1534.11
1514.78
1490.63
1460.63
1424.08
1378.03
1325.82
1267.62
1238.81
1247.26
1298.02
1378.04
1549.55
1702
1831.39
1956.64
1886.74
1938.76
1902.62
1800.5
1671.48
1617.46
1497.07
1716.9
1941.91
2288.74
3450.81
4200.45
4283.63
3767.44
3313.8
2956.3
2583.79
2455.49
2318.18
2220.73
2141.72
2103.41
2010.09
1984.69
1896.47
1887.24
1817.68
1805.57
1775.94
1759.69
1743.02
1732.5
1719.2
1715.55
1705.8
1705.07
1701.05
1696.51
1693.8
1689.44
1687.33
1682.81
1679.29
1671.53
1664.2
1655.34
1645.78
1637.09
1626.88
1615.91
1606.14
1595.3
1583.27
1572.62
1561.75
1551.44
1540.4
1528.99
1518.5
1507.16
1496.08
1485.25
1474.7
1464.55
1454.42
1446.85
1447.01
1437.95
1431.38
1428.56
1426.35
1429.08
1427.07
1424.47
1436.58
1440.28
1447.03
1451.52
1459.08
1466.93
1476.11
1485.67
1496
1505.55
1517.54
1530.21
1541.85
1552.25
1560.59
1565.25
1566.93
1563.43
1559.37
1554.04
1547.84
1539.56
1531.1
1523.31
1514.07
1504.8
1498.35
1491.85
1488.72
1481.91
1480.3
1476.27
1476.2
1481.56
1494
1548.53
11463.2
1774.53
946.234
816.219
776.673
762.083
761.663
773.783
787.835
806.737
830.691
857.025
883.753
908.563
930.023
947.275
960.591
970.332
976.32
980.995
984.17
987.455
991.517
995.892
1002.31
1010.44
1019.89
1030.77
1043.22
1057.03
1072.17
1088.46
1105.9
1124.33
1143.86
1164.56
1186.11
1208.37
1231.25
1254.49
1277.89
1301.11
1323.87
1345.82
1366.68
1385.91
1403.15
1418.69
1433.05
1445.71
1454.65
1460.29
1461.62
1457.26
1446.93
1430.46
1408.79
1380.19
1344.96
1302.97
1255.3
1200.97
1144.88
1094.34
1074.68
1092.38
1160.16
1293.75
1430.56
1546.72
1626.57
1604.89
1614
1522.55
1509.75
1541.92
1672.67
2167.58
2449.92
3815.68
3827.08
3278.63
2763.37
2424.32
2185.69
2042.68
1897.4
1834.3
1768.31
1720.67
1681.89
1656.29
1621.03
1606.52
1575.86
1569.77
1549.34
1543.86
1533.64
1525.88
1520.66
1517.85
1515.4
1516.79
1519.8
1519.37
1517.29
1517.6
1521.91
1517.72
1522.4
1518.2
1519.51
1513.51
1511.66
1512.56
1507.08
1502.12
1496.49
1490.55
1484.67
1478.39
1471.65
1464.87
1457.84
1450.63
1443.23
1435.51
1427.69
1419.49
1411.17
1402.8
1394.48
1386.35
1378.5
1371.55
1371.71
1365.38
1361.06
1358.34
1355.27
1357.5
1355.73
1360.33
1366.15
1371.53
1378.86
1387.6
1398.36
1408.48
1419.83
1432.73
1445.05
1456.32
1463.82
1470.55
1473.89
1472.84
1469.06
1461.76
1450.82
1437.16
1422.37
1406.28
1390.02
1371.74
1354.31
1337.99
1318.16
1303.79
1291.88
1279.82
1271.15
1256.3
1252.67
1248.07
1246.35
1245.2
1257.79
1277.45
11463.2
1834.73
893.225
703.562
642.648
617.554
609.131
608.999
616.514
627.729
643.047
661.552
682.26
703.878
725.233
745.314
763.672
780.185
794.96
808.706
821.977
835.479
849.782
865.032
881.59
899.444
918.478
938.536
959.612
981.415
1003.81
1027.04
1050.77
1074.87
1099.39
1124.3
1149.67
1175.26
1200.93
1226.48
1251.77
1276.5
1300.44
1323.25
1344.7
1364.45
1382.15
1397.87
1412.22
1423.46
1432.45
1438.59
1443.04
1442.54
1436.23
1424.25
1407.95
1381.89
1347.7
1306.07
1258.04
1201.61
1144.99
1084.85
1026.65
995.147
998.658
1056.57
1149.04
1292.27
1294.06
1324.08
1367.45
1467.01
1506.08
1628.91
1964.17
2710.23
3514
3349.56
2709.52
2293.32
2022.34
1859.05
1745.25
1674.99
1612.24
1576.05
1541.66
1517.31
1498.3
1485.17
1470.94
1463.05
1452.84
1449.48
1443.25
1440.7
1439.05
1438.65
1441.67
1441.27
1440.06
1446.43
1451.33
1454.79
1455.15
1457.53
1460.94
1462.74
1465.27
1466.2
1467.58
1469.65
1466.59
1466.17
1466.78
1464.05
1461.24
1458.07
1454.7
1450.92
1446.76
1442.24
1437.29
1431.68
1426.2
1420.31
1414.21
1407.79
1401.2
1394.44
1387.67
1381.03
1375.09
1369.07
1367.7
1363.91
1361.78
1360.35
1357.89
1356.5
1357.43
1361.59
1367.37
1374.81
1384.56
1397.32
1411.33
1422.63
1435.81
1448.3
1458.53
1467.21
1470.35
1470.67
1465.44
1454.8
1439.9
1421.26
1399.91
1376.79
1353.31
1329.04
1306.06
1280.08
1260.36
1239.89
1215.45
1205.39
1189.24
1172.7
1158.95
1139.36
1134.2
1128.87
1123.35
1131.39
1134.79
1143.59
11463.2
1960.6
922.982
691.893
609.815
573.324
555.638
548.264
547.857
551.437
559.378
570.411
584.316
600.563
618.601
637.825
657.759
678.105
698.783
719.82
741.345
763.497
786.45
810.27
834.778
860.704
887.33
914.373
941.657
969.009
996.319
1023.44
1050.52
1077.53
1104.49
1131.28
1157.9
1184.28
1210.38
1236.1
1261.33
1285.88
1309.56
1332.12
1353.3
1372.78
1390.27
1405.55
1418.52
1428.64
1436.67
1441.76
1445.63
1447.66
1445.15
1438.5
1426.28
1406.97
1378.61
1340.91
1293.84
1238.83
1176.02
1109.74
1041.3
977.299
943.607
946.863
987.833
1078.03
1173.93
1177.58
1333.22
1464.81
1597.7
1885.65
2495.52
3236.87
3030.89
2448.58
2040.15
1817.47
1681.91
1598.59
1539.01
1499.74
1466.7
1445.23
1426.77
1415.31
1406.44
1402.88
1397.59
1395.79
1393.93
1394.42
1395.13
1396.85
1398.63
1401.11
1405.01
1408.78
1412.01
1414.35
1422.44
1429.08
1433.7
1438.75
1443.16
1447.07
1450.54
1453.85
1456.2
1456.84
1457.73
1457.83
1458.96
1457.98
1456.78
1455.08
1453.12
1450.64
1447.68
1444.26
1440.32
1435.6
1431.08
1426.15
1420.94
1415.43
1409.73
1403.84
1397.87
1392.06
1386.81
1381.77
1377.54
1374.15
1372.53
1369.8
1366.91
1365.39
1367.21
1371.66
1378.29
1387.06
1397.87
1409.87
1422.37
1431.63
1441.44
1448.69
1450.36
1448.4
1439.52
1424.41
1404.46
1380.72
1354.41
1326.39
1297.69
1269.02
1241.39
1214.15
1189.76
1159.97
1156.52
1136.67
1116.87
1094.62
1076
1062.01
1048.23
1026.59
1039.25
1033.07
1029.32
1026.54
1031.52
1033.25
11463.2
2094.1
994.743
721.779
620.282
573.92
550.007
537.092
530.409
528.886
531.184
537.137
546.333
558.607
573.842
592.013
611.846
633.206
656.909
682.3
709.099
737.054
766.001
795.688
825.859
856.18
886.66
917.288
947.911
978.296
1008.37
1037.96
1067.03
1095.55
1123.6
1151.23
1178.5
1205.44
1232.1
1258.43
1284.39
1309.84
1334.64
1358.52
1381.22
1402.37
1421.62
1438.53
1452.77
1463.87
1472.4
1476.55
1481.91
1480.88
1476.18
1467.96
1455.65
1438.29
1414.75
1383.06
1340.23
1285.95
1220.66
1147.64
1072.5
1000.41
934.904
903.884
912.486
946.033
981.571
1086.07
1212.59
1462.02
1778.1
2176
2874.34
2841.85
2333.77
1924.85
1697.79
1578.19
1504.4
1456.85
1422.22
1398.71
1379.75
1367.7
1358.64
1355.44
1352.23
1352.54
1353.31
1355.41
1357.86
1361.43
1365.44
1369.85
1374.66
1379.95
1385.82
1391.99
1398.17
1404.13
1411.31
1418.26
1425.35
1432.1
1438.11
1443.58
1448.62
1453.35
1457.38
1459.06
1464.14
1465.15
1466.44
1467.19
1467.35
1466.58
1465.71
1464.18
1462.03
1459.29
1455.95
1452.06
1447.66
1442.8
1437.54
1431.95
1426.17
1420.13
1413.88
1407.6
1401.32
1394.97
1388.68
1382.64
1376.75
1371.42
1366.94
1364.56
1363.64
1365.49
1369.64
1375.83
1383.67
1391.41
1398.24
1400.22
1399.37
1392.27
1377.96
1358.04
1333.44
1305.16
1274.27
1242.14
1209.95
1178.39
1147.92
1119.07
1092.02
1066.61
1043.01
1020.42
1001.6
974.935
985.114
970.921
950.334
954.962
943.724
922.555
924.418
922.06
907.003
890.073
917.987
915.647
11463.2
2220.56
1076.17
771.8
651.389
593.321
561.43
543.152
533.098
528.962
529.172
533.039
540.426
551.085
564.878
581.61
601.378
623.917
648.778
675.729
704.469
734.649
766.039
798.354
831.27
864.436
897.5
930.117
962.212
993.694
1024.56
1054.77
1084.4
1113.49
1142.17
1170.53
1198.68
1226.67
1254.57
1282.37
1310.05
1337.5
1364.58
1391.04
1416.59
1440.85
1463.41
1483.73
1501.49
1515.18
1526.64
1532.35
1539.08
1539.84
1535.12
1525.26
1510.36
1490.62
1465.62
1434
1394.22
1344.04
1278.33
1200.61
1116.73
1035.9
962.514
899.663
872.258
869.601
918.993
1004.09
1167.15
1466.55
1728.82
2525.5
2667.81
2301.84
1896.69
1640.74
1511.93
1441.91
1397.46
1367.75
1346.23
1332.54
1320.89
1316.61
1312.12
1312.6
1314.6
1318.41
1322.83
1328
1333.58
1339.88
1346.55
1353.56
1360.96
1368.7
1376.79
1385.14
1393.43
1401.65
1410.09
1418.66
1427.29
1435.57
1443.31
1450.57
1457.46
1463.98
1470.21
1475.43
1481.05
1483.85
1486.33
1488.4
1489.51
1488.33
1488
1486.84
1484.92
1482.26
1478.82
1474.67
1469.88
1464.53
1458.71
1452.41
1445.72
1438.71
1431.38
1423.79
1415.9
1407.65
1399.12
1390.7
1381.36
1372.72
1364.92
1358.46
1353.96
1351.58
1350.91
1351.07
1351.01
1347.92
1339.92
1326.25
1307.27
1282.93
1254.26
1222.7
1189.58
1155.83
1122.19
1089.38
1057.92
1028
999.807
973.509
948.988
926.378
905.798
886.718
869.828
852.88
840.871
817.742
835.546
827.296
812.178
800.563
784.496
802.784
798.439
784.92
803.684
798.853
11463.2
2332.63
1153.03
823.453
687.532
619.34
580.842
558.142
545.155
538.928
537.581
540.107
546.502
556.414
569.693
586.207
605.879
628.535
653.904
681.66
711.449
742.826
775.314
808.432
841.865
875.29
908.46
941.145
973.269
1004.77
1035.71
1066.13
1096.16
1125.92
1155.56
1185.18
1214.9
1244.76
1274.8
1305.02
1335.38
1365.79
1396.07
1425.97
1455.2
1483.33
1509.92
1534.44
1556.33
1575.07
1590.07
1601.1
1606.12
1612.13
1610.97
1603.09
1588.64
1567.5
1539.46
1504.53
1462.27
1411.55
1349.59
1270.99
1180.23
1090.62
1006.45
936.459
886.886
876.628
902.229
1003.5
1232.31
1465.68
2041.08
2434.16
2264.2
1912.73
1638.32
1480.57
1400.2
1354.71
1325.18
1305.06
1291.12
1283.36
1279.03
1277.34
1278.71
1282.9
1288.47
1295.29
1302.68
1310.59
1318.87
1327.71
1336.98
1346.31
1356.06
1366.06
1376.31
1386.78
1397
1407.32
1417.72
1428.2
1438.54
1448.53
1458.01
1466.99
1475.5
1483.5
1491
1497.84
1504.39
1509.85
1514.01
1515.66
1516.08
1515.44
1515.16
1513.81
1511.46
1508.15
1503.93
1498.89
1493.14
1486.75
1479.9
1472.5
1464.69
1456.51
1447.96
1439
1429.53
1419.39
1408.49
1396.58
1385.11
1373.14
1361.41
1350.38
1340.37
1330.93
1320.72
1308.58
1292.9
1272.88
1248.59
1219.88
1188.31
1155.02
1121.2
1087.28
1054.08
1021.62
990.466
960.709
932.633
906.093
881.325
858.289
836.89
817.352
799.325
782.865
767.835
753.466
742.472
725.435
732.399
728.443
715.139
706.729
698.999
706.134
693.372
704.327
703.761
701.267
11463.2
2429.21
1220.37
870.023
721.313
644.95
601.345
575.504
560.659
553.438
551.595
553.885
560.219
570.123
583.38
599.82
619.302
641.632
666.565
693.767
722.874
753.454
785.079
817.313
849.824
882.317
914.609
946.558
978.137
1009.32
1040.21
1070.91
1101.55
1132.37
1163.54
1195.12
1227.2
1259.8
1292.92
1326.53
1360.56
1394.9
1429.35
1463.6
1497.32
1530.02
1561.21
1590.33
1616.83
1640.1
1659.64
1674.83
1685.47
1690.24
1695.05
1691.9
1680.87
1661.67
1633.95
1597.23
1551.59
1496.82
1431.86
1353.57
1259.58
1165.22
1076.93
999.497
938.539
921.3
954.879
1092.91
1334.71
1670.15
2111.95
2169.26
1928.12
1659.83
1477.61
1376.24
1322.26
1290.36
1269.64
1256.64
1249.47
1246.17
1245.5
1248.71
1254.31
1262.01
1271.01
1281.02
1291.65
1302.78
1314.04
1325.68
1337.81
1348.96
1360.5
1372.35
1384.5
1396.74
1409.16
1421.6
1433.95
1446.15
1458.08
1469.57
1480.5
1490.84
1500.55
1509.58
1517.92
1525.47
1532.38
1537.84
1541.26
1543.04
1542.88
1543.13
1542.2
1540.04
1536.77
1532.43
1527.09
1520.85
1513.82
1506.09
1497.64
1488.6
1479.13
1469.28
1459.05
1448.38
1437.09
1425.17
1412.73
1399.62
1384.97
1369.12
1352.13
1334.1
1315.01
1293.89
1269.69
1242.4
1211.35
1177.61
1141.84
1106.02
1070.8
1036.46
1003.35
971.404
940.958
911.787
884.476
858.66
834.62
812
791.015
771.507
753.419
736.894
721.495
707.437
694.07
682.03
670.172
661.117
646.719
652.077
645.954
636.251
625.577
631.369
623.699
630.104
629.698
629.45
11463.2
2511.11
1277.85
910.315
751.103
668.228
620.68
592.539
576.47
568.699
566.686
569.034
575.498
585.492
598.705
614.9
633.89
655.458
679.363
705.3
732.939
761.9
791.831
822.375
853.26
884.255
915.265
946.257
977.483
1008.37
1039.34
1070.48
1101.88
1134.34
1167.59
1201.81
1237.01
1273.18
1310.32
1348.32
1387.08
1426.42
1466.09
1505.71
1544.83
1582.89
1619.29
1653.41
1684.64
1712.41
1736.24
1755.7
1770.27
1780.05
1784
1786.83
1781.07
1766.31
1742.14
1707.29
1660.92
1602.28
1532.85
1450.27
1355.78
1257.59
1167.69
1084.73
1035.3
1021.82
1072.85
1197.95
1447.11
1848.2
2004.45
1904.97
1688.09
1495.16
1371.74
1302.48
1263.86
1240.69
1226.38
1219.39
1215.64
1216.14
1220.07
1227.18
1236.51
1247.63
1259.99
1273.31
1287.43
1302.18
1315.17
1328.54
1341.97
1355.67
1369.85
1384.28
1398.87
1413.43
1427.92
1442.19
1456.2
1469.8
1482.93
1495.42
1507.21
1518.22
1528.42
1537.72
1546.15
1553.59
1559.85
1564.02
1566.74
1568.61
1568.25
1567.43
1565.16
1561.3
1556.33
1550.25
1543.1
1535
1526.04
1516.38
1506.09
1495.74
1485.03
1474
1462.66
1450.95
1438.66
1425.61
1411.08
1394.7
1375.85
1354.33
1329.76
1301.58
1270.27
1235.5
1197.46
1157.33
1115.47
1075.05
1036.4
1000.49
966.731
934.771
904.766
876.252
849.571
824.502
801.578
779.994
760.266
741.927
725.022
709.145
694.266
680.539
667.631
655.466
643.77
633.061
622.909
613.612
604.937
596.491
590.744
583.692
585.887
583.718
582.344
581.376
579.327
582.38
11463.2
2580.86
1326.83
945.027
777.171
689.028
638.338
608.399
591.395
583.203
581.066
583.46
589.971
599.913
612.889
628.599
646.812
667.295
689.827
714.147
740
767.1
795.156
823.932
853.184
883.061
912.815
942.664
972.664
1003.24
1034.58
1066.83
1100.09
1134
1169.81
1207.15
1246.06
1286.48
1328.37
1371.6
1415.99
1461.29
1507.18
1553.18
1598.72
1643.09
1685.56
1725.32
1761.67
1793.98
1821.82
1844.88
1863
1875.97
1883.57
1886.44
1886.51
1876.85
1858.04
1827.94
1784.8
1724.93
1647.56
1559.41
1462.23
1361.53
1272.14
1198.56
1161.1
1164.37
1224.18
1370.88
1632.78
1825.3
1831.91
1695.13
1522.11
1384.62
1297.77
1247.61
1218.65
1201.63
1192.46
1188.81
1188.7
1192.72
1200.38
1210.97
1223.69
1238.06
1253.62
1270.05
1287.21
1302.6
1317.42
1333.57
1350.1
1366.78
1383.55
1400.28
1416.89
1433.3
1449.43
1465.2
1480.5
1495.18
1509.14
1522.27
1534.46
1545.66
1555.81
1564.92
1572.87
1579.44
1584.09
1586.02
1586.5
1586.21
1584.63
1581.64
1577.18
1571.4
1564.94
1557.43
1548.88
1539.38
1529.06
1518.09
1506.61
1494.73
1482.58
1470.21
1457.57
1444.54
1430.65
1415.37
1397.87
1377.44
1352.71
1323.16
1288.25
1247.47
1202.98
1155.93
1107.85
1060.4
1016.5
977.021
940.955
908.604
878.577
850.479
824.623
800.234
778.159
757.847
739.683
722.639
707.781
693.832
680.818
668.539
657.453
647.142
637.027
627.285
617.607
608.663
599.679
591.343
583.268
576.286
569.988
565.031
560.416
558.706
555.624
556.084
554.329
555.695
11463.2
2639.15
1368.98
975.336
800.232
707.664
654.303
622.795
604.914
596.252
593.908
596.229
602.62
612.322
624.864
639.894
657.151
676.402
697.453
720.106
744.206
769.607
796.22
823.746
851.087
878.378
906.328
935.156
964.996
995.924
1028.13
1061.76
1097.01
1133.73
1172.03
1212.72
1255.61
1300.58
1347.59
1396.53
1447.18
1499.23
1552.28
1605.76
1658.94
1710.91
1760.68
1807.17
1849.43
1886.66
1918.4
1944.46
1964.93
1980.06
1989.98
1994.54
1996.5
1991.16
1977.75
1953.85
1916.84
1860.13
1781.87
1685.99
1580.15
1474.69
1383.62
1316.77
1289.16
1301.7
1360.01
1490.83
1668.68
1731.16
1670.88
1540.68
1408
1307.98
1243.99
1205.76
1183.35
1170.85
1165.02
1163.96
1167.07
1174.1
1184.95
1198.57
1214.25
1231.5
1249.89
1268.65
1286.16
1304.37
1322.65
1341.55
1360.61
1379.67
1398.62
1417.36
1435.78
1453.83
1471.38
1488.39
1504.71
1520.2
1534.63
1547.94
1560.04
1570.86
1580.11
1587.23
1592.6
1595.84
1596.89
1596.53
1595.6
1593.41
1589.9
1585.04
1578.81
1570.92
1562.45
1552.97
1542.6
1531.43
1519.58
1507.2
1494.46
1481.41
1468.18
1454.7
1440.82
1426.25
1410.24
1392.14
1370.43
1344.15
1311.11
1271.08
1224.31
1171.57
1116.38
1061.31
1010.22
964.41
924.793
890.176
859.209
831.899
806.377
782.879
761.717
742.348
725.601
710.375
697.111
685.302
674.952
665.233
656.45
647.562
639.051
631.087
623.015
615.1
607.258
599.905
592.069
584.607
577.254
570.888
565.051
560.119
555.585
552.283
548.515
545.934
542.642
541.624
11463.2
2692.41
1406.22
1002.42
821.041
724.552
668.747
635.726
616.912
607.659
604.98
607.103
613.235
622.565
634.566
648.844
665.122
683.176
702.849
724.009
746.6
770.618
796.176
821.857
847.823
874.55
901.971
930.456
960.305
991.697
1024.88
1060.09
1096.41
1134.45
1175.43
1219.37
1266.07
1315.49
1367.61
1422.37
1479.65
1539.1
1600.28
1662.53
1724.93
1786.3
1845.25
1900.21
1949.74
1992.7
2028.46
2057
2078.7
2094.24
2104.27
2109.42
2110.95
2108.32
2098.96
2081.23
2051.4
2006.11
1937.81
1843.29
1729.77
1613.18
1511.99
1438.9
1408.62
1418.54
1477.03
1559.97
1632.16
1625.13
1543.06
1431.08
1329.17
1253.82
1204.4
1173.91
1155.93
1146.29
1142.74
1143.99
1149.48
1159.02
1172.31
1188.35
1206.38
1225.98
1246.53
1268.21
1286.92
1307.12
1328.06
1349.34
1370.7
1391.95
1412.93
1433.53
1453.63
1473.15
1491.95
1509.93
1526.96
1542.83
1557.3
1570.03
1580.49
1588.82
1594.98
1598.75
1600.87
1601.19
1599.91
1596.44
1592.38
1587.07
1580.57
1572.97
1564.4
1554.92
1544.65
1533.64
1521.98
1509.69
1496.82
1483.48
1469.81
1455.83
1441.6
1426.91
1411.47
1394.86
1375.82
1353.62
1325.86
1291.81
1249.76
1199.6
1142.31
1081.55
1021.19
965.544
918.356
878.759
845.884
817.316
792.135
770.112
749.262
730.856
715.08
701.131
689.146
678.619
670.2
662.366
656.103
649.893
644.431
638.229
631.808
625.315
618.84
612.454
606.342
600.581
594.926
589.297
583.509
578.203
572.963
567.82
562.511
557.209
551.31
546.38
540.718
536.859
11463.2
2727.57
1438.62
1027.07
840.234
740.145
681.998
647.449
627.627
617.675
614.559
616.416
622.233
631.166
642.642
656.24
671.675
688.739
707.307
727.312
748.791
771.814
796.44
821.619
847.573
874.3
901.854
930.292
960.049
991.535
1024.85
1060.09
1097.36
1137.37
1180.78
1227.4
1277.3
1330.57
1387.34
1447.67
1511.63
1578.96
1649.24
1721.79
1795.55
1868.93
1939.91
2006.12
2065.24
2115.43
2155.71
2186.17
2207.78
2221.81
2229.76
2232.87
2233
2229.37
2221.6
2208.14
2185.92
2152.09
2099.72
2020.3
1912.59
1788.94
1670.7
1575.73
1523.01
1511.58
1535.07
1570.07
1580.31
1535.69
1452
1359.06
1277.93
1217.4
1176.53
1150.57
1135.12
1127.22
1125.29
1127.85
1134.85
1146.28
1161.29
1178.99
1198.74
1220.02
1242.35
1266.07
1286.61
1308.58
1331.5
1354.89
1378.38
1401.69
1424.63
1446.98
1468.62
1489.35
1509.06
1527.58
1544.74
1560.17
1573.29
1583.73
1591.25
1596.46
1599.16
1599.13
1597.31
1593.89
1588.88
1582.45
1574.85
1566.27
1556.86
1546.77
1536.13
1524.96
1513.28
1501.12
1488.5
1475.41
1461.76
1447.64
1433.09
1418.1
1402.67
1386.39
1368.79
1349.29
1325.9
1298.25
1264.28
1222.52
1171.91
1112.5
1047.6
983.358
925.347
877.062
838.241
806.872
780.962
758.553
739.045
722.193
706.122
693.3
683.025
673.735
666.87
660.933
656.27
652.879
649.326
644.712
640.714
636.033
631.197
627.237
625.009
622.344
622.834
619.662
616.419
612.444
607.828
603.208
597.842
591.516
583.911
575.279
565.692
556.192
546.577
537.789
11463.7
2812.87
1477.09
1052.41
859.27
755.49
694.998
658.91
638.063
627.394
623.841
625.467
631.013
639.641
650.741
663.87
678.751
695.222
713.172
732.508
753.242
775.411
798.975
823.71
849.594
876.545
904.574
933.71
964.083
995.909
1029.61
1065.51
1103.92
1145.28
1189.89
1238.1
1290.16
1346.31
1406.87
1472.13
1542.45
1617.97
1698.51
1783.55
1871.77
1961.12
2048.8
2130.98
2203.8
2264.03
2309.94
2341.82
2361.46
2371.22
2373.77
2371.23
2366.06
2358.78
2349.56
2337.4
2320.2
2294.8
2257.38
2199.37
2112.59
1998.31
1872.14
1753.06
1660.78
1609.71
1596.27
1580.62
1525.8
1460.29
1381.28
1303.89
1239.92
1191.52
1157.13
1134.16
1120.14
1113.04
1111.81
1114.73
1122.36
1134.67
1150.61
1169.39
1190.36
1213.04
1236.62
1262.38
1284.82
1308.25
1332.63
1358
1383.59
1408.95
1433.74
1457.72
1480.61
1502.18
1522.15
1540.35
1556.5
1570.04
1580.66
1588
1591.88
1593.15
1591.24
1587.26
1581.31
1573.64
1564.55
1554.37
1543.37
1531.77
1519.77
1507.47
1495.09
1482.53
1469.74
1456.67
1443.23
1429.32
1414.86
1399.86
1384.31
1368.01
1350.98
1332.45
1311.77
1288.52
1261.12
1228.09
1187.41
1136.31
1075.54
1008.9
942.54
884.374
837.452
800.463
771.45
748.338
728.717
712.571
698.369
686.263
676.363
669.082
663.996
658.731
656.214
652.508
653.073
651.32
647.935
644.227
644.82
644.475
644.527
644.166
645.957
646.949
656.155
653.483
654.676
653.191
650.083
646.12
639.943
631.307
619.779
606.241
591.182
575.568
560.721
545.791
11462.8
2863.53
1509.88
1076.41
878.369
771.511
709.089
671.829
650.331
639.371
635.811
637.578
643.241
652.046
663.33
676.631
691.618
708.059
725.83
744.861
765.165
786.841
810.062
834.93
861.46
889.524
918.97
949.675
981.675
1015.11
1050.16
1087.16
1126.58
1168.8
1214.25
1263.46
1316.92
1375.14
1438.67
1508.15
1584.24
1667.58
1758.47
1856.67
1961.1
2069.5
2177.58
2279.58
2369.6
2442.13
2493.99
2525.81
2540.64
2542.08
2535
2521.74
2506.56
2491.29
2476.51
2461.62
2444.98
2423.82
2394.83
2353.44
2291.51
2202.92
2091.77
1968.56
1842.52
1739.27
1657.1
1601.43
1558.66
1478.18
1385.89
1307.13
1239.42
1187.86
1151.12
1126.47
1111.45
1104.28
1103.6
1106.79
1115.16
1128.06
1144.19
1163.54
1185.57
1208.84
1234.06
1260.88
1285.15
1308.82
1335.06
1362.48
1390.2
1417.57
1444.05
1469.26
1492.77
1514.28
1533.37
1549.88
1563.49
1573.78
1580.85
1583.79
1582.99
1578.68
1572.17
1563.45
1552.84
1540.74
1527.57
1513.73
1499.58
1485.33
1471.14
1457.1
1443.24
1429.49
1415.78
1401.95
1387.84
1373.22
1357.94
1341.89
1325.07
1307
1287.77
1266.95
1243.91
1217.18
1185.05
1144.05
1092.88
1032.52
967.439
902.833
846.914
802.068
767.575
741.164
720.301
703.665
690.401
679.453
671.173
664.783
660.68
657.654
656.181
653.273
653.1
652.611
651.756
651.495
650.432
652.063
653.445
655.142
658.49
662.451
668.736
677.606
690.6
695.169
712.469
712.971
710.158
705.67
697.509
684.883
668.332
648.746
627.672
605.023
584.407
562.193
11461.8
2923.92
1540.91
1099.1
897.212
788.268
724.866
687.392
666.219
655.982
653.439
656.31
663.21
673.383
685.992
700.505
716.636
734.19
752.997
772.788
793.635
816.007
840.374
866.945
895.642
926.126
958.09
991.344
1025.89
1061.63
1098.59
1136.97
1177.44
1220.54
1266.89
1317.11
1371.88
1431.98
1498.23
1571.57
1653.05
1743.73
1844.44
1955.4
2075.71
2202.48
2330.35
2451.79
2557.98
2641.99
2698.16
2727.82
2734.78
2726.74
2704.09
2675.56
2646.16
2618.92
2594.89
2573.74
2554.04
2533.38
2508.43
2475.56
2430.23
2365.96
2280.63
2176.44
2050.04
1912.85
1793.01
1685.23
1560.11
1487.03
1367.28
1306.35
1240.49
1188.54
1151.24
1126.18
1111.07
1104.09
1103.45
1106.46
1114.73
1127.55
1142.33
1164.57
1184.89
1210.01
1234.97
1260.34
1285.56
1311.96
1340.5
1370.13
1399.83
1428.82
1456.39
1482
1505.14
1525.38
1542.33
1555.88
1565.9
1572.28
1574.15
1571.08
1565.05
1556.05
1544.53
1530.93
1515.73
1499.44
1482.58
1465.57
1448.77
1432.41
1416.58
1401.32
1386.55
1372.13
1357.89
1343.58
1328.9
1313.55
1297.26
1279.87
1261.44
1242.03
1221.41