/*--------------------------------*- C++ -*----------------------------------*\
  =========                 |
  \\      /  F ield         | OpenFOAM: The Open Source CFD Toolbox
   \\    /   O peration     | Website:  https://openfoam.org
    \\  /    A nd           | Version:  13
     \\/     M anipulation  |
\*---------------------------------------------------------------------------*/
FoamFile
{
    format      ascii;
    class       volScalarField;
    location    "100";
    object      p;
}
// * * * * * * * * * * * * * * * * * * * * * * * * * * * * * * * * * * * * * //

dimensions      [0 2 -2 0 0 0 0];

internalField   nonuniform List<scalar> 
12225
(
-5.47931
-6.33133
-6.73651
-6.87928
-7.02512
-7.1964
-7.34381
-7.45894
-7.56444
-7.66539
-7.75868
-7.84437
-7.92446
-8.00395
-8.08462
-8.16897
-8.2666
-8.39652
-5.76007
-6.37385
-6.71899
-6.85987
-6.99869
-7.16328
-7.31167
-7.42727
-7.5312
-7.63063
-7.72575
-7.81471
-7.89733
-7.97507
-8.05222
-8.13453
-8.2236
-8.29972
-5.93446
-6.36108
-6.69629
-6.86795
-7.01269
-7.17038
-7.31342
-7.42903
-7.53246
-7.62995
-7.7216
-7.80707
-7.88698
-7.9623
-8.03548
-8.10972
-8.18167
-8.23401
-6.07456
-6.3727
-6.69846
-6.88452
-7.02292
-7.16713
-7.30289
-7.41733
-7.51901
-7.61411
-7.70366
-7.7877
-7.86662
-7.94095
-8.01182
-8.07999
-8.14212
-8.18688
-6.21497
-6.44384
-6.71364
-6.89796
-7.03051
-7.16564
-7.2971
-7.41111
-7.51165
-7.60516
-7.6934
-7.77612
-7.85342
-7.92568
-7.99336
-8.05625
-8.11167
-8.15252
-6.33033
-6.48417
-6.72536
-6.90368
-7.03464
-7.16386
-7.29057
-7.40249
-7.50116
-7.59258
-7.67883
-7.75952
-7.83459
-7.90434
-7.96895
-8.02782
-8.07872
-8.11705
-6.42204
-6.54052
-6.74514
-6.91282
-7.04168
-7.1647
-7.28534
-7.39417
-7.49103
-7.58061
-7.6649
-7.74361
-7.81659
-7.88408
-7.94605
-8.00179
-8.04955
-8.08645
-6.49777
-6.59948
-6.77141
-6.92595
-7.05042
-7.16701
-7.28135
-7.38668
-7.48146
-7.56884
-7.6507
-7.72701
-7.79762
-7.86263
-7.92194
-7.97491
-8.02028
-8.05632
-6.56885
-6.65548
-6.80144
-6.94301
-7.06168
-7.17214
-7.28028
-7.38139
-7.4733
-7.55796
-7.63705
-7.71076
-7.77894
-7.84155
-7.89847
-7.94921
-7.99298
-8.02888
-6.63955
-6.7101
-6.83411
-6.96255
-7.07467
-7.17909
-7.281
-7.37725
-7.46568
-7.54733
-7.62356
-7.69464
-7.76035
-7.82059
-7.87527
-7.92414
-7.9668
-8.00271
-6.70734
-6.76264
-6.86726
-6.98248
-7.0874
-7.18576
-7.28157
-7.37287
-7.45762
-7.53624
-7.60967
-7.67814
-7.74141
-7.79939
-7.85209
-7.89944
-7.9413
-7.97748
-6.76348
-6.80754
-6.8967
-7.00013
-7.09804
-7.19079
-7.28125
-7.36809
-7.44946
-7.52528
-7.59616
-7.66228
-7.72342
-7.77948
-7.83059
-7.87678
-7.91814
-7.9545
-6.81324
-6.84902
-6.92495
-7.01734
-7.10815
-7.19531
-7.28056
-7.363
-7.44093
-7.51389
-7.58221
-7.64598
-7.70504
-7.75933
-7.80896
-7.85412
-7.89496
-7.93155
-6.8631
-6.89211
-6.95556
-7.0365
-7.11928
-7.2001
-7.27956
-7.35699
-7.43088
-7.50048
-7.56576
-7.62683
-7.68354
-7.73588
-7.78392
-7.82789
-7.86815
-7.90466
-6.91104
-6.93455
-6.98691
-7.0566
-7.13078
-7.20472
-7.27799
-7.34991
-7.4192
-7.4849
-7.5468
-7.60475
-7.65883
-7.70895
-7.75526
-7.79787
-7.83724
-7.87339
-6.95408
-6.97319
-7.01632
-7.07573
-7.1413
-7.2082
-7.27516
-7.34134
-7.4056
-7.4671
-7.52523
-7.57987
-7.63093
-7.6786
-7.72283
-7.76388
-7.80191
-7.83723
-6.98802
-7.0038
-7.03976
-7.09062
-7.14841
-7.20865
-7.26961
-7.33025
-7.38952
-7.44662
-7.50089
-7.55196
-7.5998
-7.64457
-7.68639
-7.72529
-7.76149
-7.79502
-7.00669
-7.02019
-7.05141
-7.09627
-7.14817
-7.20305
-7.25908
-7.31505
-7.36993
-7.42293
-7.47344
-7.52095
-7.56544
-7.60704
-7.64597
-7.68215
-7.71579
-7.74684
-7.00039
-7.01303
-7.04261
-7.08522
-7.13454
-7.18671
-7.23997
-7.29311
-7.34504
-7.39497
-7.44234
-7.48668
-7.52798
-7.56631
-7.60196
-7.6348
-7.66509
-7.69276
-6.96269
-6.97682
-7.00966
-7.05581
-7.10789
-7.16174
-7.21614
-7.26975
-7.3217
-7.37082
-7.417
-7.45955
-7.49895
-7.53489
-7.56811
-7.5981
-7.62559
-7.65024
-6.91199
-6.92909
-6.96839
-7.02171
-7.07932
-7.13732
-7.19485
-7.25111
-7.30454
-7.35455
-7.40052
-7.44269
-7.48088
-7.51569
-7.54693
-7.57519
-7.6002
-7.62297
-6.84858
-6.87085
-6.92077
-6.98474
-7.04993
-7.11346
-7.17579
-7.23583
-7.292
-7.34346
-7.39014
-7.43226
-7.47004
-7.50387
-7.53386
-7.56043
-7.58381
-7.6047
-6.77442
-6.80491
-6.87051
-6.94789
-7.02145
-7.09135
-7.1595
-7.22426
-7.28363
-7.33705
-7.38482
-7.42724
-7.46492
-7.49794
-7.52703
-7.5521
-7.57423
-7.59355
-6.69013
-6.73363
-6.82096
-6.91301
-6.99437
-7.07114
-7.14604
-7.21595
-7.2787
-7.33431
-7.38338
-7.42643
-7.46395
-7.49651
-7.5245
-7.54864
-7.56947
-7.58789
-6.593
-6.66198
-6.77729
-6.88261
-6.96944
-7.05287
-7.13498
-7.21016
-7.2762
-7.33404
-7.38459
-7.42831
-7.46572
-7.49758
-7.52459
-7.5476
-7.56725
-7.5848
-6.49544
-6.59255
-6.74075
-6.85747
-6.94782
-7.0373
-7.12593
-7.20581
-7.27489
-7.33484
-7.38699
-7.43153
-7.46898
-7.50037
-7.52659
-7.54862
-7.56734
-7.58424
-6.38289
-6.52103
-6.70672
-6.83084
-6.92627
-7.02353
-7.11804
-7.20134
-7.27269
-7.33408
-7.38685
-7.43169
-7.46885
-7.49959
-7.52501
-7.54607
-7.56377
-7.57985
-6.24655
-6.47717
-6.68616
-6.80494
-6.90571
-7.0142
-7.1164
-7.20378
-7.27804
-7.34159
-7.39533
-7.44025
-7.47718
-7.5071
-7.5316
-7.5517
-7.56835
-7.58417
-6.05456
-6.45468
-6.69634
-6.79752
-6.89377
-7.00706
-7.11312
-7.20264
-7.27868
-7.34398
-7.39909
-7.44463
-7.48166
-7.51116
-7.53417
-7.55209
-7.56671
-7.57939
-5.78199
-6.38353
-6.68982
-6.80059
-6.90446
-7.02749
-7.14189
-7.23739
-7.31669
-7.38278
-7.43759
-7.4821
-7.51746
-7.5449
-7.56414
-7.57683
-7.58647
-7.59241
-8.21873
-8.21865
-8.22861
-8.24344
-8.25874
-8.27294
-8.28773
-8.30344
-8.31981
-8.33596
-8.35253
-8.36951
-8.388
-8.40779
-8.42946
-8.45251
-8.47778
-8.50453
-8.53315
-8.56252
-8.59288
-8.62239
-8.65068
-8.67538
-8.69577
-8.70906
-8.71404
-8.7074
-8.68743
-8.64968
-8.59133
-8.50841
-8.39918
-8.25952
-8.08738
-7.88143
-7.64388
-7.37511
-7.07808
-6.7587
-6.42423
-6.08152
-5.74084
-5.41164
-5.10576
-4.83012
-4.59189
-4.39495
-4.24025
-4.12808
-4.05544
-4.01274
-3.99552
-4.00455
-4.03922
-4.09569
-4.16984
-4.25601
-4.34826
-4.43956
-4.5244
-4.59875
-4.66072
-4.70888
-4.7435
-4.76654
-4.77971
-4.78642
-4.78885
-4.78654
-4.77849
-4.76543
-4.75087
-4.73092
-4.69735
-4.64036
-4.55891
-4.46984
-4.40139
-4.37717
-4.41777
-4.55044
-4.81253
-5.26785
-5.99789
-7.06186
-8.44381
-10.0566
-11.7849
-13.531
-15.224
-16.818
-18.284
-19.6067
-20.7792
-21.8009
-22.6731
-23.3987
-23.9791
-24.4169
-24.7137
-24.8726
-24.8968
-24.7911
-24.5595
-24.209
-23.7453
-23.1764
-22.5092
-21.7526
-20.9141
-20.0037
-19.0307
-18.0052
-16.9359
-15.8326
-14.7041
-13.5595
-12.4062
-11.2519
-10.1033
-8.96681
-7.84899
-6.75581
-5.69186
-4.66055
-3.66492
-2.70789
-1.7913
-0.916742
-0.0859673
0.699567
1.43879
2.13099
2.77593
3.37433
3.92749
4.43831
4.91072
5.35005
5.76233
6.1544
6.53307
6.90513
7.27646
7.65198
8.03487
8.42705
8.82876
9.23931
9.6566
10.0776
10.4982
10.9144
11.3217
11.7163
12.0948
12.4543
12.7919
13.106
13.3954
13.6595
13.8978
14.1094
14.2938
14.4517
14.5844
14.6943
14.7841
14.8566
14.9149
14.9623
15.003
15.0414
15.0835
15.1352
15.208
15.31
15.4901
15.6889
-8.22147
-8.22606
-8.23798
-8.25206
-8.26627
-8.28136
-8.29716
-8.31242
-8.32697
-8.3409
-8.35504
-8.36967
-8.38569
-8.40312
-8.42276
-8.44448
-8.46877
-8.49513
-8.52398
-8.55438
-8.586
-8.61709
-8.64679
-8.67301
-8.69483
-8.70978
-8.71636
-8.71153
-8.69306
-8.65788
-8.60446
-8.53024
-8.43343
-8.31104
-8.16122
-7.98247
-7.77513
-7.53962
-7.27781
-6.99372
-6.69391
-6.38398
-6.07265
-5.76936
-5.48318
-5.22297
-4.99441
-4.80246
-4.6503
-4.53571
-4.45886
-4.41429
-4.39637
-4.40299
-4.43192
-4.47898
-4.53912
-4.60596
-4.67355
-4.73635
-4.79006
-4.83192
-4.86085
-4.87688
-4.88037
-4.8739
-4.86103
-4.84584
-4.83192
-4.81882
-4.80428
-4.78784
-4.76675
-4.73485
-4.69044
-4.62945
-4.53607
-4.42375
-4.3418
-4.33186
-4.41374
-4.60406
-4.95956
-5.54925
-6.43061
-7.63494
-9.11142
-10.7529
-12.4559
-14.1414
-15.7571
-17.2687
-18.657
-19.9127
-21.032
-22.0122
-22.8528
-23.5542
-24.1176
-24.5437
-24.8332
-24.9877
-25.011
-24.907
-24.6804
-24.3356
-23.878
-23.3139
-22.6511
-21.8975
-21.0622
-20.1545
-19.1832
-18.1582
-17.0892
-15.9856
-14.8564
-13.7105
-12.5555
-11.3984
-10.2463
-9.10524
-7.98139
-6.88108
-5.80924
-4.76965
-3.7652
-2.79906
-1.87363
-0.990682
-0.152016
0.640653
1.38612
2.08354
2.73261
3.33394
3.88895
4.40049
4.87279
5.31116
5.72186
6.11193
6.48844
6.85827
7.22741
7.60093
7.98202
8.37236
8.77204
9.18011
9.59436
10.0119
10.429
10.8416
11.2454
11.6369
12.0127
12.3701
12.7066
13.0204
13.3096
13.5735
13.8116
14.0233
14.2083
14.3673
14.5015
14.6133
14.7051
14.7802
14.8415
14.8925
14.937
14.9796
15.0256
15.0806
15.1547
15.2516
15.4089
15.56
-8.24137
-8.24516
-8.25472
-8.26751
-8.28098
-8.29519
-8.30937
-8.32242
-8.33457
-8.34607
-8.35779
-8.37006
-8.38381
-8.39925
-8.41722
-8.43767
-8.46112
-8.48703
-8.51544
-8.54525
-8.57602
-8.60609
-8.63446
-8.65924
-8.67953
-8.6934
-8.69987
-8.69701
-8.68337
-8.65622
-8.61411
-8.55487
-8.47672
-8.37703
-8.25392
-8.10578
-7.93193
-7.73181
-7.50655
-7.25886
-6.9929
-6.71346
-6.42784
-6.14407
-5.87035
-5.61518
-5.38584
-5.18768
-5.02424
-4.89557
-4.80023
-4.73575
-4.69986
-4.69034
-4.70477
-4.73982
-4.79135
-4.85422
-4.92255
-4.98999
-5.05022
-5.0972
-5.12598
-5.13368
-5.12039
-5.08882
-5.04277
-4.98809
-4.93017
-4.87166
-4.81426
-4.76326
-4.71993
-4.6783
-4.64219
-4.61706
-4.59668
-4.59177
-4.62952
-4.7189
-4.88221
-5.16981
-5.66409
-6.4352
-7.47665
-8.74654
-10.1814
-11.709
-13.2663
-14.8059
-16.2917
-17.6965
-19.0022
-20.196
-21.2711
-22.2213
-23.0429
-23.7336
-24.2924
-24.7164
-25.0058
-25.1624
-25.1892
-25.0889
-24.8661
-24.5244
-24.0695
-23.5068
-22.8446
-22.091
-21.2556
-20.3474
-19.3751
-18.3479
-17.2766
-16.1699
-15.0378
-13.8887
-12.7303
-11.5693
-10.4125
-9.26636
-8.13666
-7.02887
-5.94809
-4.89874
-3.88419
-2.90742
-1.97125
-1.07791
-0.229367
0.572522
1.32638
2.03114
2.68651
3.29278
3.85146
4.36523
4.83831
5.27593
5.68471
6.072
6.44537
6.81187
7.17784
7.54833
7.9269
8.31518
8.71324
9.11974
9.53231
9.94789
10.3628
10.7731
11.1747
11.5641
11.9382
12.2943
12.6301
12.9436
13.233
13.4972
13.7356
13.9476
14.1329
14.2924
14.4275
14.5403
14.6333
14.7095
14.7722
14.8248
14.8712
14.9156
14.963
15.0181
15.089
15.1755
15.2995
15.3802
-8.27351
-8.27617
-8.28614
-8.29854
-8.31105
-8.32409
-8.33666
-8.34784
-8.35802
-8.36754
-8.37732
-8.38767
-8.39957
-8.41322
-8.42946
-8.44825
-8.4701
-8.4945
-8.52145
-8.54994
-8.5797
-8.60934
-8.63782
-8.66334
-8.68518
-8.70188
-8.71278
-8.71599
-8.70995
-8.69248
-8.66262
-8.61839
-8.55786
-8.47849
-8.37823
-8.25495
-8.10746
-7.93456
-7.73615
-7.51341
-7.26944
-7.00818
-6.73558
-6.45916
-6.1876
-5.92939
-5.69289
-5.4855
-5.31163
-5.1721
-5.06644
-4.992
-4.94596
-4.92588
-4.92904
-4.95209
-4.99153
-5.0436
-5.10413
-5.16787
-5.22853
-5.27956
-5.31436
-5.32747
-5.31571
-5.27795
-5.21396
-5.12635
-5.02235
-4.91423
-4.8138
-4.73032
-4.6715
-4.63904
-4.62262
-4.61578
-4.63402
-4.69553
-4.80227
-4.97747
-5.27532
-5.77917
-6.52705
-7.49453
-8.6382
-9.91544
-11.2841
-12.7026
-14.1346
-15.55
-16.9236
-18.2341
-19.4639
-20.5991
-21.6286
-22.5448
-23.3417
-24.0153
-24.5623
-24.9787
-25.2636
-25.4183
-25.4439
-25.3425
-25.1181
-24.775
-24.3178
-23.7523
-23.0864
-22.3286
-21.4876
-20.5727
-19.5937
-18.5601
-17.4817
-16.3679
-15.2285
-14.0718
-12.9058
-11.7372
-10.5725
-9.41869
-8.2817
-7.16615
-6.07657
-5.01745
-3.99287
-3.00594
-2.05933
-1.15556
-0.296907
0.514755
1.27786
1.99106
2.65385
3.26638
3.82996
4.34705
4.82156
5.25891
5.66605
6.05068
6.42081
6.78404
7.1472
7.51536
7.8922
8.27941
8.67701
9.08344
9.49622
9.91194
10.3269
10.7371
11.1386
11.5278
11.9019
12.2579
12.5934
12.9063
13.1953
13.459
13.6967
13.9077
14.0922
14.2508
14.3851
14.497
14.5891
14.6644
14.726
14.7775
14.8226
14.8656
14.9106
14.9617
15.0244
15.0951
15.1848
15.2063
-8.31424
-8.3168
-8.32739
-8.3377
-8.34825
-8.35986
-8.37129
-8.38156
-8.39103
-8.4
-8.40931
-8.4192
-8.43053
-8.44347
-8.4589
-8.47686
-8.49797
-8.52188
-8.54878
-8.57781
-8.6087
-8.64015
-8.67145
-8.70114
-8.72864
-8.7523
-8.77114
-8.78334
-8.78781
-8.78297
-8.76782
-8.74019
-8.69818
-8.63915
-8.56093
-8.46088
-8.33707
-8.18769
-8.01181
-7.80947
-7.58313
-7.33625
-7.07434
-6.80428
-6.53387
-6.27172
-6.02676
-5.8065
-5.61738
-5.46183
-5.33987
-5.24958
-5.18839
-5.153
-5.14008
-5.14655
-5.16952
-5.20591
-5.25242
-5.30485
-5.35814
-5.40581
-5.44123
-5.45895
-5.45315
-5.41706
-5.34582
-5.24193
-5.1147
-4.97943
-4.85157
-4.73831
-4.65041
-4.59572
-4.5669
-4.56175
-4.60152
-4.70849
-4.90445
-5.24012
-5.78222
-6.54225
-7.48886
-8.57885
-9.77291
-11.0409
-12.3572
-13.6976
-15.039
-16.3624
-17.6481
-18.88
-20.0417
-21.1204
-22.1037
-22.9829
-23.7504
-24.4009
-24.9285
-25.3302
-25.6046
-25.7512
-25.7692
-25.6612
-25.4297
-25.0794
-24.6141
-24.0416
-23.3677
-22.6013
-21.7507
-20.8258
-19.836
-18.7917
-17.7025
-16.5785
-15.4285
-14.2613
-13.0848
-11.906
-10.7316
-9.56807
-8.42118
-7.29597
-6.19704
-5.12863
-4.09483
-3.09876
-2.14313
-1.23041
-0.362802
0.457799
1.22953
1.95089
2.62095
3.23968
3.80794
4.32804
4.80362
5.24047
5.64563
6.02735
6.39398
6.75391
7.11434
7.48059
7.85606
8.24263
8.64003
9.04678
9.4601
9.8765
10.2921
10.703
11.1053
11.4956
11.8704
12.227
12.5627
12.8756
13.1643
13.4275
13.6643
13.8744
14.058
14.2158
14.3492
14.46
14.551
14.6249
14.6849
14.7344
14.7772
14.817
14.8575
14.9016
14.9526
15.0042
15.0612
15.0376
-8.35984
-8.36305
-8.37237
-8.38054
-8.39022
-8.40149
-8.41291
-8.42357
-8.43384
-8.44391
-8.45451
-8.4658
-8.47851
-8.4928
-8.50954
-8.52885
-8.55147
-8.57723
-8.60646
-8.63849
-8.67313
-8.70908
-8.74591
-8.78233
-8.8177
-8.85048
-8.87991
-8.90438
-8.92309
-8.93441
-8.93717
-8.92914
-8.9085
-8.87253
-8.81883
-8.74449
-8.64709
-8.524
-8.37399
-8.19628
-7.99203
-7.7638
-7.51605
-7.25516
-6.98919
-6.72573
-6.47304
-6.23816
-6.02743
-5.84515
-5.69365
-5.57316
-5.48208
-5.41777
-5.37747
-5.35778
-5.35567
-5.36886
-5.39434
-5.42848
-5.46753
-5.50647
-5.53934
-5.55926
-5.55742
-5.52558
-5.45903
-5.35755
-5.22939
-5.08719
-4.94177
-4.80045
-4.68058
-4.59964
-4.56584
-4.5884
-4.68526
-4.88472
-5.23458
-5.78604
-6.54358
-7.47379
-8.53279
-9.68136
-10.891
-12.1413
-13.4148
-14.6955
-15.9691
-17.2205
-18.4371
-19.6035
-20.7063
-21.7331
-22.6729
-23.515
-24.2515
-24.8754
-25.3812
-25.7648
-26.0237
-26.1559
-26.1608
-26.04
-25.7965
-25.4333
-24.9555
-24.3698
-23.6829
-22.9028
-22.0389
-21.1004
-20.0974
-19.0399
-17.9375
-16.8006
-15.6383
-14.459
-13.2706
-12.0801
-10.8944
-9.71965
-8.56175
-7.42609
-6.31751
-5.24022
-4.19802
-3.19403
-2.23093
-1.31099
-0.436268
0.391276
1.1697
1.89747
2.57346
3.19723
3.76929
4.29177
4.7684
5.20491
5.6086
5.98802
6.35207
6.70967
7.06834
7.43357
7.80866
8.19515
8.59268
8.99976
9.41353
9.83052
10.2467
10.6582
11.0611
11.4518
11.827
12.1836
12.5191
12.8316
13.1195
13.3819
13.6176
13.8267
14.0092
14.1661
14.2986
14.4088
14.4988
14.5717
14.6303
14.6781
14.7185
14.7549
14.7901
14.8264
14.8648
14.8973
14.9255
14.8685
-8.40725
-8.41062
-8.41843
-8.42629
-8.43654
-8.44842
-8.46077
-8.47291
-8.48522
-8.4978
-8.51126
-8.52566
-8.5417
-8.5595
-8.57989
-8.60301
-8.62963
-8.65967
-8.6936
-8.73091
-8.77161
-8.81468
-8.85975
-8.9055
-8.95144
-8.99631
-9.03953
-9.0796
-9.11577
-9.14651
-9.17077
-9.18641
-9.19144
-9.18289
-9.15806
-9.11368
-9.04713
-8.95506
-8.8355
-8.68725
-8.51047
-8.30654
-8.07878
-7.8317
-7.57203
-7.30685
-7.0444
-6.79201
-6.55522
-6.33869
-6.14652
-5.98159
-5.84433
-5.7338
-5.64983
-5.59038
-5.55224
-5.53292
-5.52946
-5.53911
-5.55881
-5.58448
-5.61017
-5.62725
-5.6274
-5.60314
-5.55076
-5.46907
-5.35848
-5.22487
-5.07725
-4.93142
-4.80765
-4.7273
-4.71005
-4.7754
-4.94968
-5.27873
-5.81098
-6.54538
-7.44917
-8.47872
-9.59421
-10.7664
-11.9751
-13.2045
-14.4421
-15.6774
-16.8988
-18.0962
-19.2581
-20.3719
-21.4256
-22.4076
-23.3078
-24.1152
-24.8221
-25.4199
-25.9036
-26.2672
-26.5075
-26.6214
-26.6088
-26.4706
-26.2102
-25.8298
-25.335
-24.7316
-24.027
-23.2291
-22.3476
-21.3918
-20.3722
-19.2985
-18.1809
-17.0289
-15.8522
-14.6588
-13.4564
-12.252
-11.0529
-9.86566
-8.69642
-7.55067
-6.43311
-5.34797
-4.29879
-3.2887
-2.32011
-1.39518
-0.515711
0.316271
1.09897
1.83075
2.51053
3.13755
3.71225
4.23634
4.71362
5.14978
5.55245
5.93041
6.29325
6.65002
7.00836
7.37369
7.74946
8.13683
8.53546
8.94345
9.35795
9.77527
10.1916
10.603
11.0055
11.3956
11.7701
12.1257
12.4602
12.7714
13.058
13.3188
13.5531
13.7607
13.9419
14.0976
14.2293
14.3387
14.4282
14.5002
14.5578
14.6041
14.6422
14.675
14.7048
14.7328
14.7588
14.7735
14.7772
14.696
-8.45474
-8.45755
-8.46561
-8.47493
-8.48654
-8.49973
-8.51382
-8.52835
-8.54362
-8.55965
-8.57698
-8.59568
-8.61641
-8.63927
-8.66506
-8.69391
-8.72658
-8.76307
-8.80389
-8.84869
-8.8977
-8.95016
-9.00593
-9.06398
-9.12397
-9.18474
-9.24581
-9.30574
-9.36379
-9.41838
-9.46832
-9.51162
-9.54675
-9.57069
-9.58022
-9.57124
-9.5405
-9.48426
-9.39992
-9.28517
-9.13931
-8.96292
-8.75875
-8.52984
-8.28023
-8.01461
-7.7398
-7.4635
-7.19294
-6.93379
-6.69123
-6.46981
-6.27285
-6.10163
-5.95766
-5.8415
-5.75195
-5.68788
-5.64736
-5.6264
-5.62126
-5.62834
-5.64202
-5.65402
-5.65717
-5.64611
-5.61639
-5.56274
-5.4816
-5.37529
-5.25216
-5.12693
-5.01985
-4.95792
-4.96975
-5.08706
-5.35583
-5.83054
-6.51977
-7.38683
-8.38469
-9.47197
-10.6172
-11.7988
-13.0016
-14.2135
-15.425
-16.627
-17.8108
-18.9672
-20.0875
-21.1606
-22.1749
-23.1201
-23.9859
-24.7631
-25.4425
-26.0164
-26.4776
-26.8203
-27.0399
-27.1338
-27.1009
-26.9427
-26.6615
-26.2606
-25.7449
-25.1206
-24.3947
-23.576
-22.6737
-21.698
-20.6589
-19.5663
-18.4304
-17.2609
-16.0668
-14.8562
-13.6366
-12.416
-11.2019
-10.0014
-8.82058
-7.66489
-6.53894
-5.44681
-4.39187
-3.37703
-2.40458
-1.47647
-0.594163
0.240614
1.02597
1.75999
2.44135
3.06926
3.64411
4.16769
4.64395
5.07881
5.48016
5.85724
6.22005
6.57768
6.9376
7.30501
7.68306
8.07251
8.47276
8.8818
9.29667
9.7137
10.1293
10.5394
10.9403
11.3287
11.7011
12.0546
12.3869
12.6961
12.9805
13.2391
13.4714
13.677
13.8568
14.0113
14.142
14.2507
14.3396
14.411
14.4677
14.5127
14.5486
14.5779
14.6024
14.6222
14.6363
14.635
14.6178
14.5193
-8.50206
-8.50441
-8.51449
-8.52604
-8.53932
-8.55424
-8.57053
-8.58782
-8.60637
-8.6262
-8.64783
-8.67136
-8.69745
-8.72623
-8.75845
-8.79428
-8.83449
-8.87913
-8.9288
-8.98332
-9.04302
-9.10741
-9.1766
-9.24979
-9.32688
-9.40691
-9.48955
-9.57362
-9.6585
-9.74248
-9.82415
-9.90114
-9.97152
-10.0324
-10.0811
-10.1134
-10.125
-10.1109
-10.0677
-9.99194
-9.88183
-9.73636
-9.55656
-9.34416
-9.10229
-8.83456
-8.54607
-8.24235
-7.93081
-7.61918
-7.31487
-7.02422
-6.75333
-6.50656
-6.28771
-6.0999
-5.94508
-5.82362
-5.7348
-5.6751
-5.6399
-5.62512
-5.62479
-5.63309
-5.643
-5.64878
-5.6431
-5.61999
-5.57576
-5.50883
-5.42285
-5.33098
-5.25533
-5.22603
-5.27999
-5.46567
-5.84654
-6.4543
-7.26305
-8.22063
-9.27931
-10.4031
-11.5672
-12.7546
-13.9534
-15.1542
-16.3488
-17.5294
-18.6872
-19.816
-20.9063
-21.9492
-22.9337
-23.8504
-24.6889
-25.4409
-26.0967
-26.6488
-27.0887
-27.4109
-27.6096
-27.6825
-27.6278
-27.4476
-27.1435
-26.7196
-26.1804
-25.5325
-24.783
-23.9414
-23.0164
-22.0185
-20.9575
-19.8436
-18.6866
-17.4963
-16.2814
-15.0502
-13.8112
-12.5728
-11.3429
-10.1286
-8.93599
-7.77045
-6.63649
-5.53765
-4.47719
-3.45768
-2.48176
-1.55119
-0.667343
0.168375
0.953906
1.68755
2.368
2.99467
3.56756
4.08858
4.56189
4.99416
5.39375
5.77067
6.13483
6.49531
6.85892
7.23044
7.6121
8.00442
8.40644
8.81628
9.23079
9.64671
10.0604
10.4682
10.8664
11.2518
11.621
11.9712
12.3003
12.6065
12.888
13.1439
13.3736
13.5772
13.7551
13.9082
14.0379
14.1457
14.2339
14.3046
14.3605
14.4041
14.438
14.464
14.4834
14.4955
14.4986
14.4832
14.4483
14.3371
-8.54956
-8.55204
-8.56508
-8.57877
-8.59349
-8.61006
-8.62849
-8.64843
-8.67015
-8.69366
-8.71952
-8.7479
-8.77947
-8.81442
-8.85349
-8.89695
-8.94559
-8.99957
-9.05956
-9.12556
-9.19809
-9.27685
-9.36215
-9.45347
-9.55087
-9.65357
-9.76142
-9.8734
-9.98905
-10.1069
-10.2257
-10.3427
-10.4555
-10.5604
-10.6546
-10.7334
-10.7923
-10.8257
-10.8292
-10.798
-10.7285
-10.6179
-10.4648
-10.2688
-10.0319
-9.75696
-9.44897
-9.11298
-8.75525
-8.38339
-8.00674
-7.63472
-7.27655
-6.94026
-6.63272
-6.36014
-6.12707
-5.93599
-5.78852
-5.68247
-5.61336
-5.57573
-5.56147
-5.56611
-5.58406
-5.60563
-5.62218
-5.62911
-5.62038
-5.59114
-5.54399
-5.49235
-5.45647
-5.46852
-5.57888
-5.85351
-6.35059
-7.07029
-7.96787
-8.98947
-10.0913
-11.2426
-12.4228
-13.618
-14.818
-16.0151
-17.2017
-18.3704
-19.5143
-20.625
-21.6968
-22.7193
-23.6834
-24.5791
-25.3977
-26.1297
-26.7667
-27.2998
-27.7212
-28.0239
-28.2029
-28.2549
-28.1788
-27.9757
-27.6483
-27.2002
-26.6366
-25.964
-25.1902
-24.3244
-23.3754
-22.3534
-21.2682
-20.13
-18.949
-17.7344
-16.4955
-15.2416
-13.9817
-12.7247
-11.4784
-10.2498
-9.04509
-7.86963
-6.72766
-5.62255
-4.55723
-3.53414
-2.55559
-1.62306
-0.737879
0.0981781
0.882945
1.6146
2.29181
2.91414
3.48184
3.99739
4.46597
4.89507
5.29385
5.67253
6.04066
6.40651
6.77601
7.15298
7.53898
7.93428
8.33789
8.7479
9.1613
9.57519
9.98619
10.3907
10.7851
11.1666
11.5316
11.8778
12.2029
12.5054
12.7833
13.0359
13.2627
13.464
13.6399
13.7915
13.9198
14.0267
14.1139
14.1839
14.2388
14.281
14.3127
14.3354
14.3498
14.3547
14.3479
14.3205
14.2709
14.1505
-8.59737
-8.60002
-8.6158
-8.63104
-8.64676
-8.66466
-8.68492
-8.7072
-8.73171
-8.75852
-8.78826
-8.8212
-8.85802
-8.89897
-8.94486
-8.99607
-9.05345
-9.11731
-9.18846
-9.26707
-9.35378
-9.44862
-9.55205
-9.6638
-9.78412
-9.91243
-10.0487
-10.1921
-10.3421
-10.4973
-10.6568
-10.8178
-10.9781
-11.1336
-11.2801
-11.4121
-11.5244
-11.6112
-11.6666
-11.6843
-11.6593
-11.5867
-11.4629
-11.2855
-11.0541
-10.7703
-10.4378
-10.0615
-9.64876
-9.20815
-8.75048
-8.28805
-7.8335
-7.39858
-6.99365
-6.62773
-6.30841
-6.04116
-5.82893
-5.6716
-5.56609
-5.50402
-5.47572
-5.47573
-5.49673
-5.52629
-5.55641
-5.58182
-5.59599
-5.59363
-5.57848
-5.56213
-5.56615
-5.63061
-5.81775
-6.19673
-6.80378
-7.61623
-8.5835
-9.65547
-10.7934
-11.9703
-13.1686
-14.3761
-15.5841
-16.785
-17.9721
-19.1385
-20.2764
-21.3802
-22.4421
-23.4534
-24.4051
-25.2875
-26.0925
-26.8104
-27.4329
-27.9508
-28.3566
-28.6423
-28.8035
-28.8363
-28.74
-28.5152
-28.1655
-27.694
-27.1068
-26.4101
-25.6121
-24.721
-23.7465
-22.6979
-21.5858
-20.42
-19.2111
-17.9692
-16.7045
-15.427
-14.1461
-12.8706
-11.6082
-10.366
-9.14983
-7.96471
-6.81458
-5.70304
-4.63262
-3.60579
-2.62458
-1.69072
-0.805663
0.0284515
0.809824
1.53658
2.20748
2.82223
3.38214
3.89078
4.35467
4.782
5.18259
5.56604
5.94101
6.31439
6.69112
7.07399
7.46442
7.86233
8.26705
8.67635
9.08791
9.49892
9.90635
10.3065
10.6965
11.0732
11.4334
11.7748
12.0955
12.3935
12.6673
12.9162
13.1401
13.3388
13.5127
13.6624
13.7893
13.8949
13.9813
14.0504
14.1042
14.145
14.1745
14.194
14.2035
14.2018
14.1862
14.1483
14.0868
13.9597
-8.6449
-8.64731
-8.66513
-8.68121
-8.69728
-8.71594
-8.73754
-8.76158
-8.78829
-8.81782
-8.85086
-8.88775
-8.92922
-8.97563
-9.02789
-9.0865
-9.15241
-9.22611
-9.30849
-9.39998
-9.50142
-9.61306
-9.73556
-9.86894
-10.0136
-10.1692
-10.3359
-10.5129
-10.6999
-10.8955
-11.0985
-11.3065
-11.5171
-11.7259
-11.9287
-12.1192
-12.2911
-12.4369
-12.5492
-12.6204
-12.6438
-12.6125
-12.5207
-12.3634
-12.1381
-11.8442
-11.4846
-11.0642
-10.5912
-10.0759
-9.53107
-8.97104
-8.41225
-7.8713
-7.36347
-6.90188
-6.49616
-6.15282
-5.87545
-5.66656
-5.52396
-5.43559
-5.38959
-5.37695
-5.38721
-5.40859
-5.43283
-5.45464
-5.47064
-5.4782
-5.48174
-5.49536
-5.54576
-5.6791
-5.96062
-6.44953
-7.15731
-8.04917
-9.07616
-10.1933
-11.3662
-12.571
-13.7918
-15.0178
-16.2407
-17.4533
-18.6491
-19.8211
-20.9628
-22.0671
-23.1278
-24.1361
-25.0826
-25.959
-26.7561
-27.4655
-28.0779
-28.585
-28.9783
-29.2507
-29.3967
-29.4131
-29.299
-29.0553
-28.6852
-28.193
-27.5835
-26.8631
-26.0396
-25.1216
-24.1186
-23.0403
-21.8976
-20.7014
-19.4628
-18.1932
-16.903
-15.6025
-14.3011
-13.0076
-11.7296
-10.4741
-9.24668
-8.05198
-6.89411
-5.77662
-4.70198
-3.67249
-2.6902
-1.75706
-0.874886
-0.0456781
0.728941
1.44741
2.10889
2.71382
3.26504
3.76771
4.22919
4.65817
5.0641
5.45531
5.83915
6.22129
6.60555
6.99428
7.38873
7.78883
8.19392
8.60189
9.01095
9.41854
9.82156
10.2168
10.6016
10.9729
11.3277
11.6639
11.9796
12.2727
12.5422
12.7874
13.0081
13.2042
13.3758
13.5236
13.649
13.7535
13.8391
13.9074
13.9605
14
14.0276
14.044
14.049
14.0411
14.0176
13.9708
13.8992
13.7669
-8.69079
-8.69262
-8.71148
-8.72744
-8.74307
-8.76179
-8.78396
-8.809
-8.83713
-8.86861
-8.90415
-8.94419
-8.9895
-9.04057
-9.09838
-9.16363
-9.23734
-9.32016
-9.41319
-9.51707
-9.6328
-9.76091
-9.90232
-10.0573
-10.2264
-10.4095
-10.607
-10.8182
-11.0429
-11.2798
-11.5278
-11.7842
-12.0466
-12.3106
-12.5713
-12.822
-13.0555
-13.2628
-13.4352
-13.5629
-13.6373
-13.6496
-13.5915
-13.4556
-13.2369
-12.9329
-12.545
-12.0784
-11.5428
-10.9507
-10.3172
-9.65948
-8.99682
-8.34895
-7.73529
-7.17364
-6.67794
-6.25712
-5.91484
-5.65188
-5.4638
-5.33813
-5.26191
-5.22102
-5.20225
-5.19563
-5.19439
-5.19469
-5.19479
-5.19869
-5.21487
-5.26255
-5.37266
-5.59221
-5.98122
-6.57889
-7.37806
-8.34177
-9.42483
-10.5869
-11.7971
-13.034
-14.2832
-15.5341
-16.779
-18.0107
-19.2226
-20.4084
-21.5608
-22.6744
-23.7411
-24.7534
-25.7016
-26.5778
-27.3728
-28.0788
-28.6861
-29.1865
-29.5713
-29.834
-29.9682
-29.9718
-29.8432
-29.584
-29.1963
-28.6844
-28.0523
-27.3067
-26.4551
-25.5068
-24.4718
-23.3614
-22.1868
-20.9604
-19.6936
-18.398
-17.0844
-15.7629
-14.4428
-13.1326
-11.8401
-10.572
-9.33396
-8.13066
-6.96649
-5.84452
-4.76751
-3.73749
-2.75675
-1.82737
-0.951474
-0.130527
0.634005
1.34133
1.99159
2.58671
3.13093
3.63066
4.09342
4.52776
4.94181
5.34269
5.73638
6.1275
6.51896
6.91321
7.31108
7.71281
8.11754
8.5238
8.9299
9.33357
9.73157
10.1216
10.5007
10.8661
11.2149
11.5452
11.8553
12.1437
12.4089
12.6505
12.8679
13.0613
13.2308
13.3771
13.5014
13.6053
13.6904
13.7583
13.8108
13.8493
13.8753
13.8891
13.89
13.8765
13.8456
13.7905
13.7099
13.573
-8.73335
-8.73425
-8.75299
-8.76786
-8.78219
-8.80006
-8.82187
-8.84703
-8.87574
-8.90828
-8.9454
-8.98762
-9.03577
-9.09048
-9.15282
-9.22356
-9.30386
-9.39461
-9.49704
-9.61204
-9.74085
-9.8842
-10.0432
-10.2183
-10.4105
-10.6198
-10.8467
-11.0908
-11.3518
-11.6285
-11.92
-12.2237
-12.5368
-12.8548
-13.1725
-13.4825
-13.7767
-14.045
-14.2769
-14.4607
-14.5859
-14.6417
-14.6178
-14.5041
-14.2932
-13.98
-13.5646
-13.0513
-12.4502
-11.7766
-11.0501
-10.2927
-9.52743
-8.7766
-8.062
-7.40342
-6.81715
-6.31438
-5.89954
-5.56981
-5.31753
-5.13412
-5.00577
-4.91593
-4.85095
-4.79982
-4.75778
-4.72579
-4.70676
-4.7104
-4.75029
-4.84819
-5.03657
-5.35948
-5.86149
-6.56234
-7.44654
-8.4782
-9.61658
-10.8255
-12.077
-13.3514
-14.6348
-15.9173
-17.1909
-18.4485
-19.6837
-20.8902
-22.0608
-23.1893
-24.269
-25.2909
-26.2471
-27.1285
-27.9272
-28.6344
-29.2413
-29.7389
-30.1195
-30.3762
-30.5034
-30.4975
-30.3573
-30.084
-29.6791
-29.1453
-28.4878
-27.7139
-26.8322
-25.8526
-24.7867
-23.6465
-22.444
-21.1914
-19.9002
-18.582
-17.2476
-15.9072
-14.5702
-13.245
-11.9395
-10.6604
-9.41334
-8.20339
-7.03477
-5.91059
-4.83364
-3.80612
-2.8302
-1.90803
-1.04152
-0.231653
0.520855
1.21625
1.85609
2.4437
2.98433
3.48475
3.95229
4.39462
4.81853
5.2299
5.63361
6.03326
6.43157
6.83078
7.23155
7.63431
8.03831
8.44251
8.8454
9.2447
9.63755
10.0219
10.3951
10.7542
11.0969
11.4214
11.726
12.0097
12.2708
12.5088
12.7231
12.9142
13.0818
13.227
13.3506
13.4541
13.5389
13.6067
13.6588
13.6967
13.7213
13.7328
13.7302
13.7118
13.6744
13.6119
13.5229
13.3816
-8.77076
-8.77037
-8.78789
-8.80079
-8.81291
-8.8289
-8.84938
-8.87376
-8.90208
-8.93468
-8.97232
-9.01563
-9.0655
-9.12264
-9.18815
-9.26293
-9.34827
-9.44525
-9.55531
-9.67955
-9.81944
-9.976
-10.1505
-10.3436
-10.5565
-10.7893
-11.0426
-11.316
-11.6096
-11.9223
-12.2532
-12.5996
-12.959
-13.3265
-13.6965
-14.0611
-14.4116
-14.7364
-15.0237
-15.2602
-15.4327
-15.5287
-15.5363
-15.4428
-15.2381
-14.9147
-14.4703
-13.9081
-13.2384
-12.479
-11.654
-10.7906
-9.91705
-9.06033
-8.24417
-7.4885
-6.80953
-6.21855
-5.72046
-5.31253
-4.98524
-4.7289
-4.52958
-4.37299
-4.24673
-4.14033
-4.05265
-3.99194
-3.96789
-3.99138
-4.07839
-4.25152
-4.54007
-4.97874
-5.59377
-6.39134
-7.35502
-8.45228
-9.64697
-10.9063
-12.2043
-13.522
-14.846
-16.1663
-17.4749
-18.7644
-20.0296
-21.2621
-22.4569
-23.6064
-24.7043
-25.7416
-26.7106
-27.6021
-28.4085
-29.121
-29.7315
-30.2306
-30.6112
-30.8656
-30.988
-30.9738
-30.8215
-30.5317
-30.1071
-29.55
-28.8669
-28.0658
-27.1569
-26.1506
-25.059
-23.8941
-22.6683
-21.3936
-20.0818
-18.7443
-17.3921
-16.0355
-14.6839
-13.3462
-12.0299
-10.7422
-9.48874
-8.27481
-7.10432
-5.9808
-4.90681
-3.88484
-2.91667
-2.00426
-1.14882
-0.350952
0.389789
1.07475
1.70686
2.29028
2.8309
3.3352
3.81006
4.26189
4.69635
5.11813
5.53138
5.9389
6.34354
6.74697
7.15012
7.55335
7.95643
8.3583
8.75765
9.15217
9.53979
9.91826
10.2853
10.6383
10.9751
11.294
11.5937
11.8726
12.1297
12.3641
12.5756
12.7642
12.9302
13.0739
13.1966
13.2995
13.3842
13.4519
13.5038
13.541
13.5644
13.5739
13.5684
13.5461
13.5036
13.4352
13.3397
13.1955
-8.8025
-8.80061
-8.81576
-8.82563
-8.83429
-8.8471
-8.86502
-8.8874
-8.91418
-8.94575
-8.98287
-9.02626
-9.07675
-9.13513
-9.20251
-9.2799
-9.36867
-9.47006
-9.58565
-9.71685
-9.86549
-10.0329
-10.2205
-10.4292
-10.66
-10.913
-11.189
-11.4876
-11.8091
-12.1526
-12.5171
-12.9004
-13.2998
-13.7102
-14.1258
-14.5378
-14.9368
-15.3104
-15.6456
-15.9267
-16.1385
-16.2662
-16.2965
-16.2147
-16.0082
-15.6669
-15.1867
-14.5695
-13.8265
-12.9773
-12.0489
-11.0721
-10.0806
-9.10639
-8.17776
-7.31658
-6.53849
-5.8527
-5.26288
-4.76723
-4.35741
-4.02247
-3.75042
-3.52841
-3.34535
-3.19486
-3.07873
-3.00978
-3.00225
-3.06865
-3.22543
-3.4923
-3.8908
-4.44486
-5.16838
-6.06014
-7.10368
-8.26901
-9.52443
-10.8394
-12.1903
-13.5576
-14.9292
-16.294
-17.6444
-18.9732
-20.2737
-21.54
-22.7639
-23.94
-25.0606
-26.1179
-27.1034
-28.0096
-28.8277
-29.5494
-30.1658
-30.6686
-31.0492
-31.3001
-31.4147
-31.3895
-31.2226
-30.915
-30.4697
-29.8908
-29.1849
-28.3611
-27.4296
-26.4015
-25.2889
-24.104
-22.8591
-21.5664
-20.2377
-18.8847
-17.5183
-16.1489
-14.7862
-13.4391
-12.1155
-10.8224
-9.56572
-8.35069
-7.18139
-6.06129
-4.993
-3.97873
-3.02008
-2.11836
-1.27417
-0.487325
0.243528
0.920842
1.54839
2.13102
2.67463
3.18528
3.66897