/*--------------------------------*- C++ -*----------------------------------*\
  =========                 |
  \\      /  F ield         | OpenFOAM: The Open Source CFD Toolbox
   \\    /   O peration     | Website:  https://openfoam.org
    \\  /    A nd           | Version:  13
     \\/     M anipulation  |
\*---------------------------------------------------------------------------*/
FoamFile
{
    format      ascii;
    class       surfaceScalarField;
    location    "100";
    object      phi;
}
// * * * * * * * * * * * * * * * * * * * * * * * * * * * * * * * * * * * * * //

dimensions      [0 3 -1 0 0 0 0];

internalField   nonuniform List<scalar> 
24170
(
3.04138e-06
1.47027e-07
2.88466e-06
1.56696e-07
2.74077e-06
1.43845e-07
2.60769e-06
1.33016e-07
2.48822e-06
1.19422e-07
2.39154e-06
9.66168e-08
2.30953e-06
8.1951e-08
2.23451e-06
7.49636e-08
2.17178e-06
6.26691e-08
2.1202e-06
5.15184e-08
2.07764e-06
4.24973e-08
2.04414e-06
3.34326e-08
2.01826e-06
2.5816e-08
1.99954e-06
1.86564e-08
1.988e-06
1.14718e-08
1.98161e-06
6.32025e-09
1.98175e-06
-2.08364e-10
-1.06333e-08
1.99231e-06
3.49381e-06
7.04675e-08
3.5467e-06
1.03787e-07
3.57789e-06
1.12619e-07
3.59218e-06
1.18662e-07
3.59042e-06
1.21134e-07
3.57073e-06
1.16248e-07
3.54378e-06
1.08848e-07
3.51835e-06
1.00336e-07
3.48788e-06
9.30795e-08
3.45293e-06
8.64143e-08
3.41837e-06
7.69971e-08
3.38592e-06
6.58202e-08
3.35525e-06
5.64313e-08
3.32417e-06
4.96724e-08
3.29287e-06
4.27112e-08
3.26409e-06
3.50343e-08
3.23852e-06
2.53042e-08
1.37959e-08
3.21402e-06
3.67509e-06
5.78918e-08
3.69378e-06
8.50882e-08
3.70933e-06
9.70133e-08
3.72759e-06
1.00341e-07
3.74677e-06
1.01909e-07
3.76395e-06
9.90092e-08
3.77849e-06
9.42564e-08
3.79012e-06
8.86563e-08
3.79942e-06
8.37371e-08
3.80696e-06
7.88194e-08
3.81213e-06
7.17794e-08
3.81442e-06
6.34706e-08
3.81458e-06
5.62255e-08
3.8137e-06
5.04962e-08
3.81178e-06
4.45802e-08
3.809e-06
3.77672e-08
3.80461e-06
2.96487e-08
2.02585e-08
3.79809e-06
3.93503e-06
4.82471e-08
3.94578e-06
7.43393e-08
3.95167e-06
9.10873e-08
3.95853e-06
9.34394e-08
3.96577e-06
9.46182e-08
3.97261e-06
9.21175e-08
3.97932e-06
8.74984e-08
3.98585e-06
8.2073e-08
3.99253e-06
7.70054e-08
3.99956e-06
7.17293e-08
4.0062e-06
6.50895e-08
4.01186e-06
5.77558e-08
4.01687e-06
5.11644e-08
4.02181e-06
4.54973e-08
4.02657e-06
3.97675e-08
4.03081e-06
3.34716e-08
4.03399e-06
2.64185e-08
1.89413e-08
4.03525e-06
4.21852e-06
3.68534e-08
4.21926e-06
7.35925e-08
4.22539e-06
8.49236e-08
4.23251e-06
8.62753e-08
4.23945e-06
8.76285e-08
4.24549e-06
8.60269e-08
4.25086e-06
8.20866e-08
4.25573e-06
7.71612e-08
4.26048e-06
7.22158e-08
4.26526e-06
6.69006e-08
4.26966e-06
6.0641e-08
4.27342e-06
5.39533e-08
4.27681e-06
4.77239e-08
4.28023e-06
4.20389e-08
4.28359e-06
3.63576e-08
4.28665e-06
3.03683e-08
4.28901e-06
2.40127e-08
1.7609e-08
4.29029e-06
4.51694e-06
2.89967e-08
4.52419e-06
6.63206e-08
4.53193e-06
7.71483e-08
4.53808e-06
8.00885e-08
4.5442e-06
8.14627e-08
4.54981e-06
8.03751e-08
4.55487e-06
7.6983e-08
4.5595e-06
7.24913e-08
4.56395e-06
6.77149e-08
4.56829e-06
6.25188e-08
4.57223e-06
5.66555e-08
4.57563e-06
5.05061e-08
4.57869e-06
4.46145e-08
4.58164e-06
3.9042e-08
4.58444e-06
3.35135e-08
4.58689e-06
2.78647e-08
4.58873e-06
2.21214e-08
1.65725e-08
4.58971e-06
4.83676e-06
2.49475e-08
4.84604e-06
5.70162e-08
4.8534e-06
6.97477e-08
4.85974e-06
7.37178e-08
4.86587e-06
7.5292e-08
4.87165e-06
7.45542e-08
4.8769e-06
7.16951e-08
4.88175e-06
6.76112e-08
4.88637e-06
6.30492e-08
4.89079e-06
5.80672e-08
4.89481e-06
5.25977e-08
4.89836e-06
4.69144e-08
4.90157e-06
4.13626e-08
4.90457e-06
3.6006e-08
4.90731e-06
3.07282e-08
4.90967e-06
2.54688e-08
4.91145e-06
2.02921e-08
1.54651e-08
4.91253e-06
5.18341e-06
2.11079e-08
5.19053e-06
4.98705e-08
5.1978e-06
6.24402e-08
5.20427e-06
6.72194e-08
5.21042e-06
6.9101e-08
5.21631e-06
6.86354e-08
5.22173e-06
6.62358e-08
5.22675e-06
6.25561e-08
5.23151e-06
5.82529e-08
5.23601e-06
5.35308e-08
5.24013e-06
4.84375e-08
5.24383e-06
4.31708e-08
5.24719e-06
3.79627e-08
5.25027e-06
3.28856e-08
5.25304e-06
2.79181e-08
5.25541e-06
2.30638e-08
5.25726e-06
1.84022e-08
1.41782e-08
5.2585e-06
5.55472e-06
1.77224e-08
5.56106e-06
4.35032e-08
5.56799e-06
5.54753e-08
5.5744e-06
6.07786e-08
5.58062e-06
6.28538e-08
5.58657e-06
6.26573e-08
5.59213e-06
6.06462e-08
5.5973e-06
5.73589e-08
5.60216e-06
5.3365e-08
5.60672e-06
4.89382e-08
5.61093e-06
4.4199e-08
5.61475e-06
3.9312e-08
5.61823e-06
3.44472e-08
5.6214e-06
2.96865e-08
5.62423e-06
2.50581e-08
5.62665e-06
2.06018e-08
5.62862e-06
1.63956e-08
1.267e-08
5.63011e-06
5.95273e-06
1.47621e-08
5.95882e-06
3.73803e-08
5.96539e-06
4.88744e-08
5.97175e-06
5.43941e-08
5.97798e-06
5.65907e-08
5.984e-06
5.66121e-08
5.98969e-06
5.49235e-08
5.99502e-06
5.19988e-08
6.00002e-06
4.83351e-08
6.0047e-06
4.42285e-08
6.00903e-06
3.98394e-08
6.01299e-06
3.53165e-08
6.0166e-06
3.07997e-08
6.01988e-06
2.63758e-08
6.02281e-06
2.20992e-08
6.02535e-06
1.8026e-08
6.02749e-06
1.42262e-08
1.08994e-08
6.02923e-06
6.37941e-06
1.21537e-08
6.38504e-06
3.17254e-08
6.39135e-06
4.25357e-08
6.39772e-06
4.79986e-08
6.40402e-06
5.02659e-08
6.41015e-06
5.04492e-08
6.41601e-06
4.90407e-08
6.42153e-06
4.64568e-08
6.4267e-06
4.31316e-08
6.43154e-06
3.93616e-08
6.43602e-06
3.53237e-08
6.44015e-06
3.11597e-08
6.44392e-06
2.69975e-08
6.44735e-06
2.29193e-08
6.45042e-06
1.89964e-08
6.45312e-06
1.52858e-08
6.45547e-06
1.18446e-08
8.8643e-09
6.45749e-06
5.74275e-06
1.02373e-08
5.74704e-06
2.73955e-08
5.75218e-06
3.73724e-08
5.75755e-06
4.26039e-08
5.76291e-06
4.4871e-08
5.76819e-06
4.51484e-08
5.77327e-06
4.39366e-08
5.77808e-06
4.16183e-08
5.7826e-06
3.85795e-08
5.78684e-06
3.50998e-08
5.79077e-06
3.13597e-08
5.7944e-06
2.75072e-08
5.79773e-06
2.36418e-08
5.80076e-06
1.98655e-08
5.8035e-06
1.62323e-08
5.80594e-06
1.28158e-08
5.80812e-06
9.65355e-09
6.93053e-09
5.81003e-06
7.00005e-06
8.335e-09
7.0045e-06
2.29149e-08
7.0101e-06
3.17514e-08
7.01612e-06
3.65506e-08
7.02226e-06
3.871e-08
7.02835e-06
3.90302e-08
7.03426e-06
3.79922e-08
7.03991e-06
3.59419e-08
7.04525e-06
3.32123e-08
7.05026e-06
3.00602e-08
7.05493e-06
2.6671e-08
7.05925e-06
2.31619e-08
7.06323e-06
1.96513e-08
7.06686e-06
1.62092e-08
7.07016e-06
1.29141e-08
7.07314e-06
9.81081e-09
7.07584e-06
6.94472e-09
4.47988e-09
7.07827e-06
8.53269e-06
6.48837e-09
8.53722e-06
1.83491e-08
8.54319e-06
2.57582e-08
8.54981e-06
2.99049e-08
8.55667e-06
3.18156e-08
8.56358e-06
3.20955e-08
8.57036e-06
3.11894e-08
8.57688e-06
2.9389e-08
8.58309e-06
2.69789e-08
8.58894e-06
2.41856e-08
8.59442e-06
2.11703e-08
8.59952e-06
1.80526e-08
8.60422e-06
1.49253e-08
8.60856e-06
1.18632e-08
8.61252e-06
8.92759e-09
8.61615e-06
6.16743e-09
8.61947e-06
3.59984e-09
1.41237e-09
8.62254e-06
1.0401e-05
4.71348e-09
1.04056e-05
1.37488e-08
1.04118e-05
1.94647e-08
1.0419e-05
2.27323e-08
1.04265e-05
2.42233e-08
1.04342e-05
2.43676e-08
1.04419e-05
2.35281e-08
1.04493e-05
2.19536e-08
1.04564e-05
1.98588e-08
1.04631e-05
1.74375e-08
1.04694e-05
1.4821e-08
1.04754e-05
1.2121e-08
1.04809e-05
9.40458e-09
1.0486e-05
6.75028e-09
1.04907e-05
4.19504e-09
1.0495e-05
1.79108e-09
1.04991e-05
-4.65594e-10
-2.38289e-09
1.05028e-05
1.26785e-05
3.00109e-09
1.26831e-05
9.11535e-09
1.26896e-05
1.2917e-08
1.26973e-05
1.50592e-08
1.27055e-05
1.59523e-08
1.2714e-05
1.58405e-08
1.27225e-05
1.50019e-08
1.27308e-05
1.36085e-08
1.27389e-05
1.18236e-08
1.27465e-05
9.77765e-09
1.27537e-05
7.58507e-09
1.27605e-05
5.31733e-09
1.27668e-05
3.04819e-09
1.27727e-05
8.16266e-10
1.27783e-05
-1.32861e-09
1.27834e-05
-3.3691e-09
1.27882e-05
-5.29131e-09
-6.93339e-09
1.27927e-05
1.54549e-05
1.30721e-09
1.54596e-05
4.3883e-09
1.54664e-05
6.05472e-09
1.54746e-05
6.83664e-09
1.54836e-05
6.94118e-09
1.54929e-05
6.45669e-09
1.55024e-05
5.54115e-09
1.55117e-05
4.29286e-09
1.55207e-05
2.80173e-09
1.55293e-05
1.14741e-09
1.55374e-05
-6.04104e-10
1.55451e-05
-2.39896e-09
1.55524e-05
-4.19634e-09
1.55591e-05
-5.96237e-09
1.55654e-05
-7.67319e-09
1.55713e-05
-9.30726e-09
1.55769e-05
-1.08687e-08
-1.21948e-08
1.55821e-05
1.88394e-05
-4.37132e-10
1.88444e-05
-6.66739e-10
1.88518e-05
-1.39512e-09
1.88608e-05
-2.20279e-09
1.88708e-05
-3.05244e-09
1.88812e-05
-4.00849e-09
1.88918e-05
-5.04903e-09
1.89022e-05
-6.16507e-09
1.89123e-05
-7.34553e-09
1.8922e-05
-8.57153e-09
1.89312e-05
-9.82913e-09
1.89399e-05
-1.10965e-08
1.8948e-05
-1.23608e-08
1.89556e-05
-1.36026e-08
1.89627e-05
-1.48137e-08
1.89694e-05
-1.59791e-08
1.89756e-05
-1.71059e-08
-1.80515e-08
1.89814e-05
2.29653e-05
-2.41451e-09
2.29712e-05
-6.63119e-09
2.298e-05
-1.01732e-08
2.29905e-05
-1.28029e-08
2.30022e-05
-1.47131e-08
2.30143e-05
-1.61643e-08
2.30265e-05
-1.72907e-08
2.30385e-05
-1.81956e-08
2.305e-05
-1.89575e-08
2.30611e-05
-1.96372e-08
2.30715e-05
-2.02756e-08
2.30812e-05
-2.08933e-08
2.30903e-05
-2.15015e-08
2.30988e-05
-2.21015e-08
2.31067e-05
-2.26948e-08
2.31139e-05
-2.32776e-08
2.31206e-05
-2.38545e-08
-2.43159e-08
2.31269e-05
1.68123e-05
-4.05391e-09
1.68172e-05
-1.15779e-08
1.68243e-05
-1.72683e-08
1.68326e-05
-2.11279e-08
1.68415e-05
-2.36627e-08
1.68506e-05
-2.53309e-08
1.68597e-05
-2.63814e-08
1.68685e-05
-2.6998e-08
1.68768e-05
-2.7333e-08
1.68847e-05
-2.75163e-08
1.6892e-05
-2.76193e-08
1.68987e-05
-2.77012e-08
1.6905e-05
-2.77747e-08
1.69107e-05
-2.78682e-08
1.6916e-05
-2.79691e-08
1.69208e-05
-2.80959e-08
1.69252e-05
-2.82296e-08
-2.82993e-08
1.69291e-05
1.46363e-05
-5.80952e-09
1.46415e-05
-1.68058e-08
1.46487e-05
-2.44806e-08
1.46568e-05
-2.92761e-08
1.46653e-05
-3.21845e-08
1.46738e-05
-3.38914e-08
1.46821e-05
-3.47178e-08
1.469e-05
-3.49214e-08
1.46974e-05
-3.47485e-08
1.47042e-05
-3.4379e-08
1.47105e-05
-3.39324e-08
1.47162e-05
-3.34688e-08
1.47215e-05
-3.30315e-08
1.47262e-05
-3.26331e-08
1.47305e-05
-3.22859e-08
1.47344e-05
-3.19798e-08
1.47378e-05
-3.17196e-08
-3.14172e-08
1.47409e-05
1.27422e-05
-7.86759e-09
1.27479e-05
-2.26006e-08
1.27555e-05
-3.20585e-08
1.27636e-05
-3.74463e-08
1.27719e-05
-4.04919e-08
1.278e-05
-4.20639e-08
1.27878e-05
-4.25221e-08
1.2795e-05
-4.21875e-08
1.28017e-05
-4.14154e-08
1.28077e-05
-4.04484e-08
1.28132e-05
-3.94292e-08
1.28181e-05
-3.84237e-08
1.28225e-05
-3.74878e-08
1.28265e-05
-3.66316e-08
1.28301e-05
-3.58684e-08
1.28332e-05
-3.51781e-08
1.28361e-05
-3.4561e-08
-3.39372e-08
1.28386e-05
1.10935e-05
-1.04743e-08
1.11001e-05
-2.91573e-08
1.1108e-05
-4.00512e-08
1.11162e-05
-4.56743e-08
1.11243e-05
-4.86248e-08
1.11321e-05
-4.99096e-08
1.11394e-05
-4.98571e-08
1.11461e-05
-4.88664e-08
1.11521e-05
-4.74269e-08
1.11574e-05
-4.58262e-08
1.11622e-05
-4.42337e-08
1.11665e-05
-4.27033e-08
1.11702e-05
-4.12948e-08
1.11736e-05
-4.00292e-08
1.11766e-05
-3.88896e-08
1.11793e-05
-3.78736e-08
1.11817e-05
-3.69422e-08
-3.60501e-08
1.11837e-05
9.65876e-06
-1.4021e-08
9.66614e-06
-3.65631e-08
9.6744e-06
-4.8343e-08
9.68245e-06
-5.37457e-08
9.69025e-06
-5.64514e-08
9.69766e-06
-5.73423e-08
9.70442e-06
-5.66399e-08
9.71045e-06
-5.49252e-08
9.7158e-06
-5.28023e-08
9.72054e-06
-5.05845e-08
9.72473e-06
-4.84467e-08
9.72844e-06
-4.64389e-08
9.73174e-06
-4.4622e-08
9.73469e-06
-4.30006e-08
9.73733e-06
-4.15542e-08
9.7397e-06
-4.02635e-08
9.74183e-06
-3.9088e-08
-3.79842e-08
9.74375e-06
8.41113e-06
-1.98033e-08
8.41853e-06
-4.39883e-08
8.42628e-06
-5.61185e-08
8.43381e-06
-6.13088e-08
8.44124e-06
-6.38969e-08
8.44821e-06
-6.43467e-08
8.45439e-06
-6.28437e-08
8.45982e-06
-6.03788e-08
8.46464e-06
-5.76354e-08
8.4689e-06
-5.4864e-08
8.47266e-06
-5.22316e-08
8.47607e-06
-4.98627e-08
8.47917e-06
-4.77439e-08
8.48199e-06
-4.58401e-08
8.48456e-06
-4.41427e-08
8.48691e-06
-4.26306e-08
8.48906e-06
-4.12595e-08
-3.99825e-08
8.49105e-06
7.3233e-06
-2.58274e-08
7.3325e-06
-5.32135e-08
7.33909e-06
-6.2732e-08
7.34595e-06
-6.81989e-08
7.35317e-06
-7.11451e-08
7.3598e-06
-7.10042e-08
7.36558e-06
-6.86444e-08
7.3706e-06
-6.54176e-08
7.37511e-06
-6.21713e-08
7.37929e-06
-5.90618e-08
7.38314e-06
-5.60937e-08
7.38677e-06
-5.35137e-08
7.39022e-06
-5.12122e-08
7.39344e-06
-4.90727e-08
7.39641e-06
-4.71305e-08
7.39913e-06
-4.53702e-08
7.40162e-06
-4.37677e-08
-4.23257e-08
7.40395e-06
6.37444e-06
-3.02046e-08
6.38595e-06
-6.4756e-08
6.3945e-06
-7.13008e-08
6.40183e-06
-7.55678e-08
6.40868e-06
-7.80131e-08
6.41499e-06
-7.73417e-08
6.42088e-06
-7.45575e-08
6.42655e-06
-7.10993e-08
6.43206e-06
-6.77012e-08
6.43748e-06
-6.44993e-08
6.44291e-06
-6.15494e-08
6.4481e-06
-5.87149e-08
6.4528e-06
-5.59263e-08
6.45701e-06
-5.32931e-08
6.46065e-06
-5.07891e-08
6.46373e-06
-4.84608e-08
6.46627e-06
-4.63242e-08
-4.44646e-08
6.46839e-06
5.55675e-06
-4.14972e-08
5.57114e-06
-7.9172e-08
5.5835e-06
-8.36935e-08
5.59735e-06
-8.94551e-08
5.61196e-06
-9.26467e-08
5.62634e-06
-9.17457e-08
5.6399e-06
-8.8135e-08
5.6523e-06
-8.35245e-08
5.66303e-06
-7.84453e-08
5.67145e-06
-7.29386e-08
5.67735e-06
-6.74679e-08
5.68093e-06
-6.23076e-08
5.68249e-06
-5.74979e-08
5.68237e-06
-5.31841e-08
5.68089e-06
-4.93279e-08
5.67838e-06
-4.59537e-08
5.67517e-06
-4.31372e-08
-4.09572e-08
5.67165e-06
4.89374e-06
-1.07632e-07
4.94416e-06
-1.2963e-07
4.9868e-06
-1.2636e-07
5.01906e-06
-1.21762e-07
5.04008e-06
-1.13688e-07
5.0507e-06
-1.02391e-07
5.05137e-06
-8.88281e-08
5.04219e-06
-7.43677e-08
5.02517e-06
-6.14394e-08
5.00353e-06
-5.13265e-08
4.97919e-06
-4.31509e-08
4.95335e-06
-3.64802e-08
4.9271e-06
-3.126e-08
4.9009e-06
-2.70029e-08
4.87535e-06
-2.37874e-08
4.85103e-06
-2.16466e-08
4.82797e-06
-2.00962e-08
-1.91945e-08
4.80618e-06
4.09504e-06
3.96541e-06
3.83905e-06
3.71728e-06
3.60359e-06
3.5012e-06
3.41237e-06
3.338e-06
3.27655e-06
3.22522e-06
3.18207e-06
3.14559e-06
3.11433e-06
3.08732e-06
3.06353e-06
3.04188e-06
3.02178e-06
3.00258e-06
-1.37975e-08
1.53891e-08
-2.90069e-08
1.78152e-08
-7.24365e-08
4.49488e-08
-1.30694e-07
5.98808e-08
-1.98466e-07
6.86251e-08
-2.69816e-07
7.25722e-08
-3.4267e-07
7.33495e-08
-4.14066e-07
7.24299e-08
-4.84668e-07
7.09409e-08
-5.53355e-07
6.96034e-08
-6.22071e-07
6.89242e-08
-6.90448e-07
6.91951e-08
-7.60864e-07
7.05003e-08
-8.32966e-07
7.28267e-08
-9.09012e-07
7.59928e-08
-9.8817e-07
7.98215e-08
-1.07232e-06
8.39202e-08
-1.15924e-06
8.75902e-08
-1.24916e-06
8.96775e-08
-1.33873e-06
9.03153e-08
-1.42881e-06
8.9798e-08
-1.51635e-06
8.83974e-08
-1.60262e-06
8.60855e-08
-1.68412e-06
8.24742e-08
-1.76176e-06
7.75018e-08
-1.83232e-06
7.15724e-08
-1.89742e-06
6.4857e-08
-1.95401e-06
5.75799e-08
-2.0041e-06
4.97927e-08
-2.04489e-06
4.16879e-08
-2.07857e-06
3.31219e-08
-2.10224e-06
2.43861e-08
-2.11846e-06
1.55104e-08
-2.125e-06
6.98848e-09
-2.12487e-06
-1.16899e-09
-2.11554e-06
-9.1444e-09
-2.09917e-06
-1.75445e-08
-2.07258e-06
-2.65136e-08
-2.03743e-06
-3.63184e-08
-1.9905e-06
-4.68544e-08
-1.93296e-06
-5.86454e-08
-1.86144e-06
-7.14596e-08
-1.77714e-06
-8.54037e-08
-1.67625e-06
-1.00958e-07
-1.55977e-06
-1.1766e-07
-1.4263e-06
-1.33785e-07
-1.27633e-06
-1.5132e-07
-1.10862e-06
-1.68134e-07
-9.28577e-07
-1.81704e-07
-7.28178e-07
-2.00935e-07
-4.88347e-07
-2.41463e-07
-2.14517e-07
-2.74252e-07
6.72079e-08
-2.83026e-07
3.47767e-07
-2.81239e-07
6.20223e-07
-2.73805e-07
8.81532e-07
-2.62348e-07
1.12768e-06
-2.47526e-07
1.35607e-06
-2.2967e-07
1.56294e-06
-2.08227e-07
1.74115e-06
-1.79618e-07
1.87871e-06
-1.38883e-07
1.96204e-06
-8.47681e-08
1.98269e-06
-2.1871e-08
1.93915e-06
4.21156e-08
1.83587e-06
1.02111e-07
1.68202e-06
1.52289e-07
1.49268e-06
1.88064e-07
1.28313e-06
2.07704e-07
1.06948e-06
2.12184e-07
8.65521e-07
2.01706e-07
6.86767e-07
1.76849e-07
5.30079e-07
1.5337e-07
3.787e-07
1.48188e-07
2.22936e-07
1.49561e-07
1.10669e-07
1.07229e-07
6.42785e-08
4.00285e-08
5.43705e-08
6.30467e-09
9.09886e-08
-4.03811e-08
1.96211e-07
-1.07425e-07
3.02985e-07
-1.09346e-07
3.60915e-07
-6.01603e-08
3.46662e-07
1.16205e-08
2.7919e-07
6.4764e-08
1.54966e-07
1.20904e-07
-1.67038e-07
3.19791e-07
-7.19404e-07
5.50015e-07
-1.38908e-06
6.68206e-07
-2.08625e-06
6.95597e-07
-2.75405e-06
6.66986e-07
-3.36552e-06
6.10644e-07
-3.91001e-06
5.43321e-07
-4.38651e-06
4.74813e-07
-4.79907e-06
4.1065e-07
-5.15396e-06
3.52752e-07
-5.45739e-06
3.01269e-07
-5.71589e-06
2.56172e-07
-5.93482e-06
2.166e-07
-6.11899e-06
1.81655e-07
-6.27165e-06
1.50134e-07
-6.39566e-06
1.21247e-07
-6.49291e-06
9.44324e-08
-6.56542e-06
6.93026e-08
-6.61474e-06
4.61128e-08
-6.64307e-06
2.47696e-08
-6.65299e-06
6.84552e-09
-6.64801e-06
-8.02771e-09
-6.62892e-06
-2.12514e-08
-6.5972e-06
-3.37064e-08
-6.55292e-06
-4.53497e-08
-6.49717e-06
-5.66891e-08
-6.43012e-06
-6.72131e-08
-6.35269e-06
-7.75287e-08
-6.26501e-06
-8.71448e-08
-6.16806e-06
-9.63791e-08
-6.06179e-06
-1.05227e-07
-5.94783e-06
-1.12891e-07
-5.82688e-06
-1.19535e-07
-5.69916e-06
-1.26306e-07
-5.56518e-06
-1.32355e-07
-5.42641e-06
-1.37182e-07
-5.28285e-06
-1.41928e-07
-5.13517e-06
-1.46036e-07
-4.98475e-06
-1.4879e-07
-4.83164e-06
-1.51358e-07
-4.67676e-06
-1.53207e-07
-4.52083e-06
-1.54161e-07
-4.36472e-06
-1.54592e-07
-4.20959e-06
-1.53545e-07
-4.05624e-06
-1.52139e-07
-3.90513e-06
-1.49876e-07
-3.75752e-06
-1.46792e-07
-3.61378e-06
-1.42934e-07
-3.47472e-06
-1.38662e-07
-3.3404e-06
-1.33952e-07
-3.21122e-06
-1.29162e-07
-3.08703e-06
-1.24214e-07
-2.96799e-06
-1.19289e-07
-2.85361e-06
-1.14637e-07
-2.74363e-06
-1.10355e-07
-2.63774e-06
-1.06178e-07
-2.53542e-06
-1.02547e-07
-2.43582e-06
-9.96285e-08
-2.33825e-06
-9.74562e-08
-2.24203e-06
-9.59468e-08
-2.14632e-06
-9.53413e-08
-2.05012e-06
-9.57063e-08
-1.95249e-06
-9.70862e-08
-1.85225e-06
-9.95893e-08
-1.74835e-06
-1.03219e-07
-1.6403e-06
-1.0728e-07
-1.5275e-06
-1.12011e-07
-1.40925e-06
-1.17361e-07
-1.286e-06
-1.22351e-07
-1.15773e-06
-1.27261e-07
-1.02496e-06
-1.31719e-07
-8.88183e-07
-1.35592e-07
-7.47909e-07
-1.3903e-07
-6.04519e-07
-1.41947e-07
-4.58985e-07
-1.44008e-07
-3.11244e-07
-1.46018e-07
-1.56735e-07
-1.52697e-07
1.16091e-08
-1.66477e-07
1.90227e-07
-1.76965e-07
3.71332e-07
-1.79493e-07
5.51317e-07
-1.78537e-07
7.28557e-07
-1.75818e-07
9.01519e-07
-1.71711e-07
1.06898e-06
-1.66245e-07
1.23019e-06
-1.60174e-07
1.38449e-06
-1.53287e-07
1.53073e-06
-1.45409e-07
1.66811e-06
-1.36556e-07
1.79588e-06
-1.27107e-07
1.91348e-06
-1.16941e-07
2.02013e-06
-1.06124e-07
2.11452e-06
-9.3911e-08
2.19338e-06
-7.85512e-08
2.25197e-06
-5.82978e-08
2.2655e-06
-1.32976e-08
7.86292e-08
2.18721e-06
-5.77525e-08
7.43865e-08
-1.46303e-07
1.08118e-07
-2.29187e-07
1.28806e-07
-3.07262e-07
1.39013e-07
-3.80599e-07
1.42561e-07
-4.49404e-07
1.42208e-07
-5.15439e-07
1.39824e-07
-5.79229e-07
1.36943e-07
-6.42495e-07
1.34538e-07
-7.05414e-07
1.33164e-07
-7.69286e-07
1.33046e-07
-8.33717e-07
1.34184e-07
-8.99531e-07
1.36474e-07
-9.6592e-07
1.39693e-07
-1.03333e-06
1.43456e-07
-1.10035e-06
1.4725e-07
-1.16696e-06
1.50487e-07
-1.2316e-06
1.52583e-07
-1.29507e-06
1.5306e-07
-1.35604e-06
1.51685e-07
-1.41486e-06
1.48525e-07
-1.46979e-06
1.43729e-07
-1.52125e-06
1.37503e-07
-1.56822e-06
1.29948e-07
-1.61198e-06
1.21231e-07
-1.65157e-06
1.11622e-07
-1.68808e-06
1.01319e-07
-1.72054e-06
9.05039e-08
-1.7501e-06
7.92763e-08
-1.77576e-06
6.77121e-08
-1.79853e-06
5.57255e-08
-1.81711e-06
4.32307e-08
-1.83186e-06
2.99915e-08
-1.8406e-06
1.5809e-08
-1.84255e-06
3.74846e-10
-1.83524e-06
-1.65222e-08
-1.81817e-06
-3.5085e-08
-1.78938e-06
-5.54483e-08
-1.74837e-06
-7.77852e-08
-1.69327e-06
-1.02112e-07
-1.62375e-06
-1.28588e-07
-1.53818e-06
-1.57213e-07
-1.43613e-06
-1.87871e-07
-1.3169e-06
-2.20441e-07
-1.1803e-06
-2.54716e-07
-1.02478e-06
-2.89663e-07
-8.52068e-07
-3.24544e-07
-6.6215e-07
-3.58465e-07
-4.52913e-07
-3.91432e-07
-2.31889e-07
-4.22315e-07
-2.22958e-08
-4.51498e-07
1.77518e-07
-4.74401e-07
3.80947e-07
-4.86941e-07
5.88973e-07
-4.89735e-07
7.983e-07
-4.83757e-07
1.00483e-06
-4.69524e-07
1.20402e-06
-4.47472e-07
1.39139e-06
-4.17828e-07
1.56296e-06
-3.80637e-07
1.7183e-06
-3.35848e-07
1.86113e-06
-2.82612e-07
1.99534e-06
-2.19933e-07
2.11759e-06
-1.45029e-07
2.21438e-06
-5.56214e-08
2.27133e-06
4.42829e-08
2.27374e-06
1.48926e-07
2.21142e-06
2.49467e-07
2.08493e-06
3.33193e-07
1.90782e-06
3.88313e-07
1.69728e-06
4.11127e-07
1.46491e-06
4.08064e-07
1.22702e-06
3.8988e-07
1.02061e-06
3.53114e-07
8.72763e-07
2.95601e-07
7.54057e-07
2.24034e-07
6.65771e-07
1.26286e-07
6.73003e-07
-2.45107e-09
7.73709e-07
-1.4251e-07
8.73726e-07
-2.0874e-07
9.30505e-07
-1.67599e-07
7.70593e-07
9.83727e-08
3.23163e-07
4.57888e-07
-4.76909e-07
8.63976e-07
-1.4808e-06
1.12399e-06
-2.43175e-06
1.26993e-06
-3.20422e-06
1.32156e-06
-3.81823e-06
1.2813e-06
-4.30675e-06
1.18334e-06
-4.69695e-06
1.05655e-06
-5.00961e-06
9.22879e-07
-5.26322e-06
7.96028e-07
-5.47184e-06
6.82228e-07
-5.64582e-06
5.83095e-07
-5.79248e-06
4.97799e-07
-5.9175e-06
4.24467e-07
-6.02406e-06
3.6089e-07
-6.11456e-06
3.05073e-07
-6.19043e-06
2.55459e-07
-6.25316e-06
2.10597e-07
-6.3038e-06
1.69581e-07
-6.34373e-06
1.31759e-07
-6.37385e-06
9.67414e-08
-6.3949e-06
6.41377e-08
-6.40655e-06
3.35371e-08
-6.40728e-06
4.7166e-09
-6.39497e-06
-2.26681e-08
-6.36972e-06
-4.85258e-08
-6.33179e-06
-7.30453e-08
-6.28197e-06
-9.62375e-08
-6.22098e-06
-1.18237e-07
-6.14938e-06
-1.39101e-07
-6.06752e-06
-1.59279e-07
-5.97616e-06
-1.78181e-07
-5.87616e-06
-1.95767e-07
-5.76813e-06
-2.12486e-07
-5.65246e-06
-2.27577e-07
-5.52965e-06
-2.41239e-07
-5.40057e-06
-2.54159e-07
-5.26585e-06
-2.65771e-07
-5.12613e-06
-2.75575e-07
-4.98259e-06
-2.84114e-07
-4.83579e-06
-2.91487e-07
-4.68592e-06
-2.97258e-07
-4.53401e-06
-3.0185e-07
-4.3806e-06
-3.05164e-07
-4.22648e-06
-3.06885e-07
-4.0724e-06
-3.07332e-07
-3.91866e-06
-3.06063e-07
-3.76637e-06
-3.03325e-07
-3.61626e-06
-2.99053e-07
-3.46905e-06
-2.93228e-07
-3.32539e-06
-2.86001e-07
-3.18594e-06
-2.77712e-07
-3.05112e-06
-2.6852e-07
-2.92135e-06
-2.58859e-07
-2.79676e-06
-2.48862e-07
-2.67742e-06
-2.38793e-07
-2.56318e-06
-2.29134e-07
-2.45371e-06
-2.20112e-07
-2.34854e-06
-2.1162e-07
-2.247e-06
-2.04258e-07
-2.14836e-06
-1.9831e-07
-2.05168e-06
-1.94042e-07
-1.95594e-06
-1.91471e-07
-1.86019e-06
-1.90795e-07
-1.76294e-06
-1.92571e-07
-1.66292e-06
-1.96656e-07
-1.55887e-06
-2.03113e-07
-1.44986e-06
-2.11653e-07
-1.33491e-06
-2.21602e-07
-1.21384e-06
-2.32412e-07
-1.08659e-06
-2.43869e-07
-9.52861e-07
-2.55327e-07
-8.12791e-07
-2.66482e-07
-6.66718e-07
-2.76914e-07
-5.14625e-07
-2.86693e-07
-3.56718e-07
-2.95918e-07
-1.92031e-07
-3.05509e-07
-1.84089e-08
-3.16543e-07
1.64333e-07
-3.27654e-07
3.51957e-07
-3.39305e-07
5.37818e-07
-3.51289e-07
7.21137e-07
-3.59295e-07
9.03878e-07
-3.61206e-07
1.08532e-06
-3.59013e-07
1.26436e-06
-3.5387e-07
1.43979e-06
-3.4624e-07
1.61067e-06
-3.36231e-07
1.77571e-06
-3.24424e-07
1.93412e-06
-3.10926e-07
2.08509e-06
-2.95711e-07
2.22796e-06
-2.78781e-07
2.36206e-06
-2.60649e-07
2.48685e-06
-2.41178e-07
2.60132e-06
-2.20129e-07
2.70416e-06
-1.96324e-07
2.79357e-06
-1.67632e-07
2.86452e-06
-1.28978e-07
2.91905e-06
-6.75722e-08
4.57635e-08
2.9523e-06
-5.90511e-08
1.34254e-07
-1.38635e-07
1.88817e-07
-2.04647e-07
1.95422e-07
-2.59424e-07
1.94463e-07
-3.06663e-07
1.9018e-07
-3.48963e-07
1.85063e-07
-3.89432e-07
1.80569e-07
-4.29589e-07
1.77603e-07
-4.7127e-07
1.76452e-07
-5.14815e-07
1.77167e-07
-5.61148e-07
1.79561e-07
-6.09812e-07
1.8326e-07
-6.61037e-07
1.87821e-07
-7.13762e-07
1.92772e-07
-7.67881e-07
1.97623e-07
-8.22217e-07
2.0188e-07
-8.76846e-07
2.05086e-07
-9.30887e-07
2.06866e-07
-9.84872e-07
2.06969e-07
-1.03816e-06
2.05204e-07
-1.09128e-06
2.01558e-07
-1.1435e-06
1.96181e-07
-1.19527e-06
1.89207e-07
-1.24585e-06
1.80773e-07
-1.29576e-06
1.71082e-07
-1.34421e-06
1.6031e-07
-1.39152e-06
1.48567e-07
-1.4367e-06
1.35916e-07
-1.47982e-06
1.22338e-07
-1.51966e-06
1.07747e-07
-1.55597e-06
9.19513e-08
-1.5873e-06
7.47053e-08
-1.61314e-06
5.57027e-08
-1.63193e-06
3.46514e-08
-1.64305e-06
1.13068e-08
-1.64503e-06
-1.4576e-08
-1.63715e-06
-4.31875e-08
-1.61803e-06
-7.46525e-08
-1.58698e-06
-1.09055e-07
-1.54281e-06
-1.46395e-07
-1.48498e-06
-1.86637e-07
-1.41266e-06
-2.29674e-07
-1.32546e-06
-2.75296e-07
-1.22294e-06
-3.2316e-07
-1.10514e-06
-3.72773e-07
-9.71527e-07
-4.23537e-07
-8.22646e-07
-4.73729e-07
-6.60201e-07
-5.21208e-07
-4.85467e-07
-5.66486e-07
-3.00767e-07
-6.07322e-07
-1.11242e-07
-6.41351e-07
8.09243e-08
-6.66895e-07
2.76271e-07
-6.82671e-07
4.74062e-07
-6.87942e-07
6.72319e-07
-6.82498e-07
8.68578e-07
-6.6631e-07
1.05984e-06
-6.39303e-07
1.24244e-06
-6.01038e-07
1.41286e-06
-5.51689e-07
1.56841e-06
-4.92045e-07
1.70821e-06
-4.23065e-07
1.83268e-06
-3.45077e-07
1.94427e-06
-2.57296e-07
2.04549e-06
-1.57561e-07
2.1343e-06
-4.52347e-08
2.20414e-06
7.83393e-08
2.2433e-06
2.09557e-07
2.23753e-06
3.38167e-07
2.17771e-06
4.47353e-07
2.06429e-06
5.23724e-07
1.90971e-06
5.61787e-07
1.74144e-06
5.57235e-07
1.58402e-06
5.09577e-07
1.44456e-06
4.3396e-07
1.33395e-06
3.33402e-07
1.28983e-06
1.69212e-07
1.32822e-06
-4.19228e-08
1.39521e-06
-2.10592e-07
1.3164e-06
-1.31066e-07
8.06817e-07
3.41016e-07
-1.50575e-07
1.05516e-06
-1.24421e-06
1.55108e-06
-2.17697e-06
1.7963e-06
-2.9146e-06
1.86111e-06
-3.46576e-06
1.82048e-06
-3.8614e-06
1.7165e-06
-4.15285e-06
1.57204e-06
-4.38088e-06
1.4107e-06
-4.57371e-06
1.24906e-06
-4.74786e-06
1.09664e-06
-4.91093e-06
9.58492e-07
-5.06545e-06
8.35839e-07
-5.21156e-06
7.28078e-07
-5.34777e-06
6.32748e-07
-5.47301e-06
5.48302e-07
-5.58621e-06
4.72614e-07
-5.68695e-06
4.0418e-07
-5.77485e-06
3.41661e-07
-5.84991e-06
2.83774e-07
-5.912e-06
2.29733e-07
-5.9613e-06
1.78852e-07
-5.99761e-06
1.30787e-07
-6.02104e-06
8.50117e-08
-6.03122e-06
4.13428e-08
-6.02838e-06
-4.96278e-10
-6.01233e-06
-4.05506e-08
-5.98369e-06
-7.88004e-08
-5.94272e-06
-1.15065e-07
-5.89029e-06
-1.49527e-07
-5.82666e-06
-1.82217e-07
-5.75261e-06
-2.13359e-07
-5.66875e-06
-2.42955e-07
-5.57578e-06
-2.70873e-07
-5.47424e-06
-2.96727e-07
-5.3649e-06
-3.2118e-07
-5.24794e-06
-3.43662e-07
-5.12438e-06
-3.63887e-07
-4.99519e-06
-3.82286e-07
-4.8611e-06
-3.98782e-07
-4.72267e-06
-4.12876e-07
-4.58072e-06
-4.24924e-07
-4.43577e-06
-4.35285e-07
-4.28836e-06
-4.43471e-07
-4.13942e-06
-4.49611e-07
-3.98943e-06
-4.53918e-07
-3.839e-06
-4.56178e-07
-3.68868e-06
-4.56525e-07
-3.53914e-06
-4.54632e-07
-3.39118e-06
-4.50365e-07
-3.24534e-06
-4.44178e-07
-3.10206e-06
-4.35856e-07
-2.96205e-06
-4.25593e-07
-2.82585e-06
-4.1358e-07
-2.69409e-06
-4.00158e-07
-2.56719e-06
-3.85721e-07
-2.4455e-06
-3.70676e-07
-2.32916e-06
-3.55321e-07
-2.21833e-06
-3.40263e-07
-2.11269e-06
-3.26058e-07
-2.01161e-06
-3.12994e-07
-1.91439e-06
-3.0168e-07
-1.82017e-06
-2.92623e-07
-1.72783e-06
-2.86361e-07
-1.63593e-06
-2.83267e-07
-1.54305e-06
-2.83496e-07
-1.44761e-06
-2.87784e-07
-1.34816e-06
-2.95817e-07
-1.24355e-06
-3.07395e-07
-1.13296e-06
-3.21869e-07
-1.01563e-06
-3.38543e-07
-8.91169e-07
-3.56428e-07
-7.59432e-07
-3.75142e-07
-6.20258e-07
-3.93977e-07
-4.7365e-07
-4.12545e-07
-3.19723e-07
-4.30243e-07
-1.5839e-07
-4.47423e-07
1.10431e-08
-4.64736e-07
1.87988e-07
-4.81876e-07
3.70505e-07
-4.98495e-07
5.57061e-07
-5.13677e-07
7.45296e-07
-5.27013e-07
9.32182e-07
-5.37666e-07
1.11693e-06
-5.43535e-07
1.29996e-06
-5.43722e-07
1.48072e-06
-5.39266e-07
1.65824e-06
-5.30879e-07
1.83147e-06
-5.1899e-07
1.99952e-06
-5.03803e-07
2.16152e-06
-4.85988e-07
2.31691e-06
-4.65892e-07
2.46526e-06
-4.43685e-07
2.60612e-06
-4.19268e-07
2.73886e-06
-3.93077e-07
2.86287e-06
-3.64886e-07
2.97715e-06
-3.34156e-07
3.08057e-06
-2.99519e-07
3.17153e-06
-2.58425e-07
3.24787e-06
-2.05156e-07
3.30991e-06
-1.29448e-07
-1.08021e-08
3.36673e-06
-5.03984e-08
1.8522e-07
-1.04012e-07
2.43112e-07
-1.44957e-07
2.3672e-07
-1.77e-07
2.26914e-07
-2.0432e-07
2.17712e-07
-2.29242e-07
2.10312e-07
-2.5391e-07
2.0541e-07
-2.79349e-07
2.03345e-07
-3.0686e-07
2.041e-07
-3.36821e-07
2.0742e-07
-3.70006e-07
2.12862e-07
-4.06327e-07
2.19854e-07
-4.4617e-07
2.27747e-07
-4.89019e-07
2.35865e-07
-5.34922e-07
2.4356e-07
-5.83095e-07
2.50258e-07
-6.33527e-07
2.55498e-07
-6.85449e-07
2.58957e-07
-7.38981e-07
2.6044e-07
-7.93477e-07
2.59844e-07
-8.49186e-07
2.5719e-07
-9.05456e-07
2.5259e-07
-9.62497e-07
2.46168e-07
-1.01966e-06
2.38075e-07
-1.07711e-06
2.28458e-07
-1.13407e-06
2.17417e-07
-1.19057e-06
2.04993e-07
-1.24567e-06
1.91152e-07
-1.29917e-06
1.75779e-07
-1.34997e-06
1.58682e-07
-1.39767e-06
1.39592e-07
-1.44105e-06
1.18193e-07
-1.47956e-06
9.41417e-08
-1.51195e-06
6.71078e-08
-1.53753e-06
3.67882e-08
-1.55505e-06
2.95824e-09
-1.56379e-06
-3.45707e-08
-1.56255e-06
-7.59186e-08
-1.55062e-06
-1.21118e-07
-1.52697e-06
-1.70103e-07
-1.49104e-06
-2.2271e-07
-1.44213e-06
-2.78677e-07
-1.37997e-06
-3.37629e-07
-1.30426e-06
-3.99003e-07
-1.21517e-06
-4.62076e-07
-1.11276e-06
-5.26137e-07
-9.97105e-07
-5.89642e-07
-8.66982e-07
-6.51578e-07
-7.22348e-07
-7.1143e-07
-5.63477e-07
-7.66505e-07
-3.90671e-07
-8.14521e-07
-2.05925e-07
-8.52025e-07
-1.23203e-08
-8.76712e-07
1.87228e-07
-8.87956e-07
3.89512e-07
-8.85292e-07
5.91049e-07
-8.68384e-07
7.88253e-07
-8.37063e-07
9.7837e-07
-7.91731e-07
1.15951e-06
-7.33407e-07
1.32869e-06
-6.61812e-07
1.48264e-06
-5.77588e-07
1.61893e-06
-4.8195e-07
1.73743e-06
-3.76362e-07
1.84047e-06
-2.61188e-07
1.93021e-06
-1.35564e-07
2.00845e-06
-5.17487e-10
2.07475e-06
1.4261e-07
2.12233e-06
2.89907e-07
2.13839e-06
4.30583e-07
2.11334e-06
5.48028e-07
2.05043e-06
6.23939e-07
1.96168e-06
6.45184e-07
1.85142e-06
6.18931e-07
1.72211e-06
5.62284e-07
1.61345e-06
4.40982e-07
1.58522e-06
1.96384e-07
1.61074e-06
-6.85346e-08
1.3901e-06
9.02971e-09
6.11536e-07
6.46773e-07
-5.52328e-07
1.50444e-06
-1.55428e-06
2.05678e-06
-2.29315e-06
2.28963e-06
-2.81991e-06
2.32271e-06
-3.19951e-06
2.24028e-06
-3.47792e-06
2.09839e-06
-3.69149e-06
1.92951e-06
-3.87168e-06
1.75162e-06
-4.03778e-06
1.57633e-06
-4.19933e-06
1.41029e-06
-4.35951e-06
1.25665e-06
-4.51775e-06
1.11635e-06
-4.67173e-06
9.89171e-07
-4.81869e-06
8.74207e-07
-4.95638e-06
7.69467e-07
-5.08304e-06
6.73878e-07
-5.19751e-06
5.85876e-07
-5.29908e-06
5.04424e-07
-5.38736e-06
4.28487e-07
-5.46216e-06
3.57003e-07
-5.52337e-06
2.89209e-07
-5.57095e-06
2.24543e-07
-5.60501e-06
1.62778e-07
-5.62561e-06
1.03458e-07
-5.63291e-06
4.65164e-08
-5.62705e-06
-8.26114e-09
-5.60837e-06
-6.08406e-08
-5.57735e-06
-1.11076e-07
-5.53445e-06
-1.5889e-07
-5.48009e-06
-2.0449e-07
-5.41478e-06
-2.47848e-07
-5.33921e-06
-2.89014e-07
-5.25417e-06
-3.27847e-07
-5.16015e-06
-3.64577e-07
-5.05761e-06
-3.98779e-07
-4.94739e-06
-4.30801e-07
-4.83021e-06
-4.601e-07