/*--------------------------------*- C++ -*----------------------------------*\
  =========                 |
  \\      /  F ield         | OpenFOAM: The Open Source CFD Toolbox
   \\    /   O peration     | Website:  https://openfoam.org
    \\  /    A nd           | Version:  13
     \\/     M anipulation  |
\*---------------------------------------------------------------------------*/
FoamFile
{
    format      ascii;
    class       volVectorField;
    location    "100";
    object      U;
}
// * * * * * * * * * * * * * * * * * * * * * * * * * * * * * * * * * * * * * //

dimensions      [0 1 -1 0 0 0 0];

internalField   nonuniform List<vector> 
12225
(
(9.75117 0.0466459 0)
(9.28211 0.0913137 0)
(8.82628 0.0989238 0)
(8.38762 0.0983674 0)
(7.98027 0.0923305 0)
(7.62985 0.073351 0)
(7.37531 0.060705 0)
(7.12154 0.0510557 0)
(6.89905 0.0488447 0)
(6.72575 0.0542781 0)
(6.57724 0.0424399 0)
(6.45803 0.018647 0)
(6.36749 0.00261585 0)
(6.29315 0.00647091 0)
(6.24948 0.00984713 0)
(6.22251 0.00554101 0)
(6.20959 -0.0058566 0)
(6.2212 -0.0102736 0)
(10.1087 0.0575874 0)
(10.3075 0.0907331 0)
(10.441 0.0947703 0)
(10.507 0.0957019 0)
(10.5186 0.095497 0)
(10.4922 0.0920267 0)
(10.407 0.0864584 0)
(10.3357 0.0815593 0)
(10.2582 0.0739644 0)
(10.1588 0.0648457 0)
(10.0521 0.0598358 0)
(9.9547 0.0564453 0)
(9.86296 0.0518687 0)
(9.77726 0.0431946 0)
(9.68081 0.0341284 0)
(9.59327 0.0278742 0)
(9.51062 0.0205319 0)
(9.44136 0.00658639 0)
(10.0065 0.0478835 0)
(10.0489 0.0636648 0)
(10.1085 0.0701688 0)
(10.1532 0.0745477 0)
(10.2033 0.0801104 0)
(10.2538 0.0821282 0)
(10.2984 0.0833063 0)
(10.3342 0.0834969 0)
(10.3628 0.0822566 0)
(10.3857 0.0804735 0)
(10.4027 0.0766425 0)
(10.4127 0.0711956 0)
(10.416 0.066035 0)
(10.4153 0.0614001 0)
(10.4111 0.0559788 0)
(10.4042 0.0493775 0)
(10.3948 0.0404264 0)
(10.3797 0.0278109 0)
(10.005 0.0312139 0)
(10.0332 0.0454113 0)
(10.0617 0.0571284 0)
(10.0776 0.0631165 0)
(10.0935 0.0682308 0)
(10.1109 0.0695889 0)
(10.1286 0.0687989 0)
(10.1458 0.0672318 0)
(10.1626 0.0659172 0)
(10.1801 0.0641738 0)
(10.1974 0.0605038 0)
(10.2131 0.0555595 0)
(10.2268 0.0511482 0)
(10.2396 0.0476548 0)
(10.2519 0.0435668 0)
(10.2633 0.0380556 0)
(10.2728 0.0306737 0)
(10.2794 0.021673 0)
(10.0231 0.0279406 0)
(10.029 0.0486139 0)
(10.0299 0.0635211 0)
(10.0535 0.0673052 0)
(10.0691 0.0701949 0)
(10.0837 0.0706785 0)
(10.0976 0.0696546 0)
(10.11 0.0679499 0)
(10.1214 0.0662558 0)
(10.1326 0.0640894 0)
(10.1434 0.0605474 0)
(10.1531 0.0560766 0)
(10.1616 0.0517882 0)
(10.1697 0.047852 0)
(10.1778 0.0434344 0)
(10.1854 0.0380205 0)
(10.192 0.0313797 0)
(10.1965 0.0239623 0)
(10.0108 0.0202714 0)
(10.0236 0.0509392 0)
(10.0414 0.055734 0)
(10.0588 0.0600609 0)
(10.0715 0.0632699 0)
(10.0839 0.0647324 0)
(10.0959 0.064502 0)
(10.1069 0.0632456 0)
(10.117 0.0615718 0)
(10.1266 0.0592795 0)
(10.1357 0.05592 0)
(10.1438 0.0518034 0)
(10.151 0.0476086 0)
(10.1577 0.0434562 0)
(10.1641 0.0389123 0)
(10.1699 0.0336731 0)
(10.1748 0.0276797 0)
(10.1779 0.0212818 0)
(10.0047 0.0175431 0)
(10.0153 0.0374422 0)
(10.0344 0.0502101 0)
(10.0503 0.0550455 0)
(10.0625 0.0583925 0)
(10.0745 0.0601795 0)
(10.086 0.0601893 0)
(10.0966 0.0590717 0)
(10.1064 0.0574187 0)
(10.1157 0.0551673 0)
(10.1244 0.0520859 0)
(10.1322 0.0483932 0)
(10.1392 0.0445019 0)
(10.1456 0.0404883 0)
(10.1516 0.036136 0)
(10.1569 0.0312915 0)
(10.1613 0.0259771 0)
(10.1641 0.0205259 0)
(10.0022 0.0143132 0)
(10.0126 0.0349349 0)
(10.0274 0.044973 0)
(10.0419 0.0500986 0)
(10.0539 0.0535612 0)
(10.0652 0.0553271 0)
(10.0761 0.0555192 0)
(10.0863 0.0545883 0)
(10.0958 0.0530007 0)
(10.1047 0.0508092 0)
(10.113 0.0479294 0)
(10.1205 0.0445142 0)
(10.1273 0.0408188 0)
(10.1336 0.0369122 0)
(10.1392 0.0327158 0)
(10.1442 0.0281808 0)
(10.1484 0.0233837 0)
(10.1512 0.0186533 0)
(10.0012 0.0119289 0)
(10.0103 0.030394 0)
(10.0233 0.0398243 0)
(10.0359 0.0452972 0)
(10.0474 0.0487988 0)
(10.0581 0.0505969 0)
(10.0685 0.050983 0)
(10.0782 0.0502251 0)
(10.0873 0.0487202 0)
(10.0957 0.0466052 0)
(10.1036 0.0438942 0)
(10.1108 0.0407062 0)
(10.1174 0.0372125 0)
(10.1234 0.0334873 0)
(10.1288 0.0295258 0)
(10.1336 0.0253461 0)
(10.1376 0.0210411 0)
(10.1406 0.0169273 0)
(10.0009 0.0100294 0)
(10.0088 0.0263572 0)
(10.0202 0.0355756 0)
(10.0315 0.0409439 0)
(10.0423 0.0442514 0)
(10.0525 0.0460501 0)
(10.0623 0.0464884 0)
(10.0716 0.0458414 0)
(10.0803 0.0444181 0)
(10.0885 0.0423854 0)
(10.096 0.0398196 0)
(10.103 0.0368277 0)
(10.1093 0.0335332 0)
(10.1151 0.0300073 0)
(10.1204 0.026286 0)
(10.125 0.022424 0)
(10.1289 0.0185173 0)
(10.1321 0.0148596 0)
(10.0007 0.00844629 0)
(10.0074 0.0226224 0)
(10.0173 0.0312261 0)
(10.0276 0.0364914 0)
(10.0378 0.0396976 0)
(10.0475 0.0414341 0)
(10.0569 0.0419098 0)
(10.0658 0.0413397 0)
(10.0742 0.0400013 0)
(10.0821 0.038075 0)
(10.0894 0.0356585 0)
(10.0961 0.0328469 0)
(10.1023 0.0297444 0)
(10.108 0.0264221 0)
(10.1131 0.0229436 0)
(10.1176 0.0193749 0)
(10.1216 0.0158041 0)
(10.1249 0.0124991 0)
(10.0006 0.00705627 0)
(10.0061 0.0193566 0)
(10.0147 0.0272901 0)
(10.0242 0.0322625 0)
(10.0338 0.0353158 0)
(10.043 0.0369781 0)
(10.052 0.0374696 0)
(10.0607 0.0369769 0)
(10.0689 0.0357367 0)
(10.0765 0.0339232 0)
(10.0836 0.0316444 0)
(10.0902 0.0289991 0)
(10.0963 0.0260724 0)
(10.1018 0.0229452 0)
(10.1068 0.0196804 0)
(10.1113 0.0163551 0)
(10.1154 0.0130383 0)
(10.1188 0.0099859 0)
(10.0005 0.00582936 0)
(10.005 0.0164234 0)
(10.0124 0.0235526 0)
(10.0211 0.0281307 0)
(10.03 0.03097 0)
(10.0387 0.0325095 0)
(10.0473 0.0329739 0)
(10.0556 0.03253 0)
(10.0635 0.0313766 0)
(10.0709 0.0296721 0)
(10.0778 0.0275309 0)
(10.0843 0.0250416 0)
(10.0902 0.0222884 0)
(10.0956 0.0193473 0)
(10.1006 0.0162854 0)
(10.1051 0.0131743 0)
(10.1091 0.0100752 0)
(10.1127 0.00722836 0)
(10.0004 0.00464856 0)
(10.0041 0.013441 0)
(10.0103 0.0195484 0)
(10.018 0.0235701 0)
(10.0261 0.0260863 0)
(10.0343 0.0274224 0)
(10.0423 0.0277968 0)
(10.0501 0.0273552 0)
(10.0576 0.0262625 0)
(10.0647 0.0246611 0)
(10.0713 0.0226587 0)
(10.0776 0.0203341 0)
(10.0833 0.0177693 0)
(10.0886 0.0150281 0)
(10.0935 0.0121812 0)
(10.0979 0.00928621 0)
(10.102 0.00638875 0)
(10.1056 0.00373016 0)
(10.0003 0.00352082 0)
(10.0033 0.0104349 0)
(10.0085 0.0153203 0)
(10.0152 0.0186088 0)
(10.0225 0.0206678 0)
(10.0299 0.0217094 0)
(10.0373 0.0219256 0)
(10.0446 0.0214392 0)
(10.0516 0.0203783 0)
(10.0582 0.0188648 0)
(10.0645 0.016989 0)
(10.0704 0.014831 0)
(10.0759 0.0124497 0)
(10.081 0.00991226 0)
(10.0857 0.00726945 0)
(10.0901 0.00457997 0)
(10.0941 0.00186104 0)
(10.0978 -0.000637485 0)
(10.0003 0.00243166 0)
(10.0026 0.00741327 0)
(10.007 0.0109207 0)
(10.0128 0.0132942 0)
(10.0192 0.0147458 0)
(10.0259 0.0153872 0)
(10.0327 0.0153667 0)
(10.0393 0.0147773 0)
(10.0458 0.013713 0)
(10.052 0.0122629 0)
(10.0579 0.0105045 0)
(10.0634 0.00849827 0)
(10.0686 0.00629751 0)
(10.0734 0.0039509 0)
(10.0779 0.0015018 0)
(10.0821 -0.00100957 0)
(10.086 -0.00357245 0)
(10.0896 -0.00595507 0)
(10.0002 0.00136181 0)
(10.0022 0.00435361 0)
(10.0059 0.0063465 0)
(10.0109 0.00762971 0)
(10.0166 0.00831866 0)
(10.0226 0.00844319 0)
(10.0287 0.00809858 0)
(10.0348 0.00734022 0)
(10.0407 0.00622785 0)
(10.0465 0.00481626 0)
(10.0519 0.00315783 0)
(10.057 0.00129367 0)
(10.0619 -0.000734751 0)
(10.0664 -0.00289811 0)
(10.0706 -0.00516318 0)
(10.0746 -0.00750722 0)
(10.0783 -0.00992469 0)
(10.0817 -0.0122044 0)
(10.0002 0.000275067 0)
(10.0019 0.0011679 0)
(10.0051 0.00149544 0)
(10.0096 0.00151905 0)
(10.0148 0.00128946 0)
(10.0203 0.000777071 0)
(10.0259 1.67367e-05 0)
(10.0315 -0.000976616 0)
(10.0369 -0.00218344 0)
(10.0422 -0.00358319 0)
(10.0473 -0.00515588 0)
(10.052 -0.0068801 0)
(10.0565 -0.00873777 0)
(10.0606 -0.01071 0)
(10.0646 -0.0127838 0)
(10.0682 -0.0149432 0)
(10.0716 -0.017195 0)
(10.0748 -0.0193471 0)
(10.0002 -0.00090575 0)
(10.0018 -0.00238285 0)
(10.0049 -0.00392504 0)
(10.0092 -0.00531843 0)
(10.0142 -0.00658499 0)
(10.0194 -0.00781347 0)
(10.0248 -0.0090372 0)
(10.0301 -0.0102857 0)
(10.0352 -0.0115893 0)
(10.0402 -0.0129618 0)
(10.0448 -0.014423 0)
(10.0492 -0.0159723 0)
(10.0534 -0.0176187 0)
(10.0572 -0.0193526 0)
(10.0607 -0.0211803 0)
(10.064 -0.0230902 0)
(10.067 -0.0250979 0)
(10.0699 -0.027043 0)
(10.0002 -0.00205242 0)
(10.002 -0.00591097 0)
(10.0056 -0.0092546 0)
(10.0103 -0.011948 0)
(10.0155 -0.0141223 0)
(10.0209 -0.0159495 0)
(10.0264 -0.0175224 0)
(10.0317 -0.0189252 0)
(10.0368 -0.0202258 0)
(10.0417 -0.0214927 0)
(10.0462 -0.0227654 0)
(10.0504 -0.0240826 0)
(10.0543 -0.0254551 0)
(10.0578 -0.0269043 0)
(10.0611 -0.0284254 0)
(10.0641 -0.0300344 0)
(10.0668 -0.0317244 0)
(10.0693 -0.033392 0)
(10.0002 -0.00312645 0)
(10.0025 -0.00922362 0)
(10.0067 -0.0141089 0)
(10.0121 -0.0177953 0)
(10.018 -0.0205982 0)
(10.0238 -0.0227972 0)
(10.0296 -0.0245347 0)
(10.0352 -0.0259353 0)
(10.0404 -0.0271181 0)
(10.0453 -0.0281914 0)
(10.0498 -0.0292247 0)
(10.0539 -0.0302738 0)
(10.0576 -0.0313617 0)
(10.061 -0.032518 0)
(10.0641 -0.0337425 0)
(10.0669 -0.0350523 0)
(10.0694 -0.0364406 0)
(10.0717 -0.0378184 0)
(10.0003 -0.00432098 0)
(10.0033 -0.0128119 0)
(10.0085 -0.0191481 0)
(10.015 -0.023624 0)
(10.0216 -0.0268716 0)
(10.0281 -0.0292886 0)
(10.0344 -0.0310538 0)
(10.0403 -0.0323236 0)
(10.0458 -0.0332864 0)
(10.0507 -0.0340845 0)
(10.0553 -0.034826 0)
(10.0593 -0.0355625 0)
(10.063 -0.0363487 0)
(10.0663 -0.0371936 0)
(10.0692 -0.0381281 0)
(10.0719 -0.0391348 0)
(10.0742 -0.0402361 0)
(10.0764 -0.0413245 0)
(10.0004 -0.00577551 0)
(10.0045 -0.0169069 0)
(10.0112 -0.0245665 0)
(10.0189 -0.0295704 0)
(10.0265 -0.0330826 0)
(10.0336 -0.0355802 0)
(10.0405 -0.0372274 0)
(10.0468 -0.0382436 0)
(10.0525 -0.0388831 0)
(10.0576 -0.0393369 0)
(10.0622 -0.0397314 0)
(10.0663 -0.0401326 0)
(10.0699 -0.0405937 0)
(10.0731 -0.0411423 0)
(10.076 -0.041787 0)
(10.0785 -0.0425285 0)
(10.0808 -0.0433543 0)
(10.0828 -0.0441942 0)
(10.0007 -0.00782955 0)
(10.0066 -0.0211458 0)
(10.0149 -0.0296169 0)
(10.024 -0.0350665 0)
(10.0324 -0.0387736 0)
(10.0401 -0.0413056 0)
(10.0475 -0.042784 0)
(10.0542 -0.0434577 0)
(10.0601 -0.0437478 0)
(10.0653 -0.0438592 0)
(10.0699 -0.0439281 0)
(10.074 -0.0440189 0)
(10.0776 -0.0442028 0)
(10.0809 -0.0445036 0)
(10.0837 -0.0449175 0)
(10.0863 -0.0454532 0)
(10.0886 -0.0460714 0)
(10.0908 -0.0467294 0)
(10.001 -0.0093109 0)
(10.0109 -0.0251573 0)
(10.0197 -0.0351746 0)
(10.0296 -0.0403056 0)
(10.0384 -0.0439132 0)
(10.0468 -0.0463731 0)
(10.0547 -0.0476233 0)
(10.0617 -0.0479746 0)
(10.0678 -0.0479268 0)
(10.0732 -0.0477536 0)
(10.0779 -0.0475768 0)
(10.0822 -0.0474316 0)
(10.086 -0.0474263 0)
(10.0896 -0.0475399 0)
(10.0928 -0.0477797 0)
(10.0957 -0.048145 0)
(10.0983 -0.0486082 0)
(10.1008 -0.0491217 0)
(9.99913 -0.0154248 0)
(10.0154 -0.0332415 0)
(10.0248 -0.0421111 0)
(10.0346 -0.0477327 0)
(10.0444 -0.0513793 0)
(10.0535 -0.053237 0)
(10.062 -0.0536769 0)
(10.0696 -0.0534388 0)
(10.076 -0.0528963 0)
(10.0819 -0.0522914 0)
(10.0874 -0.051809 0)
(10.0925 -0.0514857 0)
(10.0974 -0.0512442 0)
(10.1019 -0.0511967 0)
(10.1062 -0.0512998 0)
(10.1101 -0.051518 0)
(10.1136 -0.051841 0)
(10.1169 -0.0522552 0)
(10.0039 -0.0183726 0)
(10.012 -0.0362777 0)
(10.0319 -0.0438598 0)
(10.0454 -0.050468 0)
(10.0554 -0.0550909 0)
(10.0654 -0.0571318 0)
(10.0749 -0.0572172 0)
(10.0841 -0.0566091 0)
(10.093 -0.0559718 0)
(10.1015 -0.0552853 0)
(10.1099 -0.0545835 0)
(10.1186 -0.0542514 0)
(10.1263 -0.0540854 0)
(10.1334 -0.0538666 0)
(10.1395 -0.0537398 0)
(10.1448 -0.053753 0)
(10.1492 -0.0538898 0)
(10.1528 -0.0542191 0)
(10.0095 -0.023189 0)
(10.029 -0.0447088 0)
(10.0575 -0.0474304 0)
(10.0817 -0.0521795 0)
(10.1062 -0.0573702 0)
(10.1324 -0.0605656 0)
(10.1582 -0.0618313 0)
(10.1817 -0.062063 0)
(10.2031 -0.0620562 0)
(10.2206 -0.0619124 0)
(10.2337 -0.0615135 0)
(10.2419 -0.0608217 0)
(10.2466 -0.0600357 0)
(10.2477 -0.0592737 0)
(10.2462 -0.0585922 0)
(10.2424 -0.0580791 0)
(10.2371 -0.0576943 0)
(10.2308 -0.0576305 0)
(10.0557 -0.0388819 0)
(10.1907 -0.0715611 0)
(10.2931 -0.0770937 0)
(10.3704 -0.0800915 0)
(10.423 -0.0817338 0)
(10.4555 -0.0809779 0)
(10.4678 -0.0781461 0)
(10.4593 -0.0743636 0)
(10.4303 -0.0702567 0)
(10.389 -0.0660732 0)
(10.3409 -0.0621191 0)
(10.2882 -0.0584684 0)
(10.2338 -0.0550973 0)
(10.1795 -0.052195 0)
(10.1253 -0.0496282 0)
(10.0736 -0.0474972 0)
(10.0244 -0.0459621 0)
(9.9782 -0.0451556 0)
(9.8634 -0.0392839 0)
(9.5894 -0.0757482 0)
(9.29273 -0.0865008 0)
(8.99144 -0.0886942 0)
(8.706 -0.0858856 0)
(8.44698 -0.0796397 0)
(8.2186 -0.0709125 0)
(8.02397 -0.060398 0)
(7.86416 -0.049927 0)
(7.73143 -0.0410687 0)
(7.61942 -0.0336215 0)
(7.52562 -0.0272911 0)
(7.44561 -0.0221391 0)
(7.37644 -0.0177626 0)
(7.31703 -0.0143294 0)
(7.26331 -0.0120134 0)
(7.21353 -0.0104349 0)
(7.16822 -0.00959804 0)
(0.043098 0.0111175 -8.92061e-19)
(-0.0214672 0.00589037 6.58828e-19)
(-0.034945 0.0272413 0)
(-0.0918797 0.0434449 0)
(-0.149357 0.0558553 0)
(-0.210745 0.0626008 -1.64412e-19)
(-0.274404 0.0648356 0)
(-0.338183 0.0644595 0)
(-0.401089 0.0631311 0)
(-0.462613 0.0618223 0)
(-0.523488 0.0613457 8.89981e-20)
(-0.584288 0.0621778 0)
(-0.646143 0.0645791 0)
(-0.709719 0.0685996 0)
(-0.776003 0.0741045 0)
(-0.845535 0.0809232 6.39397e-20)
(-0.918831 0.0881961 0)
(-0.995507 0.0936277 0)
(-1.07527 0.0941486 0)
(-1.15658 0.0920844 0)
(-1.23787 0.0900172 0)
(-1.31816 0.0891386 0)
(-1.39676 0.0888801 0)
(-1.4729 0.0870605 4.8766e-20)
(-1.54534 0.0834767 -4.77897e-20)
(-1.61283 0.0789834 4.71195e-20)
(-1.67484 0.0740243 4.67112e-20)
(-1.73065 0.0687136 0)
(-1.77993 0.0632317 0)
(-1.82207 0.0576449 -4.70659e-20)
(-1.85693 0.0515134 -4.76516e-20)
(-1.88402 0.0450473 0)
(-1.90338 0.0383155 0)
(-1.91452 0.0314959 -4.98326e-20)
(-1.91835 0.0244331 0)
(-1.91517 0.0168212 0)
(-1.90474 0.00797052 5.05201e-20)
(-1.88626 -0.00240968 0)
(-1.85888 -0.0143776 4.91928e-20)
(-1.82236 -0.0277692 9.55357e-20)
(-1.77565 -0.0432668 0)
(-1.71697 -0.0603869 0)
(-1.64609 -0.0791012 0)
(-1.56341 -0.100609 0)
(-1.46275 -0.123547 0)
(-1.34915 -0.145519 5.31504e-20)
(-1.2257 -0.171294 4.26204e-20)
(-1.0779 -0.198196 3.17235e-20)
(-0.911051 -0.218494 0)
(-0.778555 -0.244234 -1.18451e-20)
(-0.589822 -0.284014 0)
(-0.314011 -0.301354 -2.03446e-20)
(-0.061249 -0.29878 -2.99311e-20)
(0.19389 -0.289084 0)
(0.445771 -0.276233 0)
(0.689491 -0.261729 0)
(0.92177 -0.246352 -4.37768e-20)
(1.13913 -0.231126 0)
(1.33807 -0.214672 0)
(1.51604 -0.190382 0)
(1.66508 -0.152553 0)
(1.77239 -0.102485 0)
(1.82126 -0.046757 0)
(1.8118 0.00612731 0)
(1.74503 0.0509034 0)
(1.62584 0.0837614 4.46365e-20)
(1.46584 0.103908 0)
(1.28052 0.115415 0)
(1.08156 0.121208 -5.90813e-20)
(0.888428 0.117395 -6.67813e-20)
(0.715845 0.0924675 0)
(0.581488 0.0607261 8.8236e-20)
(0.420852 0.0556439 -8.49018e-20)
(0.296665 0.0721125 0)
(0.0578307 0.0607296 -3.54987e-19)
(0.0196298 0.0283857 0)
(0.0686544 0.0250722 0)
(0.0815827 0.00856835 -6.3903e-20)
(0.142266 -0.0469177 0)
(0.2318 -0.0568152 8.19267e-20)
(0.271078 -0.0124754 0)
(0.293834 -0.0364303 -1.06102e-19)
(0.212872 -0.082179 -1.3724e-19)
(0.423204 -0.0452293 -1.77097e-19)
(0.177533 0.0983415 -3.10326e-19)
(-0.363207 0.323441 2.31841e-19)
(-1.00139 0.431238 0)
(-1.66064 0.454252 0)
(-2.30109 0.430645 0)
(-2.89906 0.388602 6.85822e-20)
(-3.4391 0.340616 4.11329e-20)
(-3.91714 0.293647 -1.69198e-20)
(-4.33444 0.251122 0)
(-4.69712 0.213937 -2.39095e-20)
(-5.00867 0.181089 -4.14164e-20)
(-5.27673 0.152657 -5.73225e-20)
(-5.50535 0.127954 0)
(-5.70012 0.106551 0)
(-5.86405 0.0875377 0)
(-6.00023 0.070586 -1.10392e-19)
(-6.11043 0.0551088 0)
(-6.19659 0.0409754 0)
(-6.26 0.0282722 1.41155e-19)
(-6.30288 0.0168999 0)
(-6.32583 0.00723737 0)
(-6.33445 -0.000853898 1.62639e-19)
(-6.32937 -0.00796726 0)
(-6.31161 -0.0145183 0)
(-6.2818 -0.0207236 -1.75364e-19)
(-6.24034 -0.0268497 -1.77236e-19)
(-6.18807 -0.0322312 0)
(-6.12545 -0.0373672 1.77849e-19)
(-6.0528 -0.0424823 0)
(-5.97054 -0.0475941 -1.74626e-19)
(-5.8793 -0.0524252 0)
(-5.77972 -0.0566206 -1.6702e-19)
(-5.67303 -0.0601818 -1.62034e-19)
(-5.55931 -0.063661 0)
(-5.43922 -0.0664394 0)
(-5.31388 -0.0689182 0)
(-5.18295 -0.0716838 0)
(-5.04779 -0.0734061 0)
(-4.90954 -0.0744587 0)
(-4.76747 -0.0759119 0)
(-4.62359 -0.0764945 -9.36913e-20)
(-4.47763 -0.0763222 8.21359e-20)
(-4.33081 -0.0753149 0)
(-4.18473 -0.0733957 0)
(-4.03864 -0.0713941 0)
(-3.89476 -0.0683935 0)
(-3.75323 -0.0648373 3.70533e-20)
(-3.61501 -0.0607289 0)
(-3.48067 -0.0563306 1.86405e-20)
(-3.35068 -0.0517438 -4.70358e-20)
(-3.22526 -0.0472026 0)
(-3.10464 -0.0428027 0)
(-2.98883 -0.0387429 0)
(-2.87766 -0.0351527 1.58529e-19)
(-2.77083 -0.0320955 1.84269e-19)
(-2.66802 -0.0294882 0)
(-2.56889 -0.0274916 2.31165e-19)
(-2.47264 -0.0262153 2.52065e-19)
(-2.37847 -0.0254678 -2.71278e-19)
(-2.28578 -0.025218 0)
(-2.19343 -0.0253553 0)
(-2.10097 -0.0252316 -3.23171e-19)
(-2.00708 -0.0249201 0)
(-1.91099 -0.0244269 0)
(-1.81125 -0.0240804 0)
(-1.70738 -0.0233367 0)
(-1.59853 -0.0235698 4.37604e-19)
(-1.48403 -0.0251127 4.74882e-19)
(-1.36396 -0.0265889 0)
(-1.23856 -0.028747 5.76238e-19)
(-1.10768 -0.0316281 0)
(-0.972234 -0.0350365 0)
(-0.832454 -0.0394925 8.28964e-19)
(-0.688638 -0.0449917 0)
(-0.542288 -0.0522703 1.12623e-18)
(-0.393063 -0.061373 0)
(-0.242594 -0.0731257 0)
(-0.0798792 -0.0800239 1.66196e-18)
(0.104237 -0.077121 0)
(0.290093 -0.0733539 1.16969e-18)
(0.476941 -0.0696285 0)
(0.662355 -0.0657987 0)
(0.845295 -0.0617586 0)
(1.0236 -0.0583141 -7.99221e-19)
(1.19704 -0.0569565 0)
(1.36343 -0.0556335 7.1435e-19)
(1.52293 -0.0528177 0)
(1.67408 -0.0490789 0)
(1.81643 -0.0450889 0)
(1.94854 -0.040776 0)
(2.07096 -0.036342 0)
(2.18038 -0.0314758 0)
(2.27905 -0.0249989 0)
(2.3511 -0.0177697 -1.1885e-18)
(2.42202 -0.0016736 0)
(2.35835 0.027099 0)
(0.0218085 0.0795327 1.67186e-18)
(-0.103944 0.112967 -7.78343e-19)
(-0.162449 0.16262 0)
(-0.242264 0.187383 2.6004e-19)
(-0.308965 0.198686 0)
(-0.37128 0.201105 9.1638e-20)
(-0.430379 0.198159 -1.64215e-19)
(-0.487615 0.192825 -1.48907e-19)
(-0.543836 0.187301 0)
(-0.599767 0.182834 -1.26755e-19)
(-0.656241 0.180094 -5.89655e-20)
(-0.71354 0.179339 0)
(-0.771874 0.180567 0)
(-0.831166 0.183561 0)
(-0.891316 0.187766 0)
(-0.951828 0.192457 -4.46839e-20)
(-1.01212 0.196843 0)
(-1.07137 0.200261 8.22668e-20)
(-1.12935 0.201983 0)
(-1.1856 0.201219 0)
(-1.23977 0.197652 -7.33556e-20)
(-1.29134 0.19126 0)
(-1.33965 0.182512 6.81898e-20)
(-1.38445 0.171894 -3.31346e-20)
(-1.42582 0.159585 3.23829e-20)
(-1.46395 0.14603 -3.17957e-20)
(-1.49895 0.131538 -3.13572e-20)
(-1.53081 0.116517 0)
(-1.55963 0.101145 0)
(-1.58544 0.0857137 3.08381e-20)
(-1.60824 0.0701884 -2.97212e-20)
(-1.62796 0.054704 0)
(-1.64405 0.0390306 0)
(-1.65618 0.023272 3.11001e-20)
(-1.66244 0.00702639 0)
(-1.66121 -0.0100895 0)
(-1.65131 -0.0286548 -3.00665e-20)
(-1.63162 -0.048927 0)
(-1.60094 -0.0713172 2.77444e-20)
(-1.55824 -0.0957942 -5.3414e-20)
(-1.50252 -0.122737 0)
(-1.43278 -0.152109 0)
(-1.34807 -0.183762 -8.45302e-20)
(-1.24808 -0.217688 -7.44745e-20)
(-1.13231 -0.253956 -6.33513e-20)
(-1.00022 -0.290953 2.917e-20)
(-0.852062 -0.328447 -1.5623e-20)
(-0.690941 -0.366312 -3.48666e-20)
(-0.50993 -0.404996 1.24155e-20)
(-0.310994 -0.444916 -3.80678e-21)
(-0.115499 -0.48028 0)
(0.0708958 -0.502253 1.23894e-20)
(0.25486 -0.508575 -1.11089e-20)
(0.442957 -0.503296 0)
(0.634285 -0.488894 0)
(0.825283 -0.466498 0)
(1.01178 -0.436882 2.60379e-20)
(1.1896 -0.40055 0)
(1.35483 -0.357704 -5.30803e-20)
(1.50439 -0.307241 0)
(1.63988 -0.246548 -5.73493e-20)
(1.76573 -0.174127 0)
(1.88832 -0.0894381 6.1148e-20)
(1.99357 0.00437804 0)
(2.06982 0.100333 -5.97729e-20)
(2.10268 0.190596 2.86165e-20)
(2.07963 0.26624 0)
(1.99268 0.318825 6.67881e-20)
(1.84941 0.343366 3.87641e-20)
(1.66882 0.340479 4.39844e-20)
(1.46613 0.318893 0)
(1.24897 0.295663 5.69866e-20)
(1.02344 0.269208 7.39776e-20)
(0.865241 0.225241 0)
(0.741234 0.162884 -1.02862e-19)
(0.619551 0.0798136 1.96467e-19)
(0.579387 0.00151869 0)
(0.672862 -0.0834962 5.88641e-20)
(0.806107 -0.122147 0)
(0.811262 -0.145241 -2.21701e-19)
(0.755806 -0.259512 0)
(0.664875 -0.023727 3.15098e-19)
(0.0216648 0.50521 6.67975e-20)
(-0.853091 0.838629 -7.48577e-20)
(-1.82755 0.980663 -1.22061e-19)
(-2.67505 1.03278 1.03564e-19)
(-3.3279 1.01685 0)
(-3.8398 0.952258 0)
(-4.2468 0.859111 0)
(-4.57227 0.755696 -1.44479e-19)
(-4.83568 0.654668 -3.60035e-20)
(-5.05254 0.562068 1.982e-20)
(-5.23392 0.480193 0)
(-5.38726 0.409451 -1.65444e-20)
(-5.51902 0.348496 2.56419e-20)
(-5.63255 0.295913 3.89906e-20)
(-5.73042 0.250105 0)
(-5.81411 0.209833 0)
(-5.88495 0.173838 0)
(-5.94411 0.141256 8.50347e-20)
(-5.9925 0.111594 0)
(-6.03138 0.0844962 -2.07861e-19)
(-6.06152 0.0597722 -3.35574e-19)
(-6.08309 0.036958 2.37281e-19)
(-6.09616 0.0166047 0)
(-6.09703 -0.00164686 1.29511e-19)
(-6.08528 -0.0184396 0)
(-6.0614 -0.0340529 2.73548e-19)
(-6.02545 -0.0483166 -1.40736e-19)
(-5.97869 -0.0616645 -1.42208e-19)
(-5.92173 -0.0745098 0)
(-5.8543 -0.0868234 -4.22667e-19)
(-5.7773 -0.0974668 2.81741e-19)
(-5.69159 -0.10715 1.37369e-19)
(-5.59771 -0.116447 0)
(-5.49659 -0.124482 1.31045e-19)
(-5.38757 -0.131651 3.84576e-19)
(-5.2719 -0.138672 0)
(-5.15065 -0.144977 2.36676e-19)
(-5.02399 -0.149633 2.25856e-19)
(-4.89219 -0.15389 2.11824e-19)
(-4.75743 -0.157925 0)
(-4.61929 -0.160335 0)
(-4.47777 -0.162031 0)
(-4.33487 -0.163213 -7.7611e-20)
(-4.19016 -0.163567 -6.46071e-20)
(-4.04499 -0.163513 0)
(-3.90006 -0.16184 -9.59083e-20)
(-3.75487 -0.159383 -7.5717e-20)
(-3.61169 -0.156359 0)
(-3.47048 -0.152378 -3.04005e-20)
(-3.33211 -0.147607 -2.41017e-20)
(-3.19721 -0.142271 -1.29325e-20)
(-3.06636 -0.136434 -3.00489e-20)
(-2.93998 -0.130391 0)
(-2.81845 -0.124179 0)
(-2.70192 -0.118006 0)
(-2.59015 -0.112165 -1.21815e-19)
(-2.48325 -0.106696 1.40954e-19)
(-2.38076 -0.101571 3.20452e-19)
(-2.28185 -0.0971198 -1.77226e-19)
(-2.18607 -0.0933876 1.93286e-19)
(-2.09247 -0.0905339 2.05992e-19)
(-2.00006 -0.0884798 0)
(-1.90766 -0.0875145 0)
(-1.81424 -0.0878945 -2.38199e-19)
(-1.71837 -0.0895146 0)
(-1.61856 -0.0922765 0)
(-1.514 -0.0959271 5.35593e-19)
(-1.40366 -0.100267 0)
(-1.28661 -0.10495 2.95438e-19)
(-1.16308 -0.109822 -3.13865e-19)
(-1.03278 -0.114648 0)
(-0.895513 -0.11926 3.58642e-19)
(-0.75164 -0.123506 0)
(-0.601222 -0.127621 0)
(-0.444354 -0.131759 -4.61993e-19)
(-0.281031 -0.136233 1.01374e-18)
(-0.109626 -0.140289 -5.27997e-19)
(0.0731426 -0.143696 0)
(0.264873 -0.149279 0)
(0.457614 -0.154836 4.50461e-19)
(0.648468 -0.157192 0)
(0.837917 -0.156604 4.1783e-19)
(1.02728 -0.15419 0)
(1.21564 -0.150572 0)
(1.4016 -0.146033 0)
(1.58403 -0.140383 3.81886e-19)
(1.76177 -0.133816 0)
(1.93365 -0.126984 -3.68718e-19)
(2.09882 -0.119879 0)
(2.25643 -0.11226 0)
(2.40592 -0.104287 7.18703e-19)
(2.54648 -0.0959028 -7.17388e-19)
(2.67766 -0.087072 0)
(2.79737 -0.0773275 0)
(2.90582 -0.0658659 0)
(2.99557 -0.050774 2.21287e-18)
(3.07361 -0.0249473 0)
(3.10946 0.0243912 -1.55115e-18)
(-0.00195286 0.193191 2.77426e-21)
(-0.0931807 0.281363 7.28124e-19)
(-0.157041 0.308436 0)
(-0.210198 0.316181 -3.6573e-19)
(-0.253999 0.313491 0)
(-0.292573 0.306168 0)
(-0.328523 0.297646 -1.36295e-21)
(-0.363946 0.290239 1.02327e-19)
(-0.400261 0.284871 9.60775e-20)
(-0.438103 0.282001 8.98625e-20)
(-0.478214 0.281627 0)
(-0.520768 0.283349 0)
(-0.565653 0.286634 -7.90406e-20)
(-0.612428 0.290873 -1.51261e-19)
(-0.660555 0.295344 1.44321e-19)
(-0.709403 0.299241 0)
(-0.758486 0.301725 1.30469e-19)
(-0.807393 0.30205 -6.19254e-20)
(-0.856018 0.299687 0)
(-0.9044 0.294298 1.11824e-19)
(-0.952361 0.285912 5.32819e-20)
(-0.999959 0.274948 -1.01808e-19)
(-1.04707 0.261735 -4.89551e-20)
(-1.09347 0.246461 0)
(-1.13911 0.229558 9.07861e-20)
(-1.18387 0.211458 8.81984e-20)
(-1.22758 0.192455 0)
(-1.26992 0.172776 8.4558e-20)
(-1.31047 0.152492 0)
(-1.3487 0.131582 8.27017e-20)
(-1.38394 0.109818 4.17662e-20)
(-1.41543 0.0869119 0)
(-1.44224 0.062431 0)
(-1.46348 0.0360277 0)
(-1.47809 0.00737514 0)
(-1.48505 -0.023834 0)
(-1.48342 -0.0578397 0)
(-1.47221 -0.0947762 7.74123e-20)
(-1.45046 -0.134771 -1.12452e-19)
(-1.41727 -0.177791 0)
(-1.37184 -0.223805 0)
(-1.31351 -0.272628 0)
(-1.24171 -0.323918 -3.66448e-21)
(-1.15605 -0.377128 4.77035e-20)
(-1.05641 -0.431482 8.51842e-20)
(-0.942796 -0.485855 -6.95418e-20)
(-0.815161 -0.538541 -2.95106e-20)
(-0.674953 -0.586299 1.57548e-20)
(-0.522979 -0.630137 5.56714e-21)
(-0.359154 -0.669555 5.06958e-21)
(-0.187999 -0.702895 0)
(-0.0140153 -0.726489 -9.16156e-21)
(0.162832 -0.737857 3.55278e-21)
(0.342527 -0.737046 0)
(0.523889 -0.724554 0)
(0.704838 -0.700694 2.96324e-20)
(0.882928 -0.665746 0)
(1.05499 -0.619539 0)
(1.21777 -0.56205 -3.65319e-20)
(1.36795 -0.494794 -7.8835e-20)
(1.50349 -0.418553 4.11629e-20)
(1.62472 -0.332789 0)
(1.73309 -0.235596 -4.41164e-20)
(1.83146 -0.123119 0)
(1.92081 0.00282604 -4.64455e-20)
(1.99763 0.138133 -4.85501e-20)
(2.05414 0.274495 9.75021e-20)
(2.0752 0.395799 4.63933e-20)
(2.04828 0.483703 0)
(1.96941 0.530339 -1.11675e-19)
(1.84331 0.540068 0)
(1.68668 0.51709 -2.1595e-19)
(1.53404 0.459373 -1.59411e-19)
(1.39546 0.375461 -1.82732e-19)
(1.26387 0.274062 2.0721e-19)
(1.17708 0.143973 -3.1452e-19)
(1.20717 -0.00906902 0)
(1.28786 -0.168506 0)
(1.28587 -0.320778 2.53882e-19)
(1.08553 -0.278967 4.75025e-19)
(0.386591 0.564401 0)
(-0.618635 1.23856 -7.31889e-20)
(-1.62454 1.51744 0)
(-2.41869 1.59748 2.30627e-19)
(-3.01787 1.59679 -8.54138e-21)
(-3.45584 1.53474 -3.62169e-21)
(-3.77089 1.4187 -1.22807e-19)
(-4.0085 1.27397 0)
(-4.2031 1.12106 8.44283e-20)
(-4.37519 0.973659 1.24913e-20)
(-4.53546 0.839646 0)
(-4.68788 0.721817 0)
(-4.83302 0.620151 0)
(-4.97076 0.53215 2.24627e-20)
(-5.09822 0.456109 0)
(-5.21587 0.389777 0)
(-5.32145 0.331337 0)
(-5.41585 0.279282 0)
(-5.49799 0.232138 0)
(-5.56832 0.189095 1.38382e-19)
(-5.6264 0.149412 0)
(-5.67263 0.112563 1.66511e-19)
(-5.70646 0.0780994 1.79293e-19)
(-5.72828 0.0458612 -1.90171e-19)
(-5.73749 0.0156097 0)
(-5.73458 -0.0129067 -2.06425e-19)
(-5.71898 -0.0396994 0)
(-5.69153 -0.0646993 -2.17762e-19)
(-5.65254 -0.0881037 2.21634e-19)
(-5.60313 -0.109939 6.76442e-19)
(-5.54309 -0.130054 0)
(-5.47314 -0.149113 6.77336e-19)
(-5.39401 -0.167169 2.27478e-19)
(-5.3064 -0.183456 0)
(-5.21099 -0.198565 4.33556e-19)
(-5.10776 -0.211877 4.24829e-19)
(-4.99723 -0.223292 -6.15347e-19)
(-4.88103 -0.233653 0)
(-4.7595 -0.242769 -1.86243e-19)
(-4.63296 -0.250323 -1.76895e-19)
(-4.50274 -0.256317 -5.04131e-19)
(-4.36901 -0.261188 0)
(-4.23201 -0.264911 0)
(-4.09318 -0.2673 0)
(-3.9526 -0.268489 -1.23541e-19)
(-3.81119 -0.26821 0)
(-3.66923 -0.26672 0)
(-3.52712 -0.264098 7.40381e-20)
(-3.38622 -0.259942 5.85144e-20)
(-3.24665 -0.254556 0)
(-3.10902 -0.247944 0)
(-2.97391 -0.240242 1.87314e-20)
(-2.84193 -0.231649 0)
(-2.71368 -0.22235 5.08453e-20)
(-2.58973 -0.212626 8.24823e-20)
(-2.47051 -0.202671 0)
(-2.35635 -0.192643 0)
(-2.24723 -0.182953 -1.90015e-19)
(-2.14342 -0.173867 -8.07279e-22)
(-2.04441 -0.16541 -1.29071e-22)
(-1.94919 -0.158081 0)
(-1.85732 -0.152113 -6.14195e-19)
(-1.76767 -0.147681 0)
(-1.67885 -0.144838 0)
(-1.58952 -0.143693 0)
(-1.49794 -0.144712 3.7719e-19)
(-1.40285 -0.147573 0)
(-1.30248 -0.152269 -8.06798e-19)
(-1.19633 -0.158298 -4.1926e-19)
(-1.08343 -0.165147 0)
(-0.96314 -0.172341 -4.58994e-19)
(-0.835139 -0.179737 0)
(-0.699325 -0.187006 0)
(-0.555549 -0.193982 -1.63435e-18)
(-0.403878 -0.200416 1.16678e-18)
(-0.244365 -0.20653 0)
(-0.0766443 -0.212333 1.29161e-18)
(0.10032 -0.218073 -6.3099e-19)
(0.284411 -0.224578 0)
(0.474076 -0.2311 0)
(0.667727 -0.236955 0)
(0.861911 -0.241828 -1.69311e-18)
(1.05463 -0.244337 0)
(1.24578 -0.243759 -5.47387e-19)
(1.43583 -0.240866 0)
(1.6238 -0.236194 0)
(1.80856 -0.229974 0)
(1.98912 -0.222366 0)
(2.1644 -0.213615 0)
(2.33373 -0.203877 0)
(2.49669 -0.19332 -1.02853e-18)
(2.65259 -0.181926 0)
(2.80112 -0.169893 -5.15774e-19)
(2.94134 -0.15716 1.55206e-18)
(3.0727 -0.143533 0)
(3.19346 -0.128355 0)
(3.30354 -0.110542 -1.06483e-18)
(3.39738 -0.0871845 -1.09313e-18)
(3.48391 -0.0532914 1.12165e-18)
(3.52941 0.00274889 1.18473e-18)
(-0.0166147 0.304107 -1.87589e-18)
(-0.0716493 0.411428 -8.47543e-19)
(-0.11691 0.409063 -3.51606e-19)
(-0.145514 0.395886 -1.26272e-19)
(-0.170495 0.380217 0)
(-0.192852 0.365691 1.65357e-19)
(-0.214482 0.354337 -7.3504e-20)
(-0.236591 0.347178 0)
(-0.260102 0.344356 -6.13253e-20)
(-0.28567 0.345537 0)
(-0.313821 0.349995 1.12963e-19)
(-0.344889 0.356795 0)
(-0.379027 0.364878 5.35072e-20)
(-0.416163 0.373184 1.04513e-19)
(-0.456072 0.380716 -1.01735e-19)
(-0.498388 0.386607 0)
(-0.542743 0.390164 -9.49576e-20)
(-0.588763 0.390915 0)
(-0.636183 0.388597 0)
(-0.6848 0.383094 -8.33232e-20)
(-0.734442 0.374524 0)
(-0.784916 0.363152 4.39828e-22)
(-0.836087 0.34921 0)
(-0.887717 0.333036 0)
(-0.939605 0.314939 -3.64145e-22)
(-0.99148 0.295165 -6.72965e-20)
(-1.04303 0.273854 -6.57992e-20)
(-1.09383 0.251054 -6.53498e-20)
(-1.14338 0.22669 0)
(-1.19108 0.200585 -1.29252e-19)
(-1.23624 0.172434 0)
(-1.27814 0.141872 -6.48959e-20)
(-1.31598 0.108491 0)
(-1.3489 0.0719066 0)
(-1.37607 0.0318167 6.58176e-20)
(-1.39649 -0.0120387 0)
(-1.40934 -0.0598381 -6.51503e-20)
(-1.41371 -0.11166 1.19412e-21)
(-1.4087 -0.167481 1.24576e-19)
(-1.39349 -0.227144 -1.22797e-19)
(-1.36733 -0.290391 0)
(-1.32961 -0.356821 0)
(-1.27985 -0.425904 -5.64313e-20)
(-1.21775 -0.496859 0)
(-1.14333 -0.568632 -3.67593e-20)
(-1.0563 -0.640169 3.04249e-20)
(-0.957842 -0.70877 2.40154e-20)
(-0.848393 -0.772968 0)
(-0.724018 -0.833699 -1.15287e-20)
(-0.587343 -0.887305 -4.70433e-21)
(-0.437196 -0.931986 4.36381e-21)
(-0.273284 -0.964577 9.1287e-21)
(-0.100406 -0.982152 1.51938e-20)
(0.0793152 -0.984334 0)
(0.263374 -0.971311 0)
(0.448731 -0.943177 -2.83952e-20)
(0.632115 -0.900013 0)
(0.809811 -0.841969 0)
(0.980253 -0.77068 6.98422e-20)
(1.14197 -0.686557 7.21541e-20)
(1.29112 -0.590482 0)
(1.4249 -0.484206 0)
(1.54203 -0.36854 0)
(1.64409 -0.243275 0)
(1.73268 -0.106445 7.63117e-20)
(1.81061 0.0408842 -7.92097e-20)
(1.87949 0.196897 -8.18085e-20)
(1.93681 0.354015 -1.69438e-19)
(1.97191 0.4949 0)
(1.97128 0.600781 9.93181e-21)
(1.9297 0.658718 0)