/*--------------------------------*- C++ -*----------------------------------*\
  =========                 |
  \\      /  F ield         | OpenFOAM: The Open Source CFD Toolbox
   \\    /   O peration     | Website:  https://openfoam.org
    \\  /    A nd           | Version:  13
     \\/     M anipulation  |
\*---------------------------------------------------------------------------*/
FoamFile
{
    format      ascii;
    class       volScalarField;
    location    "1500";
    object      k;
}
// * * * * * * * * * * * * * * * * * * * * * * * * * * * * * * * * * * * * * //

dimensions      [0 2 -2 0 0 0 0];

internalField   nonuniform List<scalar> 
12225
(
0.717662
1.35291
1.56965
1.71516
1.63616
1.57061
1.5019
1.95331
2.80327
2.74059
2.07893
1.69075
2.16003
2.62871
2.9185
2.43827
2.55264
2.01234
0.372833
0.403867
0.355596
0.415227
0.409408
0.402423
0.416283
0.403467
0.483222
0.514051
0.491343
0.494578
0.532008
0.569156
0.606764
0.614311
0.642944
0.652238
0.379411
0.323004
0.215934
0.149661
0.117475
0.099375
0.0965411
0.0951912
0.0955867
0.0964737
0.0920831
0.0893815
0.0936457
0.0974136
0.102115
0.0977907
0.103912
0.108381
0.375088
0.349286
0.281143
0.21262
0.173617
0.147086
0.124434
0.102567
0.0866164
0.074022
0.0642283
0.0562664
0.0506662
0.0464352
0.0430579
0.0400429
0.0374169
0.0343067
0.372322
0.364391
0.335069
0.29892
0.266618
0.237018
0.206764
0.179016
0.149856
0.130423
0.112238
0.100969
0.091126
0.084403
0.0812676
0.0770905
0.075334
0.0727283
0.372796
0.370347
0.359367
0.343481
0.32376
0.300151
0.272544
0.249322
0.221402
0.201714
0.181972
0.170568
0.158497
0.152085
0.14602
0.141301
0.13967
0.139257
0.373711
0.371008
0.366728
0.357332
0.345038
0.329984
0.311977
0.297278
0.277074
0.263322
0.248464
0.239799
0.229836
0.224945
0.218369
0.21567
0.211289
0.211142
0.373791
0.371559
0.368556
0.363018
0.354923
0.346547
0.335932
0.328264
0.317475
0.31
0.300472
0.294864
0.287988
0.284089
0.278415
0.275893
0.271564
0.271991
0.373778
0.371668
0.369195
0.365613
0.36055
0.355542
0.349525
0.344629
0.339337
0.334832
0.330152
0.326709
0.32337
0.32053
0.318184
0.315616
0.314067
0.311511
0.373789
0.371637
0.369419
0.366814
0.36352
0.360181
0.356575
0.353271
0.350082
0.34715
0.344481
0.341998
0.339882
0.337688
0.335986
0.333814
0.33235
0.330133
0.373815
0.371577
0.369452
0.367264
0.364863
0.362388
0.359874
0.357434
0.355148
0.352977
0.351034
0.349146
0.347489
0.345746
0.344251
0.342506
0.341111
0.339338
0.373827
0.371558
0.369431
0.367364
0.365299
0.363214
0.361159
0.359144
0.357247
0.355428
0.353766
0.352152
0.350682
0.34918
0.347824
0.346347
0.345071
0.3436
0.37383
0.371555
0.369415
0.367375
0.365421
0.363514
0.361672
0.359883
0.358185
0.356557
0.355038
0.353571
0.352204
0.350847
0.349585
0.348289
0.347109
0.345857
0.373829
0.371555
0.369406
0.367367
0.365434
0.363586
0.361824
0.360134
0.358528
0.356991
0.35554
0.354148
0.352834
0.351559
0.350354
0.349168
0.348053
0.346943
0.373827
0.371554
0.3694
0.367359
0.365423
0.363585
0.361838
0.360175
0.358593
0.357086
0.355654
0.354287
0.352988
0.351744
0.350558
0.349419
0.348333
0.347287
0.373826
0.371552
0.369396
0.367351
0.365413
0.363572
0.361824
0.360162
0.358582
0.357077
0.355646
0.354281
0.352982
0.351741
0.350559
0.349429
0.348351
0.34732
0.373825
0.37155
0.369392
0.367346
0.365404
0.363561
0.36181
0.360145
0.358562
0.357055
0.35562
0.354254
0.352951
0.351709
0.350524
0.349393
0.348314
0.347284
0.373825
0.371549
0.36939
0.367343
0.365399
0.363554
0.361801
0.360134
0.358548
0.357039
0.355602
0.354233
0.352927
0.351683
0.350496
0.349364
0.348283
0.347251
0.373825
0.371549
0.36939
0.367342
0.365398
0.363552
0.361798
0.36013
0.358543
0.357033
0.355594
0.354224
0.352917
0.351672
0.350484
0.34935
0.348268
0.347236
0.373825
0.37155
0.369392
0.367345
0.365402
0.363557
0.361803
0.360136
0.35855
0.35704
0.355602
0.354232
0.352926
0.351681
0.350493
0.34936
0.348278
0.347246
0.373826
0.371552
0.369395
0.36735
0.365409
0.363566
0.361815
0.36015
0.358565
0.357057
0.355621
0.354252
0.352948
0.351704
0.350518
0.349385
0.348305
0.347273
0.373826
0.371555
0.369401
0.367359
0.365421
0.363582
0.361833
0.360172
0.35859
0.357085
0.35565
0.354283
0.352979
0.351737
0.350551
0.349421
0.348341
0.347311
0.373827
0.371562
0.369407
0.367373
0.365439
0.363609
0.361864
0.360208
0.358622
0.357115
0.355672
0.354301
0.352989
0.351743
0.350551
0.349418
0.348332
0.347297
0.37383
0.371566
0.369409
0.367399
0.365476
0.363672
0.361922
0.36026
0.358638
0.357099
0.355606
0.354198
0.352841
0.351565
0.350338
0.34918
0.348059
0.346996
0.373813
0.371514
0.369364
0.367461
0.36559
0.363858
0.362054
0.360344
0.358568
0.356911
0.355245
0.35372
0.352218
0.350853
0.349513
0.348284
0.347054
0.345906
0.373507
0.371098
0.369128
0.367687
0.366023
0.364453
0.362485
0.360625
0.358442
0.356488
0.354384
0.352575
0.350715
0.349135
0.347505
0.346099
0.344586
0.34325
0.371769
0.369509
0.368823
0.368858
0.36781
0.366627
0.364451
0.362282
0.359214
0.356579
0.353517
0.351062
0.348437
0.346379
0.344166
0.342434
0.340417
0.338808
0.366409
0.367862
0.37273
0.377249
0.376971
0.377407
0.376594
0.374154
0.370012
0.366311
0.362202
0.359054
0.356249
0.35423
0.352823
0.351868
0.35141
0.350656
0.377834
0.394186
0.427674
0.456526
0.480056
0.49597
0.50903
0.518928
0.528551
0.536797
0.546799
0.556516
0.569116
0.580979
0.596116
0.609954
0.624162
0.636739
0.834077
1.1827
1.41148
1.53627
1.59414
1.59397
1.57825
1.5526
1.51475
1.4763
1.43928
1.40486
1.37354
1.3455
1.32037
1.29839
1.27885
1.26163
1.57493e-08
3.87212e-07
1.98718e-06
7.89549e-06
2.65218e-05
8.08408e-05
0.000214589
0.000433946
0.000712003
0.00100869
0.00127741
0.00148661
0.00162814
0.00168132
0.00166096
0.00159508
0.00146391
0.00125355
0.00105924
0.000897392
0.000745931
0.000600526
0.000460938
0.000331965
0.00021738
0.000128571
6.93867e-05
3.5653e-05
1.84592e-05
1.01482e-05
6.16784e-06
4.49278e-06
5.24867e-06
1.02041e-05
3.11842e-05
7.97398e-05
0.000282207
0.000636328
0.00103132
0.00123399
0.00116787
0.000969813
0.000769182
0.000656365
0.000670606
0.000824832
0.00103452
0.00185429
0.00352316
0.00891321
0.0272609
0.060524
0.0948732
0.119903
0.135733
0.147807
0.14775
0.135556
0.155
0.139093
0.150631
0.165337
0.181286
0.147098
0.17355
0.176536
0.186094
0.194358
0.201987
0.210105
0.217634
0.225346
0.232793
0.240249
0.247581
0.254863
0.262074
0.269222
0.276309
0.283334
0.290295
0.297196
0.304023
0.31079
0.317467
0.324081
0.330592
0.33703
0.343351
0.349576
0.355672
0.36164
0.367462
0.37313
0.378626
0.383945
0.38907
0.39401
0.398763
0.403372
0.407874
0.412294
0.416532
0.420647
0.424613
0.428438
0.43212
0.435646
0.439028
0.442247
0.445321
0.448224
0.450983
0.453568
0.456008
0.458272
0.460392
0.462335
0.46413
0.465748
0.467216
0.468518
0.469672
0.470662
0.471498
0.472164
0.47266
0.472966
0.47306
0.472964
0.47291
0.472733
0.472452
0.472045
0.471488
0.470706
0.469889
0.468889
0.467669
0.466388
0.464876
0.463226
0.461468
0.459581
0.457578
0.455458
0.453226
0.450886
0.448441
0.445903
0.443295
0.440539
0.437771
0.434831
0.431915
0.428818
0.425783
0.422565
0.419453
0.416169
0.412959
0.409685
0.406416
0.403136
0.399853
0.39657
0.393288
0.390017
0.386758
0.383521
0.380307
0.377117
0.373942
0.370769
0.367548
0.364199
0.3606
0.356427
0.351035
0.335217
7.06048e-08
1.96924e-06
1.32697e-05
5.84918e-05
0.000216996
0.00067116
0.00157435
0.00290408
0.0044671
0.00608571
0.0075771
0.0088087
0.00972684
0.0103023
0.0106015
0.0105708
0.010407
0.0100677
0.00950161
0.00871427
0.00771618
0.00656263
0.00530099
0.00402811
0.00280022
0.00185766
0.00118235
0.000734121
0.000447216
0.000274312
0.000176889
0.000125761
0.000113647
0.000154138
0.000398646
0.00088112
0.00292016
0.00620986
0.00950404
0.0117027
0.0120162
0.0116213
0.0105959
0.0107975
0.0127664
0.0173084
0.0240838
0.0365737
0.0577494
0.0828494
0.107582
0.130012
0.147208
0.160929
0.174414
0.189875
0.20379
0.219036
0.236548
0.252615
0.271428
0.289884
0.307593
0.324862
0.344934
0.362822
0.38109
0.399088
0.416775
0.434378
0.451775
0.469082
0.486274
0.503393
0.520449
0.537452
0.554419
0.571347
0.588246
0.605111
0.621945
0.638741
0.655494
0.672198
0.68884
0.705417
0.721911
0.73832
0.754618
0.770797
0.78683
0.802698
0.818377
0.833842
0.849069
0.864024
0.87868
0.893
0.906954
0.920512
0.933656
0.94646
0.959017
0.971309
0.983328
0.99507
1.00652
1.01767
1.0285
1.03902
1.0492
1.05905
1.06855
1.07771
1.08651
1.09494
1.10302
1.11073
1.11806
1.12501
1.13159
1.13779
1.14362
1.14907
1.15415
1.15883
1.16312
1.16702
1.17052
1.17363
1.17635
1.17868
1.18061
1.18207
1.18322
1.18371
1.18461
1.1847
1.1849
1.18507
1.18455
1.18364
1.18239
1.18079
1.17883
1.17652
1.17386
1.17087
1.16754
1.16389
1.15992
1.15565
1.15105
1.14617
1.14098
1.13554
1.12981
1.12388
1.11769
1.11134
1.10478
1.09807
1.09121
1.08421
1.07708
1.06982
1.06244
1.05496
1.04739
1.03973
1.032
1.02422
1.01636
1.0084
1.00028
0.991881
0.982995
0.973275
0.960757
0.933687
1.90733e-07
5.7334e-06
4.38352e-05
0.000209963
0.000621562
0.00179785
0.00372899
0.0060092
0.00832713
0.01045
0.0122399
0.01363
0.0146146
0.0152143
0.0154985
0.0154741
0.0153174
0.0149768
0.0144646
0.01382
0.0130428
0.0121233
0.0110458
0.00981765
0.00844397
0.00688687
0.00527676
0.00383407
0.00257481
0.00170713
0.00116971
0.00085467
0.000691092
0.000578854
0.00201735
0.00468589
0.0121935
0.0204574
0.0268918
0.0309706
0.0327467
0.0333947
0.0367546
0.0469164
0.0636004
0.0809271
0.0994434
0.120321
0.140807
0.160447
0.180607
0.200357
0.221085
0.243802
0.268899
0.295073
0.321577
0.348905
0.376245
0.40369
0.431116
0.458015
0.484289
0.510198
0.535647
0.560428
0.584796
0.608786
0.632431
0.655818
0.678975
0.701954
0.724783
0.747492
0.770101
0.792625
0.815074
0.837455
0.859771
0.88202
0.904201
0.926309
0.948336
0.970274
0.992112
1.01384
1.03544
1.05691
1.07823
1.09938
1.12034
1.1411
1.16164
1.18193
1.20197
1.22172
1.24119
1.26036
1.27922
1.29776
1.31598
1.33386
1.35139
1.36856
1.38535
1.40175
1.41773
1.43329
1.44841
1.46308
1.47729
1.49103
1.50429
1.51707
1.52935
1.54113
1.5524
1.56316
1.57341
1.58313
1.59234
1.60104
1.60922
1.61689
1.62404
1.63066
1.63675
1.64231
1.64734
1.65184
1.65581
1.65925
1.66216
1.66454
1.66641
1.66764
1.66856
1.66884
1.66872
1.66822
1.66713
1.66553
1.66343
1.66083
1.65772
1.65413
1.65004
1.64548
1.64044
1.63494
1.62898
1.62261
1.61577
1.60854
1.60087
1.59284
1.5844
1.57567
1.56656
1.55721
1.54757
1.53769
1.5276
1.5173
1.50681
1.49614
1.48531
1.47433
1.46322
1.45199
1.44068
1.4293
1.41785
1.40633
1.3947
1.38287
1.37067
1.35785
1.34243
1.31682
6.8679e-07
2.06286e-05
0.000161803
0.00070555
0.00199966
0.00483033
0.00826868
0.011669
0.0146607
0.0170557
0.0188069
0.0199491
0.0205716
0.0207403
0.020637
0.0203345
0.0198146
0.0191757
0.0184501
0.0176546
0.0167929
0.0158596
0.0148435
0.0137222
0.0124786
0.0110931
0.00958199
0.00800561
0.00652475
0.0050413
0.00396633
0.00288027
0.00279925
0.00387888
0.00924484
0.0219155
0.0360219
0.047304
0.0556054
0.0623386
0.0700796
0.0809339
0.094852
0.109974
0.125048
0.140908
0.158836
0.179218
0.200283
0.223791
0.248778
0.275707
0.30456
0.335161
0.366902
0.399088
0.431433
0.463837
0.495986
0.527868
0.559352
0.590245
0.620604
0.650456
0.679766
0.708615
0.737067
0.76519
0.793028
0.820639
0.848059
0.875328
0.902472
0.929514
0.95647
0.983352
1.01017
1.03691
1.0636
1.09021
1.11675
1.14321
1.16958
1.19586
1.22202
1.24805
1.27396
1.29971
1.32529
1.3507
1.3759
1.40089
1.42564
1.45014
1.47438
1.49832
1.52196
1.54528
1.56827
1.5909
1.61314
1.63499
1.6564
1.67737
1.69787
1.71789
1.7374
1.75638
1.77482
1.79271
1.81003
1.82676
1.8429
1.85845
1.87338
1.8877
1.90139
1.91445
1.92688
1.93867
1.94982
1.96034
1.97023
1.97948
1.98808
1.99605
2.00336
2.01003
2.01605
2.02141
2.02613
2.0302
2.03361
2.03638
2.03851
2.0399
2.04062
2.04074
2.04024
2.03917
2.03746
2.03512
2.03216
2.02857
2.02437
2.01956
2.01416
2.00816
2.00159
1.99445
1.98675
1.97852
1.96975
1.96049
1.95071
1.94047
1.92975
1.91864
1.9071
1.89523
1.88301
1.8705
1.85771
1.84467
1.8314
1.81791
1.80422
1.79036
1.77634
1.76219
1.74795
1.73364
1.7193
1.70492
1.69051
1.67603
1.66137
1.64636
1.62931
1.60519
2.35117e-06
7.06355e-05
0.000531583
0.00202916
0.00567824
0.0108099
0.0156884
0.0196612
0.0225398
0.0243887
0.025387
0.0257362
0.0256393
0.0252755
0.0246302
0.0238509
0.0229935
0.0220971
0.0211857
0.0202695
0.0193454
0.0184051
0.0174343
0.0164091
0.0153067
0.014092
0.012753
0.0113279
0.00991622
0.00857319
0.00699412
0.0069279
0.00941482
0.0187501
0.0375539
0.0563301
0.0722782
0.0846748
0.094745
0.104382
0.114805
0.126168
0.138542
0.151999
0.168108
0.187277
0.209007
0.2335
0.260072
0.288878
0.319249
0.351191
0.384307
0.418272
0.452696
0.487318
0.522006
0.55666
0.591144
0.625412
0.65939
0.692981
0.726206
0.759066
0.791565
0.823752
0.855662
0.887342
0.918827
0.950158
0.981363
1.01247
1.0435
1.07447
1.10538
1.13625
1.16707
1.19784
1.22856
1.25921
1.2898
1.32032
1.35074
1.38106
1.41127
1.44135
1.47128
1.50106
1.53066
1.56007
1.58927
1.61824
1.64697
1.67542
1.70358
1.73143
1.75894
1.7861
1.81286
1.83921
1.86512
1.89056
1.9155
1.93993
1.96381
1.98713
2.00985
2.03196
2.05343
2.07425
2.0944
2.11387
2.13264
2.15071
2.16805
2.18467
2.20056
2.2157
2.2301
2.24374
2.25663
2.26877
2.28016
2.2908
2.30068
2.3098
2.31817
2.32576
2.33259
2.33866
2.34396
2.34849
2.35226
2.35526
2.3575
2.35886
2.3594
2.35924
2.35838
2.35679
2.35445
2.35138
2.34758
2.34305
2.3378
2.33185
2.32519
2.31785
2.30983
2.30116
2.29183
2.28189
2.27133
2.26018
2.24845
2.23617
2.22336
2.21006
2.19629
2.18211
2.16754
2.15261
2.13736
2.12181
2.106
2.08993
2.07364
2.05714
2.04047
2.02367
2.00677
1.98981
1.97285
1.9559
1.939
1.92215
1.9053
1.88833
1.86985
1.8461
7.40577e-06
0.00021791
0.00156476
0.00558898
0.0130153
0.0197454
0.0246587
0.0277653
0.0294465
0.030133
0.0301206
0.0297786
0.0290445
0.0281052
0.0270578
0.0259657
0.0248742
0.0238124
0.022795
0.0218245
0.0208923
0.0199844
0.0190793
0.0181467
0.017168
0.0160969
0.0148945
0.0135308
0.0122033
0.011643
0.0126949
0.0184801
0.0327753
0.0549097
0.0773779
0.0961717
0.110263
0.120409
0.128663
0.136891
0.146146
0.157355
0.171665
0.189105
0.209794
0.233723
0.260275
0.289063
0.319498
0.35134
0.384259
0.418107
0.452644
0.487703
0.523125
0.558808
0.594678
0.630668
0.666699
0.70271
0.738636
0.774427
0.810066
0.845542
0.880853
0.916015
0.951049
0.985978
1.02083
1.05562
1.09037
1.12511
1.15983
1.19455
1.22927
1.26398
1.29868
1.33336
1.36801
1.40261
1.43717
1.47165
1.50604
1.54034
1.57452
1.60856
1.64247
1.6762
1.70976
1.74311
1.77625
1.80914
1.84177
1.8741
1.90612
1.93779
1.96909
1.99997
2.03043
2.06041
2.08989
2.11885
2.14725
2.17505
2.20224
2.22878
2.25465
2.27981
2.30424
2.32793
2.35085
2.37298
2.39431
2.41482
2.43451
2.45336
2.47137
2.48852
2.5048
2.52022
2.53478
2.54846
2.56128
2.57323
2.58431
2.59451
2.60384
2.61229
2.61986
2.62655
2.63236
2.63728
2.64133
2.6445
2.64679
2.64806
2.64845
2.64799
2.64672
2.6446
2.64163
2.63782
2.63318
2.62772
2.62144
2.61435
2.60647
2.59781
2.58839
2.57821
2.56731
2.5557
2.5434
2.53043
2.51681
2.50256
2.48772
2.47232
2.45639
2.43999
2.42315
2.4059
2.38828
2.37032
2.35207
2.33353
2.31473
2.29571
2.2765
2.25715
2.2377
2.21821
2.19874
2.17933
2.16004
2.14091
2.12191
2.10298
2.08294
2.05869
2.34665e-05
0.00065013
0.00427456
0.0134272
0.0226645
0.0287521
0.0321978
0.0338917
0.0344502
0.034289
0.0336548
0.0326017
0.0313414
0.0299782
0.028593
0.0272442
0.02597
0.02479
0.023709
0.0227192
0.0218044
0.0209397
0.0200889
0.0191874
0.0181768
0.017047
0.0158684
0.0151268
0.0157968
0.0200496
0.0307959
0.0500915
0.0735569
0.0958959
0.114782
0.128478
0.137672
0.144606
0.151457
0.160024
0.171828
0.187049
0.205778
0.227946
0.253141
0.280834
0.310347
0.341239
0.373175
0.405992
0.439557
0.473794
0.508619
0.543974
0.579803
0.616062
0.652704
0.689671
0.726898
0.764333
0.80192
0.839613
0.87738
0.915197
0.953052
0.990942
1.02887
1.06685
1.10488
1.14298
1.18115
1.21941
1.25774
1.29615
1.33463
1.37316
1.41173
1.45032
1.48891
1.52748
1.56601
1.60448
1.64288
1.68118
1.71936
1.75741
1.7953
1.83303
1.87056
1.90789
1.94498
1.98182
2.01837
2.0546
2.09049
2.126
2.16109
2.19574
2.2299
2.26354
2.29662
2.32912
2.36099
2.3922
2.42271
2.4525
2.48152
2.50975
2.53716
2.56372
2.5894
2.6142
2.63808
2.66103
2.68305
2.70412
2.72422
2.74335
2.76149
2.77866
2.79483
2.81003
2.82423
2.83745
2.84968
2.86092
2.87117
2.88042
2.88868
2.89594
2.90221
2.90749
2.91177
2.91506
2.91735
2.9185
2.9187
2.91793
2.91621
2.91354
2.90992
2.90536
2.89987
2.89346
2.88613
2.8779
2.8688
2.85882
2.84798
2.83632
2.82384
2.81057
2.79653
2.78175
2.76625
2.75005
2.7332
2.71572
2.69766
2.67908
2.65999
2.64046
2.62051
2.60018
2.57952
2.55854
2.53728
2.51578
2.49407
2.47221
2.45026
2.42827
2.40633
2.38448
2.36282
2.34139
2.3202
2.29922
2.2774
2.25203
7.0519e-05
0.00179831
0.0102072
0.0232408
0.0315046
0.0359517
0.0380862
0.0387835
0.0385743
0.0377446
0.0364133
0.0348164
0.0330908
0.0313464
0.0296657
0.0281039
0.0266912
0.0254356
0.0243296
0.023356
0.0224966
0.021747
0.0210836
0.0205461
0.0202837
0.0205793
0.0220133
0.0255073
0.0328442
0.0473147
0.0675007
0.0890435
0.109616
0.12683
0.139494
0.148008
0.154346
0.161171
0.170405
0.182944
0.199113
0.218829
0.241773
0.267475
0.295314
0.3247
0.355177
0.386508
0.418571
0.451321
0.484733
0.518801
0.55352
0.588887
0.62489
0.661505
0.698693
0.736415
0.774623
0.813267
0.852298
0.891669
0.931344
0.971292
1.01149
1.05193
1.09259
1.13347
1.17458
1.2159
1.25743
1.29917
1.3411
1.38321
1.42547
1.46786
1.51036
1.55292
1.59552
1.63813
1.68073
1.72328
1.76576
1.80814
1.85041
1.89254
1.93451
1.9763
2.01789
2.05925
2.10036
2.1412
2.18173
2.22193
2.26174
2.30114
2.34009
2.37855
2.41647
2.45382
2.49056
2.52664
2.56204
2.59669
2.63057
2.66364
2.69585
2.72718
2.75758
2.78703
2.8155
2.84296
2.86939
2.89478
2.91911
2.94237
2.96455
2.98562
3.0056
3.02447
3.04224
3.0589
3.07444
3.08888
3.10222
3.11444
3.12555
3.13555
3.14444
3.15223
3.1589
3.16447
3.16892
3.17228
3.17451
3.17551
3.17548
3.17434
3.17215
3.1689
3.16459
3.15925
3.15287
3.14547
3.13707
3.12768
3.11732
3.106
3.09374
3.08056
3.06649
3.05156
3.03578
3.01918
3.00179
2.98364
2.96477
2.94522
2.92504
2.90427
2.88297
2.86116
2.83889
2.81621
2.79316
2.76976
2.74606
2.72208
2.69789
2.67354
2.6491
2.62463
2.60021
2.57593
2.55187
2.5281
2.50466
2.48151
2.45771
2.43073
0.000185328
0.00431164
0.0192688
0.0321479
0.0389049
0.042148
0.0433685
0.0432984
0.0424153
0.0408696
0.0389528
0.0368405
0.0346802
0.0325903
0.0306573
0.0289358
0.0274519
0.0262068
0.0251822
0.0243504
0.0236655
0.0231645
0.0228529
0.0230608
0.0243317
0.0275757
0.0342878
0.0459039
0.0621969
0.0807727
0.0998261
0.117589
0.132611
0.144137
0.152671
0.159788
0.167614
0.177802
0.191252
0.208182
0.228412
0.251538
0.277049
0.304395
0.333055
0.362648
0.39296
0.423918
0.455515
0.487776
0.520732
0.554422
0.58888
0.624124
0.660158
0.696976
0.73456
0.772883
0.811908
0.851594
0.891898
0.932778
0.974197
1.01612
1.05852
1.10138
1.14467
1.18838
1.2325
1.27701
1.3219
1.36714
1.4127
1.45857
1.50469
1.55103
1.59754
1.64419
1.69092
1.73769
1.78446
1.83121
1.87788
1.92447
1.97094
2.01726
2.0634
2.10935
2.15507
2.20055
2.24577
2.29068
2.33526
2.37947
2.42328
2.46663
2.50948
2.5518
2.59353
2.63463
2.67506
2.71477
2.75371
2.79184
2.8291
2.86546
2.90087
2.93529
2.96868
3.001
3.03223
3.06232
3.09128
3.11906
3.14566
3.17106
3.19526
3.21823
3.23997
3.26048
3.27977
3.29782
3.31463
3.33022
3.34458
3.3577
3.3696
3.38027
3.38971
3.39793
3.40493
3.4107
3.41526
3.4186
3.4207
3.4215
3.42114
3.41959
3.41686
3.41296
3.40791
3.40173
3.39441
3.38599
3.37647
3.36588
3.35422
3.34153
3.32782
3.31311
3.29743
3.2808
3.26326
3.24484
3.22555
3.20544
3.18455
3.16293
3.14062
3.11769
3.09417
3.0701
3.04553
3.02052
2.99509
2.96928
2.94314
2.91671
2.89005
2.86322
2.8363
2.80935
2.78247
2.75574
2.72926
2.70311
2.67733
2.65193
2.626
2.59714
0.000417951
0.00884677
0.028588
0.0401326
0.0456222
0.0479863
0.0484984
0.0478024
0.0462367
0.044103
0.0416388
0.0390466
0.0364978
0.0341279
0.0320332
0.030274
0.0288831
0.0278672
0.0272022
0.02696
0.027142
0.0280225
0.0297924
0.0330044
0.038585
0.0476266
0.0597982
0.0744217
0.0904812
0.106641
0.121667
0.134649
0.145353
0.154223
0.162433
0.171528
0.182849
0.197138
0.214554
0.23487
0.257687
0.28254
0.308963
0.336538
0.364944
0.393996
0.423632
0.453868
0.484753
0.516351
0.548728
0.581945
0.616049
0.651072
0.68704
0.723961
0.761834
0.800645
0.84037
0.88098
0.922441
0.964719
1.00778
1.05159
1.09612
1.14134
1.18722
1.23375
1.28089
1.32861
1.3769
1.4257
1.47498
1.5247
1.57479
1.6252
1.67586
1.72672
1.77771
1.82877
1.87986
1.93093
1.98194
2.03285
2.08363
2.13424
2.18467
2.23487
2.28482
2.33449
2.38387
2.43292
2.48161
2.52989
2.57772
2.62505
2.67184
2.71803
2.76358
2.80844
2.85256
2.89589
2.93836
2.97993
3.02054
3.06015
3.0987
3.13616
3.17247
3.2076
3.24151
3.27417
3.30555
3.33563
3.3644
3.39185
3.41795
3.44269
3.46609
3.48813
3.50881
3.52813
3.54609
3.5627
3.57796
3.59187
3.60443
3.61565
3.62552
3.63406
3.64126
3.64713
3.65167
3.6549
3.65676
3.65729
3.65651
3.65443
3.65107
3.64645
3.64059
3.63349
3.62517
3.61565
3.60496
3.5931
3.58011
3.566
3.55079
3.53452
3.5172
3.49886
3.47954
3.45926
3.43806
3.41598
3.39306
3.36937
3.34495
3.31985
3.29413
3.26783
3.24098
3.21364
3.18586
3.15767
3.12911
3.10024
3.07113
3.04184
3.01246
2.98305
2.95371
2.92453
2.8956
2.86703
2.83886
2.81113
2.78298
2.75232
0.000807061
0.0154959
0.0368743
0.047416
0.0521762
0.0539322
0.0538752
0.0525898
0.050465
0.0478083
0.0448843
0.0419248
0.039127
0.0366465
0.0345929
0.0330387
0.0320323
0.0316249
0.0316944
0.0325188
0.0343873
0.037712
0.0429179
0.0503454
0.0599525
0.071227
0.083923
0.0973954
0.110837
0.123488
0.134901
0.145024
0.154269
0.163523
0.173872
0.18625
0.201187
0.218781
0.23883
0.260984
0.284854
0.310071
0.336309
0.363316
0.390934
0.419101
0.447834
0.477194
0.507262
0.538126
0.569868
0.602554
0.636249
0.671002
0.706852
0.743822
0.781928
0.821169
0.86154
0.903024
0.9456
0.989242
1.03392
1.07961
1.12628
1.17388
1.22241
1.2718
1.32204
1.37308
1.42486
1.47735
1.53048
1.58417
1.63836
1.69297
1.74792
1.80313
1.85851
1.914
1.96954
2.02505
2.08051
2.13585
2.19105
2.24607
2.30087
2.3554
2.40965
2.46358
2.51717
2.57039
2.6232
2.67555
2.72741
2.77871
2.8294
2.87943
2.92875
2.9773
3.02504
3.07189
3.1178
3.16271
3.20656
3.2493
3.29087
3.33122
3.37031
3.4081
3.44453
3.47959
3.51323
3.54544
3.5762
3.6055
3.63331
3.65965
3.6845
3.70788
3.72976
3.75017
3.7691
3.78655
3.80253
3.81705
3.8301
3.84168
3.85181
3.8605
3.86774
3.87355
3.87793
3.88088
3.8824
3.8825
3.88118
3.87846
3.87436
3.8689
3.86212
3.85401
3.8446
3.83392
3.82197
3.80878
3.79439
3.7788
3.76206
3.74418
3.72519
3.70512
3.684
3.66185
3.63873
3.61467
3.58974
3.56398
3.53747
3.51024
3.48235
3.45384
3.42476
3.39514
3.36504
3.33449
3.30356
3.27229
3.24077
3.20907
3.17726
3.14542
3.11365
3.08203
3.05066
3.01965
2.98906
2.95895
2.92853
2.89591
0.00131809
0.0226273
0.0445363
0.054538
0.0588457
0.0601636
0.0596888
0.0579528
0.0553909
0.0523628
0.0491772
0.0460999
0.0433538
0.0411291
0.0395591
0.0388271
0.0387512
0.039534
0.0412907
0.0442159
0.0484779
0.0542279
0.0615303
0.070286
0.0802407
0.0910183
0.102223
0.113421
0.124262
0.13456
0.144364
0.154036
0.164213
0.175606
0.188799
0.20412
0.221614
0.241114
0.262345
0.285004
0.308813
0.333531
0.358971
0.385007
0.411586
0.438715
0.466454
0.494887
0.524114
0.55423
0.585325
0.617483
0.650777
0.685272
0.721019
0.758059
0.796422
0.836126
0.877181
0.91959
0.963346
1.00843
1.05483
1.1025
1.15143
1.20156
1.25287
1.30529
1.35878
1.4133
1.46876
1.5251
1.58224
1.64008
1.69852
1.75748
1.81684
1.87652
1.93642
1.99646
2.05654
2.1166
2.17658
2.23643
2.29612
2.3556
2.41481
2.47372
2.53228
2.59047
2.64826
2.70561
2.7625
2.81887
2.87467
2.92984
2.98433
3.03807
3.09102
3.14311
3.1943
3.2445
3.29366
3.3417
3.38857
3.4342
3.47855
3.52155
3.56316
3.60333
3.64202
3.6792
3.71483
3.74889
3.78135
3.81221
3.84146
3.86909
3.89512
3.91954
3.94236
3.96358
3.98321
4.00124
4.01768
4.03255
4.04584
4.05756
4.06771
4.07631
4.08338
4.08891
4.09293
4.09544
4.09643
4.09593
4.09391
4.09037
4.08538
4.07897
4.07114
4.06191
4.05131
4.03935
4.02606
4.01147
3.9956
3.97848
3.96015
3.94063
3.91994
3.89812
3.87518
3.85116
3.82612
3.8001
3.77317
3.7454
3.71683
3.68752
3.65751
3.62686
3.5956
3.56377
3.53141
3.49858
3.46533
3.43174
3.39789
3.36384
3.32968
3.29547
3.26132
3.22731
3.19354
3.16011
3.12712
3.09463
3.06192
3.02729
0.00193654
0.0293079
0.0519405
0.0618392
0.0658692
0.0668905
0.0660787
0.063993
0.0611381
0.0579573
0.0548143
0.0519975
0.0497255
0.0482583
0.0476963
0.0478516
0.0490506
0.0512772
0.0545637
0.0589653
0.064506
0.0711618
0.0788216
0.087296
0.0963656
0.105796
0.115389
0.125014
0.134634
0.144355
0.154468
0.165388
0.177537
0.191239
0.206664
0.223809
0.242546
0.262672
0.283971
0.306242
0.329319
0.353071
0.377415
0.402311
0.427768
0.453836
0.480596
0.508143
0.536584
0.566022
0.596557
0.628282
0.661284
0.695641
0.731422
0.768678
0.807454
0.847789
0.889712
0.933241
0.978384
1.02514
1.07349
1.12341
1.17487
1.22783
1.28222
1.33799
1.39506
1.45335
1.51277
1.57323
1.63461
1.69677
1.75961
1.823
1.88685
1.95104
2.01549
2.08007
2.14471
2.20931
2.27381
2.33817
2.40231
2.46621
2.52979
2.59301
2.65582
2.71818
2.78007
2.84145
2.90227
2.96249
3.02206
3.0809
3.13896
3.19617
3.25248
3.30784
3.36217
3.4154
3.46748
3.51831
3.56783
3.61599
3.66272
3.70798
3.75171
3.79387
3.83441
3.87329
3.91049
3.94598
3.97975
4.01177
4.04202
4.07055
4.09736
4.12244
4.14581
4.16746
4.18741
4.20565
4.22221
4.23709
4.2503
4.26183
4.2717
4.27992
4.28653
4.29152
4.29493
4.29675
4.29699
4.29569
4.29272
4.28819
4.28214
4.2746
4.26558
4.25509
4.24317
4.22983
4.2151
4.19901
4.1816
4.16289
4.14291
4.12171
4.0993
4.07572
4.05098
4.02509
3.99815
3.97021
3.94135
3.91161
3.88106
3.84973
3.8177
3.78499
3.75165
3.71771
3.68319
3.64817
3.61272
3.57692
3.54084
3.50455
3.46815
3.43168
3.39525
3.35894
3.32284
3.28707
3.25172
3.21691
3.18194
3.14536
0.00275347
0.0349175
0.0590001
0.0691504
0.0731167
0.0739686
0.0728857
0.0705387
0.0675152
0.0643766
0.0615859
0.059413
0.0580314
0.0575053
0.0576944
0.0589573
0.0612013
0.0643825
0.0684895
0.0734903
0.0793255
0.0859121
0.093141
0.100908
0.109118
0.117697
0.126616
0.135914
0.145714
0.156211
0.16764
0.180221
0.194108
0.20936
0.22595
0.243777
0.262702
0.282579
0.303276
0.324685
0.346726
0.369353
0.392553
0.416344
0.440773
0.465914
0.491862
0.518721
0.546596
0.575589
0.605807
0.637355
0.670332
0.70483
0.74093
0.778709
0.818234
0.859564
0.90275
0.947829
0.994823
1.04374
1.09457
1.14728
1.20184
1.25819
1.31624
1.37589
1.43705
1.49958
1.56336
1.62824
1.69406
1.76067
1.82792
1.89568
1.96389
2.03245
2.10126
2.17022
2.23923
2.3082
2.37705
2.44573
2.51414
2.58225
2.64999
2.71731
2.78414
2.85044
2.91617
2.98129
3.04576
3.10951
3.17249
3.23463
3.29588
3.35615
3.41539
3.47355
3.53055
3.58632
3.64079
3.69389
3.74552
3.79565
3.84421
3.89115
3.93643
3.97999
4.0218
4.06182
4.10001
4.13637
4.17087
4.2035
4.23426
4.26318
4.29026
4.31551
4.33892
4.36051
4.38029
4.39827
4.41447
4.4289
4.44157
4.4525
4.46169
4.46917
4.47496
4.47909
4.48156
4.4824
4.48165
4.47922
4.47507
4.46933
4.46202
4.45316
4.44278
4.43088
4.4175
4.40266
4.38638
4.36871
4.34967
4.3293
4.30764
4.28473
4.26059
4.23527
4.20874
4.18103
4.15225
4.12247
4.09175
4.06014
4.02769
3.99447
3.96051
3.92587
3.89058
3.85468
3.81814
3.78108
3.74357
3.70571
3.66757
3.62921
3.59071
3.55214
3.51358
3.47509
3.43679
3.3988
3.36121
3.32418
3.28704
3.24865
0.0035926
0.040942
0.0661544
0.0765416
0.0804578
0.0811641
0.0797406
0.0770289
0.0739457
0.0711549
0.0690198
0.067754
0.067276
0.0673453
0.0684288
0.0704393
0.0733006
0.0769533
0.0813521
0.086452
0.0922038
0.0985643
0.105499
0.112982
0.121002
0.129581
0.13878
0.148688
0.159421
0.171093
0.183792
0.197572
0.212435
0.228338
0.245207
0.26295
0.281475
0.300706
0.320585
0.341074
0.362163
0.383858
0.406188
0.429206
0.452988
0.47762
0.503178
0.529769
0.557502
0.586498
0.616872
0.648743
0.682227
0.717436
0.754475
0.793443
0.83443
0.877516
0.922774
0.970256
1.02
1.072
1.12625
1.18269
1.24128
1.3019
1.36446
1.42878
1.4947
1.56201
1.63051
1.69999
1.7703
1.84124
1.91262
1.98434
2.05641
2.1288
2.20142
2.27422
2.34711
2.41995
2.49268
2.56522
2.63745
2.70935
2.78081
2.85177
2.92215
2.9919
3.06097
3.1293
3.19686
3.26358
3.3294
3.39427
3.45809
3.5208
3.58234
3.64264
3.70165
3.75929
3.81547
3.87012
3.92316
3.97453
4.02419
4.07208
4.11816
4.16239
4.20473
4.24514
4.2836
4.32009
4.3546
4.38715
4.41777
4.44643
4.47313
4.49789
4.5207
4.5416
4.56058
4.57768
4.59293
4.60633
4.61791
4.6277
4.63573
4.64199
4.64653
4.64936
4.65052
4.65004
4.64793
4.64397
4.63836
4.63113
4.62231
4.6119
4.59994
4.58644
4.57142
4.55493
4.53697
4.5176
4.49684
4.47473
4.45131
4.42663
4.40073
4.37364
4.34536
4.31592
4.28542
4.25391
4.22146
4.1881
4.15391
4.11892
4.0832
4.04678
4.00972
3.97203
3.93367
3.89477
3.85543
3.81572
3.77572
3.73549
3.69511
3.65463
3.61414
3.57367
3.53336
3.49333
3.45369
3.4146
3.37544
3.33546
0.00449749
0.0468687
0.0732349
0.0838916
0.0877664
0.0882937
0.0864753
0.0835922
0.0807518
0.0785394
0.0772318
0.0767231
0.0767058
0.077468
0.0791384
0.0816157
0.0848322
0.0887377
0.0933005
0.0985038
0.104337
0.110798
0.117897
0.125659
0.13412
0.143328
0.153336
0.164195
0.175947
0.188601
0.20216
0.216605
0.23189
0.247955
0.264744
0.282206
0.300311
0.319035
0.338382
0.358361
0.378995
0.400326
0.422424
0.445387
0.469319
0.494228
0.520188
0.547341
0.575806
0.605717
0.637209
0.670417
0.705481
0.742538
0.781717
0.823142
0.866923
0.913149
0.961887
1.0132
1.06712
1.12362
1.18262
1.24403
1.30773
1.37361
1.44149
1.51117
1.5824
1.65487
1.72823
1.80213
1.87651
1.95127
2.02625
2.10142
2.17691
2.2526
2.32844
2.40439
2.48028
2.55605
2.63175
2.70738
2.78271
2.8576
2.93196
3.00569
3.07871
3.15098
3.22244
3.29304
3.36274
3.43149
3.49922
3.56583
3.63126
3.69543
3.75827
3.81973
3.87974
3.93823
3.99512
4.05031
4.10372
4.15531
4.20503
4.25285
4.29872
4.3426
4.38446
4.42427
4.462
4.49764
4.53121
4.56272
4.59219
4.61962
4.64502
4.6684
4.68978
4.70918
4.72662
4.74214
4.75576
4.7675
4.77739
4.78545
4.79171
4.79619
4.79892
4.79996
4.79938
4.79718
4.7931
4.78734
4.77993
4.7709
4.76028
4.74807
4.7343
4.719
4.70219
4.68389
4.66414
4.64297
4.62041
4.59651
4.57131
4.54485
4.51718
4.48833
4.45836
4.42732
4.39522
4.36212
4.32807
4.29312
4.25731
4.22072
4.18338
4.14535
4.10667
4.06738
4.02743
3.98694
3.946