/*--------------------------------*- C++ -*----------------------------------*\
  =========                 |
  \\      /  F ield         | OpenFOAM: The Open Source CFD Toolbox
   \\    /   O peration     | Website:  https://openfoam.org
    \\  /    A nd           | Version:  13
     \\/     M anipulation  |
\*---------------------------------------------------------------------------*/
FoamFile
{
    format      ascii;
    class       volScalarField;
    location    "1500";
    object      nut;
}
// * * * * * * * * * * * * * * * * * * * * * * * * * * * * * * * * * * * * * //

dimensions      [0 2 -1 0 0 0 0];

internalField   nonuniform List<scalar> 
12225
(
7.137e-06
1.36767e-05
1.6174e-05
1.80543e-05
1.76065e-05
1.72622e-05
1.68465e-05
2.23168e-05
3.25705e-05
3.23483e-05
2.4914e-05
2.05261e-05
2.65024e-05
3.25657e-05
3.64755e-05
3.07119e-05
3.23542e-05
2.57041e-05
0.000111694
4.97806e-05
3.38118e-05
3.20976e-05
2.95426e-05
2.22272e-05
2.07221e-05
2.20455e-05
2.7093e-05
2.9412e-05
2.65971e-05
2.63427e-05
2.8079e-05
2.96528e-05
3.04738e-05
3.13994e-05
3.26562e-05
3.25196e-05
0.00100904
0.000109815
6.36072e-05
3.61926e-05
1.48294e-05
1.21929e-05
1.04617e-05
9.84751e-06
9.96381e-06
1.03411e-05
1.00045e-05
9.93456e-06
1.05532e-05
1.09607e-05
1.14528e-05
1.09573e-05
1.1722e-05
1.21841e-05
0.00269073
0.000148032
0.000118295
5.00967e-05
3.60444e-05
3.03554e-05
2.51915e-05
1.68033e-05
1.36961e-05
1.29817e-05
1.29005e-05
1.18846e-05
1.10419e-05
1.0324e-05
9.81249e-06
9.22783e-06
8.58391e-06
7.91693e-06
0.000474038
0.000237745
0.000203074
0.000156318
0.000128676
8.65916e-05
6.8571e-05
5.09736e-05
4.24503e-05
3.76803e-05
3.29785e-05
3.03265e-05
2.77516e-05
2.61835e-05
2.49951e-05
2.37956e-05
2.33932e-05
2.12698e-05
0.000656184
0.000440824
0.000395855
0.000324396
0.000241132
0.000182487
0.000142867
0.000124936
0.000110989
9.83224e-05
8.41427e-05
7.83e-05
7.16252e-05
6.8849e-05
5.85465e-05
5.67273e-05
5.32744e-05
5.09903e-05
0.00079224
0.000696283
0.000635113
0.00057411
0.000462899
0.000387807
0.000313782
0.000267739
0.000208598
0.00018475
0.000173695
0.000161566
0.000150938
0.000146229
0.00012559
0.000121967
0.000114292
0.000109835
0.000858201
0.000797225
0.000762485
0.000730853
0.000648636
0.000558619
0.000492855
0.000444048
0.000384286
0.000361059
0.000320537
0.000299217
0.000286309
0.000260776
0.000230974
0.000223989
0.000217756
0.000213582
0.000853288
0.000838739
0.000822162
0.000805105
0.00075882
0.000694832
0.000633909
0.000574185
0.000509186
0.00045727
0.000434547
0.000427862
0.000405466
0.000390127
0.000372431
0.00036403
0.000361947
0.000355028
0.000852818
0.00084859
0.000844524
0.000834699
0.000814919
0.00078587
0.000751548
0.000711311
0.000669539
0.00062625
0.000591952
0.000568648
0.000546989
0.000536543
0.000526334
0.000517433
0.000514146
0.000508049
0.000851914
0.000850297
0.000851023
0.000846825
0.000840409
0.000829602
0.000813658
0.000795215
0.000772599
0.000750676
0.000728752
0.000711055
0.000693827
0.000683358
0.000671726
0.000663703
0.000656349
0.000648175
0.000851583
0.00085068
0.000850252
0.00084903
0.000848508
0.000844307
0.000837757
0.000829684
0.000819498
0.000809357
0.000798356
0.000788593
0.000778707
0.00077138
0.000764293
0.00075768
0.000752259
0.000745364
0.000851567
0.000850647
0.000849912
0.000849104
0.000848711
0.000847632
0.000845171
0.000843563
0.000840333
0.000836832
0.000832585
0.000827753
0.0008232
0.000819535
0.000816017
0.0008125
0.000809159
0.000806009
0.000851558
0.000850656
0.00084987
0.000849056
0.000848422
0.000847785
0.000846906
0.000845954
0.000844749
0.000843386
0.000842016
0.000840491
0.000839139
0.000837722
0.000836649
0.000835324
0.000834478
0.000833137
0.000851546
0.000850669
0.000849865
0.000849068
0.00084835
0.000847656
0.000846999
0.000846323
0.000845657
0.00084495
0.000844283
0.000843584
0.000842961
0.000842309
0.000841758
0.00084116
0.000840665
0.0008401
0.000851539
0.000850673
0.000849856
0.000849073
0.000848335
0.000847629
0.000846963
0.000846321
0.000845711
0.000845116
0.000844553
0.000844003
0.000843486
0.000842981
0.000842508
0.000842047
0.000841612
0.000841186
0.000851537
0.000850673
0.000849852
0.00084907
0.000848328
0.00084762
0.000846948
0.000846305
0.000845693
0.000845108
0.000844549
0.000844014
0.000843503
0.000843013
0.000842546
0.000842097
0.000841669
0.000841257
0.000851539
0.000850677
0.000849857
0.000849077
0.000848335
0.000847628
0.000846954
0.000846311
0.000845697
0.000845111
0.000844551
0.000844016
0.000843503
0.000843014
0.000842544
0.000842096
0.000841666
0.000841255
0.000851537
0.000850673
0.000849851
0.000849069
0.000848324
0.000847615
0.000846939
0.000846294
0.000845678
0.00084509
0.000844528
0.000843991
0.000843477
0.000842985
0.000842515
0.000842064
0.000841633
0.000841221
0.000851536
0.000850674
0.00084985
0.000849069
0.000848324
0.000847616
0.000846939
0.000846295
0.000845679
0.000845092
0.000844529
0.000843993
0.000843478
0.000842987
0.000842515
0.000842066
0.000841634
0.000841221
0.000851534
0.000850679
0.000849851
0.000849077
0.000848328
0.000847627
0.000846948
0.000846309
0.000845691
0.000845106
0.00084454
0.000844005
0.000843484
0.000842994
0.000842515
0.000842065
0.000841625
0.000841211
0.000851535
0.000850691
0.000849844
0.000849095
0.000848332
0.000847651
0.000846958
0.000846323
0.000845674
0.000845072
0.000844456
0.000843887
0.000843298
0.000842771
0.000842208
0.000841726
0.000841191
0.000840737
0.000851649
0.000850636
0.000849802
0.000849107
0.000848341
0.000847661
0.000846873
0.000846052
0.000845122
0.000844173
0.000843148
0.000842153
0.000841058
0.000840065
0.000838959
0.000838043
0.000836929
0.000836053
0.000852562
0.000849459
0.000849352
0.000848742
0.000847996
0.000846808
0.000844958
0.000842374
0.000839357
0.000836283
0.000833063
0.000829482
0.000825684
0.000822146
0.000818611
0.000815434
0.000812121
0.000809493
0.000854301
0.000835075
0.00084219
0.000840525
0.000840471
0.000835597
0.000826825
0.000816385
0.000804126
0.000792624
0.000780571
0.000770106
0.000759075
0.000750261
0.000740909
0.000734024
0.000725735
0.000719932
0.00080435
0.000730709
0.000752156
0.000787021
0.00078229
0.000763474
0.000733077
0.000704801
0.000674479
0.000649649
0.000624998
0.000605635
0.000586467
0.000571941
0.000556844
0.000545968
0.000533237
0.00052461
0.000523653
0.00039995
0.000467033
0.000547927
0.000551197
0.000521112
0.000477223
0.000441003
0.000406065
0.00038039
0.000356075
0.00033855
0.000321536
0.000309364
0.000296965
0.000288236
0.000278434
0.000271855
0.000115997
0.000160572
0.000217265
0.000236397
0.000219992
0.000198293
0.000177391
0.000161488
0.000147727
0.000138012
0.000129311
0.000123342
0.000117675
0.000113821
0.000109976
0.000107332
0.000104505
0.000102503
2.24717e-05
3.63066e-05
5.38902e-05
5.83483e-05
5.7153e-05
5.53458e-05
5.41508e-05
5.34628e-05
5.34669e-05
5.37201e-05
5.45871e-05
5.5595e-05
5.69952e-05
5.84323e-05
6.01901e-05
6.04885e-05
6.07737e-05
6.10309e-05
1.08947e-05
1.55987e-05
1.88265e-05
2.0756e-05
2.18207e-05
2.20952e-05
2.2143e-05
2.20346e-05
2.17302e-05
2.1392e-05
2.10499e-05
2.07227e-05
2.04204e-05
2.01485e-05
1.99035e-05
1.96921e-05
1.95063e-05
1.93447e-05
1.3739e-12
1.54008e-10
7.89686e-10
3.13486e-09
1.05211e-08
3.20407e-08
8.49748e-08
1.71683e-07
2.81435e-07
3.98344e-07
5.03997e-07
5.8599e-07
6.41174e-07
6.61491e-07
6.52853e-07
6.26356e-07
5.74291e-07
4.91284e-07
4.14723e-07
3.51005e-07
2.9147e-07
2.34416e-07
1.79744e-07
1.29318e-07
8.45932e-08
4.99809e-08
2.69451e-08
1.38305e-08
7.15301e-09
3.9282e-09
2.38487e-09
1.73528e-09
2.02499e-09
3.93244e-09
1.20042e-08
3.06606e-08
1.08387e-07
2.44111e-07
3.95178e-07
4.72282e-07
4.46448e-07
3.70292e-07
2.93334e-07
2.50007e-07
2.55118e-07
3.13403e-07
3.92585e-07
7.02795e-07
1.33363e-06
3.36962e-06
1.02927e-05
2.28219e-05
3.57271e-05
4.50931e-05
5.09785e-05
4.94988e-05
4.44563e-05
3.71852e-05
3.9365e-05
3.31118e-05
3.38914e-05
3.54213e-05
3.71939e-05
2.90729e-05
3.31923e-05
3.274e-05
3.35515e-05
3.41576e-05
3.46719e-05
3.52839e-05
3.58094e-05
3.63754e-05
3.69074e-05
3.74483e-05
3.79767e-05
3.85037e-05
3.90258e-05
3.95443e-05
4.00597e-05
4.0572e-05
4.10814e-05
4.15888e-05
4.20929e-05
4.25962e-05
4.30956e-05
4.35952e-05
4.40908e-05
4.45871e-05
4.50793e-05
4.55715e-05
4.60603e-05
4.6547e-05
4.70306e-05
4.75111e-05
4.79875e-05
4.84602e-05
4.89285e-05
4.93948e-05
4.986e-05
5.03305e-05
5.08109e-05
5.13031e-05
5.17948e-05
5.22949e-05
5.28011e-05
5.33152e-05
5.38377e-05
5.43678e-05
5.49074e-05
5.54546e-05
5.60124e-05
5.6578e-05
5.71553e-05
5.77408e-05
5.8339e-05
5.89464e-05
5.95674e-05
6.01988e-05
6.08446e-05
6.15023e-05
6.21763e-05
6.28654e-05
6.35732e-05
6.42981e-05
6.50428e-05
6.58062e-05
6.65902e-05
6.7393e-05
6.82137e-05
6.9057e-05
6.996e-05
7.09007e-05
7.18851e-05
7.29134e-05
7.39856e-05
7.50935e-05
7.62708e-05
7.74921e-05
7.74726e-05
7.72602e-05
7.7024e-05
7.67784e-05
7.65232e-05
7.62566e-05
7.59801e-05
7.56931e-05
7.53963e-05
7.50897e-05
7.47736e-05
7.44476e-05
7.4121e-05
7.37704e-05
7.34318e-05
7.30619e-05
7.27109e-05
7.2324e-05
7.1963e-05
7.15618e-05
7.11939e-05
7.07871e-05
7.04018e-05
7.00019e-05
6.96042e-05
6.92037e-05
6.88018e-05
6.83989e-05
6.79947e-05
6.75906e-05
6.7186e-05
6.67826e-05
6.63794e-05
6.59777e-05
6.55756e-05
6.51729e-05
6.47643e-05
6.43436e-05
6.38991e-05
6.34026e-05
6.27947e-05
6.12431e-05
6.15924e-12
9.87829e-10
1.32797e-08
7.16828e-08
3.1132e-07
1.09422e-06
2.54911e-06
4.70925e-06
7.37048e-06
1.03761e-05
1.34572e-05
1.63281e-05
1.87688e-05
2.05734e-05
2.16851e-05
2.19918e-05
2.1684e-05
2.07474e-05
1.88919e-05
1.56315e-05
1.20577e-05
8.85779e-06
6.2329e-06
4.19726e-06
2.65139e-06
1.64097e-06
1.00883e-06
6.3001e-07
3.96446e-07
2.61969e-07
1.90784e-07
1.60413e-07
1.73757e-07
2.69635e-07
7.92699e-07
1.90582e-06
6.49537e-06
1.36258e-05
2.01978e-05
2.34657e-05
2.26392e-05
2.07707e-05
1.6679e-05
1.44918e-05
1.46188e-05
1.582e-05
1.69699e-05
2.14276e-05
3.05296e-05
4.14658e-05
5.24094e-05
6.30639e-05
7.23063e-05
8.07455e-05
9.01307e-05
0.000101388
0.000110943
0.000119506
0.000135356
0.000143511
0.000161551
0.000174197
0.000188496
0.000197034
0.000209739
0.000221022
0.000232288
0.000243037
0.000253438
0.000263437
0.000273182
0.000282612
0.000291833
0.000300826
0.000309651
0.000318308
0.000326832
0.000335228
0.000343519
0.000351705
0.000359804
0.000367814
0.000375747
0.0003836
0.000391381
0.000399089
0.000406729
0.000414301
0.000421805
0.000429237
0.000436594
0.000443861
0.000451032
0.000458088
0.000465011
0.000471769
0.000478319
0.000484601
0.00049053
0.00049601
0.000500933
0.000505478
0.000509954
0.000514283
0.000518486
0.000522558
0.000526497
0.000530301
0.000533967
0.000537495
0.000540882
0.000544127
0.000547229
0.000550189
0.000553006
0.00055568
0.00055821
0.000560599
0.000562846
0.000564952
0.000566918
0.000568745
0.000570437
0.000571994
0.000573418
0.000574707
0.000575864
0.000576886
0.000577774
0.000578512
0.000579071
0.000579479
0.000579747
0.000579841
0.000579842
0.000579568
0.000579584
0.000579332
0.000579436
0.000579596
0.000579412
0.000579111
0.000578699
0.000578167
0.000577517
0.000576749
0.000575861
0.000574851
0.000573713
0.000572528
0.000571049
0.000569803
0.00056804
0.0005666
0.000564592
0.000562959
0.00056073
0.000558918
0.000556533
0.000554432
0.00055204
0.000549659
0.000547194
0.00054467
0.000542081
0.00053943
0.000536717
0.000533943
0.000531112
0.000528225
0.000525284
0.000522286
0.000519222
0.000516084
0.000512813
0.00050933
0.000505511
0.000501045
0.000495151
0.000479157
1.66387e-11
2.85148e-09
5.42692e-08
3.39952e-07
9.55215e-07
2.7076e-06
5.81956e-06
1.01635e-05
1.56301e-05
2.18964e-05
2.8619e-05
3.52558e-05
4.12685e-05
4.63064e-05
5.01871e-05
5.27044e-05
5.41441e-05
5.44843e-05
5.31351e-05
5.02151e-05
4.60271e-05
4.00064e-05
3.30117e-05
2.59633e-05
1.95264e-05
1.39739e-05
9.53132e-06
6.37437e-06
4.07241e-06
2.70713e-06
1.91986e-06
1.50023e-06
1.35575e-06
1.31453e-06
5.19332e-06
1.26343e-05
3.2389e-05
5.18769e-05
6.40947e-05
6.63201e-05
5.8476e-05
4.41142e-05
3.80534e-05
4.04889e-05
4.74462e-05
5.50454e-05
6.57128e-05
7.83977e-05
9.09881e-05
0.000105054
0.000122289
0.000140998
0.000162397
0.000186517
0.000214179
0.000243312
0.000272321
0.000302077
0.000331758
0.000359163
0.000390687
0.000417141
0.000444511
0.000468911
0.00049307
0.00051614
0.000538293
0.000559488
0.000580035
0.000599906
0.000619274
0.000638147
0.000656633
0.000674753
0.000692569
0.000710105
0.000727397
0.000744462
0.000761323
0.000777989
0.000794475
0.000810785
0.000826926
0.0008429
0.000858709
0.000874351
0.000889826
0.000905127
0.000920247
0.000935173
0.00094989
0.000964376
0.000978607
0.000992552
0.00100618
0.00101945
0.00103231
0.00104474
0.00105668
0.00106814
0.00107914
0.00108985
0.00110029
0.00111045
0.00112032
0.0011299
0.00113919
0.00114817
0.00115685
0.00116522
0.00117328
0.00118103
0.00118846
0.00119557
0.00120238
0.00120887
0.00121505
0.00122092
0.00122648
0.00123174
0.0012367
0.00124136
0.00124572
0.0012498
0.00125359
0.00125709
0.0012603
0.00126323
0.00126585
0.00126817
0.00127018
0.00127189
0.00127333
0.00127448
0.00127538
0.00127592
0.00127643
0.00127671
0.00127685
0.00127678
0.00127635
0.00127571
0.0012748
0.00127362
0.00127216
0.00127044
0.00126845
0.0012662
0.00126369
0.00126093
0.00125783
0.00125471
0.00125103
0.00124744
0.00124324
0.0012392
0.00123452
0.00123006
0.00122496
0.00122003
0.00121473
0.00120934
0.0012038
0.00119812
0.00119231
0.00118637
0.00118029
0.0011741
0.00116778
0.00116135
0.00115481
0.00114816
0.00114138
0.00113444
0.00112722
0.00111958
0.00111121
0.00110139
0.00108813
0.00105909
5.99124e-11
1.01572e-08
1.65763e-07
7.55599e-07
2.27556e-06
6.32303e-06
1.27012e-05
2.1342e-05
3.16681e-05
4.26157e-05
5.32402e-05
6.30184e-05
7.14696e-05
7.80964e-05
8.30741e-05
8.64175e-05
8.78711e-05
8.7806e-05
8.6369e-05
8.34494e-05
7.91516e-05
7.34471e-05
6.65705e-05
5.79289e-05
4.83916e-05
3.87872e-05
2.99186e-05
2.25159e-05
1.68443e-05
1.22616e-05
9.49934e-06
6.97838e-06
7.15263e-06
1.0193e-05
2.26966e-05
4.59477e-05
6.67826e-05
8.04555e-05
8.03563e-05
7.49103e-05
7.17372e-05
7.2434e-05
7.72268e-05
8.58986e-05
9.8193e-05
0.000111605
0.000124915
0.000147806
0.000169309
0.000198437
0.000230252
0.00026617
0.000305247
0.000347083
0.000390859
0.000434865
0.00047838
0.000521524
0.00056292
0.000602736
0.000643248
0.000680175
0.000717057
0.000751593
0.000785011
0.000817162
0.000848234
0.000878347
0.000907662
0.000936245
0.000964212
0.000991622
0.00101855
0.00104504
0.00107114
0.00109688
0.00112229
0.0011474
0.00117221
0.00119674
0.00122101
0.001245
0.00126873
0.0012922
0.00131541
0.00133834
0.001361
0.00138337
0.00140544
0.00142719
0.00144861
0.00146966
0.00149032
0.00151057
0.00153036
0.00154969
0.00156853
0.00158685
0.00160467
0.001622
0.00163888
0.00165534
0.0016714
0.00168702
0.00170222
0.00171697
0.00173128
0.00174513
0.00175851
0.00177143
0.00178388
0.00179586
0.00180737
0.0018184
0.00182897
0.00183907
0.00184871
0.00185789
0.0018666
0.00187487
0.00188268
0.00189005
0.00189698
0.00190347
0.00190954
0.00191518
0.00192038
0.00192515
0.00192949
0.00193338
0.00193684
0.00193988
0.0019425
0.00194473
0.00194657
0.00194791
0.00194889
0.00194958
0.00194989
0.00194984
0.00194934
0.00194847
0.00194718
0.00194549
0.0019434
0.0019409
0.00193801
0.00193472
0.00193106
0.001927
0.00192254
0.0019178
0.00191256
0.00190709
0.0019011
0.00189494
0.00188824
0.00188144
0.00187411
0.0018667
0.00185892
0.00185095
0.00184275
0.00183434
0.00182574
0.00181694
0.00180795
0.00179877
0.00178942
0.00177992
0.00177025
0.00176043
0.00175045
0.00174023
0.00172966
0.00171853
0.00170647
0.00169249
0.00167381
0.00163929
2.05105e-10
3.11857e-08
3.77374e-07
1.74722e-06
6.09943e-06
1.48792e-05
2.78914e-05
4.36424e-05
6.03925e-05
7.63364e-05
9.01432e-05
0.000101128
0.000109231
0.000114951
0.000118145
0.000119474
0.000119243
0.000117691
0.000114989
0.00011121
0.00010607
0.000100273
9.34676e-05
8.50754e-05
7.53817e-05
6.46127e-05
5.34848e-05
4.3251e-05
3.46743e-05
2.78988e-05
2.17836e-05
2.04994e-05
2.3502e-05
3.83109e-05
6.46864e-05
8.30945e-05
9.21382e-05
9.55121e-05
9.67338e-05
9.92053e-05
0.000105004
0.000114973
0.000130096
0.000140275
0.000155062
0.00018037
0.000208921
0.000244008
0.000282052
0.000326927
0.000373726
0.00042418
0.000476341
0.000529815
0.000583539
0.000636653
0.000688759
0.0007398
0.000789063
0.000836636
0.000883835
0.000928778
0.000972338
0.00101434
0.00105507
0.00109459
0.00113305
0.00117056
0.00120724
0.00124316
0.00127842
0.00131308
0.00134719
0.00138081
0.00141396
0.00144668
0.00147899
0.00151091
0.00154244
0.00157361
0.00160441
0.00163484
0.00166491
0.00169462
0.00172395
0.00175291
0.00178149
0.00180966
0.00183743
0.00186477
0.00189166
0.00191808
0.00194401
0.00196942
0.00199431
0.00201865
0.00204244
0.00206568
0.00208837
0.00211053
0.00213216
0.00215327
0.00217384
0.00219387
0.00221335
0.00223226
0.0022506
0.00226836
0.00228553
0.00230212
0.0023181
0.00233349
0.00234829
0.00236249
0.0023761
0.00238912
0.00240156
0.00241342
0.0024247
0.00243541
0.00244556
0.00245514
0.00246417
0.00247266
0.00248059
0.00248799
0.00249484
0.00250115
0.00250691
0.00251213
0.00251681
0.00252097
0.00252461
0.00252777
0.00253045
0.00253246
0.00253393
0.00253499
0.00253559
0.00253568
0.00253525
0.00253432
0.00253287
0.00253092
0.00252846
0.00252549
0.00252204
0.00251809
0.00251366
0.00250875
0.00250336
0.00249753
0.0024912
0.00248445
0.0024772
0.00246957
0.00246144
0.002453
0.00244409
0.00243491
0.00242536
0.00241551
0.00240539
0.002395
0.00238435
0.00237345
0.0023623
0.00235092
0.00233933
0.00232753
0.00231555
0.00230337
0.00229097
0.00227831
0.00226528
0.00225166
0.00223707
0.00222053
0.00219891
0.00216399
6.46045e-10
7.68466e-08
9.21792e-07
4.66725e-06
1.55569e-05
3.33433e-05
5.50152e-05
7.74242e-05
9.69218e-05
0.000112244
0.000123712
0.000132554
0.000138387
0.000141988
0.00014368
0.000143729
0.000142356
0.000139752
0.000136104
0.000131473
0.000125789
0.00011952
0.000112306
0.000103865
9.43728e-05
7.93292e-05
6.49073e-05
5.1456e-05
4.02166e-05
3.37326e-05
3.28352e-05
4.08472e-05
6.00989e-05
8.33941e-05
0.000100881
0.000111478
0.000117219
0.000121723
0.000128752
0.0001407
0.000155338
0.000165058
0.000181952
0.000207362
0.00023742
0.00027562
0.000318323
0.000366986
0.000418767
0.000474577
0.000531752
0.00059092
0.000650671
0.000710617
0.000770064
0.000828586
0.000885815
0.000941702
0.000996184
0.00104961
0.00110155
0.0011519
0.00120088
0.00124853
0.00129498
0.00134031
0.00138463
0.00142803
0.00147061
0.00151242
0.00155355
0.00159405
0.00163396
0.00167331
0.00171214
0.00175046
0.0017883
0.00182566
0.00186254
0.00189896
0.00193491
0.0019704
0.00200542
0.00203997
0.00207405
0.00210765
0.00214076
0.00217337
0.00220547
0.00223705
0.00226809
0.00229858
0.0023285
0.00235784
0.00238658
0.00241471
0.00244224
0.00246916
0.00249548
0.0025212
0.0025463
0.00257079
0.00259466
0.00261788
0.00264047
0.0026624
0.00268367
0.00270427
0.0027242
0.00274344
0.00276201
0.00277989
0.00279709
0.0028136
0.00282945
0.00284462
0.00285912
0.00287296
0.00288614
0.00289866
0.00291054
0.00292178
0.00293238
0.00294235
0.0029517
0.00296042
0.00296852
0.002976
0.00298286
0.00298911
0.00299475
0.00299982
0.0030043
0.00300825
0.00301155
0.00301411
0.00301608
0.00301753
0.00301843
0.00301875
0.00301848
0.00301764
0.00301621
0.0030142
0.00301163
0.00300848
0.00300478
0.00300052
0.00299572
0.00299037
0.00298448
0.00297807
0.00297112
0.00296367
0.00295569
0.00294722
0.00293825
0.00292885
0.00291899
0.00290875
0.00289811
0.00288712
0.00287579
0.00286415
0.00285221
0.00283996
0.00282743
0.00281463
0.00280157
0.00278828
0.00277478
0.00276106
0.00274712
0.00273292
0.00271836
0.00270328
0.00268732
0.00266961
0.00264749
0.00261424
2.04711e-09
1.9297e-07
2.42831e-06
1.28506e-05
3.43618e-05
6.21689e-05
9.00302e-05
0.00011343
0.000131473
0.000144668
0.000153864
0.000159335
0.000162098
0.000162774
0.00016203
0.000160198
0.00015744
0.000153846
0.000149386
0.000144027
0.000137795
0.000130739
0.000122413
0.000106981
9.08735e-05
7.61754e-05
6.25122e-05
5.14649e-05
4.64909e-05
5.20318e-05
6.78956e-05
9.10761e-05
0.000113297
0.000127401
0.000137317
0.000144644
0.000152615
0.000164978
0.00017896
0.000187685
0.000204305
0.000228836
0.000258438
0.000296137
0.000339594
0.000389788
0.000443939
0.000501968
0.000562107
0.000624294
0.000687316
0.000751096
0.00081488
0.00087832
0.000940938
0.00100236
0.00106277
0.00112224
0.00118026
0.0012371
0.00129257
0.00134674
0.00139967
0.00145143
0.00150209
0.00155173
0.00160042
0.00164825
0.00169527
0.00174154
0.00178712
0.00183205
0.00187635
0.00192006
0.00196319
0.00200575
0.00204775
0.00208918
0.00213006
0.00217038
0.00221014
0.00224934
0.00228797
0.00232603
0.00236353
0.00240045
0.00243678
0.00247254
0.0025077
0.00254226
0.00257623
0.00260957
0.00264229
0.00267437
0.00270581
0.00273659
0.00276671
0.00279616
0.00282494
0.00285302
0.00288044
0.00290717
0.00293322
0.00295858
0.00298324
0.00300718
0.00303041
0.00305291
0.00307469
0.00309573
0.00311604
0.00313562
0.00315449
0.00317262
0.00319004
0.00320672
0.00322269
0.00323793
0.00325247
0.00326629
0.00327941
0.00329184
0.00330358
0.00331463
0.003325
0.00333469
0.00334371
0.00335205
0.00335973
0.00336674
0.00337312
0.0033789
0.00338405
0.00338853
0.00339235
0.00339536
0.00339778
0.00339957
0.00340077
0.00340134
0.00340128
0.00340059
0.0033993
0.00339743
0.00339495
0.00339187
0.00338819
0.00338392
0.00337907
0.00337364
0.00336763
0.00336106
0.00335392
0.00334623
0.00333798
0.0033292
0.00331989
0.0033101
0.00329983
0.00328912
0.00327798
0.00326645
0.00325455
0.00324229
0.00322969
0.00321676
0.0032035
0.00318994
0.00317609
0.00316199
0.00314766
0.0031331
0.00311831
0.00310329
0.00308796
0.00307219
0.0030557
0.00303779
0.00301637
0.00298612
6.15176e-09
5.07634e-07
6.46415e-06
2.80443e-05
6.04344e-05
9.36762e-05
0.000120984
0.000141516
0.00015643
0.000166234
0.00017173
0.00017423
0.000174616
0.000173562
0.000171455
0.00016852
0.000164784
0.000160124
0.000154531
0.00014806
0.000141014
0.000133229
0.000117603
0.000102431
8.96237e-05
8.00502e-05
7.60615e-05
7.9356e-05
8.11726e-05
9.63847e-05
0.000121001
0.000145068
0.000162742
0.000171862
0.000181035
0.000193162
0.000200103
0.000208185
0.000223181
0.000245228
0.000273472
0.000309054
0.000350753
0.000399346
0.000453109
0.000511458
0.000572482
0.000635695
0.000700193
0.000765672
0.000831533
0.000897502
0.000963195
0.00102797
0.00109201
0.00115552
0.0012178
0.00127903
0.00133905
0.00139795
0.00145566
0.00151224
0.00156772
0.00162215
0.0016756
0.00172811
0.00177975
0.00183057
0.00188062
0.00192995
0.0019786
0.0020266
0.00207396
0.0021207
0.00216683
0.00221234
0.00225722
0.00230148
0.00234511
0.0023881
0.00243044
0.00247214
0.00251318
0.00255358
0.00259332
0.00263241
0.00267083
0.0027086
0.00274572
0.00278219
0.00281801
0.00285317
0.00288766
0.00292149
0.00295465
0.00298712
0.00301891
0.00304999
0.00308035
0.00311001
0.00313898
0.00316725
0.00319481
0.00322165
0.00324778
0.00327316
0.00329781
0.00332171
0.00334485
0.00336723
0.00338885
0.0034097
0.00342979
0.00344911
0.00346767
0.00348547
0.00350251
0.00351881
0.00353435
0.00354916
0.00356322
0.00357656
0.00358917
0.00360107
0.00361225
0.00362272
0.00363248
0.00364154
0.00364991
0.00365758
0.00366464
0.00367103
0.00367676
0.00368179
0.00368613
0.00368964
0.00369257
0.00369481
0.00369642
0.00369738
0.00369768
0.00369734
0.00369634
0.00369472
0.00369247
0.00368959
0.00368609
0.00368198
0.00367726
0.00367194
0.00366602
0.00365951
0.00365241
0.00364473
0.00363647
0.00362765
0.00361828
0.00360839
0.00359801
0.00358715
0.00357584
0.00356411
0.00355197
0.00353945
0.00352654
0.00351328
0.00349966
0.00348572
0.00347147
0.00345694
0.00344216
0.00342714
0.00341191
0.00339646
0.00338074
0.00336468
0.00334808
0.00333036
0.00331008
0.00328331
1.61671e-08
1.26041e-06
1.4763e-05
4.82335e-05
8.81957e-05
0.000122958
0.000149177
0.000166766
0.000177418
0.000183237
0.000185456
0.000185018
0.000182773
0.000179357
0.000175243
0.000170592
0.000165346
0.00015951
0.000153031
0.000145567
0.000136986
0.00012356
0.000108876
9.84084e-05
9.34864e-05
9.04083e-05
9.23322e-05
0.000104134
0.00012419
0.000146332
0.00016773
0.000186054
0.000199937
0.000208693
0.000216441
0.000225445
0.000239055
0.000258265
0.000283966
0.000316531
0.000355449
0.00040076
0.000451662
0.000507787
0.000567709
0.000630448
0.000694875
0.000760527
0.000826882
0.000893633
0.000960434
0.00102678
0.00109248
0.00115805
0.00122269
0.0012865
0.0013493
0.00141108
0.00147181
0.00153151
0.00159016
0.0016478
0.00170446
0.00176018
0.00181502
0.00186902
0.00192222
0.00197466
0.00202638
0.00207743
0.00212784
0.00217762
0.00222679
0.00227537
0.00232332
0.00237063
0.00241728
0.00246326
0.00250856
0.00255316
0.00259706
0.00264024
0.00268269
0.00272443
0.00276546
0.0028058
0.00284549
0.00288445
0.00292271
0.00296025
0.00299709
0.00303324
0.00306869
0.00310345
0.00313751
0.00317087
0.00320354
0.00323552
0.00326681
0.00329741
0.00332732
0.00335653
0.00338503
0.0034128
0.00343985
0.00346617
0.00349173
0.00351654
0.00354059
0.00356387
0.00358638
0.00360811
0.00362906
0.00364923
0.00366863
0.00368725
0.0037051
0.00372218
0.00373849
0.00375405
0.00376885
0.0037829
0.00379621
0.00380878
0.00382062
0.00383174
0.00384213
0.0038518
0.00386077
0.00386906
0.00387671
0.00388367
0.00388992
0.0038955
0.00390034
0.00390442
0.00390786
0.00391063
0.00391273
0.00391418
0.00391496
0.0039151
0.00391458
0.00391342
0.00391162
0.0039092
0.00390614
0.00390247
0.00389819
0.00389329
0.00388779
0.00388169
0.00387499
0.0038677
0.00385982
0.00385137
0.00384236
0.00383281
0.00382275
0.0038122
0.00380118
0.00378972
0.00377783
0.00376552
0.00375282
0.00373973
0.00372626
0.00371244
0.0036983
0.00368386
0.00366915
0.0036542
0.00363903
0.00362365
0.00360805
0.00359218
0.00357592
0.00355882
0.00353961
0.00351585
3.64601e-08
2.92978e-06
2.70831e-05
7.00155e-05
0.000112494
0.000146321
0.000170359
0.000185554
0.000193247
0.000195254
0.000193564
0.000189602
0.000184358
0.000178444
0.000172207
0.00016561
0.000158772
0.000151598
0.000144151
0.000136476
0.00012843
0.00012053
0.000113191
0.000108297
0.00010887
0.000117558
0.00013169
0.00014939
0.000168619
0.000187086
0.000203134
0.00021543
0.000226131
0.000237627
0.000251118
0.000268619
0.000291532
0.000320667
0.000356091
0.000397541
0.000444519
0.000496648
0.000553214
0.000613461
0.00067628
0.000740818
0.000806376
0.000872568
0.000939057
0.0010056
0.00107154
0.0011373
0.00120266
0.00126735
0.00133122
0.00139421
0.00145627
0.00151738
0.00157752
0.00163671
0.00169496
0.00175228
0.00180874
0.00186437
0.00191922
0.00197334
0.00202676
0.00207951
0.00213159
0.00218309
0.00223403
0.00228443
0.00233429
0.00238362
0.00243246
0.00248089
0.00252871
0.00257583
0.00262219
0.00266779
0.0027126
0.00275661
0.00279982
0.00284222
0.00288381
0.0029246
0.00296456
0.00300376
0.00304224
0.00308001
0.00311709
0.00315349
0.00318922
0.00322428
0.00325869
0.00329243
0.00332552
0.00335796
0.00338974
0.00342085
0.0034513
0.00348106
0.00351013
0.0035385
0.00356617
0.00359311
0.00361932
0.00364479
0.00366952
0.00369348
0.00371668
0.00373911
0.00376076
0.00378164
0.00380173
0.00382105
0.00383959
0.00385735
0.00387435
0.00389057
0.00390604
0.00392075
0.0039347
0.00394792
0.00396039
0.00397212
0.00398313
0.00399341
0.00400299
0.0040119
0.00402013
0.00402767
0.00403451
0.00404068
0.00404611
0.00405083
0.00405487
0.00405824
0.00406094
0.00406299
0.00406438
0.00406512
0.00406521
0.00406467
0.00406349
0.00406169
0.00405927
0.00405623
0.00405258
0.00404832
0.00404346
0.00403801
0.00403195
0.00402529
0.00401804
0.00401021
0.00400182
0.00399289
0.00398344
0.00397348
0.00396305
0.00395216
0.00394082
0.00392905
0.00391686
0.00390425
0.00389126
0.00387789
0.00386417
0.00385015
0.00383583
0.00382126
0.00380647
0.00379147
0.00377628
0.00376088
0.00374519
0.0037289
0.00371095
0.00369054
7.04043e-08
6.08787e-06
4.15873e-05
9.28127e-05
0.000138163
0.000170831
0.000191317
0.000201569
0.000204466
0.000202411
0.000197199
0.000190141
0.000182131
0.000173575
0.000164805
0.000156189
0.000147557
0.000139837
0.000132828
0.000126983
0.000122798
0.000121558
0.000124366
0.00013167
0.000142906
0.000156672
0.000172336
0.000188755
0.000204618
0.000218499
0.000230842
0.000244339
0.000259105
0.000276236
0.000297145
0.000323233
0.000354952
0.00039231
0.000434988
0.000482561
0.000534558
0.0005905
0.000649728
0.000711482
0.000774928
0.000839412
0.000904457
0.000969753
0.00103481
0.00109946
0.00116412
0.00122814
0.00129152
0.00135412
0.00141586
0.00147669
0.00153661
0.00159562
0.00165375
0.00171101
0.00176743
0.00182296
0.00187774
0.00193183
0.0019853
0.00203819
0.0020906
0.00214269
0.00219458
0.00224603
0.002297
0.00234748
0.00239747
0.00244698
0.00249597
0.00254434
0.00259209
0.00263917
0.00268551
0.00273111
0.00277594
0.00281996
0.00286316
0.00290553
0.00294709
0.00298785
0.00302784
0.0030671
0.00310563
0.00314345
0.00318059
0.00321706
0.00325287
0.00328804
0.00332258
0.0033565
0.00338979
0.00342246
0.0034545
0.00348592
0.0035167
0.00354685
0.00357634
0.00360517
0.00363334
0.00366081
0.00368759
0.00371365
0.003739
0.0037636
0.00378746
0.00381057
0.00383292
0.00385451
0.00387532
0.00389535
0.0039146
0.00393308
0.0039508
0.00396775
0.00398393
0.00399935
0.00401401
0.00402793
0.00404109
0.00405352
0.00406522
0.00407619
0.00408646
0.00409605
0.00410495
0.00411316
0.00412069
0.00412753
0.00413368
0.00413913
0.0041439
0.00414798
0.0041514
0.00415418
0.0041563
0.00415779
0.00415864
0.00415886
0.00415846
0.00415744
0.00415581
0.00415358
0.00415074
0.0041473
0.00414327
0.00413865
0.00413342
0.0041276
0.00412118
0.00411418
0.00410662
0.00409852
0.00408989
0.00408075
0.00407113
0.00406104
0.00405049
0.00403949
0.00402805
0.00401618
0.00400389
0.00399121
0.00397817
0.00396479
0.00395111
0.00393716
0.00392297
0.00390857
0.00389399
0.00387923
0.00386426
0.00384886
0.00383209
0.00381456
1.14984e-07
1.03593e-05
5.45875e-05
0.000110731
0.000157833
0.000189628
0.00020692
0.000213562
0.000212972
0.000207764
0.000199848
0.000190486
0.00018043
0.000170938
0.00016182
0.000154099
0.000147456
0.00014297
0.00014046
0.000140237
0.000142682
0.000148054
0.000156321
0.000167092
0.000179721
0.000193493
0.000207646
0.000221162
0.000234033
0.000248088
0.000264063
0.000281526
0.000301532
0.000325415
0.000353892
0.00038735
0.000425692