/*--------------------------------*- C++ -*----------------------------------*\
  =========                 |
  \\      /  F ield         | OpenFOAM: The Open Source CFD Toolbox
   \\    /   O peration     | Website:  https://openfoam.org
    \\  /    A nd           | Version:  13
     \\/     M anipulation  |
\*---------------------------------------------------------------------------*/
FoamFile
{
    format      ascii;
    class       volScalarField;
    location    "1500";
    object      omega;
}
// * * * * * * * * * * * * * * * * * * * * * * * * * * * * * * * * * * * * * //

dimensions      [0 0 -1 0 0 0 0];

internalField   nonuniform List<scalar> 
12225
(
31477.7
40824.6
39504.2
39676.4
39855.2
37268.3
37838.1
31477.7
31477.7
31477.7
44547.1
41121.1
31477.7
31477.7
31477.7
31477.7
31477.7
42308.8
3337.99
8112.94
10516.9
12936.4
13858.2
18104.9
20088.9
18301.6
17835.6
17477.6
18473.6
18774.8
18421.5
19130.7
19911
19215.7
19457.8
20056.8
0.421611
2941.35
3394.8
4135.13
7921.76
8150.21
9228.06
9666.53
9593.39
9329.13
9204.16
8997.03
8873.65
8887.56
8916.09
8924.75
8864.7
8895.28
0.375172
2359.53
2376.63
4244.18
4816.76
4845.49
4939.52
6103.97
6324.15
5702.05
4978.75
4734.4
4588.56
4497.79
4388.07
4339.37
4358.96
4333.33
785.425
1532.69
1649.99
1912.25
2072
2737.19
3015.32
3511.93
3530.16
3461.3
3403.36
3329.41
3283.64
3223.53
3251.34
3239.7
3220.34
3419.33
568.127
840.123
907.827
1058.83
1342.67
1644.78
1907.68
1995.59
1994.8
2051.55
2162.66
2178.39
2212.87
2208.97
2494.09
2490.88
2621.71
2731.04
471.714
532.842
577.422
622.411
745.385
850.898
994.249
1110.33
1328.27
1425.29
1430.46
1484.21
1522.72
1538.3
1738.75
1768.26
1848.68
1922.36
435.552
466.066
483.362
496.704
547.184
620.364
681.603
739.252
826.141
858.587
937.401
985.451
1005.87
1089.4
1205.4
1231.72
1247.1
1273.47
438.045
443.127
449.054
454.118
475.145
511.695
551.38
600.206
666.43
732.241
759.761
763.584
797.527
821.602
854.342
867.006
867.713
877.427
438.298
437.946
437.429
439.456
446.082
458.321
474.454
496.648
522.87
554.332
581.942
601.423
621.368
629.376
638.352
645.135
646.411
649.805
438.794
436.997
434.127
433.695
434.149
436.822
442.291
449.48
459.679
470.212
481.692
491.026
500.83
505.952
512.487
516.052
519.71
523.528
438.979
436.777
434.496
432.686
430.519
430.192
431.103
432.869
435.934
439.149
443.118
446.557
450.338
452.669
455.092
457.115
458.713
460.983
438.991
436.791
434.65
432.662
430.56
428.859
427.927
426.623
426.242
426.079
426.429
427.145
427.847
428.105
428.405
428.664
428.975
429.098
438.994
436.786
434.662
432.676
430.722
428.866
427.231
425.714
424.42
423.284
422.249
421.358
420.471
419.661
418.759
418.003
417.091
416.43
438.998
436.778
434.658
432.661
430.746
428.93
427.2
425.576
424.041
422.612
421.25
419.979
418.747
417.595
416.459
415.401
414.354
413.388
439
436.774
434.657
432.65
430.741
428.928
427.202
425.562
424.001
422.518
421.105
419.763
418.48
417.259
416.09
414.976
413.91
412.894
439
436.772
434.655
432.645
430.735
428.92
427.193
425.55
423.986
422.497
421.077
419.725
418.434
417.204
416.029
414.909
413.837
412.816
438.999
436.769
434.65
432.638
430.726
428.908
427.179
425.534
423.968
422.476
421.054
419.699
418.406
417.174
415.997
414.874
413.802
412.778
439
436.771
434.653
432.641
430.73
428.912
427.183
425.538
423.971
422.479
421.057
419.701
418.408
417.174
415.997
414.873
413.801
412.776
439.001
436.772
434.656
432.645
430.734
428.917
427.189
425.545
423.979
422.487
421.065
419.71
418.418
417.185
416.008
414.885
413.812
412.788
439.002
436.771
434.659
432.647
430.74
428.923
427.198
425.553
423.991
422.5
421.082
419.728
418.44
417.208
416.037
414.915
413.848
412.826
439.003
436.769
434.669
432.648
430.752
428.929
427.215
425.573
424.028
422.55
421.158
419.823
418.57
417.357
416.229
415.124
414.105
413.103
438.945
436.805
434.698
432.659
430.769
428.956
427.294
425.751
424.344
423.036
421.838
420.708
419.696
418.709
417.84
416.945
416.202
415.401
438.479
437.416
434.93
432.875
430.988
429.462
428.331
427.673
427.277
427.008
426.865
427.012
427.332
427.619
427.966
428.214
428.58
428.659
437.566
444.887
438.575
437.18
434.982
435.446
437.884
441.39
445.91
450.291
455.109
459.314
464.009
467.641
471.736
474.485
478.21
480.471
464.359
507.86
490.761
467.188
467.886
477.361
494.47
511.668
531.436
548.74
567.017
582.158
598.013
610.439
624.061
633.918
646.215
654.295
709.952
923.887
789.716
673.188
667.292
703.549
763.692
821.495
884.621
937.402
992.816
1036.96
1083.66
1119.65
1158.95
1188.03
1222.61
1246.28
3158.77
2290.95
1715.56
1595.83
1713.57
1903.28
2122.95
2316.91
2504.69
2654.2
2801.02
2911.04
3027.39
3112.15
3208.2
3278.31
3362.61
3420.95
16813.8
10857.2
7936.03
7824.16
8399.48
8961.31
9400.24
9706.35
9885.56
9992.47
10017
10010.2
9985.33
9942.76
9903.89
9865.27
9844.55
9835.64
18117.5
22904
25128.2
26270
26748.7
26733.1
26643.6
26387.6
26071.7
25740.3
25416
25110.8
24830.2
24576.6
24347.1
24144.6
23962.9
23801.7
11463.2
2514.24
2516.41
2518.61
2520.83
2523.07
2525.32
2527.6
2529.9
2532.22
2534.57
2536.93
2539.31
2541.72
2544.15
2546.6
2549.08
2551.57
2554.09
2556.64
2559.2
2561.79
2564.41
2567.05
2569.71
2572.4
2575.12
2577.86
2580.62
2583.41
2586.23
2589.08
2591.95
2594.85
2597.77
2600.73
2603.71
2606.72
2609.76
2612.82
2615.92
2619.05
2622.2
2625.39
2628.61
2631.86
2635.14
2638.45
2641.79
2645.17
2648.58
2652.02
2655.5
2659.01
2662.55
2666.13
2669.74
3183.32
2677.08
3328.97
3185.07
3325.42
2692.19
3218.41
3363.3
3456.56
3528.52
3615.91
3687.66
3763.76
3833.95
3904.06
3971.37
4037.55
4102.04
4165.22
4227.15
4287.86
4347.47
4406
4463.44
4519.93
4575.32
4629.85
4683.23
4735.79
4787.17
4837.72
4887.08
4935.48
4982.72
5028.8
5073.65
5117.24
5159.48
5200.38
5239.81
5277.92
5314.66
5350.45
5385.54
5419.85
5453.05
5485.39
5516.81
5547.29
5576.92
5605.54
5633.32
5660.05
5685.96
5710.79
5734.82
5757.77
5779.92
5800.99
5821.26
5840.48
5858.88
5876.22
5892.71
5908.2
5922.85
5936.54
5949.33
5961.13
5971.94
5981.64
5990.01
5996.94
6004.52
6011.41
6017.66
6023.11
6027.74
6031.23
6033.96
6036.1
6036.58
6036.58
6035.47
6033.29
6030.44
6026.77
6022.34
6017.17
6011.25
6004.63
5997.31
5989.48
5980.7
5971.77
5961.6
5951.55
5940.16
5929.12
5916.7
5904.89
5891.7
5879.17
5865.74
5852.48
5838.96
5825.36
5811.66
5797.9
5784.1
5770.28
5756.53
5742.84
5729.29
5715.83
5702.46
5689.01
5675.17
5660.22
5643.27
5621.65
5590.2
5473.54
11463.2
1993.51
999.245
815.981
697.019
613.37
617.606
616.675
606.081
586.513
563.051
539.482
518.245
500.758
488.884
480.672
479.941
485.252
502.947
557.48
639.937
740.888
850.486
959.699
1056.13
1132.05
1172
1165.25
1128.06
1047.12
927.172
783.98
654.055
571.655
502.897
462.33
449.575
455.744
470.548
498.714
530.767
559.503
635.283
745.076
873.284
1094.08
1419.2
1706.85
1891.59
1998.02
2052.73
2061.59
2035.9
1993.04
1935.12
1872.76
1836.89
1832.85
1747.59
1760.25
1680.13
1664.12
1631.83
1648.76
1644.59
1641.56
1640.59
1642.09
1644.49
1648.89
1653.75
1659.81
1666.27
1673.37
1680.76
1688.47
1696.34
1704.35
1712.41
1720.51
1728.57
1736.59
1744.51
1752.34
1760.02
1767.57
1774.92
1782.09
1789.02
1795.74
1802.2
1808.44
1814.45
1820.26
1825.91
1831.45
1837.02
1842.75
1848.93
1855.83
1863.83
1872.41
1880.59
1888.67
1896.54
1904.23
1911.73
1919.04
1926.15
1933.07
1939.8
1946.33
1952.66
1958.79
1964.73
1970.46
1975.99
1981.32
1986.43
1991.33
1996.03
2000.52
2004.81
2008.89
2012.75
2016.38
2019.79
2022.97
2025.92
2028.7
2031.45
2034.03
2036.42
2038.6
2040.58
2042.41
2043.89
2044.94
2044.92
2044.64
2044.39
2043.89
2043.19
2042.29
2041.2
2039.91
2038.44
2036.81
2035.06
2032.9
2031.2
2028.15
2026.35
2022.9
2020.89
2017.09
2014.89
2010.81
2008.31
2004.46
2001.27
1997.73
1994.19
1990.58
1986.93
1983.24
1979.52
1975.8
1972.06
1968.35
1964.66
1961.03
1957.46
1953.95
1950.58
1947.42
1944.56
1942.49
1940.33
1948.6
11463.2
2010.67
807.736
617.624
650.704
664.004
640.768
591.255
532.762
477.245
427.685
386.604
354.135
328.557
308.814
293.602
282.901
274.884
272.224
275.217
283.372
303.033
334.604
378.136
432.438
492.836
553.623
601.483
632.258
630.607
609.266
569.693
509.75
440.349
388.451
370.887
376.469
394.346
419.563
466.986
550.638
672.997
846.819
1042.27
1206.93
1342.37
1468.28
1534.76
1547.53
1527.27
1476.89
1420.99
1361.38
1307.13
1255.49
1212.73
1180.87
1155.02
1134.1
1123.97
1103.48
1097.99
1089.49
1088.05
1086.35
1085.81
1086.39
1088.11
1090.33
1093.2
1096.4
1099.99
1103.79
1107.8
1111.95
1116.21
1120.54
1124.91
1129.31
1133.72
1138.11
1142.48
1146.82
1151.11
1155.35
1159.53
1163.65
1167.7
1171.68
1175.59
1179.45
1183.26
1187.03
1190.8
1194.58
1198.42
1202.34
1206.39
1210.6
1214.97
1219.47
1223.9
1228.21
1232.44
1236.57
1240.59
1244.51
1248.32
1252.03
1255.63
1259.11
1262.49
1265.75
1268.9
1271.93
1274.85
1277.64
1280.31
1282.86
1285.28
1287.58
1289.75
1291.8
1293.72
1295.51
1297.17
1298.69
1300.09
1301.37
1302.54
1303.61
1304.56
1305.37
1306.05
1306.59
1307.01
1307.2
1307.14
1306.9
1306.58
1306.17
1305.57
1304.86
1304.03
1303.07
1302.01
1300.83
1299.54
1298.14
1296.61
1295.07
1293.22
1291.55
1289.47
1287.65
1285.38
1283.42
1280.97
1278.87
1276.37
1274.01
1271.51
1268.98
1266.4
1263.77
1261.11
1258.42
1255.72
1252.99
1250.27
1247.55
1244.86
1242.23
1239.68
1237.28
1235.17
1233.49
1232.85
1233.7
1243.35
11463.2
2030.93
976.111
933.763
878.757
763.926
651.016
546.762
462.947
400.222
353.247
316.559
287.836
265.573
248.417
235.306
225.497
218.387
213.619
211.561
212.161
215.932
222.974
236.88
257.868
285.999
320.269
355.554
387.356
411.146
417.537
412.742
391.36
380.545
407.323
476.967
539.39
587.952
643.967
723.36
842.319
981.14
1084.5
1157.77
1221.2
1262.56
1271.55
1212.52
1182.94
1127.77
1080.46
1035.83
997.75
965.649
938.706
917.728
901.863
889.386
881.096
875.786
869.576
867.784
865.489
865.436
865.933
867.165
868.943
871.17
873.704
876.521
879.536
882.724
886.037
889.454
892.947
896.498
900.089
903.708
907.342
910.981
914.617
918.242
921.851
925.44
929.002
932.538
936.044
939.522
942.973
946.401
949.81
953.208
956.602
960.001
963.415
966.85
970.313
973.804
977.313
980.823
984.3
987.703
991.03
994.279
997.448
1000.53
1003.54
1006.45
1009.28
1012.01
1014.66
1017.21
1019.66
1022.02
1024.28
1026.44
1028.5
1030.45
1032.29
1034.03
1035.66
1037.19
1038.61
1039.93
1041.13
1042.23
1043.21
1044.09
1044.86
1045.53
1046.1
1046.56
1046.9
1047.13
1047.23
1047.22
1047.07
1046.76
1046.33
1045.82
1045.2
1044.47
1043.64
1042.7
1041.67
1040.53
1039.29
1037.96
1036.52
1035
1033.4
1031.66
1029.9
1028
1026.09
1024.03
1021.99
1019.77
1017.6
1015.28
1012.96
1010.56
1008.12
1005.63
1003.1
1000.53
997.94
995.321
992.685
990.041
987.401
984.782
982.204
979.71
977.364
975.269
973.571
972.745
973.415
979.194
11463.2
2265
1408.64
1161.36
930.946
726.507
562.483
450.507
373.221
319.49
281.629
254.49
234.726
219.88
208.475
199.633
192.828
187.755
184.242
182.263
182.383
183.55
186.527
192.877
203.056
218.1
238.442
261.911
285.982
307.296
321.073
336.8
389.747
473.474
560.52
623.241
685.012
756.24
832.06
903.514
965.839
1020.27
1063.98
1083.58
1084.14
1038.29
1000.41
956.937
922.068
883.616
854.233
827.929
806.789
789.469
775.776
765.436
757.894
752.446
749.173
747.532
746.055
746.121
746.866
748.337
750.251
752.565
755.184
758.047
761.099
764.307
767.637
771.067
774.574
778.145
781.762
785.416
789.096
792.793
796.499
800.208
803.914
807.612
811.298
814.969
818.622
822.257
825.872
829.467
833.044
836.603
840.148
843.681
847.204
850.718
854.223
857.718
861.197
864.653
868.072
871.443
874.754
877.994
881.16
884.25
887.26
890.187
893.029
895.783
898.447
901.02
903.498
905.882
908.169
910.357
912.444
914.427
916.305
918.077
919.741
921.298
922.748
924.09
925.326
926.453
927.472
928.383
929.185
929.879
930.466
930.947
931.32
931.581
931.73
931.755
931.653
931.452
931.124
930.673
930.112
929.45
928.687
927.816
926.844
925.771
924.596
923.323
921.95
920.481
918.911
917.253
915.503
913.657
911.741
909.73
907.659
905.491
903.274
900.962
898.613
896.179
893.699
891.16
888.57
885.934
883.258
880.547
877.804
875.035
872.247
869.447
866.65
863.87
861.139
858.486
855.965
853.661
851.694
850.395
850.352
853.101
11463.2
2835.64
1697.52
1197.49
836.627
592.185
448.216
358.613
303.817
268.459
243.473
224.653
209.878
197.94
188.32
180.658
174.733
170.391
167.483
166
166.09
167.206
169.887
174.715
181.916
192.413
207.399
226.625
250.739
285.135
337.215
412.094
517.412
607.06
671.722
732.613
789.477
836.603
874.931
909.435
940.83
953.335
943.467
911.956
883.638
847.991
817.646
787.666
762.949
740.323
722.629
707.553
695.658
686.309
679.327
674.411
671.334
669.711
669.253
669.494
670.544
672.303
674.562
677.23
680.207
683.436
686.862
690.446
694.155
697.965
701.858
705.816
709.829
713.883
717.97
722.081
726.208
730.345
734.485
738.623
742.755
746.877
750.985
755.077
759.151
763.204
767.237
771.247
775.236
779.202
783.147
787.069
790.967
794.84
798.683
802.493
806.262
809.982
813.641
817.235
820.756
824.201
827.565
830.844
834.034
837.132
840.135
843.04
845.843
848.543
851.136
853.622
856
858.266
860.42
862.459
864.382
866.187
867.874
869.443
870.895
872.229
873.447
874.548
875.532
876.399
877.15
877.785
878.303
878.706
878.991
879.148
879.183
879.084
878.879
878.555
878.107
877.537
876.852
876.057
875.151
874.134
873.009
871.778
870.438
868.992
867.441
865.787
864.029
862.174
860.22
858.173
856.038
853.815
851.513
849.125
846.665
844.124
841.521
838.847
836.114
833.322
830.476
827.583
824.648
821.675
818.669
815.635
812.58
809.512
806.444
803.392
800.38
797.438
794.611
791.968
789.602
787.748
786.76
787.491
11463.2
3369.08
1760.3
1044.86
659.585
462.484
357.633
298.788
262.031
237.019
218.731
204.611
193.349
184.17
176.467
170.065
164.952
161.135
158.71
157.743
158.237
160.165
164.107
170.393
179.887
193.542
212.143
239.858
284.042
352.197
453.577
549.997
621.037
680.479
731.149
770.463
801.428
828.121
846.32
852.618
841.034
817.395
796.236
769.732
745.422
720.479
699.076
679.802
663.886
650.321
639.527
630.803
624.165
619.335
616.197
614.614
614.151
614.546
615.882
617.844
620.408
623.442
626.848
630.55
634.484
638.605
642.874
647.261
651.744
656.304
660.927
665.6
670.313
675.059
679.827
684.613
689.407
694.204
698.998
703.784
708.557
713.314
718.05
722.765
727.454
732.117
736.752
741.356
745.929
750.468
754.974
759.442
763.871
768.256
772.594
776.879
781.106
785.268
789.362
793.382
797.317
801.162
804.912
808.562
812.108
815.547
818.873
822.084
825.176
828.146
830.992
833.709
836.293
838.748
841.072
843.265
845.325
847.252
849.046
850.707
852.236
853.634
854.902
856.039
857.048
857.927
858.678
859.3
859.795
860.162
860.396
860.483
860.438
860.272
859.979
859.556
859.003
858.322
857.515
856.587
855.539
854.37
853.079
851.661
850.124
848.471
846.703
844.823
842.83
840.73
838.523
836.214
833.809
831.31
828.72
826.04
823.278
820.434
817.517
814.527
811.472
808.355
805.182
801.957
798.688
795.379
792.035
788.66
785.262
781.851
778.438
775.039
771.675
768.373
765.172
762.124
759.302
756.872
755.011
754.166
11463.2
3542.54
1579.05
828.719
521.303
383.787
314.804
274.058
246.592
227.057
212.038
199.83
189.506
180.607
173.023
166.768
161.976
158.85
157.442
157.747
159.535
163.231
169.573
179.299
194.774
219.384
257.318
318.671
404.621
490.894
557.85
613.805
661.792
701.161
732.329
758.284
771.331
774.175
763.527
746.013
728.093
708.059
689.296
669.783
651.75
634.852
620.417
608.008
597.794
589.444
582.939
578.05
574.671
572.864
572.238
572.476
573.732
575.762
578.487
581.758
585.506
589.636
594.077
598.768
603.66
608.715
613.9
619.192
624.569
630.015
635.516
641.061
646.639
652.241
657.86
663.49
669.121
674.747
680.361
685.957
691.532
697.079
702.597
708.081
713.529
718.938
724.31
729.638
734.919
740.153
745.336
750.465
755.537
760.545
765.487
770.355
775.145
779.853
784.479
789.007
793.43
797.742
801.937
806.012
809.962
813.782
817.468
821.018
824.427
827.692
830.812
833.784
836.609
839.284
841.808
844.182
846.405
848.477
850.397
852.167
853.789
855.262
856.589
857.769
858.805
859.697
860.445
861.051
861.513
861.834
861.994
862.009
861.879
861.613
861.205
860.657
859.966
859.136
858.169
857.067
855.831
854.465
852.971
851.343
849.587
847.704
845.697
843.567
841.316
838.948
836.464
833.87
831.171
828.37
825.47
822.474
819.387
816.214
812.961
809.633
806.234
802.769
799.244
795.665
792.039
788.369
784.662
780.923
777.16
773.383
769.603
765.835
762.099
758.419
754.826
751.365
748.089
745.119
742.492
740.33
11463.2
3420.83
1305.21
666.505
441.121
342.784
290.719
259.636
239.07
223.043
210.038
199.119
189.745
181.706
174.942
169.62
166.027
164.296
164.556
167.28
172.759
182.267
197.405
219.644
253.516
305.013
371.352
440.815
500.82
551.981
595.159
632.018
663.264
690.664
705.369
708.768
701.15
688.447
673.505
657.698
642.601
627.652
613.398
599.455
586.665
575.222
565.512
557.401
550.883
545.835
542.184
539.96
539.028
538.945
539.922
541.761
544.401
547.723
551.638
556.05
560.886
566.076
571.558
577.281
583.2
589.281
595.494
601.817
608.229
614.708
621.241
627.813
634.411
641.025
647.644
654.269
660.885
667.484
674.058
680.602
687.109
693.576
700
706.375
712.697
718.959
725.149
731.281
737.355
743.367
749.314
755.193
760.996
766.72
772.358
777.902
783.346
788.683
793.903
799
803.969
808.804
813.499
818.049
822.449
826.695
830.783
834.709
838.47
842.062
845.484
848.734
851.812
854.716
857.448
860.008
862.395
864.609
866.652
868.525
870.231
871.769
873.143
874.353
875.4
876.287
877.013
877.581
877.989
878.231
878.304
878.216
877.975
877.578
877.024
876.315
875.451
874.434
873.266
871.948
870.484
868.874
867.121
865.226
863.189
861.015
858.704
856.26
853.684
850.979
848.15
845.2
842.134
838.958
835.674
832.286
828.801
825.224
821.561
817.818
814
810.112
806.16
802.15
798.089
793.983
789.837
785.657
781.453
777.234
773.012
768.802
764.62
760.489
756.437
752.498
748.712
745.172
741.89
738.694
11463.2
3019.6
1055.56
573.195
405.552
327.953
284.683
257.62
239.262
225.875
215.117
205.94
197.972
191.253
186.016
182.803
181.915
183.823
188.706
197.544
211.337
232.495
263.204
304.76
354.413
405.133
454.084
498.17
536.602
570.009
598.95
625.026
642.78
649.015
646.838
638.558
627.199
614.776
602.526
590.805
579.698
568.893
558.488
548.589
539.634
531.839
525.353
520.152
516.213
513.477
512.091
511.692
512.239
513.726
516.098
519.262
523.141
527.651
532.716
538.262
544.227
550.549
557.172
564.045
571.126
578.379
585.772
593.287
600.906
608.593
616.328
624.095
631.877
639.655
647.404
655.086
662.733
670.354
677.947
685.501
693.011
700.471
707.88
715.232
722.525
729.756
736.928
744.023
751.031
757.95
764.775
771.501
778.124
784.636
791.03
797.299
803.436
809.431
815.28
820.978
826.52
831.899
837.109
842.144
847
851.671
856.155
860.448
864.547
868.449
872.152
875.655
878.958
882.061
884.966
887.674
890.186
892.502
894.625
896.558
898.303
899.861
901.235
902.427
903.438
904.27
904.925
905.404
905.705
905.819
905.756
905.519
905.108
904.526
903.773
902.85
901.757
900.496
899.07
897.481
895.73
893.821
891.754
889.532
887.157
884.632
881.959
879.141
876.181
873.082
869.847
866.482
862.992
859.381
855.655
851.819
847.879
843.842
839.714
835.502
831.211
826.846
822.413
817.919
813.372
808.776
804.138
799.466
794.77
790.06
785.347
780.645
775.971
771.344
766.787
762.329
758.001
753.875
749.937
745.777
11463.2
2545.37
886.673
510.878
377.643
315.704
281.601
260.902
246.814
236.194
227.609
220.493
214.828
211.127
209.902
211.53
217.084
226.156
238.612
256.089
280.03
310.239
345.094
382.36
419.525
454.625
486.972
515.989
541.677
565.166
584.386
593.536
595.394
591.969
585.141
576.209
566.799
557.673
549.05
540.831
532.878
525.099
517.616
510.648
504.478
499.279
495.142
492.078
490.198
489.446
489.528
490.624
492.637
495.525
499.238
503.708
508.865
514.639
520.962
527.772
535.015
542.656
550.622
558.854
567.309
575.945
584.714
593.556
602.411
611.335
620.316
629.335
638.372
647.4
656.404
665.388
674.328
683.217
692.052
700.816
709.504
718.115
726.647
735.098
743.463
751.735
759.903
767.958
775.897
783.718
791.416
798.988
806.425
813.722
820.869
827.859
834.683
841.333
847.805
854.093
860.191
866.09
871.786
877.271
882.54
887.59
892.418
897.021
901.396
905.542
909.456
913.14
916.593
919.817
922.816
925.591
928.144
930.478
932.597
934.504
936.203
937.696
938.986
940.075
940.967
941.661
942.162
942.47
942.579
942.493
942.214
941.745
941.087
940.243
939.213
937.998
936.601
935.022
933.264
931.329
929.219
926.937
924.486
921.866
919.082
916.136
913.031
909.771
906.359
902.799
899.094
895.249
891.27
887.163
882.933
878.587
874.133
869.579
864.93
860.195
855.377
850.483
845.517
840.488
835.402
830.266
825.087
819.875
814.639
809.392
804.143
798.906
793.695
788.529
783.428
778.416
773.515
768.788
764.213
759.172
11463.2
2184.25
815.869
492.526
372.836
317.272
288.463
271.363
260.086
252.03
246.073
242.012
240.28
240.609
244.463
251.962
262.799
276.519
293.967
315.294
339.762
366.27
393.615
420.641
446.473
470.395
492.294
512.841
530.961
542.388
546.701
547.146
544.598
539.637
533.493
526.965
520.598
514.522
508.677
502.958
497.315
491.799
486.577
481.865
477.871
474.734
472.559
471.514
471.33
472.135
473.86
476.512
480.05
484.442
489.665
495.676
502.368
509.677
517.541
525.889
534.636
543.645
552.949
562.559
572.441
582.553
592.853
603.313
613.917
624.589
635.286
645.975
656.646
667.244
677.742
688.131
698.393
708.519
718.51
728.389
738.164
747.839
757.417
766.9
776.281
785.55
794.691
803.694
812.551
821.258
829.809
838.201
846.425
854.473
862.335
870.002
877.465
884.715
891.747
898.555
905.132
911.47
917.562
923.402
928.984
934.305
939.364
944.159
948.69
952.955
956.956
960.691
964.163
967.375
970.332
973.039
975.497
977.714
979.693
981.44
982.962
984.26
985.335
986.194
986.841
987.275
987.501
987.519
987.325
986.923
986.315
985.504
984.492
983.281
981.871
980.265
978.464
976.469
974.285
971.911
969.352
966.608
963.684
960.581
957.303
953.854
950.236
946.454
942.513
938.416
934.167
929.771
925.233
920.56
915.76
910.842
905.814
900.684
895.457
890.142
884.744
879.267
873.717
868.101
862.427
856.702
850.935
845.137
839.319
833.492
827.666
821.853
816.067
810.324
804.642
799.042
793.543
788.197
782.997
777.134
11463.2
1888.42
746.019
471.753
370.377
323.689
299.364
285.392
276.746
271.254
268.331
267.432
268.67
272.906
280.16
290.231
302.842
317.828
334.867
353.642
373.53
393.83
413.738
432.574
450.473
467.767
483.594
495.6
501.817
504.378
505.062
503.838
501.089
497.475
493.533
489.542
485.624
481.762
477.92
474.087
470.322
466.747
463.536
460.869
458.917
457.945
457.772
458.61
460.495
463.313
467.026
471.62
477.056
483.27
490.136
497.602
505.776
514.637
524.127
534.187
544.76
555.832
567.317
579.147
591.268
603.629
616.168
628.831
641.584
654.331
666.982
679.474
691.741
703.778
715.577
727.133
738.455
749.559
760.477
771.249
781.901
792.443
802.887
813.239
823.486
833.613
843.598
853.423
863.075
872.545
881.827
890.915
899.799
908.47
916.916
925.125
933.087
940.793
948.235
955.408
962.304
968.915
975.233
981.25
986.963
992.369
997.469
1002.26
1006.75
1010.94
1014.82
1018.41
1021.7
1024.7
1027.41
1029.85
1032.02
1033.92
1035.57
1036.96
1038.12
1039.04
1039.72
1040.17
1040.4
1040.4
1040.18
1039.76
1039.1
1038.23
1037.14
1035.85
1034.34
1032.63
1030.7
1028.58
1026.25
1023.72
1020.99
1018.06
1014.94
1011.63
1008.13
1004.44
1000.57
996.517
992.293
987.899
983.339
978.62
973.745
968.72
963.548
958.236
952.797
947.241
941.577
935.81
929.947
923.995
917.96
911.847
905.662
899.411
893.098
886.737
880.338
873.914
867.474
861.029
854.589
848.164
841.768
835.413
829.118
822.902
816.783
810.802
804.984
798.348
11463.2
1894.13
745.548
474.819
378.179
334.848
313.182
301.396
294.634
291.263
290.165
291.023
294.623
300.633
308.841
318.947
330.65
343.673
357.748
372.43
387.226
401.677
415.846
429.906
442.976
453.416
460.48
465.108
467.913
469.09
469.348
468.711
467.41
465.758
463.933
462.02
460.056
458.057
456.065
454.163
452.499
451.316
450.742
450.696
451.431
453.018
455.407
458.55
462.217
466.784
472.314
478.811
486.253
494.609
503.88
514.054
525.062
536.857
549.356
562.481
576.16
590.331
604.894
619.752
634.829
650.084
665.394
680.62
695.632
710.351
724.725
738.695
752.216
765.278
777.876
790.022
801.769
813.177
824.334
835.353
846.293
857.154
867.966
878.744
889.452
900.061
910.537
920.847
930.97
940.892
950.601
960.086
969.335
978.336
987.077
995.544
1003.72
1011.6
1019.17
1026.42
1033.35
1039.94
1046.2
1052.1
1057.66
1062.85
1067.7
1072.19
1076.35
1080.16
1083.64
1086.79
1089.61
1092.11
1094.3
1096.2
1097.83
1099.17
1100.22
1101.01
1101.56
1101.85
1101.88
1101.68
1101.27
1100.6
1099.72
1098.62
1097.3
1095.77
1094.02
1092.05
1089.88
1087.49
1084.89
1082.09
1079.08
1075.86
1072.45
1068.83
1065.01
1061.01
1056.8
1052.41
1047.83
1043.07
1038.14
1033.03
1027.75
1022.32
1016.73
1010.99
1005.1
999.074
992.926
986.667
980.302
973.837
967.278
960.631
953.903
947.1
940.228
933.293
926.295
919.255
912.186
905.098
898.001
890.904
883.817
876.749
869.712
862.716
855.78
848.927
842.171
835.545
829.116
821.746
11463.2
1841.04
733.427
478.362
387.976
347.774
327.82
317.041
311.187
308.572
307.967
309.623
313.768
319.79
327.302
335.951
345.513
355.751
366.405
377.185
388.037
399.093
409.304
417.694
424.451
429.897
434.362
437.738
440.298
442.22
443.721
444.907
445.941
446.867
447.642
448.308
448.918
449.525
450.194
450.982
451.912
452.862
454.263
456.388
459.49
463.719
468.931
475.141
482.469
490.853
500.327
510.908
522.566
535.256
548.953
563.621
579.23
595.74
612.926
630.642
648.762
667.159
685.703
704.26
722.695
740.837
758.593
775.879
792.585
808.611
823.871
838.299
851.896
864.715
876.768
888.063
898.766
908.982
918.885
928.803
938.873
948.967
959.16
969.525
979.967
990.39
1000.72
1010.89
1020.89
1030.67
1040.24
1049.57
1058.66
1067.49
1076.05
1084.31
1092.26
1099.88
1107.16
1114.09
1120.66
1126.85
1132.67
1138.09
1143.1
1147.72
1151.94
1155.77
1159.21
1162.29
1165
1167.35
1169.34
1170.97
1172.27
1173.29
1174.01
1174.43
1174.54
1174.37
1173.99
1173.33
1172.4
1171.24
1169.84
1168.22
1166.38
1164.33
1162.07
1159.61
1156.94
1154.06
1150.97
1147.68
1144.18
1140.47
1136.57
1132.47
1128.17
1123.68
1118.99
1114.11
1109.04
1103.78
1098.34
1092.73
1086.93
1080.97
1074.85
1068.56
1062.14
1055.57
1048.87
1042.06
1035.14
1028.11
1020.98
1013.76
1006.44
999.043
991.566
984.018
976.409
968.743
961.02
953.267
945.495
937.713
929.929
922.151
914.388
906.649
898.946
891.286
883.693
876.189
868.788
861.511
854.477
846.417
11463.7
1824.05
734.604
486.885
398.641
359.546
340.513
329.984
324.058
321.407
320.752
322.181
325.792
330.87
336.982
343.831
351.285
359.222
367.52
375.823
383.749
391.089
397.964
404.533
410.594
416.25
421.566
426.551
431.258
435.686
439.821
443.602
446.878
449.778
452.634
455.54
458.569
461.8
465.319
469.218
473.616
478.736
484.7
491.681
499.94
509.569
520.257
532.075
545.076
559.227
574.563
591.201
609.07
627.946
647.693
668.178
689.211
710.601
732.265
754.067
775.848
797.456
818.747
839.587
859.855
879.435
898.24
916.198
933.239
949.294
964.257
977.983
990.655
1002.47
1013.56
1024.01
1033.83
1043.02
1051.68
1059.98
1068.05
1076.05
1084.36
1093.31
1102.52
1111.79
1121
1130.08
1138.99
1147.71
1156.23
1164.53
1172.62
1180.47
1188.05
1195.35
1202.33
1208.98
1215.27
1221.19
1226.74
1231.9
1236.65
1240.97
1244.85
1248.29
1251.32
1253.92
1256.09
1257.89
1259.32
1260.36
1261.02
1261.27
1261.2
1260.9
1260.25
1259.3
1258.06
1256.55
1254.8
1252.8
1250.56
1248.09
1245.41
1242.53
1239.44
1236.16
1232.69
1229.03
1225.17
1221.13
1216.89
1212.47
1207.85
1203.05
1198.06
1192.88
1187.53
1181.99
1176.27
1170.37
1164.3
1158.04
1151.61
1145.02
1138.26
1131.34
1124.26
1117.04
1109.68
1102.19
1094.58
1086.88
1079.08
1071.18
1063.17
1055.08
1046.9
1038.65
1030.32
1021.93
1013.49
1005.02
996.526
988.023
979.511
970.998
962.488
953.99
945.514
937.072
928.673
920.325
912.057
903.89
895.835
887.901
880.26
871.547
11462.8
1806
735.929
492.902
406.253
367.778
349.135
338.498
332.462
329.723
328.979
330.12
333.305
337.833
343.44
349.792
356.716
364.01
371.531
379.286
387.214
394.985
402.578
410.091
417.491
424.842
432.185
439.559
447.004
454.456
461.908
469.416
477.131
485.145
493.48
502.211
511.414
521.164
531.543
542.64
554.554
567.401
581.192
595.917
611.502
627.81
645.065
663.381
682.723
703.049
724.348
746.675
769.672
793.274
817.354
841.747
866.262
890.682
914.822
938.497
961.554
983.851
1005.27
1025.71
1045.1
1063.38
1080.5
1096.48
1111.33
1125.09
1137.85
1149.67
1160.36
1170.28
1179.65
1188.6
1196.98
1204.75
1211.97
1218.54
1224.54
1230.45
1236.78
1243.48
1250.26
1257.03
1263.74
1270.37
1276.89
1283.28
1289.53
1295.64
1301.59
1307.32
1312.82
1318.06
1323.02
1327.67
1331.98
1335.96
1339.57
1342.81
1345.66
1348.08
1350.06
1351.62
1352.77
1353.55
1353.83
1353.84
1353.53
1352.83
1351.76
1350.34
1348.65
1346.67
1344.43
1341.92
1339.16
1336.17
1332.95
1329.53
1325.9
1322.09
1318.09
1313.92
1309.58
1305.07
1300.4
1295.56
1290.57
1285.4
1280.07
1274.57
1268.9
1263.07
1257.07
1250.91
1244.58
1238.09
1231.44
1224.62
1217.64
1210.5
1203.2
1195.74
1188.13
1180.37
1172.47
1164.43
1156.26
1147.96
1139.54
1131.01
1122.37
1113.63
1104.8
1095.88
1086.87
1077.79
1068.65
1059.46
1050.22
1040.94
1031.68
1022.41
1013.13
1003.86
994.6
985.358
976.149
966.983
957.878
948.863
939.944
931.138
922.452
913.887
905.658
896.364
11461.8
1794.65
738.701
495.427
411.008
373.484
355.728
345.549
340.463
338.534
338.362
340.575
344.653
350.088
356.514
364.117
372.856
381.702
391.077
401.267
412.312
423.797
435.53
447.744
460.475
473.746
487.557
501.911
516.784
532.226
548.354
565.219
582.891
601.341
620.49
640.319
660.825
681.995
703.859
726.505
749.806
773.639
797.856
822.296
846.78
871.216
895.844
921.287
946.992
972.769
998.48
1023.68
1048.55
1073.1
1097.24
1120.89
1143.89
1166.11
1187.4
1207.64
1226.75
1244.66
1261.27
1276.53
1290.42
1302.95
1314.04
1323.8
1332.33
1339.75
1346.32
1352.46
1358.16
1363.37
1368.08
1372.31
1375.95
1379.04
1381.91
1384.69
1387.56
1391.02
1394.64
1397.85
1400.87
1403.85
1406.83
1409.85
1412.9
1415.96
1419.01
1422.02
1424.96
1427.71
1430.29
1432.71
1434.92
1436.9
1438.62
1440.06
1441.19
1442
1442.5
1442.61
1442.28
1441.62
1440.63
1439.31
1437.64
1435.68
1433.43
1430.87
1428.03
1424.92
1421.58
1418.01
1414.24
1410.27
1406.1
1401.76
1397.24
1392.56