/*--------------------------------*- C++ -*----------------------------------*\
  =========                 |
  \\      /  F ield         | OpenFOAM: The Open Source CFD Toolbox
   \\    /   O peration     | Website:  https://openfoam.org
    \\  /    A nd           | Version:  13
     \\/     M anipulation  |
\*---------------------------------------------------------------------------*/
FoamFile
{
    format      ascii;
    class       volScalarField;
    location    "1500";
    object      p;
}
// * * * * * * * * * * * * * * * * * * * * * * * * * * * * * * * * * * * * * //

dimensions      [0 2 -2 0 0 0 0];

internalField   nonuniform List<scalar> 
12225
(
-4.24342
-5.09985
-5.51153
-5.65921
-5.80652
-5.97522
-6.12175
-6.23831
-6.33892
-6.43553
-6.52375
-6.59852
-6.66225
-6.71959
-6.77526
-6.83062
-6.89784
-6.99271
-4.51376
-5.13962
-5.48973
-5.63065
-5.77447
-5.94411
-6.09316
-6.2111
-6.31345
-6.40404
-6.48562
-6.5634
-6.63388
-6.69447
-6.74864
-6.80663
-6.8669
-6.91494
-4.69589
-5.13033
-5.46754
-5.64063
-5.78946
-5.95096
-6.09475
-6.21164
-6.31208
-6.40042
-6.48064
-6.55555
-6.62252
-6.68148
-6.73562
-6.79057
-6.84113
-6.87567
-4.83317
-5.14876
-5.47062
-5.65794
-5.79911
-5.94533
-6.08281
-6.19794
-6.29599
-6.38295
-6.46231
-6.53535
-6.60121
-6.6607
-6.71563
-6.76789
-6.81417
-6.84764
-4.96509
-5.20004
-5.48581
-5.66904
-5.80443
-5.94205
-6.07666
-6.19131
-6.28803
-6.37384
-6.45217
-6.52378
-6.58863
-6.64738
-6.70109
-6.75039
-6.79368
-6.82717
-5.08184
-5.27187
-5.50699
-5.6753
-5.81031
-5.94358
-6.07337
-6.18508
-6.27937
-6.36308
-6.43944
-6.50904
-6.5721
-6.62926
-6.68132
-6.72856
-6.7701
-6.80367
-5.18587
-5.3288
-5.5247
-5.68906
-5.82213
-5.9488
-6.0709
-6.17829
-6.27034
-6.35225
-6.42687
-6.49487
-6.55663
-6.61274
-6.66377
-6.70981
-6.75033
-6.78402
-5.27913
-5.38049
-5.55387
-5.70976
-5.83634
-5.95465
-6.06882
-6.17174
-6.26147
-6.34146
-6.41428
-6.48077
-6.54129
-6.59626
-6.64607
-6.69078
-6.73012
-6.76345
-5.36176
-5.43735
-5.58783
-5.73069
-5.8497
-5.96057
-6.06782
-6.16616
-6.25317
-6.33107
-6.40212
-6.46711
-6.5263
-6.57998
-6.62849
-6.67191
-6.71028
-6.74333
-5.43586
-5.49521
-5.62172
-5.75098
-5.86288
-5.96709
-6.06786
-6.16138
-6.24535
-6.32105
-6.39021
-6.45354
-6.51118
-6.56346
-6.61064
-6.65292
-6.69052
-6.72336
-5.50299
-5.55071
-5.65571
-5.77127
-5.87571
-5.97347
-6.06802
-6.15674
-6.23755
-6.31094
-6.37812
-6.43965
-6.49574
-6.54667
-6.59269
-6.63405
-6.67105
-6.7037
-5.55876
-5.59828
-5.68677
-5.79009
-5.8873
-5.97919
-6.06825
-6.15263
-6.2304
-6.30151
-6.36678
-6.42667
-6.48138
-6.53115
-6.57622
-6.61685
-6.65335
-6.68576
-5.60893
-5.64209
-5.71692
-5.80882
-5.89884
-5.98503
-6.06884
-6.14894
-6.22355
-6.29229
-6.3556
-6.41384
-6.46719
-6.51582
-6.55999
-6.59991
-6.63591
-6.66806
-5.66008
-5.68766
-5.74996
-5.83013
-5.91211
-5.99198
-6.07008
-6.14537
-6.21629
-6.2822
-6.3432
-6.3995
-6.45125
-6.49858
-6.5417
-6.58083
-6.61627
-6.64809
-5.71028
-5.73301
-5.78441
-5.85329
-5.9267
-5.99979
-6.07186
-6.14199
-6.20878
-6.27143
-6.32978
-6.38388
-6.4338
-6.47967
-6.52163
-6.55988
-6.5947
-6.62618
-5.7566
-5.77532
-5.81776
-5.87649
-5.94143
-6.00763
-6.07368
-6.13853
-6.20098
-6.26012
-6.31559
-6.3673
-6.41528
-6.45956
-6.50029
-6.53762
-6.57179
-6.6029
-5.79501
-5.81061
-5.84621
-5.89664
-5.95407
-6.01391
-6.07437
-6.13429
-6.19253
-6.24819
-6.30078
-6.35012
-6.39613
-6.43884
-6.47833
-6.51474
-6.54825
-6.57898
-5.81948
-5.83303
-5.86417
-5.90899
-5.96095
-6.01592
-6.07199
-6.12797
-6.18276
-6.23547
-6.28557
-6.33282
-6.37711
-6.41842
-6.4568
-6.49237
-6.52527
-6.55563
-5.82056
-5.83345
-5.86324
-5.90623
-5.95616
-6.00904
-6.06308
-6.11713
-6.17012
-6.22117
-6.26979
-6.31573
-6.3589
-6.39929
-6.43694
-6.47196
-6.50448
-6.53465
-5.78994
-5.80448
-5.83769
-5.8845
-5.93742
-5.99241
-6.04805
-6.10338
-6.15725
-6.20883
-6.25769
-6.30369
-6.3468
-6.38704
-6.42451
-6.45934
-6.4917
-6.52177
-5.74488
-5.7625
-5.8022
-5.85616
-5.91466
-5.97375
-6.03279
-6.09097
-6.14703
-6.20017
-6.25012
-6.2969
-6.34052
-6.38107
-6.41868
-6.45356
-6.48586
-6.51588
-5.6865
-5.70939
-5.75961
-5.82397
-5.88983
-5.95432
-6.01806
-6.08017
-6.13915
-6.19431
-6.24572
-6.29353
-6.33785
-6.37884
-6.41669
-6.45167
-6.484
-6.514
-5.6169
-5.64835
-5.7139
-5.79115
-5.8649
-5.93545
-6.00485
-6.0716
-6.13384
-6.19126
-6.2443
-6.29326
-6.3383
-6.37963
-6.41761
-6.45255
-6.48479
-6.51463
-5.53682
-5.58217
-5.66925
-5.76045
-5.84119
-5.91801
-5.9938
-6.06544
-6.13084
-6.19045
-6.24513
-6.29523
-6.34092
-6.38255
-6.42055
-6.45538
-6.48744
-6.51716
-5.44595
-5.51326
-5.62915
-5.73394
-5.81971
-5.90262
-5.98514
-6.06161
-6.13
-6.19166
-6.24783
-6.29886
-6.34495
-6.38657
-6.42432
-6.45875
-6.4903
-6.51955
-5.34383
-5.44435
-5.59461
-5.71124
-5.80063
-5.88933
-5.97789
-6.05846
-6.12953
-6.19333
-6.2512
-6.30335
-6.34999
-6.39174
-6.42935
-6.46352
-6.49476
-6.52387
-5.23096
-5.38165
-5.56414
-5.68752
-5.78196
-5.8784
-5.97267
-6.05619
-6.129
-6.19418
-6.2531
-6.30586
-6.35262
-6.3941
-6.43127
-6.4649
-6.49554
-6.52434
-5.10133
-5.33817
-5.5445
-5.66057
-5.75995
-5.86814
-5.97081
-6.05913
-6.13535
-6.20317
-6.26388
-6.31762
-6.36469
-6.40584
-6.44236
-6.47522
-6.50515
-6.53413
-4.90999
-5.31075
-5.54759
-5.64508
-5.74039
-5.8542
-5.96104
-6.05155
-6.1299
-6.20005
-6.26277
-6.31793
-6.3659
-6.40731
-6.44306
-6.47432
-6.5026
-6.52884
-4.65626
-5.24315
-5.54479
-5.65247
-5.75505
-5.87668
-5.98798
-6.08006
-6.15899
-6.22957
-6.29246
-6.34737
-6.39473
-6.43512
-6.46825
-6.49537
-6.51939
-6.53913
-7.4515
-7.45161
-7.45168
-7.45169
-7.45143
-7.45031
-7.44792
-7.44467
-7.44151
-7.43936
-7.43922
-7.44133
-7.44527
-7.45032
-7.45574
-7.46086
-7.46515
-7.46819
-7.46993
-7.47067
-7.47069
-7.4702
-7.46941
-7.46862
-7.46802
-7.46771
-7.46763
-7.46758
-7.46739
-7.46701
-7.46648
-7.46584
-7.46504
-7.464
-7.46274
-7.46147
-7.46072
-7.46123
-7.46332
-7.4665
-7.46978
-7.47231
-7.47397
-7.47517
-7.47642
-7.47827
-7.48109
-7.48425
-7.48695
-7.48931
-7.49383
-7.50438
-7.52412
-7.55251
-7.58863
-7.63268
-7.68499
-7.74451
-7.80948
-7.87802
-7.94826
-8.01853
-8.08721
-8.15292
-8.2151
-8.27326
-8.32692
-8.37596
-8.42044
-8.46041
-8.49602
-8.52736
-8.55458
-8.57777
-8.59702
-8.6124
-8.62391
-8.6316
-8.63541
-8.63535
-8.63132
-8.62326
-8.61105
-8.59458
-8.57366
-8.54815
-8.51784
-8.48263
-8.44241
-8.39711
-8.34659
-8.29073
-8.22939
-8.16246
-8.08987
-8.01156
-7.92744
-7.8375
-7.74164
-7.63984
-7.53192
-7.41778
-7.29739
-7.17083
-7.03833
-6.90002
-6.7561
-6.60668
-6.45195
-6.29203
-6.12712
-5.95734
-5.78289
-5.6039
-5.42057
-5.23303
-5.04144
-4.84589
-4.64651
-4.44341
-4.23674
-4.02664
-3.81325
-3.5967
-3.37708
-3.15449
-2.92901
-2.70075
-2.46979
-2.23626
-2.00024
-1.76188
-1.52125
-1.27853
-1.03382
-0.787333
-0.539225
-0.289718
-0.0387653
0.21363
0.467234
0.72173
0.976917
1.23261
1.48863
1.74479
2.00089
2.25674
2.51216
2.76694
3.02091
3.27387
3.52564
3.77601
4.0248
4.27182
4.5169
4.75987
5.00057
5.23885
5.47456
5.70756
5.93772
6.16491
6.38897
6.60977
6.82717
7.041
7.25115
7.45745
7.65977
7.85797
8.05192
8.24148
8.42653
8.60698
8.7829
8.95425
9.12411
9.28346
-7.45265
-7.45284
-7.4532
-7.45359
-7.4536
-7.45282
-7.45096
-7.44852
-7.44666
-7.44633
-7.44787
-7.45114
-7.4557
-7.46091
-7.46619
-7.47103
-7.47508
-7.47814
-7.48001
-7.4805
-7.4797
-7.47791
-7.47554
-7.47306
-7.47085
-7.46919
-7.46809
-7.46738
-7.4668
-7.46622
-7.46569
-7.46521
-7.46471
-7.46407
-7.46324
-7.46256
-7.46271
-7.46434
-7.46739
-7.47096
-7.47388
-7.47535
-7.47552
-7.47498
-7.47374
-7.47234
-7.4725
-7.4765
-7.48302
-7.48887
-7.49601
-7.50777
-7.525
-7.54958
-7.58447
-7.63095
-7.68742
-7.75127
-7.8201
-7.8915
-7.96342
-8.03386
-8.10149
-8.16594
-8.22634
-8.28196
-8.33302
-8.37966
-8.42196
-8.46006
-8.49408
-8.52412
-8.55029
-8.57267
-8.5913
-8.60623
-8.61746
-8.62498
-8.62875
-8.62874
-8.62487
-8.61705
-8.60518
-8.58913
-8.56873
-8.54381
-8.51419
-8.47972
-8.44029
-8.39579
-8.34613
-8.29114
-8.23069
-8.16467
-8.09298
-8.01553
-7.93223
-7.84298
-7.74765
-7.64616
-7.53849
-7.42473
-7.30492
-7.17916
-7.04747
-6.91002
-6.7669
-6.61829
-6.46433
-6.30517
-6.14098
-5.97192
-5.79815
-5.61985
-5.43718
-5.2503
-5.05934
-4.86443
-4.66568
-4.46321
-4.25717
-4.04768
-3.8349
-3.61894
-3.3999
-3.17788
-2.95297
-2.72527
-2.49486
-2.26186
-2.02638
-1.78849
-1.54833
-1.306
-1.06164
-0.815351
-0.567259
-0.317481
-0.0662888
0.186021
0.439356
0.693595
0.948545
1.20403
1.45987
1.71587
1.97184
2.22759
2.48293
2.73766
2.9916
3.24455
3.49634
3.74676
3.99562
4.24274
4.48795
4.73106
4.97192
5.21038
5.44629
5.6795
5.90989
6.13731
6.36164
6.58272
6.80041
7.01457
7.22506
7.43173
7.63445
7.83309
8.02751
8.21765
8.40342
8.58473
8.76181
8.9339
9.10616
9.26509
-7.45392
-7.45393
-7.45398
-7.45408
-7.45415
-7.45412
-7.4542
-7.4549
-7.4567
-7.45978
-7.46396
-7.46891
-7.47423
-7.47951
-7.48439
-7.48857
-7.49184
-7.49409
-7.49525
-7.49524
-7.49408
-7.4919
-7.48885
-7.48516
-7.48106
-7.47682
-7.47271
-7.46898
-7.46583
-7.46336
-7.46154
-7.46016
-7.45893
-7.45779
-7.45714
-7.45769
-7.46007
-7.46432
-7.46931
-7.4733
-7.47478
-7.47345
-7.47089
-7.46907
-7.4687
-7.46905
-7.4709
-7.47698
-7.48765
-7.50228
-7.52178
-7.54694
-7.57806
-7.61565
-7.66012
-7.71104
-7.76714
-7.82691
-7.88887
-7.95165
-8.0141
-8.07516
-8.13404
-8.19032
-8.24358
-8.2934
-8.33967
-8.38236
-8.42144
-8.45693
-8.48884
-8.51722
-8.54207
-8.56342
-8.58127
-8.59562
-8.60645
-8.61372
-8.61737
-8.61736
-8.6136
-8.60599
-8.59443
-8.57878
-8.5589
-8.5346
-8.50569
-8.47203
-8.43345
-8.38987
-8.34114
-8.2871
-8.22764
-8.16259
-8.09189
-8.0154
-7.93306
-7.84476
-7.75043
-7.65001
-7.54348
-7.43084
-7.31211
-7.18739
-7.05674
-6.9203
-6.77818
-6.63056
-6.47754
-6.31933
-6.15605
-5.98789
-5.81501
-5.63759
-5.45578
-5.26976
-5.07966
-4.8856
-4.6877
-4.48609
-4.2809
-4.07227
-3.86035
-3.64523
-3.42703
-3.20583
-2.98174
-2.75484
-2.52523
-2.29301
-2.05828
-1.82114
-1.58171
-1.34008
-1.09641
-0.850804
-0.603412
-0.354332
-0.103784
0.147983
0.400823
0.654587
0.909098
1.16418
1.41965
1.67531
1.93098
2.18646
2.44157
2.69609
2.94986
3.20267
3.45433
3.70467
3.95348
4.20057
4.44578
4.68892
4.92982
5.16834
5.40432
5.63763
5.86811
6.09565
6.32009
6.5413
6.75913
6.97345
7.18409
7.39094
7.59385
7.79271
7.98739
8.17775
8.36376
8.5454
8.72315
8.89572
9.07078
9.22555
-7.45498
-7.45473
-7.45439
-7.45437
-7.45535
-7.45777
-7.46152
-7.46625
-7.47164
-7.47738
-7.4832
-7.48886
-7.49416
-7.49891
-7.50295
-7.50613
-7.50836
-7.50957
-7.50973
-7.50881
-7.50682
-7.50382
-7.49991
-7.49517
-7.48969
-7.4836
-7.47708
-7.4704
-7.46388
-7.45788
-7.45268
-7.44844
-7.44534
-7.44375
-7.44439
-7.44783
-7.45346
-7.45958
-7.46431
-7.46667
-7.46675
-7.46564
-7.46513
-7.46628
-7.46964
-7.47598
-7.48618
-7.50104
-7.52091
-7.54577
-7.57533
-7.60919
-7.64721
-7.68915
-7.73471
-7.78345
-7.83482
-7.8882
-7.94288
-7.99807
-8.05302
-8.10702
-8.15949
-8.20995
-8.25805
-8.30348
-8.34605
-8.38563
-8.42212
-8.45548
-8.48565
-8.51262
-8.53635
-8.55683
-8.57403
-8.58791
-8.59842
-8.60551
-8.60913
-8.60919
-8.6056
-8.59827
-8.58707
-8.57189
-8.55257
-8.52892
-8.50077
-8.46794
-8.43026
-8.38761
-8.33984
-8.28681
-8.22834
-8.16431
-8.09459
-8.01909
-7.9377
-7.85034
-7.75694
-7.65745
-7.55184
-7.44012
-7.32232
-7.1985
-7.06875
-6.93319
-6.79194
-6.64515
-6.49296
-6.33555
-6.17306
-6.00568
-5.83357
-5.65692
-5.47588
-5.29063
-5.1013
-4.90802
-4.71091
-4.5101
-4.30572
-4.09792
-3.88681
-3.67252
-3.45514
-3.23476
-3.01148
-2.78538
-2.55657
-2.32513
-2.09117
-1.85478
-1.61608
-1.37517
-1.13218
-0.887241
-0.640496
-0.392068
-0.142144
0.109071
0.361407
0.614703
0.86878
1.12347
1.37857
1.63391
1.88929
2.14451
2.39938
2.65371
2.90731
3.15997
3.41152
3.66177
3.91052
4.15758
4.40278
4.64592
4.88686
5.12542
5.36146
5.59483
5.8254
6.05302
6.27756
6.49887
6.71682
6.93124
7.14201
7.34898
7.55203
7.75103
7.94587
8.13646
8.32276
8.50471
8.68291
8.85549
9.03144
9.18
-7.45708
-7.45653
-7.45613
-7.45731
-7.46113
-7.46704
-7.47401
-7.48131
-7.48847
-7.49522
-7.5014
-7.50694
-7.5118
-7.51589
-7.51914
-7.52147
-7.52282
-7.52313
-7.52238
-7.52054
-7.51762
-7.51366
-7.5087
-7.50279
-7.496
-7.4884
-7.48007
-7.47119
-7.46202
-7.45303
-7.44478
-7.438
-7.43356
-7.43247
-7.4351
-7.44019
-7.44578
-7.45075
-7.45454
-7.45715
-7.45927
-7.462
-7.46652
-7.47373
-7.48466
-7.50006
-7.51991
-7.54362
-7.57086
-7.6014
-7.63487
-7.67112
-7.71008
-7.75164
-7.79563
-7.84173
-7.88954
-7.93861
-7.98843
-8.03845
-8.08814
-8.13701
-8.18462
-8.23059
-8.27461
-8.31641
-8.3558
-8.39262
-8.42675
-8.4581
-8.48659
-8.51216
-8.53475
-8.55431
-8.57079
-8.58412
-8.59426
-8.60112
-8.60463
-8.60471
-8.60125
-8.59415
-8.58328
-8.56853
-8.54972
-8.52669
-8.49923
-8.46716
-8.4303
-8.38852
-8.34163
-8.28951
-8.23194
-8.16882
-8.09997
-8.02534
-7.94478
-7.85824
-7.76562
-7.66688
-7.56198
-7.45093
-7.33379
-7.21059
-7.08148
-6.94651
-6.80586
-6.65962
-6.508
-6.35111
-6.18917
-6.02231
-5.85076
-5.67465
-5.49418
-5.30949
-5.12075
-4.92806
-4.73158
-4.53142
-4.32772
-4.1206
-3.9102
-3.69662
-3.47995
-3.26029
-3.03771
-2.81232
-2.5842
-2.35346
-2.12017
-1.88446
-1.64639
-1.40611
-1.16372
-0.919366
-0.673162
-0.425268
-0.175852
0.0748883
0.326786
0.579675
0.833383
1.08773
1.34254
1.5976
1.85274
2.10774
2.36243
2.6166
2.87006
3.12262
3.37409
3.62427
3.87298
4.12002
4.36521
4.60837
4.84934
5.08795
5.32406
5.5575
5.78816
6.01587
6.24052
6.46194
6.67999
6.89454
7.10545
7.31258
7.51579
7.71497
7.91001
8.10081
8.28734
8.46945
8.64775
8.81979
8.99546
9.1372
-7.46107
-7.46019
-7.46055
-7.46458
-7.4716
-7.47975
-7.48805
-7.49602
-7.50338
-7.51005
-7.516
-7.52123
-7.52567
-7.52927
-7.53196
-7.53366
-7.53434
-7.53396
-7.5325
-7.52994
-7.52628
-7.52156
-7.5158
-7.509
-7.50117
-7.49238
-7.48275
-7.47246
-7.46179
-7.45132
-7.44188
-7.43454
-7.4305
-7.43009
-7.43225
-7.4354
-7.43884
-7.44272
-7.44731
-7.45285
-7.45944
-7.46781
-7.47921
-7.49439
-7.51341
-7.5359
-7.56151
-7.58991
-7.62078
-7.65395
-7.68921
-7.72645
-7.76558
-7.80647
-7.84895
-7.89279
-7.93769
-7.98331
-8.02931
-8.07528
-8.12087
-8.16571
-8.20947
-8.25182
-8.29252
-8.33131
-8.36802
-8.40246
-8.43452
-8.46406
-8.49101
-8.51526
-8.53675
-8.5554
-8.57115
-8.58392
-8.59364
-8.60024
-8.60363
-8.6037
-8.60035
-8.59348
-8.58294
-8.5686
-8.5503
-8.52786
-8.50107
-8.46973
-8.43367
-8.39266
-8.34663
-8.29531
-8.23856
-8.1762
-8.10812
-8.03418
-7.95429
-7.86836
-7.77631
-7.67807
-7.57362
-7.46299
-7.3462
-7.22337
-7.09456
-6.9599
-6.81952
-6.67355
-6.52218
-6.36556
-6.20387
-6.0373
-5.86603
-5.69024
-5.5101
-5.32577
-5.13741
-4.94514
-4.74911
-4.54943
-4.34626
-4.1397
-3.92987
-3.71687
-3.5008
-3.28174
-3.05977
-2.83498
-2.60746
-2.37732
-2.14462
-1.90947
-1.67196
-1.43223
-1.19036
-0.946501
-0.70077
-0.453323
-0.204339
0.0459973
0.297522
0.55007
0.80347
1.05754
1.31209
1.56693
1.82187
2.0767
2.33124
2.58528
2.83863
3.09109
3.34249
3.59263
3.8413
4.08832
4.3335
4.57667
4.81766
5.0563
5.29245
5.52596
5.75668
5.98447
6.2092
6.43072
6.64889
6.86356
7.0746
7.28186
7.48521
7.68454
7.87973
8.07066
8.25729
8.43938
8.61749
8.7887
8.96383
9.09886
-7.46622
-7.46569
-7.46804
-7.47478
-7.48329
-7.49183
-7.49997
-7.50759
-7.51462
-7.52101
-7.52673
-7.53169
-7.53583
-7.53907
-7.54136
-7.54263
-7.54285
-7.54199
-7.54004
-7.53698
-7.53284
-7.52763
-7.52131
-7.51383
-7.50525
-7.49573
-7.48546
-7.4747
-7.46384
-7.45357
-7.44489
-7.43887
-7.43564
-7.43421
-7.43387
-7.43476
-7.43735
-7.44202
-7.44861
-7.45733
-7.46884
-7.48357
-7.5015
-7.52247
-7.54632
-7.57275
-7.60145
-7.63224
-7.66496
-7.69947
-7.73559
-7.7732
-7.81215
-7.8523
-7.89351
-7.93558
-7.97828
-8.02138
-8.0646
-8.10766
-8.15029
-8.19218
-8.23307
-8.2727
-8.31083
-8.34726
-8.3818
-8.4143
-8.4446
-8.47258
-8.49816
-8.52122
-8.54168
-8.55947
-8.57451
-8.58672
-8.59603
-8.60235
-8.6056
-8.60566
-8.60243
-8.59577
-8.58556
-8.57165
-8.55387
-8.53202
-8.5059
-8.47529
-8.43995
-8.39974
-8.35447
-8.3039
-8.24788
-8.18618
-8.11873
-8.04534
-7.96597
-7.88045
-7.78875
-7.69078
-7.58654
-7.47606
-7.35938
-7.23663
-7.10784
-6.97321
-6.83279
-6.68683
-6.53541
-6.37879
-6.2171
-6.05057
-5.87934
-5.70365
-5.52363
-5.33948
-5.15131
-4.95929
-4.76355
-4.56424
-4.36146
-4.15534
-3.94598
-3.73346
-3.5179
-3.29934
-3.0779
-2.85362
-2.62664
-2.397
-2.16482
-1.93016
-1.69316
-1.45389
-1.21249
-0.969055
-0.72374
-0.476687
-0.228081
0.0219071
0.273113
0.525374
0.778514
1.03235
1.28669
1.54135
1.79612
2.05081
2.30522
2.55915
2.81241
3.06481
3.31615
3.56624
3.81488
4.06187
4.30704
4.5502
4.79118
5.02983
5.266
5.49954
5.73031
5.95817
6.18298
6.40458
6.62283
6.8376
7.04872
7.25608
7.45954
7.65897
7.85425
8.04525
8.23188
8.41382
8.5916
8.76184
8.93648
9.06518
-7.4705
-7.47111
-7.47595
-7.48391
-7.49223
-7.50021
-7.50783
-7.51505
-7.52179
-7.52798
-7.5335
-7.53827
-7.54221
-7.54523
-7.54729
-7.54831
-7.54827
-7.54715
-7.54492
-7.5416
-7.53721
-7.5317
-7.52498
-7.51713
-7.50839
-7.49891
-7.48886
-7.47856
-7.46865
-7.46002
-7.45326
-7.44817
-7.44398
-7.44059
-7.43891
-7.43948
-7.44247
-7.44842
-7.45774
-7.47036
-7.48615
-7.50488
-7.5264
-7.55047
-7.57684
-7.60533
-7.63573
-7.66787
-7.70161
-7.73679
-7.77327
-7.81092
-7.84962
-7.8892
-7.92953
-7.97043
-8.0117
-8.05316
-8.09457
-8.13571
-8.17633
-8.2162
-8.25507
-8.29274
-8.32899
-8.36363
-8.39649
-8.42742
-8.45628
-8.48296
-8.50734
-8.52933
-8.54885
-8.56583
-8.58018
-8.59185
-8.60075
-8.60679
-8.60989
-8.60994
-8.60682
-8.6004
-8.59053
-8.57706
-8.55981
-8.53858
-8.51313
-8.48323
-8.44865
-8.40917
-8.36462
-8.31478
-8.25938
-8.19829
-8.13133
-8.05839
-7.97934
-7.89408
-7.80253
-7.70461
-7.60036
-7.48979
-7.37299
-7.25004
-7.12105
-6.98614
-6.84548
-6.69922
-6.54755
-6.39067
-6.22876
-6.06203
-5.89066
-5.71486
-5.5348
-5.35064
-5.16252
-4.97062
-4.77506
-4.57599
-4.37351
-4.16773
-3.95875
-3.74665
-3.53151
-3.3134
-3.0924
-2.86859
-2.64207
-2.41289
-2.18117
-1.94697
-1.71041
-1.47157
-1.23058
-0.987536
-0.742588
-0.495893
-0.247625
0.00205605
0.252984
0.504998
0.757916
1.01156
1.26572
1.52022
1.77485
2.02942
2.28372
2.53757
2.79075
3.04309
3.29438
3.54443
3.79303
4.03998
4.28511
4.52824
4.76921
5.00785
5.24403
5.47759
5.70839
5.9363
6.16116
6.38283
6.60114
6.81597
7.02717
7.23461
7.43814
7.63765
7.83299
8.02401
8.21057
8.39229
8.56967
8.73896
8.91318
9.0361
-7.47217
-7.47431
-7.48079
-7.48863
-7.49631
-7.50377
-7.51103
-7.51802
-7.52461
-7.53069
-7.53614
-7.54086
-7.54474
-7.54771
-7.54971
-7.55067
-7.55059
-7.54943
-7.54717
-7.54383
-7.53939
-7.53376
-7.52698
-7.51928
-7.51087
-7.50193
-7.49278
-7.4839
-7.47582
-7.46881
-7.46267
-7.45713
-7.45216
-7.44839
-7.4468
-7.44808
-7.45262
-7.46072
-7.47231
-7.48712
-7.50498
-7.52562
-7.54881
-7.57433
-7.60195
-7.6315
-7.6628
-7.69568
-7.72999
-7.76559
-7.80233
-7.84009
-7.87871
-7.91805
-7.95795
-7.99825
-8.03878
-8.07933
-8.11971
-8.15971
-8.19911
-8.2377
-8.27526
-8.31161
-8.34655
-8.3799
-8.41151
-8.44123
-8.46894
-8.49451
-8.51785
-8.53888
-8.55752
-8.57373
-8.58742
-8.59854
-8.60702
-8.61278
-8.61572
-8.61576
-8.61276
-8.60658
-8.59707
-8.58407
-8.56737
-8.54676
-8.52201
-8.49284
-8.45898
-8.42028
-8.37643
-8.32727
-8.27245
-8.21188
-8.14531
-8.0727
-7.99383
-7.90866
-7.81706
-7.71902
-7.61455
-7.50368
-7.38654
-7.26316
-7.13374
-6.99833
-6.85719
-6.71042
-6.55829
-6.40094
-6.23863
-6.07152
-5.89986
-5.72379
-5.54354
-5.35922
-5.17106
-4.97916
-4.7837
-4.58479
-4.38253
-4.17704
-3.96838
-3.75663
-3.54186
-3.32416
-3.10356
-2.88018
-2.65406
-2.42532
-2.194
-1.96024
-1.72407
-1.48564
-1.24502
-1.00234
-0.757727
-0.511362
-0.263396
-0.0139926
0.236692
0.488483
0.741207
0.994672
1.24869
1.50305
1.75756
2.01202
2.26623
2.51998
2.77309
3.02537
3.27662
3.52662
3.77517
4.02208
4.26716
4.51025
4.75119
4.98981
5.22598
5.45954
5.69036
5.9183
6.14322
6.36492
6.58329
6.79816
7.00941
7.2169
7.42049
7.62005
7.81542
8.00641
8.19287
8.37433
8.55128
8.71963
8.8935
9.01131
-7.46975
-7.47322
-7.48006
-7.48741
-7.49473
-7.50199
-7.50914
-7.51608
-7.5227
-7.52885
-7.53442
-7.53927
-7.54331
-7.54645
-7.54862
-7.54975
-7.54982
-7.54879
-7.54666
-7.54342
-7.53904
-7.53355
-7.52707
-7.51984
-7.51214
-7.50424
-7.49647
-7.489
-7.48189
-7.47521
-7.46901
-7.46341
-7.45884
-7.456
-7.45562
-7.45822
-7.46407
-7.47332
-7.48591
-7.50167
-7.52039
-7.54182
-7.56573
-7.5919
-7.62012
-7.65022
-7.68203
-7.71539
-7.75014
-7.78615
-7.82325
-7.8613
-7.90013
-7.9396
-7.97954
-8.01978
-8.06014
-8.10042
-8.14042
-8.17994
-8.21878
-8.25672
-8.29356
-8.32913
-8.36323
-8.39571
-8.42642
-8.45521
-8.48198
-8.5066
-8.529
-8.54911
-8.56689
-8.5823
-8.59529
-8.60583
-8.61386
-8.61932
-8.62212
-8.62215
-8.6193
-8.6134
-8.60429
-8.59178
-8.57568
-8.55575
-8.53173
-8.50331
-8.47027
-8.43226
-8.38917
-8.34061
-8.28636
-8.22618
-8.15995
-8.0875
-8.00871
-7.92345
-7.83166
-7.73331
-7.62844
-7.51711
-7.39941
-7.27545
-7.14535
-7.0093
-6.86746
-6.72003
-6.56724
-6.40929
-6.2464
-6.0788
-5.90668
-5.73025
-5.54968
-5.36514
-5.17682
-4.98487
-4.78945
-4.59065
-4.38859
-4.18333
-3.97495
-3.76352
-3.5491
-3.33176
-3.11154
-2.88855
-2.66283
-2.43449
-2.20358
-1.97022
-1.73445
-1.49639
-1.25613
-1.01379
-0.76951
-0.523456
-0.275776
-0.0266278
0.223829
0.475417
0.727959
0.981259
1.23513
1.48935
1.74374
1.99809
2.2522
2.50587
2.7589
3.01112
3.26232
3.51228
3.76077
4.00762
4.25264
4.49567
4.73656
4.97514
5.21128
5.44483
5.67566
5.90363
6.12858
6.35032
6.56871
6.78362
6.9949
7.20243
7.40606
7.60564
7.80102
7.99198
8.17831
8.35947
8.53598
8.70345
8.87697
8.99037
-7.46136
-7.46558
-7.47225
-7.47951
-7.48695
-7.49438
-7.5017
-7.50885
-7.51571
-7.52215
-7.52803
-7.53321
-7.53758
-7.54104
-7.5435
-7.54491
-7.54523
-7.54444
-7.54255
-7.53954
-7.53546
-7.53042
-7.5246
-7.51822
-7.51148
-7.50449
-7.49742
-7.4904
-7.48352
-7.47693
-7.47093
-7.46589
-7.46225
-7.46048
-7.46116
-7.46471
-7.47139
-7.48131
-7.49444
-7.51065
-7.52973
-7.55149
-7.57569
-7.60216
-7.63071
-7.66117
-7.69339
-7.7272
-7.76245
-7.79898
-7.83662
-7.87521
-7.91459
-7.95459
-7.99502
-8.0357
-8.07642
-8.11698
-8.15717
-8.19678
-8.2356
-8.27342
-8.31001
-8.34521
-8.37883
-8.41071
-8.44073
-8.46874
-8.49466
-8.51839
-8.53988
-8.55908
-8.57596
-8.59053
-8.60277
-8.61269
-8.62025
-8.62541
-8.62808
-8.62814
-8.62545
-8.61987
-8.6112
-8.59925
-8.58379
-8.56458
-8.54134
-8.51376
-8.48147
-8.44427
-8.40186
-8.35388
-8.30011
-8.24027
-8.17427
-8.10189
-8.02304
-7.93757
-7.84544
-7.74666
-7.64123
-7.52929
-7.41087
-7.28617
-7.15526
-7.01841
-6.87572
-6.72752
-6.57393
-6.41527
-6.25171
-6.08353
-5.91088
-5.73401
-5.55304
-5.36822
-5.1797
-4.98769
-4.79228
-4.59359
-4.39169
-4.18666
-3.97856
-3.76743
-3.55336
-3.33636
-3.11653
-2.89391
-2.6686
-2.44065
-2.21017
-1.97719
-1.74182
-1.50413
-1.26424
-1.02224
-0.778287
-0.53254
-0.285145
-0.036249
0.213977
0.465362
0.717716
0.970853
1.22457
1.47866
1.73292
1.98716
2.24117
2.49475
2.7477
2.99986
3.25103
3.50094
3.74935
3.99611
4.24105
4.48402
4.72484
4.96337
5.19947
5.433
5.66382
5.89183
6.11681
6.33857
6.55696
6.77189
6.98319
7.19074
7.3944
7.594
7.78938
7.98029
8.16646
8.34732
8.52339
8.69003
8.8632
8.97286
-7.44547
-7.44981
-7.45663
-7.46455
-7.47265
-7.48055
-7.48826
-7.49577
-7.50303
-7.50992
-7.51629
-7.52195
-7.52676
-7.53062
-7.53348
-7.53528
-7.53599
-7.53559
-7.53412
-7.53159
-7.52809
-7.52371
-7.51858
-7.51285
-7.50666
-7.50013
-7.49337
-7.48651
-7.47977
-7.47346
-7.46789
-7.46339
-7.46041
-7.45944
-7.46091
-7.46519
-7.47248
-7.48287
-7.49635
-7.51279
-7.53204
-7.55392
-7.57827
-7.60493
-7.63373
-7.66455
-7.69721
-7.73156
-7.76744
-7.80467
-7.8431
-7.88255
-7.92284
-7.96378
-8.00515
-8.04673
-8.0883
-8.1296
-8.17044
-8.21056
-8.24975
-8.28777
-8.32443
-8.35953
-8.3929
-8.42438
-8.45385
-8.48118
-8.50629
-8.52913
-8.54965
-8.56786
-8.58375
-8.59737
-8.60877
-8.618
-8.62505
-8.62987
-8.63239
-8.63248
-8.63001
-8.62479
-8.61661
-8.60525
-8.59049
-8.57205
-8.54965
-8.52291
-8.49149
-8.45504
-8.41329
-8.36589
-8.3125
-8.25296
-8.18707
-8.1147
-8.0357
-7.94994
-7.8574
-7.75805
-7.652
-7.5393
-7.42009
-7.29451
-7.16274
-7.02496
-6.8814
-6.73229
-6.57789
-6.41844
-6.25418
-6.08536
-5.91217
-5.73482
-5.55346
-5.36832
-5.17963
-4.98755
-4.79218
-4.5936
-4.39188
-4.18708
-3.97926
-3.76846
-3.55473
-3.33812
-3.11869
-2.89647
-2.67158
-2.44407
-2.21401
-1.98146
-1.7465
-1.50922
-1.26971
-1.02808
-0.784481
-0.53906
-0.291957
-0.0433241
0.206665
0.457835
0.709996
0.962957
1.21651
1.47046
1.7246
1.97872
2.23262
2.4861
2.73897
2.99108
3.24225
3.49212
3.74043
3.98708
4.23192
4.47479
4.71554
4.95401
5.19006
5.42355
5.65438
5.88242
6.10744
6.32918
6.54757
6.7625
6.97381
7.18138
7.38505
7.58467
7.78006
7.9709
8.1569
8.33745
8.51309
8.67896
8.85175
8.95837
-7.42159
-7.42578
-7.43341
-7.44263
-7.45171
-7.46022
-7.46838
-7.4764
-7.48428
-7.49188
-7.49896
-7.50527
-7.51065
-7.51504
-7.51842
-7.52073
-7.52198
-7.52214
-7.52124
-7.51931
-7.51641
-7.51261
-7.50803
-7.50276
-7.4969
-7.49057
-7.48394
-7.47724
-7.47072
-7.46464
-7.45936
-7.45528
-7.45285
-7.4525
-7.45459
-7.45942
-7.46716
-7.47787
-7.49153
-7.50807
-7.52735
-7.54926
-7.57368
-7.60049
-7.62955
-7.66077
-7.69398
-7.72903
-7.76574
-7.80394
-7.84344
-7.88405
-7.92558
-7.9678
-8.01045
-8.05329
-8.09606
-8.1385
-8.18033
-8.2213
-8.26114
-8.29962
-8.33655
-8.37172
-8.40496
-8.43612
-8.46509
-8.49176
-8.51602
-8.53782
-8.55718
-8.57415
-8.5888
-8.60124
-8.61159
-8.61998
-8.62643
-8.6309
-8.63328
-8.63346
-8.63129
-8.62653
-8.61895
-8.60827
-8.59426
-8.57666
-8.55512
-8.52929
-8.49869
-8.46303
-8.4219
-8.37498
-8.32193
-8.26263
-8.19685
-8.12446
-8.04529
-7.95923
-7.86623
-7.76629
-7.65955
-7.54606
-7.42603
-7.29954
-7.16687
-7.02813
-6.88367
-6.73364
-6.57841
-6.41816
-6.25323
-6.08378
-5.91009
-5.73227
-5.55056
-5.36515
-5.17633
-4.98421
-4.7889
-4.59045
-4.38893
-4.1844
-3.97688
-3.76646
-3.55313
-3.33697
-3.11798
-2.89627
-2.67185
-2.44485
-2.21526
-1.98321
-1.74871
-1.51188
-1.2728
-1.03159
-0.788386
-0.54333
-0.296553
-0.048221
0.201498
0.452418
0.704354
0.957105
1.21047
1.46425
1.71823
1.9722
2.22597
2.47932
2.73208
2.98416
3.23539
3.48528
3.7335
3.98002
4.22475
4.46753
4.7082
4.9466
5.1826
5.41606
5.64689
5.87503
6.10012
6.32184
6.5402
6.75511
6.96643
7.17401
7.3777
7.57733
7.77273
7.96352
8.14934
8.32957
8.50478
8.66993
8.84227
8.94653
-7.39061
-7.39505
-7.40407
-7.41497
-7.4251
-7.43423
-7.44311
-7.45192
-7.46057
-7.46902
-7.47709
-7.48434
-7.49043
-7.49537
-7.49929
-7.5022
-7.50408
-7.50487
-7.50459
-7.50325
-7.50089
-7.49756
-7.49335
-7.48832
-7.48263
-7.47642
-7.4699
-7.46327
-7.45683
-7.45091
-7.4459
-7.4422
-7.44022
-7.44034
-7.44287
-7.44805
-7.456
-7.4668
-7.48045
-7.49691
-7.51611
-7.53799
-7.56243
-7.58937
-7.6187
-7.65035
-7.68415
-7.71998
-7.75766
-7.797
-7.83781
-7.87987
-7.92293
-7.96673
-8.01097
-8.05538
-8.09965
-8.14347
-8.18653
-8.22853
-8.26918
-8.30824
-8.34547
-8.38069
-8.41372
-8.44445
-8.47273
-8.49847
-8.52156
-8.54197
-8.5598
-8.57521
-8.58836
-8.59938
-8.60847
-8.61586
-8.62161
-8.62566
-8.62795
-8.62837
-8.62669
-8.62264
-8.61586
-8.60604
-8.59292
-8.5762
-8.55555
-8.5306
-8.50086
-8.46595
-8.42546
-8.37896
-8.32625
-8.26717
-8.20153
-8.12915
-8.04984
-7.96347
-7.86997
-7.76942
-7.66191
-7.54761
-7.42666
-7.29927
-7.16561
-7.02592
-6.88045
-6.72949
-6.57336
-6.41233
-6.24667
-6.07663
-5.9024
-5.72419
-5.5422
-5.35665
-5.16773
-4.97557
-4.78028
-4.58193
-4.3806
-4.17633
-3.96917
-3.75915
-3.54631
-3.33068
-3.11229
-2.89119
-2.66741
-2.44101
-2.21203
-1.98055
-1.74663
-1.51037
-1.27183
-1.03115
-0.788459
-0.543876
-0.297541
-0.0496269
0.199697
0.450243
0.701825
0.954239
1.20729
1.46075
1.71443
1.96811
2.22159
2.47466
2.72714
2.97899
3.23013
3.47995
3.72804
3.97444
4.21903
4.46169
4.70226
4.94058
5.17651
5.40993
5.64077
5.86906
6.09431
6.31607
6.5344
6.7493
6.96062
7.16823
7.37195
7.57161
7.76706
7.95783
8.14348
8.32338
8.49818
8.66265
8.83449
8.93704
-7.3552
-7.36047
-7.3714
-7.38434
-7.39564
-7.40523
-7.41446
-7.4241
-7.43394
-7.44357
-7.45271
-7.461
-7.46794
-7.47342
-7.47782
-7.48131
-7.48378
-7.48518
-7.48546
-7.48461
-7.48266
-7.47964
-7.47564
-7.47076
-7.46514
-7.45894
-7.45238
-7.44575
-7.43937
-7.43359
-7.42881
-7.42539
-7.4237
-7.42407
-7.42674
-7.43194
-7.43977
-7.45035
-7.46369
-7.47981
-7.4987
-7.52032
-7.54464
-7.57161
-7.60117
-7.63323
-7.66767
-7.70436
-7.74312
-7.78378
-7.8261
-7.8698
-7.91463
-7.96023
-8.0063
-8.05246
-8.09836
-8.14361
-8.18787
-8.23078
-8.27207
-8.31145
-8.34871
-8.38364
-8.41613
-8.44605
-8.47328
-8.49771
-8.51921
-8.53776
-8.55356
-8.567
-8.5784
-8.58786
-8.59554
-8.60169
-8.60638
-8.60966
-8.6117
-8.61244
-8.61151
-8.60846
-8.60283
-8.59421
-8.58223
-8.56668
-8.54739
-8.52367
-8.49528
-8.46161
-8.42228
-8.37676
-8.32482
-8.26624
-8.2009
-8.12859
-8.04914
-7.96243
-7.86838
-7.76712
-7.65873
-7.54349
-7.42148
-7.29303
-7.15822
-7.01741
-6.87078
-6.71876
-6.56158
-6.39963
-6.2331
-6.06232
-5.88744
-5.70874
-5.52641
-5.34067
-5.15161
-4.95937
-4.76406
-4.56579
-4.36463
-4.16061
-3.95379
-3.74418
-3.53183
-3.31674
-3.09898
-2.87852
-2.65541
-2.42964
-2.20131
-1.97046
-1.73717
-1.50149
-1.26355
-1.02347
-0.781347
-0.537292
-0.291469
-0.0440421
0.204807
0.454899
0.706035
0.958021
1.21064
1.4637
1.71696
1.97022
2.22326
2.47586
2.72779
2.97889
3.22897
3.47789
3.72548
3.97152
4.21581
4.45819
4.6985
4.93658
5.17227
5.40545
5.6361
5.86435
6.08966
6.31143
6.52975
6.74464
6.95598
7.16361
7.36736
7.56707
7.76263
7.95347
8.13901
8.31862
8.49303
8.65686
8.82814
8.92961
-7.31766
-7.32406
-7.33734
-7.35225
-7.36399
-7.37393
-7.38419
-7.39498
-7.40588
-7.41657
-7.42677
-7.43609
-7.44388
-7.45005
-7.45508
-7.45922
-7.46234
-7.46433
-7.46514
-7.46473
-7.46313
-7.46035
-7.45649
-7.45164
-7.44599
-7.43971
-7.43308
-7.42637
-7.41994
-7.41411
-7.40929
-7.40578
-7.40393
-7.40402
-7.40629
-7.41094
-7.41811
-7.42793
-7.44047
-7.4558
-7.47397
-7.49503
-7.51899
-7.54588
-7.57561
-7.60814
-7.64331
-7.68103
-7.72108
-7.76325
-7.80724
-7.85277
-7.89945
-7.94692
-7.99477
-8.0426
-8.08998
-8.13646
-8.18166
-8.22519
-8.26677
-8.30609
-8.34297
-8.37723
-8.40877
-8.43749
-8.46335
-8.48621
-8.50584
-8.52204
-8.53506
-8.54567
-8.55484
-8.56317
-8.57057
-8.57663
-8.58117
-8.58437
-8.58652
-8.58749
-8.58705
-8.58464
-8.57994
-8.57224
-8.56138
-8.54708
-8.52899
-8.50673
-8.47961
-8.4473
-8.40926
-8.36499
-8.31407
-8.25626
-8.1914
-8.11932
-8.03988
-7.95295
-7.85852
-7.75666
-7.64759
-7.5315
-7.40861
-7.27914
-7.14335
-7.00148
-6.85386
-6.70084
-6.54276
-6.37993
-6.21265
-6.04116
-5.86571