/*--------------------------------*- C++ -*----------------------------------*\
  =========                 |
  \\      /  F ield         | OpenFOAM: The Open Source CFD Toolbox
   \\    /   O peration     | Website:  https://openfoam.org
    \\  /    A nd           | Version:  13
     \\/     M anipulation  |
\*---------------------------------------------------------------------------*/
FoamFile
{
    format      ascii;
    class       surfaceScalarField;
    location    "1500";
    object      phi;
}
// * * * * * * * * * * * * * * * * * * * * * * * * * * * * * * * * * * * * * //

dimensions      [0 3 -1 0 0 0 0];

internalField   nonuniform List<scalar> 
24170
(
3.04215e-06
1.46268e-07
2.88319e-06
1.59023e-07
2.7397e-06
1.43528e-07
2.61e-06
1.29742e-07
2.49679e-06
1.13254e-07
2.39978e-06
9.70182e-08
2.31567e-06
8.41419e-08
2.24304e-06
7.26337e-08
2.18098e-06
6.20693e-08
2.13022e-06
5.07628e-08
2.09095e-06
3.92746e-08
2.06124e-06
2.97209e-08
2.0375e-06
2.37392e-08
2.01793e-06
1.95688e-08
2.00177e-06
1.61613e-08
1.98992e-06
1.18529e-08
1.98404e-06
5.87568e-09
-2.58201e-09
1.98661e-06
3.4916e-06
7.19282e-08
3.53858e-06
1.12128e-07
3.56666e-06
1.15524e-07
3.57569e-06
1.20765e-07
3.5674e-06
1.21605e-07
3.54692e-06
1.17528e-07
3.52249e-06
1.08603e-07
3.49658e-06
9.85552e-08
3.46875e-06
8.99131e-08
3.43684e-06
8.26723e-08
3.40207e-06
7.40576e-08
3.36803e-06
6.37589e-08
3.33596e-06
5.58108e-08
3.30573e-06
4.97981e-08
3.27746e-06
4.44379e-08
3.25109e-06
3.8216e-08
3.2249e-06
3.20559e-08
2.44917e-08
3.19783e-06
3.6795e-06
5.49599e-08
3.69677e-06
9.49072e-08
3.71361e-06
9.87034e-08
3.7321e-06
1.02309e-07
3.74955e-06
1.04192e-07
3.76474e-06
1.0235e-07
3.77702e-06
9.6348e-08
3.78658e-06
8.90068e-08
3.79368e-06
8.28264e-08
3.79897e-06
7.73826e-08
3.80221e-06
7.08241e-08
3.80256e-06
6.34219e-08
3.80106e-06
5.73097e-08
3.79866e-06
5.2207e-08
3.79564e-06
4.74573e-08
3.79169e-06
4.21652e-08
3.78694e-06
3.68004e-08
3.03187e-08
3.78112e-06
3.93528e-06
4.50736e-08
3.94646e-06
8.37901e-08
3.95335e-06
9.18659e-08
3.9605e-06
9.52192e-08
3.96787e-06
9.6872e-08
3.97523e-06
9.50274e-08
3.98216e-06
8.94468e-08
3.98854e-06
8.26545e-08
3.99463e-06
7.67455e-08
4.00081e-06
7.122e-08
4.00664e-06
6.49979e-08
4.01156e-06
5.85115e-08
4.01598e-06
5.28957e-08
4.02021e-06
4.79814e-08
4.02426e-06
4.34175e-08
4.02773e-06
3.86934e-08
4.03077e-06
3.3752e-08
2.84281e-08
4.03266e-06
4.21622e-06
3.5985e-08
4.22476e-06
7.52825e-08
4.23127e-06
8.53595e-08
4.23762e-06
8.88885e-08
4.24376e-06
9.07478e-08
4.24952e-06
8.92813e-08
4.25453e-06
8.4457e-08
4.25881e-06
7.83884e-08
4.26278e-06
7.27815e-08
4.26672e-06
6.72948e-08
4.27036e-06
6.13581e-08
4.27348e-06
5.5399e-08
4.27636e-06
5.00261e-08
4.27918e-06
4.51624e-08
4.28197e-06
4.06317e-08
4.28455e-06
3.61107e-08
4.2869e-06
3.14072e-08
2.66473e-08
4.28868e-06
4.51639e-06
2.86862e-08
4.5247e-06
6.70052e-08
4.5315e-06
7.86049e-08
4.53763e-06
8.27982e-08
4.54375e-06
8.46687e-08
4.54954e-06
8.35191e-08
4.55457e-06
7.94554e-08
4.55887e-06
7.41031e-08
4.56282e-06
6.88486e-08
4.56655e-06
6.35767e-08
4.5699e-06
5.80187e-08
4.57279e-06
5.25168e-08
4.57541e-06
4.74079e-08
4.5779e-06
4.26807e-08
4.58029e-06
3.82452e-08
4.58251e-06
3.38892e-08
4.58447e-06
2.94522e-08
2.51118e-08
4.586e-06
4.83804e-06
2.3369e-08
4.84658e-06
5.84844e-08
4.85364e-06
7.15441e-08
4.85992e-06
7.65272e-08
4.86604e-06
7.85513e-08
4.87181e-06
7.7764e-08
4.87689e-06
7.43811e-08
4.88133e-06
6.9671e-08
4.88541e-06
6.47807e-08
4.8892e-06
5.97865e-08
4.89262e-06
5.46121e-08
4.89562e-06
4.95175e-08
4.89835e-06
4.46863e-08
4.90088e-06
4.01493e-08
4.90326e-06
3.58657e-08
4.90545e-06
3.17043e-08
4.90734e-06
2.75633e-08
2.35787e-08
4.90887e-06
5.18358e-06
1.93749e-08
5.19174e-06
5.03603e-08
5.19893e-06
6.43815e-08
5.2054e-06
7.00851e-08
5.21161e-06
7.23736e-08
5.21746e-06
7.19391e-08
5.22269e-06
6.9174e-08
5.22727e-06
6.50973e-08
5.23148e-06
6.05893e-08
5.23536e-06
5.59137e-08
5.23885e-06
5.11254e-08
5.24198e-06
4.6396e-08
5.24481e-06
4.1856e-08
5.24742e-06
3.75471e-08
5.24983e-06
3.34558e-08
5.25202e-06
2.95132e-08
5.25392e-06
2.56673e-08
2.20123e-08
5.25549e-06
5.55451e-06
1.62098e-08
5.56192e-06
4.29671e-08
5.56901e-06
5.72899e-08
5.57564e-06
6.34631e-08
5.58197e-06
6.60499e-08
5.58793e-06
6.59804e-08
5.59334e-06
6.3776e-08
5.59814e-06
6.02972e-08
5.60251e-06
5.62279e-08
5.60651e-06
5.19139e-08
5.61015e-06
4.74933e-08
5.61343e-06
4.31145e-08
5.61641e-06
3.88797e-08
5.61913e-06
3.48306e-08
5.62161e-06
3.09668e-08
5.62386e-06
2.72634e-08
5.62583e-06
2.37053e-08
2.03584e-08
5.62749e-06
5.95243e-06
1.35611e-08
5.95894e-06
3.6485e-08
5.96579e-06
5.04722e-08
5.97247e-06
5.68193e-08
5.97892e-06
5.96222e-08
5.98503e-06
5.98972e-08
5.99062e-06
5.82014e-08
5.99567e-06
5.52582e-08
6.00025e-06
5.16543e-08
6.00443e-06
4.77391e-08
6.00824e-06
4.36866e-08
6.01171e-06
3.9651e-08
6.01487e-06
3.57256e-08
6.01774e-06
3.1954e-08
6.02036e-06
2.83479e-08
6.02272e-06
2.49052e-08
6.0248e-06
2.16316e-08
1.85705e-08
6.02659e-06
6.37909e-06
1.12913e-08
6.38476e-06
3.08256e-08
6.39129e-06
4.39465e-08
6.3979e-06
5.02231e-08
6.4044e-06
5.31323e-08
6.41063e-06
5.3675e-08
6.41642e-06
5.24153e-08
6.42173e-06
4.99571e-08
6.42658e-06
4.68136e-08
6.431e-06
4.33158e-08
6.43504e-06
3.96571e-08
6.43871e-06
3.59803e-08
6.44205e-06
3.23789e-08
6.44511e-06
2.89022e-08
6.44788e-06
2.5575e-08
6.45037e-06
2.24092e-08
6.45259e-06
1.9416e-08
1.66314e-08
6.45454e-06
5.74252e-06
9.60663e-09
5.74676e-06
2.66021e-08
5.75201e-06
3.87155e-08
5.75748e-06
4.47621e-08
5.76295e-06
4.76755e-08
5.76827e-06
4.83759e-08
5.77328e-06
4.74095e-08
5.77793e-06
4.53108e-08
5.78222e-06
4.2532e-08
5.78615e-06
3.93853e-08
5.78975e-06
3.60611e-08
5.79304e-06
3.26993e-08
5.79603e-06
2.93814e-08
5.79876e-06
2.61744e-08
5.80124e-06
2.3097e-08
5.80347e-06
2.0179e-08
5.80546e-06
1.74248e-08
1.4871e-08
5.80723e-06
6.99986e-06
7.91105e-09
7.00421e-06
2.22551e-08
7.00987e-06
3.30702e-08
7.01594e-06
3.86917e-08
7.02213e-06
4.1502e-08
7.02821e-06
4.23002e-08
7.03403e-06
4.15975e-08
7.03949e-06
3.98504e-08
7.04458e-06
3.74527e-08
7.04928e-06
3.46874e-08
7.05361e-06
3.17412e-08
7.05757e-06
2.8733e-08
7.0612e-06
2.5757e-08
7.06451e-06
2.28622e-08
7.06752e-06
2.00912e-08
7.07023e-06
1.74618e-08
7.07267e-06
1.49899e-08
1.26992e-08
7.07484e-06
8.53252e-06
6.23685e-09
8.53695e-06
1.78355e-08
8.54294e-06
2.70779e-08
8.54958e-06
3.20563e-08
8.55645e-06
3.4628e-08
8.56331e-06
3.54389e-08
8.56997e-06
3.49489e-08
8.57629e-06
3.35315e-08
8.58222e-06
3.15182e-08
8.58776e-06
2.91562e-08
8.59289e-06
2.66152e-08
8.59762e-06
2.40056e-08
8.60197e-06
2.14108e-08
8.60595e-06
1.8883e-08
8.60958e-06
1.64612e-08
8.61287e-06
1.41692e-08
8.61584e-06
1.2016e-08
1.00334e-08
8.61852e-06
1.04009e-05
4.60217e-09
1.04053e-05
1.34015e-08
1.04116e-05
2.08065e-08
1.04187e-05
2.49013e-08
1.04263e-05
2.70715e-08
1.04339e-05
2.77936e-08
1.04414e-05
2.74397e-08
1.04486e-05
2.63174e-08
1.04555e-05
2.4679e-08
1.04619e-05
2.27363e-08
1.04679e-05
2.06229e-08
1.04735e-05
1.84497e-08
1.04786e-05
1.62755e-08
1.04833e-05
1.41622e-08
1.04876e-05
1.21335e-08
1.04916e-05
1.02223e-08
1.04952e-05
8.42743e-09
6.78643e-09
1.04984e-05
1.26784e-05
3.00491e-09
1.26828e-05
8.95409e-09
1.26893e-05
1.42997e-08
1.2697e-05
1.72558e-08
1.27052e-05
1.884e-08
1.27137e-05
1.93394e-08
1.27221e-05
1.90363e-08
1.27302e-05
1.81501e-08
1.2738e-05
1.68709e-08
1.27454e-05
1.53445e-08
1.27524e-05
1.36894e-08
1.27588e-05
1.19768e-08
1.27649e-05
1.02732e-08
1.27704e-05
8.61137e-09
1.27755e-05
7.02767e-09
1.27802e-05
5.53496e-09
1.27845e-05
4.14424e-09
2.88032e-09
1.27884e-05
1.54548e-05
1.40844e-09
1.54593e-05
4.43836e-09
1.54661e-05
7.5071e-09
1.54743e-05
9.07497e-09
1.54832e-05
9.86313e-09
1.54926e-05
9.9971e-09
1.5502e-05
9.63844e-09
1.55112e-05
8.9253e-09
1.55201e-05
7.96916e-09
1.55286e-05
6.86332e-09
1.55366e-05
5.6778e-09
1.55441e-05
4.46676e-09
1.55511e-05
3.26851e-09
1.55576e-05
2.1112e-09
1.55636e-05
1.01465e-09
1.55692e-05
-7.47454e-12
1.55743e-05
-9.52604e-10
-1.79435e-09
1.55789e-05
1.88393e-05
-2.5954e-10
1.88441e-05
-3.59079e-10
1.88514e-05
1.78445e-10
1.88604e-05
9.83231e-11
1.88704e-05
-1.18109e-10
1.88809e-05
-4.97636e-10
1.88916e-05
-1.00711e-09
1.89021e-05
-1.60516e-09
1.89123e-05
-2.25825e-09
1.89221e-05
-2.93857e-09
1.89314e-05
-3.62297e-09
1.89402e-05
-4.29241e-09
1.89484e-05
-4.93247e-09
1.89561e-05
-5.5321e-09
1.89631e-05
-6.0835e-09
1.89697e-05
-6.58104e-09
1.89758e-05
-7.02558e-09
-7.39675e-09
1.89814e-05
2.29653e-05
-2.18616e-09
2.29709e-05
-5.94477e-09
2.29794e-05
-8.38109e-09
2.299e-05
-1.04072e-08
2.30017e-05
-1.1818e-08
2.3014e-05
-1.28238e-08
2.30266e-05
-1.35307e-08
2.3039e-05
-1.40157e-08
2.3051e-05
-1.43273e-08
2.30626e-05
-1.45228e-08
2.30736e-05
-1.46303e-08
2.3084e-05
-1.46777e-08
2.30938e-05
-1.46745e-08
2.31029e-05
-1.46345e-08
2.31113e-05
-1.45609e-08
2.31192e-05
-1.44599e-08
2.31265e-05
-1.43345e-08
-1.41738e-08
2.31333e-05
1.68123e-05
-3.80785e-09
1.68169e-05
-1.05162e-08
1.68238e-05
-1.52077e-08
1.6832e-05
-1.8604e-08
1.6841e-05
-2.08076e-08
1.68504e-05
-2.21889e-08
1.68598e-05
-2.29765e-08
1.68691e-05
-2.32989e-08
1.68781e-05
-2.33049e-08
1.68867e-05
-2.30881e-08
1.68948e-05
-2.27398e-08
1.69024e-05
-2.22979e-08
1.69095e-05
-2.18085e-08
1.69162e-05
-2.12856e-08
1.69224e-05
-2.07534e-08
1.69281e-05
-2.02136e-08
1.69335e-05
-1.96787e-08
-1.91349e-08
1.69384e-05
1.46363e-05
-5.55689e-09
1.46411e-05
-1.53127e-08
1.4648e-05
-2.20821e-08
1.4656e-05
-2.65785e-08
1.46646e-05
-2.93458e-08
1.46734e-05
-3.09619e-08
1.46821e-05
-3.17025e-08
1.46906e-05
-3.17903e-08
1.46987e-05
-3.14259e-08
1.47064e-05
-3.07852e-08
1.47137e-05
-2.99707e-08
1.47204e-05
-2.90616e-08
1.47267e-05
-2.81047e-08
1.47326e-05
-2.71389e-08
1.4738e-05
-2.61839e-08
1.4743e-05
-2.52536e-08
1.47477e-05
-2.43531e-08
-2.3476e-08
1.47521e-05
1.27422e-05
-7.58877e-09
1.27475e-05
-2.06608e-08
1.27547e-05
-2.92591e-08
1.27627e-05
-3.45266e-08
1.2771e-05
-3.76474e-08
1.27794e-05
-3.93458e-08
1.27876e-05
-3.99211e-08
1.27955e-05
-3.96652e-08
1.2803e-05
-3.88787e-08
1.281e-05
-3.77754e-08
1.28165e-05
-3.64893e-08
1.28225e-05
-3.51129e-08
1.28281e-05
-3.37078e-08
1.28333e-05
-3.23224e-08
1.28381e-05
-3.09779e-08
1.28426e-05
-2.96918e-08
1.28467e-05
-2.84651e-08
-2.72935e-08
1.28505e-05
1.10934e-05
-1.00973e-08
1.10996e-05
-2.67962e-08
1.11072e-05
-3.68369e-08
1.11152e-05
-4.25109e-08
1.11233e-05
-4.58014e-08
1.11314e-05
-4.74421e-08
1.11392e-05
-4.77203e-08
1.11466e-05
-4.7034e-08
1.11535e-05
-4.57705e-08
1.11599e-05
-4.41775e-08
1.11658e-05
-4.24056e-08
1.11713e-05
-4.05593e-08
1.11763e-05
-3.87184e-08
1.11809e-05
-3.69289e-08
1.11852e-05
-3.52239e-08
1.11891e-05
-3.36097e-08
1.11927e-05
-3.20908e-08
-3.06554e-08
1.11961e-05
9.65849e-06
-1.33774e-08
9.66559e-06
-3.38848e-08
9.67352e-06
-4.47693e-08
9.68152e-06
-5.05062e-08
9.68957e-06
-5.38494e-08
9.69743e-06
-5.53e-08
9.70487e-06
-5.51517e-08
9.7118e-06
-5.39579e-08
9.71821e-06
-5.2177e-08
9.72412e-06
-5.00741e-08
9.72952e-06
-4.78066e-08
9.73446e-06
-4.54949e-08
9.73897e-06
-4.32246e-08
9.7431e-06
-4.10523e-08
9.74688e-06
-3.9005e-08
9.75036e-06
-3.70935e-08
9.75359e-06
-3.53127e-08
-3.36496e-08
9.75658e-06
8.40982e-06
-1.78452e-08
8.41791e-06
-4.19818e-08
8.42612e-06
-5.29707e-08
8.43415e-06
-5.85344e-08
8.44214e-06
-6.18399e-08
8.44981e-06
-6.29638e-08
8.45695e-06
-6.22844e-08
8.46352e-06
-6.05248e-08
8.46954e-06
-5.81969e-08
8.47504e-06
-5.55674e-08
8.48003e-06
-5.27981e-08
8.48456e-06
-5.00223e-08
8.48868e-06
-4.73329e-08
8.49242e-06
-4.47887e-08
8.49583e-06
-4.24182e-08
8.49896e-06
-4.02262e-08
8.50186e-06
-3.82047e-08
-3.63241e-08
8.50453e-06
7.32346e-06
-2.40168e-08
7.33257e-06
-5.11011e-08
7.34117e-06
-6.15628e-08
7.34944e-06
-6.68019e-08
7.35754e-06
-6.99392e-08
7.36519e-06
-7.06117e-08
7.37224e-06
-6.93235e-08
7.37868e-06
-6.69635e-08
7.38455e-06
-6.40667e-08
7.38987e-06
-6.08879e-08
7.39468e-06
-5.76016e-08
7.399e-06
-5.43413e-08
7.40289e-06
-5.12168e-08
7.40639e-06
-4.82863e-08
7.40955e-06
-4.55791e-08
7.41242e-06
-4.30992e-08
7.41506e-06
-4.08437e-08
-3.87769e-08
7.41752e-06
6.37881e-06
-3.27658e-08
6.38941e-06
-6.16948e-08
6.39916e-06
-7.1316e-08
6.40857e-06
-7.61905e-08
6.41762e-06
-7.89906e-08
6.42601e-06
-7.90018e-08
6.43366e-06
-7.69747e-08
6.4406e-06
-7.39033e-08
6.44686e-06
-7.03202e-08
6.45244e-06
-6.64723e-08
6.45739e-06
-6.25384e-08
6.46172e-06
-5.86748e-08
6.46549e-06
-5.49879e-08
6.46877e-06
-5.15595e-08
6.47159e-06
-4.84034e-08
6.47403e-06
-4.55409e-08
6.47617e-06
-4.29762e-08
-4.06556e-08
6.47805e-06
5.56038e-06
-4.76824e-08
5.57599e-06
-7.73037e-08
5.5905e-06
-8.58191e-08
5.60446e-06
-9.01365e-08
5.61742e-06
-9.19423e-08
5.62885e-06
-9.04337e-08
5.63866e-06
-8.67923e-08
5.64688e-06
-8.21169e-08
5.65353e-06
-7.69734e-08
5.65871e-06
-7.16433e-08
5.66251e-06
-6.63418e-08
5.66507e-06
-6.12268e-08
5.6665e-06
-5.64188e-08
5.66696e-06
-5.20253e-08
5.6666e-06
-4.80447e-08
5.66558e-06
-4.45189e-08
5.66409e-06
-4.14737e-08
-3.90381e-08
5.66247e-06
4.87201e-06
-9.20855e-08
4.9086e-06
-1.13889e-07
4.93561e-06
-1.12818e-07
4.95415e-06
-1.0866e-07
4.96382e-06
-1.01616e-07
4.96592e-06
-9.2537e-08
4.96206e-06
-8.29286e-08
4.95358e-06
-7.36392e-08
4.94162e-06
-6.50123e-08
4.92709e-06
-5.71108e-08
4.91071e-06
-4.99541e-08
4.89304e-06
-4.35565e-08
4.87454e-06
-3.79199e-08
4.85556e-06
-3.30402e-08
4.83652e-06
-2.90113e-08
4.81786e-06
-2.58579e-08
4.79978e-06
-2.33851e-08
-2.18609e-08
4.78261e-06
4.11059e-06
3.9967e-06
3.88389e-06
3.77523e-06
3.67361e-06
3.58107e-06
3.49814e-06
3.42451e-06
3.35949e-06
3.30238e-06
3.25243e-06
3.20887e-06
3.17095e-06
3.13791e-06
3.1089e-06
3.08304e-06
3.05966e-06
3.0378e-06
-7.97315e-09
7.99353e-09
-2.1631e-08
1.36954e-08
-3.67617e-08
1.51627e-08
-5.00665e-08
1.33375e-08
-5.66997e-08
6.66378e-09
-5.07868e-08
-5.87834e-09
-2.98949e-08
-2.08651e-08
3.95883e-09
-3.38154e-08
4.68766e-08
-4.28965e-08
9.43499e-08
-4.74436e-08
1.41893e-07
-4.75308e-08
1.86397e-07
-4.44809e-08
2.25761e-07
-3.93565e-08
2.58726e-07
-3.29451e-08
2.84519e-07
-2.57877e-08
3.02735e-07
-1.81998e-08
3.13069e-07
-1.0331e-08
3.15242e-07
-2.16153e-09
3.09041e-07
6.20355e-09
2.94645e-07
1.44034e-08
2.72634e-07
2.20132e-08
2.43984e-07
2.86585e-08
2.10055e-07
3.39351e-08
1.72665e-07
3.74067e-08
1.34034e-07
3.86425e-08
9.671e-08
3.73525e-08
6.31982e-08
3.35294e-08
3.55908e-08
2.76449e-08
1.49518e-08
2.06616e-08
1.27106e-09
1.37187e-08
-6.36574e-09
7.65408e-09
-8.63637e-09
2.29923e-09
-5.48834e-09
-3.13768e-09
4.19579e-09
-9.65908e-09
2.20958e-08
-1.78983e-08
4.90946e-08
-2.69681e-08
8.22163e-08
-3.3118e-08
1.15801e-07
-3.35441e-08
1.44069e-07
-2.82606e-08
1.6331e-07
-1.91976e-08
1.72206e-07
-8.88935e-09
1.72542e-07
-3.08123e-10
1.67665e-07
4.87168e-09
1.6127e-07
6.38672e-09
1.56818e-07
4.41992e-09
1.54071e-07
2.71267e-09
1.4457e-07
9.45036e-09
1.2022e-07
2.43358e-08
7.35562e-08
4.66157e-08
1.61686e-09
7.19547e-08
-9.20782e-08
9.36582e-08
-2.03583e-07
1.11516e-07
-3.29642e-07
1.2603e-07
-4.65705e-07
1.36055e-07
-6.07188e-07
1.41455e-07
-7.50746e-07
1.43543e-07
-8.93113e-07
1.42345e-07
-1.03115e-06
1.38018e-07
-1.16187e-06
1.30705e-07
-1.28438e-06
1.22508e-07
-1.3981e-06
1.13704e-07
-1.50282e-06
1.04714e-07
-1.59885e-06
9.60323e-08
-1.68634e-06
8.74883e-08
-1.7667e-06
8.03564e-08
-1.84083e-06
7.4142e-08
-1.9092e-06
6.8378e-08
-1.97248e-06
6.32802e-08
-2.03133e-06
5.88674e-08
-2.08631e-06
5.49814e-08
-2.13787e-06
5.15789e-08
-2.18642e-06
4.85672e-08
-2.23229e-06
4.5891e-08
-2.27575e-06
4.34851e-08
-2.31701e-06
4.13037e-08
-2.35628e-06
3.9304e-08
-2.39368e-06
3.745e-08
-2.42935e-06
3.5714e-08
-2.46336e-06
3.40685e-08
-2.49581e-06
3.24971e-08
-2.52673e-06
3.09797e-08
-2.55619e-06
2.95074e-08
-2.5842e-06
2.80655e-08
-2.6108e-06
2.66493e-08
-2.636e-06
2.52496e-08
-2.65982e-06
2.38617e-08
-2.68224e-06
2.24788e-08
-2.70327e-06
2.10897e-08
-2.7229e-06
1.9683e-08
-2.74107e-06
1.82555e-08
-2.75778e-06
1.67914e-08
-2.77299e-06
1.52928e-08
-2.78667e-06
1.37505e-08
-2.79878e-06
1.2164e-08
-2.80925e-06
1.05209e-08
-2.81804e-06
8.81637e-09
-2.82506e-06
7.03999e-09
-2.83026e-06
5.1886e-09
-2.83354e-06
3.27275e-09
-2.83492e-06
1.3507e-09
-2.83452e-06
-4.30542e-10
-2.83257e-06
-1.98841e-09
-2.82919e-06
-3.40085e-09
-2.82442e-06
-4.76783e-09
-2.8183e-06
-6.11119e-09
-2.81081e-06
-7.44267e-09
-2.80199e-06
-8.76381e-09
-2.79185e-06
-1.00723e-08
-2.7804e-06
-1.13695e-08
-2.76767e-06
-1.26472e-08
-2.75368e-06
-1.39107e-08
-2.73846e-06
-1.51486e-08
-2.72203e-06
-1.63706e-08
-2.70441e-06
-1.75631e-08
-2.68565e-06
-1.87385e-08
-2.66575e-06
-1.98809e-08
-2.64476e-06
-2.10035e-08
-2.62269e-06
-2.2093e-08
-2.59959e-06
-2.31639e-08
-2.57544e-06
-2.42052e-08
-2.55028e-06
-2.52266e-08
-2.52411e-06
-2.62205e-08
-2.49697e-06
-2.72004e-08
-2.46888e-06
-2.81605e-08
-2.43986e-06
-2.91146e-08
-2.40993e-06
-3.00518e-08
-2.37909e-06
-3.09813e-08
-2.34736e-06
-3.18949e-08
-2.31473e-06
-3.28004e-08
-2.28121e-06
-3.36963e-08
-2.24682e-06
-3.4576e-08
-2.21157e-06
-3.54355e-08
-2.17546e-06
-3.62781e-08
-2.13853e-06
-3.71043e-08
-2.10078e-06
-3.7897e-08
-2.06226e-06
-3.86546e-08
-2.02301e-06
-3.93509e-08
-1.98311e-06
-3.99818e-08
-1.94246e-06
-4.0688e-08
-1.90097e-06
-4.14883e-08
-1.85872e-06
-4.22302e-08
-1.81574e-06
-4.294e-08
-1.77207e-06
-4.36381e-08
-1.72771e-06
-4.4322e-08
-1.68269e-06
-4.49887e-08
-1.63701e-06
-4.5637e-08
-1.59071e-06
-4.62654e-08
-1.54381e-06
-4.68743e-08
-1.49631e-06
-4.74636e-08
-1.44825e-06
-4.80286e-08
-1.39964e-06
-4.8577e-08
-1.35052e-06
-4.9095e-08
-1.30089e-06
-4.95926e-08
-1.2508e-06
-5.00569e-08
-1.20027e-06
-5.04974e-08
-1.14934e-06
-5.09034e-08
-1.09802e-06
-5.12891e-08
-1.04635e-06
-5.16459e-08
-9.94328e-07
-5.19874e-08
-9.41986e-07
-5.23155e-08
-8.8933e-07
-5.26289e-08
-8.36366e-07
-5.29406e-08
-7.83098e-07
-5.32447e-08
-7.29535e-07
-5.35454e-08
-6.75679e-07
-5.38383e-08
-6.21545e-07
-5.41213e-08
-5.67143e-07
-5.43903e-08
-5.12493e-07
-5.46453e-08
-4.57603e-07
-5.48852e-08
-4.02496e-07
-5.51084e-08
-3.4719e-07
-5.53093e-08
-2.91725e-07
-5.54748e-08
-2.36163e-07
-5.55743e-08
-1.80622e-07
-5.55599e-08
-1.25288e-07
-5.53558e-08
-7.0567e-08
-5.47505e-08
-1.70554e-08
-5.35423e-08
3.36284e-08
-5.07171e-08
8.09537e-08
-4.73536e-08
-2.3302e-08
1.04237e-07
-3.52331e-09
1.15519e-08
-9.68532e-09
1.99236e-08
-1.29946e-08
1.8536e-08
-6.94052e-09
7.35475e-09
1.36582e-08
-1.38807e-08
4.85451e-08
-4.07231e-08
9.38711e-08
-6.61682e-08
1.44456e-07
-8.43775e-08
1.95149e-07
-9.35762e-08
2.42445e-07
-9.47217e-08
2.84731e-07
-8.9808e-08
3.21229e-07
-8.0964e-08
3.51747e-07
-6.98673e-08
3.76455e-07
-5.76405e-08
3.95644e-07
-4.4971e-08
4.09696e-07
-3.2241e-08
4.19006e-07
-1.96364e-08
4.24117e-07
-7.26472e-09
4.25416e-07
4.90744e-09
4.22843e-07
1.69819e-08
4.15945e-07
2.89139e-08
4.04137e-07
4.04717e-08
3.86861e-07
5.12158e-08
3.6377e-07
6.05076e-08
3.34878e-07
6.75419e-08
3.00787e-07
7.14578e-08
2.62799e-07
7.15266e-08
2.23048e-07
6.7417e-08
1.84376e-07
5.93454e-08
1.50116e-07
4.80023e-08
1.23561e-07
3.4221e-08
1.07275e-07
1.86096e-08
1.02681e-07
1.46445e-09
1.09602e-07
-1.65575e-08
1.2667e-07
-3.49616e-08
1.49342e-07
-4.96122e-08
1.70965e-07
-5.4732e-08
1.86044e-07
-4.85879e-08
1.92172e-07
-3.43766e-08
1.89259e-07
-1.62474e-08
1.78061e-07
2.31717e-09
1.60981e-07
1.67986e-08
1.3764e-07
2.81901e-08
1.00353e-07
4.36655e-08
3.92231e-08
6.54863e-08
-5.30471e-08
9.49385e-08
-1.74292e-07
1.30651e-07
-3.15631e-07
1.65656e-07
-4.67044e-07
1.98015e-07
-6.22028e-07
2.26935e-07
-7.78245e-07
2.49868e-07
-9.32702e-07
2.6597e-07
-1.08195e-06
2.75272e-07
-1.22321e-06
2.77309e-07
-1.35412e-06
2.72351e-07
-1.47266e-06
2.6207e-07
-1.57841e-06
2.48088e-07
-1.67207e-06
2.31665e-07
-1.75526e-06
2.13895e-07
-1.82884e-06
1.96082e-07
-1.89427e-06
1.79124e-07
-1.95288e-06
1.63319e-07
-2.00583e-06
1.48985e-07
-2.05449e-06
1.3615e-07
-2.09922e-06
1.25083e-07
-2.14058e-06
1.15514e-07
-2.17933e-06
1.07134e-07
-2.21586e-06
9.98152e-08
-2.25042e-06
9.34305e-08
-2.28324e-06
8.78109e-08
-2.31448e-06
8.28312e-08
-2.34427e-06
7.83743e-08
-2.37271e-06
7.43457e-08
-2.39987e-06
7.06645e-08
-2.42581e-06
6.72638e-08
-2.45056e-06
6.40892e-08
-2.47418e-06
6.10943e-08
-2.49667e-06
5.8243e-08
-2.51807e-06
5.55019e-08
-2.53838e-06
5.28477e-08
-2.55762e-06
5.02565e-08
-2.57578e-06
4.77133e-08
-2.59288e-06
4.52006e-08
-2.6089e-06
4.27085e-08
-2.62384e-06
4.0225e-08
-2.63768e-06
3.77422e-08
-2.65041e-06
3.525e-08
-2.66202e-06
3.27358e-08
-2.67248e-06
3.01923e-08
-2.68178e-06
2.76055e-08
-2.6899e-06
2.49746e-08
-2.69684e-06
2.22946e-08
-2.70261e-06
1.9564e-08
-2.70719e-06
1.67869e-08
-2.7106e-06
1.39628e-08
-2.71286e-06
1.11005e-08
-2.71403e-06
8.21e-09
-2.71416e-06
5.31352e-09
-2.71334e-06
2.441e-09
-2.71164e-06
-3.74908e-10
-2.70896e-06
-3.13363e-09
-2.7051e-06
-5.86464e-09
-2.69995e-06
-8.56966e-09
-2.69346e-06
-1.12504e-08
-2.68564e-06
-1.39068e-08
-2.67651e-06
-1.65445e-08
-2.66606e-06
-1.91592e-08
-2.65433e-06
-2.17497e-08
-2.64133e-06
-2.43095e-08
-2.62708e-06
-2.68348e-08
-2.6116e-06
-2.93216e-08
-2.59493e-06
-3.17657e-08
-2.57709e-06
-3.41664e-08
-2.5581e-06
-3.65193e-08
-2.53799e-06
-3.88256e-08
-2.51678e-06
-4.10801e-08
-2.49451e-06
-4.32857e-08
-2.47118e-06
-4.54407e-08
-2.44684e-06
-4.75506e-08
-2.42148e-06
-4.96123e-08
-2.39511e-06
-5.16313e-08
-2.36776e-06
-5.36056e-08
-2.33946e-06
-5.5547e-08
-2.31021e-06
-5.74571e-08
-2.28005e-06
-5.93461e-08
-2.24897e-06
-6.12089e-08
-2.21701e-06
-6.30507e-08
-2.18415e-06
-6.4866e-08
-2.15041e-06
-6.66595e-08
-2.1158e-06
-6.84275e-08
-2.08034e-06
-7.01689e-08
-2.04402e-06
-7.18796e-08
-2.00686e-06
-7.35607e-08
-1.96887e-06
-7.52098e-08
-1.93005e-06
-7.68187e-08
-1.8904e-06
-7.83854e-08
-1.84993e-06
-7.99015e-08
-1.80858e-06
-8.13745e-08
-1.76642e-06
-8.28642e-08
-1.72354e-06
-8.43657e-08
-1.67993e-06
-8.58279e-08
-1.63559e-06
-8.72532e-08
-1.59055e-06
-8.86519e-08
-1.54483e-06
-9.00182e-08
-1.49845e-06
-9.13505e-08
-1.45142e-06
-9.26429e-08
-1.40377e-06
-9.38961e-08
-1.35552e-06
-9.51068e-08
-1.30668e-06
-9.62778e-08
-1.25729e-06
-9.74015e-08
-1.20736e-06
-9.84873e-08
-1.15692e-06
-9.95214e-08
-1.10598e-06
-1.00509e-07
-1.05458e-06
-1.01439e-07
-1.00275e-06
-1.02315e-07
-9.50501e-07
-1.03132e-07
-8.97874e-07
-1.03899e-07
-8.44887e-07
-1.04617e-07
-7.91561e-07
-1.05298e-07
-7.37908e-07
-1.05954e-07
-6.8394e-07
-1.06583e-07
-6.29667e-07
-1.07202e-07
-5.75092e-07
-1.07809e-07
-5.20221e-07
-1.08409e-07
-4.65058e-07
-1.08994e-07
-4.09615e-07
-1.09561e-07
-3.539e-07
-1.10102e-07
-2.9793e-07
-1.10617e-07
-2.41715e-07
-1.11103e-07
-1.85272e-07
-1.11558e-07
-1.28621e-07
-1.11969e-07
-7.17937e-08
-1.12315e-07
-1.48358e-08
-1.12546e-07
4.21654e-08
-1.1258e-07
9.90344e-08
-1.12244e-07
1.55468e-07
-1.11208e-07
2.10906e-07
-1.09004e-07
2.64782e-07
-1.04619e-07
3.13764e-07
-9.63584e-08
-7.04224e-08
3.60865e-07
4.5646e-10
1.11274e-08
3.91483e-09
1.65293e-08
1.71284e-08
5.37649e-09
4.79489e-08
-2.34261e-08
9.59822e-08
-6.18916e-08
1.52767e-07
-9.74887e-08
2.08477e-07
-1.21868e-07
2.57218e-07
-1.33106e-07
2.96994e-07
-1.33344e-07
3.28257e-07
-1.25973e-07
3.52462e-07
-1.14007e-07
3.71112e-07
-9.96036e-08
3.85372e-07
-8.41222e-08
3.96077e-07
-6.83361e-08
4.03769e-07
-5.26583e-08
4.08831e-07
-3.72959e-08
4.11544e-07
-2.23455e-08
4.12146e-07
-7.86074e-09
4.10915e-07
6.14222e-09
4.08201e-07
1.97001e-08
4.04263e-07
3.28542e-08
3.99149e-07
4.559e-08
3.92593e-07
5.7774e-08
3.84016e-07
6.90896e-08
3.72576e-07
7.89839e-08
3.57393e-07
8.6646e-08
3.37864e-07
9.10584e-08
3.1413e-07
9.11584e-08
2.87369e-07
8.61089e-08
2.59875e-07
7.55036e-08
2.34579e-07
5.95195e-08
2.14294e-07
3.89023e-08
2.00759e-07
1.5001e-08
1.94381e-07
-1.01658e-08
1.91703e-07
-3.22789e-08
1.85624e-07
-4.35129e-08
1.7144e-07
-4.05387e-08
1.48649e-07
-2.57724e-08
1.18118e-07
-3.83672e-09
7.955e-08
2.23472e-08
2.94948e-08
5.23715e-08
-3.85677e-08
8.48672e-08
-1.30205e-07
1.19814e-07
-2.45714e-07
1.5916e-07
-3.81666e-07
2.01421e-07
-5.30359e-07
2.43617e-07
-6.82495e-07
2.82773e-07
-8.32819e-07
3.15972e-07
-9.76437e-07
3.41626e-07
-1.10903e-06
3.59525e-07
-1.22851e-06
3.69347e-07
-1.33396e-06
3.71413e-07
-1.42503e-06
3.66337e-07
-1.5027e-06
3.54975e-07
-1.56906e-06
3.38702e-07
-1.62627e-06
3.19279e-07
-1.67639e-06
2.98199e-07
-1.7213e-06
2.7657e-07
-1.7627e-06
2.55292e-07
-1.80165e-06
2.35027e-07
-1.83881e-06
2.16284e-07
-1.87469e-06
1.99196e-07
-1.90956e-06
1.83852e-07
-1.94362e-06
1.70211e-07
-1.97673e-06
1.58199e-07
-2.00886e-06
1.47648e-07
-2.04006e-06
1.38338e-07
-2.07033e-06
1.30093e-07
-2.09965e-06
1.22761e-07
-2.12803e-06
1.16191e-07
-2.15544e-06
1.10256e-07
-2.18191e-06
1.04847e-07
-2.20742e-06
9.98694e-08
-2.23199e-06
9.52441e-08
-2.25561e-06
9.0905e-08
-2.2783e-06
8.67975e-08
-2.30006e-06
8.28741e-08
-2.32089e-06
7.90968e-08
-2.34079e-06
7.54317e-08
-2.35977e-06
7.18518e-08
-2.37781e-06
6.83322e-08
-2.39493e-06
6.48535e-08
-2.4111e-06
6.13972e-08
-2.42631e-06
5.79492e-08
-2.44056e-06
5.44958e-08
-2.45381e-06
5.1026e-08
-2.46606e-06
4.75288e-08
-2.47729e-06
4.39928e-08
-2.48748e-06
4.04073e-08
-2.49659e-06
3.67655e-08
-2.50464e-06
3.30596e-08
-2.5116e-06
2.92884e-08
-2.51745e-06
2.54555e-08
-2.52221e-06
2.1564e-08
-2.52585e-06
1.76215e-08
-2.52838e-06
1.36377e-08
-2.52979e-06
9.62571e-09
-2.53009e-06
5.60479e-09
-2.52925e-06
1.58947e-09
-2.52723e-06
-2.40906e-09
-2.52398e-06
-6.40171e-09
-2.51947e-06
-1.0392e-08
-2.51367e-06
-1.4372e-08
-2.50658e-06
-1.83303e-08
-2.4982e-06
-2.22629e-08
-2.48855e-06
-2.61666e-08
-2.47763e-06
-3.00346e-08
-2.46547e-06
-3.38625e-08
-2.45209e-06
-3.76404e-08
-2.43751e-06
-4.13654e-08
-2.42175e-06
-4.50283e-08
-2.40485e-06
-4.86291e-08
-2.38681e-06
-5.21603e-08
-2.36768e-06
-5.56242e-08
-2.34747e-06
-5.90149e-08
-2.32621e-06
-6.23351e-08
-2.30392e-06
-6.55823e-08
-2.28062e-06
-6.87622e-08
-2.25632e-06
-7.18742e-08
-2.23105e-06
-7.49218e-08
-2.20479e-06
-7.79062e-08
-2.17759e-06
-8.08334e-08
-2.14945e-06
-8.37108e-08
-2.12039e-06
-8.65484e-08
-2.09043e-06
-8.93506e-08
-2.05959e-06
-9.21197e-08
-2.02785e-06
-9.48556e-08
-1.99524e-06
-9.75576e-08
-1.96176e-06
-1.00226e-07
-1.92742e-06
-1.02859e-07
-1.89222e-06
-1.05456e-07
-1.85618e-06
-1.08015e-07
-1.81929e-06
-1.10533e-07
-1.78157e-06
-1.13009e-07
-1.74302e-06
-1.15438e-07
-1.70366e-06
-1.17814e-07
-1.66347e-06
-1.20134e-07
-1.62247e-06
-1.22405e-07
-1.58069e-06
-1.24655e-07
-1.53818e-06
-1.2688e-07
-1.49494e-06
-1.2906e-07
-1.45099e-06
-1.31196e-07
-1.40634e-06
-1.33287e-07
-1.36103e-06
-1.35329e-07
-1.31506e-06
-1.37315e-07
-1.26846e-06
-1.39243e-07
-1.22124e-06
-1.41108e-07
-1.17344e-06
-1.42909e-07
-1.12506e-06
-1.44647e-07
-1.07615e-06
-1.46317e-07
-1.0267e-06
-1.47926e-07
-9.76758e-07
-1.49465e-07
-9.26333e-07
-1.50931e-07
-8.7545e-07
-1.52319e-07
-8.2414e-07
-1.53621e-07
-7.72426e-07
-1.54841e-07
-7.20337e-07
-1.55982e-07
-6.67891e-07
-1.57058e-07
-6.15111e-07
-1.58073e-07
-5.6201e-07
-1.59051e-07
-5.08599e-07
-1.59988e-07
-4.54889e-07
-1.60907e-07
-4.00885e-07
-1.61809e-07
-3.46591e-07
-1.62698e-07
-2.92013e-07
-1.63567e-07
-2.3716e-07
-1.6441e-07
-1.82042e-07
-1.65215e-07
-1.26672e-07
-1.65983e-07
-7.10608e-08
-1.6671e-07
-1.52205e-08
-1.67394e-07
4.08336e-08
-1.68019e-07
9.7071e-08
-1.68548e-07
1.53443e-07
-1.68914e-07
2.0986e-07
-1.68993e-07
2.66177e-07
-1.68558e-07
3.22188e-07
-1.67216e-07
3.77549e-07
-1.64363e-07
4.31832e-07
-1.58901e-07
4.84128e-07
-1.48653e-07
-1.24019e-07
5.3773e-07
-1.32202e-10
1.12892e-08
1.16732e-08
4.77593e-09
4.84409e-08
-3.13597e-08
1.07711e-07
-8.26758e-08
1.73489e-07
-1.27659e-07
2.31391e-07
-1.55379e-07
2.75096e-07
-1.65565e-07
3.04946e-07
-1.62947e-07
3.24245e-07
-1.52639e-07
3.36594e-07
-1.38314e-07
3.44698e-07
-1.22105e-07
3.50225e-07
-1.05123e-07
3.54038e-07
-8.79308e-08
3.56531e-07
-7.08218e-08
3.5784e-07
-5.39631e-08
3.58013e-07
-3.74627e-08
3.5707e-07
-2.13988e-08
3.55052e-07
-5.83738e-09
3.52024e-07
9.17329e-09
3.48124e-07
2.36045e-08
3.43555e-07
3.74245e-08
3.38551e-07
5.05979e-08
3.33271e-07
6.30542e-08
3.27732e-07
7.46302e-08
3.21686e-07
8.50288e-08
3.14618e-07
9.37142e-08
3.0579e-07
9.98833e-08
2.94474e-07
1.02475e-07
2.80282e-07
1.00296e-07
2.6346e-07
9.2324e-08
2.45005e-07
7.79688e-08
2.26359e-07
5.75486e-08
2.0843e-07
3.29263e-08
1.88928e-07
9.34476e-09
1.61132e-07
-4.48153e-09
1.21667e-07
-4.02988e-09
7.15951e-08
9.53827e-09
1.12555e-08
3.45872e-08
-6.19468e-08
6.93698e-08
-1.50757e-07
1.11166e-07
-2.55785e-07
1.57398e-07
-3.76263e-07
2.05342e-07
-5.09295e-07
2.52838e-07
-6.48614e-07
2.98472e-07
-7.87842e-07
3.40639e-07
-9.21004e-07
3.76772e-07
-1.04281e-06
4.04569e-07
-1.15052e-06
4.23674e-07
-1.24326e-06
4.34369e-07
-1.32092e-06
4.37179e-07
-1.38464e-06
4.33063e-07
-1.4363e-06
4.23066e-07
-1.47826e-06
4.08293e-07
-1.5132e-06
3.89911e-07
-1.54366e-06
3.6916e-07
-1.57162e-06
3.47237e-07
-1.59849e-06
3.2506e-07
-1.62521e-06
3.03291e-07
-1.65235e-06
2.82431e-07
-1.68014e-06
2.62808e-07
-1.70852e-06
2.44667e-07
-1.73738e-06
2.28061e-07
-1.76654e-06
2.1301e-07
-1.79578e-06
1.99456e-07
-1.82488e-06
1.87293e-07
-1.85362e-06
1.764e-07
-1.8819e-06
1.6662e-07
-1.90961e-06
1.57805e-07
-1.93666e-06
1.49818e-07
-1.963e-06
1.42536e-07
-1.98858e-06
1.35846e-07
-2.01338e-06
1.29652e-07
-2.03737e-06
1.23868e-07
-2.06054e-06
1.18423e-07
-2.08288e-06
1.13254e-07
-2.10438e-06
1.0831e-07
-2.12503e-06
1.03546e-07
-2.14484e-06
9.89223e-08
-2.1638e-06
9.44067e-08
-2.1819e-06
8.99699e-08
-2.19913e-06
8.55863e-08
-2.21549e-06
8.12336e-08
-2.23096e-06
7.68916e-08
-2.24554e-06
7.25431e-08
-2.25919e-06
6.81726e-08
-2.27191e-06
6.37667e-08
-2.28368e-06
5.93127e-08
-2.29446e-06
5.47993e-08
-2.30424e-06
5.02166e-08
-2.31301e-06
4.55526e-08
-2.32073e-06
4.08085e-08
-2.32739e-06
3.5977e-08
-2.33298e-06
3.10648e-08
-2.33747e-06
2.60754e-08
-2.34086e-06
2.10192e-08
-2.34313e-06
1.59044e-08
-2.34425e-06
1.0745e-08
-2.34421e-06
5.55458e-09
-2.34298e-06
3.44776e-10
-2.34052e-06
-4.87566e-09
-2.33683e-06
-1.0106e-08
-2.33188e-06
-1.53378e-08
-2.32569e-06
-2.05607e-08
-2.31824e-06
-2.57603e-08
-2.30955e-06
-3.09291e-08
-2.29963e-06
-3.60577e-08
-2.28849e-06
-4.11373e-08
-2.27615e-06
-4.61591e-08
-2.26263e-06
-5.11127e-08
-2.24796e-06
-5.59925e-08
-2.23216e-06
-6.07887e-08
-2.21525e-06
-6.55009e-08
-2.19726e-06
-7.01211e-08
-2.17821e-06
-7.46521e-08
-2.15812e-06
-7.90874e-08
-2.13702e-06
-8.34322e-08
-2.11493e-06
-8.76844e-08
-2.09185e-06
-9.18509e-08