/*--------------------------------*- C++ -*----------------------------------*\
  =========                 |
  \\      /  F ield         | OpenFOAM: The Open Source CFD Toolbox
   \\    /   O peration     | Website:  https://openfoam.org
    \\  /    A nd           | Version:  13
     \\/     M anipulation  |
\*---------------------------------------------------------------------------*/
FoamFile
{
    format      ascii;
    class       volVectorField;
    location    "1500";
    object      U;
}
// * * * * * * * * * * * * * * * * * * * * * * * * * * * * * * * * * * * * * //

dimensions      [0 1 -1 0 0 0 0];

internalField   nonuniform List<vector> 
12225
(
(9.75455 0.0548689 0)
(9.28183 0.10171 0)
(8.81978 0.10282 0)
(8.38593 0.100394 0)
(7.99508 0.0894301 0)
(7.67044 0.0768444 0)
(7.38851 0.0591336 0)
(7.14302 0.0415861 0)
(6.933 0.0329437 0)
(6.75023 0.0395487 0)
(6.61285 0.0384319 0)
(6.50629 0.0169935 0)
(6.42594 0.00255373 0)
(6.35631 -0.00109277 0)
(6.30324 -0.00243932 0)
(6.25645 -0.0078619 0)
(6.22566 -0.0011346 0)
(6.22012 0.00572343 0)
(10.101 0.056251 0)
(10.2943 0.0908343 0)
(10.4164 0.094519 0)
(10.4651 0.0929637 0)
(10.4631 0.0905506 0)
(10.4156 0.0872551 0)
(10.3444 0.0853985 0)
(10.2729 0.0828664 0)
(10.193 0.0767299 0)
(10.1113 0.0663744 0)
(10.0061 0.0575295 0)
(9.90538 0.0535792 0)
(9.80844 0.0499072 0)
(9.71852 0.0452759 0)
(9.63131 0.0404324 0)
(9.55127 0.0354137 0)
(9.47813 0.0259517 0)
(9.3964 0.0138527 0)
(10.0121 0.0446986 0)
(10.0638 0.0688744 0)
(10.1171 0.0691404 0)
(10.1662 0.0751093 0)
(10.214 0.0818062 0)
(10.2596 0.0853262 0)
(10.2975 0.0842627 0)
(10.3272 0.0814598 0)
(10.3498 0.0799664 0)
(10.3671 0.0779698 0)
(10.3784 0.0738416 0)
(10.3832 0.0689707 0)
(10.3814 0.0652118 0)
(10.3759 0.0617631 0)
(10.368 0.0585716 0)
(10.3584 0.0542775 0)
(10.3474 0.0487167 0)
(10.3323 0.0401851 0)
(10.0041 0.0308994 0)
(10.0371 0.0549313 0)
(10.0634 0.063067 0)
(10.0817 0.0695116 0)
(10.0986 0.0744673 0)
(10.1172 0.0759749 0)
(10.1359 0.0737682 0)
(10.1529 0.0703419 0)
(10.1687 0.0675901 0)
(10.1845 0.0651828 0)
(10.1997 0.0618202 0)
(10.2133 0.0575942 0)
(10.2253 0.0541242 0)
(10.2363 0.0513176 0)
(10.2467 0.0485986 0)
(10.2565 0.0451095 0)
(10.2649 0.0409228 0)
(10.2721 0.0354134 0)
(10.0048 0.0257127 0)
(10.0306 0.0523366 0)
(10.0494 0.0617956 0)
(10.0664 0.0671762 0)
(10.08 0.0706074 0)
(10.0938 0.071701 0)
(10.107 0.0703418 0)
(10.1181 0.0679254 0)
(10.1277 0.0657877 0)
(10.1371 0.0636113 0)
(10.1461 0.0605821 0)
(10.154 0.0569832 0)
(10.1612 0.053749 0)
(10.1679 0.0508004 0)
(10.1745 0.0478425 0)
(10.1811 0.0443894 0)
(10.1869 0.0403212 0)
(10.1923 0.0356804 0)
(10.0046 0.0201304 0)
(10.0234 0.0461736 0)
(10.0423 0.0559519 0)
(10.0572 0.0608233 0)
(10.0702 0.0644559 0)
(10.0832 0.0661759 0)
(10.0955 0.0656512 0)
(10.1059 0.0637992 0)
(10.115 0.0617711 0)
(10.1235 0.0595076 0)
(10.1313 0.0565625 0)
(10.1381 0.0532299 0)
(10.1442 0.0500181 0)
(10.1499 0.0469159 0)
(10.1553 0.0437854 0)
(10.1605 0.0403529 0)
(10.1651 0.0364634 0)
(10.1692 0.0322896 0)
(10.0033 0.0163563 0)
(10.0177 0.0407664 0)
(10.0359 0.0508917 0)
(10.0501 0.0562969 0)
(10.0628 0.0603047 0)
(10.075 0.0622712 0)
(10.0863 0.0619602 0)
(10.0962 0.0603115 0)
(10.105 0.0583799 0)
(10.1131 0.0561114 0)
(10.1205 0.0533404 0)
(10.1271 0.0503402 0)
(10.133 0.0473278 0)
(10.1385 0.0443526 0)
(10.1435 0.0413567 0)
(10.1483 0.0381595 0)
(10.1525 0.0346119 0)
(10.1562 0.0308654 0)
(10.002 0.0135531 0)
(10.0137 0.0355635 0)
(10.0301 0.0462194 0)
(10.0439 0.0522621 0)
(10.056 0.0561815 0)
(10.0675 0.058045 0)
(10.0783 0.0579461 0)
(10.0879 0.0566626 0)
(10.0963 0.0548739 0)
(10.1041 0.0527203 0)
(10.1112 0.0502143 0)
(10.1175 0.0474439 0)
(10.1233 0.0445789 0)
(10.1285 0.0416935 0)
(10.1333 0.0387454 0)
(10.1378 0.0356349 0)
(10.1418 0.0322774 0)
(10.1452 0.0287995 0)
(10.0011 0.0112718 0)
(10.0107 0.0306073 0)
(10.0249 0.041716 0)
(10.038 0.0477785 0)
(10.0497 0.0515519 0)
(10.0606 0.0534568 0)
(10.0709 0.0536758 0)
(10.0802 0.0527385 0)
(10.0884 0.0511537 0)
(10.0959 0.0491959 0)
(10.1028 0.0468594 0)
(10.109 0.0442869 0)
(10.1146 0.0416128 0)
(10.1197 0.0388546 0)
(10.1244 0.036015 0)
(10.1287 0.0330522 0)
(10.1325 0.0299374 0)
(10.1358 0.0267647 0)
(10.0008 0.00938953 0)
(10.0085 0.0260463 0)
(10.0205 0.0369174 0)
(10.0325 0.0429292 0)
(10.0437 0.046721 0)
(10.0542 0.0487466 0)
(10.064 0.0492055 0)
(10.073 0.0485579 0)
(10.0811 0.0472267 0)
(10.0885 0.0454287 0)
(10.0951 0.043287 0)
(10.1013 0.0409328 0)
(10.1068 0.0384292 0)
(10.1119 0.0358234 0)
(10.1165 0.0331293 0)
(10.1207 0.0303408 0)
(10.1244 0.0274627 0)
(10.1277 0.0245651 0)
(10.0006 0.00782982 0)
(10.0068 0.0220189 0)
(10.0169 0.0322458 0)
(10.0278 0.0381125 0)
(10.0382 0.0418412 0)
(10.0482 0.0439195 0)
(10.0576 0.0445779 0)
(10.0664 0.0441825 0)
(10.0744 0.0430803 0)
(10.0816 0.0414984 0)
(10.0882 0.0395663 0)
(10.0943 0.0373956 0)
(10.0998 0.0350683 0)
(10.1048 0.0326346 0)
(10.1093 0.0301153 0)
(10.1135 0.0275225 0)
(10.1172 0.0248746 0)
(10.1204 0.0222274 0)
(10.0005 0.00659324 0)
(10.0055 0.0188556 0)
(10.0142 0.0282697 0)
(10.024 0.0338637 0)
(10.0338 0.0374457 0)
(10.0432 0.0394893 0)
(10.0522 0.0402419 0)
(10.0606 0.0400102 0)
(10.0685 0.0390897 0)
(10.0756 0.0376903 0)
(10.0822 0.0359448 0)
(10.0881 0.0339578 0)
(10.0936 0.031804 0)
(10.0986 0.0295384 0)
(10.1031 0.0271866 0)
(10.1072 0.0247777 0)
(10.1109 0.0223288 0)
(10.1142 0.0198923 0)
(10.0004 0.00549587 0)
(10.0046 0.0159321 0)
(10.012 0.0244375 0)
(10.0208 0.0296422 0)
(10.0298 0.033028 0)
(10.0386 0.0350031 0)
(10.0471 0.03581 0)
(10.0552 0.035709 0)
(10.0628 0.0349511 0)
(10.0698 0.033728 0)
(10.0762 0.0321681 0)
(10.0821 0.0303657 0)
(10.0876 0.0283943 0)
(10.0925 0.0263072 0)
(10.097 0.0241374 0)
(10.1011 0.0219174 0)
(10.1048 0.0196637 0)
(10.1081 0.0174262 0)
(10.0003 0.0044378 0)
(10.0038 0.0130347 0)
(10.01 0.0204173 0)
(10.0177 0.0250677 0)
(10.0259 0.0281382 0)
(10.034 0.0299579 0)
(10.0419 0.0307509 0)
(10.0496 0.0307302 0)
(10.0568 0.0301048 0)
(10.0635 0.029044 0)
(10.0698 0.0276641 0)
(10.0756 0.0260515 0)
(10.0809 0.0242761 0)
(10.0858 0.0223855 0)
(10.0902 0.0204225 0)
(10.0943 0.0184138 0)
(10.0979 0.0163818 0)
(10.1013 0.0143698 0)
(10.0003 0.00340837 0)
(10.003 0.0101406 0)
(10.0082 0.0162111 0)
(10.015 0.0201274 0)
(10.0222 0.0227529 0)
(10.0296 0.0243184 0)
(10.0369 0.0250164 0)
(10.044 0.0250186 0)
(10.0508 0.02449 0)
(10.0572 0.0235694 0)
(10.0632 0.0223598 0)
(10.0688 0.0209395 0)
(10.0739 0.0193673 0)
(10.0786 0.0176937 0)
(10.083 0.015953 0)
(10.087 0.0141789 0)
(10.0906 0.0123843 0)
(10.0939 0.0106191 0)
(10.0002 0.00239931 0)
(10.0025 0.00723712 0)
(10.0068 0.0118408 0)
(10.0126 0.0148378 0)
(10.019 0.0168686 0)
(10.0257 0.0180663 0)
(10.0323 0.0185777 0)
(10.0389 0.018534 0)
(10.0452 0.0180556 0)
(10.0513 0.0172492 0)
(10.0569 0.0161975 0)
(10.0622 0.0149665 0)
(10.0671 0.0136066 0)
(10.0717 0.0121609 0)
(10.0759 0.0106603 0)
(10.0798 0.00913452 0)
(10.0833 0.00759409 0)
(10.0865 0.00608801 0)
(10.0002 0.00139721 0)
(10.002 0.00431161 0)
(10.0057 0.00730822 0)
(10.0107 0.00920553 0)
(10.0164 0.0104763 0)
(10.0224 0.0111752 0)
(10.0285 0.0113943 0)
(10.0345 0.0112211 0)
(10.0404 0.010734 0)
(10.0461 0.0100041 0)
(10.0514 0.00909133 0)
(10.0565 0.00804229 0)
(10.0612 0.00689836 0)
(10.0655 0.00568812 0)
(10.0696 0.00444103 0)
(10.0733 0.00317547 0)
(10.0767 0.001904 0)
(10.0799 0.000665907 0)
(10.0002 0.000365962 0)
(10.0018 0.00128218 0)
(10.005 0.00252512 0)
(10.0094 0.00313554 0)
(10.0146 0.00347069 0)
(10.0201 0.00352283 0)
(10.0257 0.00332915 0)
(10.0314 0.00293043 0)
(10.0369 0.00236447 0)
(10.0423 0.00166505 0)
(10.0473 0.000863266 0)
(10.0521 -1.49549e-05 0)
(10.0567 -0.000946975 0)
(10.0609 -0.00191403 0)
(10.0648 -0.00289956 0)
(10.0684 -0.0038899 0)
(10.0717 -0.00487921 0)
(10.0749 -0.00583341 0)
(10.0002 -0.000774692 0)
(10.0017 -0.00206052 0)
(10.0047 -0.00278113 0)
(10.009 -0.00364765 0)
(10.014 -0.00441528 0)
(10.0193 -0.00514597 0)
(10.0247 -0.0058601 0)
(10.0302 -0.00656583 0)
(10.0355 -0.0072677 0)
(10.0407 -0.0079736 0)
(10.0457 -0.00868409 0)
(10.0503 -0.00940104 0)
(10.0547 -0.0101207 0)
(10.0588 -0.0108413 0)
(10.0626 -0.0115576 0)
(10.0662 -0.0122662 0)
(10.0695 -0.0129659 0)
(10.0726 -0.0136326 0)
(10.0002 -0.0018981 0)
(10.0019 -0.00533091 0)
(10.0053 -0.00793852 0)
(10.0099 -0.0101947 0)
(10.0152 -0.0119803 0)
(10.0207 -0.0134266 0)
(10.0263 -0.0146101 0)
(10.032 -0.0155814 0)
(10.0374 -0.0163921 0)
(10.0427 -0.0170848 0)
(10.0476 -0.0176977 0)
(10.0523 -0.018252 0)
(10.0567 -0.0187677 0)
(10.0608 -0.0192542 0)
(10.0646 -0.0197222 0)
(10.0682 -0.0201738 0)
(10.0715 -0.0206154 0)
(10.0745 -0.0210307 0)
(10.0002 -0.00296438 0)
(10.0023 -0.0083744 0)
(10.0063 -0.0125838 0)
(10.0116 -0.015931 0)
(10.0174 -0.0184731 0)
(10.0234 -0.0204285 0)
(10.0294 -0.0219195 0)
(10.0354 -0.0230322 0)
(10.0411 -0.0238611 0)
(10.0465 -0.0244877 0)
(10.0516 -0.0249744 0)
(10.0564 -0.0253628 0)
(10.0609 -0.0256865 0)
(10.065 -0.0259672 0)
(10.0689 -0.0262233 0)
(10.0724 -0.0264628 0)
(10.0757 -0.0266954 0)
(10.0788 -0.0269092 0)
(10.0003 -0.00415725 0)
(10.003 -0.0116562 0)
(10.0081 -0.0173422 0)
(10.0143 -0.0215882 0)
(10.0209 -0.0247217 0)
(10.0275 -0.0270577 0)
(10.034 -0.0287388 0)
(10.0404 -0.0298934 0)
(10.0464 -0.0306626 0)
(10.0521 -0.0311666 0)
(10.0574 -0.0314864 0)
(10.0624 -0.0316833 0)
(10.0669 -0.0318007 0)
(10.0712 -0.0318747 0)
(10.0751 -0.0319265 0)
(10.0787 -0.0319722 0)
(10.082 -0.0320182 0)
(10.0851 -0.0320594 0)
(10.0005 -0.00558249 0)
(10.0042 -0.015364 0)
(10.0106 -0.0223382 0)
(10.018 -0.0272564 0)
(10.0255 -0.030837 0)
(10.0328 -0.0334427 0)
(10.04 -0.035207 0)
(10.0469 -0.0363087 0)
(10.0534 -0.0369512 0)
(10.0594 -0.0372837 0)
(10.0649 -0.0374044 0)
(10.07 -0.0373845 0)
(10.0748 -0.0372816 0)
(10.0791 -0.0371396 0)
(10.0831 -0.0369877 0)
(10.0868 -0.0368424 0)
(10.0902 -0.0367125 0)
(10.0933 -0.0365925 0)
(10.0007 -0.0073837 0)
(10.006 -0.0196396 0)
(10.0142 -0.0276139 0)
(10.0231 -0.0329389 0)
(10.0315 -0.0368363 0)
(10.0396 -0.039612 0)
(10.0476 -0.0413596 0)
(10.0551 -0.0423251 0)
(10.062 -0.0427765 0)
(10.0684 -0.0428903 0)
(10.0742 -0.0427751 0)
(10.0796 -0.0425168 0)
(10.0845 -0.0421843 0)
(10.0889 -0.0418287 0)
(10.093 -0.0414842 0)
(10.0968 -0.0411682 0)
(10.1002 -0.040888 0)
(10.1034 -0.0406389 0)
(10.0011 -0.00973782 0)
(10.0088 -0.0245327 0)
(10.0193 -0.0332033 0)
(10.0297 -0.0387204 0)
(10.0391 -0.0427997 0)
(10.0483 -0.0456171 0)
(10.0571 -0.0472498 0)
(10.0654 -0.0480236 0)
(10.0729 -0.0482471 0)
(10.0797 -0.0481067 0)
(10.086 -0.0477194 0)
(10.0916 -0.0471867 0)
(10.0968 -0.0465918 0)
(10.1014 -0.045996 0)
(10.1057 -0.0454364 0)
(10.1096 -0.0449342 0)
(10.1131 -0.0444936 0)
(10.1164 -0.0441034 0)
(10.0018 -0.0129162 0)
(10.0131 -0.0298663 0)
(10.0265 -0.0390282 0)
(10.0388 -0.0447276 0)
(10.0496 -0.0488711 0)
(10.0602 -0.0515055 0)
(10.0703 -0.0528465 0)
(10.0796 -0.0533508 0)
(10.088 -0.0533376 0)
(10.0957 -0.0529745 0)
(10.1026 -0.0523684 0)
(10.1088 -0.051623 0)
(10.1144 -0.050829 0)
(10.1195 -0.0500507 0)
(10.124 -0.0493295 0)
(10.1281 -0.0486861 0)
(10.1319 -0.0481354 0)
(10.1353 -0.0476475 0)
(10.003 -0.0177383 0)
(10.0204 -0.0356799 0)
(10.0382 -0.0446051 0)
(10.0538 -0.0505507 0)
(10.0677 -0.0550265 0)
(10.0812 -0.0575369 0)
(10.0939 -0.0584792 0)
(10.1055 -0.0585198 0)
(10.1158 -0.0580401 0)
(10.1251 -0.0572137 0)
(10.1334 -0.0561697 0)
(10.1406 -0.0550264 0)
(10.147 -0.0538787 0)
(10.1525 -0.0528012 0)
(10.1573 -0.0518312 0)
(10.1614 -0.0509809 0)
(10.165 -0.0502646 0)
(10.168 -0.0496502 0)
(10.0078 -0.0273063 0)
(10.0385 -0.0458254 0)
(10.0694 -0.0518901 0)
(10.0948 -0.0572408 0)
(10.1183 -0.0622335 0)
(10.1403 -0.0652567 0)
(10.1597 -0.0665095 0)
(10.1761 -0.0666701 0)
(10.1895 -0.0661337 0)
(10.2001 -0.0650684 0)
(10.2082 -0.0636432 0)
(10.2139 -0.0620126 0)
(10.2174 -0.060314 0)
(10.2191 -0.0586625 0)
(10.2191 -0.0571569 0)
(10.2178 -0.0558668 0)
(10.2155 -0.0547833 0)
(10.2124 -0.0539952 0)
(10.0344 -0.0353828 0)
(10.1319 -0.060574 0)
(10.2026 -0.0663125 0)
(10.2487 -0.0682317 0)
(10.2758 -0.0696219 0)
(10.2874 -0.0695729 0)
(10.2853 -0.0682649 0)
(10.2721 -0.0662913 0)
(10.2504 -0.063953 0)
(10.2226 -0.0613679 0)
(10.1902 -0.0586162 0)
(10.1548 -0.0557997 0)
(10.1171 -0.0530224 0)
(10.0782 -0.0504282 0)
(10.0385 -0.0480236 0)
(9.99931 -0.0459313 0)
(9.96112 -0.0442839 0)
(9.92451 -0.0434027 0)
(9.89266 -0.039576 0)
(9.64349 -0.0734385 0)
(9.38292 -0.0857243 0)
(9.11341 -0.0882911 0)
(8.85862 -0.0853914 0)
(8.62697 -0.0795135 0)
(8.41866 -0.0723884 0)
(8.23258 -0.0648342 0)
(8.06775 -0.057429 0)
(7.92261 -0.0504164 0)
(7.79555 -0.0439019 0)
(7.68459 -0.037926 0)
(7.58799 -0.032526 0)
(7.50383 -0.0276918 0)
(7.43063 -0.0235501 0)
(7.36571 -0.0202504 0)
(7.30719 -0.017684 0)
(7.25485 -0.0160662 0)
(-0.00258219 0.00736797 -1.00763e-18)
(-0.0124492 0.0123298 1.11051e-18)
(-0.0258788 0.0136387 0)
(-0.0403141 0.0119907 0)
(-0.0512169 0.00666132 0)
(-0.0514515 -0.00234069 -7.70182e-19)
(-0.0370852 -0.0146174 0)
(-0.0113122 -0.0278111 0)
(0.0228422 -0.0380805 0)
(0.0624099 -0.0433411 0)
(0.10467 -0.0441639 4.30447e-19)
(0.146188 -0.0416484 0)
(0.184175 -0.0368171 0)
(0.216907 -0.0304699 0)
(0.243472 -0.023188 0)
(0.263416 -0.0153414 2.39716e-19)
(0.276395 -0.00714596 0)
(0.282586 0.00144373 0)
(0.280979 0.01033 0)
(0.271692 0.0190284 0)
(0.255335 0.0267804 0)
(0.232584 0.0327905 0)
(0.204349 0.0363365 0)
(0.172006 0.0368261 3.33093e-19)
(0.13737 0.0338712 -3.89849e-19)
(0.10266 0.0275227 4.72584e-19)
(0.0703074 0.0185228 5.93297e-19)
(0.0425704 0.008563 0)
(0.0209495 9.4149e-05 0)
(0.00581196 -0.00495736 -1.33072e-18)
(-0.00354729 -0.00687154 -1.48113e-18)
(-0.00831247 -0.00767381 0)
(-0.00788231 -0.00886944 0)
(-0.00172752 -0.0115925 -1.42796e-18)
(0.0109392 -0.0163044 0)
(0.0315858 -0.0225551 0)
(0.0588038 -0.0277584 6.34597e-19)
(0.0892417 -0.0296312 0)
(0.11783 -0.026949 4.24758e-19)
(0.140202 -0.0205833 7.72644e-19)
(0.153625 -0.0124865 0)
(0.158137 -0.00493638 0)
(0.155493 0.000107328 0)
(0.14954 0.00185781 0)
(0.144179 -0.000568835 0)
(0.141203 -0.00769308 8.05876e-19)
(0.136663 -0.0181263 8.1657e-19)
(0.123372 -0.0249239 8.49295e-19)
(0.0944884 -0.0179852 0)
(0.0448571 0.0019634 -1.14907e-18)
(-0.0354794 0.0214336 0)
(-0.13317 0.0432308 5.04568e-19)
(-0.240998 0.0660444 3.46229e-19)
(-0.361017 0.0838615 0)
(-0.489628 0.095964 0)
(-0.621163 0.105402 0)
(-0.752236 0.110992 1.61064e-19)
(-0.881384 0.111526 0)
(-1.00517 0.106169 0)
(-1.12218 0.100019 0)
(-1.23091 0.0925812 0)
(-1.33183 0.0843454 0)
(-1.42466 0.076139 0)
(-1.50978 0.0673729 0)
(-1.58763 0.0615002 0)
(-1.65952 0.0569075 -9.35322e-20)
(-1.72615 0.0521062 0)
(-1.78787 0.047814 0)
(-1.84532 0.0442222 8.63638e-20)
(-1.89906 0.0410448 8.44693e-20)
(-1.94955 0.0383044 0)
(-1.99719 0.0358929 -8.11475e-20)
(-2.04229 0.0337758 7.96647e-20)
(-2.08513 0.0318899 0)
(-2.12594 0.0301998 -7.6967e-20)
(-2.16489 0.0286669 0)
(-2.20214 0.0272612 0)
(-2.23779 0.0259597 7.34105e-20)
(-2.27195 0.0247382 0)
(-2.30469 0.0235836 -7.12804e-20)
(-2.33607 0.0224771 0)
(-2.36612 0.0214114 6.93042e-20)
(-2.39489 0.0203709 6.83666e-20)
(-2.42239 0.019351 6.74584e-20)
(-2.44865 0.0183405 1.33156e-19)
(-2.47367 0.017335 -1.31441e-19)
(-2.49744 0.0163274 0)
(-2.51997 0.0153103 0)
(-2.54125 0.0142786 0)
(-2.56125 0.0132301 -1.24934e-19)
(-2.57995 0.0121549 -1.23365e-19)
(-2.5973 0.0110567 1.2181e-19)
(-2.61327 0.00992771 0)
(-2.62784 0.00876905 -1.18724e-19)
(-2.64094 0.00757382 -1.17184e-19)
(-2.65253 0.00634336 -1.15643e-19)
(-2.66253 0.00507853 0)
(-2.67088 0.00379298 0)
(-2.67751 0.00251888 0)
(-2.68234 0.00131995 -1.09413e-19)
(-2.68537 0.000277792 0)
(-2.68686 -0.000597573 0)
(-2.68702 -0.00137329 1.04348e-19)
(-2.68587 -0.00211506 0)
(-2.68342 -0.00283261 0)
(-2.6797 -0.00353471 9.87337e-20)
(-2.67471 -0.00421922 0)
(-2.66846 -0.00488649 0)
(-2.66097 -0.00553493 -9.24819e-20)
(-2.65225 -0.00616192 -9.02548e-20)
(-2.64231 -0.00676892 0)
(-2.63119 -0.00735151 8.55899e-20)
(-2.61889 -0.0079142 0)
(-2.60543 -0.00845128 -8.066e-20)
(-2.59085 -0.00896937 0)
(-2.57516 -0.00946156 -7.54856e-20)
(-2.55839 -0.00993587 -7.28126e-20)
(-2.54056 -0.0103865 0)
(-2.52169 -0.0108228 0)
(-2.50179 -0.0112392 0)
(-2.48086 -0.0116421 0)
(-2.45893 -0.0120272 0)
(-2.43601 -0.0124025 0)
(-2.41213 -0.0127649 0)
(-2.38731 -0.0131231 -4.95329e-20)
(-2.36155 -0.0134717 4.63906e-20)
(-2.33486 -0.0138176 0)
(-2.30724 -0.0141581 0)
(-2.27871 -0.0145021 0)
(-2.24925 -0.0148517 0)
(-2.21887 -0.0151916 5.96242e-20)
(-2.18758 -0.0155083 0)
(-2.1554 -0.0158092 -4.54094e-20)
(-2.12232 -0.0160837 3.80574e-20)
(-2.08836 -0.0163058 0)
(-2.05354 -0.016437 0)
(-2.01792 -0.016404 0)
(-1.98156 -0.0161746 -6.7245e-21)
(-1.94442 -0.016131 1.66433e-21)
(-1.90638 -0.0164082 0)
(-1.86746 -0.0166912 1.92743e-20)
(-1.82773 -0.0169599 2.85358e-20)
(-1.78719 -0.0172318 -3.81253e-20)
(-1.74587 -0.0175009 0)
(-1.70377 -0.0177671 0)
(-1.6609 -0.0180297 -6.90774e-20)
(-1.61729 -0.0182884 0)
(-1.57295 -0.0185434 0)
(-1.52789 -0.0187954 0)
(-1.48213 -0.0190424 0)
(-1.43569 -0.0192885 1.29466e-19)
(-1.38858 -0.0195256 1.43153e-19)
(-1.34082 -0.0197629 0)
(-1.29245 -0.0199914 1.72417e-19)
(-1.24347 -0.020221 0)
(-1.19393 -0.0204432 0)
(-1.14382 -0.0206706 2.21803e-19)
(-1.09321 -0.0208952 0)
(-1.04207 -0.02113 2.59126e-19)
(-0.990449 -0.0213703 0)
(-0.938326 -0.0216209 0)
(-0.885724 -0.0218876 3.23334e-19)
(-0.832635 -0.0221673 0)
(-0.779063 -0.0224634 3.72905e-19)
(-0.725008 -0.0227746 0)
(-0.670476 -0.0231017 0)
(-0.615474 -0.0234443 0)
(-0.560013 -0.0238048 -4.94263e-19)
(-0.504102 -0.0241842 0)
(-0.447753 -0.0245834 5.69991e-19)
(-0.39098 -0.0250019 0)
(-0.333806 -0.0254349 0)
(-0.276277 -0.0258731 0)
(-0.218475 -0.0263152 0)
(-0.160551 -0.0267174 0)
(-0.102803 -0.0269513 0)
(-0.0455969 -0.0268235 0)
(0.00821596 -0.0255721 -2.04015e-18)
(0.0677118 -0.022743 0)
(0.0859846 -0.0109127 0)
(-0.000179471 0.0200337 3.06317e-18)
(-0.00577776 0.034902 -3.47419e-18)
(-0.0124068 0.0365651 0)
(-0.0136258 0.0279188 2.41173e-18)
(-0.00142585 0.00747462 0)
(0.0261833 -0.0272353 7.83681e-19)
(0.0633358 -0.0674992 -9.75125e-19)
(0.106502 -0.101463 -6.90109e-19)
(0.151754 -0.123085 0)
(0.195566 -0.131547 -4.45873e-19)
(0.235598 -0.129194 -1.94426e-19)
(0.270806 -0.11929 0)
(0.300799 -0.104714 0)
(0.325555 -0.0875718 0)
(0.345264 -0.0692492 0)
(0.360221 -0.0505614 -1.49902e-19)
(0.370801 -0.0319141 0)
(0.377184 -0.013498 3.04893e-19)
(0.380297 0.00471043 0)
(0.380101 0.022588 0)
(0.376242 0.0397847 -3.16368e-19)
(0.368223 0.0558037 0)
(0.355494 0.0698891 3.37699e-19)
(0.337592 0.0810709 -1.77061e-19)
(0.31432 0.088234 1.88678e-19)
(0.285918 0.0903259 -2.04841e-19)
(0.253274 0.0866442 -2.27479e-19)
(0.217983 0.0772705 0)
(0.182276 0.0632157 0)
(0.148893 0.0462235 3.62422e-19)
(0.120819 0.0279457 -4.3643e-19)
(0.101202 0.00935472 0)
(0.0914881 -0.00955523 0)
(0.0933179 -0.0281274 5.34342e-19)
(0.105226 -0.0469755 0)
(0.124374 -0.0647188 0)
(0.145327 -0.0751209 -3.04975e-19)
(0.16236 -0.0730341 0)
(0.172105 -0.0598845 2.43142e-19)
(0.173744 -0.040426 -4.86506e-19)
(0.167538 -0.0201715 0)
(0.15502 -0.00484908 0)
(0.137468 0.00406125 -1.2252e-18)
(0.112069 0.00843831 -1.36694e-18)
(0.0711268 0.0132436 -1.60921e-18)
(0.00374173 0.0293463 8.15185e-19)
(-0.098434 0.0660343 -5.56008e-19)
(-0.222331 0.109862 -1.0682e-18)
(-0.355188 0.153695 5.01015e-19)
(-0.493874 0.193508 1.90146e-19)
(-0.636908 0.225529 0)
(-0.779468 0.249262 -1.28384e-19)
(-0.918931 0.264901 1.12578e-19)
(-1.05296 0.272052 0)
(-1.17882 0.270917 0)
(-1.29356 0.2634 0)
(-1.39667 0.251177 -7.94814e-20)
(-1.48845 0.235645 0)
(-1.57023 0.218113 1.45588e-19)
(-1.64247 0.199958 0)
(-1.70709 0.182397 1.36048e-19)
(-1.76463 0.165823 0)
(-1.81689 0.150672 -1.29348e-19)
(-1.86453 0.137022 0)
(-1.90852 0.125006 1.23759e-19)
(-1.94937 0.114464 -6.07847e-20)
(-1.98756 0.105261 0)
(-2.02359 0.0972445 -1.1718e-19)
(-2.0578 0.0902677 -5.76158e-20)
(-2.09036 0.0841654 -5.67271e-20)
(-2.12148 0.0787979 0)
(-2.15126 0.0740381 -5.50161e-20)
(-2.17982 0.0697808 -5.42634e-20)
(-2.20722 0.065936 0)
(-2.23352 0.0624289 5.27464e-20)
(-2.25876 0.0592003 -1.03942e-19)
(-2.28299 0.0561979 0)
(-2.30622 0.0533832 -5.06085e-20)
(-2.32847 0.0507193 0)
(-2.34977 0.0481826 1.47666e-19)
(-2.37011 0.0457471 0)
(-2.38951 0.0433991 -1.43784e-19)
(-2.40796 0.0411195 -4.73417e-20)
(-2.42546 0.0388995 4.66053e-20)
(-2.442 0.0367258 9.20069e-20)
(-2.45756 0.0345904 -9.08265e-20)
(-2.47214 0.0324826 0)
(-2.48571 0.0303893 0)
(-2.49825 0.0283012 0)
(-2.50975 0.0262094 2.59144e-19)
(-2.5202 0.0241081 8.52954e-20)
(-2.52957 0.0219957 -8.41527e-20)
(-2.53788 0.0198676 0)
(-2.54509 0.017727 -8.17984e-20)
(-2.55124 0.0155673 8.06971e-20)
(-2.55632 0.0133922 7.95287e-20)
(-2.56036 0.0112009 0)
(-2.56342 0.00900439 0)
(-2.56555 0.00682139 0)
(-2.56685 0.0046955 7.47182e-20)
(-2.56737 0.00268738 0)
(-2.56689 0.000811094 -1.44325e-19)
(-2.56519 -0.000969163 -2.12329e-19)
(-2.56225 -0.00269586 1.38814e-19)
(-2.55807 -0.00437776 0)
(-2.55263 -0.00602484 6.66029e-20)
(-2.54594 -0.00763517 0)
(-2.53803 -0.0092092 1.2673e-19)
(-2.5289 -0.0107434 -6.18968e-20)
(-2.51857 -0.012235 -6.02359e-20)
(-2.50705 -0.0136831 0)
(-2.49437 -0.0150837 -1.69615e-19)
(-2.48055 -0.0164394 1.09614e-19)
(-2.4656 -0.017745 5.27792e-20)
(-2.44956 -0.0190051 0)
(-2.43243 -0.0202133 4.90129e-20)
(-2.41425 -0.0213757 1.41692e-19)
(-2.39502 -0.0224885 0)
(-2.37478 -0.0235597 8.67718e-20)
(-2.35352 -0.0245855 8.27854e-20)
(-2.33125 -0.025572 7.8755e-20)
(-2.30799 -0.0265161 0)
(-2.28376 -0.0274281 0)
(-2.25856 -0.0283069 0)
(-2.23243 -0.0291625 -3.13733e-20)
(-2.20536 -0.0299893 -2.87662e-20)
(-2.17737 -0.0307933 0)
(-2.14846 -0.0315693 -4.95135e-20)
(-2.11863 -0.032322 -4.51989e-20)
(-2.08789 -0.0330478 0)
(-2.05625 -0.0337498 -3.59021e-20)
(-2.0237 -0.0344272 -6.40308e-20)
(-1.99025 -0.0350825 2.69572e-20)
(-1.95592 -0.0357172 2.35709e-20)
(-1.92069 -0.0363293 0)
(-1.88459 -0.0369313 0)
(-1.84758 -0.0375309 0)
(-1.80964 -0.0381349 3.57104e-21)
(-1.77078 -0.0387223 7.08276e-23)
(-1.73107 -0.0392613 1.13263e-20)
(-1.69054 -0.0397573 -1.13678e-20)
(-1.6492 -0.0402255 1.52079e-20)
(-1.60705 -0.0406745 2.17902e-20)
(-1.56411 -0.0411041 0)
(-1.52038 -0.0415128 0)
(-1.47589 -0.0418987 -3.67729e-20)
(-1.43065 -0.0422624 0)
(-1.38467 -0.0426033 0)
(-1.33798 -0.0429225 1.09742e-19)
(-1.29059 -0.0432161 0)
(-1.24251 -0.0434925 6.63067e-20)
(-1.19377 -0.0437409 -7.41618e-20)
(-1.14437 -0.0439686 0)
(-1.09436 -0.0441669 8.56034e-20)
(-1.04373 -0.0443422 0)
(-0.992539 -0.0444886 0)
(-0.940774 -0.0446159 -1.07835e-19)
(-0.888489 -0.0447208 2.28433e-19)
(-0.83567 -0.044813 -1.22388e-19)
(-0.782358 -0.0448971 0)
(-0.72854 -0.0449709 0)
(-0.674233 -0.0450457 1.43756e-19)
(-0.619434 -0.045119 0)
(-0.564145 -0.0451939 1.60037e-19)
(-0.508364 -0.0452678 0)
(-0.452096 -0.0453397 0)
(-0.395346 -0.0454068 0)
(-0.338123 -0.0454701 1.96974e-19)
(-0.280435 -0.0455291 0)
(-0.222291 -0.0455843 -2.15947e-19)
(-0.163705 -0.0456319 0)
(-0.104694 -0.0456642 0)
(-0.0453022 -0.0456592 4.90824e-19)
(0.0144212 -0.0455718 -5.04754e-19)
(0.0743707 -0.0453285 0)
(0.134242 -0.0448024 0)
(0.193924 -0.0437868 0)
(0.251262 -0.0417857 1.55244e-18)
(0.311384 -0.0378753 0)
(0.349655 -0.0258966 -1.0733e-18)
(0.000440129 0.0227968 3.15768e-22)
(0.000851485 0.0393378 4.83145e-18)
(0.00595148 0.033517 0)
(0.02404 0.00370949 -3.45148e-18)
(0.060887 -0.0520472 0)
(0.110211 -0.116356 0)
(0.162007 -0.169351 -3.12011e-22)
(0.209058 -0.201218 3.91964e-19)
(0.248385 -0.211851 3.35502e-19)
(0.279732 -0.205981 2.9903e-19)
(0.304164 -0.189269 0)
(0.32308 -0.166462 0)
(0.337687 -0.14084 -2.48076e-19)
(0.348851 -0.114383 -4.82037e-19)
(0.357146 -0.0881762 4.74581e-19)
(0.362963 -0.0627472 0)
(0.366575 -0.0383094 4.762e-19)
(0.368179 -0.0149531 -2.4181e-19)
(0.368013 0.00734053 0)
(0.366395 0.0287147 4.94092e-19)
(0.363586 0.049291 2.51072e-19)
(0.359744 0.0690134 -5.17572e-19)
(0.35481 0.0875382 -2.68571e-19)
(0.348393 0.104177 0)
(0.339824 0.117874 5.92538e-19)
(0.328262 0.127279 6.27725e-19)
(0.312939 0.130955 0)
(0.293532 0.127723 7.25681e-19)
(0.270567 0.117059 0)
(0.245616 0.0992908 8.90021e-19)
(0.221214 0.0755622 5.04631e-19)
(0.200284 0.0473344 0)
(0.185396 0.0162378 0)
(0.177011 -0.0169621 0)
(0.174279 -0.0506244 0)
(0.171335 -0.0752585 0)
(0.162303 -0.0806694 0)
(0.145246 -0.0669286 7.58528e-19)
(0.121285 -0.0415884 -1.13724e-18)
(0.0906521 -0.0111771 0)
(0.0526476 0.0208207 0)
(0.00286895 0.0498329 0)
(-0.0700337 0.0789544 5.6523e-22)
(-0.165652 0.119501 6.68262e-19)
(-0.280933 0.169686 9.90195e-19)
(-0.411556 0.223886 -7.6312e-19)
(-0.55022 0.278145 -3.05672e-19)
(-0.689615 0.327009 2.53197e-19)
(-0.824393 0.366963 5.22679e-22)
(-0.951073 0.397496 1.91462e-19)
(-1.06656 0.417423 0)
(-1.16978 0.42675 1.57053e-19)
(-1.26003 0.42596 1.17631e-21)
(-1.33752 0.415873 0)
(-1.4036 0.398103 0)
(-1.46031 0.375002 -1.22429e-19)
(-1.50988 0.348809 0)
(-1.55392 0.321285 0)
(-1.59418 0.293845 1.09558e-19)
(-1.6318 0.267602 2.10547e-19)
(-1.66767 0.243353 -1.01783e-19)
(-1.70221 0.221337 0)
(-1.7358 0.201686 9.68509e-20)
(-1.76867 0.184349 0)
(-1.80078 0.169297 9.31035e-20)
(-1.83209 0.15625 9.08396e-20)
(-1.86256 0.144861 -1.78414e-19)
(-1.89224 0.13489 -8.76018e-20)
(-1.92111 0.126132 0)
(-1.94916 0.118378 1.68899e-19)
(-1.97638 0.111458 0)
(-2.00277 0.105226 2.4488e-19)
(-2.02834 0.0995605 1.60551e-19)
(-2.05308 0.0943605 1.57951e-19)
(-2.077 0.0895435 -1.55423e-19)
(-2.1001 0.0850419 2.29514e-19)
(-2.12239 0.0807991 0)
(-2.14386 0.0767703 0)
(-2.16452 0.0729163 -1.45933e-19)
(-2.18437 0.069207 -2.15636e-19)
(-2.2034 0.0656153 0)
(-2.22162 0.0621208 6.97821e-20)
(-2.239 0.0587045 0)
(-2.25555 0.0553525 -2.0295e-19)
(-2.27124 0.0520516 -1.96275e-22)
(-2.28606 0.048791 1.92863e-22)
(-2.29999 0.0455594 1.29339e-19)
(-2.31301 0.0423447 0)
(-2.32509 0.0391376 -1.25567e-19)
(-2.33623 0.0359293 -1.45466e-22)
(-2.3464 0.0327153 0)
(-2.35559 0.0294942 0)
(-2.36378 0.0262686 0)
(-2.37097 0.0230426 1.16448e-19)
(-2.37714 0.0198219 0)
(-2.38229 0.0166166 0)
(-2.38643 0.0134398 0)
(-2.38953 0.0103111 0)
(-2.3916 0.00724662 0)
(-2.3926 0.0042549 1.05178e-19)
(-2.39248 0.00131968 0)
(-2.39119 -0.00157168 1.00949e-19)
(-2.38869 -0.00441061 9.88172e-20)
(-2.38499 -0.00718972 -9.66365e-20)
(-2.38006 -0.00990876 0)
(-2.37393 -0.0125683 -9.21128e-20)
(-2.36659 -0.0151651 0)
(-2.35806 -0.0176973 -8.73649e-20)
(-2.34835 -0.0201594 8.49091e-20)
(-2.33749 -0.0225494 2.47735e-19)
(-2.32548 -0.0248631 0)
(-2.31236 -0.0271002 2.323e-19)
(-2.29814 -0.0292583 7.51875e-20)
(-2.28283 -0.0313383 0)
(-2.26647 -0.0333393 1.39022e-19)
(-2.24906 -0.0352622 1.33544e-19)
(-2.23063 -0.0371082 -1.91705e-19)
(-2.2112 -0.0388808 0)
(-2.19078 -0.0405828 -5.80881e-20)
(-2.16937 -0.0422162 -5.52605e-20)
(-2.14698 -0.0437843 -1.57923e-19)
(-2.12363 -0.0452904 0)
(-2.09932 -0.0467423 0)
(-2.07408 -0.0481456 0)
(-2.04791 -0.0495061 -4.16429e-20)
(-2.02083 -0.0508243 0)
(-1.99283 -0.0521024 0)
(-1.96392 -0.0533394 3.22496e-20)
(-1.9341 -0.0545374 2.9343e-20)
(-1.90338 -0.0556957 0)
(-1.87176 -0.0568143 0)
(-1.83924 -0.057892 4.11484e-20)
(-1.80583 -0.0589292 0)
(-1.77151 -0.0599247 -2.93379e-20)
(-1.73631 -0.0608752 -2.42257e-20)
(-1.70022 -0.0617787 0)
(-1.66324 -0.0626338 0)
(-1.62537 -0.0634494 6.16101e-21)
(-1.58661 -0.06425 -9.12267e-22)
(-1.54701 -0.065029 -9.28072e-22)
(-1.5066 -0.0657686 0)
(-1.46537 -0.0664719 -3.83042e-20)
(-1.42335 -0.0671413 0)
(-1.38054 -0.0677746 0)
(-1.33695 -0.0683699 0)
(-1.29261 -0.068925 4.55584e-20)
(-1.24752 -0.0694397 0)
(-1.20171 -0.0699137 -1.15793e-19)
(-1.1552 -0.0703485 -6.57455e-20)
(-1.108 -0.0707413 0)
(-1.06012 -0.0710972 -7.95658e-20)
(-1.01159 -0.0714117 0)
(-0.962426 -0.0716847 0)
(-0.912638 -0.0719137 -3.00385e-19)
(-0.862256 -0.072097 2.13965e-19)
(-0.811296 -0.0722369 0)
(-0.759788 -0.0723362 2.43369e-19)
(-0.707744 -0.0724023 -1.30314e-19)
(-0.655188 -0.0724376 0)
(-0.602127 -0.072456 0)
(-0.548573 -0.0724542 0)
(-0.494531 -0.0724447 -4.80335e-19)
(-0.440004 -0.0724274 0)
(-0.384992 -0.0724048 -1.76608e-19)
(-0.329495 -0.0723738 0)
(-0.273516 -0.0723312 0)
(-0.21706 -0.0722733 0)
(-0.160134 -0.0721994 0)
(-0.102746 -0.0721084 0)
(-0.0449033 -0.0719998 0)
(0.0133863 -0.0718678 -4.61581e-19)
(0.0721093 -0.0716982 0)
(0.13123 -0.0714614 -2.40281e-19)
(0.190682 -0.0710934 7.29257e-19)
(0.250363 -0.0704903 0)
(0.310042 -0.0694902 0)
(0.369705 -0.0678367 -5.06363e-19)
(0.427788 -0.0650215 -5.16208e-19)
(0.488271 -0.0601038 5.23555e-19)
(0.536026 -0.0478572 5.3985e-19)
(-0.00100917 0.0227894 -6.14232e-18)
(0.0016987 0.0272621 -7.62544e-18)
(0.0211522 -0.00903056 -3.45016e-18)
(0.0660222 -0.0865578 -9.31935e-19)
(0.12509 -0.172642 0)
(0.18239 -0.238125 8.41732e-19)
(0.228155 -0.272226 -3.39645e-19)
(0.260411 -0.278425 0)
(0.281543 -0.265571 -2.61408e-19)
(0.295038 -0.241991 0)
(0.303815 -0.213361 4.54118e-19)
(0.309772 -0.18292 0)
(0.313958 -0.152327 2.09524e-19)
(0.316874 -0.12236 4.11132e-19)
(0.318712 -0.0933663 -4.08047e-19)
(0.319529 -0.0655057 0)
(0.319342 -0.038849 -4.14937e-19)
(0.318168 -0.0134409 0)
(0.316054 0.0107171 0)
(0.313093 0.0336581 -4.33181e-19)
(0.309417 0.0554087 0)
(0.305236 0.075977 -5.9411e-22)
(0.300761 0.0952703 0)
(0.296097 0.112988 0)
(0.291161 0.128548 4.28693e-22)
(0.285616 0.140992 -5.52506e-19)
(0.27887 0.148973 -5.92556e-19)
(0.270164 0.150877 -6.3819e-19)
(0.258895 0.145162 0)
(0.244918 0.130682 -1.52139e-18)
(0.228935 0.107185 0)
(0.212172 0.0756091 -9.60989e-19)
(0.196044 0.038004 0)
(0.180595 -0.00232047 0)
(0.15946 -0.0354737 9.86698e-19)
(0.128641 -0.0470832 0)
(0.0881384 -0.0357345 -7.74354e-19)
(0.0389696 -0.00775883 -5.22926e-22)
(-0.0194544 0.0311796 1.49031e-18)
(-0.0918042 0.0781626 -1.25137e-18)
(-0.179429 0.132731 0)
(-0.282181 0.191996 0)
(-0.398867 0.252841 -3.42356e-19)
(-0.523911 0.314516 0)
(-0.65184 0.375058 -2.39088e-19)
(-0.777108 0.429492 2.06519e-19)
(-0.894304 0.473346 1.82227e-19)
(-0.999355 0.505592 0)
(-1.09121 0.526011 -1.48325e-19)
(-1.16925 0.535105 -1.36378e-19)
(-1.23383 0.53377 2.55169e-19)
(-1.28665 0.523242 -1.18614e-19)
(-1.32954 0.505021 -1.11855e-19)
(-1.36486 0.480769 0)