/*--------------------------------*- C++ -*----------------------------------*\
  =========                 |
  \\      /  F ield         | OpenFOAM: The Open Source CFD Toolbox
   \\    /   O peration     | Website:  https://openfoam.org
    \\  /    A nd           | Version:  13
     \\/     M anipulation  |
\*---------------------------------------------------------------------------*/
FoamFile
{
    format      ascii;
    class       volScalarField;
    location    "4";
    object      k;
}
// * * * * * * * * * * * * * * * * * * * * * * * * * * * * * * * * * * * * * //

dimensions      [0 2 -2 0 0 0 0];

internalField   nonuniform List<scalar> 
1600
(
1.34692e-06
5.43301e-06
1.12783e-05
1.33125e-05
1.35261e-05
1.46718e-05
1.81297e-05
2.47119e-05
3.14111e-05
3.76298e-05
5.08311e-05
7.43087e-05
9.17871e-05
0.000105761
0.000124956
0.000149139
0.000175244
0.000201331
0.000229757
0.000258941
0.000291315
0.000326005
0.000365417
0.000409992
0.000463281
0.000516693
0.00056682
0.000611697
0.000647884
0.000666538
0.00067315
0.000647439
0.00058418
0.000476279
0.000331065
0.000184973
8.48438e-05
3.35909e-05
1.0301e-05
2.07665e-06
6.37282e-06
3.66036e-05
7.40892e-05
8.92316e-05
9.5862e-05
0.000109031
0.000140298
0.00019152
0.0002411
0.000286072
0.0003811
0.000525477
0.000597211
0.000629019
0.000659243
0.000693621
0.000737287
0.000774422
0.000821238
0.000865719
0.000918178
0.000971022
0.00102837
0.00108454
0.00113881
0.00119651
0.0012576
0.00131785
0.0013681
0.00139252
0.00139908
0.00134359
0.00122305
0.00104054
0.000757802
0.000446978
0.00019803
8.16432e-05
2.89135e-05
4.40955e-06
1.79739e-05
9.18305e-05
0.000157441
0.000186871
0.000218557
0.000284599
0.00040656
0.000573886
0.000750703
0.00085323
0.000879797
0.000840557
0.000806545
0.000794202
0.000801906
0.000823152
0.000842018
0.000866456
0.000893263
0.000922519
0.000955162
0.000988508
0.00102424
0.00106031
0.00109784
0.00113773
0.0011784
0.00121865
0.00125602
0.00128233
0.00129307
0.00129191
0.0012218
0.00108508
0.00084709
0.000513002
0.00018969
7.17887e-05
2.72068e-05
3.87059e-06
4.05751e-05
0.000185119
0.000280206
0.000336459
0.00042156
0.000574541
0.000781372
0.000936048
0.000985085
0.000937177
0.000868658
0.000828665
0.000810842
0.000807765
0.000817843
0.0008317
0.000849032
0.000870095
0.000892121
0.000914661
0.000937855
0.000961177
0.000985147
0.00101016
0.00103662
0.00106302
0.00108981
0.00111569
0.00113921
0.00115715
0.00116577
0.00116783
0.00114636
0.0011004
0.000992403
0.00075876
0.000293115
7.62913e-05
2.23407e-05
2.92143e-06
7.7635e-05
0.000321229
0.000449547
0.000540708
0.000677727
0.000867404
0.000996532
0.00102977
0.000970585
0.000889751
0.000830916
0.000806947
0.000800318
0.000799835
0.000814987
0.000831162
0.000851885
0.000873889
0.000896727
0.000920185
0.000943131
0.000965182
0.000986616
0.00100796
0.00103001
0.00105262
0.00107607
0.00109887
0.00111928
0.00113364
0.00114041
0.00114181
0.00112549
0.00109546
0.00104938
0.000931024
0.00064013
0.000167968
3.0669e-05
3.45604e-06
0.000133203
0.000490088
0.000648924
0.000762286
0.000907327
0.00101741
0.00104726
0.000998572
0.000895342
0.000823046
0.000792961
0.000782988
0.000781815
0.000795811
0.000815489
0.000836827
0.000863917
0.000889608
0.000915478
0.000939478
0.000961666
0.000982553
0.00100297
0.00102344
0.00104523
0.00106993
0.00109849
0.00113167
0.00116631
0.00119192
0.00120224
0.00120392
0.00118897
0.00114521
0.00107773
0.000992349
0.000816581
0.000338436
6.46759e-05
6.40939e-06
0.000205835
0.000667598
0.000849324
0.000952119
0.00103248
0.00105833
0.00101626
0.000907748
0.000817687
0.000779484
0.000766244
0.000764004
0.00077672
0.000798114
0.000823341
0.000850397
0.000875755
0.000898945
0.000920496
0.00094013
0.000958586
0.000975941
0.000993686
0.00101315
0.00103628
0.0010644
0.00109842
0.00113833
0.00118423
0.00123496
0.00127898
0.00129625
0.00129846
0.00127152
0.00119455
0.00106602
0.000895722
0.000601665
0.000138558
1.45551e-05
0.000285067
0.000843084
0.00101744
0.00107386
0.00108754
0.00103735
0.000934979
0.000821602
0.00077034
0.000751403
0.000747321
0.000756375
0.000778484
0.000803232
0.000827812
0.000851287
0.000872655
0.000890577
0.000905126
0.000916526
0.000925794
0.000935356
0.000948027
0.000965549
0.000989284
0.00102068
0.00106128
0.00111193
0.00117219
0.00123921
0.0013085
0.00136557
0.00138448
0.00138516
0.00134213
0.00122709
0.00101918
0.000713008
0.000234718
3.39278e-05
0.000356362
0.000987407
0.00113239
0.00114546
0.00108182
0.000979346
0.000843845
0.000770163
0.000740544
0.000732604
0.000735612
0.000755071
0.000778433
0.000802151
0.000823567
0.000841226
0.000853126
0.000858692
0.000860918
0.000861828
0.000863972
0.000869369
0.00087909
0.000894716
0.000917818
0.000950232
0.000993924
0.00105076
0.00112197
0.00120696
0.00130134
0.00139478
0.00146215
0.00147813
0.00146402
0.00137932
0.00119405
0.000890008
0.000421632
9.303e-05
0.000412131
0.00109186
0.00121405
0.0011805
0.00105311
0.000902288
0.000787189
0.000737251
0.00072043
0.000717932
0.000730233
0.000752877
0.000775073
0.000794335
0.00080617
0.000810063
0.000809776
0.000804966
0.000800095
0.000796491
0.000795179
0.00079715
0.000804743
0.000818613
0.000840321
0.000871664
0.000914858
0.000972575
0.00104764
0.00114207
0.0012551
0.00137963
0.00149758
0.00156767
0.00157763
0.00152606
0.00134989
0.00103037
0.000577654
0.000183564
0.000448751
0.00115684
0.00126091
0.00117579
0.00100215
0.00083605
0.00074907
0.000714329
0.00070492
0.000707277
0.000725817
0.000747254
0.000763585
0.000770403
0.000770919
0.000765887
0.000757601
0.000747732
0.000738932
0.000732894
0.00073039
0.000730442
0.000736966
0.000749553
0.000769622
0.000798772
0.000839244
0.000894124
0.000967389
0.00106348
0.00118578
0.00133338
0.00149524
0.0016244
0.0016745
0.00166712
0.00152966
0.00120562
0.000692842
0.00027348
0.000470679
0.00119089
0.00127822
0.00115794
0.000944976
0.000790689
0.000721613
0.000696422
0.000691078
0.000699036
0.000718901
0.000733174
0.000738124
0.000737576
0.000730258
0.000719214
0.000706628
0.000694393
0.000684182
0.000677538
0.000674672
0.000674349
0.000680255
0.000691848
0.000710266
0.000736896
0.000773809
0.000824069
0.000892057
0.000983543
0.00110489
0.00126038
0.00144654
0.00164292
0.00176199
0.00178217
0.0016859
0.00137068
0.000846329
0.000353261
0.00047015
0.00119094
0.00127076
0.00112255
0.000893877
0.000757014
0.000699828
0.000681029
0.000678506
0.000689918
0.000704322
0.000709445
0.000709398
0.000702015
0.000689777
0.000675538
0.000661278
0.00064852
0.000638312
0.000631824
0.000629016
0.000628691
0.000634012
0.000644605
0.000661407
0.000685653
0.000719199
0.000764883
0.000827035
0.000912014
0.00102825
0.00118462
0.00138526
0.00161952
0.00181911
0.00189046
0.00184311
0.00153741
0.00095829
0.000422499
0.000463714
0.00118039
0.00124997
0.00108205
0.000850375
0.000729732
0.000681121
0.0006666
0.000665722
0.000677251
0.000684188
0.000685076
0.000679462
0.000667728
0.000652929
0.000637524
0.000623117
0.000610746
0.000601025
0.000594682
0.000591829
0.000591398
0.000595863
0.000605288
0.000620481
0.000642583
0.000673251
0.000714994
0.000771756
0.000849727
0.000958126
0.00110887
0.00131255
0.00156737
0.00184031
0.00198217
0.00198496
0.00170574
0.00109841
0.000491405
0.000448468
0.00115398
0.00121345
0.00103874
0.000815205
0.000706725
0.0006643
0.000652673
0.000652708
0.000661037
0.000663626
0.00066068
0.000651071
0.000636973
0.000621223
0.000605825
0.000591939
0.000580186
0.000570888
0.000564341
0.000561115
0.00056035
0.000563661
0.00057175
0.000585349
0.000605558
0.000633889
0.000672554
0.000725024
0.000796966
0.000897572
0.00104063
0.00124282
0.00151415
0.00183579
0.00206709
0.00211356
0.00186794
0.00121908
0.000555006
0.000423154
0.00111479
0.00116918
0.000996466
0.00078694
0.000686958
0.000648845
0.000638984
0.000639323
0.000643901
0.000644019
0.000637725
0.000625749
0.000610635
0.000594863
0.000579983
0.000566755
0.000555484
0.00054631
0.000539385
0.000535388
0.000534057
0.000536058
0.000542719
0.000554768
0.0005733
0.000599742
0.000636072
0.000685295
0.000752358
0.000845689
0.000979195
0.00117281
0.00144577
0.00179483
0.00212022
0.00222895
0.00203098
0.00135573
0.000620318
0.000392995
0.00106953
0.00112111
0.00095773
0.000763466
0.000669763
0.000634575
0.000625832
0.000625818
0.000627946
0.000625748
0.000617244
0.000604052
0.000588726
0.000573366
0.000559125
0.00054645
0.000535447
0.000526161
0.000518738
0.000513743
0.000511659
0.000512374
0.000517614
0.000528188
0.000545226
0.000570127
0.000604719
0.000651643
0.000715176
0.000802827
0.000927969
0.00111237
0.00138273
0.00174825
0.00214596
0.00233099
0.00218531
0.00148258
0.000682646
0.000358428
0.00102326
0.00107287
0.00092305
0.000743911
0.000654964
0.000621609
0.000613426
0.000612986
0.000613451
0.000609403
0.000599599
0.000585932
0.000570814
0.000556002
0.000542346
0.000530076
0.000519182
0.000509675
0.00050173
0.00049574
0.000492687
0.000492334
0.00049623
0.000505432
0.000521125
0.000544732
0.000578006
0.000623318
0.00068433
0.000767499
0.000884989
0.00105889
0.00132213
0.0017001
0.00215354
0.00242185
0.00233845
0.00162314
0.000747136
0.000322651
0.00097643
0.0010258
0.00089224
0.000728082
0.000642312
0.000609946
0.000601985
0.000601151
0.000600451
0.000595173
0.000584721
0.000571025
0.000556303
0.000542041
0.000528873
0.000516901
0.00050605
0.000496317
0.000487889
0.000481169
0.000477026
0.000475796
0.000478498
0.00048645
0.000500923
0.000523413
0.000555673
0.0005999
0.00065926
0.000739198
0.000850352
0.00101378
0.00126583
0.00164701
0.00214486
0.00250217
0.00248284
0.00175986
0.000809533
0.00028471
0.000932587
0.000982336
0.00086518
0.000715831
0.000632057
0.000599653
0.000591539
0.000590418
0.000588909
0.000582946
0.000572302
0.000558843
0.000544592
0.000530842
0.000518094
0.000506379
0.000495591
0.000485721
0.000476956
0.000469711
0.000464696
0.000462641
0.000464351
0.000471183
0.000484541
0.000506043
0.000537498
0.000581025
0.00063941
0.000717177
0.000823333
0.000977105
0.00121582
0.00159129
0.00211561
0.00257401
0.00262388
0.00190743
0.000873801
0.000254437
0.000885481
0.000941952
0.000842054
0.000706275
0.000623847
0.000590609
0.000581989
0.000580643
0.000578657
0.000572457
0.000561938
0.000548884
0.000535142
0.000521877
0.000509525
0.000498089
0.000487449
0.000477584
0.000468671
0.000461114
0.00045555
0.000452761
0.000453686
0.000459501
0.000471829
0.000492447
0.000523246
0.000566354
0.000624291
0.000700769
0.00080317
0.000948489
0.0011735
0.00153896
0.00208096
0.00263062
0.00276009
0.00205563
0.00093632
0.000228769
0.000837623
0.000903622
0.000823076
0.000699758
0.000618504
0.00058324
0.000573421
0.000571656
0.00056941
0.000563378
0.000553208
0.00054068
0.000527484
0.000514711
0.000502777
0.000491685
0.000481313
0.000471622
0.000462762
0.000455109
0.000449262
0.000446021
0.000446369
0.000451171
0.000462543
0.000482397
0.000512654
0.000555544
0.000613444
0.000689361
0.000789074
0.000927079
0.0011382
0.00148959
0.00204137
0.00267162
0.00289388
0.00221301
0.00100001
0.000206025
0.00079071
0.000868004
0.000807174
0.000694994
0.000614869
0.000577519
0.000565884
0.000563369
0.000560961
0.000555301
0.000545695
0.000533808
0.000521218
0.000508976
0.000497515
0.000486858
0.000476886
0.000467543
0.000458944
0.00045142
0.000445537
0.000442107
0.000442204
0.00044624
0.000456664
0.000475754
0.000505452
0.000548276
0.000606651
0.000682973
0.000781112
0.00091225
0.00110985
0.0014445
0.00200009
0.00269657
0.00302315
0.00237371
0.00106192
0.000185309
0.000745499
0.000835327
0.000793105
0.000694142
0.000615087
0.00057351
0.000559316
0.000555685
0.000553132
0.000547879
0.00053902
0.000527896
0.000515994
0.000504353
0.000493438
0.000483313
0.000473875
0.000465051
0.000456918
0.000449746
0.000444049
0.000440642
0.000440711
0.000444329
0.000454065
0.000472574
0.000501852
0.000544653
0.000603467
0.00068032
0.000777791
0.00090385
0.00108771
0.00140291
0.00195701
0.00270793
0.00314757
0.00254216
0.00112399
0.000165954
0.000701627
0.000805456
0.000779064
0.000695207
0.000616937
0.000572664
0.000554395
0.000548813
0.000545801
0.000540894
0.000532859
0.000522613
0.000511496
0.000500537
0.000490264
0.000480787
0.000472023
0.00046389
0.000456434
0.000449804
0.000444452
0.000441231
0.000441323
0.000444587
0.000453697
0.000471767
0.000500745
0.000543518
0.00060264
0.000679938
0.000777235
0.000900375
0.00107125
0.00136469
0.00190983
0.00271101
0.00326606
0.00271523
0.00118374
0.000147793
0.000659562
0.000777649
0.000764761
0.000697935
0.000621259
0.000573881
0.000551226
0.00054305
0.000539146
0.000534359
0.000527064
0.00051772
0.000507468
0.000497298
0.000487769
0.000479044
0.000471074
0.000463798
0.000457037
0.00045106
0.000446345
0.000443644
0.000443952
0.0004472
0.000455963
0.000473566
0.000502166
0.00054496
0.000604771
0.000683186
0.000780605
0.000899948
0.00105988
0.00133011
0.00185763
0.0026999
0.00337673
0.00289407
0.00124231
0.000130367
0.000617371
0.000751838
0.000749478
0.000702666
0.000629052
0.000577609
0.000551575
0.00053887
0.000533253
0.000528309
0.00052159
0.00051311
0.000503763
0.000494451
0.000485745
0.000477861
0.000470807
0.000464363
0.000458582
0.000453576
0.000449691
0.000447738
0.00044839
0.000451913
0.000460748
0.000478218
0.000506636
0.000549487
0.00060984
0.00068924
0.000787208
0.000903956
0.00105312
0.00129966
0.00180201
0.00267415
0.00347725
0.00307568
0.00129778
0.00011397
0.000576531
0.000726468
0.000734954
0.000704535
0.000638855
0.000585289
0.000554153
0.000538874
0.00052967
0.000523199
0.000516535
0.000508773
0.000500313
0.000491893
0.000484074
0.000477114
0.000471037
0.000465641
0.000460965
0.000457051
0.000454216
0.000453314
0.00045445
0.000458544
0.000467915
0.000485508
0.000513907
0.000556782
0.000617425
0.000697437
0.000795743
0.000910283
0.0010494
0.00127228
0.00174293
0.00263491
0.00356423
0.00325822
0.00135078
9.81607e-05
0.000532979
0.000700652
0.000721414
0.000703178
0.000650918
0.000597176
0.000560629
0.000541153
0.000530078
0.000521622
0.000513685
0.00050564
0.000497572
0.000489899
0.000482999
0.000477067
0.000471848
0.000467557
0.000464059
0.000461379
0.000459857
0.000460097
0.000461965
0.000466975
0.000477334
0.00049531
0.000523848
0.000566673
0.000627224
0.00070721
0.000805281
0.000917593
0.00104735
0.00124656
0.00168157
0.00257992
0.00363921
0.00343673
0.00140006
8.43029e-05
0.000492775
0.000673986
0.00070761
0.000699282
0.000663065
0.000612358
0.000573252
0.000548035
0.000533479
0.000523254
0.000514416
0.000505932
0.000497745
0.000490168
0.000483526
0.000477988
0.000473599
0.000470318
0.000467995
0.000466635
0.000466669
0.000467754
0.000470829
0.000477277
0.000488754
0.000507377
0.000536184
0.000578817
0.000638729
0.000717753
0.000814584
0.000923722
0.00104472
0.0012207
0.0016176
0.00250393
0.00369662
0.00360554
0.00144625
7.24373e-05
0.000450848
0.000649941
0.000693891
0.000692498
0.00067315
0.000630783
0.000591944
0.000562701
0.000542906
0.000529468
0.000518681
0.000509051
0.000500272
0.000492495
0.000485946
0.000480736
0.00047697
0.000474486
0.000473231
0.000473308
0.000474236
0.000476602
0.000481314
0.000489219
0.000501855
0.00052131
0.000550415
0.000592576
0.000651105
0.000727929
0.000821906
0.000926367
0.00103989
0.00119423
0.00155134
0.00241214
0.00373201
0.00375723
0.00148905
6.26274e-05
0.000407829
0.00062847
0.000679438
0.000685063
0.000677058
0.000651075
0.000616117
0.000586388
0.00056276
0.000544295
0.000530211
0.000518325
0.000508058
0.000499359
0.00049232
0.000486969
0.000483357
0.000481225
0.000480961
0.000481657
0.000483567
0.000487336
0.000493368
0.000502608
0.000516392
0.000536629
0.000565829
0.000607017
0.000663202
0.000736382
0.000825172
0.00092588
0.00103163
0.00116709
0.00148627
0.00231268
0.00374698
0.00388062
0.00152973
5.44471e-05
0.00036325
0.000606066
0.000665572
0.000680944
0.000680171
0.000670446
0.00064719
0.000620048
0.000595528
0.00057408
0.000555254
0.000539208
0.000525971
0.000515108
0.000506491
0.000500038
0.000495736
0.000493172
0.000493035
0.000493925
0.00049628
0.000500784
0.000507698
0.000517862
0.000532426
0.00055305
0.000581822
0.000621291
0.000674041
0.000742162
0.000825316
0.000919615
0.00102023
0.00114725
0.00144551
0.00223483
0.00374949
0.0039417
0.00156967
4.90258e-05
0.000323978
0.000572077
0.000649156
0.000675167
0.000686823
0.000687902
0.000681345
0.000665204
0.000643412
0.000621369
0.000600042
0.000580406
0.000562839
0.000547929
0.00053587
0.000526603
0.000519987
0.00051558
0.00051361
0.000513931
0.000515623
0.000519546
0.000526419
0.000536692
0.00055132
0.00057163
0.000599263
0.000636267
0.000684807
0.000747041
0.000824032
0.000914632
0.00101509
0.00114036
0.00143098
0.0022026
0.00374175
0.00396176
0.00161396
4.94854e-05
0.000301248
0.000526598
0.000622852
0.000671201
0.000700217
0.000717302
0.000723757
0.000720285
0.000709662
0.000690913
0.000669634
0.000647772
0.00062663
0.000607233
0.000590247
0.000576005
0.000564632
0.000556005
0.000550215
0.000547237
0.000547638
0.000549914
0.000555277
0.000564919
0.000579074
0.000598694
0.000625129
0.000659979
0.000705394
0.00076354
0.000837441
0.000927713
0.00103986
0.00118311
0.00148722
0.00222514
0.00374037
0.00392979
0.0016355
6.12534e-05
0.000300698
0.000479162
0.000597852
0.000677249
0.000730259
0.000766817
0.000790953
0.00080137
0.000799142
0.000789857
0.000770772
0.000747284
0.000722223
0.000697539
0.000674571
0.000654273
0.000637121
0.000623573
0.00061413
0.00060812
0.000607359
0.000609062
0.00061394
0.000623918
0.000639281
0.000660315
0.000688872
0.000726271
0.00077605
0.000839597
0.000925237
0.00103364
0.00118622
0.00138577
0.00174373
0.00247132
0.00381128
0.00383967
0.00164318
8.1458e-05
0.000327887
0.000485668
0.000616704
0.000721733
0.000806972
0.000869478
0.000910521
0.000931365
0.00093299
0.000926821
0.000911057
0.000887743
0.000861915
0.000836333
0.000812509
0.000792054
0.00077558
0.000763145
0.000754571
0.000752623
0.000754985
0.000761671
0.000775383
0.000795397
0.000823776
0.000859993
0.000908462
0.000967538
0.0010459
0.00114242
0.00127581
0.00143821
0.00167271
0.00195877
0.00240516
0.00304015
0.00397437
0.00375741
0.00162413
0.000126253
0.000432445
0.000592486
0.000759591
0.00090244
0.00102196
0.00111094
0.00117057
0.00120466
0.00121664
0.00121557
0.00120974
0.00119726
0.00118211
0.00116909
0.00115914
0.0011562
0.00115867
0.00116634
0.00118235
0.00120705
0.00124133
0.00128375
0.00133819
0.00140242
0.0014822
0.00157379
0.00168613
0.00181399
0.00197025
0.0021463
0.00236397
0.00262028
0.00295356
0.00332857
0.00380012
0.00420279
0.00435688
0.00368843
0.00154469
0.000232891
0.000745461
0.00109624
0.00143944
0.00166703
0.00183404
0.00195438
0.0020396
0.00209806
0.0021389
0.00216675
0.00219259
0.0022198
0.0022507
0.00228793
0.00233348
0.0023882
0.00245484
0.0025307
0.00261981
0.00271856
0.0028325
0.00295596
0.00309673
0.00324665
0.00341626
0.00359532
0.0037955
0.00400829
0.00423816
0.00449487
0.0047433
0.00506049
0.00528467
0.00560661
0.00558886
0.00535535
0.00464736
0.00328947
0.00137819
0.000157895
0.000259877
0.000359294
0.000471519
0.000573151
0.000662213
0.000737362
0.000799799
0.00084948
0.000888386
0.000917143
0.000937849
0.000952879
0.000963245
0.000970893
0.000976293
0.00098135
0.000985588
0.000991511
0.000996877
0.0010058
0.0010137
0.00102731
0.00103857
0.00105835
0.00107343
0.00110081
0.00111991
0.00115611
0.00117909
0.00122382
0.00125024
0.00129858
0.00133149
0.00139975
0.00144268
0.00150509
0.00150135
0.00144547
0.00120482
)
;

boundaryField
{
    movingWall
    {
        type            kqRWallFunction;
        value           nonuniform List<scalar> 
40
(
0.000157895
0.000259877
0.000359294
0.000471519
0.000573151
0.000662213
0.000737362
0.000799799
0.00084948
0.000888386
0.000917143
0.000937849
0.000952879
0.000963245
0.000970893
0.000976293
0.00098135
0.000985588
0.000991511
0.000996877
0.0010058
0.0010137
0.00102731
0.00103857
0.00105835
0.00107343
0.00110081
0.00111991
0.00115611
0.00117909
0.00122382
0.00125024
0.00129858
0.00133149
0.00139975
0.00144268
0.00150509
0.00150135
0.00144547
0.00120482
)
;
    }
    fixedWalls
    {
        type            kqRWallFunction;
        value           nonuniform List<scalar> 
120
(
1.34692e-06
6.37282e-06
1.79739e-05
4.05751e-05
7.7635e-05
0.000133203
0.000205835
0.000285067
0.000356362
0.000412131
0.000448751
0.000470679
0.00047015
0.000463714
0.000448468
0.000423154
0.000392995
0.000358428
0.000322651
0.00028471
0.000254437
0.000228769
0.000206025
0.000185309
0.000165954
0.000147793
0.000130367
0.00011397
9.81607e-05
8.43029e-05
7.24373e-05
6.26274e-05
5.44471e-05
4.90258e-05
4.94854e-05
6.12534e-05
8.1458e-05
0.000126253
0.000232891
0.000157895
2.07665e-06
4.40955e-06
3.87059e-06
2.92143e-06
3.45604e-06
6.40939e-06
1.45551e-05
3.39278e-05
9.303e-05
0.000183564
0.00027348
0.000353261
0.000422499
0.000491405
0.000555006
0.000620318
0.000682646
0.000747136
0.000809533
0.000873801
0.00093632
0.00100001
0.00106192
0.00112399
0.00118374
0.00124231
0.00129778
0.00135078
0.00140006
0.00144625
0.00148905
0.00152973
0.00156967
0.00161396
0.0016355
0.00164318
0.00162413
0.00154469
0.00137819
0.00120482
1.34692e-06
5.43301e-06
1.12783e-05
1.33125e-05
1.35261e-05
1.46718e-05
1.81297e-05
2.47119e-05
3.14111e-05
3.76298e-05
5.08311e-05
7.43087e-05
9.17871e-05
0.000105761
0.000124956
0.000149139
0.000175244
0.000201331
0.000229757
0.000258941
0.000291315
0.000326005
0.000365417
0.000409992
0.000463281
0.000516693
0.00056682
0.000611697
0.000647884
0.000666538
0.00067315
0.000647439
0.00058418
0.000476279
0.000331065
0.000184973
8.48438e-05
3.35909e-05
1.0301e-05
2.07665e-06
)
;
    }
    frontAndBack
    {
        type            empty;
    }
}


// ************************************************************************* //
