/*--------------------------------*- C++ -*----------------------------------*\
  =========                 |
  \\      /  F ield         | OpenFOAM: The Open Source CFD Toolbox
   \\    /   O peration     | Website:  https://openfoam.org
    \\  /    A nd           | Version:  13
     \\/     M anipulation  |
\*---------------------------------------------------------------------------*/
FoamFile
{
    format      ascii;
    class       volScalarField;
    location    "4";
    object      nut;
}
// * * * * * * * * * * * * * * * * * * * * * * * * * * * * * * * * * * * * * //

dimensions      [0 2 -1 0 0 0 0];

internalField   nonuniform List<scalar> 
1600
(
9.47334e-09
3.82025e-08
7.92955e-08
9.35557e-08
9.50085e-08
1.03036e-07
1.27355e-07
1.73785e-07
2.21062e-07
2.64912e-07
3.57966e-07
5.23539e-07
6.46578e-07
7.44972e-07
8.80169e-07
1.05044e-06
1.23421e-06
1.41781e-06
1.61788e-06
1.82324e-06
2.05107e-06
2.29515e-06
2.57249e-06
2.88611e-06
3.26104e-06
3.63655e-06
3.98917e-06
4.30461e-06
4.55914e-06
4.69018e-06
4.73665e-06
4.55569e-06
4.1108e-06
3.35194e-06
2.33006e-06
1.30147e-06
5.96938e-07
2.36316e-07
7.2456e-08
1.46052e-08
4.48313e-08
1.19226e-06
3.6212e-06
4.81937e-06
5.08249e-06
5.13837e-06
5.44731e-06
5.85973e-06
5.81465e-06
5.59217e-06
6.11506e-06
7.63636e-06
8.73219e-06
9.5283e-06
1.05937e-05
1.19276e-05
1.35531e-05
1.49917e-05
1.6674e-05
1.81596e-05
1.97373e-05
2.11561e-05
2.25945e-05
2.38205e-05
2.47079e-05
2.54511e-05
2.61715e-05
2.66719e-05
2.68526e-05
2.6524e-05
2.62509e-05
2.43202e-05
2.19114e-05
1.85377e-05
1.38831e-05
8.7617e-06
4.17791e-06
1.68555e-06
6.04814e-07
3.09845e-08
1.26496e-07
3.0998e-06
8.10581e-06
1.05142e-05
1.14677e-05
1.23117e-05
1.37608e-05
1.51382e-05
1.5875e-05
1.62715e-05
1.63931e-05
1.59711e-05
1.61518e-05
1.65529e-05
1.8013e-05
2.01541e-05
2.20815e-05
2.41673e-05
2.60955e-05
2.79833e-05
2.98485e-05
3.13555e-05
3.25588e-05
3.33138e-05
3.38219e-05
3.41548e-05
3.422e-05
3.39703e-05
3.33161e-05
3.18934e-05
2.99118e-05
2.82234e-05
2.47496e-05
2.06577e-05
1.47435e-05
8.59117e-06
3.76434e-06
1.90338e-06
7.54365e-07
2.71883e-08
2.85635e-07
6.43387e-06
1.34972e-05
1.62082e-05
1.73313e-05
1.86264e-05
2.00924e-05
2.06508e-05
2.07137e-05
1.90227e-05
1.77153e-05
1.86327e-05
2.05813e-05
2.31282e-05
2.58887e-05
2.82588e-05
3.05342e-05
3.25995e-05
3.44413e-05
3.5967e-05
3.70061e-05
3.77508e-05
3.8195e-05
3.84397e-05
3.84942e-05
3.82954e-05
3.78364e-05
3.70605e-05
3.59244e-05
3.43374e-05
3.22286e-05
2.97975e-05
2.62165e-05
2.27794e-05
1.83514e-05
1.20051e-05
4.04748e-06
1.52355e-06
5.82599e-07
2.05184e-08
5.46595e-07
1.12816e-05
1.91872e-05
2.12269e-05
2.20369e-05
2.32342e-05
2.34655e-05
2.32602e-05
2.11425e-05
2.01643e-05
2.22774e-05
2.45387e-05
2.75517e-05
3.00771e-05
3.28662e-05
3.50468e-05
3.71397e-05
3.90189e-05
4.02409e-05
4.13123e-05
4.1996e-05
4.24753e-05
4.26929e-05
4.27254e-05
4.25656e-05
4.21796e-05
4.15346e-05
4.05279e-05
3.91011e-05
3.71578e-05
3.48119e-05
3.23167e-05
2.90503e-05
2.51739e-05
2.09956e-05
1.60384e-05
8.86724e-06
2.35413e-06
5.86411e-07
2.42854e-08
9.3783e-07
1.64604e-05
2.4401e-05
2.55679e-05
2.58784e-05
2.57688e-05
2.5487e-05
2.34588e-05
2.23809e-05
2.46414e-05
2.74493e-05
3.04373e-05
3.30783e-05
3.57376e-05
3.81228e-05
4.02357e-05
4.20923e-05
4.35407e-05
4.46545e-05
4.5555e-05
4.61212e-05
4.65033e-05
4.66617e-05
4.66259e-05
4.64175e-05
4.61171e-05
4.57248e-05
4.52756e-05
4.4535e-05
4.28395e-05
4.00396e-05
3.70855e-05
3.36733e-05
2.91117e-05
2.37776e-05
1.86812e-05
1.24361e-05
3.58943e-06
8.79216e-07
4.50804e-08
1.44929e-06
2.07628e-05
2.87973e-05
2.90023e-05
2.81117e-05
2.76437e-05
2.55775e-05
2.42038e-05
2.62058e-05
2.94045e-05
3.25147e-05
3.50136e-05
3.75577e-05
4.0088e-05
4.25512e-05
4.4427e-05
4.59254e-05
4.71186e-05
4.80871e-05
4.88664e-05
4.94289e-05
4.97486e-05
4.98372e-05
4.97378e-05
4.95146e-05
4.91925e-05
4.87679e-05
4.82179e-05
4.75973e-05
4.69593e-05
4.57052e-05
4.28492e-05
3.98535e-05
3.60149e-05
2.98398e-05
2.20556e-05
1.50137e-05
7.35258e-06
1.52725e-06
1.02438e-07
2.00722e-06
2.45524e-05
3.19759e-05
3.11382e-05
3.02337e-05
2.77704e-05
2.60408e-05
2.70569e-05
3.05616e-05
3.37972e-05
3.63192e-05
3.86332e-05
4.13742e-05
4.39798e-05
4.59058e-05
4.76125e-05
4.91846e-05
5.04741e-05
5.14604e-05
5.20917e-05
5.23396e-05
5.23373e-05
5.22299e-05
5.20603e-05
5.18111e-05
5.14871e-05
5.11143e-05
5.06926e-05
5.01857e-05
4.94971e-05
4.8609e-05
4.70151e-05
4.34287e-05
4.03827e-05
3.64113e-05
2.91825e-05
1.94249e-05
9.44687e-06
2.04178e-06
2.38994e-07
2.50943e-06
2.71926e-05
3.3711e-05
3.32397e-05
3.05349e-05
2.81451e-05
2.75766e-05
3.09565e-05
3.43916e-05
3.71471e-05
3.92007e-05
4.19465e-05
4.46828e-05
4.70488e-05
4.91195e-05
5.10469e-05
5.24685e-05
5.335e-05
5.3886e-05
5.41158e-05
5.43021e-05
5.43656e-05
5.42889e-05
5.4105e-05
5.38053e-05
5.34238e-05
5.29936e-05
5.2549e-05
5.21054e-05
5.16279e-05
5.0987e-05
4.99541e-05
4.7724e-05
4.33215e-05
4.01897e-05
3.45673e-05
2.54131e-05
1.40383e-05
3.85619e-06
6.55349e-07
2.90229e-06
2.8901e-05
3.56645e-05
3.48297e-05
3.09672e-05
2.89982e-05
3.08015e-05
3.43675e-05
3.74236e-05
3.95909e-05
4.20232e-05
4.50257e-05
4.7802e-05
5.02321e-05
5.21277e-05
5.34573e-05
5.45191e-05
5.5164e-05
5.57534e-05
5.61527e-05
5.63518e-05
5.66301e-05
5.6598e-05
5.64295e-05
5.60813e-05
5.55859e-05
5.49803e-05
5.43278e-05
5.36998e-05
5.31417e-05
5.26103e-05
5.18931e-05
5.05417e-05
4.73593e-05
4.35989e-05
3.93688e-05
3.04686e-05
1.78716e-05
6.09018e-06
1.2918e-06
3.16027e-06
2.99303e-05
3.69689e-05
3.52807e-05
3.16664e-05
3.05687e-05
3.37998e-05
3.711e-05
3.97592e-05
4.18131e-05
4.48713e-05
4.79824e-05
5.06202e-05
5.24341e-05
5.39906e-05
5.52453e-05
5.6271e-05
5.71035e-05
5.78617e-05
5.85724e-05
5.90315e-05
5.93079e-05
5.95329e-05
5.94153e-05
5.90522e-05
5.8432e-05
5.75868e-05
5.65944e-05
5.55797e-05
5.46914e-05
5.40378e-05
5.35833e-05
5.30131e-05
5.04519e-05
4.60058e-05
4.31458e-05
3.58398e-05
2.28105e-05
8.14711e-06
1.92374e-06
3.31483e-06
3.04984e-05
3.80888e-05
3.60446e-05
3.23466e-05
3.30201e-05
3.62572e-05
3.92917e-05
4.16748e-05
4.41671e-05
4.7545e-05
5.0295e-05
5.2283e-05
5.41501e-05
5.567e-05
5.70146e-05
5.82264e-05
5.93527e-05
6.04131e-05
6.14812e-05
6.22132e-05
6.26102e-05
6.31306e-05
6.31289e-05
6.28046e-05
6.21006e-05
6.10216e-05
5.96273e-05
5.8056e-05
5.6522e-05
5.52638e-05
5.44311e-05
5.39343e-05
5.3289e-05
4.92103e-05
4.55394e-05
3.98418e-05
2.70767e-05
1.09796e-05
2.48391e-06
3.31114e-06
3.0468e-05
3.8388e-05
3.66147e-05
3.34312e-05
3.51434e-05
3.8233e-05
4.11219e-05
4.34551e-05
4.6367e-05
4.9431e-05
5.1658e-05
5.38597e-05
5.57031e-05
5.73563e-05
5.89329e-05
6.04571e-05
6.19405e-05
6.33564e-05
6.47684e-05
6.5801e-05
6.63672e-05
6.71833e-05
6.73586e-05
6.71373e-05
6.6436e-05
6.52186e-05
6.35039e-05
6.14076e-05
5.91717e-05
5.71413e-05
5.56499e-05
5.48215e-05
5.43873e-05
5.19102e-05
4.75507e-05
4.34052e-05
3.1214e-05
1.33464e-05
2.97045e-06
3.26587e-06
3.02726e-05
3.87968e-05
3.7149e-05
3.462e-05
3.67928e-05
3.98159e-05
4.26621e-05
4.50131e-05
4.81004e-05
5.06698e-05
5.305e-05
5.52679e-05
5.72337e-05
5.91323e-05
6.10262e-05
6.29119e-05
6.47614e-05
6.65228e-05
6.82179e-05
6.95544e-05
7.02971e-05
7.13636e-05
7.17547e-05
7.16887e-05
7.1078e-05
6.98436e-05
6.79459e-05
6.54397e-05
6.25358e-05
5.96308e-05
5.72256e-05
5.56749e-05
5.48246e-05
5.37376e-05
4.92066e-05
4.59714e-05
3.4788e-05
1.60076e-05
3.45438e-06
3.15856e-06
2.97728e-05
3.87695e-05
3.75264e-05
3.5795e-05
3.80799e-05
4.10863e-05
4.39533e-05
4.63503e-05
4.92861e-05
5.17994e-05
5.43076e-05
5.66024e-05
5.87857e-05
6.09864e-05
6.32237e-05
6.54614e-05
6.76404e-05
6.96932e-05
7.15675e-05
7.31922e-05
7.41918e-05
7.53234e-05
7.59681e-05
7.60867e-05
7.56342e-05
7.45003e-05
7.25868e-05
6.98647e-05
6.64606e-05
6.27501e-05
5.93691e-05
5.70105e-05
5.59738e-05
5.56508e-05
5.14943e-05
4.78832e-05
3.79904e-05
1.82524e-05
3.90129e-06
2.98029e-06
2.89935e-05
3.84632e-05
3.77807e-05
3.68331e-05
3.90842e-05
4.20915e-05
4.4989e-05
4.74373e-05
5.01771e-05
5.28604e-05
5.54383e-05
5.78909e-05
6.03341e-05
6.28453e-05
6.54049e-05
6.79461e-05
7.03876e-05
7.26517e-05
7.46696e-05
7.65086e-05
7.77648e-05
7.88633e-05
7.97253e-05
8.00315e-05
7.97736e-05
7.88302e-05
7.70569e-05
7.43374e-05
7.06726e-05
6.63166e-05
6.18924e-05
5.82991e-05
5.62513e-05
5.5667e-05
5.33348e-05
4.91803e-05
4.05565e-05
2.06729e-05
4.36005e-06
2.76787e-06
2.80791e-05
3.79358e-05
3.79712e-05
3.75769e-05
3.98387e-05
4.28632e-05
4.57852e-05
4.82703e-05
5.0989e-05
5.37772e-05
5.64655e-05
5.91117e-05
6.18153e-05
6.46091e-05
6.74411e-05
7.02212e-05
7.28562e-05
7.52688e-05
7.74049e-05
7.93161e-05
8.08093e-05
8.18522e-05
8.28555e-05
8.33251e-05
8.32673e-05
8.25663e-05
8.10524e-05
7.85382e-05
7.48956e-05
7.0212e-05
6.50043e-05
6.02903e-05
5.71552e-05
5.58023e-05
5.44626e-05
5.00961e-05
4.26717e-05
2.27687e-05
4.79798e-06
2.52438e-06
2.70441e-05
3.72397e-05
3.80516e-05
3.80988e-05
4.03898e-05
4.34339e-05
4.63705e-05
4.89268e-05
5.1698e-05
5.45595e-05
5.73775e-05
6.02171e-05
6.31518e-05
6.61786e-05
6.92213e-05
7.2175e-05
7.49419e-05
7.74503e-05
7.96608e-05
8.15688e-05
8.31949e-05
8.42253e-05
8.5281e-05
8.58705e-05
8.59956e-05
8.55552e-05
8.43736e-05
8.22134e-05
7.88284e-05
7.41084e-05
6.83582e-05
6.25816e-05
5.82752e-05
5.62925e-05
5.54179e-05
5.09389e-05
4.44125e-05
2.49203e-05
5.25101e-06
2.27237e-06
2.59526e-05
3.63933e-05
3.79875e-05
3.84284e-05
4.07372e-05
4.38156e-05
4.67868e-05
4.9434e-05
5.22724e-05
5.52026e-05
5.81444e-05
6.11517e-05
6.42704e-05
6.74714e-05
7.06623e-05
7.37303e-05
7.65764e-05
7.91325e-05
8.1364e-05
8.32634e-05
8.48893e-05
8.5959e-05
8.69899e-05
8.76525e-05
8.79325e-05
8.7749e-05
8.69358e-05
8.52275e-05
8.22868e-05
7.7815e-05
7.18414e-05
6.5182e-05
5.95813e-05
5.66703e-05
5.60662e-05
5.17779e-05
4.58114e-05
2.67982e-05
5.68941e-06
2.00508e-06
2.48738e-05
3.54622e-05
3.77852e-05
3.86375e-05
4.09636e-05
4.40328e-05
4.70452e-05
4.98015e-05
5.26977e-05
5.56882e-05
5.87308e-05
6.18645e-05
6.51122e-05
6.84273e-05
7.17087e-05
7.48404e-05
7.77232e-05
8.02902e-05
8.25084e-05
8.43728e-05
8.59267e-05
8.70591e-05
8.80145e-05
8.87121e-05
8.91191e-05
8.91764e-05
8.87412e-05
8.75366e-05
8.51618e-05
8.11623e-05
7.52797e-05
6.80103e-05
6.11325e-05
5.6953e-05
5.5947e-05
5.26829e-05
4.69594e-05
2.86752e-05
6.14091e-06
1.7918e-06
2.34615e-05
3.44089e-05
3.74708e-05
3.86446e-05
4.09632e-05
4.40774e-05
4.71501e-05
5.00178e-05
5.29609e-05
5.59978e-05
5.91047e-05
6.2316e-05
6.56362e-05
6.90087e-05
7.23296e-05
7.54827e-05
7.83687e-05
8.09196e-05
8.31018e-05
8.49129e-05
8.63768e-05
8.75138e-05
8.84229e-05
8.91232e-05
8.96358e-05
8.99098e-05
8.98457e-05
8.91632e-05
8.74173e-05
8.40386e-05
7.85121e-05
7.09446e-05
6.2952e-05
5.74173e-05
5.56598e-05
5.3454e-05
4.79766e-05
3.03296e-05
6.58017e-06
1.61095e-06
2.19183e-05
3.30222e-05
3.712e-05
3.86338e-05
4.09862e-05
4.39774e-05
4.71027e-05
5.00654e-05
5.30419e-05
5.61176e-05
5.92453e-05
6.24822e-05
6.58199e-05
6.91978e-05
7.25134e-05
7.56522e-05
7.85138e-05
8.10274e-05
8.31583e-05
8.49061e-05
8.62952e-05
8.73615e-05
8.81565e-05
8.87833e-05
8.94347e-05
8.99803e-05
9.03275e-05
9.01676e-05
8.90692e-05
8.63894e-05
8.14095e-05
7.38319e-05
6.49316e-05
5.80311e-05
5.53261e-05
5.39417e-05
4.89131e-05
3.19259e-05
7.02763e-06
1.4507e-06
2.03127e-05
3.13928e-05
3.65683e-05
3.82946e-05
4.05683e-05
4.37919e-05
4.69275e-05
4.99468e-05
5.29374e-05
5.6022e-05
5.91365e-05
6.23515e-05
6.56561e-05
6.89928e-05
7.22634e-05
7.53523e-05
7.81592e-05
8.06089e-05
8.2679e-05
8.43758e-05
8.57207e-05
8.67363e-05
8.74533e-05
8.79576e-05
8.86371e-05
8.93574e-05
9.00201e-05
9.04186e-05
9.0089e-05
8.83092e-05
8.40405e-05
7.65291e-05
6.69503e-05
5.88014e-05
5.51323e-05
5.40888e-05
4.97485e-05
3.33736e-05
7.46266e-06
1.30474e-06
1.86695e-05
2.9638e-05
3.58411e-05
3.80721e-05
4.03755e-05
4.32208e-05
4.65648e-05
4.96421e-05
5.26493e-05
5.5707e-05
5.87813e-05
6.19303e-05
6.51594e-05
6.84088e-05
7.15471e-05
7.45141e-05
7.72292e-05
7.96494e-05
8.17252e-05
8.34229e-05
8.47551e-05
8.57721e-05
8.65428e-05
8.70891e-05
8.78528e-05
8.87116e-05
8.95504e-05
9.0337e-05
9.05648e-05
8.94422e-05
8.60172e-05
7.90643e-05
6.88769e-05
5.95752e-05
5.50312e-05
5.40649e-05
5.04393e-05
3.48117e-05
7.89876e-06
1.16837e-06
1.70239e-05
2.78155e-05
3.45713e-05
3.77883e-05
4.0041e-05
4.2856e-05
4.59753e-05
4.91688e-05
5.21592e-05
5.51526e-05
5.81586e-05
6.1223e-05
6.42988e-05
6.73598e-05
7.04454e-05
7.33935e-05
7.6107e-05
7.85091e-05
8.05611e-05
8.22146e-05
8.34837e-05
8.44564e-05
8.52007e-05
8.57111e-05
8.65428e-05
8.77175e-05
8.89437e-05
9.01129e-05
9.07024e-05
8.99777e-05
8.71358e-05
8.11382e-05
7.06592e-05
6.02583e-05
5.4839e-05
5.40006e-05
5.10095e-05
3.61659e-05
8.31861e-06
1.04041e-06
1.54058e-05
2.59025e-05
3.31234e-05
3.7277e-05
3.94988e-05
4.23821e-05
4.52796e-05
4.8417e-05
5.152e-05
5.44626e-05
5.73682e-05
6.02303e-05
6.31706e-05
6.61721e-05
6.91365e-05
7.19632e-05
7.45756e-05
7.69098e-05
7.88639e-05
8.04639e-05
8.17528e-05
8.2795e-05
8.35305e-05
8.40659e-05
8.49358e-05
8.62424e-05
8.76773e-05
8.92501e-05
9.0458e-05
9.04707e-05
8.81602e-05
8.23567e-05
7.22105e-05
6.08518e-05
5.44335e-05
5.35615e-05
5.14344e-05
3.74821e-05
8.73011e-06
9.17615e-07
1.38228e-05
2.41001e-05
3.13723e-05
3.66475e-05
3.89655e-05
4.16337e-05
4.47451e-05
4.75159e-05
5.04575e-05
5.33986e-05
5.62033e-05
5.90217e-05
6.18654e-05
6.46876e-05
6.7448e-05
7.01204e-05
7.26292e-05
7.48636e-05
7.68e-05
7.84192e-05
7.97389e-05
8.08689e-05
8.15762e-05
8.21916e-05
8.31524e-05
8.45807e-05
8.61912e-05
8.80578e-05
8.96837e-05
9.02076e-05
8.85577e-05
8.33956e-05
7.33932e-05
6.12968e-05
5.38416e-05
5.30652e-05
5.17489e-05
3.8714e-05
9.11987e-06
8.02081e-07
1.23347e-05
2.22646e-05
2.95224e-05
3.54996e-05
3.8295e-05
4.08586e-05
4.39029e-05
4.69159e-05
4.95241e-05
5.22043e-05
5.49195e-05
5.76353e-05
6.02824e-05
6.29157e-05
6.55073e-05
6.8024e-05
7.04085e-05
7.25644e-05
7.44711e-05
7.6096e-05
7.7462e-05
7.87163e-05
7.93739e-05
8.01243e-05
8.12461e-05
8.27523e-05
8.44928e-05
8.65627e-05
8.84877e-05
8.9381e-05
8.81469e-05
8.35835e-05
7.38537e-05
6.14568e-05
5.29689e-05
5.22102e-05
5.1933e-05
3.98617e-05
9.49234e-06
6.90694e-07
1.09117e-05
2.05606e-05
2.76112e-05
3.38705e-05
3.75677e-05
4.01099e-05
4.28478e-05
4.59784e-05
4.87975e-05
5.13115e-05
5.37476e-05
5.61575e-05
5.85747e-05
6.10069e-05
6.34302e-05
6.58073e-05
6.80135e-05
7.00773e-05
7.19374e-05
7.35652e-05
7.50053e-05
7.63326e-05
7.69693e-05
7.79131e-05
7.9244e-05
8.07745e-05
8.25882e-05
8.47522e-05
8.68219e-05
8.79149e-05
8.69191e-05
8.27445e-05
7.37764e-05
6.1202e-05
5.18948e-05
5.11157e-05
5.19939e-05
4.0895e-05
9.83865e-06
5.93089e-07
9.73334e-06
1.90909e-05
2.5665e-05
3.19559e-05
3.65928e-05
3.92691e-05
4.1927e-05
4.47461e-05
4.77089e-05
5.03287e-05
5.27242e-05
5.49605e-05
5.71409e-05
5.9297e-05
6.14327e-05
6.35284e-05
6.55595e-05
6.74982e-05
6.92917e-05
7.09137e-05
7.24629e-05
7.36487e-05
7.4477e-05
7.56485e-05
7.71004e-05
7.86093e-05
8.04359e-05
8.25611e-05
8.45791e-05
8.56569e-05
8.47017e-05
8.06413e-05
7.24291e-05
5.98883e-05
5.0477e-05
4.96364e-05
5.19145e-05
4.17858e-05
1.01632e-05
5.09543e-07
8.73591e-06
1.79951e-05
2.37329e-05
2.98141e-05
3.5276e-05
3.8425e-05
4.10848e-05
4.36858e-05
4.63507e-05
4.89892e-05
5.13593e-05
5.35127e-05
5.55333e-05
5.74838e-05
5.93972e-05
6.1275e-05
6.313e-05
6.49197e-05
6.66314e-05
6.82731e-05
6.97225e-05
7.08334e-05
7.19488e-05
7.32741e-05
7.4721e-05
7.61991e-05
7.79215e-05
7.98288e-05
8.1549e-05
8.23517e-05
8.11808e-05
7.69685e-05
6.96232e-05
5.77052e-05
4.86108e-05
4.77928e-05
5.15818e-05
4.25074e-05
1.0464e-05
4.40474e-07
8.03751e-06
1.71009e-05
2.21395e-05
2.77192e-05
3.32474e-05
3.74221e-05
4.02332e-05
4.2856e-05
4.5333e-05
4.76545e-05
4.99236e-05
5.19902e-05
5.38894e-05
5.56813e-05
5.74137e-05
5.91059e-05
6.07838e-05
6.24017e-05
6.40745e-05
6.55527e-05
6.69525e-05
6.80175e-05
6.92807e-05
7.06572e-05
7.19838e-05
7.33279e-05
7.47652e-05
7.62251e-05
7.73601e-05
7.76125e-05
7.59026e-05
7.18061e-05
6.50493e-05
5.43313e-05
4.56866e-05
4.56131e-05
5.11209e-05
4.29692e-05
1.07499e-05
3.82847e-07
7.63357e-06
1.64646e-05
2.12778e-05
2.63342e-05
3.13612e-05
3.60944e-05
3.95126e-05
4.21487e-05
4.45714e-05
4.67913e-05
4.87593e-05
5.057e-05
5.23099e-05
5.396e-05
5.55383e-05
5.70655e-05
5.85746e-05
6.00113e-05
6.15611e-05
6.29124e-05
6.41019e-05
6.5139e-05
6.63258e-05
6.75345e-05
6.85565e-05
6.95417e-05
7.04281e-05
7.11682e-05
7.14224e-05
7.09035e-05
6.87324e-05
6.45719e-05
5.83637e-05
4.99626e-05
4.33962e-05
4.34301e-05
5.05424e-05
4.26563e-05
1.10305e-05
3.44635e-07
7.62643e-06
1.58533e-05
2.07377e-05
2.49022e-05
2.98267e-05
3.44103e-05
3.85972e-05
4.18704e-05
4.43556e-05
4.65248e-05
4.83948e-05
5.00387e-05
5.14843e-05
5.28294e-05
5.41283e-05
5.54056e-05
5.66665e-05
5.7859e-05
5.90303e-05
6.02413e-05
6.10146e-05
6.171e-05
6.25439e-05
6.3245e-05
6.36819e-05
6.39736e-05
6.39875e-05
6.3774e-05
6.2961e-05
6.16472e-05
5.90602e-05
5.54926e-05
5.02543e-05
4.42412e-05
4.02402e-05
4.22868e-05
4.96956e-05
4.22322e-05
1.13422e-05
3.47779e-07
8.23851e-06
1.54815e-05
2.01999e-05
2.43825e-05
2.89557e-05
3.34259e-05
3.74996e-05
4.10517e-05
4.41444e-05
4.64074e-05
4.82923e-05
4.98837e-05
5.12289e-05
5.23809e-05
5.33932e-05
5.42723e-05
5.49647e-05
5.55017e-05
5.59327e-05
5.63352e-05
5.64303e-05
5.64905e-05
5.64845e-05
5.62703e-05
5.58393e-05
5.52285e-05
5.42548e-05
5.31625e-05
5.15021e-05
4.98402e-05
4.7299e-05
4.47866e-05
4.12646e-05
3.81697e-05
3.68279e-05
4.02087e-05
4.81536e-05
4.12168e-05
1.14931e-05
4.30564e-07
9.93598e-06
1.59802e-05
2.09306e-05
2.48325e-05
2.93291e-05
3.37362e-05
3.80267e-05
4.17723e-05
4.48624e-05
4.75843e-05
4.93342e-05
5.04712e-05
5.11343e-05
5.14217e-05
5.14159e-05
5.11982e-05
5.08316e-05
5.02847e-05
4.98058e-05
4.89124e-05
4.83725e-05
4.75862e-05
4.6382e-05
4.52457e-05
4.39592e-05
4.27418e-05
4.13634e-05
4.01261e-05
3.86094e-05
3.75766e-05
3.61658e-05
3.55349e-05
3.45329e-05
3.47234e-05
3.5852e-05
4.08042e-05
4.67876e-05
3.92999e-05
1.15473e-05
5.72809e-07
1.17115e-05
1.77199e-05
2.19367e-05
2.61757e-05
3.0512e-05
3.46449e-05
3.82859e-05
4.10981e-05
4.31272e-05
4.4863e-05
4.58923e-05
4.61577e-05
4.59184e-05
4.53263e-05
4.44516e-05
4.33879e-05
4.21588e-05
4.0718e-05
3.93392e-05
3.80879e-05
3.66474e-05
3.52495e-05
3.39622e-05
3.2854e-05
3.18398e-05
3.10689e-05
3.0429e-05
3.01545e-05
3.00384e-05
3.03992e-05
3.08689e-05
3.20885e-05
3.34077e-05
3.56747e-05
3.83935e-05
4.29884e-05
4.48578e-05
3.75469e-05
1.14136e-05
8.88112e-07
1.50074e-05
1.88842e-05
2.29235e-05
2.67681e-05
3.02702e-05
3.32802e-05
3.56087e-05
3.71605e-05
3.79759e-05
3.82032e-05
3.82426e-05
3.7791e-05
3.68752e-05
3.59084e-05
3.48604e-05
3.38295e-05
3.27727e-05
3.17275e-05
3.08285e-05
3.01436e-05
2.95915e-05
2.91958e-05
2.89835e-05
2.89551e-05
2.91456e-05
2.95188e-05
3.01579e-05
3.09975e-05
3.21455e-05
3.35665e-05
3.5301e-05
3.73841e-05
3.96141e-05
4.23071e-05
4.46789e-05
4.6825e-05
4.36453e-05
3.43464e-05
1.08559e-05
1.63853e-06
1.81124e-05
2.05388e-05
2.4693e-05
2.7758e-05
3.01668e-05
3.20126e-05
3.33521e-05
3.42399e-05
3.47853e-05
3.49974e-05
3.50968e-05
3.5129e-05
3.50721e-05
3.50202e-05
3.49808e-05
3.5007e-05
3.51021e-05
3.52644e-05
3.55086e-05
3.58382e-05
3.62731e-05
3.67856e-05
3.7423e-05
3.81133e-05
3.89619e-05
3.98269e-05
4.08959e-05
4.19398e-05
4.32238e-05
4.44879e-05
4.58992e-05
4.75283e-05
4.87598e-05
5.02532e-05
4.96427e-05
4.75687e-05
4.17163e-05
2.66651e-05
9.68621e-06
1.11086e-06
1.82819e-06
2.52684e-06
3.3156e-06
4.0298e-06
4.65562e-06
5.18372e-06
5.6224e-06
5.97149e-06
6.2447e-06
6.44653e-06
6.59177e-06
6.69707e-06
6.76961e-06
6.82299e-06
6.86057e-06
6.89576e-06
6.92518e-06
6.96651e-06
7.00391e-06
7.06638e-06
7.12162e-06
7.21715e-06
7.29608e-06
7.43501e-06
7.54083e-06
7.73325e-06
7.8674e-06
8.12189e-06
8.28326e-06
8.59792e-06
8.78297e-06
9.12298e-06
9.35581e-06
9.83378e-06
1.01365e-05
1.0575e-05
1.05495e-05
1.01564e-05
8.4652e-06
)
;

boundaryField
{
    movingWall
    {
        type            nutkWallFunction;
        Cmu             0.09;
        kappa           0.41;
        E               9.8;
        value           uniform 0;
    }
    fixedWalls
    {
        type            nutkWallFunction;
        Cmu             0.09;
        kappa           0.41;
        E               9.8;
        value           uniform 0;
    }
    frontAndBack
    {
        type            empty;
    }
}


// ************************************************************************* //
