/*--------------------------------*- C++ -*----------------------------------*\
  =========                 |
  \\      /  F ield         | OpenFOAM: The Open Source CFD Toolbox
   \\    /   O peration     | Website:  https://openfoam.org
    \\  /    A nd           | Version:  13
     \\/     M anipulation  |
\*---------------------------------------------------------------------------*/
FoamFile
{
    format      ascii;
    class       volScalarField;
    location    "4";
    object      p;
}
// * * * * * * * * * * * * * * * * * * * * * * * * * * * * * * * * * * * * * //

dimensions      [0 2 -2 0 0 0 0];

internalField   nonuniform List<scalar> 
1600
(
2.35245e-08
-1.27768e-05
-7.33651e-05
-0.000168759
-0.000266632
-0.000355538
-0.000440735
-0.000537663
-0.000658156
-0.000802683
-0.000975257
-0.00121091
-0.00156354
-0.00182006
-0.00195969
-0.00221932
-0.00268851
-0.00328931
-0.00391285
-0.00445149
-0.00481908
-0.00494868
-0.00479081
-0.00430518
-0.0034904
-0.00235818
-0.000913788
0.000799323
0.00269123
0.00458893
0.00625848
0.00744167
0.00794962
0.0077494
0.00691684
0.00608689
0.00558077
0.00548737
0.00554931
0.00557788
-8.10816e-06
-3.62234e-05
-0.000103104
-0.000198036
-0.000280315
-0.000344876
-0.000405909
-0.000486929
-0.00059535
-0.000721258
-0.000841003
-0.00100809
-0.0013081
-0.00170117
-0.00211769
-0.00259101
-0.0031602
-0.0037922
-0.0044134
-0.00493895
-0.00529588
-0.00542557
-0.00528705
-0.00485156
-0.0041199
-0.00306134
-0.00168956
-4.85625e-05
0.00176925
0.00362251
0.00530486
0.00656397
0.00719694
0.00712614
0.00646092
0.00565486
0.00526818
0.00531952
0.00543907
0.00549829
-6.97019e-06
-6.28991e-05
-0.000149473
-0.000246516
-0.000313421
-0.000345704
-0.000367361
-0.000400034
-0.000465768
-0.000608356
-0.000857798
-0.00119729
-0.00163446
-0.00216761
-0.00277833
-0.00344087
-0.00412487
-0.00479436
-0.00539968
-0.0058909
-0.00621738
-0.00633878
-0.0062214
-0.00584362
-0.00517636
-0.00421199
-0.00296193
-0.00145874
0.000233799
0.00200801
0.00369907
0.00509652
0.00598791
0.00623968
0.00592857
0.00540619
0.00514109
0.00520422
0.0053287
0.00537161
2.55776e-05
-5.87252e-05
-0.000176866
-0.000268408
-0.000312297
-0.000324862
-0.000338882
-0.000387949
-0.000511022
-0.000765135
-0.00119102
-0.00176473
-0.00242813
-0.0031475
-0.00390351
-0.00466791
-0.00540374
-0.00607744
-0.00666225
-0.00712525
-0.00743108
-0.00754735
-0.0074437
-0.00710451
-0.00651184
-0.00565986
-0.00455691
-0.00322438
-0.00170097
-5.60223e-05
0.00159796
0.0031072
0.00427973
0.00498028
0.00522049
0.00518445
0.0051828
0.00521099
0.00527226
0.00527111
0.000151427
2.92616e-05
-0.000115831
-0.000207133
-0.000255329
-0.000288714
-0.000353731
-0.000504793
-0.0007964
-0.00126803
-0.00191924
-0.00269984
-0.00354419
-0.00440566
-0.00525333
-0.00606238
-0.0068125
-0.00748912
-0.0080706
-0.00851695
-0.00880331
-0.00890785
-0.0088194
-0.00852503
-0.00800965
-0.00727246
-0.00631479
-0.00514763
-0.00379705
-0.00231013
-0.000756798
0.000770959
0.00215995
0.00330865
0.00416243
0.0047461
0.0051264
0.00529307
0.00525784
0.00519743
0.000404101
0.000227582
6.94696e-05
-4.67044e-05
-0.000140851
-0.000258733
-0.000461219
-0.00081068
-0.00134665
-0.00206579
-0.00292559
-0.00386584
-0.00483212
-0.00578046
-0.00668179
-0.00752051
-0.00828037
-0.00894235
-0.00948151
-0.00988301
-0.0101381
-0.0102342
-0.0101638
-0.00991753
-0.00948472
-0.0088634
-0.0080528
-0.00705594
-0.00588285
-0.00455514
-0.00311098
-0.00160771
-0.000108142
0.00134765
0.00270915
0.00388526
0.00474735
0.00522622
0.00519669
0.00509516
0.000758413
0.000541243
0.000345976
0.000176879
-1.27978e-05
-0.000286164
-0.000705686
-0.00131375
-0.00210937
-0.00305185
-0.00407991
-0.00513756
-0.00618048
-0.00717303
-0.00809234
-0.00892363
-0.00965374
-0.010272
-0.010766
-0.01113
-0.0113592
-0.0114476
-0.0113907
-0.0111829
-0.010819
-0.0102965
-0.00961409
-0.00877116
-0.00776879
-0.00661146
-0.00531011
-0.00388295
-0.00234917
-0.000726357
0.000953231
0.00259168
0.00396645
0.00485192
0.00512219
0.0049296
0.00116018
0.000905518
0.000642792
0.00038563
5.19487e-05
-0.000432386
-0.00111016
-0.00198271
-0.00300985
-0.00412912
-0.00527851
-0.00641127
-0.00749031
-0.00848952
-0.0093932
-0.0101914
-0.0108777
-0.0114484
-0.0118998
-0.01223
-0.0124367
-0.0125176
-0.0124707
-0.0122933
-0.0119834
-0.0115395
-0.0109601
-0.0102427
-0.00938401
-0.00837966
-0.00722457
-0.00591265
-0.00443313
-0.00277014
-0.000927805
0.0010073
0.00280764
0.00418495
0.00492227
0.00464375
0.00150206
0.00119221
0.000854813
0.000487372
-2.30784e-05
-0.000740453
-0.00167056
-0.00277379
-0.00398283
-0.00522642
-0.00645184
-0.00761995
-0.00870231
-0.00968215
-0.010551
-0.0113053
-0.0119448
-0.0124702
-0.0128823
-0.0131817
-0.0133684
-0.0134424
-0.0134035
-0.0132504
-0.0129832
-0.0126013
-0.0121035
-0.011487
-0.0107465
-0.00987279
-0.00885177
-0.00766352
-0.00628086
-0.00466812
-0.00279567
-0.000704613
0.00139972
0.00321947
0.00436204
0.00433728
0.00166942
0.00131362
0.000897193
0.00040692
-0.000286421
-0.00122166
-0.00236389
-0.0036449
-0.00497788
-0.00629691
-0.00755755
-0.00872849
-0.00979058
-0.0107353
-0.0115607
-0.0122687
-0.0128629
-0.0133471
-0.0137245
-0.0139975
-0.0141679
-0.0142367
-0.0142045
-0.0140716
-0.0138381
-0.0135045
-0.01307
-0.0125325
-0.0118866
-0.011122
-0.010221
-0.00915744
-0.0078956
-0.00638844
-0.00458001
-0.00245613
-0.000185932
0.00191663
0.0034976
0.00429688
0.00160374
0.00121073
0.000719428
0.000109597
-0.000747095
-0.00186064
-0.00316067
-0.00455441
-0.00595839
-0.00730996
-0.00857247
-0.00972253
-0.0107493
-0.0116509
-0.0124304
-0.0130934
-0.0136463
-0.0140949
-0.0144438
-0.0146965
-0.0148553
-0.0149217
-0.0148964
-0.0147805
-0.0145743
-0.0142783
-0.0138927
-0.0134161
-0.0128443
-0.0121676
-0.011369
-0.0104213
-0.00928648
-0.00791515
-0.00624099
-0.0042036
-0.00189087
0.000333583
0.00225657
0.00358486
0.00128869
0.000867802
0.000313226
-0.000396276
-0.00138345
-0.00262027
-0.00401798
-0.00546784
-0.00689746
-0.00824645
-0.00948617
-0.0105997
-0.0115829
-0.0124384
-0.0131731
-0.0137951
-0.0143126
-0.0147322
-0.0150594
-0.0152978
-0.0154498
-0.0155168
-0.0154994
-0.0153985
-0.0152146
-0.0149485
-0.0146009
-0.0141714
-0.0136572
-0.013051
-0.0123382
-0.0114939
-0.0104817
-0.00925395
-0.00774786
-0.00588049
-0.00363838
-0.00141363
0.000568874
0.00200167
0.000743731
0.000309226
-0.000290489
-0.00107316
-0.00214544
-0.00345405
-0.00489046
-0.00635565
-0.00777433
-0.00909529
-0.0102956
-0.0113636
-0.0122995
-0.0131098
-0.0138034
-0.0143901
-0.0148786
-0.015276
-0.0155876
-0.015817
-0.0159663
-0.0160363
-0.0160275
-0.0159404
-0.0157755
-0.0155337
-0.015216
-0.014823
-0.0143536
-0.0138033
-0.0131611
-0.0124065
-0.0115072
-0.0104192
-0.00908625
-0.00742818
-0.00538687
-0.00323289
-0.00138214
-6.98797e-05
2.16576e-05
-0.000411088
-0.00103492
-0.00186441
-0.00297711
-0.00431092
-0.00574238
-0.00718991
-0.0085732
-0.00985002
-0.0110014
-0.0120198
-0.012909
-0.0136773
-0.014335
-0.0148923
-0.0153581
-0.0157392
-0.0160406
-0.0162653
-0.0164148
-0.0164896
-0.0164898
-0.0164155
-0.0162671
-0.0160453
-0.0157515
-0.0153872
-0.014953
-0.014447
-0.0138622
-0.0131836
-0.0123845
-0.0114265
-0.0102604
-0.00882006
-0.00704141
-0.0050403
-0.00341018
-0.00230182
-0.000805889
-0.00122515
-0.00185364
-0.00270403
-0.00382491
-0.00514469
-0.00654369
-0.00795036
-0.00928326
-0.0105072
-0.0116059
-0.0125752
-0.0134206
-0.0141516
-0.0147789
-0.0153126
-0.0157612
-0.0161309
-0.0164261
-0.0166491
-0.0168009
-0.0168815
-0.0168907
-0.0168281
-0.0166938
-0.0164887
-0.0162143
-0.0158728
-0.0154663
-0.0149954
-0.0144572
-0.0138419
-0.0131296
-0.0122884
-0.0112766
-0.0100448
-0.00852751
-0.00675434
-0.005349
-0.00444734
-0.00166877
-0.0020655
-0.00268395
-0.00353262
-0.00463595
-0.00591621
-0.00726973
-0.00862203
-0.0098973
-0.0110654
-0.0121122
-0.0130355
-0.0138419
-0.014541
-0.0151433
-0.0156586
-0.0160944
-0.0164565
-0.0167483
-0.0169716
-0.0171269
-0.0172137
-0.0172313
-0.017179
-0.0170569
-0.0168655
-0.0166067
-0.0162833
-0.0158985
-0.0154552
-0.0149541
-0.0143904
-0.0137507
-0.0130101
-0.0121337
-0.0110817
-0.0098023
-0.0083162
-0.00711929
-0.00637102
-0.00250224
-0.00287228
-0.00347093
-0.00430083
-0.00536985
-0.00659873
-0.00790096
-0.00919367
-0.0104104
-0.0115245
-0.0125232
-0.0134057
-0.0141784
-0.0148511
-0.0154335
-0.0159347
-0.0163615
-0.0167187
-0.0170091
-0.017234
-0.0173931
-0.0174858
-0.0175109
-0.0174674
-0.0173552
-0.0171749
-0.0169284
-0.0166189
-0.0162508
-0.0158287
-0.0153564
-0.0148335
-0.0142526
-0.0135957
-0.0128344
-0.0119333
-0.0108562
-0.00963812
-0.00863885
-0.00801497
-0.00325641
-0.00359619
-0.0041695
-0.00497149
-0.00600068
-0.00717571
-0.00842354
-0.00965767
-0.0108197
-0.0118847
-0.0128412
-0.0136888
-0.0144339
-0.0150854
-0.0156525
-0.0161434
-0.016564
-0.0169184
-0.0172087
-0.0174356
-0.0175985
-0.0176963
-0.0177276
-0.0176912
-0.0175867
-0.0174148
-0.0171773
-0.016878
-0.016522
-0.0161156
-0.0156647
-0.015173
-0.0146381
-0.0140483
-0.0133805
-0.0126042
-0.0116988
-0.0107082
-0.00988142
-0.00935539
-0.00389121
-0.00420387
-0.00474824
-0.00552031
-0.0065099
-0.00763453
-0.00882946
-0.0100099
-0.0111234
-0.0121462
-0.0130676
-0.0138869
-0.0146102
-0.0152457
-0.0158017
-0.0162854
-0.0167021
-0.0170552
-0.0173462
-0.0175752
-0.0177415
-0.0178434
-0.0178794
-0.0178481
-0.017749
-0.0175826
-0.017351
-0.0170583
-0.0167101
-0.0163139
-0.0158777
-0.0154081
-0.0149074
-0.0143693
-0.0137758
-0.0131004
-0.0123341
-0.0115171
-0.0108385
-0.010395
-0.00439125
-0.00466981
-0.00518947
-0.00593382
-0.00688561
-0.00796624
-0.00911432
-0.0102481
-0.0113208
-0.0123093
-0.0132029
-0.0140007
-0.014708
-0.0153323
-0.0158809
-0.0163604
-0.0167753
-0.0171283
-0.0174205
-0.0176516
-0.0178204
-0.0179253
-0.0179643
-0.017936
-0.0178397
-0.017676
-0.0174471
-0.0171572
-0.0168127
-0.0164216
-0.0159935
-0.0155375
-0.0150597
-0.0145587
-0.0140216
-0.0134264
-0.0127699
-0.0120867
-0.0115243
-0.011146
-0.00474007
-0.0049914
-0.00548944
-0.00620881
-0.00712411
-0.00816768
-0.0092764
-0.0103715
-0.0114117
-0.0123739
-0.0132471
-0.01403
-0.014727
-0.0153447
-0.0158897
-0.0163677
-0.0167826
-0.0171366
-0.0174304
-0.0176634
-0.0178341
-0.0179406
-0.0179809
-0.0179534
-0.0178573
-0.0176933
-0.0174637
-0.017173
-0.0168277
-0.0164367
-0.0160105
-0.0155602
-0.0150947
-0.0146169
-0.0141197
-0.0135862
-0.0130136
-0.0124288
-0.0119545
-0.0116282
-0.00492959
-0.00516564
-0.00564851
-0.00634802
-0.0072294
-0.00824028
-0.00931563
-0.0103804
-0.0113961
-0.0123396
-0.0131996
-0.013974
-0.0146661
-0.0152817
-0.0158267
-0.0163059
-0.0167228
-0.017079
-0.017375
-0.0176098
-0.0177817
-0.0178886
-0.0179284
-0.0178995
-0.017801
-0.0176337
-0.0174
-0.0171044
-0.0167539
-0.0163579
-0.0159276
-0.0154755
-0.0150125
-0.0145454
-0.0140729
-0.0135842
-0.0130756
-0.0125632
-0.012151
-0.0118615
-0.00497993
-0.0052028
-0.00567322
-0.00635687
-0.00720942
-0.00818894
-0.00923649
-0.0102775
-0.011275
-0.0122064
-0.0130595
-0.0138312
-0.0145237
-0.0151418
-0.0156904
-0.0161738
-0.0165948
-0.0169548
-0.0172537
-0.0174904
-0.017663
-0.0177693
-0.0178071
-0.0177746
-0.0176711
-0.0174974
-0.017256
-0.0169516
-0.0165914
-0.0161852
-0.0157447
-0.0152832
-0.0148137
-0.0143458
-0.0138839
-0.0134238
-0.0129619
-0.012501
-0.0121415
-0.0118653
-0.00491521
-0.00512362
-0.00558017
-0.00624915
-0.0070757
-0.00802109
-0.00904302
-0.0100649
-0.0110492
-0.0119737
-0.0128255
-0.0135999
-0.014298
-0.0149232
-0.0154794
-0.0159702
-0.0163979
-0.0167634
-0.0170664
-0.0173055
-0.0174787
-0.0175836
-0.017618
-0.0175799
-0.0174689
-0.0172856
-0.0170328
-0.0167154
-0.0163409
-0.0159193
-0.0154627
-0.0149848
-0.0145
-0.0140209
-0.0135567
-0.0131095
-0.0126787
-0.0122533
-0.0119572
-0.0116555
-0.00476196
-0.00495441
-0.00539168
-0.00603981
-0.0068413
-0.00775203
-0.00874098
-0.00974502
-0.0107193
-0.0116409
-0.0124959
-0.0132783
-0.0139869
-0.0146239
-0.015192
-0.0156939
-0.0161313
-0.0165047
-0.0168135
-0.017056
-0.0172301
-0.0173333
-0.0173631
-0.0173179
-0.0171968
-0.017001
-0.0167331
-0.0163984
-0.0160046
-0.015562
-0.0150832
-0.0145825
-0.0140745
-0.0135741
-0.0130956
-0.0126471
-0.0122336
-0.0118252
-0.0116062
-0.0112467
-0.00455314
-0.00472587
-0.00513384
-0.00574905
-0.00651593
-0.00739067
-0.00834168
-0.00932317
-0.0102868
-0.0112074
-0.0120693
-0.0128639
-0.0135881
-0.0142418
-0.0148265
-0.0153438
-0.0157946
-0.0161789
-0.0164957
-0.0167432
-0.0169191
-0.0170207
-0.0170455
-0.0169917
-0.0168587
-0.0166475
-0.0163611
-0.0160047
-0.0155865
-0.0151174
-0.0146101
-0.0140795
-0.0135407
-0.0130101
-0.0125067
-0.0120461
-0.0116383
-0.0112253
-0.0110531
-0.0106548
-0.00432596
-0.004471
-0.00483322
-0.00539799
-0.00611496
-0.00694384
-0.00785229
-0.00880378
-0.00975341
-0.0106731
-0.0115441
-0.0123549
-0.0130994
-0.0137752
-0.0143817
-0.0149192
-0.0153876
-0.0157865
-0.0161144
-0.0163692
-0.0165484
-0.0166491
-0.0166688
-0.0166056
-0.0164589
-0.01623
-0.0159218
-0.0155399
-0.0150927
-0.0145914
-0.0140493
-0.0134815
-0.0129041
-0.0123348
-0.0117968
-0.0113158
-0.0109073
-0.0104628
-0.0103177
-0.00989203
-0.00411499
-0.00421792
-0.00451221
-0.00500554
-0.00565492
-0.00642224
-0.00727845
-0.00819119
-0.00912091
-0.0100377
-0.0109192
-0.0117496
-0.0125192
-0.0132225
-0.0138565
-0.0144197
-0.014911
-0.0153289
-0.0156716
-0.0159366
-0.0161212
-0.0162224
-0.0162376
-0.0161648
-0.0160036
-0.015755
-0.0154222
-0.0150111
-0.0145305
-0.0139917
-0.0134086
-0.0127966
-0.0121725
-0.0115559
-0.0109742
-0.0104635
-0.010042
-0.009542
-0.00944822
-0.00895107
-0.00393987
-0.00398274
-0.00418588
-0.00458756
-0.00515049
-0.00583782
-0.00662644
-0.0074896
-0.00839208
-0.00930243
-0.0101944
-0.0110473
-0.0118467
-0.0125832
-0.0132509
-0.0138459
-0.0143657
-0.0148079
-0.0151699
-0.0154489
-0.0156419
-0.0157458
-0.0157578
-0.0156761
-0.0155
-0.0152305
-0.0148712
-0.014428
-0.01391
-0.0133289
-0.0126988
-0.0120355
-0.011357
-0.0106844
-0.0100494
-0.00949656
-0.00904397
-0.00848452
-0.00843311
-0.00780489
-0.00379688
-0.00375678
-0.00386073
-0.00415702
-0.00461381
-0.00520074
-0.00590395
-0.00670454
-0.00757104
-0.0084703
-0.00937169
-0.0102492
-0.0110829
-0.0118585
-0.0125663
-0.0131999
-0.0137547
-0.014227
-0.0146135
-0.014911
-0.015116
-0.0152255
-0.0152367
-0.0151475
-0.0149571
-0.0146668
-0.01428
-0.0138029
-0.0132446
-0.0126172
-0.0119346
-0.0112132
-0.0104724
-0.0097348
-0.00903669
-0.00842821
-0.00792594
-0.00727512
-0.00728002
-0.00639786
-0.00363527
-0.00352195
-0.00354419
-0.00372471
-0.0040536
-0.00451861
-0.00511845
-0.00584283
-0.00666395
-0.00754691
-0.00845623
-0.00935998
-0.010232
-0.0110524
-0.011807
-0.0124861
-0.0130827
-0.0135915
-0.0140083
-0.0143294
-0.014551
-0.0146699
-0.0146834
-0.0145894
-0.0143867
-0.0140768
-0.0136632
-0.0131518
-0.0125519
-0.0118753
-0.011136
-0.01035
-0.00953904
-0.00872694
-0.00795511
-0.00727482
-0.00669529
-0.00590866
-0.00599253
-0.00465577
-0.00342184
-0.00329022
-0.00324678
-0.00329829
-0.00347684
-0.00379871
-0.00427839
-0.00491389
-0.00568093
-0.00654256
-0.0074582
-0.00838935
-0.00930312
-0.0101736
-0.0109814
-0.0117127
-0.0123579
-0.0129098
-0.0133632
-0.0137134
-0.0139568
-0.0140898
-0.0141098
-0.0140145
-0.0138032
-0.013477
-0.0130392
-0.0124956
-0.0118549
-0.0111282
-0.0103293
-0.00947394
-0.00858503
-0.00768805
-0.0068285
-0.00605447
-0.00536465
-0.00440951
-0.00453963
-0.00253653
-0.00319145
-0.00308614
-0.00297502
-0.00288156
-0.00288904
-0.0030483
-0.00339307
-0.0039299
-0.00463706
-0.00547434
-0.00639541
-0.00735507
-0.00831343
-0.00923805
-0.0101042
-0.0108937
-0.0115937
-0.012195
-0.0126909
-0.0130763
-0.013347
-0.0134995
-0.0135312
-0.0134401
-0.0132258
-0.0128887
-0.0124321
-0.0118611
-0.0111834
-0.0104089
-0.00955015
-0.00862189
-0.0076476
-0.00665362
-0.00568874
-0.00478912
-0.00394831
-0.00280957
-0.00281628
-6.65738e-05
-0.00298667
-0.00291298
-0.00272357
-0.00247469
-0.00229531
-0.00227684
-0.00247638
-0.00290941
-0.00355461
-0.00436762
-0.0052951
-0.00628469
-0.00728973
-0.00827143
-0.00919947
-0.0100514
-0.0108109
-0.0114666
-0.0120103
-0.0124364
-0.0127404
-0.0129187
-0.0129687
-0.0128887
-0.0126788
-0.0123393
-0.0118724
-0.0112822
-0.010575
-0.00975789
-0.00884176
-0.00783851
-0.00677091
-0.00566236
-0.0045615
-0.0034857
-0.00242977
-0.00104588
-0.000694333
0.00275679
-0.00279094
-0.00274309
-0.00247333
-0.00206591
-0.00169223
-0.00149107
-0.00154457
-0.00187637
-0.00246362
-0.00325604
-0.00419303
-0.00521496
-0.00626825
-0.00730819
-0.00829947
-0.00921549
-0.010037
-0.0107504
-0.0113464
-0.0118181
-0.0121611
-0.012372
-0.0124479
-0.0123877
-0.0121914
-0.0118596
-0.0113932
-0.0107944
-0.0100673
-0.00921532
-0.00824566
-0.0071642
-0.00598954
-0.00473394
-0.00343814
-0.00208999
-0.000690888
0.00110829
0.00206405
0.00635049
-0.00259063
-0.00254629
-0.00220765
-0.00164276
-0.00108133
-0.000710633
-0.000631361
-0.000873095
-0.00141101
-0.00218827
-0.00313719
-0.00419155
-0.00529198
-0.0063885
-0.00744144
-0.00842072
-0.0093044
-0.0100769
-0.0107275
-0.0112489
-0.0116359
-0.0118852
-0.0119945
-0.0119625
-0.0117892
-0.0114737
-0.0110167
-0.0104177
-0.00967901
-0.00879824
-0.00777762
-0.00661052
-0.00530529
-0.00384718
-0.00225385
-0.000456219
0.00154461
0.00413705
0.0062415
0.0121647
-0.0023811
-0.00233156
-0.00189831
-0.00119408
-0.000461612
4.86814e-05
0.000235189
6.61016e-05
-0.000432205
-0.00119834
-0.00215926
-0.00324367
-0.00438792
-0.00553798
-0.00665041
-0.00769186
-0.00863771
-0.00947031
-0.0101775
-0.0107511
-0.0111856
-0.0114771
-0.011624
-0.0116244
-0.0114779
-0.0111828
-0.0107394
-0.0101441
-0.00939606
-0.00848722
-0.00741479
-0.00615068
-0.00468402
-0.00294449
-0.000906356
0.00162301
0.00467813
0.00885109
0.0134591
0.0231183
-0.00235532
-0.00222007
-0.00161811
-0.000761589
0.000100618
0.000720973
0.000979625
0.000855132
0.00037726
-0.000389028
-0.00136618
-0.00247938
-0.00366193
-0.00485752
-0.00602032
-0.00711447
-0.00811331
-0.0089975
-0.0097535
-0.010372
-0.0108473
-0.0111754
-0.0113542
-0.0113815
-0.0112569
-0.0109779
-0.0105443
-0.0099499
-0.00919206
-0.00825258
-0.00712012
-0.0057502
-0.00410363
-0.00201567
0.000611279
0.00420012
0.00893354
0.0160548
0.0256793
0.0423309
-0.0032476
-0.00248283
-0.00150109
-0.000408007
0.000597877
0.00129699
0.00160727
0.00150919
0.0010386
0.000264963
-0.00073077
-0.00187172
-0.00308936
-0.00432523
-0.0055309
-0.00666859
-0.00770979
-0.00863413
-0.00942705
-0.0100788
-0.0105832
-0.0109365
-0.0111365
-0.0111812
-0.0110696
-0.0107993
-0.0103683
-0.00977042
-0.0089977
-0.00803403
-0.00685606
-0.00540884
-0.00361536
-0.00124468
0.00196915
0.00680012
0.0139617
0.0257465
0.0435025
0.0700378
-0.00533871
-0.00164389
-0.000191916
0.000841995
0.00174242
0.0023773
0.00262443
0.00245887
0.00192191
0.00108629
3.2165e-05
-0.00116352
-0.00243365
-0.00371987
-0.00497337
-0.00615475
-0.00723523
-0.0081935
-0.00901587
-0.00969226
-0.0102172
-0.0105867
-0.0107992
-0.010853
-0.0107476
-0.0104804
-0.0100483
-0.00944467
-0.00865517
-0.00765929
-0.00643037
-0.00490295
-0.00310437
-0.000635802
0.00282603
0.00882918
0.0191005
0.0365647
0.0639913
0.0984022
)
;

boundaryField
{
    movingWall
    {
        type            zeroGradient;
    }
    fixedWalls
    {
        type            zeroGradient;
    }
    frontAndBack
    {
        type            empty;
    }
}


// ************************************************************************* //
