/*--------------------------------*- C++ -*----------------------------------*\
  =========                 |
  \\      /  F ield         | OpenFOAM: The Open Source CFD Toolbox
   \\    /   O peration     | Website:  https://openfoam.org
    \\  /    A nd           | Version:  13
     \\/     M anipulation  |
\*---------------------------------------------------------------------------*/
FoamFile
{
    format      ascii;
    class       volVectorField;
    location    "4";
    object      U;
}
// * * * * * * * * * * * * * * * * * * * * * * * * * * * * * * * * * * * * * //

dimensions      [0 1 -1 0 0 0 0];

internalField   nonuniform List<vector> 
1600
(
(0.000915423 -0.000832375 0)
(0.00479476 -0.00134017 0)
(0.00879139 -0.00127107 0)
(0.0114673 -0.000546978 0)
(0.0124148 -2.86937e-05 0)
(0.0122968 -6.56183e-05 0)
(0.0119293 -0.000359033 0)
(0.0115762 -0.000704888 0)
(0.0110574 -0.000826204 0)
(0.00990934 -0.000776921 0)
(0.00783439 -0.00102173 0)
(0.0038178 -0.000850209 0)
(-0.00460121 0.000101328 0)
(-0.0145507 0.00375742 0)
(-0.02962 0.00908727 0)
(-0.0519622 0.0116526 0)
(-0.0717143 0.0112102 0)
(-0.0898168 0.0102233 0)
(-0.105095 0.0088386 0)
(-0.117952 0.00743104 0)
(-0.128193 0.00598396 0)
(-0.135976 0.00456368 0)
(-0.141191 0.00313164 0)
(-0.143608 0.0017747 0)
(-0.143994 -5.53038e-05 0)
(-0.140804 -0.00172123 0)
(-0.135025 -0.00370337 0)
(-0.125391 -0.00558564 0)
(-0.112535 -0.00761644 0)
(-0.096245 -0.0098159 0)
(-0.0767441 -0.0118372 0)
(-0.0545359 -0.0131963 0)
(-0.0309736 -0.0134996 0)
(-0.00703595 -0.0121972 0)
(0.0126366 -0.00972212 0)
(0.0265464 -0.00293742 0)
(0.0270604 0.00333976 0)
(0.0209153 0.00485484 0)
(0.00974533 0.00368152 0)
(0.00199928 0.00246029 0)
(0.00166722 -0.00475805 0)
(0.00821014 -0.00736489 0)
(0.0128363 -0.00584629 0)
(0.0155659 -0.00291796 0)
(0.0162137 -0.000483038 0)
(0.01488 0.000800967 0)
(0.0120966 0.00119305 0)
(0.00805868 0.00146461 0)
(0.00193483 0.00252147 0)
(-0.00740944 0.0047216 0)
(-0.021054 0.00836777 0)
(-0.0417267 0.0147451 0)
(-0.0667354 0.0216411 0)
(-0.0910324 0.0276311 0)
(-0.111626 0.0300008 0)
(-0.129113 0.0288821 0)
(-0.144084 0.0263065 0)
(-0.156727 0.022908 0)
(-0.167069 0.0192374 0)
(-0.175329 0.0155379 0)
(-0.18147 0.0118552 0)
(-0.185597 0.00821543 0)
(-0.187655 0.00453299 0)
(-0.187664 0.000711622 0)
(-0.185592 -0.00346292 0)
(-0.181147 -0.0078971 0)
(-0.174242 -0.0126279 0)
(-0.164544 -0.0176753 0)
(-0.151786 -0.0229514 0)
(-0.135417 -0.0281688 0)
(-0.116129 -0.0331038 0)
(-0.0939887 -0.0368769 0)
(-0.0694127 -0.0379592 0)
(-0.0441709 -0.0353182 0)
(-0.0192935 -0.0273784 0)
(0.00217902 -0.012321 0)
(0.0156211 0.00380423 0)
(0.0151259 0.0103979 0)
(0.00896663 0.0123816 0)
(0.00144913 0.00896671 0)
(0.00252881 -0.0106563 0)
(0.0088248 -0.0131196 0)
(0.0114026 -0.00924688 0)
(0.012042 -0.00368616 0)
(0.0102965 0.000792788 0)
(0.00636726 0.00378853 0)
(-0.000390962 0.00626467 0)
(-0.0110477 0.00989321 0)
(-0.0266648 0.0161066 0)
(-0.0476312 0.0248109 0)
(-0.0719635 0.0340392 0)
(-0.0954472 0.0405981 0)
(-0.116788 0.044321 0)
(-0.134443 0.0454668 0)
(-0.14888 0.044085 0)
(-0.160684 0.0408994 0)
(-0.170408 0.0365502 0)
(-0.178343 0.0315596 0)
(-0.184719 0.0263514 0)
(-0.189694 0.0210925 0)
(-0.193286 0.0158654 0)
(-0.195672 0.0104643 0)
(-0.196613 0.00515087 0)
(-0.196152 -0.000392338 0)
(-0.194083 -0.00623677 0)
(-0.190516 -0.0124967 0)
(-0.185264 -0.0194322 0)
(-0.178103 -0.0271102 0)
(-0.168847 -0.0354724 0)
(-0.15707 -0.0441217 0)
(-0.142312 -0.0524271 0)
(-0.124445 -0.0591214 0)
(-0.103243 -0.0622743 0)
(-0.0801828 -0.0607766 0)
(-0.0551574 -0.051389 0)
(-0.0286684 -0.0316496 0)
(-0.00489425 -0.00470057 0)
(0.00226141 0.0108498 0)
(0.00225075 0.0162914 0)
(7.4411e-06 0.0124293 0)
(0.00287483 -0.0168756 0)
(0.00625499 -0.0163483 0)
(0.00610608 -0.00946423 0)
(0.00343506 -0.00138291 0)
(-0.0017356 0.00548002 0)
(-0.0102288 0.0117688 0)
(-0.0229565 0.0188074 0)
(-0.0403932 0.0277044 0)
(-0.0617013 0.038084 0)
(-0.0851568 0.048199 0)
(-0.107733 0.0557415 0)
(-0.126434 0.0595562 0)
(-0.141567 0.0603184 0)
(-0.153361 0.0584972 0)
(-0.162816 0.0547756 0)
(-0.170389 0.0498082 0)
(-0.176504 0.044092 0)
(-0.181361 0.0379673 0)
(-0.185629 0.0313448 0)
(-0.18897 0.0247867 0)
(-0.19148 0.0181936 0)
(-0.192939 0.0117779 0)
(-0.193441 0.00513384 0)
(-0.192942 -0.00168728 0)
(-0.191423 -0.00883509 0)
(-0.188798 -0.0164447 0)
(-0.184974 -0.0246897 0)
(-0.179815 -0.033656 0)
(-0.173179 -0.0435555 0)
(-0.16501 -0.0544459 0)
(-0.155089 -0.0658816 0)
(-0.143169 -0.0768465 0)
(-0.12846 -0.0850895 0)
(-0.108981 -0.0865191 0)
(-0.0858715 -0.079056 0)
(-0.0581344 -0.0586743 0)
(-0.0249851 -0.0232542 0)
(-0.00599607 0.0044483 0)
(-0.00150032 0.014768 0)
(-6.17455e-05 0.0123177 0)
(0.00193586 -0.0199468 0)
(0.00177533 -0.0160976 0)
(-0.00196767 -0.00577167 0)
(-0.00817559 0.00471568 0)
(-0.0173421 0.0148223 0)
(-0.0303197 0.0251815 0)
(-0.0474779 0.0366022 0)
(-0.0679862 0.0488406 0)
(-0.0899318 0.060345 0)
(-0.110591 0.0689017 0)
(-0.127299 0.0730541 0)
(-0.140319 0.0736008 0)
(-0.150526 0.0715398 0)
(-0.158337 0.0674431 0)
(-0.164498 0.0619739 0)
(-0.169344 0.0555751 0)
(-0.173467 0.0485318 0)
(-0.1768 0.0412381 0)
(-0.179221 0.034069 0)
(-0.180689 0.0268495 0)
(-0.181543 0.0196289 0)
(-0.181779 0.0123901 0)
(-0.181541 0.00501564 0)
(-0.180815 -0.00257698 0)
(-0.179578 -0.0105556 0)
(-0.177683 -0.0190987 0)
(-0.175178 -0.0283945 0)
(-0.171952 -0.0385729 0)
(-0.167921 -0.0496806 0)
(-0.162898 -0.0616165 0)
(-0.156616 -0.0740714 0)
(-0.148714 -0.0866205 0)
(-0.139066 -0.0984764 0)
(-0.126446 -0.106324 0)
(-0.108243 -0.104953 0)
(-0.0832049 -0.0897928 0)
(-0.0502329 -0.0565948 0)
(-0.0145934 -0.0112878 0)
(-0.00162883 0.0101686 0)
(0.000684224 0.0117958 0)
(-0.000160594 -0.0202518 0)
(-0.00422125 -0.0116871 0)
(-0.0112308 0.00120701 0)
(-0.0207706 0.0145681 0)
(-0.0334963 0.0281589 0)
(-0.0496575 0.0422019 0)
(-0.0686564 0.056424 0)
(-0.0889245 0.0695709 0)
(-0.107988 0.079585 0)
(-0.123269 0.0846491 0)
(-0.134788 0.0853799 0)
(-0.143696 0.0832343 0)
(-0.150441 0.0789377 0)
(-0.155477 0.0731222 0)
(-0.159255 0.0662901 0)
(-0.161999 0.0588557 0)
(-0.163765 0.0511487 0)
(-0.164845 0.0432615 0)
(-0.165299 0.0354029 0)
(-0.165501 0.0275894 0)
(-0.165377 0.0198991 0)
(-0.164948 0.0122516 0)
(-0.16426 0.00453526 0)
(-0.163316 -0.00337633 0)
(-0.162107 -0.0116554 0)
(-0.160637 -0.0205114 0)
(-0.15895 -0.0301461 0)
(-0.157036 -0.0407642 0)
(-0.154871 -0.0525202 0)
(-0.152361 -0.0654463 0)
(-0.149309 -0.0793319 0)
(-0.145358 -0.0935571 0)
(-0.139873 -0.106976 0)
(-0.131777 -0.118141 0)
(-0.119779 -0.124087 0)
(-0.100859 -0.11795 0)
(-0.0731568 -0.0936069 0)
(-0.032844 -0.0445986 0)
(-0.00375129 -0.000855562 0)
(0.00158896 0.0114834 0)
(-0.0026037 -0.0159394 0)
(-0.0102044 -0.00393137 0)
(-0.0200171 0.011396 0)
(-0.0323882 0.0274695 0)
(-0.0475905 0.0440556 0)
(-0.0650568 0.0604236 0)
(-0.0836829 0.0755069 0)
(-0.101477 0.0874386 0)
(-0.115888 0.0941781 0)
(-0.12643 0.0957552 0)
(-0.134267 0.0938869 0)
(-0.140061 0.0896252 0)
(-0.144092 0.0836225 0)
(-0.146772 0.0764682 0)
(-0.148399 0.0685913 0)
(-0.149209 0.0603184 0)
(-0.149417 0.0519072 0)
(-0.149246 0.0435235 0)
(-0.148792 0.0353104 0)
(-0.148168 0.0272586 0)
(-0.147365 0.019353 0)
(-0.146432 0.0115134 0)
(-0.145385 0.00363211 0)
(-0.144248 -0.00441742 0)
(-0.143036 -0.0127947 0)
(-0.141789 -0.0216972 0)
(-0.140556 -0.0313234 0)
(-0.139377 -0.0418839 0)
(-0.138278 -0.0535768 0)
(-0.137242 -0.0665495 0)
(-0.136174 -0.0808122 0)
(-0.134818 -0.0961091 0)
(-0.132618 -0.111652 0)
(-0.12858 -0.125783 0)
(-0.121082 -0.135975 0)
(-0.108208 -0.138234 0)
(-0.087564 -0.125166 0)
(-0.0558566 -0.0874705 0)
(-0.012164 -0.020239 0)
(0.00249977 0.010288 0)
(-0.00476162 -0.00841415 0)
(-0.0151348 0.0069092 0)
(-0.027118 0.0240334 0)
(-0.0415859 0.0423398 0)
(-0.0578785 0.0608098 0)
(-0.075133 0.0779979 0)
(-0.0919231 0.0922458 0)
(-0.105971 0.10134 0)
(-0.116142 0.104529 0)
(-0.12331 0.103376 0)
(-0.128462 0.0994265 0)
(-0.131851 0.0934358 0)
(-0.133823 0.0860388 0)
(-0.134744 0.0777972 0)
(-0.134886 0.0690993 0)
(-0.134491 0.0602444 0)
(-0.133763 0.0514455 0)
(-0.13285 0.042829 0)
(-0.131815 0.0344584 0)
(-0.130711 0.0263009 0)
(-0.129549 0.0183149 0)
(-0.128356 0.0104159 0)
(-0.127144 0.0024967 0)
(-0.125931 -0.00556979 0)
(-0.124742 -0.0139332 0)
(-0.123624 -0.0227713 0)
(-0.122637 -0.0322781 0)
(-0.121851 -0.0426639 0)
(-0.121329 -0.0541398 0)
(-0.121104 -0.0668914 0)
(-0.12114 -0.0810225 0)
(-0.121273 -0.0964513 0)
(-0.121074 -0.112766 0)
(-0.119647 -0.12895 0)
(-0.115611 -0.142917 0)
(-0.107182 -0.151068 0)
(-0.0926616 -0.147601 0)
(-0.0687873 -0.123223 0)
(-0.0283224 -0.0577679 0)
(0.00128278 0.0023875 0)
(-0.00607851 0.00202996 0)
(-0.0185906 0.0200504 0)
(-0.0320977 0.0384139 0)
(-0.047579 0.0580568 0)
(-0.0638686 0.0771764 0)
(-0.0798431 0.0938851 0)
(-0.0938851 0.105842 0)
(-0.104325 0.111543 0)
(-0.111338 0.111714 0)
(-0.116184 0.108415 0)
(-0.119301 0.102716 0)
(-0.120927 0.0952894 0)
(-0.121464 0.0867988 0)
(-0.121229 0.0777607 0)
(-0.120473 0.06852 0)
(-0.119414 0.0593295 0)
(-0.118203 0.0503445 0)
(-0.116929 0.0416399 0)
(-0.115637 0.0332259 0)
(-0.114355 0.0250575 0)
(-0.113089 0.0170734 0)
(-0.111845 0.00918185 0)
(-0.110624 0.00128181 0)
(-0.109426 -0.00674418 0)
(-0.108272 -0.0150331 0)
(-0.107205 -0.0237402 0)
(-0.106293 -0.0330425 0)
(-0.10562 -0.0431432 0)
(-0.105283 -0.0542691 0)
(-0.10536 -0.066656 0)
(-0.105879 -0.0805063 0)
(-0.106756 -0.0959038 0)
(-0.107703 -0.112672 0)
(-0.108026 -0.130175 0)
(-0.106398 -0.146857 0)
(-0.101099 -0.159629 0)
(-0.0908561 -0.16287 0)
(-0.0732264 -0.149895 0)
(-0.0446944 -0.102696 0)
(-0.00446265 -0.0125254 0)
(-0.00693958 0.0143449 0)
(-0.0206462 0.0345431 0)
(-0.0347353 0.0535322 0)
(-0.0502698 0.0735218 0)
(-0.0657004 0.0923603 0)
(-0.0798441 0.107434 0)
(-0.091082 0.116482 0)
(-0.0985137 0.118837 0)
(-0.103439 0.116668 0)
(-0.106591 0.111565 0)
(-0.108225 0.104379 0)
(-0.108671 0.095806 0)
(-0.108315 0.0865083 0)
(-0.107428 0.0769301 0)
(-0.106231 0.0673682 0)
(-0.104892 0.0580213 0)
(-0.103516 0.0489855 0)
(-0.102168 0.0402886 0)
(-0.100876 0.0319072 0)
(-0.0996483 0.02378 0)
(-0.0984747 0.015834 0)
(-0.0973381 0.00797172 0)
(-0.096219 9.46349e-05 0)
(-0.095105 -0.00789851 0)
(-0.0940087 -0.0161309 0)
(-0.0929617 -0.0247296 0)
(-0.092027 -0.0338447 0)
(-0.0912954 -0.0436566 0)
(-0.0908791 -0.0543846 0)
(-0.0908921 -0.0662864 0)
(-0.0914132 -0.0796355 0)
(-0.0924334 -0.0946635 0)
(-0.0937829 -0.111449 0)
(-0.0949971 -0.129741 0)
(-0.0949839 -0.148566 0)
(-0.0919021 -0.165341 0)
(-0.0848173 -0.173913 0)
(-0.0713561 -0.169293 0)
(-0.0502098 -0.135387 0)
(-0.0135467 -0.0335455 0)
(-0.00722454 0.0273554 0)
(-0.021267 0.0494878 0)
(-0.0351743 0.0685082 0)
(-0.0501291 0.0881699 0)
(-0.0642503 0.105976 0)
(-0.0764693 0.118849 0)
(-0.0846914 0.124338 0)
(-0.0902809 0.12415 0)
(-0.0937162 0.120026 0)
(-0.0956525 0.113374 0)
(-0.0962971 0.104956 0)
(-0.096042 0.095512 0)
(-0.0952176 0.0856454 0)
(-0.0940472 0.0757303 0)
(-0.0927175 0.0660118 0)
(-0.09136 0.0566277 0)
(-0.0900544 0.0476291 0)
(-0.0888407 0.0390062 0)
(-0.0877294 0.0307071 0)
(-0.0867055 0.0226516 0)
(-0.0857407 0.0147519 0)
(-0.0848003 0.00691141 0)
(-0.0838483 -0.000966034 0)
(-0.0828672 -0.00897001 0)
(-0.0818563 -0.0171979 0)
(-0.0808335 -0.0257503 0)
(-0.0798517 -0.034746 0)
(-0.0789964 -0.0443361 0)
(-0.0783843 -0.0547213 0)
(-0.0781501 -0.0661656 0)
(-0.0784135 -0.0789919 0)
(-0.0792267 -0.0935423 0)
(-0.080508 -0.11008 0)
(-0.081966 -0.128646 0)
(-0.082817 -0.148829 0)
(-0.081323 -0.168921 0)
(-0.0759744 -0.182573 0)
(-0.0656858 -0.184916 0)
(-0.0471057 -0.16305 0)
(-0.0179056 -0.079216 0)
(-0.00702687 0.0403653 0)
(-0.0207124 0.0642073 0)
(-0.0338892 0.0828346 0)
(-0.0477605 0.101666 0)
(-0.0604529 0.117916 0)
(-0.0701938 0.127708 0)
(-0.0763861 0.1304 0)
(-0.080725 0.128058 0)
(-0.0830667 0.122259 0)
(-0.084184 0.114285 0)
(-0.0842389 0.104887 0)
(-0.0836366 0.0948037 0)
(-0.0826349 0.0845547 0)
(-0.0814299 0.0744517 0)
(-0.0801793 0.0646889 0)
(-0.0789826 0.0553542 0)
(-0.0778956 0.0464554 0)
(-0.0769362 0.0379474 0)
(-0.0760938 0.029751 0)
(-0.0753375 0.0217689 0)
(-0.0746249 0.013903 0)
(-0.0739107 0.0060582 0)
(-0.0731546 -0.00185601 0)
(-0.0723301 -0.00991851 0)
(-0.0714255 -0.0182006 0)
(-0.0704495 -0.026778 0)
(-0.06944 -0.0357372 0)
(-0.0684682 -0.0451942 0)
(-0.0676414 -0.055318 0)
(-0.0670987 -0.0663581 0)
(-0.0669888 -0.0786637 0)
(-0.0674202 -0.0926708 0)
(-0.0683908 -0.108821 0)
(-0.0697164 -0.127383 0)
(-0.0708861 -0.148292 0)
(-0.0705196 -0.170649 0)
(-0.0662854 -0.189663 0)
(-0.0586187 -0.19649 0)
(-0.0425915 -0.184191 0)
(-0.0152691 -0.112073 0)
(-0.00642739 0.0527635 0)
(-0.0192088 0.0781093 0)
(-0.0312931 0.0960512 0)
(-0.0437689 0.113657 0)
(-0.0548536 0.127991 0)
(-0.062236 0.134679 0)
(-0.0673313 0.135171 0)
(-0.0705254 0.130941 0)
(-0.0721355 0.123717 0)
(-0.0727302 0.114649 0)
(-0.0724867 0.104497 0)
(-0.0717701 0.0939538 0)
(-0.0707869 0.0834605 0)
(-0.0697114 0.0732799 0)
(-0.0686671 0.0635549 0)
(-0.0677279 0.0543254 0)
(-0.0669262 0.045559 0)
(-0.0662601 0.037178 0)
(-0.0657032 0.0290801 0)
(-0.0652146 0.021155 0)
(-0.0647461 0.0132986 0)
(-0.0642494 0.00541871 0)
(-0.0636841 -0.00256708 0)
(-0.0630193 -0.0107255 0)
(-0.0622371 -0.0191105 0)
(-0.0613382 -0.0277748 0)
(-0.0603463 -0.0367766 0)
(-0.0593144 -0.0461975 0)
(-0.0583312 -0.0561692 0)
(-0.057524 -0.06691 0)
(-0.0570498 -0.0787654 0)
(-0.0570586 -0.0922277 0)
(-0.0576208 -0.107889 0)
(-0.0586363 -0.12627 0)
(-0.0597626 -0.147566 0)
(-0.0599656 -0.171326 0)
(-0.0569167 -0.195328 0)
(-0.0504911 -0.207124 0)
(-0.0372423 -0.20297 0)
(-0.0135248 -0.142724 0)
(-0.00553805 0.0639877 0)
(-0.0170595 0.0908015 0)
(-0.0277918 0.107918 0)
(-0.0388158 0.124163 0)
(-0.0479976 0.136091 0)
(-0.0536362 0.140294 0)
(-0.0578581 0.138884 0)
(-0.0601934 0.133078 0)
(-0.0613257 0.124665 0)
(-0.0616158 0.114719 0)
(-0.0612664 0.103999 0)
(-0.0605847 0.0931336 0)
(-0.0597415 0.0825037 0)
(-0.0588822 0.0723235 0)
(-0.0581011 0.0626864 0)
(-0.0574479 0.0535883 0)
(-0.0569349 0.0449602 0)
(-0.0565455 0.0366968 0)
(-0.0562446 0.0286786 0)
(-0.0559881 0.0207868 0)
(-0.0557285 0.0129156 0)
(-0.05542 0.00497617 0)
(-0.0550244 -0.00310546 0)
(-0.0545113 -0.0113855 0)
(-0.0538603 -0.0199048 0)
(-0.053066 -0.0286975 0)
(-0.0521405 -0.0377989 0)
(-0.0511195 -0.0472608 0)
(-0.0500698 -0.0571779 0)
(-0.049097 -0.0677286 0)
(-0.0483487 -0.0792308 0)
(-0.0479955 -0.0921959 0)
(-0.04817 -0.107328 0)
(-0.0488642 -0.125386 0)
(-0.0498254 -0.14687 0)
(-0.0502996 -0.171741 0)
(-0.0484777 -0.198302 0)
(-0.0426318 -0.216267 0)
(-0.0324235 -0.217524 0)
(-0.01118 -0.167032 0)
(-0.00453064 0.0737893 0)
(-0.0145134 0.101994 0)
(-0.0237665 0.11825 0)
(-0.0332656 0.133062 0)
(-0.0405014 0.142506 0)
(-0.0448884 0.144827 0)
(-0.0483534 0.141781 0)
(-0.0500517 0.134679 0)
(-0.0508718 0.125297 0)
(-0.0510061 0.114664 0)
(-0.0506694 0.103525 0)
(-0.0501081 0.0924457 0)
(-0.0494626 0.0817564 0)
(-0.0488487 0.0716246 0)
(-0.0483344 0.0620982 0)
(-0.0479484 0.0531335 0)
(-0.0476881 0.0446308 0)
(-0.0475287 0.0364637 0)
(-0.0474331 0.0285008 0)
(-0.0473593 0.0206197 0)
(-0.0472647 0.0127149 0)
(-0.0471095 0.00470097 0)
(-0.0468594 -0.00348861 0)
(-0.0464868 -0.0119017 0)
(-0.0459718 -0.0205691 0)
(-0.0453048 -0.0295115 0)
(-0.0444892 -0.0387464 0)
(-0.0435468 -0.048302 0)
(-0.0425239 -0.0582409 0)
(-0.041502 -0.0687002 0)
(-0.0406069 -0.0799554 0)
(-0.0400076 -0.0925018 0)
(-0.0398761 -0.107109 0)
(-0.0402863 -0.124735 0)
(-0.0410725 -0.146181 0)
(-0.0417139 -0.171794 0)
(-0.0406602 -0.200643 0)
(-0.0355826 -0.224501 0)
(-0.0282551 -0.23051 0)
(-0.00975233 -0.188773 0)
(-0.003381 0.0817183 0)
(-0.0117396 0.111496 0)
(-0.0194432 0.126966 0)
(-0.0273262 0.140261 0)
(-0.032813 0.147548 0)
(-0.0363658 0.148467 0)
(-0.0390438 0.144033 0)
(-0.0402824 0.13589 0)
(-0.0408905 0.125741 0)
(-0.0409608 0.114586 0)
(-0.040699 0.103147 0)
(-0.0402938 0.0919362 0)
(-0.0398581 0.0812381 0)
(-0.0394785 0.0711783 0)
(-0.0392004 0.0617641 0)
(-0.0390362 0.0529187 0)
(-0.0389743 0.0445185 0)
(-0.0389878 0.0364226 0)
(-0.0390422 0.0284926 0)
(-0.0391013 0.0206049 0)
(-0.03913 0.0126557 0)
(-0.0390957 0.00456297 0)
(-0.0389694 -0.00373476 0)
(-0.0387277 -0.0122788 0)
(-0.0383521 -0.0210928 0)
(-0.0378309 -0.030188 0)
(-0.0371618 -0.039569 0)
(-0.0363556 -0.0492457 0)
(-0.0354425 -0.0592544 0)
(-0.034482 -0.0696947 0)
(-0.0335755 -0.0807938 0)
(-0.0328759 -0.0930048 0)
(-0.0325721 -0.107114 0)
(-0.032808 -0.124239 0)
(-0.0335194 -0.145516 0)
(-0.0342999 -0.171554 0)
(-0.0338883 -0.201736 0)
(-0.030239 -0.230583 0)
(-0.0238577 -0.241403 0)
(-0.00829498 -0.206591 0)
(-0.00228873 0.0879736 0)
(-0.00885223 0.119271 0)
(-0.0149911 0.134026 0)
(-0.0212866 0.145934 0)
(-0.0252623 0.151485 0)
(-0.02814 0.151264 0)
(-0.0300619 0.145749 0)
(-0.030962 0.136806 0)
(-0.031415 0.126075 0)
(-0.0314702 0.114538 0)
(-0.0313044 0.102894 0)
(-0.0310565 0.0916107 0)
(-0.0308123 0.0809332 0)
(-0.0306317 0.0709504 0)
(-0.0305415 0.061636 0)
(-0.0305434 0.0528876 0)
(-0.0306219 0.0445645 0)
(-0.0307522 0.0365167 0)
(-0.0309059 0.0286026 0)
(-0.0310544 0.0206986 0)
(-0.0311709 0.012703 0)
(-0.0312305 0.00453657 0)
(-0.0312108 -0.0038588 0)
(-0.0310927 -0.0125203 0)
(-0.03086 -0.0214667 0)
(-0.0305006 -0.0307034 0)
(-0.0300081 -0.0402258 0)
(-0.0293855 -0.0500304 0)
(-0.0286502 -0.0601326 0)
(-0.0278438 -0.0705999 0)
(-0.0270447 -0.0816131 0)
(-0.026384 -0.0935707 0)
(-0.0260486 -0.107234 0)
(-0.0262303 -0.123815 0)
(-0.0269624 -0.144761 0)
(-0.0278921 -0.171068 0)
(-0.0279617 -0.202508 0)
(-0.025461 -0.235333 0)
(-0.0208686 -0.250841 0)
(-0.00725523 -0.222537 0)
(-0.00104933 0.0920992 0)
(-0.00592659 0.125183 0)
(-0.0105761 0.139555 0)
(-0.0152905 0.150144 0)
(-0.0180073 0.154399 0)
(-0.020185 0.153307 0)
(-0.0214732 0.147006 0)
(-0.0220973 0.137483 0)
(-0.0224243 0.126336 0)
(-0.0224818 0.114536 0)
(-0.0224065 0.102763 0)
(-0.0222951 0.0914486 0)
(-0.0222066 0.0808053 0)
(-0.0221782 0.0708927 0)
(-0.0222225 0.0616587 0)
(-0.0223348 0.0529827 0)
(-0.0225001 0.0447133 0)
(-0.0226983 0.0366954 0)
(-0.0229086 0.0287866 0)
(-0.0231109 0.0208643 0)
(-0.0232867 0.0128284 0)
(-0.0234193 0.00460179 0)
(-0.023493 -0.00387184 0)
(-0.0234935 -0.0126278 0)
(-0.0234076 -0.0216823 0)
(-0.0232237 -0.0310374 0)
(-0.022933 -0.0406829 0)
(-0.0225328 -0.0506056 0)
(-0.022031 -0.0608045 0)
(-0.0214541 -0.0713206 0)
(-0.0208603 -0.0822919 0)
(-0.0203575 -0.0940583 0)
(-0.0201185 -0.10733 0)
(-0.0203603 -0.123364 0)
(-0.0212022 -0.143856 0)
(-0.0223707 -0.170209 0)
(-0.0229992 -0.202715 0)
(-0.0215872 -0.23834 0)
(-0.0180645 -0.258602 0)
(-0.00627022 -0.236079 0)
(-6.5499e-05 0.0946857 0)
(-0.00305584 0.129408 0)
(-0.00624816 0.143537 0)
(-0.00942801 0.153022 0)
(-0.0111194 0.156447 0)
(-0.012546 0.154675 0)
(-0.0132881 0.147852 0)
(-0.0136593 0.137952 0)
(-0.0138678 0.126536 0)
(-0.0139223 0.114576 0)
(-0.0139155 0.102734 0)
(-0.0139071 0.091415 0)
(-0.013931 0.0808092 0)
(-0.0140055 0.0709534 0)
(-0.014133 0.0617783 0)
(-0.0143062 0.0531519 0)
(-0.0145126 0.044917 0)
(-0.0147387 0.0369168 0)
(-0.0149715 0.0290094 0)
(-0.0151997 0.0210734 0)
(-0.0154133 0.0130102 0)
(-0.0156031 0.00474359 0)
(-0.0157605 -0.00378195 0)
(-0.0158762 -0.0126017 0)
(-0.0159406 -0.0217318 0)
(-0.0159436 -0.0311727 0)
(-0.0158757 -0.0409117 0)
(-0.0157303 -0.0509294 0)
(-0.0155075 -0.0612127 0)
(-0.0152221 -0.0717806 0)
(-0.0149151 -0.0827341 0)
(-0.0146722 -0.0943554 0)
(-0.0146461 -0.107287 0)
(-0.0150577 -0.122776 0)
(-0.0160858 -0.142723 0)
(-0.0175472 -0.168969 0)
(-0.0187794 -0.202329 0)
(-0.018339 -0.240433 0)
(-0.016081 -0.265209 0)
(-0.00553215 -0.248321 0)
(0.00126738 0.0948772 0)
(-0.000228666 0.131883 0)
(-0.0019908 0.14602 0)
(-0.00376729 0.154723 0)
(-0.00455797 0.157644 0)
(-0.00523354 0.155412 0)
(-0.00548171 0.148316 0)
(-0.00560039 0.138222 0)
(-0.0056815 0.126669 0)
(-0.00571189 0.114635 0)
(-0.00574147 0.102773 0)
(-0.00579672 0.0914687 0)
(-0.00588852 0.0808979 0)
(-0.00601955 0.0710839 0)
(-0.00618527 0.0619475 0)
(-0.00637773 0.0533514 0)
(-0.00658869 0.045137 0)
(-0.00681138 0.037148 0)
(-0.00704096 0.0292437 0)
(-0.00727436 0.0213043 0)
(-0.00750966 0.013232 0)
(-0.00774517 0.00495091 0)
(-0.0079791 -0.00359492 0)
(-0.00820764 -0.0124422 0)
(-0.00842532 -0.0216084 0)
(-0.00862448 -0.031095 0)
(-0.00879597 -0.0408889 0)
(-0.0089309 -0.0509676 0)
(-0.00902389 -0.0613095 0)
(-0.0090798 -0.0719164 0)
(-0.00912489 -0.0828576 0)
(-0.00922498 -0.0943612 0)
(-0.00951068 -0.106996 0)
(-0.0101942 -0.12196 0)
(-0.0114957 -0.141289 0)
(-0.0133234 -0.167285 0)
(-0.0151586 -0.201241 0)
(-0.0155931 -0.241371 0)
(-0.0143454 -0.270553 0)
(-0.0048521 -0.259012 0)
(0.00216609 0.0935677 0)
(0.00245642 0.132713 0)
(0.0021202 0.147116 0)
(0.00163721 0.155366 0)
(0.00171533 0.158028 0)
(0.00178499 0.155548 0)
(0.00199617 0.148392 0)
(0.00213584 0.138276 0)
(0.00220279 0.126712 0)
(0.00222718 0.114684 0)
(0.00219858 0.102842 0)
(0.00212086 0.0915671 0)
(0.00200373 0.0810274 0)
(0.00185736 0.0712412 0)
(0.00169135 0.0621265 0)
(0.00151287 0.0535463 0)
(0.00132558 0.0453435 0)
(0.00112955 0.0373642 0)
(0.00092197 0.0294697 0)
(0.000698089 0.0215414 0)
(0.000452243 0.0134823 0)
(0.000178858 0.00521583 0)
(-0.000126671 -0.00331504 0)
(-0.000466331 -0.0121492 0)
(-0.000839225 -0.0213075 0)
(-0.00124123 -0.0307935 0)
(-0.00166471 -0.0405962 0)
(-0.00209992 -0.0506928 0)
(-0.00253753 -0.0610571 0)
(-0.00297455 -0.0716777 0)
(-0.0034242 -0.0825973 0)
(-0.00393364 -0.0939954 0)
(-0.00461072 -0.106364 0)
(-0.00565118 -0.120833 0)
(-0.00730081 -0.139505 0)
(-0.00956494 -0.165126 0)
(-0.0120082 -0.199529 0)
(-0.0132642 -0.241481 0)
(-0.0130971 -0.275016 0)
(-0.00432394 -0.268826 0)
(0.00312676 0.0904938 0)
(0.00508205 0.131938 0)
(0.0060857 0.146936 0)
(0.00678797 0.15501 0)
(0.00773813 0.157545 0)
(0.00850268 0.155109 0)
(0.00917434 0.148124 0)
(0.00960322 0.138106 0)
(0.00984865 0.126638 0)
(0.009965 0.114686 0)
(0.00997791 0.102902 0)
(0.00991896 0.0916693 0)
(0.00981609 0.081158 0)
(0.00969033 0.0713888 0)
(0.0095552 0.0622835 0)
(0.00941676 0.0537096 0)
(0.00927429 0.0455144 0)
(0.00912163 0.0375477 0)
(0.00894893 0.0296733 0)
(0.00874423 0.0217741 0)
(0.00849483 0.0137532 0)
(0.00818843 0.00553317 0)
(0.00781431 -0.00294483 0)
(0.00736456 -0.0117227 0)
(0.00683497 -0.0208255 0)
(0.00622563 -0.0302608 0)
(0.00554163 -0.0400208 0)
(0.00479202 -0.0500853 0)
(0.00398791 -0.0604263 0)
(0.00313835 -0.0710242 0)
(0.00224155 -0.0819009 0)
(0.00126866 -0.0931921 0)
(0.00013542 -0.105316 0)
(-0.00133392 -0.119313 0)
(-0.00339762 -0.137311 0)
(-0.00614794 -0.162443 0)
(-0.00921364 -0.197131 0)
(-0.0111842 -0.24063 0)
(-0.0120434 -0.278547 0)
(-0.00382683 -0.27762 0)
(0.00410014 0.0855477 0)
(0.00764776 0.129576 0)
(0.00990937 0.145523 0)
(0.0116981 0.1537 0)
(0.0134953 0.156291 0)
(0.0149349 0.15409 0)
(0.0160937 0.147466 0)
(0.0168457 0.137683 0)
(0.017306 0.12641 0)
(0.0175574 0.1146 0)
(0.0176564 0.102911 0)
(0.0176583 0.0917356 0)
(0.0176075 0.0812537 0)
(0.0175346 0.0714958 0)
(0.0174567 0.0623927 0)
(0.0173791 0.0538205 0)
(0.0172973 0.0456335 0)
(0.0171996 0.0376862 0)
(0.0170701 0.0298455 0)
(0.0168904 0.0219958 0)
(0.0166412 0.0140402 0)
(0.0163041 0.00590016 0)
(0.0158625 -0.0024855 0)
(0.0153027 -0.011162 0)
(0.0146152 -0.0201592 0)
(0.0137956 -0.0294902 0)
(0.0128454 -0.039152 0)
(0.0117716 -0.0491292 0)
(0.0105854 -0.0593951 0)
(0.00930007 -0.0699259 0)
(0.00792343 -0.0807278 0)
(0.0064429 -0.0918985 0)
(0.00479696 -0.103786 0)
(0.00283573 -0.117337 0)
(0.000294064 -0.134657 0)
(-0.00299166 -0.159214 0)
(-0.00672528 -0.194094 0)
(-0.0093022 -0.238954 0)
(-0.0112747 -0.281444 0)
(-0.0034082 -0.285826 0)
(0.00499173 0.0789953 0)
(0.0101046 0.125703 0)
(0.0135892 0.142949 0)
(0.0163856 0.151479 0)
(0.0190759 0.154256 0)
(0.0210167 0.152486 0)
(0.0227329 0.146411 0)
(0.0238785 0.136973 0)
(0.0246036 0.125984 0)
(0.0250429 0.114379 0)
(0.0252789 0.102825 0)
(0.0253871 0.0917261 0)
(0.025427 0.0812807 0)
(0.0254382 0.0715344 0)
(0.0254416 0.0624326 0)
(0.0254426 0.053863 0)
(0.025434 0.0456891 0)
(0.0253999 0.0377718 0)
(0.025319 0.0299813 0)
(0.0251673 0.0222036 0)
(0.0249199 0.0143419 0)
(0.0245525 0.00631614 0)
(0.024043 -0.00193726 0)
(0.0233729 -0.0104674 0)
(0.0225269 -0.0193086 0)
(0.0214955 -0.0284797 0)
(0.0202756 -0.037984 0)
(0.0188709 -0.0478128 0)
(0.0172916 -0.0579444 0)
(0.0155532 -0.0683547 0)
(0.0136695 -0.0790413 0)
(0.0116424 -0.0900719 0)
(0.00943635 -0.101722 0)
(0.00692865 -0.114841 0)
(0.00385379 -0.131479 0)
(-5.75444e-06 -0.155388 0)
(-0.0044637 -0.190382 0)
(-0.00754627 -0.236624 0)
(-0.0108285 -0.283381 0)
(-0.00274688 -0.293457 0)
(0.00575346 0.0709046 0)
(0.0124023 0.120352 0)
(0.0170643 0.139243 0)
(0.0208222 0.148391 0)
(0.0242144 0.151648 0)
(0.0269084 0.150229 0)
(0.0291052 0.14483 0)
(0.03071 0.135913 0)
(0.0317593 0.125302 0)
(0.032444 0.113969 0)
(0.0328742 0.102592 0)
(0.03314 0.091597 0)
(0.0333134 0.0812034 0)
(0.0334422 0.0714775 0)
(0.0335519 0.0623829 0)
(0.0336492 0.0538228 0)
(0.0337256 0.0456721 0)
(0.0337623 0.0377987 0)
(0.033734 0.0300774 0)
(0.033612 0.0223959 0)
(0.0333666 0.0146575 0)
(0.0329687 0.0067811 0)
(0.0323907 -0.00129965 0)
(0.0316096 -0.00963803 0)
(0.0306048 -0.0182723 0)
(0.02936 -0.0272279 0)
(0.0278676 -0.0365152 0)
(0.0261275 -0.0461326 0)
(0.0241465 -0.0560648 0)
(0.0219396 -0.0662913 0)
(0.0195249 -0.076808 0)
(0.0169172 -0.0876664 0)
(0.0141115 -0.0990789 0)
(0.0110054 -0.111775 0)
(0.00734752 -0.127727 0)
(0.0028728 -0.150924 0)
(-0.00237855 -0.185967 0)
(-0.00592838 -0.233647 0)
(-0.010526 -0.284416 0)
(-0.00217219 -0.300736 0)
(0.00631836 0.0613938 0)
(0.0144513 0.113601 0)
(0.0202545 0.134473 0)
(0.0249408 0.144481 0)
(0.0290238 0.148315 0)
(0.0324313 0.147427 0)
(0.0351636 0.142701 0)
(0.0372909 0.134438 0)
(0.0387529 0.1243 0)
(0.0397601 0.113305 0)
(0.0404529 0.102154 0)
(0.0409372 0.0912991 0)
(0.0412945 0.0809821 0)
(0.0415805 0.0712943 0)
(0.041826 0.0622216 0)
(0.0420403 0.0536852 0)
(0.0422153 0.0455728 0)
(0.0423309 0.0377615 0)
(0.0423593 0.0301312 0)
(0.0422687 0.022572 0)
(0.0420254 0.0149877 0)
(0.041596 0.00729602 0)
(0.0409485 -0.000572379 0)
(0.0400553 -0.00867333 0)
(0.0388907 -0.0170491 0)
(0.0374315 -0.0257313 0)
(0.0356648 -0.0347393 0)
(0.0335845 -0.0440796 0)
(0.0311922 -0.053745 0)
(0.0285023 -0.0637226 0)
(0.0255385 -0.0740102 0)
(0.0223257 -0.0846472 0)
(0.0188777 -0.0958027 0)
(0.0151271 -0.108091 0)
(0.0108449 -0.123355 0)
(0.00571369 -0.145772 0)
(-0.000416564 -0.180802 0)
(-0.00442988 -0.230008 0)
(-0.010374 -0.284786 0)
(-0.00129445 -0.307677 0)
(0.00658105 0.0506943 0)
(0.016135 0.105457 0)
(0.0230219 0.128616 0)
(0.0286188 0.13975 0)
(0.0334161 0.14427 0)
(0.0374825 0.144045 0)
(0.0408638 0.139964 0)
(0.043557 0.132456 0)
(0.0455251 0.122891 0)
(0.046957 0.112308 0)
(0.0480018 0.101443 0)
(0.0487802 0.0907721 0)
(0.0493842 0.0805675 0)
(0.0498774 0.0709474 0)
(0.0502965 0.0619216 0)
(0.0506548 0.0534313 0)
(0.0509467 0.0453794 0)
(0.0511529 0.0376534 0)
(0.0512448 0.0301397 0)
(0.0511887 0.0227315 0)
(0.0509482 0.0153335 0)
(0.0504862 0.00786274 0)
(0.0497687 0.000247388 0)
(0.0487625 -0.00757125 0)
(0.0474356 -0.0156375 0)
(0.0457598 -0.0239888 0)
(0.0437161 -0.0326535 0)
(0.0412913 -0.0416463 0)
(0.0384811 -0.0509712 0)
(0.0352974 -0.0606277 0)
(0.0317649 -0.070623 0)
(0.0279165 -0.0809912 0)
(0.0237872 -0.0918583 0)
(0.0193498 -0.103738 0)
(0.014395 -0.118328 0)
(0.00856428 -0.139943 0)
(0.00149581 -0.174913 0)
(-0.00287657 -0.225657 0)
(-0.0101931 -0.28456 0)
(-0.000461787 -0.31443 0)
(0.00634781 0.0391447 0)
(0.0172417 0.0961024 0)
(0.0251806 0.121725 0)
(0.0317017 0.134201 0)
(0.0372458 0.139522 0)
(0.0419995 0.139977 0)
(0.046068 0.1366 0)
(0.0494134 0.129879 0)
(0.0519899 0.120962 0)
(0.0539588 0.110873 0)
(0.0554686 0.100364 0)
(0.0566405 0.0899382 0)
(0.057574 0.0798977 0)
(0.0583404 0.0703888 0)
(0.058984 0.0614471 0)
(0.0595242 0.0530357 0)
(0.05996 0.0450748 0)
(0.0602747 0.0374639 0)
(0.0604414 0.0300969 0)
(0.0604262 0.0228716 0)
(0.0601917 0.0156942 0)
(0.0596983 0.00848208 0)
(0.0589097 0.0011612 0)
(0.0577881 -0.00632939 0)
(0.0562961 -0.0140345 0)
(0.0544008 -0.0219972 0)
(0.0520767 -0.0302543 0)
(0.0493024 -0.0388284 0)
(0.0460667 -0.0477361 0)
(0.0423773 -0.0569924 0)
(0.0382584 -0.0666182 0)
(0.0337476 -0.0766551 0)
(0.028898 -0.0872005 0)
(0.0237162 -0.098664 0)
(0.0180352 -0.112594 0)
(0.0114426 -0.133384 0)
(0.00340929 -0.168278 0)
(-0.00120694 -0.220626 0)
(-0.0104483 -0.283183 0)
(0.000587428 -0.320966 0)
(0.00532512 0.0275385 0)
(0.0174886 0.0854508 0)
(0.0264852 0.113676 0)
(0.0339833 0.127766 0)
(0.0403442 0.134049 0)
(0.0458329 0.135206 0)
(0.0506346 0.132532 0)
(0.054727 0.126608 0)
(0.0580378 0.1184 0)
(0.0606716 0.108879 0)
(0.0627711 0.0988033 0)
(0.0644551 0.0886973 0)
(0.0658226 0.0788885 0)
(0.0669498 0.0695508 0)
(0.0678878 0.0607463 0)
(0.0686633 0.0524608 0)
(0.0692821 0.0446328 0)
(0.0697331 0.0371754 0)
(0.0699933 0.0299921 0)
(0.0700309 0.0229862 0)
(0.069809 0.0160671 0)
(0.0692879 0.00915338 0)
(0.0684285 0.00216868 0)
(0.0671904 -0.00494533 0)
(0.0655298 -0.0122361 0)
(0.0634112 -0.0197524 0)
(0.060802 -0.0275364 0)
(0.0576719 -0.0356183 0)
(0.0540027 -0.044029 0)
(0.0497964 -0.0528021 0)
(0.0450749 -0.0619763 0)
(0.0398785 -0.0716065 0)
(0.0342647 -0.0817798 0)
(0.0282854 -0.0928135 0)
(0.0218154 -0.106099 0)
(0.0143973 -0.126057 0)
(0.00541978 -0.160807 0)
(0.000705649 -0.21478 0)
(-0.0107616 -0.281465 0)
(0.00181413 -0.327325 0)
(0.00314824 0.0167031 0)
(0.0165649 0.0740743 0)
(0.0267183 0.104525 0)
(0.0352521 0.120394 0)
(0.0425055 0.127778 0)
(0.04879 0.129663 0)
(0.0543906 0.127668 0)
(0.0593285 0.122518 0)
(0.0635081 0.115066 0)
(0.0669634 0.106189 0)
(0.0698007 0.0966305 0)
(0.0721334 0.0869293 0)
(0.0740579 0.0774354 0)
(0.0756526 0.0683469 0)
(0.0769739 0.0597501 0)
(0.0780561 0.0516533 0)
(0.0789131 0.044014 0)
(0.0795417 0.0367603 0)
(0.0799248 0.0298066 0)
(0.0800352 0.0230636 0)
(0.0798389 0.0164461 0)
(0.0792977 0.00987335 0)
(0.0783706 0.00327072 0)
(0.0770155 -0.00341576 0)
(0.0751842 -0.0102381 0)
(0.0728385 -0.0172493 0)