/*--------------------------------*- C++ -*----------------------------------*\
  =========                 |
  \\      /  F ield         | OpenFOAM: The Open Source CFD Toolbox
   \\    /   O peration     | Website:  https://openfoam.org
    \\  /    A nd           | Version:  13
     \\/     M anipulation  |
\*---------------------------------------------------------------------------*/
FoamFile
{
    format      ascii;
    class       volScalarField;
    location    "6.6";
    object      epsilon;
}
// * * * * * * * * * * * * * * * * * * * * * * * * * * * * * * * * * * * * * //

dimensions      [0 2 -3 0 0 0 0];

internalField   nonuniform List<scalar> 
6400
(
2.65655e-05
0.000136468
0.000331243
0.000534335
0.000688166
0.00077487
0.000806447
0.000809275
0.00081354
0.000842873
0.000915195
0.00105864
0.00128697
0.00160514
0.00199753
0.00244254
0.00291771
0.00341266
0.0039059
0.0043834
0.00486059
0.00537731
0.00598791
0.00672907
0.00757601
0.0084415
0.00929947
0.0101493
0.0110159
0.0119241
0.0128644
0.0138024
0.0147232
0.0156265
0.0165378
0.0174618
0.0184193
0.0194164
0.0204662
0.0215725
0.0227433
0.0239874
0.0253124
0.0267371
0.0282677
0.0299539
0.0318836
0.0342549
0.036753
0.0392663
0.0417526
0.044172
0.0464571
0.0485415
0.0503506
0.0517943
0.0525842
0.0529072
0.0529212
0.052002
0.0503016
0.0478136
0.0445712
0.0406764
0.0362439
0.0314713
0.0266015
0.021831
0.0173394
0.0133112
0.0100526
0.0073169
0.00510518
0.0034105
0.00219026
0.00135902
0.000817011
0.000468199
0.000220999
4.703e-05
0.000128632
0.000128346
0.000210046
0.000304925
0.000376464
0.000419923
0.000441303
0.000450842
0.000461386
0.000485831
0.000537992
0.000637795
0.000801322
0.00104112
0.00136125
0.00176302
0.00224835
0.00282343
0.0034939
0.00426845
0.00515468
0.0061878
0.00741848
0.00887439
0.0105483
0.0124589
0.0144517
0.0163817
0.0181444
0.019649
0.0207909
0.0216779
0.0222814
0.0226963
0.0229598
0.0231294
0.0232462
0.0233438
0.0234463
0.0235728
0.0237456
0.0239709
0.0242619
0.0245774
0.024948
0.0253984
0.0259318
0.0265387
0.0272283
0.0279507
0.0287178
0.0294797
0.0302226
0.0308976
0.031465
0.0318003
0.0319193
0.0318391
0.0314752
0.030717
0.0295864
0.0280642
0.0261382
0.0238852
0.0213852
0.0187393
0.0160642
0.0134772
0.0110677
0.00892252
0.00711308
0.00556265
0.00423474
0.00310683
0.00217602
0.0014265
0.000870255
0.000488507
0.000253614
0.00024868
0.000281717
0.000233679
0.000313021
0.000394483
0.000443713
0.000468433
0.000481548
0.000496333
0.00052698
0.000590715
0.000711042
0.000915503
0.00123115
0.00167778
0.00226773
0.00301348
0.00392724
0.00502334
0.00631156
0.00779821
0.00948884
0.0113532
0.0133091
0.0152113
0.0168818
0.0180915
0.0188194
0.0192228
0.019423
0.0195598
0.0196463
0.019588
0.0192861
0.0190017
0.0186992
0.0184349
0.0182187
0.0180842
0.0180272
0.0180189
0.0181215
0.0183036
0.0185743
0.0189699
0.0194729
0.0200677
0.0207432
0.0214948
0.022321
0.0232047
0.0241379
0.0250969
0.026061
0.026995
0.0278605
0.0286083
0.0291811
0.0294537
0.0295052
0.0292033
0.0284683
0.0272875
0.0256249
0.0235937
0.0212687
0.0187502
0.0161644
0.0136259
0.0112412
0.00909401
0.00723869
0.00567711
0.00438655
0.0033274
0.00246229
0.00176751
0.00120086
0.000751392
0.000465522
0.000664172
0.000489854
0.000404072
0.000495364
0.000574325
0.000615023
0.000635483
0.0006553
0.000694515
0.000775066
0.000927498
0.00119049
0.00160577
0.00220845
0.00302035
0.00405195
0.00530764
0.00678783
0.00847336
0.0103122
0.0122134
0.0140461
0.0156673
0.0169279
0.0176211
0.0179145
0.0179874
0.0179514
0.0176166
0.0170873
0.0165056
0.0158506
0.0153386
0.0149453
0.0146125
0.0143595
0.0142001
0.0141282
0.0141116
0.0141891
0.0143498
0.0145953
0.0149201
0.0153287
0.0158213
0.0163941
0.0170473
0.017782
0.018597
0.0194913
0.0204601
0.0214964
0.0225873
0.0237154
0.0248532
0.0259655
0.0270052
0.0279131
0.0286148
0.0289575
0.0290381
0.0286906
0.0279084
0.0267069
0.0248983
0.0226622
0.020114
0.0173955
0.0146551
0.0120387
0.00966575
0.00761498
0.00591369
0.00454518
0.0034638
0.00261491
0.00194847
0.00141192
0.00097525
0.000696842
0.00110356
0.000786771
0.000641772
0.000733269
0.000810276
0.000853324
0.000886229
0.000935557
0.00103147
0.00121123
0.00152253
0.0020195
0.00275059
0.00374486
0.0050071
0.00652161
0.00825284
0.0101367
0.0120659
0.013884
0.0154246
0.0164739
0.0169486
0.0170887
0.0170483
0.0166507
0.0159543
0.0150966
0.0142977
0.0136424
0.0130423
0.012539
0.0121506
0.011846
0.0116183
0.0114737
0.0114059
0.0113855
0.01142
0.0115329
0.0116982
0.0119253
0.0122105
0.0125574
0.0129673
0.0134438
0.013991
0.0146138
0.0153171
0.0161056
0.0169832
0.017952
0.0190095
0.0201498
0.0213592
0.0226175
0.0238926
0.0251307
0.0262718
0.0272386
0.0278527
0.028088
0.0279521
0.0272316
0.026084
0.0241888
0.0217763
0.019014
0.0160803
0.0131688
0.0104645
0.00810734
0.00616799
0.00464542
0.00348699
0.0026142
0.00195723
0.00145539
0.00106843
0.000848931
0.0014052
0.00121149
0.000955259
0.0010314
0.00111057
0.00117014
0.00123649
0.00134544
0.00154162
0.00188042
0.00242561
0.00323717
0.00435216
0.0057706
0.00745322
0.00932446
0.0112711
0.0131402
0.0147498
0.0158505
0.0163347
0.0164535
0.0163361
0.0158105
0.0148692
0.0138811
0.0129954
0.0121949
0.0115177
0.010951
0.0104705
0.0100842
0.00977689
0.00953435
0.00935081
0.00921978
0.0091391
0.00910198
0.00909259
0.0091276
0.00920121
0.00931195
0.00946218
0.00965273
0.00988792
0.010172
0.010512
0.0109155
0.0113928
0.0119552
0.0126151
0.013386
0.0142795
0.0153051
0.0164669
0.0177596
0.0191705
0.0206718
0.0222135
0.0237377
0.0251362
0.0262929
0.0269072
0.0270891
0.0266514
0.0257138
0.0237484
0.0211677
0.0181516
0.0149387
0.0118003
0.00898278
0.00664584
0.00483893
0.00351782
0.00257498
0.00190719
0.00142258
0.00106627
0.000908936
0.00151373
0.00180228
0.00135082
0.00140142
0.00149279
0.00158682
0.00171201
0.00191676
0.00226251
0.0028201
0.00365825
0.00482246
0.0063133
0.00807568
0.0100008
0.0119333
0.0136819
0.0150454
0.0157206
0.0159241
0.0158697
0.0153515
0.0143453
0.0132351
0.0122322
0.0113199
0.0105433
0.00987412
0.00931403
0.00884057
0.00844274
0.00811205
0.00783513
0.00760418
0.00741314
0.0072569
0.00713187
0.00703424
0.0069622
0.00692218
0.00690523
0.00690283
0.0069341
0.00699056
0.00707952
0.00720102
0.00736222
0.00756824
0.00782809
0.00815317
0.00855796
0.00906045
0.00968427
0.0104543
0.0113967
0.0125269
0.013871
0.0154377
0.0171989
0.0191012
0.0210961
0.0230556
0.0248322
0.0261112
0.0266607
0.0266952
0.0258878
0.0238781
0.0210543
0.0176643
0.0140521
0.0106098
0.00765195
0.00534457
0.00369185
0.00258284
0.00183931
0.00134843
0.00102892
0.000901081
0.00146921
0.00259494
0.00183323
0.00185665
0.00197406
0.00212394
0.00233616
0.00267391
0.003213
0.00402904
0.00517599
0.00666038
0.00842316
0.0103375
0.0122213
0.0138617
0.0149506
0.0153989
0.0154777
0.0151355
0.0142517
0.0130555
0.0119189
0.0108817
0.00998795
0.00921407
0.00855946
0.0079979
0.00752054
0.00710994
0.00675786
0.00645463
0.00619254
0.00596657
0.00577249
0.0056072
0.00546773
0.00535137
0.00525719
0.00518442
0.00513095
0.00510276
0.00509233
0.00509504
0.00513056
0.0051863
0.00527119
0.00538641
0.00553822
0.00573098
0.00597238
0.00627242
0.00664507
0.00710985
0.00769678
0.00845597
0.00942872
0.0106778
0.0122503
0.0141301
0.0163298
0.0187579
0.0212818
0.0237282
0.0258016
0.026907
0.0272588
0.0266984
0.0245807
0.0213906
0.0174677
0.0133442
0.00954668
0.00645428
0.00420995
0.00274361
0.00184667
0.00128911
0.000966608
0.00086587
0.00136532
0.00361516
0.00240596
0.00240659
0.00257093
0.00279652
0.00312184
0.00362191
0.00437807
0.00545355
0.00686533
0.00856071
0.0104094
0.0122157
0.0137486
0.014643
0.0149543
0.01497
0.0143869
0.013261
0.0120097
0.0108362
0.0098021
0.0089062
0.00814446
0.00749128
0.00693351
0.00645216
0.00603801
0.00567953
0.00537052
0.00510404
0.0048755
0.00468094
0.00451659
0.00437939
0.00426694
0.00417709
0.00410806
0.00405805
0.00402899
0.00401654
0.00401421
0.00403247
0.00406876
0.0041224
0.00419562
0.00428936
0.00440634
0.00454929
0.0047225
0.00493125
0.00518275
0.00548691
0.00585696
0.00631314
0.00688447
0.0076169
0.008588
0.00994463
0.011755
0.0140678
0.016822
0.0198778
0.0230086
0.0258589
0.0276351
0.0283098
0.0280094
0.0257137
0.0219729
0.0173796
0.0126701
0.00852022
0.00534978
0.00323473
0.00198595
0.00129585
0.000920162
0.000810695
0.00124979
0.00487378
0.00307631
0.00306374
0.0032894
0.00360872
0.00406513
0.00473916
0.0057042
0.00699239
0.00856625
0.0103055
0.0120159
0.0134606
0.0142625
0.0145238
0.0144211
0.0136709
0.012433
0.0111688
0.00997043
0.00892926
0.00803737
0.00727708
0.00662991
0.00607494
0.0055996
0.00519148
0.00484319
0.00454687
0.00429721
0.00408852
0.00391638
0.00377631
0.00366448
0.00357727
0.00351156
0.00346459
0.0034358
0.00342259
0.00341906
0.00342821
0.00345117
0.00348646
0.0035342
0.00359475
0.00366885
0.00375766
0.00386273
0.00398596
0.00412984
0.00429754
0.00449325
0.00472262
0.0049935
0.00531466
0.00569979
0.0061709
0.00676417
0.00753932
0.0085945
0.0101213
0.0123423
0.0152721
0.0187867
0.0225924
0.0262909
0.0287612
0.0297402
0.0296125
0.0270285
0.0225653
0.0171885
0.0118782
0.00744947
0.00431035
0.00240653
0.00140153
0.000922691
0.000764349
0.00115773
0.00638827
0.00385842
0.00383321
0.00412839
0.00455141
0.00514236
0.00597731
0.00710694
0.00851762
0.0101106
0.011706
0.0130718
0.0138339
0.0140818
0.0139068
0.0130692
0.0118025
0.0104956
0.00929136
0.00823432
0.00734105
0.00658238
0.00593891
0.00539219
0.00492764
0.00453548
0.00420671
0.00393439
0.00371135
0.00353146
0.0033885
0.00327703
0.00319192
0.00312879
0.00308393
0.00305489
0.00304074
0.0030358
0.00303785
0.00305275
0.00307576
0.00310878
0.0031511
0.00320373
0.00326727
0.00334287
0.00343185
0.00353558
0.00365565
0.00379374
0.00395169
0.00413155
0.0043357
0.00456715
0.00483031
0.00513203
0.00548347
0.00590345
0.00641847
0.00707397
0.00795751
0.00922308
0.0111727
0.0141252
0.0179826
0.0224608
0.02705
0.0302149
0.0314653
0.0313854
0.0282712
0.022908
0.0166826
0.0108366
0.00628781
0.00333066
0.00172416
0.000990794
0.000756692
0.00113356
0.00824059
0.0047802
0.00471208
0.00507568
0.00560084
0.00631175
0.00726855
0.00848738
0.00990263
0.0113607
0.0126445
0.0133911
0.0136396
0.0134466
0.0125703
0.0113291
0.00999381
0.00876541
0.00769712
0.00679189
0.00603322
0.00539307
0.00485541
0.0044054
0.00403228
0.00372693
0.00348051
0.00328486
0.00313185
0.0030142
0.00292515
0.00285898
0.00281088
0.00277705
0.00275463
0.00274343
0.00273908
0.0027387
0.00274784
0.00276398
0.00278733
0.00281884
0.00285905
0.00290915
0.0029702
0.00304361
0.00313087
0.00323357
0.00335344
0.00349223
0.00365173
0.00383363
0.00403947
0.00427055
0.00452799
0.00481314
0.00512855
0.00547992
0.00587994
0.00635385
0.00694655
0.0077251
0.00883529
0.0105402
0.0133734
0.0175027
0.0226297
0.0281346
0.0319434
0.0333972
0.0331475
0.0291545
0.0227328
0.0156564
0.00946005
0.00503582
0.00243956
0.00120931
0.000796254
0.0011826
0.0103054
0.00580323
0.00568029
0.00610716
0.00672113
0.00751971
0.00853782
0.00975142
0.011047
0.0122336
0.0129686
0.01322
0.0130403
0.0121953
0.0109864
0.0096469
0.00838522
0.00729426
0.00637443
0.00560768
0.00496975
0.00443929
0.00400303
0.00364815
0.00336418
0.00314066
0.00296747
0.00283519
0.00273517
0.00266007
0.00260376
0.00256149
0.00252968
0.00250586
0.00248844
0.00247659
0.00247062
0.00246855
0.00247156
0.00248189
0.00249903
0.00252408
0.00255805
0.00260214
0.00265763
0.00272598
0.00280879
0.00290783
0.00302504
0.0031625
0.00332236
0.00350679
0.00371776
0.00395688
0.00422508
0.00452246
0.00484824
0.00520132
0.005582
0.00599589
0.00646115
0.00702042
0.00774586
0.00876595
0.0103518
0.0130353
0.0173853
0.0231499
0.0295897
0.033891
0.0354142
0.0346533
0.0293874
0.0217454
0.0139557
0.00775061
0.00375288
0.00170487
0.000941012
0.00137351
0.012522
0.00690411
0.0067131
0.00719078
0.00786889
0.00870875
0.00971485
0.0108249
0.0118902
0.012602
0.0128519
0.0127178
0.0119437
0.0107719
0.00943703
0.00814428
0.00701583
0.00607248
0.00529147
0.00464897
0.00412257
0.00369562
0.00335502
0.00308759
0.00288129
0.00272422
0.00260557
0.0025159
0.00244739
0.00239393
0.00235099
0.00231544
0.00228529
0.00225944
0.00223746
0.00221937
0.00220547
0.00219753
0.00219456
0.0021957
0.00220611
0.00222422
0.0022515
0.00228902
0.002338
0.00239984
0.00247614
0.00256872
0.00267966
0.00281131
0.00296627
0.00314733
0.0033573
0.00359884
0.00387409
0.00418418
0.00452876
0.0049056
0.00531067
0.00573953
0.00619099
0.00667524
0.00722862
0.00793284
0.00891012
0.0104401
0.0130868
0.0176767
0.0241177
0.0314965
0.0359669
0.0373189
0.0355498
0.0286009
0.0196815
0.0115778
0.00582071
0.00261409
0.00128152
0.00181617
0.0148185
0.00805477
0.00778051
0.00828932
0.00899779
0.00982389
0.0107409
0.0116555
0.012317
0.0125583
0.0124842
0.0117973
0.0106841
0.00935768
0.00803502
0.00685867
0.00587663
0.00507232
0.00441704
0.00388763
0.0034644
0.00313175
0.002875
0.0026797
0.00253258
0.00242156
0.00233658
0.00226959
0.00221463
0.00216751
0.00212559
0.00208738
0.00205222
0.00202008
0.00199126
0.00196629
0.00194581
0.00193055
0.00192248
0.00191962
0.00192265
0.00193584
0.00195741
0.00198908
0.00203169
0.00208658
0.00215521
0.00223936
0.00234113
0.002463
0.00260783
0.00277891
0.00297984
0.0032144
0.00348625
0.00379847
0.00415285
0.00454903
0.00498371
0.00545026
0.00593968
0.00644437
0.00696699
0.00753789
0.00824318
0.00921619
0.0107543
0.0134962
0.0184506
0.0256798
0.0339195
0.038009
0.038951
0.0353638
0.0263482
0.0165263
0.008729
0.00399981
0.00187515
0.00249905
0.0171229
0.00922448
0.00884965
0.00936384
0.010063
0.0108172
0.01157
0.0121531
0.0123811
0.0123306
0.011753
0.0107127
0.00940828
0.00805495
0.00682204
0.00578473
0.00494244
0.00426435
0.00372263
0.00329548
0.00296397
0.00271134
0.0025213
0.00237881
0.00227087
0.00218672
0.00211821
0.00205951
0.00200681
0.00195789
0.00191169
0.00186794
0.00182686
0.00178895
0.00175483
0.00172513
0.00170048
0.00168145
0.00166966
0.00166455
0.00166379
0.00167295
0.00169045
0.0017172
0.0017541
0.00180222
0.00186291
0.0019378
0.00202889
0.00213861
0.00226989
0.00242622
0.00261168
0.00283085
0.00308871
0.00339024
0.00373983
0.00414033
0.00459177
0.00508999
0.00562571
0.00618503
0.00675348
0.00732612
0.00792907
0.00865747
0.00965706
0.0112699
0.0142653
0.0198357
0.0281406
0.0365197
0.0399851
0.0401623
0.0334048
0.0225481
0.0125555
0.00590937
0.00272079
0.00336459
0.0193931
0.0103828
0.00988757
0.0103769
0.0110252
0.0116524
0.0121493
0.0123567
0.0122845
0.0118178
0.0108523
0.00958466
0.00820716
0.00690908
0.00579977
0.00490058
0.00418542
0.00362062
0.00318013
0.00284221
0.00258718
0.00239693
0.00225477
0.00214647
0.00206071
0.00198905
0.00192577
0.00186732
0.00181183
0.00175858
0.00170757
0.00165923
0.00161415
0.00157299
0.00153633
0.0015047
0.00147856
0.0014583
0.00144479
0.00143842
0.00143668
0.00144273
0.00145739
0.00148016
0.00151211
0.00155406
0.00160721
0.00167299
0.00175324
0.0018502
0.00196668
0.0021061
0.00227262
0.0024712
0.00270757
0.00298809
0.00331938
0.00370747
0.00415666
0.00466764
0.00523549
0.00584796
0.00648552
0.00712576
0.00775563
0.00839959
0.00916816
0.0102224
0.0119856
0.0153939
0.0218059
0.0314836
0.0395278
0.0420837
0.0398779
0.0294636
0.0174154
0.00842311
0.00384425
0.00435853
0.0215787
0.0114997
0.0108625
0.0112956
0.0118548
0.0122849
0.0124616
0.0123744
0.011986
0.0111048
0.00988321
0.00849394
0.0071281
0.00592959
0.00495175
0.00418034
0.00357872
0.00311412
0.00276106
0.00249694
0.00230123
0.00215557
0.00204433
0.00195533
0.00187976
0.00181179
0.00174803
0.00168682
0.00162768
0.00157082
0.00151678
0.00146623
0.00141978
0.00137798
0.00134124
0.00130989
0.00128417
0.00126427
0.00125063
0.00124404
0.00124199
0.00124618
0.00125867
0.00127824
0.00130596
0.00134249
0.00138885
0.00144631
0.00151646
0.00160132
0.00170343
0.00182597
0.00197289
0.00214909
0.00236049
0.00261411
0.00291794
0.00328048
0.00370982
0.00421196
0.00478845
0.00543335
0.00613063
0.00685385
0.0075713
0.00826219
0.00895468
0.00977434
0.0109212
0.0129614
0.0170816
0.0246349
0.0357619
0.042343
0.043574
0.0367506
0.0234117
0.0116961
0.00529459
0.00543473
0.0235978
0.0125461
0.0117479
0.0120968
0.0125203
0.012705
0.0126427
0.0122494
0.0114668
0.0103045
0.0089163
0.0074885
0.00618782
0.00510709
0.00425552
0.00359869
0.00309698
0.00271872
0.00243796
0.00223137
0.00207844
0.00196197
0.00186855
0.00178868
0.00171626
0.00164781
0.00158179
0.00151786
0.00145635
0.00139788
0.00134314
0.00129273
0.0012471
0.00120659
0.00117141
0.00114167
0.00111742
0.00109872
0.00108575
0.0010794
0.00107733
0.00108039
0.00109111
0.00110806
0.00113218
0.00116404
0.00120451
0.00125466
0.00131589
0.00138996
0.00147909
0.00158612
0.00171464
0.00186918
0.00205544
0.00228044
0.00255268
0.00288202
0.00327922
0.00375477
0.00431672
0.00496739
0.00569916
0.0064906
0.00730581
0.00810186
0.00885255
0.00959923
0.0104781
0.0117863
0.0143023
0.019606
0.0289736
0.0402838
0.0447889
0.0432498
0.0304402
0.015902
0.00711448
0.00655598
0.025376
0.0134948
0.0125229
0.0127616
0.0129884
0.0129868
0.0126279
0.0119455
0.0108453
0.00947616
0.00799804
0.0065911
0.00538464
0.00442416
0.00368806
0.00313209
0.00271653
0.00241015
0.00218641
0.00202211
0.00189793
0.00179892
0.00171446
0.00163784
0.00156533
0.0014953
0.00142747
0.00136224
0.00130027
0.00124225
0.00118875
0.00114018
0.00109678
0.00105867
0.00102586
0.000998305
0.000975949
0.000958729
0.000946673
0.000940712
0.000938692
0.000940983
0.000950197
0.000964934
0.00098599
0.00101385
0.00104927
0.00109317
0.00114675
0.00121151
0.0012894
0.00138288
0.0014951
0.00163011
0.00179311
0.0019907
0.00223118
0.00252478
0.00288359
0.00332105
0.00385047
0.00448218
0.00521902
0.00605037
0.00694669
0.00785871
0.0087292
0.00952985
0.0103318
0.0112932
0.0128649
0.0161631
0.0231125
0.0349985
0.0445966
0.0466778
0.0380298
0.0211958
0.00935069
0.00773091
0.0268717
0.0143252
0.0131668
0.0132617
0.0133369
0.0131154
0.0125086
0.0115022
0.0101703
0.00866257
0.00715514
0.00580753
0.00470736
0.00386114
0.0032278
0.00275913
0.00241602
0.00216729
0.0019865
0.00185158
0.00174545
0.00165592
0.00157525
0.00149915
0.00142575
0.0013547
0.00128639
0.00122153
0.00116082
0.00110479
0.00105381
0.00100806
0.000967568
0.000932282
0.000902077
0.000876813
0.000856351
0.00084058
0.00082941
0.000823803
0.000821842
0.000823492
0.000831386
0.000844217
0.000862639
0.00088709
0.000918212
0.000956808
0.0010039
0.0010608
0.00112916
0.00121111
0.00130937
0.00142748
0.00157004
0.00174298
0.00195403
0.00221301
0.00253224
0.00292651
0.00341248
0.00400674
0.00472203
0.00556087
0.00650737
0.0075197
0.00853001
0.0094646
0.0103024
0.011148
0.0122426
0.0142943
0.0189646
0.028307
0.0418678
0.0477822
0.0450816
0.0276571
0.0120742
0.0089373
0.0280634
0.0150321
0.0136735
0.0136187
0.0135426
0.0130937
0.0122459
0.0109891
0.00948079
0.0078922
0.00639979
0.00513352
0.00414093
0.00339901
0.00285543
0.00246092
0.00217705
0.00197295
0.00182315
0.00170765
0.00161212
0.00152726
0.00144785
0.00137153
0.00129773
0.0012268
0.00115944
0.00109636
0.0010381
0.000984992
0.000937166
0.000894606
0.000857188
0.000824729
0.000797027
0.000773883
0.000755124
0.000740616
0.000730254
0.000724874
0.000722933
0.000723993
0.000730709
0.000741876
0.000758026
0.000779558
0.000807027
0.000841135
0.00088277
0.000933054
0.000993415
0.00106568
0.00115219
0.00125601
0.00138111
0.00153273
0.00171778
0.0019453
0.00222705
0.00257791
0.00301603
0.00356197
0.00423612
0.00505339
0.00601432
0.00709365
0.00823021
0.00932972
0.0103006
0.0111389
0.0120498
0.0134042
0.0163653
0.0232806
0.0362033
0.0475769
0.0495912
0.0352745
0.0154781
0.0102889
0.0289453
0.0156176
0.0140422
0.013843
0.0136079
0.0129855
0.0118883
0.0104375
0.00880471
0.00718166
0.00573439
0.00455955
0.00366955
0.00302047
0.00255405
0.00222132
0.00198462
0.00181397
0.00168571
0.00158251
0.00149288
0.00141016
0.00133118
0.00125494
0.00118167
0.00111203
0.00104674
0.000986366
0.000931227
0.000881433
0.00083693
0.000797548
0.000763056
0.000733202
0.000707739
0.000686447
0.000669141
0.000655685
0.000645975
0.000640724
0.000638764
0.000639271
0.000644924
0.000654631
0.000668813
0.000687835
0.000712188
0.000742486
0.000779507
0.000824227
0.000877882
0.000942046
0.00101874
0.00111058
0.00122102
0.00135458
0.00151734
0.00171737
0.00196544
0.00227572
0.0026664
0.00315982
0.00378128
0.00455536
0.00549823
0.0066053
0.00783571
0.00910056
0.0102737
0.0112525
0.0120391
0.013073
0.0149606
0.0196371
0.0299342
0.0453034
0.0514676
0.0436107
0.019882
0.0120516
0.0295316
0.0160793
0.0142853
0.0139427
0.0135662
0.0127591
0.0114745
0.0098739
0.00816124
0.00653892
0.00515533
0.00407394
0.00327829
0.00271039
0.00230935
0.0020271
0.00182706
0.00168082
0.00156711
0.00147144
0.00138503
0.00130341
0.00122491
0.00114946
0.00107764
0.00101019
0.000947694
0.0008905
0.000838719
0.000792277
0.000750973
0.00071454
0.000682687
0.000655127
0.000631597
0.000611875
0.000595779
0.000583177
0.000573975
0.000568769
0.000566755
0.000566783
0.000571464
0.000579885
0.000592356
0.000609212
0.000630888
0.000657934
0.000691034
0.000731049
0.000779058
0.00083643
0.000904912
0.000986767
0.00108495
0.0012034
0.00134735
0.00152391
0.0017427
0.0020167
0.00236325
0.00280484
0.00336914
0.0040872
0.00498778
0.00608601
0.0073655
0.00875748
0.010131
0.0113228
0.0122651
0.0130161
0.0143386
0.0173531
0.0250613
0.0404399
0.051814
0.0512253
0.0255726
0.0144216
0.0298236
0.0164226
0.0144143
0.0139292
0.013439
0.0124592
0.011027
0.0093178
0.00756224
0.00596587
0.00465577
0.00366477
0.0029538
0.0024559
0.00210949
0.00186777
0.00169567
0.00156687
0.0014628
0.00137172
0.00128719
0.00120646
0.0011289
0.00105494
0.000985291
0.000920592
0.000861234
0.000807356
0.000758886
0.00071561
0.000677234
0.000643434
0.000613888
0.000588302
0.000566414
0.00054801
0.00053292
0.000521019
0.00051223
0.000506974
0.000504789
0.000504568
0.000508316
0.000515603
0.00052658
0.000541554
0.000560918
0.000585163
0.000614905
0.000650908
0.000694128
0.000745767
0.000807352
0.000880847
0.000968813
0.00107464
0.00120286
0.00135966
0.00155348
0.00179597
0.00210306
0.00249628
0.00300373
0.00365991
0.00450257
0.00556392
0.00685362
0.00833345
0.00989092
0.0113382
0.0124954
0.0132728
0.0141551
0.016144
0.0215553
0.0341812
0.0512425
0.0558479
0.033123
0.0173647
0.0298063
0.0166451
0.0144399
0.0138496
0.0132139
0.0121091
0.0105649
0.00878321
0.00701405
0.00546055
0.00422743
0.00332078
0.0026845
0.00224627
0.00194494
0.00173532
0.0015842
0.0014677
0.00136999
0.0012818
0.00119863
0.00111896
0.00104285
0.000970944
0.000903912
0.000842224
0.000786073
0.000735417
0.000690043
0.000649643
0.000613869
0.000582367
0.000554811
0.000530908
0.000510411
0.000493115
0.000478864
0.000467543
0.000459082
0.00045375
0.000451392
0.000450973
0.000453898
0.000460181
0.00046985
0.000483181
0.00050053
0.000522345
0.000549182
0.000581729
0.000620846
0.000667601
0.000723346
0.000789803
0.000869204
0.000964487
0.00107958
0.00121984
0.00139264
0.00160825
0.00188101
0.00223087
0.00268496
0.00327883
0.0040555
0.00505986
0.00632435
0.00784311
0.0095367
0.0112263
0.0126614
0.013624
0.0142369
0.0156144
0.0192089
0.0289194
0.0481084
0.0578247
0.0425739
0.0207583
0.0296465
0.0167865
0.0144025
0.0136776
0.0129292
0.0117259
0.0101026
0.00827936
0.00651903
0.00501872
0.00386175
0.00303189
0.00246063
0.00207275
0.00180825
0.00162374
0.00148823
0.00138038
0.00128693
0.00120075
0.00111883
0.00104054
0.000966297
0.00089679
0.000832575
0.000773932
0.000720874
0.000673215
0.000630647
0.000592801
0.0005593
0.000529786
0.000503936
0.000481471
0.000462156
0.000445803
0.000432264
0.000421434
0.000413248
0.000407843
0.000405327
0.000404731
0.000406948
0.000412342
0.000420863
0.000432751
0.000448334
0.00046802
0.000492319
0.000521861
0.000557424
0.000599975
0.000650723
0.000711199
0.000783372
0.000869809
0.000973932
0.00110038
0.00125558
0.0014485
0.00169188
0.00200379
0.00240961
0.00294418
0.00365282
0.00458891
0.00580364
0.00732264
0.00910673
0.0110042
0.0127316
0.0140283
0.0146721
0.0154739
0.0179101
0.0254041
0.0426901
0.0582085
0.0523957
0.0241942
0.0292925
0.0168661
0.0143014
0.0134408
0.0126001
0.0113242
0.00965086
0.00781184
0.00607681
0.00463499
0.00355054
0.00278932
0.00227405
0.00192831
0.00169363
0.00152864
0.00140469
0.00130297
0.0012125
0.00112792
0.00104734
0.000970699
0.000898592
0.000831651
0.000770269
0.000714552
0.000664368
0.000619424
0.000579348
0.00054374
0.000512213
0.000484413
0.000460031
0.000438801
0.000420503
0.000404963
0.000392041
0.00038164
0.000373696
0.000368239
0.00036558
0.000364826
0.000366443
0.000371053
0.000378561
0.000389178
0.000403202
0.000421011
0.000443076
0.000469976
0.000502429
0.000541318
0.000587743
0.000643084
0.000709096
0.000788053
0.000882956
0.000997854
0.00113833
0.00131223
0.00153075
0.00181002
0.00217328
0.00265352
0.00329602
0.00415873
0.00530641
0.0067921
0.00861954
0.0106872
0.0127367
0.0143563
0.0151608
0.015683
0.0172887
0.0224841
0.0372786
0.0573997
0.0604221
0.0268757
0.0287424
0.0168637
0.0141312
0.0131584
0.0122411
0.0109156
0.00921755
0.00738347
0.00568527
0.0043036
0.00328637
0.0025856
0.00211812
0.00180739
0.0015967
0.00144683
0.00133146
0.00123415
0.0011459
0.00106275
0.000983646
0.000908851
0.00083901
0.000774643
0.000715984
0.000662989
0.000615411
0.000572885
0.000534999
0.000501339
0.000471523
0.000445206
0.000422093
0.000401935
0.000384524
0.000369696
0.00035732
0.000347301
0.000339578
0.000334121
0.000331322
0.000330425
0.000331539
0.000335459
0.000342074
0.000351567
0.00036421
0.000380354
0.000400435
0.000424995
0.000454699
0.000490366
0.000533009
0.000583889
0.000644595
0.000717165
0.000804263
0.000909449
0.00103761
0.00119558
0.0013932
0.00164473
0.0019711
0.00240288
0.00298372
0.00377302
0.00484415
0.00627147
0.00809684
0.0102709
0.0125815
0.0146203
0.0157197
0.0162021
0.017102
0.0206669
0.0321618
0.0551456
0.0644539
0.0280754
0.0280259
0.0168309
0.0139247
0.0128445
0.0118645
0.0105095
0.00880782
0.00699503
0.00534128
0.00401884
0.00306263
0.00241445
0.00198744
0.00170561
0.00151414
0.00137595
0.001267
0.00117296
0.0010865
0.00100475
0.000927211
0.000854356
0.000786789
0.0007249
0.000668778
0.000618257
0.000573004
0.000532609
0.000496637
0.000464673
0.000436342
0.000411314
0.000389309
0.000370089
0.00035346
0.000339265
0.000327378
0.000317708
0.00031019
0.00030479
0.000301855
0.000300829
0.000301525
0.000304841
0.000310669
0.000319165
0.000330581
0.000345241
0.000363554
0.000386027
0.000413283
0.000446089
0.000485388
0.000532349
0.000588433
0.000655491
0.000735918
0.00083288
0.000950681
0.00109532
0.00127541
0.00150352
0.00179833
0.00218769
0.00271265
0.00343185
0.00442336
0.0057776
0.00757048
0.00980572
0.0123271
0.0147393
0.0162521
0.0168254
0.0172527
0.0197133
0.028759
0.0509958
0.0658938
0.0282702
0.0271834
0.0167538
0.0136918
0.012511
0.0114804
0.0101128
0.00842486
0.00664589
0.00504118
0.00377536
0.00287361
0.00227068
0.00187766
0.00161956
0.00144343
0.0013143
0.00121021
0.00111868
0.00103375
0.000953385
0.000877469
0.000806558
0.000741185
0.000681612
0.000627801
0.000579492
0.000536295
0.000497765
0.000463462
0.000432975
0.000405939
0.000382039
0.000361006
0.000342616
0.000326685
0.000313059
0.000301619
0.000292273
0.000284954
0.000279628
0.000276577
0.000275438
0.000275793
0.000278582
0.000283716
0.00029133
0.000301653
0.000314988
0.000331719
0.000352323
0.000377386
0.000407633
0.000443952
0.000487437
0.00053945
0.000601697
0.000676363
0.000766299
0.000875338
0.00100878
0.00117418
0.0013826
0.00165062
0.00200331
0.00247861
0.00313274
0.00404496
0.00531604
0.00704923
0.00929902
0.0119813
0.0147693
0.0167908
0.0175487
0.0178183
0.0192865
0.0261534
0.0463471
0.0659259
0.0277038
0.0262498
0.0166472
0.0134431
0.012168
0.0110972
0.00973078
0.00807029
0.0063345
0.00478119
0.00356831
0.00271442
0.00215001
0.0017853
0.00154657
0.00138267
0.00126058
0.00116023
0.0010707
0.000987154
0.000908155
0.000833852
0.00076482
0.000701503
0.000644045
0.000592307
0.000545956
0.00050456
0.00046766
0.000434811
0.000405612
0.000379709
0.0003568
0.000336628
0.000318978
0.000303673
0.000290565
0.000279535
0.000270492
0.000263367
0.000258121
0.000254972
0.000253731
0.000253818
0.00025615
0.000260671
0.000267503
0.000276853
0.000289006
0.00030432
0.000323245
0.000346338
0.000374286
0.00040793
0.000448307
0.000496699
0.000554703
0.000624338
0.000708211
0.000809776
0.000933755
0.00108682
0.00127874
0.00152415
0.00184548
0.00227736
0.00287269
0.00370955
0.00489456
0.00655166
0.00877815
0.0115545
0.0146323
0.017236
0.0182846
0.0184954
0.0191772
0.0242558
0.0420654
0.0637678
0.026789
0.0252549
0.016526
0.0131876
0.011824
0.0107215
0.00936709
0.00774466
0.00605876
0.00455741
0.00339333
0.00258101
0.00204895
0.0017076
0.00148456
0.00133039
0.0012138
0.00111637
0.00102851
0.000946226
0.00086856
0.000795815
0.000728548
0.000667113
0.000611554
0.00056165
0.000517017
0.000477193
0.000441712
0.000410131
0.000382058
0.000357149
0.000335115
0.000315707
0.000298719
0.000283978
0.000271341
0.000260688
0.000251929
0.000244992
0.000239833
0.000236598
0.000235235
0.000235146
0.000237076
0.000241057
0.000247196
0.000255683
0.000266779
0.000280824
0.000298243
0.000319563
0.000345438
0.000376672
0.000414254
0.000459402
0.000513626
0.000578823
0.000657407
0.000752538
0.000868472
0.00101115
0.00118922
0.00141561
0.00171031
0.0021046
0.0026475
0.00341416
0.00451331
0.00608418
0.00826246
0.0110899
0.0143692
0.0175315
0.0190698
0.0193599
0.0194829
0.0229465
0.0382427
0.060744
0.0256618
0.0242038
0.0164077
0.0129356
0.0114864
0.0103585
0.00902418
0.00744771
0.00581623
0.00436639
0.00324665
0.00246994
0.00196467
0.00164233
0.0014319
0.00128543
0.00117316
0.00107806
0.000991621
0.00091052
0.000834129
0.000762849
0.0006972
0.000637456
0.000583578
0.000535281
0.000492143
0.000453686
0.000419437
0.00038896
0.000361871
0.000337836
0.000316574
0.000297846
0.000281451
0.000267219
0.000255008
0.000244701
0.000236204
0.000229444
0.000224373
0.000221065
0.000219575
0.000219362
0.000220946
0.000224455
0.000229981
0.0002377
0.000247857
0.000260767
0.000276834
0.00029656
0.000320568
0.000349627
0.000384685
0.000426908
0.000477742
0.000538986
0.00061291
0.000702446
0.00081148
0.000945368
0.00111179
0.00132223
0.00159443
0.00195651
0.0024534
0.00315613
0.00417245
0.00565105
0.00775983
0.0106062
0.0140783
0.017658
0.0198211
0.0202754
0.0201381
0.0222776