/*--------------------------------*- C++ -*----------------------------------*\
  =========                 |
  \\      /  F ield         | OpenFOAM: The Open Source CFD Toolbox
   \\    /   O peration     | Website:  https://openfoam.org
    \\  /    A nd           | Version:  13
     \\/     M anipulation  |
\*---------------------------------------------------------------------------*/
FoamFile
{
    format      ascii;
    class       surfaceScalarField;
    location    "6.6";
    object      phi;
}
// * * * * * * * * * * * * * * * * * * * * * * * * * * * * * * * * * * * * * //

dimensions      [0 3 -1 0 0 0 0];

internalField   nonuniform List<scalar> 
12640
(
1.61057e-09
-1.61076e-09
1.49506e-08
-1.334e-08
3.8475e-08
-2.35244e-08
6.56943e-08
-2.72193e-08
9.03352e-08
-2.46409e-08
1.08826e-07
-1.84905e-08
1.1981e-07
-1.09842e-08
1.24141e-07
-4.33111e-09
1.24085e-07
5.6507e-11
1.2196e-07
2.12439e-09
1.19716e-07
2.24376e-09
1.18633e-07
1.08346e-09
1.19123e-07
-4.89975e-10
1.20886e-07
-1.76297e-09
1.23095e-07
-2.20899e-09
1.24827e-07
-1.73166e-09
1.25218e-07
-3.91008e-10
1.23745e-07
1.47227e-09
1.1961e-07
4.13535e-09
1.11918e-07
7.69203e-09
1.00081e-07
1.18373e-08
8.35328e-08
1.65478e-08
6.18226e-08
2.17103e-08
3.47639e-08
2.70587e-08
2.32821e-09
3.24357e-08
-3.56639e-08
3.79922e-08
-8.04521e-08
4.47882e-08
-1.34364e-07
5.39117e-08
-2.00275e-07
6.59113e-08
-2.80564e-07
8.02891e-08
-3.74402e-07
9.3838e-08
-4.78287e-07
1.03884e-07
-5.88795e-07
1.10508e-07
-7.02532e-07
1.13738e-07
-8.16532e-07
1.14e-07
-9.28188e-07
1.11655e-07
-1.03536e-06
1.0717e-07
-1.1363e-06
1.00944e-07
-1.22964e-06
9.33389e-08
-1.3143e-06
8.46609e-08
-1.38941e-06
7.51049e-08
-1.45426e-06
6.48483e-08
-1.50823e-06
5.39755e-08
-1.55078e-06
4.25454e-08
-1.58127e-06
3.04971e-08
-1.59923e-06
1.79614e-08
-1.60516e-06
5.92559e-09
-1.59699e-06
-8.17474e-09
-1.57543e-06
-2.15568e-08
-1.53951e-06
-3.59236e-08
-1.48919e-06
-5.03143e-08
-1.42432e-06
-6.48747e-08
-1.34513e-06
-7.91889e-08
-1.25206e-06
-9.30722e-08
-1.14574e-06
-1.0631e-07
-1.02705e-06
-1.18696e-07
-8.97322e-07
-1.29727e-07
-7.58324e-07
-1.38998e-07
-6.12372e-07
-1.45952e-07
-4.62306e-07
-1.50066e-07
-3.11562e-07
-1.50744e-07
-1.63958e-07
-1.47605e-07
-2.3497e-08
-1.40461e-07
1.06138e-07
-1.29635e-07
2.20534e-07
-1.14396e-07
3.15691e-07
-9.51567e-08
3.88239e-07
-7.25485e-08
4.35659e-07
-4.74199e-08
4.56557e-07
-2.08976e-08
4.4988e-07
6.67704e-09
4.18507e-07
3.13727e-08
3.64912e-07
5.35953e-08
2.95253e-07
6.9659e-08
2.18594e-07
7.66594e-08
1.4635e-07
7.22431e-08
8.57943e-08
6.05562e-08
4.07874e-08
4.50069e-08
1.20104e-08
2.87769e-08
-4.50692e-10
1.24611e-08
-4.50694e-10
1.03144e-08
-1.19251e-08
4.25341e-08
-4.55597e-08
8.73638e-08
-6.83541e-08
1.33314e-07
-7.31697e-08
1.728e-07
-6.41266e-08
2.01998e-07
-4.76888e-08
2.20247e-07
-2.92331e-08
2.28524e-07
-1.26075e-08
2.28617e-07
-3.6975e-11
2.22854e-07
7.88797e-09
2.13503e-07
1.15947e-08
2.02102e-07
1.24843e-08
1.89119e-07
1.24923e-08
1.74e-07
1.33566e-08
1.55682e-07
1.6109e-08
1.33013e-07
2.09366e-08
1.05079e-07
2.7543e-08
7.06847e-08
3.5867e-08
2.85968e-08
4.62232e-08
-2.26603e-08
5.89492e-08
-8.50646e-08
7.42416e-08
-1.60439e-07
9.19227e-08
-2.50021e-07
1.11292e-07
-3.54649e-07
1.31686e-07
-4.74885e-07
1.52671e-07
-6.105e-07
1.73608e-07
-7.59185e-07
1.93473e-07
-9.16834e-07
2.11561e-07
-1.07813e-06
2.27203e-07
-1.23717e-06
2.3933e-07
-1.39038e-06
2.47049e-07
-1.53675e-06
2.50259e-07
-1.67487e-06
2.48623e-07
-1.80346e-06
2.42329e-07
-1.92151e-06
2.32052e-07
-2.02837e-06
2.18511e-07
-2.12354e-06
2.02342e-07
-2.20674e-06
1.8414e-07
-2.27773e-06
1.64336e-07
-2.3364e-06
1.43327e-07
-2.38262e-06
1.21327e-07
-2.41629e-06
9.8515e-08
-2.43729e-06
7.49807e-08
-2.44557e-06
5.08246e-08
-2.44122e-06
2.6149e-08
-2.42305e-06
-2.13278e-10
-2.39196e-06
-2.51638e-08
-2.34795e-06
-5.21817e-08
-2.28993e-06
-7.95779e-08
-2.21836e-06
-1.07491e-07
-2.13297e-06
-1.3571e-07
-2.03377e-06
-1.64072e-07
-1.92071e-06
-1.92256e-07
-1.79392e-06
-2.19855e-07
-1.65391e-06
-2.46326e-07
-1.50174e-06
-2.70858e-07
-1.33871e-06
-2.92763e-07
-1.16656e-06
-3.11144e-07
-9.87638e-07
-3.24875e-07
-8.0459e-07
-3.33115e-07
-6.20414e-07
-3.3492e-07
-4.38533e-07
-3.29486e-07
-2.62596e-07
-3.16397e-07
-9.65997e-08
-2.95632e-07
5.61078e-08
-2.67104e-07
1.92201e-07
-2.3125e-07
3.08039e-07
-1.88387e-07
4.01055e-07
-1.40436e-07
4.68765e-07
-8.86078e-08
5.10482e-07
-3.504e-08
5.24699e-07
1.71556e-08
5.11751e-07
6.65434e-08
4.73619e-07
1.07791e-07
4.11914e-07
1.38365e-07
3.29668e-07
1.54489e-07
2.37132e-07
1.53092e-07
1.46751e-07
1.35387e-07
7.10029e-08
1.04525e-07
2.00738e-08
6.33903e-08
1.96231e-08
1.95438e-08
-3.14689e-08
6.51738e-08
-9.11897e-08
1.16793e-07
-1.19973e-07
1.62526e-07
-1.18903e-07
1.97812e-07
-9.94128e-08
2.21621e-07
-7.14984e-08
2.34594e-07
-4.22053e-08
2.37702e-07
-1.57156e-08
2.32097e-07
5.56725e-09
2.1923e-07
2.07551e-08
2.00529e-07
3.02961e-08
1.76573e-07
3.644e-08
1.4717e-07
4.18952e-08
1.11519e-07
4.90084e-08
6.84529e-08
5.91748e-08
1.65661e-08
7.28233e-08
-4.58524e-08
8.99615e-08
-1.20616e-07
1.10631e-07
-2.09266e-07
1.34873e-07
-3.13044e-07
1.62727e-07
-4.32476e-07
1.93674e-07
-5.6723e-07
2.26677e-07
-7.16253e-07
2.60315e-07
-8.77164e-07
2.92597e-07
-1.0466e-06
3.22109e-07
-1.22035e-06
3.47355e-07
-1.39414e-06
3.67259e-07
-1.56399e-06
3.81412e-07
-1.72629e-06
3.89506e-07
-1.87842e-06
3.91465e-07
-2.01888e-06
3.87506e-07
-2.14664e-06
3.78018e-07
-2.26167e-06
3.63659e-07
-2.36442e-06
3.4508e-07
-2.4552e-06
3.22824e-07
-2.53436e-06
2.97675e-07
-2.60222e-06
2.70201e-07
-2.65904e-06
2.40959e-07
-2.70499e-06
2.10284e-07
-2.74019e-06
1.78533e-07
-2.76473e-06
1.45866e-07
-2.77859e-06
1.12374e-07
-2.78173e-06
7.81211e-08
-2.774e-06
4.30928e-08
-2.75504e-06
7.19395e-09
-2.72557e-06
-2.96833e-08
-2.68363e-06
-6.71112e-08
-2.63012e-06
-1.05692e-07
-2.56449e-06
-1.45205e-07
-2.48642e-06
-1.85555e-07
-2.39569e-06
-2.26449e-07
-2.29213e-06
-2.67632e-07
-2.17568e-06
-3.087e-07
-2.04647e-06
-3.49069e-07
-1.90486e-06
-3.8793e-07
-1.75152e-06
-4.24204e-07
-1.58746e-06
-4.56819e-07
-1.41407e-06
-4.84531e-07
-1.23321e-06
-5.0574e-07
-1.04735e-06
-5.18972e-07
-8.59273e-07
-5.23e-07
-6.72252e-07
-5.16506e-07
-4.89917e-07
-4.98732e-07
-3.15979e-07
-4.69571e-07
-1.53742e-07
-4.29341e-07
-6.42476e-09
-3.78567e-07
1.23614e-07
-3.18426e-07
2.33459e-07
-2.50281e-07
3.21584e-07
-1.76733e-07
3.8715e-07
-1.00605e-07
4.29179e-07
-2.48734e-08
4.47499e-07
4.82231e-08
4.40784e-07
1.14506e-07
4.10605e-07
1.68543e-07
3.58024e-07
2.0707e-07
2.86249e-07
2.24868e-07
2.01847e-07
2.19789e-07
1.15383e-07
1.90989e-07
4.05764e-08
1.38197e-07
6.01995e-08
2.72333e-08
-5.87023e-08
7.94314e-08
-1.43388e-07
1.28973e-07
-1.69515e-07
1.67131e-07
-1.5706e-07
1.92508e-07
-1.2479e-07
2.06253e-07
-8.52439e-08
2.09557e-07
-4.55092e-08
2.03538e-07
-9.69637e-09
1.88987e-07
2.01182e-08
1.66402e-07
4.33402e-08
1.35545e-07
6.11526e-08
9.59229e-08
7.60626e-08
4.67661e-08
9.1052e-08
-1.28621e-08
1.08637e-07
-8.40484e-08
1.30361e-07
-1.68126e-07
1.569e-07
-2.66561e-07
1.88397e-07
-3.8065e-07
2.24719e-07
-5.10988e-07
2.65211e-07
-6.57141e-07
3.08881e-07
-8.17369e-07
3.53902e-07
-9.88534e-07
3.97841e-07
-1.16684e-06
4.38626e-07
-1.34801e-06
4.73761e-07
-1.52789e-06
5.01995e-07
-1.7026e-06
5.22065e-07
-1.86862e-06
5.33277e-07
-2.02321e-06
5.35998e-07
-2.16498e-06
5.3128e-07
-2.29352e-06
5.20004e-07
-2.40903e-06
5.03014e-07
-2.51211e-06
4.81095e-07
-2.60338e-06
4.54936e-07
-2.68358e-06
4.25283e-07
-2.75343e-06
3.92667e-07
-2.81347e-06
3.57717e-07
-2.86415e-06
3.20878e-07
-2.90577e-06
2.82583e-07
-2.93855e-06
2.43065e-07
-2.96256e-06
2.02541e-07
-2.97782e-06
1.61127e-07
-2.98427e-06
1.18823e-07
-2.98175e-06
7.56053e-08
-2.97003e-06
3.13657e-08
-2.94884e-06
-1.39879e-08
-2.91803e-06
-6.04979e-08
-2.87691e-06
-1.08227e-07
-2.82529e-06
-1.5732e-07
-2.76274e-06
-2.07755e-07
-2.68881e-06
-2.59484e-07
-2.60313e-06
-3.12132e-07
-2.5054e-06
-3.65362e-07
-2.39537e-06
-4.18726e-07
-2.27291e-06
-4.71533e-07
-2.138e-06
-5.22832e-07
-1.99093e-06
-5.71276e-07
-1.83248e-06
-6.15267e-07
-1.66365e-06
-6.53368e-07
-1.48585e-06
-6.83538e-07
-1.30118e-06
-7.03642e-07
-1.11208e-06
-7.12095e-07
-9.21591e-07
-7.07e-07
-7.33273e-07
-6.8705e-07
-5.51298e-07
-6.51545e-07
-3.79511e-07
-6.01128e-07
-2.21075e-07
-5.37003e-07
-7.90743e-08
-4.60427e-07
4.43055e-08
-3.73661e-07
1.47311e-07
-2.79739e-07
2.28838e-07
-1.82132e-07
2.88456e-07
-8.4492e-08
3.269e-07
9.77962e-09
3.442e-07
9.72065e-08
3.3963e-07
1.73113e-07
3.13399e-07
2.33301e-07
2.66073e-07
2.72194e-07
2.0149e-07
2.84372e-07
1.25476e-07
2.67004e-07
4.85581e-08
2.15114e-07
1.08758e-07
3.32098e-08
-9.19121e-08
8.5058e-08
-1.95236e-07
1.26189e-07
-2.10646e-07
1.53062e-07
-1.83933e-07
1.66352e-07
-1.3808e-07
1.6826e-07
-8.71521e-08
1.60157e-07
-3.74064e-08
1.42793e-07
7.66822e-09
1.16328e-07
4.65828e-08
8.03332e-08
7.93351e-08
3.38466e-08
1.07639e-07
-2.43058e-08
1.34215e-07
-9.52748e-08
1.62021e-07
-1.80125e-07
1.93487e-07
-2.79862e-07
2.30098e-07
-3.95343e-07
2.72382e-07
-5.27026e-07
3.20081e-07
-6.74715e-07
3.72407e-07
-8.37004e-07
4.27501e-07
-1.01087e-06
4.82744e-07
-1.19254e-06
5.35571e-07
-1.37746e-06
5.8276e-07
-1.56133e-06
6.22498e-07
-1.73992e-06
6.52355e-07
-1.90887e-06
6.70947e-07
-2.06554e-06
6.78732e-07
-2.20899e-06
6.76722e-07
-2.33923e-06
6.66243e-07
-2.45672e-06
6.4877e-07
-2.56218e-06
6.25459e-07
-2.65646e-06
5.97295e-07
-2.7404e-06
5.65034e-07
-2.81474e-06
5.29281e-07
-2.88014e-06
4.9068e-07
-2.9372e-06
4.49728e-07
-2.98636e-06
4.06881e-07
-3.02798e-06
3.62491e-07
-3.06228e-06
3.16886e-07
-3.08942e-06
2.70202e-07
-3.10935e-06
2.22474e-07
-3.12208e-06
1.73856e-07
-3.12751e-06
1.24254e-07
-3.12547e-06
7.35669e-08
-3.1157e-06
2.1589e-08
-3.09792e-06
-3.17673e-08
-3.07172e-06
-8.66962e-08
-3.03662e-06
-1.43323e-07
-2.99223e-06
-2.01712e-07
-2.93811e-06
-2.61873e-07
-2.87367e-06
-3.23929e-07
-2.79822e-06
-3.87583e-07
-2.71132e-06
-4.52254e-07
-2.61252e-06
-5.17531e-07
-2.50139e-06
-5.8266e-07
-2.37754e-06
-6.46682e-07
-2.24075e-06
-7.08072e-07
-2.09156e-06
-7.64454e-07
-1.93049e-06
-8.14441e-07
-1.75839e-06
-8.55629e-07
-1.5771e-06
-8.84937e-07
-1.38864e-06
-9.00555e-07
-1.19579e-06
-8.9985e-07
-1.00165e-06
-8.81186e-07
-8.10193e-07
-8.43004e-07
-6.26111e-07
-7.8521e-07
-4.53845e-07
-7.09269e-07
-2.9657e-07
-6.17702e-07
-1.57099e-07
-5.13131e-07
-3.76957e-08
-3.99142e-07
6.03015e-08
-2.80129e-07
1.36436e-07
-1.60627e-07
1.91164e-07
-4.49481e-08
2.25474e-07
6.28963e-08
2.39767e-07
1.5882e-07
2.34505e-07
2.38563e-07
2.09993e-07
2.96707e-07
1.67185e-07
3.2718e-07
1.09175e-07
3.25014e-07
4.37144e-08
2.80575e-07
1.52472e-07
3.6773e-08
-1.28685e-07
8.17938e-08
-2.40257e-07
1.10493e-07
-2.39345e-07
1.23588e-07
-1.97028e-07
1.23818e-07
-1.3831e-07
1.13176e-07
-7.65094e-08
9.26516e-08
-1.68824e-08
6.23862e-08
3.79335e-08
2.19338e-08
8.70352e-08
-2.98293e-08
1.31098e-07
-9.4281e-08
1.72091e-07
-1.72804e-07
2.12738e-07
-2.6657e-07
2.55787e-07
-3.76426e-07
3.03342e-07
-5.02824e-07
3.56496e-07
-6.45566e-07
4.15124e-07
-8.03622e-07
4.78136e-07
-9.7473e-07
5.43516e-07
-1.15549e-06
6.08257e-07
-1.34131e-06
6.68568e-07
-1.5277e-06
7.21959e-07
-1.70976e-06
7.64821e-07
-1.88225e-06
7.94989e-07
-2.04208e-06
8.12184e-07
-2.18834e-06
8.17208e-07
-2.32124e-06
8.11633e-07
-2.44157e-06
7.9705e-07
-2.55036e-06
7.75034e-07
-2.6485e-06
7.46911e-07
-2.73683e-06
7.13786e-07
-2.81609e-06
6.76559e-07
-2.88694e-06
6.35882e-07
-2.95002e-06
5.92366e-07
-3.00587e-06
5.4653e-07
-3.05493e-06
4.98782e-07
-3.09747e-06
4.49426e-07
-3.13374e-06
3.98753e-07
-3.1639e-06
3.47047e-07
-3.18812e-06
2.94424e-07
-3.20626e-06
2.40616e-07
-3.21842e-06
1.8601e-07
-3.22455e-06
1.30386e-07
-3.22458e-06
7.36043e-08
-3.21832e-06
1.53234e-08
-3.20573e-06
-4.43533e-08
-3.18641e-06
-1.06019e-07
-3.15989e-06
-1.69845e-07
-3.12562e-06
-2.35984e-07
-3.08297e-06
-3.04517e-07
-3.03131e-06
-3.75587e-07
-2.96971e-06
-4.49188e-07
-2.89733e-06
-5.24638e-07
-2.8133e-06
-6.01556e-07
-2.71698e-06
-6.78977e-07
-2.60799e-06
-7.55671e-07
-2.48564e-06
-8.30425e-07
-2.34962e-06
-9.00471e-07
-2.20003e-06
-9.64032e-07
-2.03691e-06
-1.01875e-06
-1.86187e-06
-1.05999e-06
-1.67641e-06
-1.08601e-06
-1.483e-06
-1.09326e-06
-1.28459e-06
-1.0796e-06
-1.08486e-06
-1.04273e-06
-8.88096e-07
-9.81972e-07
-6.9985e-07
-8.97515e-07
-5.24781e-07
-7.92771e-07
-3.66349e-07
-6.71563e-07
-2.27609e-07
-5.37882e-07
-1.1071e-07
-3.97027e-07
-1.66032e-08
-2.54734e-07
5.49828e-08
-1.16534e-07
1.0526e-07
1.26193e-08
1.35731e-07
1.28349e-07
1.47577e-07
2.26716e-07
1.41454e-07
3.0283e-07
1.17854e-07
3.50779e-07
7.90802e-08
3.63788e-07
3.14269e-08
3.28228e-07
1.83899e-07
3.69097e-08
-1.65595e-07
6.96146e-08
-2.72962e-07
8.36935e-08
-2.53424e-07
8.21863e-08
-1.95521e-07
6.88298e-08
-1.24954e-07
4.50537e-08
-5.27333e-08
1.11835e-08
1.69878e-08
-3.32278e-08
8.23448e-08
-8.92062e-08
1.43014e-07
-1.58139e-07
2.00031e-07
-2.41502e-07
2.55453e-07
-3.40563e-07
3.11799e-07
-4.56153e-07
3.71377e-07
-5.88491e-07
4.3568e-07
-7.37033e-07
5.05038e-07
-9.003e-07
5.78391e-07
-1.0755e-06
6.53339e-07
-1.25855e-06
7.26558e-07
-1.44474e-06
7.94448e-07
-1.62906e-06
8.52891e-07
-1.8055e-06
8.98394e-07
-1.96996e-06
9.29285e-07
-2.12076e-06
9.45792e-07
-2.25796e-06
9.49386e-07
-2.38241e-06
9.41657e-07
-2.49516e-06
9.24377e-07
-2.59727e-06
8.99165e-07
-2.68974e-06
8.67504e-07
-2.77337e-06
8.30539e-07
-2.84883e-06
7.89249e-07
-2.9167e-06
7.44422e-07
-2.97749e-06
6.96674e-07
-3.03168e-06
6.46558e-07
-3.07965e-06
5.945e-07
-3.12176e-06
5.40891e-07
-3.15818e-06
4.85843e-07
-3.18901e-06
4.2959e-07
-3.2145e-06
3.72538e-07
-3.23479e-06
3.14707e-07
-3.25025e-06
2.56077e-07
-3.26074e-06
1.965e-07
-3.26615e-06
1.35795e-07
-3.26632e-06
7.37791e-08
-3.26107e-06
1.00711e-08
-3.25062e-06
-5.48037e-08
-3.23494e-06
-1.217e-07
-3.21398e-06
-1.90803e-07
-3.1876e-06
-2.6236e-07
-3.1555e-06
-3.36622e-07
-3.11732e-06
-4.1376e-07
-3.07242e-06
-4.94094e-07
-3.01945e-06
-5.77604e-07
-2.95716e-06
-6.63842e-07
-2.88388e-06
-7.52266e-07
-2.79752e-06
-8.42027e-07
-2.69621e-06
-9.31737e-07
-2.57915e-06
-1.01753e-06
-2.44659e-06
-1.09659e-06
-2.29887e-06
-1.16646e-06
-2.13577e-06
-1.22309e-06
-1.95827e-06
-1.26351e-06
-1.76865e-06
-1.28288e-06
-1.56938e-06
-1.27887e-06
-1.3641e-06
-1.24802e-06
-1.15674e-06
-1.18933e-06
-9.52662e-07
-1.1016e-06
-7.58469e-07
-9.86963e-07
-5.79191e-07
-8.50842e-07
-4.18593e-07
-6.9848e-07
-2.79961e-07
-5.35659e-07
-1.65279e-07
-3.69416e-07
-7.49871e-08
-2.06826e-07
-8.02455e-09
-5.43433e-08
3.75789e-08
8.27457e-08
6.41759e-08
2.00119e-07
7.34154e-08
2.93591e-07
6.63033e-08
3.57891e-07
4.51569e-08
3.84934e-07
1.63893e-08
3.56996e-07
2.00288e-07
3.23975e-08
-1.97992e-07
5.01133e-08
-2.90678e-07
4.83916e-08
-2.51702e-07
3.19984e-08
-1.79128e-07
4.78449e-09
-9.77398e-08
-3.26083e-08
-1.53405e-08
-8.05504e-08
6.49299e-08
-1.39972e-07
1.41766e-07
-2.12169e-07
2.15211e-07
-2.98554e-07
2.86416e-07
-4.00394e-07
3.57294e-07
-5.18546e-07
4.29951e-07
-6.53184e-07
5.06016e-07
-8.03664e-07
5.8616e-07
-9.68294e-07
6.69668e-07
-1.14392e-06
7.5402e-07
-1.32616e-06
8.35578e-07
-1.51005e-06
9.10447e-07
-1.68955e-06
9.73944e-07
-1.85934e-06
1.02268e-06
-2.01618e-06
1.05524e-06
-2.15939e-06
1.07249e-06
-2.28939e-06
1.07579e-06
-2.40712e-06
1.06712e-06
-2.51368e-06
1.04822e-06
-2.6102e-06
1.0209e-06
-2.69763e-06
9.86591e-07
-2.7767e-06
9.46577e-07
-2.84802e-06
9.01856e-07
-2.91208e-06
8.53311e-07
-2.96932e-06
8.01656e-07
-3.02013e-06
7.47483e-07
-3.06483e-06
6.91259e-07
-3.10361e-06
6.33285e-07
-3.13689e-06
5.7417e-07
-3.16537e-06
5.1432e-07
-3.18958e-06
4.53802e-07
-3.20957e-06
3.92532e-07
-3.2252e-06
3.30338e-07
-3.23665e-06
2.67521e-07
-3.24384e-06
2.03693e-07
-3.24692e-06
1.38876e-07
-3.24603e-06
7.28874e-08
-3.24099e-06
5.03056e-09
-3.23237e-06
-6.34231e-08
-3.21991e-06
-1.34157e-07
-3.20351e-06
-2.07204e-07
-3.18299e-06
-2.8288e-07
-3.15807e-06
-3.61541e-07
-3.12844e-06
-4.43391e-07
-3.09392e-06
-5.28614e-07
-3.05402e-06
-6.17501e-07
-3.00814e-06
-7.09725e-07
-2.95543e-06
-8.04981e-07
-2.89494e-06
-9.02516e-07
-2.82504e-06
-1.00164e-06
-2.74125e-06
-1.10131e-06
-2.63934e-06
-1.19851e-06
-2.51718e-06
-1.28863e-06
-2.37477e-06
-1.3655e-06
-2.21364e-06
-1.42464e-06
-2.03565e-06
-1.46086e-06
-1.84216e-06
-1.47236e-06
-1.63694e-06
-1.45324e-06
-1.42369e-06
-1.40258e-06
-1.20714e-06
-1.31814e-06
-9.94318e-07
-1.19978e-06
-7.92971e-07
-1.05219e-06
-6.08765e-07
-8.82686e-07
-4.45871e-07
-6.98554e-07
-3.07697e-07
-5.0759e-07
-1.95953e-07
-3.18571e-07
-1.1043e-07
-1.39866e-07
-4.91061e-08
2.1422e-08
-8.69825e-09
1.59711e-07
1.36738e-08
2.71219e-07
2.04065e-08
3.51158e-07
1.47141e-08
3.90627e-07
3.01431e-09
3.68696e-07
2.03302e-07
2.36104e-08
-2.21603e-07
2.48714e-08
-2.91939e-07
6.61624e-09
-2.33447e-07
-2.41454e-08
-1.48366e-07
-6.52447e-08
-5.66405e-08
-1.1659e-07
3.60053e-08
-1.78989e-07
1.27328e-07
-2.53653e-07
2.1643e-07
-3.41899e-07
3.03457e-07
-4.4492e-07
3.89438e-07
-5.63552e-07
4.75925e-07
-6.97984e-07
5.64383e-07
-8.47637e-07
6.55669e-07
-1.01087e-06
7.49395e-07
-1.18436e-06
8.43156e-07
-1.36357e-06
9.33231e-07
-1.54327e-06
1.01527e-06
-1.71722e-06
1.0844e-06
-1.8806e-06
1.13732e-06
-2.03103e-06
1.17312e-06
-2.16799e-06
1.19219e-06
-2.29197e-06
1.19647e-06
-2.404e-06
1.18781e-06
-2.50518e-06
1.1683e-06
-2.59657e-06
1.13962e-06
-2.67907e-06
1.10339e-06
-2.75334e-06
1.06086e-06
-2.81993e-06
1.01317e-06
-2.8793e-06
9.61227e-07
-2.93186e-06
9.05873e-07
-2.97799e-06
8.47788e-07
-3.0181e-06
7.87595e-07
-3.05277e-06
7.25927e-07
-3.08267e-06
6.63191e-07
-3.10801e-06
5.99503e-07
-3.12873e-06
5.35038e-07
-3.1449e-06
4.69971e-07
-3.15663e-06
4.04267e-07
-3.16442e-06
3.38126e-07
-3.16863e-06
2.71726e-07
-3.16972e-06
2.04788e-07
-3.16802e-06
1.37181e-07
-3.16382e-06
6.86793e-08
-3.15737e-06
-1.41303e-09
-3.14859e-06
-7.22021e-08
-3.13748e-06
-1.45267e-07
-3.12409e-06
-2.20598e-07
-3.1084e-06
-2.98575e-07
-3.09035e-06
-3.79589e-07
-3.06976e-06
-4.63977e-07
-3.0463e-06
-5.52081e-07
-3.01956e-06
-6.44233e-07
-2.98879e-06
-7.40501e-07
-2.95299e-06
-8.40778e-07
-2.91097e-06
-9.44535e-07
-2.86209e-06
-1.05051e-06
-2.80478e-06
-1.15863e-06
-2.73735e-06
-1.26594e-06
-2.65561e-06
-1.37036e-06
-2.55202e-06
-1.46909e-06
-2.42216e-06
-1.55451e-06
-2.26639e-06
-1.61663e-06
-2.08883e-06
-1.64992e-06
-1.89232e-06
-1.64975e-06
-1.68063e-06
-1.61428e-06
-1.45801e-06
-1.54075e-06
-1.23094e-06
-1.42686e-06
-1.00809e-06
-1.27504e-06
-7.98875e-07
-1.0919e-06
-6.0972e-07
-8.87709e-07
-4.45186e-07
-6.72124e-07
-3.0869e-07
-4.55067e-07
-2.0145e-07
-2.47106e-07
-1.22273e-07
-5.77549e-08
-6.78592e-08
1.05298e-07
-3.35544e-08
2.36914e-07
-1.52356e-08
3.3284e-07
-7.72599e-09
3.83117e-07
-5.43829e-09
3.66408e-07
1.97864e-07
1.16751e-08
-2.33278e-07
-4.60711e-09
-2.75656e-07
-3.83613e-08
-1.99692e-07
-8.34873e-08
-1.0324e-07
-1.3852e-07
-1.60751e-09
-2.03817e-07
1.01302e-07
-2.80553e-07
2.04064e-07
-3.69987e-07
3.05863e-07
-4.73244e-07
4.06714e-07
-5.91116e-07
5.07309e-07
-7.23818e-07
6.08627e-07
-8.70891e-07
7.11457e-07
-1.0309e-06
8.15674e-07
-1.20061e-06
9.19112e-07
-1.37541e-06
1.01795e-06
-1.5499e-06
1.10772e-06
-1.71831e-06
1.18368e-06
-1.87612e-06
1.24221e-06
-2.02118e-06
1.28238e-06
-2.15283e-06
1.30477e-06
-2.27167e-06
1.31104e-06
-2.37867e-06
1.30347e-06
-2.47495e-06
1.28409e-06
-2.56143e-06
1.25478e-06
-2.63894e-06
1.21712e-06
-2.70807e-06
1.17253e-06
-2.76935e-06
1.12214e-06
-2.82323e-06
1.06705e-06
-2.87016e-06
1.00816e-06
-2.91061e-06
9.46317e-07
-2.94505e-06
8.8223e-07
-2.97397e-06
8.16514e-07
-2.99763e-06
7.49582e-07
-3.01633e-06
6.8189e-07
-3.03047e-06
6.13644e-07
-3.04055e-06
5.45119e-07
-3.04712e-06
4.76539e-07
-3.05079e-06
4.07942e-07
-3.05198e-06
3.39321e-07
-3.05085e-06
2.70595e-07
-3.04766e-06
2.0159e-07
-3.0426e-06
1.3213e-07
-3.03585e-06
6.19262e-08
-3.02789e-06
-9.37865e-09
-3.01828e-06
-8.1812e-08
-3.00749e-06
-1.56053e-07
-2.99566e-06
-2.3243e-07
-2.98288e-06
-3.1135e-07
-2.96924e-06
-3.93227e-07
-2.95474e-06
-4.78482e-07
-2.93927e-06
-5.67546e-07
-2.92269e-06
-6.60816e-07
-2.90461e-06
-7.5858e-07
-2.88443e-06
-8.60961e-07
-2.86118e-06
-9.67788e-07
-2.83306e-06
-1.07863e-06
-2.79877e-06
-1.19292e-06
-2.75594e-06
-1.30877e-06
-2.70281e-06
-1.4235e-06
-2.63675e-06
-1.53514e-06
-2.55273e-06
-1.63853e-06
-2.43958e-06
-1.72978e-06
-2.29354e-06
-1.79596e-06
-2.11705e-06
-1.82624e-06
-1.91761e-06
-1.81372e-06
-1.69816e-06
-1.76021e-06
-1.46499e-06
-1.66003e-06
-1.22604e-06
-1.51398e-06
-9.92321e-07
-1.32562e-06
-7.75063e-07
-1.10497e-06
-5.81687e-07
-8.65499e-07
-4.17036e-07
-6.19718e-07
-2.84253e-07
-3.7989e-07
-1.83655e-07
-1.58352e-07
-1.12737e-07
3.43798e-08
-6.62243e-08
1.90401e-07
-3.8048e-08
3.04663e-07
-2.0473e-08
3.65542e-07
-9.12968e-09
3.55064e-07
1.88734e-07
-2.19907e-09
-2.31079e-07
-3.53668e-08
-2.42489e-07
-8.45635e-08
-1.50496e-07
-1.43813e-07
-4.39907e-08
-2.12401e-07
6.69805e-08
-2.91292e-07
1.80194e-07
-3.81691e-07
2.94463e-07
-4.84747e-07
4.08919e-07
-6.01246e-07
5.23214e-07
-7.31442e-07
6.37505e-07
-8.74993e-07
7.52179e-07
-1.03072e-06
8.67181e-07
-1.19568e-06
9.80642e-07
-1.36535e-06
1.08878e-06
-1.53444e-06
1.18705e-06
-1.69763e-06
1.27091e-06
-1.85059e-06
1.33664e-06
-1.99104e-06
1.38265e-06
-2.11826e-06
1.40961e-06
-2.23263e-06
1.41914e-06
-2.33517e-06
1.41358e-06
-2.42685e-06
1.39516e-06
-2.50856e-06
1.36579e-06
-2.58098e-06
1.3272e-06
-2.64469e-06
1.28083e-06
-2.70016e-06
1.228e-06
-2.74789e-06
1.16987e-06
-2.78837e-06
1.10753e-06
-2.82215e-06
1.04194e-06
-2.84979e-06
9.7395e-07
-2.87184e-06
9.04283e-07
-2.88885e-06
8.33528e-07
-2.90141e-06
7.62138e-07
-2.91004e-06
6.90525e-07
-2.91534e-06
6.18937e-07
-2.91781e-06
5.47597e-07
-2.91789e-06
4.76611e-07
-2.9159e-06
4.05959e-07
-2.91215e-06
3.35561e-07
-2.90684e-06
2.65287e-07
-2.9002e-06
1.94949e-07
-2.89239e-06
1.24327e-07
-2.88361e-06
5.31417e-08
-2.8741e-06
-1.88891e-08
-2.86386e-06
-9.20538e-08
-2.85313e-06
-1.66781e-07
-2.84211e-06
-2.43445e-07
-2.831e-06
-3.22468e-07
-2.81995e-06
-4.04276e-07
-2.80911e-06
-4.8932e-07
-2.79859e-06
-5.78061e-07
-2.78846e-06
-6.70948e-07
-2.77866e-06
-7.68379e-07
-2.76896e-06
-8.7066e-07
-2.7588e-06
-9.77954e-07
-2.74715e-06
-1.09027e-06
-2.73281e-06
-1.20727e-06
-2.71364e-06
-1.32794e-06
-2.68643e-06
-1.45071e-06
-2.64845e-06
-1.57312e-06
-2.59655e-06
-1.69043e-06
-2.52669e-06
-1.79964e-06
-2.42999e-06
-1.89265e-06
-2.29448e-06
-1.96175e-06
-2.12069e-06
-1.98751e-06
-1.91727e-06
-1.96363e-06
-1.68884e-06
-1.88846e-06
-1.44357e-06
-1.75925e-06
-1.19174e-06
-1.57745e-06
-9.46943e-07
-1.34977e-06
-7.22496e-07
-1.08995e-06
-5.26768e-07
-8.15446e-07
-3.64563e-07
-5.42095e-07
-2.38323e-07
-2.84592e-07
-1.46958e-07
-5.69855e-08
-8.59306e-08
1.29374e-07
-4.78614e-08
2.66594e-07
-2.36704e-08
3.41351e-07
-8.18012e-09
3.39574e-07
1.80554e-07
-1.69862e-08
-2.14093e-07
-6.67866e-08
-1.92688e-07
-1.30428e-07
-8.68545e-08
-2.03064e-07
2.86457e-08
-2.84611e-07
1.48527e-07
-3.76206e-07
2.71789e-07
-4.79055e-07
3.97312e-07
-5.94037e-07
5.23901e-07
-7.21494e-07
6.50671e-07
-8.61197e-07
7.77207e-07
-1.0122e-06
9.03185e-07
-1.17198e-06
1.02695e-06
-1.33628e-06
1.14494e-06
-1.50008e-06
1.25258e-06
-1.65847e-06
1.34543e-06
-1.80729e-06
1.41974e-06
-1.94389e-06
1.47324e-06
-2.06738e-06
1.50614e-06
-2.178e-06
1.52023e-06
-2.2766e-06
1.51773e-06
-2.36411e-06
1.50109e-06
-2.4413e-06
1.47235e-06
-2.5088e-06
1.4333e-06
-2.56716e-06
1.38556e-06
-2.6169e-06
1.33056e-06
-2.65855e-06
1.26965e-06
-2.69274e-06
1.20407e-06
-2.72015e-06
1.13494e-06
-2.74149e-06
1.06327e-06
-2.75746e-06
9.89924e-07
-2.76878e-06
9.15599e-07
-2.7761e-06
8.40856e-07
-2.78009e-06
7.66121e-07
-2.78128e-06
6.9172e-07
-2.78019e-06
6.17844e-07
-2.77721e-06
5.44613e-07
-2.77263e-06
4.72039e-07
-2.76672e-06
4.00046e-07
-2.75967e-06
3.28515e-07
-2.75167e-06
2.5728e-07
-2.74286e-06
1.86138e-07
-2.73338e-06
1.14851e-07
-2.72339e-06
4.31479e-08
-2.71303e-06
-2.925e-08
-2.70242e-06
-1.02662e-07
-2.69175e-06
-1.77454e-07
-2.6812e-06
-2.53988e-07
-2.671e-06
-3.32667e-07
-2.66137e-06
-4.13907e-07
-2.65254e-06
-4.98151e-07
-2.64474e-06
-5.85863e-07
-2.63818e-06
-6.7751e-07
-2.63301e-06
-7.73548e-07
-2.62928e-06
-8.74391e-07
-2.62684e-06
-9.80395e-07
-2.6253e-06
-1.0918e-06
-2.62395e-06
-1.20862e-06
-2.62138e-06
-1.3305e-06
-2.61546e-06
-1.45662e-06
-2.60328e-06
-1.58531e-06
-2.57998e-06
-1.71373e-06
-2.54182e-06
-1.83779e-06
-2.4837e-06
-1.95078e-06
-2.39879e-06
-2.04666e-06
-2.27198e-06
-2.11432e-06
-2.10038e-06
-2.13522e-06
-1.89136e-06
-2.09748e-06
-1.65218e-06
-1.99843e-06
-1.39345e-06
-1.83618e-06
-1.12837e-06
-1.61485e-06
-8.73374e-07
-1.34494e-06
-6.44015e-07
-1.0448e-06
-4.49217e-07
-7.36893e-07
-2.93235e-07
-4.40574e-07
-1.7716e-07
-1.7306e-07
-9.78632e-08
5.00764e-08
-4.82083e-08
2.16939e-07
-1.92128e-08
3.12355e-07
-3.77114e-09
3.24133e-07
1.76783e-07
-3.1931e-08
-1.82162e-07
-9.71445e-08
-1.27475e-07
-1.74319e-07
-9.68006e-09
-2.59428e-07
1.13755e-07
-3.52922e-07
2.42021e-07
-4.55986e-07
3.74853e-07
-5.6968e-07
5.11006e-07
-6.94542e-07
6.48763e-07
-8.30493e-07
7.86622e-07
-9.76802e-07
9.23517e-07
-1.13132e-06
1.0577e-06
-1.29029e-06
1.18592e-06
-1.44908e-06
1.30374e-06
-1.60314e-06
1.40664e-06
-1.74845e-06
1.49075e-06
-1.88204e-06
1.55332e-06
-2.00258e-06
1.59377e-06
-2.11017e-06
1.61374e-06
-2.20548e-06
1.61554e-06
-2.28937e-06
1.60162e-06
-2.36255e-06
1.57427e-06
-2.42562e-06
1.53541e-06
-2.47912e-06
1.4868e-06
-2.52363e-06
1.43007e-06
-2.55981e-06
1.36674e-06
-2.58841e-06
1.29825e-06
-2.61026e-06
1.22591e-06
-2.62621e-06
1.15089e-06
-2.63711e-06
1.07417e-06
-2.64377e-06
9.96584e-07
-2.64692e-06
9.18756e-07
-2.64724e-06
8.41168e-07
-2.64527e-06
7.64157e-07
-2.64149e-06
6.87941e-07
-2.63627e-06
6.12623e-07
-2.62989e-06
5.3823e-07
-2.62255e-06
4.64702e-07
-2.61442e-06
3.91918e-07
-2.60564e-06
3.19729e-07
-2.5963e-06
2.47942e-07
-2.5865e-06
1.76338e-07
-2.57633e-06
1.04682e-07
-2.56589e-06
3.271e-08
-2.55529e-06
-3.98547e-08
-2.54464e-06
-1.13312e-07
-2.5341e-06
-1.87989e-07
-2.52387e-06
-2.64226e-07
-2.51415e-06
-3.42386e-07
-2.5052e-06
-4.22858e-07
-2.49729e-06
-5.06057e-07
-2.49073e-06
-5.92424e-07
-2.48582e-06
-6.82422e-07
-2.48284e-06
-7.76525e-07
-2.48202e-06
-8.7521e-07
-2.48348e-06
-9.78934e-07
-2.48719e-06
-1.0881e-06
-2.49286e-06
-1.20296e-06
-2.49978e-06
-1.32358e-06
-2.50674e-06
-1.44966e-06
-2.51169e-06
-1.58036e-06
-2.51137e-06
-1.71405e-06
-2.50136e-06
-1.8478e-06
-2.47521e-06
-1.97693e-06
-2.42741e-06
-2.09446e-06
-2.34965e-06
-2.19208e-06
-2.22844e-06
-2.25643e-06
-2.05646e-06
-2.26947e-06
-1.8399e-06
-2.21499e-06
-1.58808e-06
-2.08799e-06
-1.31502e-06
-1.88792e-06
-1.03722e-06
-1.62273e-06
-7.74503e-07
-1.30753e-06
-5.44418e-07
-9.66978e-07
-3.55531e-07
-6.29461e-07
-2.10983e-07
-3.17608e-07
-1.09661e-07
-5.12461e-08
-4.58414e-08
1.5312e-07
-1.13913e-08
2.77905e-07
2.36532e-09
3.10376e-07
1.79149e-07
-4.62141e-08
-1.35947e-07
-1.25446e-07
-4.82425e-08
-2.14842e-07
7.97152e-08
-3.11333e-07
2.10246e-07
-4.15476e-07
3.46163e-07
-5.28466e-07
4.87843e-07
-6.51146e-07
6.33686e-07
-7.83704e-07
7.81322e-07
-9.25627e-07
9.28544e-07
-1.07513e-06
1.07302e-06
-1.229e-06
1.21157e-06
-1.38318e-06
1.34011e-06
-1.53339e-06
1.45395e-06
-1.67577e-06
1.54901e-06
-1.8071e-06
1.62209e-06
-1.92557e-06
1.67179e-06
-2.03096e-06
1.69916e-06
-2.12379e-06
1.70657e-06
-2.2048e-06
1.69655e-06
-2.2747e-06
1.67152e-06
-2.33407e-06
1.63364e-06
-2.38348e-06
1.58483e-06
-2.42361e-06
1.52693e-06
-2.45521e-06
1.46167e-06
-2.47918e-06
1.39071e-06
-2.49648e-06
1.31555e-06
-2.50809e-06
1.23753e-06
-2.51499e-06
1.15778e-06
-2.51804e-06
1.07723e-06
-2.51804e-06
9.9658e-07
-2.51565e-06
9.1637e-07
-2.51144e-06
8.36957e-07
-2.50585e-06
7.58565e-07
-2.49921e-06
6.81307e-07
-2.49179e-06
6.05198e-07
-2.48375e-06
5.30188e-07
-2.4752e-06
4.5616e-07
-2.46625e-06
3.82962e-07
-2.45694e-06
3.1042e-07
-2.44732e-06
2.38322e-07
-2.43742e-06
1.66439e-07
-2.42729e-06
9.45485e-08
-2.41698e-06
2.24009e-08
-2.40656e-06
-5.02724e-08
-2.39613e-06
-1.23739e-07
-2.38583e-06
-1.98289e-07
-2.37583e-06
-2.74228e-07
-2.36634e-06
-3.51879e-07
-2.35761e-06
-4.31586e-07
-2.34994e-06
-5.13724e-07
-2.34367e-06
-5.98695e-07
-2.33916e-06
-6.86933e-07
-2.33678e-06
-7.78905e-07
-2.33688e-06
-8.75104e-07
-2.33977e-06
-9.76043e-07
-2.34565e-06
-1.08222e-06
-2.35451e-06
-1.1941e-06
-2.3661e-06
-1.31199e-06
-2.37974e-06
-1.43601e-06
-2.3942e-06
-1.56591e-06
-2.40742e-06
-1.70083e-06
-2.41621e-06
-1.83901e-06
-2.41572e-06
-1.97742e-06
-2.39915e-06
-2.11103e-06
-2.35901e-06
-2.23222e-06
-2.28596e-06
-2.32948e-06
-2.16571e-06
-2.38972e-06
-1.99007e-06
-2.39063e-06
-1.76301e-06
-2.31505e-06
-1.49682e-06
-2.15411e-06
-1.20922e-06
-1.91033e-06
-9.20759e-07
-1.59599e-06
-6.55103e-07
-1.23263e-06
-4.30718e-07
-8.53847e-07
-2.54803e-07
-4.93523e-07
-1.28386e-07
-1.77663e-07
-4.74703e-08
7.22036e-08
-5.31769e-09
2.35753e-07
7.66126e-09
2.97397e-07
1.8681e-07
-5.92555e-08
-7.6692e-08
-1.50778e-07
4.32798e-08
-2.51115e-07
1.80053e-07
-3.57559e-07
3.1669e-07
-4.70814e-07
4.59418e-07
-5.91985e-07
6.09014e-07
-7.21672e-07
7.63373e-07
-8.5967e-07
9.19319e-07
-1.00457e-06
1.07344e-06
-1.1537e-06
1.22215e-06
-1.3037e-06
1.36158e-06
-1.45057e-06
1.48697e-06
-1.59053e-06
1.59392e-06
-1.72031e-06
1.67878e-06
-1.8376e-06
1.73938e-06
-1.94171e-06
1.7759e-06
-2.03296e-06
1.79042e-06
-2.11202e-06
1.78562e-06
-2.17954e-06
1.76407e-06
-2.23614e-06
1.72812e-06
-2.28244e-06
1.67994e-06
-2.31918e-06
1.62157e-06
-2.34724e-06
1.55499e-06
-2.36763e-06
1.48206e-06
-2.38144e-06
1.40452e-06
-2.38977e-06
1.32388e-06
-2.39366e-06
1.24143e-06
-2.39407e-06
1.15819e-06
-2.39181e-06
1.07497e-06
-2.38757e-06
9.92344e-07
-2.38191e-06
9.10705e-07
-2.37524e-06
8.3029e-07
-2.36789e-06
7.51209e-07
-2.36006e-06
6.7348e-07
-2.3519e-06
5.97043e-07
-2.3435e-06
5.21785e-07
-2.33489e-06
4.47552e-07
-2.32609e-06
3.7416e-07
-2.31709e-06
3.01423e-07
-2.3079e-06
2.29126e-07
-2.29849e-06
1.57032e-07
-2.28888e-06
8.49323e-08
-2.27908e-06
1.26037e-08
-2.26914e-06
-6.02129e-08
-2.25913e-06
-1.33746e-07
-2.24917e-06
-2.08252e-07
-2.2394e-06
-2.83996e-07
-2.23002e-06
-3.61256e-07
-2.22128e-06
-4.4033e-07
-2.21346e-06
-5.2154e-07
-2.20692e-06
-6.0524e-07
-2.20203e-06
-6.91819e-07
-2.19923e-06
-7.8171e-07
-2.19894e-06
-8.75393e-07
-2.20159e-06
-9.73391e-07
-2.20755e-06
-1.07626e-06
-2.21707e-06
-1.18458e-06
-2.2302e-06
-1.29886e-06
-2.24668e-06