/*--------------------------------*- C++ -*----------------------------------*\
  =========                 |
  \\      /  F ield         | OpenFOAM: The Open Source CFD Toolbox
   \\    /   O peration     | Website:  https://openfoam.org
    \\  /    A nd           | Version:  13
     \\/     M anipulation  |
\*---------------------------------------------------------------------------*/
FoamFile
{
    format      ascii;
    class       volVectorField;
    location    "6.6";
    object      U;
}
// * * * * * * * * * * * * * * * * * * * * * * * * * * * * * * * * * * * * * //

dimensions      [0 1 -1 0 0 0 0];

internalField   nonuniform List<vector> 
6400
(
(-0.000123 8.09805e-05 0)
(0.000431861 -0.000167967 0)
(0.00203904 -0.000421789 0)
(0.00416812 -0.000534747 0)
(0.00629106 -0.000471619 0)
(0.00806684 -0.000315414 0)
(0.00925263 -0.000127035 0)
(0.00984928 1.50144e-05 0)
(0.00998029 6.84234e-05 0)
(0.00988035 4.73271e-05 0)
(0.00967627 -2.9023e-05 0)
(0.00952968 -0.000134004 0)
(0.00950768 -0.000242421 0)
(0.00960647 -0.000330543 0)
(0.00977949 -0.000402225 0)
(0.00994856 -0.000455222 0)
(0.0100415 -0.000489418 0)
(0.0100049 -0.000493764 0)
(0.00980244 -0.000477096 0)
(0.009341 -0.000438559 0)
(0.00857909 -0.000390272 0)
(0.00746318 -0.000340971 0)
(0.00594718 -0.000295082 0)
(0.00400453 -0.000275847 0)
(0.00160003 -0.000320259 0)
(-0.00124485 -0.000430894 0)
(-0.0045335 -0.000490766 0)
(-0.00850538 -0.000336769 0)
(-0.0132821 0.000149278 0)
(-0.0188284 0.000987473 0)
(-0.0259799 0.00201659 0)
(-0.0339483 0.00289786 0)
(-0.042607 0.00361635 0)
(-0.0516541 0.00415659 0)
(-0.0608375 0.00452196 0)
(-0.0699217 0.00472434 0)
(-0.0787207 0.0047869 0)
(-0.0870763 0.0047323 0)
(-0.0948706 0.00458249 0)
(-0.102003 0.00435549 0)
(-0.108399 0.00406363 0)
(-0.113993 0.00371606 0)
(-0.11874 0.00331628 0)
(-0.122611 0.00286829 0)
(-0.125568 0.00238206 0)
(-0.12747 0.00190004 0)
(-0.128319 0.00146007 0)
(-0.128384 0.000794113 0)
(-0.127063 0.000229672 0)
(-0.124825 -0.000440082 0)
(-0.121307 -0.00108108 0)
(-0.11671 -0.001745 0)
(-0.110899 -0.00238575 0)
(-0.103977 -0.00301147 0)
(-0.0959622 -0.00361821 0)
(-0.0869736 -0.00420837 0)
(-0.0769994 -0.00472851 0)
(-0.066231 -0.00517202 0)
(-0.0548249 -0.00551268 0)
(-0.0429833 -0.0057122 0)
(-0.0309478 -0.00573952 0)
(-0.0190004 -0.00557696 0)
(-0.00740918 -0.00522196 0)
(0.00343739 -0.00470861 0)
(0.0132001 -0.00397581 0)
(0.0216192 -0.00305656 0)
(0.028395 -0.00200075 0)
(0.0332424 -0.000853112 0)
(0.0361757 0.000305463 0)
(0.0365842 0.00154696 0)
(0.0352887 0.00219716 0)
(0.0319101 0.0027883 0)
(0.0267361 0.00300573 0)
(0.0206868 0.00272637 0)
(0.0145277 0.00205253 0)
(0.00907805 0.00122764 0)
(0.00479149 0.000543937 0)
(0.00182699 0.000130342 0)
(0.00017755 -0.000162683 0)
(-0.000230297 -0.00034212 0)
(1.40247e-05 -0.000371728 0)
(0.00176632 -0.00205216 0)
(0.00512266 -0.00346063 0)
(0.00888918 -0.00394688 0)
(0.012376 -0.00358248 0)
(0.0151618 -0.00273272 0)
(0.0170691 -0.00169149 0)
(0.0181174 -0.000739166 0)
(0.0184314 -6.17646e-05 0)
(0.0181686 0.000304214 0)
(0.0175313 0.000408473 0)
(0.0166799 0.000326698 0)
(0.0157035 0.000179483 0)
(0.0145934 7.83415e-05 0)
(0.0132795 8.58263e-05 0)
(0.0116598 0.000215213 0)
(0.0096447 0.000445842 0)
(0.00717439 0.000759204 0)
(0.00413761 0.00117248 0)
(0.000430594 0.00169814 0)
(-0.00405416 0.00234094 0)
(-0.00953226 0.00311782 0)
(-0.0161148 0.00400038 0)
(-0.0238635 0.00497199 0)
(-0.0328257 0.00604934 0)
(-0.0430926 0.00724087 0)
(-0.0545917 0.00856949 0)
(-0.0669796 0.0100356 0)
(-0.0798961 0.0115909 0)
(-0.092829 0.0130812 0)
(-0.105201 0.0141958 0)
(-0.117245 0.0149039 0)
(-0.128658 0.0152088 0)
(-0.13936 0.0151308 0)
(-0.149251 0.0147391 0)
(-0.158263 0.0140826 0)
(-0.166355 0.0132172 0)
(-0.173493 0.0121873 0)
(-0.179661 0.0110308 0)
(-0.184846 0.0097769 0)
(-0.189036 0.00844356 0)
(-0.192228 0.0070474 0)
(-0.194412 0.00559504 0)
(-0.195583 0.00409926 0)
(-0.195729 0.00256907 0)
(-0.194817 0.0010049 0)
(-0.192848 -0.000616055 0)
(-0.18986 -0.00230922 0)
(-0.185738 -0.00404721 0)
(-0.180568 -0.00582302 0)
(-0.174271 -0.00762092 0)
(-0.166886 -0.00942485 0)
(-0.15838 -0.0112134 0)
(-0.148778 -0.0129559 0)
(-0.138088 -0.0146193 0)
(-0.126369 -0.0161511 0)
(-0.113744 -0.0175168 0)
(-0.100306 -0.0186608 0)
(-0.086224 -0.0195067 0)
(-0.0717189 -0.0200043 0)
(-0.0569955 -0.0200892 0)
(-0.0423116 -0.0197154 0)
(-0.0279546 -0.0188557 0)
(-0.0142301 -0.0175136 0)
(-0.00142522 -0.0156601 0)
(0.0101841 -0.0133274 0)
(0.0203139 -0.010555 0)
(0.0287184 -0.0074568 0)
(0.0352295 -0.00411037 0)
(0.0396499 -0.000700091 0)
(0.0419733 0.00252338 0)
(0.0420573 0.00549221 0)
(0.0400005 0.00793755 0)
(0.0359776 0.00961659 0)
(0.0301547 0.00983658 0)
(0.0229011 0.00892749 0)
(0.0152342 0.00711755 0)
(0.00827237 0.00482861 0)
(0.00309508 0.0023591 0)
(0.000232478 0.00030776 0)
(0.000196054 -0.0015908 0)
(0.0031261 -0.00527911 0)
(0.00734693 -0.00750644 0)
(0.0113205 -0.00780636 0)
(0.0145966 -0.00674392 0)
(0.0169611 -0.00497119 0)
(0.0184351 -0.00305187 0)
(0.0190784 -0.00131595 0)
(0.0189666 5.50585e-05 0)
(0.0181962 0.000979901 0)
(0.0169166 0.00148191 0)
(0.0152037 0.00170922 0)
(0.013074 0.00185399 0)
(0.0104895 0.00208916 0)
(0.00736465 0.00252164 0)
(0.00359709 0.00317767 0)
(-0.000934032 0.00404551 0)
(-0.00638936 0.00513467 0)
(-0.0128939 0.00646765 0)
(-0.0205684 0.00807987 0)
(-0.0294994 0.00998022 0)
(-0.0396726 0.0121146 0)
(-0.0510561 0.0143994 0)
(-0.0635188 0.0167152 0)
(-0.076813 0.0189383 0)
(-0.0906401 0.0209749 0)
(-0.104635 0.0227294 0)
(-0.118484 0.0241425 0)
(-0.131849 0.0251503 0)
(-0.144467 0.0257336 0)
(-0.156169 0.0258844 0)
(-0.166903 0.0255967 0)
(-0.176593 0.0249202 0)
(-0.185308 0.0238876 0)
(-0.193042 0.0225429 0)
(-0.199835 0.0209563 0)
(-0.20571 0.0191735 0)
(-0.210694 0.0172406 0)
(-0.214799 0.0151871 0)
(-0.218039 0.0130478 0)
(-0.220426 0.0108351 0)
(-0.221958 0.00856007 0)
(-0.222635 0.00623217 0)
(-0.222448 0.00385092 0)
(-0.221389 0.00141676 0)
(-0.219453 -0.00107835 0)
(-0.216583 -0.0036548 0)
(-0.212776 -0.00629884 0)
(-0.208007 -0.0089864 0)
(-0.202261 -0.011725 0)
(-0.195504 -0.0144947 0)
(-0.187729 -0.0172776 0)
(-0.178922 -0.0200442 0)
(-0.169088 -0.0227543 0)
(-0.158241 -0.025353 0)
(-0.146423 -0.0277673 0)
(-0.133708 -0.029927 0)
(-0.120189 -0.0317422 0)
(-0.105983 -0.0331106 0)
(-0.0912753 -0.0339426 0)
(-0.0762814 -0.0341511 0)
(-0.0612283 -0.0336535 0)
(-0.0463983 -0.032404 0)
(-0.0320977 -0.0304093 0)
(-0.0186019 -0.0276655 0)
(-0.00614542 -0.024204 0)
(0.00500579 -0.0200885 0)
(0.0146291 -0.0154378 0)
(0.0225922 -0.0104064 0)
(0.0287662 -0.00518372 0)
(0.0331094 3.14688e-06 0)
(0.0356067 0.00493218 0)
(0.0361227 0.00925292 0)
(0.0345826 0.0126312 0)
(0.0312484 0.0149754 0)
(0.0262457 0.0155826 0)
(0.0197212 0.0145584 0)
(0.0125732 0.0119759 0)
(0.00588554 0.00796141 0)
(0.000786387 0.00298804 0)
(0.00040958 -0.003504 0)
(0.0041859 -0.00935271 0)
(0.00853413 -0.0117161 0)
(0.0120448 -0.0112547 0)
(0.0145837 -0.00921361 0)
(0.0161419 -0.00652153 0)
(0.0168176 -0.00375079 0)
(0.0167028 -0.00124523 0)
(0.015876 0.000797538 0)
(0.0143976 0.0023058 0)
(0.0122643 0.00336029 0)
(0.0094533 0.00414977 0)
(0.00591421 0.0049061 0)
(0.00157738 0.00583064 0)
(-0.00363179 0.00704298 0)
(-0.00980975 0.00859206 0)
(-0.0170771 0.0104929 0)
(-0.0255545 0.0127493 0)
(-0.0353238 0.0153515 0)
(-0.0464015 0.0182684 0)
(-0.0587045 0.0214095 0)
(-0.0720386 0.024631 0)
(-0.0861139 0.0277562 0)
(-0.100569 0.0306162 0)
(-0.115105 0.0331176 0)
(-0.129375 0.0350769 0)
(-0.143089 0.0363917 0)
(-0.155963 0.0370761 0)
(-0.167827 0.037196 0)
(-0.178644 0.036797 0)
(-0.188386 0.0359425 0)
(-0.197112 0.0346703 0)
(-0.204862 0.0330177 0)
(-0.211711 0.0310552 0)
(-0.217697 0.0288284 0)
(-0.222884 0.0263931 0)
(-0.227305 0.0237891 0)
(-0.230993 0.0210581 0)
(-0.233964 0.0182236 0)
(-0.236232 0.0153062 0)
(-0.237802 0.0123185 0)
(-0.23867 0.00926483 0)
(-0.238826 0.00614581 0)
(-0.238258 0.00295701 0)
(-0.236947 -0.000305632 0)
(-0.234873 -0.00364743 0)
(-0.231996 -0.00706445 0)
(-0.22829 -0.0105822 0)
(-0.223726 -0.0141853 0)
(-0.21827 -0.0178672 0)
(-0.211886 -0.0216039 0)
(-0.204551 -0.0253725 0)
(-0.19624 -0.0291387 0)
(-0.186937 -0.032851 0)
(-0.176634 -0.036436 0)
(-0.165344 -0.0397952 0)
(-0.153107 -0.0428254 0)
(-0.139998 -0.0454191 0)
(-0.126109 -0.0474319 0)
(-0.111574 -0.0487176 0)
(-0.0965874 -0.0491664 0)
(-0.0813625 -0.0486537 0)
(-0.0661508 -0.0471019 0)
(-0.0512659 -0.044475 0)
(-0.0370617 -0.040835 0)
(-0.023802 -0.0362458 0)
(-0.0117265 -0.0307888 0)
(-0.00105835 -0.0246123 0)
(0.00804023 -0.0179395 0)
(0.0154511 -0.0110151 0)
(0.0211188 -0.00409284 0)
(0.025056 0.0026018 0)
(0.0273068 0.00875988 0)
(0.0278879 0.0139687 0)
(0.0266574 0.017883 0)
(0.0236496 0.0202003 0)
(0.0190439 0.0204765 0)
(0.0132334 0.0185576 0)
(0.00689287 0.0142414 0)
(0.00106694 0.00675761 0)
(0.000681545 -0.00597108 0)
(0.00487396 -0.0136847 0)
(0.00872901 -0.0154844 0)
(0.0113871 -0.0139258 0)
(0.0129784 -0.0108018 0)
(0.013574 -0.0071699 0)
(0.0133206 -0.00358057 0)
(0.0123046 -0.000342364 0)
(0.0105632 0.00238921 0)
(0.00808428 0.00459998 0)
(0.00480486 0.00640472 0)
(0.000637249 0.0080162 0)
(-0.00451021 0.00967735 0)
(-0.0107246 0.0115913 0)
(-0.0180879 0.0138862 0)
(-0.0266774 0.0166189 0)
(-0.0365541 0.0197967 0)
(-0.0477413 0.0233868 0)
(-0.0601799 0.0272911 0)
(-0.0736996 0.03137 0)
(-0.0880157 0.0354007 0)
(-0.10277 0.0391801 0)
(-0.117604 0.0425781 0)
(-0.13221 0.0453095 0)
(-0.146202 0.0472454 0)
(-0.15926 0.0483957 0)
(-0.171286 0.0487833 0)
(-0.182223 0.0484647 0)
(-0.192119 0.0475449 0)
(-0.201017 0.0461194 0)
(-0.208978 0.0442694 0)
(-0.216093 0.0420661 0)
(-0.222407 0.0395585 0)
(-0.227983 0.0367991 0)
(-0.232868 0.0338293 0)
(-0.237111 0.0306906 0)
(-0.240735 0.0274159 0)
(-0.243768 0.0240355 0)
(-0.246223 0.0205626 0)
(-0.248104 0.0170108 0)
(-0.249411 0.0133886 0)
(-0.250139 0.00969095 0)
(-0.250275 0.00591267 0)
(-0.249804 0.0020434 0)
(-0.248709 -0.00192478 0)
(-0.246957 -0.00600057 0)
(-0.244511 -0.0101868 0)
(-0.241335 -0.0144958 0)
(-0.237395 -0.0189274 0)
(-0.232664 -0.0234848 0)
(-0.227073 -0.0281362 0)
(-0.220586 -0.0328535 0)
(-0.213163 -0.0376013 0)
(-0.204765 -0.042318 0)
(-0.195361 -0.0469188 0)
(-0.184939 -0.0512838 0)
(-0.173488 -0.0552727 0)
(-0.161066 -0.058765 0)
(-0.147726 -0.0615718 0)
(-0.133559 -0.0634976 0)
(-0.118739 -0.0644043 0)
(-0.103445 -0.0641114 0)
(-0.0879276 -0.0624974 0)
(-0.0724319 -0.0594891 0)
(-0.0573134 -0.0551042 0)
(-0.0430007 -0.0494742 0)
(-0.0297628 -0.0427306 0)
(-0.0178308 -0.035078 0)
(-0.00742121 -0.0267776 0)
(0.00131293 -0.0181399 0)
(0.008297 -0.00948478 0)
(0.0135379 -0.00110682 0)
(0.0171035 0.0066859 0)
(0.0190669 0.0135672 0)
(0.0194438 0.019176 0)
(0.0182442 0.0230583 0)
(0.0154788 0.0247611 0)
(0.0113531 0.0239611 0)
(0.00622688 0.0200321 0)
(0.000930116 0.0105319 0)
(0.000986876 -0.0088368 0)
(0.00509097 -0.0176901 0)
(0.00801317 -0.0183091 0)
(0.00956219 -0.0155697 0)
(0.0100966 -0.0113572 0)
(0.00966814 -0.00682983 0)
(0.00842323 -0.00245015 0)
(0.00640638 0.00153636 0)
(0.00360152 0.00503253 0)
(-5.92174e-05 0.00807406 0)
(-0.00468134 0.0108106 0)
(-0.0103787 0.0134649 0)
(-0.0172528 0.0162699 0)
(-0.025384 0.0194123 0)
(-0.0348277 0.0230019 0)
(-0.0455999 0.0270628 0)
(-0.0576579 0.0315423 0)
(-0.0708804 0.0363482 0)
(-0.0850485 0.0412532 0)
(-0.0998 0.0459983 0)
(-0.114781 0.0504215 0)
(-0.129643 0.054165 0)
(-0.143929 0.0570386 0)
(-0.157265 0.0589733 0)
(-0.169513 0.0599307 0)
(-0.180668 0.0599942 0)
(-0.190781 0.0592898 0)
(-0.199925 0.0579503 0)
(-0.208186 0.0560889 0)
(-0.215623 0.0537954 0)
(-0.222309 0.0511459 0)
(-0.228299 0.0481968 0)
(-0.233642 0.0450002 0)
(-0.238389 0.041599 0)
(-0.242577 0.0380267 0)
(-0.246236 0.0343144 0)
(-0.249382 0.0304887 0)
(-0.252037 0.0265732 0)
(-0.25421 0.0225774 0)
(-0.255902 0.0185058 0)
(-0.257115 0.0143616 0)
(-0.257847 0.0101321 0)
(-0.258092 0.00580675 0)
(-0.257841 0.00136738 0)
(-0.257094 -0.00320692 0)
(-0.255822 -0.00793094 0)
(-0.253997 -0.0128102 0)
(-0.251575 -0.0178478 0)
(-0.248505 -0.0230423 0)
(-0.244738 -0.0283984 0)
(-0.240227 -0.0339025 0)
(-0.234881 -0.0395066 0)
(-0.228636 -0.0451698 0)
(-0.221416 -0.0508196 0)
(-0.21319 -0.0563901 0)
(-0.203982 -0.061808 0)
(-0.193636 -0.0668342 0)
(-0.182195 -0.0713384 0)
(-0.169701 -0.0751057 0)
(-0.156142 -0.0778661 0)
(-0.141704 -0.0794619 0)
(-0.126509 -0.0796475 0)
(-0.110795 -0.07828 0)
(-0.0948235 -0.0751959 0)
(-0.0788736 -0.070368 0)
(-0.063357 -0.0638761 0)
(-0.0487613 -0.055994 0)
(-0.035349 -0.0469425 0)
(-0.023393 -0.0370355 0)
(-0.0131147 -0.0266609 0)
(-0.00464539 -0.0162255 0)
(0.00198787 -0.00611412 0)
(0.00685179 0.00332627 0)
(0.0100709 0.011772 0)
(0.0117618 0.0188948 0)
(0.0119905 0.024268 0)
(0.0107678 0.0274061 0)
(0.00818753 0.0278294 0)
(0.00460419 0.0246086 0)
(0.000554776 0.0136358 0)
(0.00123948 -0.0118576 0)
(0.00476877 -0.0208558 0)
(0.00639971 -0.0200456 0)
(0.00684465 -0.0160344 0)
(0.00623256 -0.0108281 0)
(0.00474566 -0.00545505 0)
(0.0024536 -0.000283946 0)
(-0.000652285 0.00450659 0)
(-0.00463655 0.00887387 0)
(-0.00960223 0.0128909 0)
(-0.0156686 0.0167237 0)
(-0.0229467 0.0205866 0)
(-0.0315216 0.0246864 0)
(-0.0414394 0.0291732 0)
(-0.0526934 0.0341077 0)
(-0.065196 0.0394473 0)
(-0.0788098 0.0450628 0)
(-0.093241 0.0507095 0)
(-0.108095 0.0561659 0)
(-0.123039 0.0610643 0)
(-0.137604 0.0651281 0)
(-0.151307 0.0681489 0)
(-0.163926 0.0700333 0)
(-0.175432 0.0708341 0)
(-0.185884 0.0706863 0)
(-0.19535 0.0697319 0)
(-0.203923 0.0681028 0)
(-0.211687 0.0659228 0)
(-0.218716 0.0632909 0)
(-0.225064 0.0602902 0)
(-0.230784 0.056987 0)
(-0.235918 0.0534294 0)
(-0.240507 0.0496628 0)
(-0.244587 0.0457241 0)
(-0.248184 0.0416462 0)
(-0.251319 0.0374573 0)
(-0.254005 0.0331843 0)
(-0.256253 0.0288434 0)
(-0.258075 0.0244409 0)
(-0.259507 0.0199056 0)
(-0.260547 0.0153059 0)
(-0.261184 0.0106234 0)
(-0.261408 0.00584888 0)
(-0.261208 0.00096505 0)
(-0.260571 -0.00404726 0)
(-0.259526 -0.00921193 0)
(-0.258057 -0.0145528 0)
(-0.256165 -0.0201006 0)
(-0.253833 -0.0258836 0)
(-0.251026 -0.0319257 0)
(-0.247723 -0.0382278 0)
(-0.243825 -0.044701 0)
(-0.239232 -0.0513301 0)
(-0.23384 -0.0580537 0)
(-0.227503 -0.0647598 0)
(-0.220013 -0.0712669 0)
(-0.211282 -0.0773607 0)
(-0.20123 -0.0828891 0)
(-0.190111 -0.0878054 0)
(-0.177637 -0.0916309 0)
(-0.164007 -0.0941826 0)
(-0.149288 -0.0951443 0)
(-0.1337 -0.0943209 0)
(-0.117461 -0.0914987 0)
(-0.100904 -0.0866107 0)
(-0.0843128 -0.0796081 0)
(-0.0682541 -0.0707485 0)
(-0.0532432 -0.0604206 0)
(-0.0395598 -0.0489537 0)
(-0.0275157 -0.0368087 0)
(-0.0173353 -0.0244958 0)
(-0.00912077 -0.0125151 0)
(-0.00284935 -0.00131126 0)
(0.00161863 0.00874878 0)
(0.00448164 0.0173507 0)
(0.00589934 0.0241296 0)
(0.00596128 0.0286275 0)
(0.00473872 0.0302299 0)
(0.00261702 0.0277056 0)
(9.30785e-05 0.0155867 0)
(0.00134797 -0.0146963 0)
(0.0037891 -0.0228935 0)
(0.00419898 -0.0205652 0)
(0.00341418 -0.0152876 0)
(0.00165964 -0.00919402 0)
(-0.000913751 -0.00300647 0)
(-0.00430361 0.00298509 0)
(-0.00856645 0.00865702 0)
(-0.013799 0.0140035 0)
(-0.0201147 0.0191171 0)
(-0.0276234 0.024161 0)
(-0.0364121 0.029325 0)
(-0.0465258 0.0347714 0)
(-0.057952 0.0405863 0)
(-0.0705969 0.046764 0)
(-0.0842893 0.053165 0)
(-0.0986988 0.0595369 0)
(-0.113459 0.0656038 0)
(-0.128126 0.070984 0)
(-0.142211 0.0753671 0)
(-0.155312 0.0785227 0)
(-0.167314 0.0804311 0)
(-0.178229 0.0811894 0)
(-0.188117 0.0809532 0)
(-0.197066 0.0798554 0)
(-0.205166 0.078044 0)
(-0.212508 0.0756409 0)
(-0.219153 0.0727556 0)
(-0.225157 0.0694728 0)
(-0.230561 0.0658663 0)
(-0.235403 0.0619951 0)
(-0.239717 0.0579077 0)
(-0.243531 0.0536476 0)
(-0.246865 0.0492565 0)
(-0.249732 0.044773 0)
(-0.25218 0.0401837 0)
(-0.254291 0.0354779 0)
(-0.256054 0.0306975 0)
(-0.257484 0.0258389 0)
(-0.258568 0.0209673 0)
(-0.259309 0.0160107 0)
(-0.259717 0.0109653 0)
(-0.259799 0.00581758 0)
(-0.25956 0.000552235 0)
(-0.25901 -0.00484476 0)
(-0.258167 -0.0103908 0)
(-0.257011 -0.0161133 0)
(-0.255536 -0.0220301 0)
(-0.253726 -0.0281565 0)
(-0.251555 -0.0344933 0)
(-0.248984 -0.0410761 0)
(-0.246008 -0.0479977 0)
(-0.242585 -0.0552066 0)
(-0.23866 -0.0626734 0)
(-0.234153 -0.0703487 0)
(-0.228976 -0.0781804 0)
(-0.222906 -0.0857828 0)
(-0.2156 -0.0929374 0)
(-0.206609 -0.0991601 0)
(-0.19599 -0.104229 0)
(-0.183862 -0.108008 0)
(-0.170277 -0.110096 0)
(-0.155397 -0.110234 0)
(-0.139385 -0.108092 0)
(-0.122599 -0.103567 0)
(-0.105317 -0.0965339 0)
(-0.0879662 -0.087062 0)
(-0.0712605 -0.075618 0)
(-0.0557489 -0.0627145 0)
(-0.0417625 -0.0488145 0)
(-0.0296451 -0.034536 0)
(-0.0196113 -0.0205129 0)
(-0.0117251 -0.00733313 0)
(-0.00589416 0.00452039 0)
(-0.0018899 0.0146846 0)
(0.000568406 0.0228547 0)
(0.00169303 0.0286228 0)
(0.00165397 0.0313181 0)
(0.000779232 0.0293154 0)
(-0.000271607 0.0163145 0)
(0.00126997 -0.0170565 0)
(0.00238817 -0.0236595 0)
(0.00149801 -0.0197378 0)
(-0.000507747 -0.0133879 0)
(-0.00338582 -0.00645275 0)
(-0.00706366 0.000548836 0)
(-0.0115827 0.00740477 0)
(-0.0170326 0.0140317 0)
(-0.0235207 0.0204422 0)
(-0.0311506 0.026728 0)
(-0.0400055 0.0330322 0)
(-0.0501304 0.039502 0)
(-0.0615099 0.046235 0)
(-0.0740711 0.0532519 0)
(-0.0876295 0.0604341 0)
(-0.101825 0.0675252 0)
(-0.116309 0.0741925 0)
(-0.130603 0.0800663 0)
(-0.144165 0.0847897 0)
(-0.156755 0.0881822 0)
(-0.168249 0.0902266 0)
(-0.178672 0.0910635 0)
(-0.188088 0.0908206 0)
(-0.196594 0.0896678 0)
(-0.204276 0.0877432 0)
(-0.211215 0.0851856 0)
(-0.217473 0.0821 0)
(-0.223097 0.0785822 0)
(-0.228125 0.0747078 0)
(-0.232593 0.0705451 0)
(-0.236533 0.0661502 0)
(-0.239975 0.061573 0)
(-0.242942 0.0568573 0)
(-0.245513 0.0520039 0)
(-0.247719 0.04705 0)
(-0.249572 0.0420451 0)
(-0.251044 0.0370165 0)
(-0.252155 0.0319354 0)
(-0.252924 0.0268038 0)
(-0.25339 0.021621 0)
(-0.253595 0.0163709 0)
(-0.253565 0.0110525 0)
(-0.253323 0.00565009 0)
(-0.25289 0.000142176 0)
(-0.252288 -0.00550041 0)
(-0.251487 -0.0112926 0)
(-0.250506 -0.0172728 0)
(-0.249341 -0.0234714 0)
(-0.247993 -0.0299197 0)
(-0.246449 -0.0366393 0)
(-0.24469 -0.043643 0)
(-0.242689 -0.0509343 0)
(-0.240401 -0.0585063 0)
(-0.23776 -0.0663324 0)
(-0.234681 -0.074348 0)
(-0.231033 -0.0824524 0)
(-0.226815 -0.0908796 0)
(-0.221881 -0.0992821 0)
(-0.215998 -0.107408 0)
(-0.208774 -0.114633 0)
(-0.199478 -0.120279 0)
(-0.187922 -0.123807 0)
(-0.174629 -0.125367 0)
(-0.159589 -0.124399 0)
(-0.143212 -0.120767 0)
(-0.12577 -0.114255 0)
(-0.107644 -0.104786 0)
(-0.0894348 -0.0926214 0)
(-0.0719902 -0.0784134 0)
(-0.055947 -0.0628608 0)
(-0.0416887 -0.0465865 0)
(-0.0295797 -0.0303665 0)
(-0.0198111 -0.0149574 0)
(-0.0123889 -0.00102071 0)
(-0.00712216 0.0109422 0)
(-0.00366071 0.020596 0)
(-0.00163739 0.0276032 0)
(-0.000715983 0.0312211 0)
(-0.00050334 0.0296505 0)
(-0.000377696 0.0161522 0)
(0.0010357 -0.0184245 0)
(0.000699275 -0.0230397 0)
(-0.00151834 -0.0176162 0)
(-0.00469142 -0.0103375 0)
(-0.00868521 -0.00259893 0)
(-0.0134723 0.00522679 0)
(-0.0191218 0.0129868 0)
(-0.0257396 0.0206204 0)
(-0.0334262 0.0281387 0)
(-0.0422603 0.0356146 0)
(-0.0522849 0.0431532 0)
(-0.0634874 0.0508424 0)
(-0.0758107 0.0587194 0)
(-0.0890905 0.0666952 0)
(-0.102968 0.0745071 0)
(-0.117059 0.081812 0)
(-0.130911 0.0882344 0)
(-0.14403 0.0933877 0)
(-0.156175 0.0971166 0)
(-0.167251 0.0994318 0)
(-0.177249 0.100423 0)
(-0.186262 0.100267 0)
(-0.19437 0.0991244 0)
(-0.201663 0.0971557 0)
(-0.208206 0.0944911 0)
(-0.21406 0.0912508 0)
(-0.219266 0.0875284 0)
(-0.223863 0.0834112 0)
(-0.227885 0.0789718 0)
(-0.231369 0.0742759 0)
(-0.234353 0.0693792 0)
(-0.236873 0.0643301 0)
(-0.238975 0.0591669 0)
(-0.24066 0.0539416 0)
(-0.241965 0.048659 0)
(-0.242926 0.043332 0)
(-0.243573 0.0379705 0)
(-0.243971 0.0325805 0)
(-0.244162 0.027173 0)
(-0.244161 0.0217493 0)
(-0.24398 0.0162941 0)
(-0.243645 0.0107956 0)
(-0.243171 0.00523323 0)
(-0.24258 -0.000417675 0)
(-0.241871 -0.00618595 0)
(-0.241051 -0.012099 0)
(-0.240144 -0.0181885 0)
(-0.239157 -0.0244882 0)
(-0.238099 -0.0310325 0)
(-0.236971 -0.0378556 0)
(-0.235772 -0.0449906 0)
(-0.234494 -0.0524668 0)
(-0.233115 -0.0603004 0)
(-0.231599 -0.0684921 0)
(-0.229875 -0.0770093 0)
(-0.227844 -0.0857742 0)
(-0.225395 -0.0946642 0)
(-0.222368 -0.103528 0)
(-0.218526 -0.112218 0)
(-0.213837 -0.12085 0)
(-0.207958 -0.128809 0)
(-0.200344 -0.135202 0)
(-0.18993 -0.138907 0)
(-0.176904 -0.139647 0)
(-0.161824 -0.13751 0)
(-0.145011 -0.132181 0)
(-0.126784 -0.123387 0)
(-0.107726 -0.111255 0)
(-0.0885599 -0.0961703 0)
(-0.0703307 -0.0790676 0)
(-0.0537786 -0.0608621 0)
(-0.0393478 -0.0423513 0)
(-0.0273966 -0.0244808 0)
(-0.0180708 -0.00812307 0)
(-0.0112872 0.00600348 0)
(-0.00671004 0.0174056 0)
(-0.003828 0.0257421 0)
(-0.0021803 0.0301567 0)
(-0.00115373 0.0290408 0)
(-0.000342161 0.0155439 0)
(0.000732458 -0.0188018 0)
(-0.00117503 -0.0210216 0)
(-0.00465154 -0.0142803 0)
(-0.00895275 -0.00614627 0)
(-0.0140467 0.00236303 0)
(-0.0199193 0.0110145 0)
(-0.0266616 0.0196986 0)
(-0.0343777 0.0283557 0)
(-0.0431486 0.0369762 0)
(-0.0530174 0.0455975 0)
(-0.063976 0.0542722 0)
(-0.0759794 0.0630357 0)
(-0.0888901 0.0718276 0)
(-0.10238 0.0803915 0)
(-0.116043 0.0883768 0)
(-0.12945 0.0954063 0)
(-0.142177 0.101115 0)
(-0.153947 0.105308 0)
(-0.164659 0.107986 0)
(-0.174307 0.109242 0)
(-0.18296 0.109251 0)
(-0.190711 0.108195 0)
(-0.197629 0.106233 0)
(-0.203781 0.10351 0)
(-0.209214 0.100145 0)
(-0.213971 0.0962446 0)
(-0.218087 0.0918999 0)
(-0.221604 0.087197 0)
(-0.224562 0.08221 0)
(-0.227006 0.0770067 0)
(-0.228979 0.0716443 0)
(-0.230529 0.0661709 0)
(-0.231701 0.0606238 0)
(-0.232535 0.0550355 0)
(-0.233082 0.0494258 0)
(-0.233383 0.0438145 0)
(-0.233474 0.0382144 0)
(-0.233391 0.0326286 0)
(-0.233157 0.0270526 0)
(-0.232789 0.0214789 0)
(-0.232307 0.0158934 0)
(-0.231725 0.0102787 0)
(-0.231058 0.00461304 0)
(-0.230324 -0.00112642 0)
(-0.229529 -0.00696251 0)
(-0.228685 -0.0129327 0)
(-0.227812 -0.0190657 0)
(-0.226922 -0.0253957 0)
(-0.226032 -0.0319568 0)
(-0.225152 -0.0387851 0)
(-0.224295 -0.0459174 0)
(-0.223468 -0.0533889 0)
(-0.222674 -0.0612297 0)
(-0.2219 -0.0694616 0)
(-0.221115 -0.0780933 0)
(-0.220261 -0.0871153 0)
(-0.219252 -0.0964839 0)
(-0.217949 -0.106067 0)
(-0.216156 -0.115656 0)
(-0.213635 -0.12496 0)
(-0.210073 -0.133661 0)
(-0.205304 -0.141946 0)
(-0.198867 -0.148758 0)
(-0.189819 -0.152832 0)
(-0.177176 -0.1528 0)
(-0.162088 -0.149448 0)
(-0.144688 -0.142129 0)
(-0.125587 -0.130846 0)
(-0.105479 -0.115788 0)
(-0.0853064 -0.0975959 0)
(-0.0663168 -0.0775136 0)
(-0.0493722 -0.0567217 0)
(-0.0349543 -0.0362179 0)
(-0.0233882 -0.017121 0)
(-0.0147365 -0.000407817 0)
(-0.00877649 0.0131692 0)
(-0.00493888 0.0231127 0)
(-0.00269786 0.0284258 0)
(-0.00118611 0.0278741 0)
(-0.00016258 0.0147564 0)
(0.000167343 -0.018046 0)
(-0.00314636 -0.0176767 0)
(-0.00777518 -0.00974437 0)
(-0.0131526 -0.000849554 0)
(-0.0193006 0.00839452 0)
(-0.0262024 0.017861 0)
(-0.0339569 0.0274623 0)
(-0.0426573 0.0371197 0)
(-0.0523548 0.0467867 0)
(-0.0630487 0.0564522 0)
(-0.0747026 0.0661221 0)
(-0.0872051 0.0757529 0)
(-0.10027 0.0851042 0)
(-0.113503 0.0938263 0)
(-0.126491 0.101542 0)
(-0.138864 0.10791 0)
(-0.150328 0.112696 0)
(-0.160736 0.115848 0)
(-0.170091 0.117474 0)
(-0.178438 0.117738 0)
(-0.185864 0.116837 0)
(-0.192437 0.114942 0)
(-0.198212 0.112201 0)
(-0.203235 0.108744 0)
(-0.207547 0.104686 0)
(-0.211189 0.10013 0)
(-0.214208 0.095173 0)
(-0.216656 0.0899029 0)
(-0.21859 0.0843982 0)
(-0.220066 0.0787283 0)
(-0.221142 0.0729508 0)
(-0.221873 0.0671124 0)
(-0.222312 0.0612494 0)
(-0.222508 0.0553908 0)
(-0.222503 0.0495559 0)
(-0.222333 0.0437592 0)
(-0.222024 0.0380049 0)
(-0.2216 0.0322882 0)
(-0.221078 0.0266014 0)
(-0.220472 0.0209327 0)
(-0.219796 0.0152662 0)
(-0.219061 0.00958309 0)
(-0.218279 0.00386173 0)
(-0.217462 -0.00192061 0)
(-0.21662 -0.0077883 0)
(-0.215764 -0.0137736 0)
(-0.214911 -0.0199064 0)
(-0.214077 -0.0262198 0)
(-0.213279 -0.032748 0)
(-0.212535 -0.0395272 0)
(-0.211865 -0.0465948 0)
(-0.211286 -0.0539884 0)
(-0.210815 -0.0617429 0)
(-0.210459 -0.0698884 0)
(-0.210215 -0.0784483 0)
(-0.210067 -0.0874364 0)
(-0.20997 -0.0968481 0)
(-0.209842 -0.106643 0)
(-0.209547 -0.116732 0)
(-0.208882 -0.126932 0)
(-0.207558 -0.136896 0)
(-0.205225 -0.146147 0)
(-0.20142 -0.154337 0)
(-0.195881 -0.161343 0)
(-0.187775 -0.165461 0)
(-0.175619 -0.164871 0)
(-0.160344 -0.160026 0)
(-0.142249 -0.150537 0)
(-0.122133 -0.136461 0)
(-0.100897 -0.118217 0)
(-0.0797399 -0.0967401 0)
(-0.0601206 -0.0736526 0)
(-0.043015 -0.0504512 0)
(-0.0289057 -0.02835 0)
(-0.0180365 -0.00864103 0)
(-0.010339 0.00761737 0)
(-0.00532348 0.0196341 0)
(-0.00244177 0.0262848 0)
(-0.000734796 0.0265769 0)
(9.59922e-05 0.0142265 0)
(-0.000404958 -0.0160432 0)
(-0.00507992 -0.0130401 0)
(-0.0107711 -0.0040888 0)
(-0.0171576 0.00548533 0)
(-0.024287 0.0154231 0)
(-0.0321308 0.0256786 0)
(-0.0407858 0.0361615 0)
(-0.0503257 0.046758 0)
(-0.0607658 0.0573728 0)
(-0.072077 0.0679484 0)
(-0.0841692 0.0784302 0)
(-0.0968013 0.0885932 0)
(-0.109613 0.0981061 0)
(-0.122221 0.10659 0)
(-0.134279 0.11371 0)
(-0.145495 0.119209 0)
(-0.155672 0.122967 0)
(-0.164787 0.125069 0)
(-0.172888 0.12569 0)
(-0.180038 0.125023 0)
(-0.186307 0.123257 0)
(-0.191745 0.120548 0)
(-0.196394 0.117038 0)
(-0.200301 0.112854 0)
(-0.203512 0.108112 0)
(-0.206086 0.102924 0)
(-0.208084 0.097391 0)
(-0.209577 0.0916073 0)
(-0.210632 0.0856526 0)
(-0.211317 0.0795953 0)
(-0.211695 0.0734899 0)
(-0.21182 0.0673784 0)
(-0.211743 0.061292 0)
(-0.211504 0.0552525 0)
(-0.211138 0.0492723 0)
(-0.210668 0.0433567 0)
(-0.210115 0.0375038 0)
(-0.209494 0.0317055 0)
(-0.208815 0.0259505 0)
(-0.208087 0.0202246 0)
(-0.20732 0.014511 0)
(-0.206519 0.00879012 0)
(-0.205693 0.00304083 0)
(-0.204849 -0.00275949 0)
(-0.203995 -0.00863529 0)
(-0.203144 -0.0146145 0)
(-0.202309 -0.0207256 0)
(-0.201506 -0.0269996 0)
(-0.200753 -0.0334687 0)
(-0.200073 -0.0401679 0)
(-0.199488 -0.0471335 0)
(-0.199023 -0.0544037 0)
(-0.198703 -0.0620164 0)
(-0.198547 -0.0700083 0)
(-0.198572 -0.0784128 0)
(-0.198782 -0.0872563 0)
(-0.199166 -0.0965521 0)
(-0.199687 -0.106292 0)
(-0.200273 -0.116441 0)
(-0.200795 -0.126915 0)
(-0.201047 -0.137552 0)
(-0.200725 -0.148053 0)
(-0.199417 -0.15786 0)
(-0.196596 -0.166284 0)
(-0.191699 -0.173092 0)
(-0.18409 -0.176997 0)
(-0.172268 -0.175694 0)
(-0.156626 -0.169206 0)
(-0.137679 -0.157226 0)
(-0.116421 -0.140017 0)
(-0.0940431 -0.1183 0)
(-0.0720232 -0.0933826 0)
(-0.0520484 -0.0673723 0)
(-0.0351662 -0.0420963 0)
(-0.0217915 -0.019015 0)
(-0.0120312 0.000435652 0)
(-0.00555464 0.0151337 0)
(-0.0018819 0.0237695 0)
(-2.98587e-05 0.0254006 0)
(0.00038265 0.0141925 0)
(-0.000982622 -0.0128889 0)
(-0.00689392 -0.00723252 0)
(-0.0135446 0.00260203 0)
(-0.020852 0.0127771 0)
(-0.0288689 0.0233578 0)
(-0.0375431 0.0343543 0)
(-0.0469636 0.0456553 0)
(-0.0571799 0.0570978 0)
(-0.0681778 0.0685354 0)
(-0.0798842 0.0798595 0)
(-0.0920975 0.0908405 0)
(-0.10451 0.101181 0)
(-0.116779 0.110503 0)
(-0.128563 0.118464 0)
(-0.139578 0.124782 0)
(-0.149596 0.129279 0)
(-0.158544 0.131983 0)
(-0.166459 0.133067 0)
(-0.173398 0.132728 0)
(-0.179419 0.131164 0)
(-0.184578 0.128551 0)
(-0.188915 0.125039 0)
(-0.19248 0.12077 0)
(-0.19533 0.115879 0)
(-0.197531 0.110492 0)
(-0.19916 0.104728 0)
(-0.200295 0.0986934 0)
(-0.201014 0.0924818 0)
(-0.201394 0.0861704 0)
(-0.2015 0.0798216 0)
(-0.201391 0.0734825 0)
(-0.201116 0.0671869 0)
(-0.200716 0.0609575 0)
(-0.200221 0.0548073 0)
(-0.199654 0.048741 0)
(-0.199032 0.0427571 0)
(-0.198367 0.0368485 0)
(-0.197665 0.0310046 0)
(-0.196934 0.0252121 0)
(-0.196176 0.0194539 0)
(-0.195394 0.0137128 0)
(-0.194592 0.00797032 0)
(-0.193772 0.00220539 0)
(-0.192941 -0.00360341 0)
(-0.192105 -0.00947905 0)
(-0.191273 -0.0154463 0)
(-0.190457 -0.0215309 0)
(-0.189672 -0.0277606 0)
(-0.188938 -0.0341649 0)
(-0.188275 -0.0407756 0)
(-0.187711 -0.0476267 0)
(-0.187273 -0.0547547 0)
(-0.18699 -0.0621979 0)
(-0.186893 -0.0699959 0)
(-0.187008 -0.0781888 0)
(-0.187357 -0.0868137 0)
(-0.187949 -0.0959007 0)
(-0.188776 -0.105467 0)
(-0.189804 -0.115506 0)
(-0.19096 -0.125978 0)
(-0.192116 -0.136795 0)
(-0.193066 -0.147792 0)
(-0.193493 -0.158685 0)
(-0.192951 -0.168966 0)
(-0.190866 -0.177786 0)
(-0.186484 -0.184259 0)
(-0.179064 -0.187641 0)
(-0.167221 -0.18532 0)
(-0.150973 -0.176849 0)
(-0.130981 -0.161949 0)
(-0.108502 -0.141206 0)
(-0.0850407 -0.115682 0)
(-0.06244 -0.0872339 0)
(-0.0425741 -0.0585717 0)
(-0.0264833 -0.031783 0)
(-0.0144083 -0.00863086 0)
(-0.00621091 0.00938132 0)
(-0.00151985 0.0207397 0)
(0.000607367 0.0243487 0)
(0.000586805 0.0145874 0)
(-0.00153208 -0.0086453 0)
(-0.00852756 -0.000372007 0)
(-0.0160259 0.0102246 0)
(-0.0241513 0.0209233 0)
(-0.0329395 0.0320855 0)
(-0.0423137 0.0437572 0)
(-0.0523514 0.055789 0)
(-0.0630749 0.0679646 0)
(-0.0744352 0.0800792 0)
(-0.0862583 0.0918659 0)
(-0.098303 0.103042 0)
(-0.110269 0.113254 0)
(-0.12182 0.122126 0)
(-0.132681 0.129358 0)
(-0.142602 0.134718 0)
(-0.151462 0.138163 0)
(-0.159264 0.139829 0)
(-0.166063 0.139926 0)
(-0.171912 0.138656 0)
(-0.176863 0.136212 0)
(-0.180964 0.132763 0)
(-0.184266 0.128466 0)
(-0.186836 0.123473 0)
(-0.18875 0.117928 0)
(-0.190093 0.111968 0)
(-0.190954 0.105714 0)
(-0.191421 0.0992738 0)
(-0.191573 0.092734 0)
(-0.191483 0.086164 0)
(-0.19121 0.0796164 0)
(-0.190804 0.0731278 0)
(-0.190303 0.0667224 0)
(-0.189736 0.0604135 0)
(-0.189125 0.0542058 0)
(-0.188484 0.0480976 0)
(-0.18782 0.0420819 0)
(-0.187139 0.0361476 0)
(-0.186443 0.0302811 0)
(-0.185731 0.0244684 0)
(-0.185003 0.018692 0)
(-0.184259 0.0129327 0)
(-0.183498 0.00717372 0)
(-0.18272 0.00139565 0)
(-0.18193 -0.00442189 0)
(-0.18113 -0.0102993 0)
(-0.180328 -0.0162586 0)
(-0.179535 -0.0223222 0)
(-0.178765 -0.0285144 0)
(-0.178035 -0.0348609 0)
(-0.177366 -0.0413896 0)
(-0.176784 -0.048131 0)
(-0.17632 -0.0551184 0)
(-0.176004 -0.0623883 0)
(-0.175872 -0.0699803 0)
(-0.17596 -0.0779367 0)
(-0.176299 -0.0863013 0)
(-0.176916 -0.0951162 0)
(-0.177825 -0.104418 0)
(-0.179019 -0.114229 0)
(-0.180463 -0.124548 0)
(-0.182079 -0.135336 0)