/*--------------------------------*- C++ -*----------------------------------*\
  =========                 |
  \\      /  F ield         | OpenFOAM: The Open Source CFD Toolbox
   \\    /   O peration     | Website:  https://openfoam.org
    \\  /    A nd           | Version:  13
     \\/     M anipulation  |
\*---------------------------------------------------------------------------*/
FoamFile
{
    format      ascii;
    class       volScalarField;
    location    "1300";
    object      k;
}
// * * * * * * * * * * * * * * * * * * * * * * * * * * * * * * * * * * * * * //

dimensions      [0 2 -2 0 0 0 0];

internalField   nonuniform List<scalar> 
12225
(
0.666972
1.76082
2.84021
2.12725
2.48822
2.05954
1.78492
1.61886
1.4083
2.32426
2.49089
2.29389
2.66467
2.19519
1.58655
1.42103
2.12179
2.66587
0.416563
0.249895
0.338916
0.362732
0.374183
0.389872
0.386278
0.350495
0.408953
0.425815
0.403971
0.421393
0.416169
0.431441
0.429704
0.454559
0.486823
0.596648
0.361891
0.273315
0.153558
0.0872596
0.0709027
0.0637801
0.0592268
0.0748079
0.090545
0.103147
0.106097
0.110482
0.114811
0.114713
0.125056
0.146015
0.157135
0.173655
0.305472
0.257515
0.177251
0.119514
0.10163
0.0823318
0.0808808
0.0880648
0.0877347
0.115763
0.115293
0.125375
0.125433
0.121249
0.117261
0.112253
0.105316
0.0984753
0.305837
0.264706
0.184455
0.149663
0.148161
0.125258
0.12113
0.118292
0.152432
0.150363
0.16669
0.171527
0.162209
0.151625
0.140006
0.130233
0.124403
0.117536
0.319937
0.31497
0.281961
0.253459
0.252911
0.226506
0.21877
0.213805
0.235111
0.227558
0.237196
0.238285
0.233741
0.224951
0.218429
0.20924
0.205095
0.196952
0.337036
0.3416
0.335579
0.318525
0.319412
0.301839
0.295563
0.290203
0.288562
0.293756
0.296142
0.292535
0.288605
0.281955
0.277841
0.270994
0.267608
0.261209
0.355963
0.358224
0.356653
0.349219
0.345627
0.3406
0.33293
0.329546
0.330837
0.329681
0.327663
0.323481
0.320076
0.315186
0.312111
0.307365
0.304761
0.300186
0.368779
0.366978
0.364866
0.361361
0.358372
0.355482
0.352469
0.349789
0.347715
0.345142
0.342625
0.33938
0.336691
0.333331
0.330876
0.32758
0.325437
0.322228
0.372865
0.370369
0.368156
0.365585
0.363236
0.360928
0.358755
0.356503
0.354403
0.352074
0.349883
0.347411
0.345258
0.342825
0.340856
0.338501
0.33675
0.334444
0.37368
0.371359
0.369153
0.366942
0.364889
0.362885
0.360979
0.359037
0.357167
0.355211
0.353359
0.351412
0.349644
0.347771
0.346141
0.344348
0.342875
0.341138
0.37381
0.371527
0.369372
0.367286
0.36533
0.363441
0.361645
0.359862
0.35815
0.356428
0.35479
0.353135
0.351595
0.350027
0.348604
0.347116
0.345818
0.344391
0.373829
0.371554
0.369408
0.36736
0.36543
0.363584
0.361833
0.360134
0.358512
0.356924
0.355414
0.353929
0.35253
0.351143
0.349853
0.348554
0.347371
0.346145
0.373829
0.371556
0.369407
0.367365
0.365434
0.363596
0.361855
0.360188
0.358604
0.357079
0.355631
0.354233
0.352907
0.351621
0.350406
0.349219
0.348105
0.347005
0.373827
0.371554
0.369401
0.367358
0.365422
0.363583
0.361839
0.360178
0.358599
0.357093
0.355661
0.354292
0.352989
0.351741
0.350553
0.349414
0.348328
0.347284
0.373826
0.371552
0.369396
0.367351
0.365412
0.36357
0.361821
0.360158
0.358578
0.357073
0.355641
0.354275
0.352975
0.351734
0.350551
0.349421
0.348342
0.347312
0.373825
0.37155
0.369392
0.367346
0.365404
0.36356
0.361809
0.360144
0.35856
0.357053
0.355618
0.354251
0.352948
0.351705
0.35052
0.34939
0.34831
0.34728
0.373825
0.371549
0.369391
0.367343
0.3654
0.363555
0.361802
0.360135
0.358549
0.35704
0.355603
0.354234
0.352929
0.351684
0.350497
0.349365
0.348283
0.347251
0.373825
0.371549
0.369391
0.367343
0.3654
0.363554
0.361801
0.360133
0.358547
0.357037
0.355599
0.354229
0.352923
0.351678
0.350489
0.349355
0.348273
0.347239
0.373825
0.371551
0.369392
0.367347
0.365404
0.363562
0.361808
0.360142
0.358554
0.357043
0.355602
0.35423
0.352919
0.35167
0.350476
0.349337
0.348248
0.34721
0.373827
0.371551
0.369396
0.367351
0.365415
0.363571
0.361811
0.360128
0.358516
0.356976
0.355501
0.354095
0.352744
0.351458
0.35022
0.349047
0.347917
0.346856
0.373832
0.371551
0.369393
0.367348
0.365419
0.363529
0.361666
0.359824
0.358016
0.356278
0.354594
0.353002
0.351451
0.349998
0.348578
0.347268
0.345984
0.344831
0.373845
0.371548
0.369322
0.367236
0.365218
0.36295
0.360485
0.357861
0.355217
0.352697
0.350291
0.348104
0.345969
0.344078
0.342173
0.340528
0.338857
0.337445
0.373872
0.371529
0.368846
0.366472
0.363733
0.359774
0.355095
0.349929
0.344742
0.340028
0.335844
0.332252
0.328908
0.32617
0.323303
0.321078
0.318595
0.316614
0.373995
0.371182
0.367325
0.363589
0.356846
0.346468
0.334413
0.321459
0.309564
0.299405
0.291143
0.284573
0.278943
0.274573
0.270435
0.26767
0.263988
0.262214
0.374098
0.371097
0.366959
0.358591
0.336737
0.305113
0.26995
0.233673
0.202648
0.174698
0.154905
0.14023
0.128477
0.124092
0.119176
0.118035
0.114429
0.113455
0.374237
0.371766
0.366135
0.35641
0.330818
0.282901
0.225128
0.165227
0.117027
0.0793656
0.0527032
0.0390066
0.0313083
0.0284016
0.0262692
0.0258714
0.0269125
0.0362872
0.37541
0.375399
0.375023
0.365197
0.320152
0.252096
0.18441
0.125906
0.0819711
0.0592399
0.0452586
0.0411017
0.0331868
0.0347388
0.029687
0.0310215
0.0294525
0.0302695
0.39057
0.4077
0.455443
0.434324
0.451873
0.461635
0.429687
0.376488
0.373138
0.378088
0.377416
0.377599
0.374196
0.371583
0.323715
0.330748
0.311613
0.309608
0.719439
1.15447
1.42524
1.56431
1.60323
1.59518
1.57426
1.53085
1.48134
1.43023
1.38033
1.33343
1.29007
1.2511
1.21479
1.18309
1.15561
1.13106
1.67008e-08
4.11421e-07
2.10021e-06
8.27926e-06
2.77267e-05
8.49426e-05
0.000222349
0.000442567
0.000716481
0.00100279
0.00125524
0.00144793
0.00157267
0.0016074
0.00158092
0.00150393
0.00137175
0.00115846
0.000978466
0.000827263
0.000685205
0.000548081
0.000417398
0.000296785
0.000191875
0.000112352
6.04062e-05
3.11913e-05
1.62871e-05
9.00135e-06
5.46936e-06
4.0052e-06
4.55489e-06
8.60531e-06
2.51279e-05
6.52196e-05
0.000221909
0.000505933
0.00082771
0.00100197
0.000951675
0.000795981
0.000626686
0.000537929
0.000556516
0.000692944
0.00089167
0.00157242
0.00299004
0.00791615
0.0259905
0.0598824
0.0936682
0.106022
0.0894006
0.11467
0.124272
0.131369
0.126009
0.149463
0.136142
0.141483
0.158846
0.156469
0.162247
0.176225
0.18207
0.190778
0.198415
0.206107
0.213661
0.22109
0.228459
0.235732
0.242957
0.250119
0.257239
0.264313
0.271353
0.278351
0.285323
0.292254
0.299162
0.306024
0.312864
0.319652
0.326409
0.333108
0.339764
0.346352
0.352883
0.359335
0.365704
0.371974
0.378133
0.384167
0.39006
0.395798
0.401364
0.406745
0.411931
0.416923
0.421736
0.426413
0.431034
0.435443
0.439707
0.443802
0.447728
0.451482
0.455059
0.458456
0.461672
0.464701
0.467547
0.470202
0.472671
0.474948
0.477036
0.478931
0.480635
0.482144
0.483463
0.484588
0.48552
0.486255
0.48679
0.487119
0.487225
0.487135
0.487057
0.486759
0.486151
0.485398
0.484502
0.48346
0.482234
0.480772
0.478978
0.477042
0.474886
0.472477
0.46997
0.467195
0.464287
0.461214
0.458053
0.45463
0.451205
0.447549
0.443795
0.440011
0.43604
0.432017
0.427905
0.423746
0.419496
0.415178
0.410816
0.406478
0.40217
0.397915
0.39373
0.389639
0.385648
0.381776
0.378034
0.374432
0.370974
0.36767
0.364521
0.361532
0.358685
0.355952
0.353279
0.350574
0.347697
0.344346
0.340125
0.325978
8.02867e-08
2.25215e-06
1.51745e-05
6.55137e-05
0.000239341
0.000710107
0.00165257
0.00300067
0.00456254
0.00615744
0.00759729
0.00877374
0.00962045
0.0101571
0.0103746
0.0103228
0.0101458
0.00977884
0.00919359
0.00839215
0.0073974
0.00624804
0.00501842
0.00376006
0.00260174
0.00171796
0.00108886
0.00067295
0.000407514
0.00024817
0.000158727
0.000112781
0.000101531
0.000135145
0.000337572
0.000723553
0.00237709
0.00508482
0.00795696
0.00992072
0.0103087
0.00997095
0.00915626
0.00931269
0.0111174
0.01525
0.0212696
0.0324239
0.0512938
0.0758542
0.100509
0.124959
0.144398
0.159917
0.170561
0.185461
0.199573
0.216558
0.231164
0.248613
0.265089
0.284177
0.303382
0.320935
0.339798
0.3585
0.376512
0.394391
0.412066
0.429501
0.446806
0.463957
0.481015
0.497982
0.514892
0.53175
0.548577
0.565375
0.582159
0.598927
0.61569
0.632443
0.649194
0.665936
0.682673
0.699396
0.716107
0.73279
0.749444
0.766057
0.782618
0.799113
0.815524
0.831828
0.848
0.864016
0.879847
0.895467
0.91084
0.925935
0.94071
0.955127
0.969141
0.982715
0.99583
1.00872
1.02127
1.03352
1.04543
1.05701
1.06822
1.07908
1.08955
1.09964
1.10933
1.11862
1.12751
1.13597
1.14402
1.15163
1.15882
1.16557
1.17188
1.17775
1.18317
1.18813
1.19263
1.19666
1.20023
1.20334
1.20601
1.20818
1.20988
1.211
1.21172
1.21205
1.21213
1.2116
1.21092
1.20969
1.20783
1.20551
1.20258
1.1992
1.19524
1.19088
1.18591
1.1806
1.1747
1.16845
1.16185
1.15474
1.14742
1.13962
1.13162
1.12325
1.11467
1.10582
1.0968
1.08772
1.07858
1.06945
1.06037
1.05138
1.04252
1.03383
1.02534
1.01706
1.00903
1.00126
0.993771
0.986561
0.979628
0.972922
0.966379
0.959855
0.953122
0.945859
0.936296
0.912862
2.0366e-07
6.08843e-06
4.61478e-05
0.000215733
0.000678823
0.00187375
0.00384199
0.00613549
0.00843197
0.0105078
0.0122355
0.0135558
0.014472
0.0150228
0.0152361
0.0151923
0.0150321
0.0146656
0.0141566
0.0135161
0.012745
0.0118334
0.0107609
0.00955482
0.00817284
0.00662887
0.00504618
0.00364312
0.00241329
0.00159485
0.001083
0.000789286
0.000626779
0.000505451
0.0017046
0.00368888
0.009944
0.0173569
0.0232511
0.0270206
0.0287382
0.0293809
0.0323511
0.0411484
0.0568654
0.0732549
0.0910084
0.111301
0.131783
0.151447
0.172593
0.193291
0.213881
0.234321
0.258355
0.284743
0.312412
0.340426
0.368793
0.397344
0.424465
0.451474
0.47786
0.50365
0.529133
0.553929
0.578284
0.602269
0.62594
0.649351
0.672563
0.695612
0.718537
0.741363
0.764114
0.786802
0.809442
0.832037
0.854595
0.877116
0.8996
0.922046
0.944452
0.966812
0.989123
1.01138
1.03357
1.05568
1.07771
1.09963
1.12145
1.14313
1.16467
1.18603
1.2072
1.22815
1.24886
1.26931
1.28948
1.30933
1.32887
1.34808
1.36693
1.38544
1.40358
1.42133
1.43866
1.45555
1.47197
1.48792
1.50336
1.51829
1.53269
1.54654
1.55984
1.57258
1.58474
1.59632
1.60732
1.61772
1.62753
1.63674
1.64534
1.65334
1.66073
1.66751
1.67366
1.67919
1.6841
1.68838
1.69204
1.69506
1.69744
1.69917
1.7002
1.70069
1.70073
1.69989
1.69843
1.69623
1.69327
1.68963
1.68521
1.68013
1.67433
1.66788
1.66069
1.65296
1.64452
1.63557
1.6261
1.61605
1.60561
1.59468
1.58342
1.57177
1.55985
1.5477
1.53536
1.52293
1.51045
1.49799
1.4856
1.47335
1.46127
1.44942
1.43784
1.42653
1.41555
1.4049
1.39462
1.38472
1.37519
1.36602
1.35714
1.34843
1.33965
1.33051
1.31915
1.2979
7.18048e-07
2.15828e-05
0.000168459
0.000713536
0.00206444
0.00494469
0.00836877
0.0117009
0.0145818
0.0168581
0.0185007
0.0195557
0.0201161
0.0202433
0.0201331
0.0198228
0.0193083
0.0186809
0.0179723
0.0171964
0.0163558
0.0154455
0.0144524
0.0133577
0.0121395
0.0107826
0.00929992
0.00775968
0.00630041
0.00486024
0.00374484
0.00276492
0.0025375
0.0033252
0.00757077
0.0180642
0.0309715
0.0414448
0.0492109
0.0553953
0.0625442
0.0726942
0.0859068
0.100741
0.115462
0.131118
0.148797
0.169121
0.190478
0.214418
0.240144
0.267427
0.296153
0.326239
0.357873
0.390226
0.422907
0.455497
0.487865
0.519808
0.551158
0.582028
0.612364
0.642175
0.671554
0.700467
0.729023
0.75728
0.785296
0.813122
0.840803
0.868373
0.89586
0.923284
0.950659
0.977995
1.0053
1.03256
1.05979
1.08698
1.11412
1.14121
1.16824
1.19521
1.2221
1.24891
1.27562
1.30222
1.32871
1.35507
1.38127
1.40732
1.43318
1.45884
1.48427
1.50945
1.53436
1.55897
1.58327
1.60724
1.63086
1.6541
1.67695
1.69938
1.72135
1.74283
1.7638
1.78422
1.80406
1.82331
1.84194
1.85992
1.87725
1.8939
1.90986
1.92511
1.93966
1.95348
1.96657
1.97893
1.99056
2.00144
2.01158
2.02097
2.02961
2.0375
2.04463
2.05101
2.05661
2.06145
2.06553
2.06884
2.07137
2.07308
2.07395
2.07425
2.07375
2.0723
2.07002
2.06688
2.06288
2.05804
2.05232
2.04579
2.03844
2.0303
2.02136
2.01172
2.00132
1.9903
1.97865
1.9664
1.95365
1.94039
1.92672
1.91266
1.89829
1.88367
1.86886
1.85394
1.83898
1.82404
1.80918
1.79449
1.78
1.76576
1.75182
1.73821
1.72495
1.71208
1.69961
1.68758
1.67598
1.66481
1.65401
1.64351
1.63309
1.62253
1.61019
1.59098
2.39078e-06
7.16755e-05
0.000538771
0.00207807
0.00577713
0.0108391
0.0155698
0.0193622
0.0220802
0.0238203
0.0247553
0.0250808
0.0249891
0.024636
0.0240113
0.0232568
0.0224238
0.02155
0.0206583
0.0197593
0.0188494
0.0179217
0.0169619
0.0159477
0.0148555
0.0136599
0.0123469
0.0109502
0.00957177
0.0082457
0.00681147
0.00639265
0.00824081
0.0157895
0.0320513
0.0494872
0.0645116
0.0762756
0.0858177
0.0949945
0.105004
0.116139
0.128397
0.141831
0.15781
0.176945
0.198842
0.22358
0.250634
0.279855
0.310525
0.342474
0.375374
0.409039
0.443304
0.477828
0.512436
0.546973
0.581371
0.615525
0.649375
0.682914
0.716124
0.749015
0.781622
0.813959
0.84608
0.878024
0.909834
0.941546
0.973192
1.0048
1.03638
1.06796
1.09953
1.13109
1.16266
1.1942
1.22573
1.25722
1.28867
1.32007
1.35139
1.38264
1.41379
1.44484
1.47577
1.50658
1.53724
1.56775
1.59808
1.62823
1.65816
1.68786
1.71731
1.74647
1.77533
1.80386
1.83203
1.85983
1.88722
1.91418
1.94066
1.96664
1.99208
2.01695
2.0412
2.06481
2.08775
2.10997
2.13147
2.15221
2.17217
2.19133
2.20968
2.22719
2.24386
2.25967
2.27462
2.28869
2.3019
2.31422
2.32567
2.33624
2.34593
2.35473
2.36264
2.36967
2.3758
2.38103
2.38537
2.38882
2.39137
2.39294
2.39361
2.39362
2.39257
2.39051
2.3875
2.38352
2.37857
2.37267
2.36581
2.35803
2.34933
2.33974
2.32928
2.31802
2.30595
2.29315
2.27966
2.26553
2.25081
2.23556
2.21984
2.20371
2.18723
2.17048
2.15353
2.13644
2.1193
2.10218
2.08515
2.06827
2.05161
2.03522
2.01914
2.0034
1.98803
1.97307
1.95854
1.94446
1.93086
1.91772
1.90503
1.89273
1.88067
1.86864
1.85526
1.83683
7.42035e-06
0.000217835
0.00157273
0.00564427
0.0129211
0.0194045
0.024095
0.0270594
0.0286781
0.0293578
0.0293732
0.0290648
0.0283809
0.0274893
0.0264852
0.02543
0.0243672
0.023326
0.0223215
0.0213575
0.0204259
0.0195144
0.0186028
0.0176638
0.0166738
0.0156075
0.0144232
0.0130811
0.0116206
0.0108548
0.0115612
0.0160117
0.0278753
0.0479828
0.0691229
0.0870839
0.100679
0.110554
0.118615
0.12675
0.135992
0.147072
0.161307
0.178814
0.199568
0.223662
0.250506
0.27959
0.310265
0.342185
0.375004
0.408546
0.44269
0.477353
0.512445
0.547846
0.583469
0.619233
0.655081
0.690932
0.726738
0.762469
0.798108
0.833647
0.869093
0.904457
0.939763
0.975035
1.0103
1.04558
1.0809
1.11627
1.1517
1.18719
1.22275
1.25836
1.294
1.32968
1.36536
1.40102
1.43665
1.47223
1.50774
1.54317
1.57849
1.6137
1.64878
1.68372
1.71849
1.75308
1.78749
1.82168
1.85564
1.88934
1.92276
1.95587
1.98864
2.02105
2.05305
2.08462
2.11573
2.14633
2.17639
2.20587
2.23472
2.26291
2.2904
2.31715
2.34312
2.36828
2.3926
2.41604
2.43858
2.4602
2.48088
2.50059
2.51932
2.53706
2.5538
2.56954
2.58426
2.59797
2.61066
2.62234
2.633
2.64265
2.65128
2.65889
2.66549
2.67106
2.67562
2.67916
2.68168
2.68308
2.68358
2.68319
2.68165
2.67901
2.67531
2.67055
2.66473
2.65786
2.64995
2.64101
2.63107
2.62016
2.60831
2.59555
2.58193
2.56751
2.55233
2.53645
2.51993
2.50282
2.4852
2.46712
2.44866
2.4299
2.4109
2.39176
2.37253
2.35331
2.33417
2.31517
2.29638
2.27786
2.25965
2.24178
2.22429
2.2072
2.19055
2.17437
2.15869
2.1435
2.12881
2.11458
2.10071
2.08703
2.07235
2.05367
2.30816e-05
0.000639711
0.00423022
0.0132264
0.0221167
0.0279655
0.031304
0.0329827
0.0335786
0.0334685
0.0329122
0.0319396
0.0307574
0.0294634
0.0281341
0.0268265
0.0255783
0.0244108
0.0233305
0.0223323
0.0214014
0.0205161
0.0196436
0.0187348
0.0177299
0.0166192
0.0154873
0.0147978
0.015198
0.0184285
0.0271727
0.0440028
0.065859
0.0869699
0.105188
0.118614
0.127703
0.134597
0.141455
0.149927
0.161661
0.176886
0.195656
0.217916
0.243225
0.271067
0.300679
0.331555
0.363344
0.395904
0.429117
0.462924
0.497288
0.532189
0.567605
0.603492
0.639803
0.676475
0.713455
0.750686
0.788124
0.82573
0.863475
0.90134
0.939318
0.977406
1.01561
1.05395
1.09243
1.13106
1.16986
1.20882
1.24795
1.28724
1.32668
1.36625
1.40592
1.44566
1.48545
1.52526
1.56506
1.60482
1.64452
1.68413
1.72364
1.76303
1.80228
1.84137
1.88029
1.91902
1.95754
1.99583
2.03387
2.07163
2.10908
2.14619
2.18293
2.21927
2.25516
2.29056
2.32544
2.35976
2.39345
2.42649
2.45883
2.49041
2.5212
2.55115
2.58021
2.60835
2.63553
2.66171
2.68687
2.71098
2.73401
2.75595
2.77676
2.79644
2.81497
2.83236
2.8486
2.86368
2.8776
2.89037
2.90199
2.91245
2.92177
2.92994
2.93697
2.94286
2.94761
2.95123
2.95369
2.95492
2.95521
2.95441
2.95238
2.94918
2.94481
2.93929
2.93263
2.92482
2.91589
2.90585
2.89472
2.88254
2.86934
2.85515
2.84004
2.82404
2.80722
2.78964
2.77135
2.75243
2.73293
2.71294
2.69252
2.67176
2.65073
2.62952
2.60821
2.58687
2.56559
2.54444
2.52348
2.50278
2.48237
2.46229
2.44258
2.42328
2.4044
2.386
2.3681
2.35073
2.33389
2.31757
2.30171
2.28615
2.26984
2.25021
6.79888e-05
0.00174378
0.00996678
0.0225338
0.0305367
0.0348958
0.0370383
0.0377991
0.0376687
0.0369535
0.0357391
0.0342568
0.0326334
0.0309727
0.0293525
0.0278276
0.0264294
0.02517
0.0240458
0.023043
0.0221428
0.0213307
0.0206012
0.0199569
0.0195081
0.019512
0.0204226
0.0230811
0.0293337
0.0418894
0.0605702
0.0810347
0.100754
0.117425
0.129895
0.138365
0.144687
0.151416
0.160569
0.173055
0.189193
0.208906
0.231843
0.257523
0.28528
0.314554
0.344858
0.375931
0.407658
0.440004
0.472965
0.506547
0.540768
0.575645
0.611184
0.647365
0.684153
0.721515
0.759408
0.797786
0.836605
0.875826
0.915417
0.955351
0.995611
1.03619
1.07708
1.11828
1.15979
1.20163
1.24377
1.28622
1.32897
1.37199
1.41527
1.45877
1.50245
1.54627
1.59019
1.63417
1.67817
1.72215
1.76609
1.80994
1.8537
1.89733
1.94083
1.98415
2.0273
2.07024
2.11296
2.15544
2.19765
2.23956
2.28115
2.32236
2.36318
2.40354
2.44342
2.48277
2.52154
2.55967
2.59712
2.63383
2.66975
2.70482
2.73901
2.77225
2.80449
2.83569
2.8658
2.89479
2.92262
2.94926
2.97468
2.99885
3.02177
3.0434
3.06374
3.08278
3.10052
3.11696
3.1321
3.14594
3.15849
3.16975
3.17972
3.18842
3.19585
3.20201
3.20692
3.21058
3.21294
3.214
3.21403
3.21278
3.21025
3.20645
3.20141
3.19512
3.18761
3.17887
3.16892
3.15777
3.14547
3.13202
3.11748
3.10188
3.08528
3.06772
3.04927
3.02998
3.00993
2.98918
2.96781
2.94588
2.92348
2.90068
2.87759
2.85427
2.83083
2.80733
2.78386
2.76048
2.73728
2.7143
2.6916
2.66921
2.64718
2.62553
2.60431
2.58357
2.56332
2.54363
2.52449
2.50592
2.48786
2.47021
2.45198
2.4309
0.000175374
0.0041255
0.0185614
0.0310769
0.0377099
0.0409538
0.0422423
0.0422746
0.041527
0.0401348
0.0383728
0.0364037
0.0343636
0.0323635
0.0304861
0.0287862
0.027293
0.0260142
0.024939
0.0240533
0.0233237
0.0227425
0.0223716
0.0223394
0.0231703
0.0256734
0.0312589
0.0414658
0.0563191
0.0738411
0.0920187
0.109172
0.123814
0.135126
0.143527
0.15053
0.158217
0.168286
0.18162
0.198445
0.218551
0.241511
0.266826
0.293966
0.322397
0.351723
0.381712
0.412288
0.443453
0.47524
0.507696
0.540865
0.574795
0.609516
0.645039
0.681365
0.718484
0.756374
0.795005
0.83434
0.874342
0.914975
0.956208
0.998013
1.04037
1.08326
1.12667
1.1706
1.21503
1.25996
1.30537
1.35125
1.39757
1.44431
1.49142
1.53886
1.58657
1.63451
1.6826
1.73081
1.77906
1.82732
1.87555
1.92372
1.97179
2.01975
2.06756
2.11521
2.16267
2.20992
2.25694
2.3037
2.35019
2.39636
2.44218
2.48761
2.5326
2.57712
2.6211
2.6645
2.70725
2.74932
2.79062
2.8311
2.87071
2.90937
2.94703
2.98363
3.01912
3.05343
3.08652
3.11835
3.14888
3.17806
3.20588
3.2323
3.2573
3.28087
3.30299
3.32365
3.34287
3.36063
3.37694
3.3918
3.40523
3.41722
3.4278
3.43696
3.44472
3.4511
3.45609
3.45972
3.46193
3.4628
3.46244
3.46071
3.45762
3.45319
3.44742
3.44033
3.43193
3.42222
3.41122
3.39895
3.38544
3.37072
3.35482
3.33779
3.31968
3.30054
3.28044
3.25943
3.2376
3.215
3.19171
3.16782
3.1434
3.11854
3.09334
3.06787
3.04224
3.01652
2.99079
2.96513
2.9396
2.91427
2.88919
2.86439
2.83993
2.81583
2.79216
2.76896
2.74626
2.72411
2.70255
2.68158
2.66117
2.64123
2.62086
2.59797
0.000391126
0.0084115
0.0274899
0.0388156
0.0442673
0.04668
0.0472985
0.0467477
0.0453644
0.0434222
0.0411444
0.038718
0.0363004
0.0340176
0.0319609
0.0301908
0.028743
0.0276389
0.0268568
0.0264443
0.0264248
0.0269602
0.028314
0.0309538
0.0357414
0.0438293
0.054973
0.0686208
0.0838199
0.0993174
0.113845
0.126474
0.136901
0.14555
0.153551
0.162447
0.173555
0.187638
0.204838
0.224921
0.247475
0.272047
0.298179
0.325453
0.353535
0.382226
0.411457
0.441245
0.471648
0.502735
0.53458
0.567249
0.600796
0.635258
0.670668
0.707041
0.744381
0.78268
0.82192
0.862077
0.903123
0.94503
0.987769
1.03131
1.07565
1.12074
1.16659
1.21316
1.26045
1.30844
1.3571
1.4064
1.4563
1.50677
1.55774
1.60915
1.66093
1.71302
1.76533
1.8178
1.87036
1.92295
1.97553
2.02806
2.0805
2.13284
2.18504
2.23708
2.28892
2.34055
2.39194
2.44307
2.49392
2.54444
2.59459
2.64432
2.69358
2.74233
2.7905
2.83804
2.88488
2.93095
2.97618
3.0205
3.06385
3.10614
3.14733
3.18732
3.22607
3.26351
3.29959
3.33424
3.36744
3.39913
3.4293
3.45791
3.48493
3.51035
3.53417
3.55637
3.57697
3.59595
3.61334
3.62912
3.64333
3.65596
3.66703
3.67655
3.68455
3.69103
3.69601
3.69951
3.70148
3.70204
3.70121
3.69892
3.6952
3.69005
3.68348
3.67552
3.66617
3.65544
3.64334
3.62991
3.61516
3.59912
3.58183
3.56334
3.5437
3.52295
3.50118
3.47843
3.45478
3.4303
3.40507
3.37918
3.3527
3.32574
3.29839
3.27073
3.24287
3.21487
3.18683
3.15881
3.13089
3.10313
3.07558
3.04829
3.02131
2.99468
2.96847
2.94271
2.91746
2.89276
2.86866
2.84517
2.82228
2.79993
2.77725
2.75226
0.000751349
0.0147111
0.0355296
0.0459002
0.0506541
0.0524906
0.0525789
0.0514861
0.0495792
0.0471458
0.0444308
0.0416476
0.0389777
0.0365659
0.0345178
0.0329107
0.0317773
0.0312181
0.0311229
0.0316636
0.0331366
0.0359105
0.0404242
0.047052
0.0558545
0.0663592
0.078324
0.0911406
0.104024
0.116215
0.127238
0.137032
0.145975
0.154932
0.164986
0.177079
0.191731
0.209037
0.228782
0.250619
0.27416
0.299038
0.32493
0.351579
0.378815
0.406571
0.434859
0.46374
0.493302
0.523635
0.554825
0.586943
0.620053
0.654211
0.689458
0.725826
0.763331
0.80198
0.841768
0.882686
0.924718
0.967843
1.01204
1.05729
1.10357
1.15086
1.19913
1.24837
1.29854
1.34961
1.40156
1.45432
1.50786
1.5621
1.61698
1.6724
1.72829
1.78456
1.84111
1.89786
1.95474
2.01167
2.06861
2.12551
2.18234
2.23908
2.29569
2.35214
2.4084
2.46445
2.52026
2.57581
2.63105
2.68597
2.74049
2.79458
2.84816
2.90118
2.95358
3.00529
3.05623
3.10634
3.15551
3.20368
3.25076
3.29667
3.34134
3.38469
3.42665
3.46715
3.50612
3.54351
3.57927
3.61336
3.64574
3.67639
3.70528
3.7324
3.75774
3.78132
3.80312
3.82316
3.84144
3.85797
3.87278
3.88587
3.89726
3.90698
3.91505
3.92148
3.92629
3.92951
3.93112
3.93121
3.92979
3.92682
3.92234
3.91637
3.90892
3.9
3.88962
3.8778
3.86455
3.84989
3.83385
3.81646
3.79776
3.77778
3.75658
3.73422
3.71075
3.68624
3.66076
3.63439
3.60721
3.5793
3.55076
3.52168
3.49216
3.46228
3.43215
3.40185
3.37146
3.34106
3.3107
3.28046
3.25039
3.22055
3.19099
3.16178
3.13296
3.10459
3.07672
3.04941
3.02268
2.99659
2.97112
2.94626
2.92118
2.89413
0.00122833
0.0215537
0.0429661
0.0528411
0.0571711
0.058585
0.0582821
0.0567649
0.0544438
0.0516521
0.0486749
0.045757
0.0431053
0.0408978
0.0392619
0.0383692
0.0381331
0.0386074
0.0400083
0.042482
0.0462204
0.0513796
0.0580455
0.0661542
0.0754804
0.0856682
0.0963257
0.10702
0.1174
0.127281
0.136701
0.146003
0.155814
0.166851
0.179698
0.19468
0.211837
0.230999
0.251884
0.27419
0.297638
0.32199
0.347056
0.372707
0.39888
0.425581
0.452862
0.480811
0.50953
0.539113
0.569652
0.601231
0.633927
0.667803
0.702915
0.739306
0.777007
0.81604
0.856416
0.898141
0.941214
0.985623
1.03135
1.07839
1.12671
1.17629
1.2271
1.27912
1.33229
1.38657
1.44191
1.49826
1.55553
1.61364
1.67248
1.73195
1.79196
1.85241
1.91318
1.97419
2.03534
2.09656
2.15781
2.21903
2.28019
2.34128
2.40225
2.46308
2.52373
2.58417
2.64436
2.70429
2.76392
2.82321
2.88209
2.9405
2.99837
3.05563
3.11221
3.16805
3.22304
3.27711
3.33015
3.38207
3.43278
3.48219
3.53022
3.57678
3.62178
3.66516
3.70683
3.74675
3.78487
3.82112
3.85548
3.88791
3.91839
3.94693
3.97353
3.99819
4.02092
4.04173
4.06063
4.07763
4.09277
4.10605
4.11751
4.12718
4.13507
4.14122
4.14565
4.14837
4.14941
4.14885
4.14667
4.14286
4.13748
4.13055
4.12209
4.1121
4.1006
4.08761
4.07314
4.0572
4.03983
4.02106
4.00091
3.97944
3.95669
3.93271
3.90757
3.88131
3.85401
3.82576
3.79663
3.76673
3.73614
3.70496
3.67329
3.64121
3.60883
3.57623
3.54349
3.5107
3.4779
3.44517
3.41256
3.38015
3.348
3.31618
3.28474
3.25373
3.22322
3.19325
3.16387
3.13512
3.10702
3.07959
3.05205
3.0228
0.00181158
0.0280315
0.0502079
0.0599855
0.0640446
0.0651632
0.0645317
0.0626765
0.0600685
0.0571128
0.0541452
0.0514344
0.0491912
0.0476248
0.046927
0.0468722
0.0477279
0.0495911
0.0524723
0.056415
0.0614594
0.0675894
0.0747145
0.0826609
0.0912131
0.100143
0.109251
0.118411
0.12759
0.136886
0.146584
0.157098
0.168849
0.182169
0.197225
0.214011
0.232392
0.252162
0.2731
0.295007
0.317715
0.341096
0.365064
0.389574
0.41463
0.440278
0.466598
0.493683
0.521637
0.550565
0.580564
0.611727
0.644141
0.677881
0.713015
0.749593
0.787661
0.827257
0.868409
0.911137
0.955452
1.00135
1.04884
1.0979
1.14852
1.20066
1.25429
1.30936
1.36581
1.42357
1.48256
1.54269
1.60387
1.66597
1.72885
1.79239
1.85647
1.92099
1.98586
2.05097
2.11623
2.18157
2.24694
2.31231
2.37763
2.4429
2.50808
2.57312
2.63801
2.70269
2.76714
2.83132
2.89521
2.95874
3.02184
3.08445
3.14647
3.20783
3.26845
3.32825
3.38713
3.44498
3.50168
3.55714
3.61125
3.6639
3.71502
3.76449
3.81223
3.85817
3.90221
3.94431
3.98441
4.02247
4.05842
4.09223
4.1239
4.15346
4.1809
4.20624
4.22949
4.25066
4.26977
4.28684
4.30191
4.315
4.32615
4.3354
4.34278
4.34833
4.35207
4.35402
4.35421
4.35277
4.34958
4.34473
4.33826
4.3302
4.32057
4.30938
4.29665
4.2824
4.26663
4.24936
4.23063
4.21045
4.18886
4.16591
4.14163
4.11607
4.0893
4.06134
4.03227
4.0022
3.97121
3.93938
3.90682
3.8736
3.83984
3.80562
3.77105
3.7362
3.70117
3.66603
3.63084
3.59565
3.56054
3.52558
3.49087
3.45647
3.42243
3.38882
3.35569
3.32308
3.29104
3.25963
3.2289
3.19889
3.16887
3.13746
0.00258919
0.0335422
0.0571422
0.0671544
0.0711407
0.0720786
0.0711664
0.0690424
0.0662607
0.0633193
0.060641
0.0584871
0.0570145
0.0563731
0.0563464
0.0572666
0.059181
0.0620019
0.0657105
0.070283
0.0756684
0.0817899
0.0885466
0.0958344
0.103564
0.11167
0.120126
0.12897
0.138324
0.148385
0.159389
0.17156
0.185053
0.199926
0.216146
0.233608
0.252172
0.271689
0.292025
0.313074
0.334757
0.357028
0.379873
0.403306
0.427369
0.452133
0.477691
0.504143
0.531591
0.560135
0.589879
0.620923
0.653362
0.687281
0.722759
0.759866
0.798665
0.839211
0.881549
0.925715
0.971732
1.01961
1.06936
1.12096
1.1744
1.22962
1.28659
1.34523
1.40545
1.46713
1.53015
1.59437
1.65965
1.72583
1.79273
1.86021
1.92813
1.99641
2.06501
2.13385
2.20284
2.27192
2.34106
2.41021
2.47935
2.54845
2.61748
2.6864
2.75519
2.8238
2.8922
2.96036
3.02822
3.09571
3.16276
3.22927
3.29516
3.36033
3.42469
3.48814
3.55057
3.61185
3.67186
3.73047
3.78757
3.84304
3.89679
3.94871
3.99871
4.04669
4.09258
4.13632
4.17786
4.21716
4.25416
4.28884
4.32121
4.35128
4.37906
4.40455
4.42778
4.44876
4.46754
4.48414
4.49859
4.51095
4.52126
4.52957
4.53593
4.54038
4.54298
4.54375
4.5428
4.54011
4.53562
4.52946
4.52166
4.51226
4.50128
4.48873
4.47464
4.45902
4.44188
4.42324
4.40312
4.38154
4.35853
4.33414
4.30839
4.28135
4.25304
4.22347
4.19275
4.16099
4.12826
4.09465
4.06024
4.02512
3.9894
3.95316
3.91651
3.87953
3.84232
3.80494
3.76745
3.72989
3.69235
3.65495
3.61776
3.58086
3.54431
3.50817
3.47249
3.43729
3.40265
3.36864
3.33533
3.30278
3.27032
3.23685
0.00339858
0.0394685
0.0641875
0.0744187
0.0783359
0.0791099
0.077848
0.075329
0.0724115
0.0697236
0.067618
0.0662808
0.0656953
0.0656241
0.066382
0.0680953
0.0706381
0.073942
0.0779631
0.0826602
0.0879899
0.0939106
0.100394
0.107419
0.114981
0.123105
0.131852
0.141317
0.151617
0.162868
0.175159
0.188544
0.203023
0.21855
0.235048
0.252423
0.270585
0.289457
0.308982
0.329129
0.349886
0.371265
0.393292
0.41602
0.439513
0.463836
0.48909
0.515377
0.542804
0.571481
0.601519
0.633024
0.666101
0.700852
0.737368
0.775736
0.816032
0.858325
0.902677
0.949136
0.997734
1.04848
1.10138
1.15639
1.21349
1.27262
1.3337
1.39662
1.46123
1.52736
1.59481
1.66335
1.73277
1.80289
1.87352
1.94449
2.01566
2.08699
2.15859
2.23046
2.30246
2.37459
2.44683
2.51914
2.59147
2.6638
2.73607
2.80829
2.88041
2.9524
3.02421
3.09579
3.16709
3.23803
3.30851
3.37845
3.44772
3.51622
3.58383
3.65045
3.71593
3.78015
3.84294
3.90416
3.96369
4.0214
4.07717
4.13091
4.18251
4.23186
4.2789
4.32357
4.36581
4.40559
4.44291
4.47776
4.51014
4.54002
4.56741
4.59233
4.61481
4.63488
4.6526
4.66799
4.68113
4.69205
4.70083
4.70754
4.71223
4.71498
4.71585
4.71498
4.71241
4.70798
4.70182
4.69398
4.68453
4.6735
4.66091
4.64679
4.63116
4.61403
4.59542
4.57534
4.5538
4.53081
4.50641
4.48062
4.45348
4.42502
4.3953
4.3643
4.33214
4.2989
4.26465
4.22947
4.19343
4.15662
4.11914
4.08107
4.04253
4.0036
3.96437
3.92493
3.88531
3.84554
3.80575
3.76605
3.72654
3.68729
3.64837
3.60983
3.57173
3.53406
3.49693
3.46043
3.42463
3.38965
3.35483
3.31947
0.00427988
0.0453338
0.0711904
0.0816717
0.0855206
0.0860848
0.0843806
0.0816104
0.0788371
0.076631
0.0752344
0.0746221
0.074512
0.0750287
0.0764405
0.0786351
0.0815422
0.0851087
0.0893072
0.0941226
0.09955
0.105592
0.112263
0.11959
0.127617
0.136394
0.145976
0.156419
0.167763
0.180017
0.193183
0.207241
0.22214
0.237822
0.254227
0.271309
0.289037
0.307396
0.326393
0.346044
0.366379
0.387455
0.409355
0.432166
0.455879
0.480551
0.506381
0.533448
0.561863
0.591743
0.623202
0.656351
0.691307
0.728181
0.767077
0.808089
0.851297
0.896765
0.944544
0.994687
1.04723
1.10216
1.15941
1.21894
1.28067
1.34452
1.41038
1.47812
1.54754
1.61843
1.69048
1.76336
1.83664
1.91016
1.98388
2.05766
2.13134
2.20503
2.27891
2.35285
2.4268
2.50088
2.57523
2.64972
2.72427
2.79885
2.87345
2.94804
3.02258
3.09703
3.17135
3.24548
3.31936
3.39293
3.46608
3.53868
3.6106
3.68168
3.75181
3.82084
3.88863
3.95501
4.01978
4.08279
4.14389
4.20294
4.25982
4.31443
4.36664
4.41637
4.46352
4.50805
4.54992
4.5891
4.62559
4.65939
4.69052
4.71897
4.74477
4.76795
4.78858
4.8067
4.82238
4.83566
4.84662
4.85533
4.86186
4.86629
4.8687
4.86917
4.86791
4.86487
4.85997
4.85333
4.84501
4.83508
4.82359
4.8106
4.79613
4.78021
4.76287
4.74411
4.72395
4.70239
4.67944
4.6551
4.62938
4.60232
4.57392
4.54422
4.51327
4.48111
4.44778
4.41334