/*--------------------------------*- C++ -*----------------------------------*\
  =========                 |
  \\      /  F ield         | OpenFOAM: The Open Source CFD Toolbox
   \\    /   O peration     | Website:  https://openfoam.org
    \\  /    A nd           | Version:  13
     \\/     M anipulation  |
\*---------------------------------------------------------------------------*/
FoamFile
{
    format      ascii;
    class       volScalarField;
    location    "1300";
    object      nut;
}
// * * * * * * * * * * * * * * * * * * * * * * * * * * * * * * * * * * * * * //

dimensions      [0 2 -1 0 0 0 0];

internalField   nonuniform List<scalar> 
12225
(
6.63271e-06
1.77818e-05
2.92328e-05
2.23535e-05
2.66946e-05
2.2593e-05
1.99692e-05
1.8446e-05
1.62942e-05
2.72658e-05
2.96107e-05
2.76215e-05
3.24678e-05
2.70356e-05
1.97477e-05
1.78333e-05
2.67781e-05
3.38591e-05
5.61661e-05
1.41174e-05
2.2222e-05
2.21523e-05
2.11787e-05
2.04201e-05
2.02899e-05
1.82021e-05
1.85925e-05
2.13341e-05
1.86332e-05
2.13889e-05
2.19466e-05
2.23691e-05
2.10256e-05
2.29761e-05
2.40038e-05
2.95143e-05
0.000120255
6.39836e-05
2.81304e-05
9.94934e-06
6.90552e-06
6.7415e-06
5.36758e-06
7.44735e-06
8.56976e-06
9.50631e-06
1.02579e-05
1.15312e-05
1.23874e-05
1.27349e-05
1.39678e-05
1.65885e-05
1.795e-05
1.95441e-05
9.21272e-06
1.26948e-05
1.06142e-05
1.03573e-05
9.52354e-06
8.09666e-06
8.71577e-06
1.02699e-05
1.06511e-05
1.57242e-05
1.8924e-05
2.49252e-05
2.65545e-05
2.63168e-05
2.60544e-05
2.54538e-05
2.53126e-05
2.46617e-05
6.0549e-06
7.14477e-06
5.99312e-06
6.98485e-06
1.11006e-05
1.08768e-05
1.19563e-05
1.30503e-05
1.97654e-05
2.57469e-05
3.23317e-05
3.57801e-05
4.09716e-05
4.5067e-05
4.92113e-05
4.90536e-05
4.88824e-05
4.69502e-05
1.25738e-05
2.49012e-05
2.30121e-05
2.35943e-05
3.6169e-05
3.49469e-05
4.09354e-05
5.00706e-05
5.83771e-05
5.99687e-05
7.231e-05
8.4639e-05
9.28014e-05
9.56612e-05
0.000103823
0.00010762
0.00011063
0.000109621
3.36278e-05
6.58753e-05
6.82113e-05
7.11598e-05
0.000108097
0.000102013
0.00012008
0.00013756
0.000156636
0.000162915
0.000167229
0.000180878
0.000189793
0.000203122
0.000207311
0.000207621
0.000209179
0.000205424
0.000126813
0.000196869
0.000205966
0.000263837
0.000251614
0.000295371
0.000328099
0.000310158
0.000315684
0.00031625
0.00033672
0.000333601
0.000342172
0.000347061
0.000347567
0.000342735
0.000340498
0.000333978
0.000462288
0.000418722
0.000487913
0.000518481
0.000557883
0.00057803
0.000571644
0.000546829
0.000529853
0.000519773
0.000515011
0.000519988
0.000520248
0.000512273
0.000503345
0.000492265
0.000485464
0.000478999
0.00080915
0.000684486
0.000727372
0.000752722
0.000761893
0.000757761
0.000748402
0.000726358
0.000709492
0.000701587
0.000691331
0.000679373
0.000669201
0.000657011
0.000647457
0.000635885
0.000628385
0.000619127
0.000844468
0.00083786
0.000819528
0.000819516
0.000824356
0.00082514
0.000820635
0.000812887
0.000804267
0.000795653
0.00078627
0.000775924
0.000766603
0.00075691
0.000749502
0.000741368
0.000735975
0.000728082
0.000850603
0.000849499
0.000847644
0.000846212
0.00084543
0.00084453
0.000841886
0.00083839
0.000834563
0.000830294
0.000825091
0.000819101
0.000813356
0.000807531
0.000802584
0.000797634
0.000793757
0.000789204
0.000851523
0.000850514
0.000849832
0.000849117
0.000848474
0.000847745
0.000846747
0.000845359
0.000843805
0.000841851
0.000839698
0.000837018
0.000834484
0.000831624
0.000829266
0.000826617
0.000824668
0.000821712
0.000851565
0.000850662
0.000849875
0.000849124
0.000848455
0.000847768
0.000847131
0.000846361
0.000845624
0.000844697
0.000843835
0.000842728
0.00084178
0.000840573
0.000839662
0.000838425
0.000837606
0.000836327
0.000851545
0.000850674
0.000849863
0.000849081
0.00084836
0.000847655
0.000847009
0.000846352
0.000845746
0.000845107
0.000844524
0.000843893
0.000843333
0.000842714
0.000842182
0.000841584
0.000841076
0.000840495
0.000851539
0.000850674
0.000849855
0.000849074
0.000848335
0.000847628
0.000846961
0.000846318
0.000845711
0.000845121
0.000844565
0.000844022
0.000843511
0.000843009
0.000842537
0.000842074
0.000841637
0.000841207
0.000851537
0.000850673
0.000849852
0.00084907
0.000848327
0.000847619
0.000846946
0.000846303
0.000845691
0.000845105
0.000844547
0.000844012
0.000843502
0.000843012
0.000842544
0.000842095
0.000841666
0.000841253
0.000851539
0.000850677
0.000849858
0.000849078
0.000848335
0.000847628
0.000846954
0.000846311
0.000845698
0.000845112
0.000844552
0.000844017
0.000843505
0.000843015
0.000842545
0.000842096
0.000841665
0.000841253
0.000851537
0.000850674
0.000849852
0.00084907
0.000848325
0.000847617
0.000846941
0.000846297
0.000845681
0.000845093
0.000844531
0.000843994
0.000843478
0.000842985
0.000842511
0.000842059
0.000841622
0.000841207
0.000851537
0.000850674
0.00084985
0.000849071
0.000848326
0.000847625
0.000846942
0.000846294
0.000845657
0.000845054
0.000844457
0.000843895
0.000843331
0.000842802
0.000842263
0.000841766
0.000841259
0.000840805
0.000851551
0.000850668
0.000849843
0.000849084
0.00084835
0.000847651
0.000846853
0.000846026
0.000845076
0.00084415
0.00084314
0.000842203
0.00084117
0.000840227
0.000839169
0.000838252
0.000837208
0.000836407
0.000851673
0.000850547
0.000849845
0.000849194
0.000848347
0.00084692
0.000844613
0.000841313
0.000837478
0.000833476
0.000829502
0.000825736
0.000822184
0.000818801
0.000815607
0.000812446
0.000809393
0.000806809
0.000852037
0.000850278
0.00085002
0.000850278
0.000844709
0.000833787
0.000819606
0.000799825
0.000781122
0.000764136
0.000748679
0.00073643
0.000725214
0.000716298
0.000707228
0.000700767
0.000692534
0.000687645
0.000853583
0.00085167
0.000848734
0.000836745
0.00079334
0.000728959
0.000676969
0.000613209
0.000573224
0.000540496
0.000511031
0.00049365
0.000478344
0.000466716
0.00045922
0.000454548
0.000446902
0.00044218
0.000854289
0.000850553
0.000842679
0.000745822
0.000550792
0.000433223
0.000347339
0.000311559
0.000301378
0.000262217
0.000246495
0.000240044
0.000206593
0.00020004
0.000189707
0.000185548
0.00018467
0.000187122
0.000859228
0.000845302
0.000820707
0.000437126
0.000378119
0.000333341
0.000264368
0.000215258
0.000180172
0.000141973
0.000110052
9.3239e-05
5.34739e-05
4.92392e-05
4.11967e-05
3.70216e-05
3.56868e-05
3.68895e-05
0.000907874
0.000802741
0.000585566
0.000492066
0.000345863
0.000255731
0.00017259
9.38236e-05
5.39174e-05
3.06399e-05
1.7385e-05
1.15531e-05
9.13649e-06
7.92975e-06
7.32138e-06
5.77377e-06
5.99973e-06
7.49042e-06
0.00109559
0.00049463
0.000304701
0.000248536
0.000187771
0.000120782
7.80669e-05
4.71872e-05
2.18566e-05
1.37208e-05
1.02923e-05
7.75661e-06
6.06604e-06
6.03156e-06
5.00704e-06
5.24195e-06
5.01759e-06
5.23114e-06
0.000439473
0.000105067
7.79513e-05
5.87813e-05
5.35848e-05
5.13973e-05
4.51217e-05
3.67963e-05
3.52328e-05
3.54519e-05
3.46635e-05
3.36013e-05
3.19966e-05
3.15618e-05
2.74919e-05
2.78797e-05
2.56212e-05
2.4575e-05
9.40174e-06
1.52285e-05
1.90251e-05
2.11638e-05
2.19897e-05
2.21756e-05
2.21755e-05
2.18434e-05
2.14018e-05
2.09099e-05
2.04086e-05
1.99241e-05
1.94674e-05
1.90531e-05
1.86565e-05
1.83099e-05
1.80092e-05
1.77367e-05
1.4569e-12
1.63636e-10
8.34604e-10
3.28723e-09
1.0999e-08
3.36664e-08
8.80478e-08
1.75093e-07
2.83205e-07
3.9601e-07
4.9525e-07
5.7074e-07
6.1933e-07
6.32405e-07
6.21394e-07
5.90564e-07
5.38134e-07
4.54016e-07
3.83097e-07
3.23575e-07
2.67742e-07
2.13944e-07
1.62766e-07
1.15613e-07
7.46679e-08
4.36758e-08
2.34576e-08
1.20997e-08
6.31131e-09
3.48429e-09
2.1148e-09
1.54696e-09
1.75732e-09
3.31631e-09
9.67288e-09
2.50775e-08
8.52281e-08
1.94088e-07
3.1716e-07
3.83481e-07
3.63801e-07
3.0392e-07
2.38992e-07
2.04895e-07
2.11715e-07
2.63291e-07
3.38377e-07
5.95964e-07
1.13182e-06
2.99268e-06
9.813e-06
2.25799e-05
3.52733e-05
3.98728e-05
2.8244e-05
3.54366e-05
3.75071e-05
3.63405e-05
3.22952e-05
3.58263e-05
3.0839e-05
3.05603e-05
3.29199e-05
3.1234e-05
3.13078e-05
3.30156e-05
3.32064e-05
3.39344e-05
3.44905e-05
3.50728e-05
3.56435e-05
3.62034e-05
3.67614e-05
3.73106e-05
3.78577e-05
3.83996e-05
3.89388e-05
3.94743e-05
4.00077e-05
4.05376e-05
4.10663e-05
4.15913e-05
4.21157e-05
4.26362e-05
4.31565e-05
4.36729e-05
4.41889e-05
4.47013e-05
4.52131e-05
4.5722e-05
4.62305e-05
4.67367e-05
4.72413e-05
4.77432e-05
4.82422e-05
4.87381e-05
4.92303e-05
4.97188e-05
5.02033e-05
5.0684e-05
5.11613e-05
5.16372e-05
5.21149e-05
5.26005e-05
5.3103e-05
5.36026e-05
5.41097e-05
5.46231e-05
5.51441e-05
5.56733e-05
5.62111e-05
5.67583e-05
5.73156e-05
5.78834e-05
5.84627e-05
5.90539e-05
5.96583e-05
6.02762e-05
6.09092e-05
6.15578e-05
6.22237e-05
6.29079e-05
6.36124e-05
6.43383e-05
6.50876e-05
6.58621e-05
6.66634e-05
6.74933e-05
6.8352e-05
6.92465e-05
7.02102e-05
7.12139e-05
7.22489e-05
7.33439e-05
7.45047e-05
7.57369e-05
7.70395e-05
7.84016e-05
7.84828e-05
7.82227e-05
7.79492e-05
7.76447e-05
7.73469e-05
7.70125e-05
7.66714e-05
7.63158e-05
7.5958e-05
7.55633e-05
7.51829e-05
7.47693e-05
7.4347e-05
7.39272e-05
7.34794e-05
7.30276e-05
7.25644e-05
7.20965e-05
7.16147e-05
7.11241e-05
7.06273e-05
7.01289e-05
6.96301e-05
6.91318e-05
6.8637e-05
6.81473e-05
6.76626e-05
6.71854e-05
6.67173e-05
6.62594e-05
6.58121e-05
6.5377e-05
6.49542e-05
6.45447e-05
6.41469e-05
6.37584e-05
6.3375e-05
6.29874e-05
6.25864e-05
6.21437e-05
6.1621e-05
6.01619e-05
7.00384e-12
1.13039e-09
1.5291e-08
8.1586e-08
3.52275e-07
1.17044e-06
2.70704e-06
4.95092e-06
7.69743e-06
1.07969e-05
1.39006e-05
1.67783e-05
1.91354e-05
2.0857e-05
2.17736e-05
2.19342e-05
2.15885e-05
2.03108e-05
1.82793e-05
1.49516e-05
1.14622e-05
8.37158e-06
5.8718e-06
3.91104e-06
2.46774e-06
1.52441e-06
9.3824e-07
5.83803e-07
3.68532e-07
2.42189e-07
1.76053e-07
1.48589e-07
1.60468e-07
2.42926e-07
6.85224e-07
1.59559e-06
5.4049e-06
1.14119e-05
1.73785e-05
2.04697e-05
1.99369e-05
1.83211e-05
1.48794e-05
1.28974e-05
1.30871e-05
1.42269e-05
1.52137e-05
1.92473e-05
2.74605e-05
3.82619e-05
4.93152e-05
6.09222e-05
7.1174e-05
8.02002e-05
8.60648e-05
9.67019e-05
0.000106647
0.000119175
0.000130999
0.000144789
0.000157526
0.000171116
0.000184681
0.000195756
0.000209214
0.000220896
0.000232097
0.000242714
0.000253092
0.000262952
0.000272539
0.000281771
0.000290749
0.000299469
0.000307984
0.000316301
0.000324457
0.000332458
0.000340331
0.000348083
0.000355732
0.000363288
0.000370762
0.000378164
0.000385505
0.000392792
0.000400033
0.000407232
0.000414396
0.000421527
0.000428629
0.000435704
0.00044275
0.000449762
0.000456733
0.000463652
0.000470507
0.00047728
0.000483947
0.000490469
0.000496794
0.000502842
0.000508509
0.000513665
0.00051817
0.000522759
0.000527125
0.000531403
0.000535527
0.000539521
0.00054337
0.000547077
0.000550636
0.000554046
0.000557306
0.000560415
0.000563373
0.000566179
0.000568834
0.000571338
0.000573691
0.000575893
0.000577942
0.000579839
0.000581581
0.000583167
0.000584596
0.000585866
0.000586978
0.000587931
0.000588719
0.000589358
0.000589811
0.000590052
0.000590148
0.000590143
0.000590089
0.000589788
0.000589825
0.000590109
0.000589433
0.000589434
0.000588343
0.000587764
0.000586473
0.000585788
0.000583823
0.000582842
0.000580639
0.000578636
0.000577034
0.000574272
0.000572378
0.000569468
0.000567036
0.00056397
0.000561024
0.000557995
0.000554753
0.000551544
0.000548228
0.000544887
0.000541514
0.000538122
0.000534729
0.000531352
0.000527988
0.000524667
0.000521394
0.000518173
0.00051501
0.000511901
0.000508843
0.000505785
0.0005027
0.000499497
0.000496069
0.000492138
0.000487063
0.00047214
1.77664e-11
3.03938e-09
5.73563e-08
3.50075e-07
1.04698e-06
2.88605e-06
6.15912e-06
1.07844e-05
1.65278e-05
2.30663e-05
3.00103e-05
3.66699e-05
4.26398e-05
4.76082e-05
5.12736e-05
5.36822e-05
5.49977e-05
5.51937e-05
5.34427e-05
5.03056e-05
4.58474e-05
3.95622e-05
3.24238e-05
2.54018e-05
1.89808e-05
1.35171e-05
9.17901e-06
6.11028e-06
3.8643e-06
2.56503e-06
1.79976e-06
1.40926e-06
1.25359e-06
1.1743e-06
4.49925e-06
1.03098e-05
2.74066e-05
4.561e-05
5.72729e-05
5.97819e-05
5.35741e-05
4.01442e-05
3.43897e-05
3.63831e-05
4.32862e-05
5.06522e-05
6.09221e-05
7.3118e-05
8.57302e-05
9.92497e-05
0.000116891
0.000136049
0.000157418
0.000179711
0.000205617
0.000234631
0.000265034
0.000296694
0.000328253
0.000358721
0.000387695
0.000414866
0.000441694
0.000466546
0.000491003
0.000513988
0.000535526
0.000556537
0.000576729
0.000596223
0.000615163
0.000633574
0.000651553
0.000669138
0.000686386
0.000703327
0.000720002
0.000736431
0.000752643
0.000768657
0.000784492
0.000800165
0.000815691
0.000831083
0.000846352
0.000861509
0.000876561
0.000891513
0.000906367
0.000921124
0.000935783
0.000950338
0.000964777
0.000979085
0.000993242
0.00100722
0.001021
0.00103453
0.00104779
0.00106071
0.00107325
0.00108535
0.00109698
0.00110811
0.0011189
0.00112952
0.00113981
0.00114984
0.00115956
0.00116899
0.00117809
0.00118687
0.00119533
0.00120346
0.00121126
0.00121872
0.00122585
0.00123265
0.00123912
0.00124526
0.00125107
0.00125656
0.00126172
0.00126655
0.00127106
0.00127525
0.0012791
0.00128261
0.00128579
0.00128864
0.00129115
0.00129327
0.00129495
0.00129665
0.00129753
0.0012988
0.00129956
0.00129985
0.00130009
0.00130007
0.00129925
0.00129845
0.00129669
0.00129497
0.00129252
0.00129006
0.00128651
0.00128331
0.00127891
0.00127456
0.00127011
0.00126461
0.00125954
0.00125353
0.00124767
0.00124113
0.00123456
0.0012278
0.00122075
0.00121362
0.00120634
0.00119898
0.00119157
0.00118415
0.00117674
0.00116938
0.00116207
0.00115487
0.00114777
0.0011408
0.00113397
0.00112726
0.00112067
0.00111411
0.00110749
0.00110063
0.00109331
0.00108482
0.00107341
0.00104659
6.26392e-11
1.06239e-08
1.72088e-07
7.71186e-07
2.39646e-06
6.68769e-06
1.33448e-05
2.23056e-05
3.28164e-05
4.37843e-05
5.43605e-05
6.40647e-05
7.24039e-05
7.88899e-05
8.38033e-05
8.70443e-05
8.84173e-05
8.82934e-05
8.67841e-05
8.3664e-05
7.92616e-05
7.33544e-05
6.62623e-05
5.74437e-05
4.77976e-05
3.81911e-05
2.93746e-05
2.20801e-05
1.6467e-05
1.19884e-05
9.10455e-06
6.80672e-06
6.55837e-06
9.02194e-06
1.94412e-05
3.97128e-05
5.905e-05
7.18951e-05
7.34556e-05
6.82583e-05
6.53816e-05
6.63817e-05
7.11649e-05
7.96666e-05
9.14278e-05
0.000104693
0.000117735
0.000139464
0.00016088
0.000189636
0.000222242
0.000258575
0.000298043
0.00033955
0.000383194
0.0004276
0.000472117
0.000516063
0.000558618
0.000599346
0.000638692
0.000675644
0.000711924
0.000746528
0.000779497
0.000811365
0.000841948
0.00087168
0.000900521
0.000928614
0.000956059
0.000982922
0.00100928
0.00103518
0.00106067
0.00108579
0.00111058
0.00113505
0.00115923
0.00118314
0.0012068
0.00123022
0.00125342
0.00127642
0.00129921
0.00132181
0.00134423
0.00136646
0.00138852
0.00141038
0.00143205
0.00145351
0.00147475
0.00149574
0.00151646
0.00153687
0.00155695
0.00157665
0.00159595
0.0016148
0.00163318
0.00165107
0.00166848
0.00168543
0.00170198
0.00171815
0.00173388
0.00174918
0.00176402
0.00177839
0.00179227
0.00180567
0.00181858
0.00183098
0.00184288
0.00185427
0.00186516
0.00187555
0.00188544
0.00189484
0.00190375
0.00191217
0.0019201
0.00192755
0.00193453
0.00194102
0.00194703
0.00195256
0.00195757
0.00196206
0.00196613
0.00196968
0.00197269
0.00197535
0.00197732
0.00197927
0.00198058
0.00198131
0.00198165
0.00198143
0.0019805
0.00197911
0.00197686
0.0019742
0.00197084
0.00196698
0.00196224
0.00195725
0.00195125
0.00194495
0.0019382
0.0019306
0.00192287
0.00191439
0.00190567
0.00189634
0.00188676
0.00187688
0.00186667
0.00185627
0.00184567
0.00183495
0.00182416
0.00181335
0.00180257
0.00179186
0.00178125
0.00177077
0.00176045
0.0017503
0.00174036
0.00173062
0.00172103
0.00171154
0.00170198
0.00169219
0.00168161
0.00166959
0.00165369
0.00162231
2.08561e-10
3.15286e-08
3.85724e-07
1.83469e-06
6.39806e-06
1.54805e-05
2.87941e-05
4.46063e-05
6.12435e-05
7.70298e-05
9.06697e-05
0.000101514
0.000109572
0.00011527
0.000118471
0.000119823
0.000119607
0.000118055
0.000115338
0.0001115
0.000106278
0.000100375
9.33849e-05
8.47781e-05
7.48587e-05
6.39607e-05
5.27845e-05
4.25806e-05
3.40926e-05
2.73252e-05
2.16655e-05
1.9566e-05
2.21034e-05
3.45821e-05
5.83285e-05
7.61042e-05
8.48193e-05
8.80701e-05
8.9356e-05
9.1735e-05
9.72093e-05
0.000106724
0.000121167
0.00013187
0.000146319
0.000170235
0.000198754
0.00023281
0.000271414
0.000316571
0.000364397
0.000415342
0.000467956
0.000521424
0.00057531
0.000628704
0.000681239
0.000732468
0.000782039
0.000829852
0.000876071
0.000920879
0.000964063
0.00100582
0.00104615
0.00108533
0.00112339
0.00116051
0.00119677
0.00123227
0.00126709
0.0013013
0.00133496
0.00136813
0.00140083
0.0014331
0.00146497
0.00149645
0.00152757
0.00155834
0.00158878
0.0016189
0.0016487
0.00167821
0.00170742
0.00173634
0.00176498
0.00179334
0.00182141
0.00184918
0.00187665
0.0019038
0.00193061
0.00195706
0.00198311
0.00200875
0.00203393
0.00205863
0.00208284
0.00210651
0.00212966
0.00215226
0.00217434
0.00219588
0.00221691
0.00223741
0.00225734
0.00227669
0.00229545
0.0023136
0.00233113
0.00234802
0.00236428
0.0023799
0.00239487
0.00240921
0.0024229
0.00243596
0.00244839
0.00246019
0.00247138
0.00248195
0.00249192
0.00250128
0.00251005
0.00251823
0.00252583
0.00253287
0.00253929
0.00254483
0.00255001
0.00255459
0.00255858
0.00256195
0.0025647
0.00256721
0.00256892
0.00256997
0.00257041
0.00257014
0.00256912
0.00256742
0.00256488
0.00256167
0.00255772
0.00255305
0.00254757
0.00254149
0.00253453
0.002527
0.00251884
0.00250992
0.00250054
0.00249048
0.00247996
0.00246886
0.00245736
0.00244547
0.0024332
0.00242066
0.00240788
0.00239494
0.0023819
0.00236881
0.00235574
0.00234274
0.00232984
0.00231708
0.00230449
0.0022921
0.00227991
0.00226795
0.00225618
0.00224455
0.0022329
0.00222103
0.00220832
0.00219398
0.00217585
0.00214469
6.47318e-10
7.71502e-08
9.46152e-07
4.85591e-06
1.60019e-05
3.39227e-05
5.55538e-05
7.77769e-05
9.70853e-05
0.000112373
0.000123918
0.000132881
0.000138934
0.000142668
0.000144447
0.000144546
0.000143192
0.000140584
0.000136906
0.000132224
0.000126427
0.000120036
0.000112633
0.00010393
9.41073e-05
8.10619e-05
6.63423e-05
5.24768e-05
4.03347e-05
3.30036e-05
3.1443e-05
3.76006e-05
5.44041e-05
7.66757e-05
9.34435e-05
0.000103684
0.000109275
0.000113476
0.000119823
0.000130896
0.000145894
0.00015548
0.000171197
0.000196135
0.000225833
0.000263036
0.000305861
0.000354365
0.000407078
0.00046345
0.00052139
0.000580809
0.00064067
0.000700499
0.000759911
0.000818446
0.000875646
0.000931343
0.000985886
0.00103914
0.00109066
0.00114074
0.00118939
0.00123674
0.00128287
0.0013279
0.00137191
0.00141502
0.00145731
0.00149886
0.00153973
0.00157998
0.00161967
0.00165883
0.00169748
0.00173566
0.00177337
0.00181063
0.00184746
0.00188386
0.00191984
0.00195541
0.00199057
0.00202533
0.0020597
0.00209367
0.00212725
0.00216044
0.00219323
0.00222561
0.00225758
0.00228911
0.00232019
0.00235079
0.0023809
0.00241048
0.0024395
0.00246796
0.00249582
0.00252308
0.00254973
0.00257576
0.00260117
0.00262595
0.0026501
0.00267359
0.00269639
0.00271851
0.00273992
0.0027606
0.00278055
0.00279977
0.00281824
0.00283595
0.00285292
0.00286915
0.00288463
0.00289938
0.00291341
0.00292671
0.00293931
0.0029512
0.00296241
0.00297293
0.00298277
0.00299195
0.00300047
0.00300839
0.00301554
0.00302183
0.00302762
0.00303279
0.00303732
0.00304109
0.00304435
0.00304713
0.00304911
0.00305035
0.00305089
0.00305066
0.00304967
0.0030479
0.00304532
0.00304197
0.00303783
0.00303291
0.0030272
0.00302075
0.0030135
0.00300553
0.00299684
0.00298743
0.00297741
0.00296672
0.00295546
0.00294362
0.00293129
0.0029185
0.0029053
0.00289175
0.00287793
0.00286389
0.00284971
0.00283544
0.00282116
0.00280691
0.00279273
0.00277866
0.00276475
0.00275101
0.00273748
0.00272417
0.00271107
0.00269812
0.00268521
0.00267212
0.00265833
0.00264306
0.00262406
0.00259531
2.01353e-09
1.92379e-07
2.46274e-06
1.30775e-05
3.46326e-05
6.22595e-05
8.98015e-05
0.000113004
0.000131141
0.000144543
0.000154067
0.000159847
0.000162815
0.000163762
0.000163253
0.000161587
0.000158921
0.000155349
0.000150851
0.000145415
0.00013902
0.000131789
0.000123258
0.000110102
9.34818e-05
7.83328e-05
6.45174e-05
5.32784e-05
4.71028e-05
5.03381e-05
6.31552e-05
8.29169e-05
0.000105922
0.000119243
0.00012872
0.000135638
0.000142822
0.000154022
0.000168333
0.000176791
0.000192491
0.000216526
0.00024564
0.000282834
0.000325836
0.000375654
0.00043015
0.000488483
0.000549302
0.000611881
0.00067522
0.000739022
0.000802662
0.000865818
0.000928101
0.000989274
0.00104954
0.00110885
0.00116671
0.00122325
0.00127842
0.00133233
0.00138499
0.0014365
0.00148695
0.00153639
0.00158493
0.00163262
0.00167955
0.00172577
0.00177135
0.00181631
0.00186071
0.00190456
0.00194788
0.00199069
0.00203299
0.00207479
0.00211608
0.00215686
0.00219715
0.00223693
0.00227622
0.002315
0.00235329
0.00239109
0.00242838
0.00246517
0.00250146
0.00253723
0.00257247
0.00260717
0.00264132
0.00267489
0.00270787
0.00274022
0.00277194
0.00280299
0.00283338
0.00286307
0.00289205
0.00292031
0.00294783
0.00297462
0.00300067
0.00302596
0.00305048
0.00307421
0.00309715
0.00311928
0.0031406
0.0031611
0.0031808
0.00319969
0.00321778
0.00323506
0.00325154
0.00326722
0.00328212
0.00329623
0.00330957
0.00332216
0.003334
0.0033451
0.00335548
0.00336514
0.0033741
0.00338238
0.00338995
0.00339666
0.00340268
0.00340813
0.00341289
0.00341687
0.0034204
0.0034233
0.00342543
0.00342681
0.00342746
0.00342735
0.00342648
0.00342483
0.00342239
0.00341916
0.00341516
0.00341036
0.00340479
0.00339846
0.00339137
0.00338364
0.00337519
0.00336601
0.00335617
0.00334567
0.00333456
0.00332284
0.00331059
0.00329783
0.00328462
0.00327102
0.00325709
0.00324289
0.00322849
0.00321395
0.00319933
0.00318469
0.00317006
0.00315548
0.003141
0.00312666
0.00311247
0.00309848
0.00308467
0.00307102
0.00305743
0.00304373
0.00302952
0.00301414
0.00299589
0.00296992
5.93103e-09
5.00214e-07
6.47074e-06
2.78407e-05
5.97881e-05
9.26333e-05
0.000119837
0.000140543
0.00015599
0.00016639
0.000172424
0.000175406
0.000176231
0.000175504
0.000173612
0.000170783
0.000167057
0.000162342
0.000156661
0.000150047
0.000142787
0.000134631
0.000121097
0.000105027
9.10887e-05
8.0048e-05
7.38522e-05
7.44163e-05
7.66087e-05
8.88657e-05
0.00011138
0.000134487
0.000153285
0.00016174
0.000170045
0.000181058
0.000188682
0.000196374
0.000210665
0.000232351
0.000259899
0.000295027
0.000336188
0.000384289
0.000437681
0.00049598
0.00055736
0.000620919
0.000685773
0.000751366
0.000817175
0.000882925
0.000948281
0.00101266
0.00107636
0.00113965
0.00120168
0.00126263
0.00132241
0.00138102
0.00143848
0.00149483
0.00155012
0.0016044
0.00165774
0.00171019
0.00176184
0.00181272
0.00186291
0.00191245
0.00196138
0.00200973
0.00205754
0.00210481
0.00215155
0.00219776
0.00224343
0.00228855
0.00233313
0.00237714
0.00242058
0.00246344
0.00250572
0.00254741
0.00258852
0.00262903
0.00266895
0.00270828
0.002747
0.00278511
0.00282259
0.00285944
0.00289565
0.0029312
0.00296606
0.00300023
0.00303368
0.0030664
0.00309837
0.00312958
0.00316
0.00318961
0.00321842
0.00324643
0.00327364
0.00330002
0.00332558
0.0033503
0.00337416
0.00339717
0.00341931
0.00344058
0.00346099
0.00348054
0.00349922
0.00351704
0.00353401
0.00355015
0.00356545
0.00357994
0.00359362
0.0036065
0.00361861
0.00362996
0.00364055
0.0036504
0.00365952
0.00366793
0.0036757
0.00368259
0.00368877
0.00369438
0.00369928
0.00370345
0.0037072
0.00371025
0.00371257
0.00371419
0.00371511
0.00371532
0.0037148
0.00371355
0.00371156
0.00370883
0.00370536
0.00370114
0.00369618
0.0036905
0.00368408
0.00367696
0.0036691
0.00366053
0.00365129
0.00364138
0.00363084
0.00361969
0.00360796
0.0035957
0.00358295
0.00356976
0.00355619
0.00354229
0.00352813
0.00351377
0.00349926
0.00348466
0.00346999
0.00345531
0.00344065
0.00342605
0.00341156
0.00339721
0.003383
0.00336892
0.00335491
0.00334084
0.00332652
0.00331142
0.00329412
0.00327127
1.52989e-08
1.22517e-06
1.44808e-05
4.73441e-05
8.68762e-05
0.000121644
0.000148174
0.000166351
0.000177538
0.000184
0.000186846
0.000186951
0.000185121
0.000181997
0.000178047
0.000173447
0.000168157
0.000162194
0.00015551
0.000147891
0.000139252
0.000128111
0.000112278
9.98199e-05
9.2759e-05
8.88944e-05
8.85001e-05
9.76448e-05
0.000115633
0.000136533
0.000156961
0.00017472
0.000188423
0.000197301
0.000204609
0.000213147
0.00022599
0.000244897
0.000269938
0.000302012
0.000340284
0.000384996
0.000435284
0.000490978
0.000550739
0.000613576
0.000678203
0.000743931
0.000810291
0.000876906
0.000943459
0.00100951
0.00107486
0.00114004
0.00120443
0.00126793
0.00133041
0.00139189
0.00145233
0.00151176
0.00157017
0.00162762
0.00168414
0.00173978
0.00179461
0.00184867
0.00190203
0.00195472
0.00200679
0.00205829
0.00210927
0.00215973
0.0022097
0.00225918
0.00230817
0.00235665
0.00240459
0.00245197
0.00249879
0.002545
0.0025906
0.00263556
0.00267988
0.00272355
0.00276655
0.00280889
0.00285057
0.00289157
0.0029319
0.00297157
0.00301057
0.00304884
0.00308639
0.00312319
0.00315922
0.00319449
0.00322895
0.00326262
0.00329547
0.00332748
0.00335867
0.00338902
0.00341853
0.00344719
0.00347499
0.00350192
0.00352797
0.00355314
0.00357741
0.00360079
0.00362326
0.00364483
0.0036655
0.00368527
0.00370414
0.00372214
0.00373926
0.00375552
0.00377093
0.0037855
0.00379925
0.00381219
0.00382433
0.0038357
0.0038463
0.00385616
0.00386529
0.0038737
0.00388149
0.00388844
0.00389472
0.0039004
0.00390539
0.00390976
0.00391364
0.00391686
0.00391942
0.00392134
0.00392262
0.00392325
0.00392322
0.00392254
0.00392119
0.00391917
0.00391647
0.0039131
0.00390905
0.00390432
0.00389891
0.00389282
0.00388605
0.0038786
0.0038705
0.00386175
0.00385236
0.00384236
0.00383176
0.0038206
0.00380891
0.00379673
0.00378412
0.00377112
0.00375779
0.00374418
0.00373033
0.0037163
0.00370211
0.00368781
0.00367345
0.00365907
0.0036447
0.0036304
0.00361617
0.00360204
0.00358797
0.00357386
0.0035595
0.00354462
0.00352802
0.00350775
3.412e-08
2.81883e-06
2.63728e-05
6.90365e-05
0.000111486
0.000145486
0.000169707
0.000185404
0.000193799
0.000196547
0.000195536
0.000192142
0.000187309
0.000181634
0.000175462
0.000168791
0.000161672
0.000154154
0.000146209
0.000137891
0.000129289
0.000120581
0.000112346
0.000106203
0.000105044
0.00011194
0.000124381
0.000140605
0.000158706
0.000176357
0.000191958
0.000204136
0.000214241
0.000225134
0.000237787
0.000254896
0.000277115
0.000305715
0.00034047
0.000381298
0.000427588
0.000479104
0.000535153
0.000595075
0.00065776
0.000722262
0.000787791
0.000853878
0.000920191
0.000986473
0.00105214
0.00111751
0.00118262
0.00124697
0.00131049
0.00137312
0.00143482
0.00149557
0.00155539
0.00161428
0.00167226
0.00172938
0.00178569
0.00184125
0.00189612
0.00195036
0.00200402
0.00205715
0.00210973
0.00216189
0.00221365
0.00226502
0.00231601
0.0023666
0.0024168
0.00246659
0.00251599
0.00256499
0.00261342
0.00266122
0.00270835
0.00275479
0.00280054
0.00284556
0.00288986
0.00293342
0.00297625
0.00301833
0.00305964
0.00310017
0.0031399
0.00317886
0.00321705
0.00325446
0.00329107
0.00332687
0.00336185
0.003396
0.00342931
0.00346178
0.00349339
0.00352414
0.00355402
0.00358301
0.00361111
0.0036383
0.00366458
0.00368995
0.0037144
0.00373792
0.00376052
0.0037822
0.00380296
0.00382279
0.00384173
0.00385976
0.00387691
0.00389319
0.0039086
0.00392318
0.00393692
0.00394986
0.00396199
0.00397335
0.00398394
0.00399378
0.0040029
0.00401132
0.00401912
0.00402614
0.00403252
0.0040383
0.00404342
0.00404799
0.00405205
0.00405551
0.00405838
0.00406067
0.00406239
0.00406354
0.00406412
0.00406413
0.00406355
0.00406238
0.00406063
0.00405827
0.00405532
0.00405175
0.00404757
0.00404277
0.00403734
0.00403128
0.0040246
0.00401728
0.00400934
0.00400079
0.00399163
0.00398188
0.00397157
0.00396074
0.00394941
0.00393763
0.00392544
0.00391289
0.00390002
0.00388686
0.00387345
0.00385983
0.00384605
0.00383214
0.00381815
0.00380413
0.00379013
0.00377614
0.00376218
0.00374821
0.00373413
0.00371964
0.00370381
0.00368592
6.55442e-08
5.82222e-06
4.05178e-05
9.10667e-05
0.000136271
0.000169202
0.000190421
0.000201545
0.000205323
0.000204079
0.000199563
0.000193047
0.000185389
0.000176991
0.000168151
0.000159317
0.000150148
0.000141769
0.00013423
0.000127663
0.000122504
0.000119877
0.000121048
0.000126679
0.000136432
0.000148901
0.000163421
0.00017886
0.000194074
0.000207564
0.000219157
0.000231748
0.000245824
0.000262323
0.000282473
0.000307951
0.000338981
0.000375695
0.000417672
0.000464569
0.00051591
0.000571286
0.000630069
0.000691523
0.000754784
0.000819125
0.000884003
0.000949069
0.0010139
0.00107822
0.00114258
0.0012063
0.00126933
0.00133155
0.00139286
0.00145326
0.00151274
0.00157132
0.00162902
0.00168588
0.00174193
0.00179714
0.00185168
0.00190562
0.00195903
0.00201199
0.00206458
0.00211694
0.0021693
0.00222145
0.00227333
0.00232496
0.00237631
0.00242737
0.00247814
0.00252857
0.00257858
0.00262808
0.00267706
0.00272544
0.00277317
0.00282025
0.00286663
0.0029123
0.00295724
0.00300143
0.00304487
0.00308755
0.00312947
0.0031706
0.00321097
0.00325054
0.0032893
0.00332725
0.00336438
0.00340067
0.00343611
0.0034707
0.00350442
0.00353727
0.00356924
0.00360033
0.00363051
0.00365979
0.00368814
0.00371558
0.00374208
0.00376765
0.00379229
0.00381599
0.00383875
0.00386058
0.00388147
0.00390143
0.00392048
0.00393862
0.00395586
0.00397224
0.00398775
0.00400242
0.00401626
0.00402929
0.00404152
0.00405297
0.00406366
0.00407361
0.00408283
0.00409138
0.00409928
0.00410648
0.00411306
0.00411903
0.0041244
0.00412927
0.00413361
0.0041374
0.00414067
0.00414343
0.00414569
0.00414745
0.00414872
0.0041495
0.00414979
0.00414958
0.00414886
0.00414762
0.00414587
0.00414358
0.00414075
0.00413736
0.00413341
0.00412888
0.00412375
0.00411803
0.0041117
0.00410476
0.00409721
0.00408906
0.00408032
0.00407101
0.00406116
0.0040508
0.00403996
0.00402868
0.00401698
0.0040049
0.00399247
0.00397972
0.00396669
0.00395344
0.00394002
0.00392646
0.00391282
0.00389913
0.00388542
0.00387167
0.00385787
0.00384378
0.00382859
0.00381294
1.07153e-07
9.91247e-06
5.31972e-05
0.000108785
0.000155897
0.00018812
0.000206185
0.000213683
0.000213927
0.00020947
0.000202167
0.000193244
0.000183403
0.000173911
0.000164487
0.000156132
0.000148864
0.00014329
0.000139817
0.000138442
0.000139626
0.000143667
0.000150616
0.000160156
0.000171675
0.000184446
0.00019782
0.000210747
0.000222784
0.000235772
0.000250897
0.000267672
0.000286836
0.000309974
0.000337702
0.000370465