/*--------------------------------*- C++ -*----------------------------------*\
  =========                 |
  \\      /  F ield         | OpenFOAM: The Open Source CFD Toolbox
   \\    /   O peration     | Website:  https://openfoam.org
    \\  /    A nd           | Version:  13
     \\/     M anipulation  |
\*---------------------------------------------------------------------------*/
FoamFile
{
    format      ascii;
    class       volScalarField;
    location    "1300";
    object      omega;
}
// * * * * * * * * * * * * * * * * * * * * * * * * * * * * * * * * * * * * * //

dimensions      [0 0 -1 0 0 0 0];

internalField   nonuniform List<scalar> 
12225
(
31477.7
31477.7
31477.7
37824.5
31477.7
47603.7
41997.1
44814.9
41385.2
31477.7
31477.7
31477.7
31477.7
40451.6
46031.3
40445.9
31477.7
31477.7
7416.62
17701.2
15251.4
16374.4
17667.9
19092.5
19037.9
19255.7
21995.6
19959.3
21680.1
19701.5
18962.8
19287.4
20437.2
19783.9
20281
20215.6
3009.37
4271.64
5458.78
8770.39
10267.5
9460.8
11034.2
10044.9
10565.6
10850.3
10343
9581.14
9268.37
9007.76
8953.16
8802.17
8754.01
8885.32
33157.7
20285.1
16699.4
11539.1
10671.4
10168.6
9279.82
8575.02
8237.13
7362.08
6092.41
5030.07
4723.6
4607.29
4500.61
4410.06
4160.62
3993.05
50510.7
37048.9
30777.8
21426.8
13347.1
11516.1
10131.1
9064.3
7712.04
5840.03
5155.61
4793.92
3959.06
3364.44
2845
2654.92
2544.95
2503.42
25444.8
12648.8
12252.7
10742.4
6992.49
6481.43
5344.28
4270.08
4027.45
3794.61
3280.26
2815.31
2518.72
2351.54
2103.87
1944.25
1853.89
1796.66
10022.6
5185.55
4919.7
4476.19
2954.88
2958.82
2461.38
2109.65
1842.24
1803.12
1770.88
1617.31
1520.63
1388.11
1340.21
1305.24
1279.33
1271.56
2806.98
1819.6
1731.62
1323.61
1373.64
1153.13
1014.73
1062.51
1048
1042.47
973.104
969.664
935.423
908.157
897.988
896.799
895.047
898.821
797.724
876.424
747.809
696.961
642.378
614.989
616.589
639.667
656.248
664.026
665.276
652.668
647.174
650.691
657.354
665.456
670.363
672.711
460.811
541.09
506.145
485.684
476.754
476.309
479.362
490.808
499.517
501.826
506.101
511.37
515.926
521.794
526.454
532.331
535.898
540.187
442.504
443.224
450.446
447.754
442.636
439.786
439.877
441.681
444.09
446.439
449.412
452.895
456.095
459.461
461.828
464.477
465.879
468.544
439.465
437.349
435.763
434.036
432.123
430.348
429.565
429.23
429.147
429.279
430.002
431.125
432.277
433.453
434.352
435.182
435.672
436.378
439.013
436.858
434.683
432.637
430.691
428.883
427.321
426.013
424.875
423.975
423.264
422.845
422.452
422.238
421.883
421.663
421.225
421.248
438.99
436.784
434.66
432.64
430.705
428.887
427.154
425.573
424.07
422.731
421.446
420.341
419.239
418.311
417.318
416.518
415.595
414.916
438.998
436.776
434.659
432.654
430.739
428.928
427.196
425.565
424.003
422.542
421.137
419.83
418.564
417.391
416.244
415.186
414.146
413.19
439
436.773
434.657
432.649
430.74
428.926
427.2
425.559
423.996
422.511
421.093
419.747
418.459
417.236
416.065
414.952
413.887
412.873
439
436.772
434.655
432.645
430.735
428.92
427.192
425.549
423.984
422.495
421.075
419.722
418.431
417.201
416.026
414.905
413.834
412.813
438.999
436.769
434.65
432.638
430.726
428.909
427.18
425.535
423.968
422.477
421.055
419.7
418.408
417.175
415.998
414.875
413.803
412.779
439
436.771
434.653
432.642
430.731
428.914
427.185
425.54
423.974
422.482
421.061
419.706
418.414
417.181
416.006
414.883
413.811
412.787
439
436.772
434.656
432.646
430.736
428.918
427.193
425.551
423.994
422.509
421.102
419.756
418.483
417.263
416.112
415.005
413.96
412.95
438.996
436.776
434.664
432.644
430.736
428.916
427.242
425.67
424.241
422.882
421.64
420.44
419.349
418.289
417.341
416.399
415.568
414.698
438.939
436.838
434.659
432.584
430.742
429.237
428.203
427.694
427.493
427.461
427.479
427.5
427.461
427.452
427.385
427.435
427.462
427.4
438.766
436.973
434.487
431.901
432.36
435.304
439.828
447.424
454.752
461.563
467.879
472.692
477.058
480.356
483.823
485.936
489.3
490.725
438.003
436.236
434.584
437.974
458.483
493.544
524.536
570.652
601.409
629.104
657.188
673.051
687.597
698.862
704.026
706.367
712.896
716.031
437.785
436.401
435.902
487.5
647.877
799.745
962.786
1031.77
1027.16
1141.82
1181.13
1185.51
1350.2
1372.59
1425.53
1442.59
1429.52
1401.3
435.389
439.011
447.125
820.337
890.558
915.318
1021.12
1085.55
1124.75
1230.51
1407.57
1503.98
2402.61
2520.2
2892.84
3188.28
3206.48
3075.53
412.213
463.121
625.267
724.315
956.5
1106.25
1304.41
1761.03
2170.48
2590.27
3031.52
3376.29
3426.73
3581.66
3588.01
4480.86
4485.62
4844.48
342.657
758.949
1230.79
1469.39
1705.01
2087.19
2362.21
2668.23
3750.41
4317.54
4397.32
5298.92
5470.91
5759.5
5929.06
5917.93
5869.86
5786.41
888.724
3880.38
5842.66
7388.81
8432.87
8981.69
9522.85
10231.7
10590.6
10664.8
10888
11237.6
11694.8
11773.2
11774.9
11789.6
11804.5
11813.1
18117.5
23176
25640.5
26671.8
26860.9
26796.7
26584.3
26193.6
25741.8
25286.4
24829.4
24401.4
24000.3
23635.4
23301
23002.7
22746.4
22523.6
11463.2
2514.24
2516.41
2518.61
2520.83
2523.07
2525.32
2527.6
2529.9
2532.22
2534.57
2536.93
2539.31
2541.72
2544.15
2546.6
2549.08
2551.57
2554.09
2556.64
2559.2
2561.79
2564.41
2567.05
2569.71
2572.4
2575.12
2577.86
2580.62
2583.41
2586.23
2589.08
2591.95
2594.85
2597.77
2600.73
2603.71
2606.72
2609.76
2612.82
2615.92
2619.05
2622.2
2625.39
2628.61
2631.86
2635.14
2638.45
2641.79
2645.17
2648.58
2652.02
2655.5
2659.01
3165.3
3235.93
3271.55
3393.7
3466.04
3428.34
3270.96
3225.35
3329.48
3455.92
3276.36
3424.87
3499.18
3576.99
3653.31
3725.92
3796.77
3865.38
3932.5
3997.96
4062.14
4125.08
4186.94
4247.76
4307.68
4366.66
4424.9
4482.25
4538.94
4594.78
4650.01
4704.4
4758.16
4811.08
4863.32
4914.72
4965.38
5015.18
5064.11
5112.09
5159.05
5204.93
5249.66
5293.17
5335.36
5376.2
5415.62
5453.68
5490.51
5526.46
5561.88
5595.96
5629.07
5661.11
5692.08
5721.98
5750.79
5778.51
5805.13
5830.63
5855.04
5878.33
5900.52
5921.58
5941.54
5960.37
5978.08
5994.65
6010.09
6024.4
6037.57
6049.61
6060.47
6070.15
6078.53
6085.78
6092.93
6097.99
6102.04
6105.1
6107.24
6108.46
6108.29
6106.98
6102.97
6098.52
6092.25
6085.12
6076.12
6066.48
6055.54
6043.49
6030.34
6016.54
6001.43
5985.74
5969.25
5951.94
5934.18
5915.81
5896.9
5877.49
5857.68
5837.38
5816.67
5796.15
5775.81
5755.89
5736.41
5717.6
5699.57
5682.42
5666.21
5651
5636.86
5623.84
5611.98
5601.26
5591.63
5582.82
5574.42
5565.78
5555.47
5541.12
5519.63
5418.34
11463.2
1992.38
992.381
803.001
679.415
606.703
610.473
606.083
592.736
570.295
546.545
522.923
502.758
486.99
476.475
470.625
469.966
481.461
502.952
561.289
645.371
746.34
854.665
961.396
1054.3
1126.96
1160.53
1152.7
1105.78
1024.7
901.584
759.011
632.718
556.32
492.645
453.47
439.803
445.573
457.861
484.655
517.064
544.233
615.364
722.057
849.499
1071.92
1398.05
1684.59
1867.92
1982.5
2038.09
2051.12
2028.81
1993.97
1981.77
1917.87
1871.35
1817.14
1764.63
1717.07
1682.83
1660.73
1642.73
1639.46
1624.16
1622.94
1622.21
1624.92
1628.13
1633.38
1639.42
1646.57
1654.4
1662.88
1671.81
1681.15
1690.75
1700.59
1710.57
1720.64
1730.77
1740.89
1750.97
1760.97
1770.85
1780.58
1790.12
1799.44
1808.52
1817.34
1825.86
1834.07
1841.95
1849.48
1856.67
1863.5
1870
1876.19
1882.11
1887.86
1893.56
1899.46
1905.85
1913.14
1921.82
1929.6
1937.43
1944.89
1952.16
1959.16
1965.92
1972.44
1978.71
1984.74
1990.53
1996.06
2001.35
2006.38
2011.16
2015.68
2019.94
2023.94
2027.69
2031.17
2034.4
2037.37
2040.09
2042.55
2044.76
2046.74
2048.53
2050
2051.3
2052.37
2053.25
2053.83
2054.14
2054.3
2053.01
2049.94
2049.14
2045.2
2044.01
2040.27
2038.02
2032.96
2031.29
2025.59
2023.12
2019.32
2013.48
2010.79
2004.65
2001.2
1995.67
1991.69
1986.84
1981.77
1977.1
1972.14
1967.4
1962.7
1958.15
1953.79
1949.63
1945.67
1941.98
1938.5
1935.26
1932.29
1929.62
1927.25
1925.21
1923.59
1922.38
1921.65
1921.35
1921.94
1922.33
1933.45
11463.2
2003.18
804.582
616.249
648.361
649.245
623.789
568.92
510.17
455.548
407.71
369.672
339.401
315.55
297.153
283.004
273.323
265.711
264.892
268.679
277.987
299.11
331.883
376.148
430.584
490.406
549.752
596.229
624.507
621.767
601.749
560.071
499.988
430.427
378.862
357.804
362.832
380.549
405.97
451.987
536.419
657.682
828.438
1022.03
1185.9
1324
1450.92
1522.21
1537.18
1525.92
1476.53
1420.74
1358.68
1303.88
1256.49
1213.58
1178.76
1147.4
1123.5
1107.67
1094.84
1088.24
1081.88
1079.53
1077.66
1077.71
1079.84
1082.17
1085.33
1089.11
1093.31
1097.92
1102.81
1107.94
1113.24
1118.69
1124.22
1129.82
1135.46
1141.1
1146.73
1152.32
1157.86
1163.32
1168.69
1173.96
1179.11
1184.14
1189.04
1193.79
1198.4
1202.87
1207.19
1211.37
1215.42
1219.35
1223.18
1226.94
1230.66
1234.39
1238.18
1242.06
1246.09
1250.27
1254.42
1258.35
1262.19
1265.87
1269.42
1272.83
1276.1
1279.23
1282.23
1285.08
1287.79
1290.35
1292.76
1295.03
1297.14
1299.1
1300.91
1302.56
1304.05
1305.39
1306.57
1307.6
1308.47
1309.2
1309.78
1310.21
1310.49
1310.67
1310.81
1310.43
1310.33
1309.43
1308.7
1307.76
1306.4
1304.73
1303.27
1301.27
1299.62
1297.43
1295.4
1292.87
1290.86
1288.04
1285.87
1283.25
1280.28
1277.9
1274.76
1272.15
1269.1
1266.4
1263.49
1260.55
1257.72
1254.87
1252.1
1249.39
1246.76
1244.23
1241.8
1239.49
1237.3
1235.24
1233.3
1231.5
1229.86
1228.39
1227.12
1226.11
1225.42
1225.14
1225.32
1226.48
1228.94
1240.11
11463.2
2031.53
978.911
925.246
861.454
739.371
627.117
524.572
444.346
385.026
340.334
305.249
277.831
256.602
240.242
227.732
218.377
211.577
207.093
205.541
206.352
210.559
218.109
232.535
253.976
282.333
316.597
351.434
382.607
405.413
411.315
406.204
386.91
368.569
389.418
454.871
524.496
576.462
633.192
712.096
828.225
964.794
1069.48
1142.58
1206.65
1252.41
1263.83
1212.65
1183.97
1130.69
1080.55
1034.23
993.658
960.8
933.922
912.595
895.766
882.639
873.344
867.291
862.948
861.442
860.153
860.216
861.522
863.319
865.878
868.759
872.046
875.63
879.447
883.46
887.623
891.906
896.279
900.718
905.2
909.706
914.219
918.723
923.203
927.646
932.042
936.378
940.648
944.843
948.958
952.988
956.929
960.782
964.545
968.221
971.814
975.328
978.773
982.157
985.49
988.787
992.06
995.321
998.579
1001.83
1005.08
1008.28
1011.38
1014.37
1017.26
1020.03
1022.7
1025.26
1027.71
1030.04
1032.26
1034.36
1036.35
1038.21
1039.94
1041.55
1043.03
1044.38
1045.6
1046.69
1047.64
1048.46
1049.15
1049.71
1050.13
1050.42
1050.59
1050.65
1050.56
1050.34
1050.02
1049.48
1048.87
1047.99
1047.04
1045.93
1044.6
1043.13
1041.59
1039.88
1038.17
1036.26
1034.3
1032.19
1030.13
1027.83
1025.66
1023.32
1020.87
1018.54
1016
1013.58
1011.05
1008.61
1006.11
1003.62
1001.18
998.748
996.376
994.052
991.788
989.594
987.474
985.433
983.479
981.612
979.836
978.16
976.584
975.131
973.823
972.699
971.816
971.23
971.146
971.812
973.695
980.691
11463.2
2273.35
1396.78
1132.66
902.95
700.179
540.729
434.068
360.532
309.234
273.028
247.067
228.062
213.725
202.677
194.093
187.48
182.542
179.111
177.213
177.359
178.548
181.635
188.112
198.447
213.568
233.912
257.163
280.758
301.761
314.393
326.722
372.8
446.048
540.703
608.974
672.324
743.542
819.26
890.527
953.204
1006.93
1053.01
1075.54
1078.54
1039.42
1000.44
960.352
923.436
884.02
852.161
824.56
802.156
784.465
770.548
760.02
752.213
746.754
743.405
741.728
741.236
741.589
742.818
744.684
747.138
749.962
753.151
756.584
760.242
764.077
768.055
772.15
776.337
780.597
784.912
789.264
793.639
798.024
802.404
806.769
811.108
815.411
819.67
823.877
828.028
832.117
836.141
840.098
843.987
847.806
851.56
855.25
858.878
862.448
865.965
869.433
872.857
876.24
879.587
882.896
886.163
889.379
892.529
895.603
898.584
901.466
904.252
906.935
909.515
911.988
914.352
916.605
918.744
920.767
922.67
924.45
926.104
927.63
929.026
930.291
931.423
932.422
933.287
934.017
934.612
935.071
935.392
935.567
935.616
935.633
935.437
935.111
934.65
934.033
933.292
932.382
931.35
930.174
928.839
927.388
925.828
924.148
922.387
920.504
918.525
916.451
914.317
912.07
909.811
907.458
905.046
902.627
900.13
897.643
895.112
892.601
890.074
887.553
885.058
882.587
880.153
877.76
875.416
873.128
870.899
868.736
866.643
864.623
862.678
860.814
859.042
857.367
855.807
854.391
853.164
852.184
851.627
851.713
852.663
856.455
11463.2
2823.52
1662.24
1162.35
807.471
572.022
433.723
347.911
295.391
261.253
237.038
218.727
204.276
192.68
183.356
175.93
170.171
165.922
163.043
161.525
161.563
162.571
165.163
169.959
177.179
187.461
202.263
221.007
243.955
275.254
323.275
391.437
495.821
590.558
658.232
720.381
778.383
826.806
865.453
899.941
932.126
945.926
942.235
911.691
883.699
850.31
819.018
788.987
762.175
738.343
719.239
703.408
690.98
681.447
674.349
669.373
666.33
664.882
664.458
664.905
666.33
668.396
671.025
674.068
677.461
681.12
685.003
689.06
693.263
697.586
702.006
706.506
711.07
715.683
720.331
725.004
729.688
734.371
739.044
743.696
748.317
752.902
757.442
761.933
766.371
770.752
775.075
779.338
783.541
787.686
791.772
795.803
799.78
803.705
807.58
811.406
815.184
818.914
822.594
826.221
829.787
833.281
836.696
840.025
843.259
846.396
849.431
852.361
855.181
857.886
860.475
862.942
865.286
867.503
869.591
871.545
873.36
875.036
876.57
877.96
879.207
880.308
881.264
882.073
882.737
883.253
883.621
883.827
883.916
883.921
883.737
883.399
882.913
882.276
881.496
880.562
879.486
878.265
876.897
875.4
873.777
872.029
870.17
868.192
866.102
863.909
861.624
859.24
856.79
854.263
851.673
849.039
846.349
843.632
840.882
838.124
835.354
832.585
829.831
827.096
824.39
821.719
819.091
816.511
813.986
811.52
809.119
806.784
804.518
802.323
800.208
798.178
796.248
794.441
792.79
791.349
790.238
789.626
789.748
791.3
11463.2
3325.26
1717.69
1011.38
638.611
449.177
348.59
291.872
256.05
231.547
213.622
199.814
188.91
179.916
172.334
166.019
160.949
157.135
154.659
153.576
153.945
155.673
159.37
165.397
174.555
188.001
205.71
231.293
271.604
334.876
430.253
530.686
607.504
668.657
720.944
762.031
793.723
820.438
840.331
848.048
839.836
816.928
796.516
770.475
746.464
721.586
699.01
678.745
661.464
647.027
635.522
626.401
619.548
614.667
611.576
610.036
609.604
610.068
611.508
613.681
616.481
619.765
623.454
627.454
631.71
636.169
640.795
645.557
650.429
655.394
660.434
665.536
670.686
675.874
681.089
686.317
691.55
696.776
701.984
707.166
712.313
717.419
722.477
727.484
732.437
737.334
742.173
746.954
751.677
756.344
760.956
765.514
770.019
774.471
778.871
783.219
787.512
791.748
795.925
800.038
804.081
808.049
811.937
815.732
819.426
823.015
826.493
829.854
833.092
836.203
839.18
842.02
844.718
847.265
849.659
851.899
853.982
855.906
857.67
859.273
860.714
861.992
863.107
864.06
864.85
865.477
865.941
866.238
866.376
866.398
866.262
865.939
865.452
864.804
863.996
863.028
861.902
860.62
859.183
857.6
855.873
854.006
852.005
849.871
847.611
845.229
842.735
840.131
837.43
834.616
831.724
828.767
825.748
822.683
819.58
816.451
813.307
810.156
807.012
803.883
800.779
797.706
794.673
791.687
788.753
785.879
783.068
780.323
777.645
775.038
772.506
770.056
767.7
765.455
763.35
761.425
759.759
758.475
757.651
757.668
11463.2
3486.08
1540.29
809.385
510.749
376.709
309.073
268.95
241.482
222.09
207.275
195.3
185.174
176.478
169.069
162.941
158.206
155.043
153.489
153.572
155.076
158.439
164.312
173.523
188.057
210.888
245.591
300.048
382.903
471.378
543.818
602.549
652.449
693.45
725.631
751.998
766.829
771.06
762.202
744.801
727.949
708.093
689.623
670.128
651.8
634.207
618.735
605.444
594.45
585.606
578.781
573.715
570.261
568.451
567.825
568.041
569.33
571.437
574.262
577.678
581.59
585.903
590.547
595.458
600.585
605.889
611.338
616.906
622.572
628.319
634.131
639.996
645.902
651.837
657.791
663.752
669.71
675.653
681.571
687.453
693.294
699.085
704.823
710.503
716.125
721.686
727.186
732.624
738.003
743.324
748.588
753.796
758.948
764.044
769.083
774.063
778.98
783.833
788.616
793.324
797.953
802.501
806.953
811.299
815.529
819.638
823.618
827.463
831.166
834.722
838.123
841.365
844.444
847.356
850.098
852.664
855.053
857.26
859.285
861.127
862.786
864.261
865.553
866.661
867.587
868.33
868.891
869.27
869.455
869.501
869.373
869.044
868.532
867.84
866.969
865.921
864.696
863.297
861.726
859.987
858.083
856.017
853.795
851.42
848.896
846.231
843.432
840.506
837.462
834.308
831.067
827.744
824.348
820.892
817.388
813.848
810.284
806.709
803.134
799.571
796.029
792.518
789.045
785.618
782.244
778.93
775.68
772.497
769.384
766.343
763.379
760.497
757.708
755.028
752.475
750.085
747.887
745.965
744.35
743.108
11463.2
3367.3
1281.8
656.404
434.064
336.669
285.085
254.128
233.906
218.123
205.371
194.723
185.627
177.824
171.225
165.966
162.306
160.389
160.369
162.642
167.493
175.91
189.48
209.879
240.798
288.808
353.207
424.659
487.051
540.83
586.251
624.839
657.108
684.872
701.467
706.228
700.105
687.168
672.82
657.077
642.261
627.306
612.994
598.735
585.389
573.234
562.829
554.202
547.276
541.951
538.122
535.771
534.765
534.643
535.554
537.385
540.046
543.416
547.398
551.901
556.845
562.156
567.773
573.641
579.718
585.965
592.353
598.857
605.459
612.136
618.873
625.656
632.471
639.306
646.149
652.986
659.81
666.608
673.368
680.08
686.737
693.333
699.865
706.329
712.726
719.055
725.316
731.509
737.634
743.686
749.671
755.598
761.468
767.279
773.031
778.72
784.342
789.892
795.365
800.754
806.05
811.242
816.321
821.278
826.104
830.792
835.332
839.717
843.939
847.99
851.864
855.555
859.059
862.37
865.485
868.399
871.109
873.612
875.908
877.996
879.876
881.548
883.013
884.272
885.325
886.172
886.816
887.255
887.476
887.527
887.378
887.016
886.45
885.681
884.712
883.543
882.177
880.614
878.858
876.909
874.772
872.45
869.945
867.264
864.411
861.393
858.219
854.897
851.438
847.854
844.158
840.363
836.48
832.524
828.507
824.446
820.353
816.244
812.132
808.03
803.949
799.9
795.891
791.93
788.026
784.186
780.416
776.717
773.094
769.55
766.088
762.714
759.437
756.269
753.225
750.331
747.624
745.139
742.87
740.636
11463.2
2984.04
1042.36
562.247
397.068
320.855
278.706
252.139
234.079
220.925
210.418
201.508
193.799
187.286
182.153
178.864
177.786
179.294
183.688
191.777
204.386
223.587
252.026
291.457
340.25
391.545
441.974
488.039
528.146
563.16
593.072
619.558
639.006
646.504
645.748
637.308
626.291
613.768
601.633
589.883
578.769
567.825
557.185
546.911
537.483
529.206
522.292
516.754
512.554
509.629
508.089
507.603
508.021
509.441
511.769
514.915
518.798
523.331
528.434
534.033
540.061
546.456
553.159
560.118
567.289
574.635
582.124
589.731
597.447
605.228
613.058
620.92
628.8
636.681
644.546
652.378
660.151
667.847
675.488
683.072
690.591
698.038
705.411
712.709
719.933
727.082
734.159
741.164
748.1
754.974
761.789
768.537
775.218
781.831
788.372
794.837
801.22
807.517
813.72
819.821
825.81
831.677
837.412
843.006
848.45
853.735
858.85
863.785
868.532
873.082
877.427
881.561
885.479
889.175
892.646
895.886
898.894
901.666
904.202
906.503
908.568
910.4
911.999
913.367
914.504
915.412
916.093
916.545
916.755
916.767
916.551
916.105
915.434
914.537
913.416
912.073
910.51
908.728
906.727
904.511
902.081
899.44
896.592
893.542
890.295
886.859
883.243
879.457
875.512
871.421
867.199
862.859
858.416
853.886
849.284
844.628
839.934
835.22
830.5
825.79
821.102
816.449
811.839
807.283
802.788
798.364
794.015
789.746
785.562
781.466
777.462
773.555
769.752
766.063
762.497
759.074
755.806
752.741
749.837
746.695
11463.2
2526.72
876.889
504.028
371.716
310.223
276.119
255.458
241.469
231.018
222.64
215.739
210.248
206.597
205.279
206.574
211.64
220.205
231.863
248.025
270.495
299.562
333.951
371.426
409.394
445.661
479.277
509.564
535.999
559.9
580.579
591.297
593.821
590.618
584.078
575.022
565.61
556.402
547.756
539.466
531.41
523.447
515.705
508.412
501.886
496.348
491.92
488.627
486.539
485.648
485.591
486.563
488.487
491.317
494.994
499.447
504.602
510.387
516.733
523.575
530.857
538.546
546.554
554.828
563.324
572
580.81
589.704
598.598
607.537
616.52
625.527
634.538
643.536
652.496
661.402
670.248
679.033
687.736
696.351
704.874
713.295
721.615
729.837
737.965
746.003
753.952
761.813
769.589
777.281
784.892
792.425
799.883
807.263
814.562
821.773
828.89
835.907
842.815
849.607
856.27
862.793
869.164
875.373
881.407
887.257
892.91
898.356
903.584
908.585
913.349
917.87
922.143
926.162
929.923
933.422
936.654
939.621
942.321
944.757
946.93
948.842
950.494
951.888
953.028
953.914
954.55
954.93
955.058
954.949
954.592
953.988
953.135
952.036
950.692
949.104
947.273
945.201
942.889
940.336
937.547
934.521
931.264
927.78
924.075
920.156
916.034
911.718
907.222
902.559
897.745
892.795
887.726
882.556
877.303
871.987
866.628
861.244
855.853
850.472
845.116
839.798
834.529
829.318
824.176
819.112
814.132
809.241
804.447
799.753
795.165
790.685
786.318
782.073
777.956
773.978
770.146
766.499
762.99
759.028
11463.2
2174.4
807.676
485.739
366.724
311.423
282.67
265.651
254.497
246.584
240.766
236.784
235.031
235.166
238.692
245.749
256.161
269.436
286.149
306.858
331.03
357.63
385.388
413.06
439.67
464.463
486.937
507.814
526.969
539.847
544.848
545.455
543.217
538.273
532.121
525.503
519.084
512.941
507.03
501.211
495.433
489.73
484.275
479.301
475.045
471.676
469.277
468.064
467.762
468.411
470.028
472.598
476.079
480.44
485.666
491.673
498.371
505.697
513.585
521.961
530.735
539.758
549.098
558.744
568.656
578.788
589.091
599.526
610.08
620.684
631.283
641.841
652.33
662.741
673.027
683.17
693.168
703.024
712.732
722.286
731.689
740.954
750.096
759.125
768.048
776.87
785.591
794.214
802.74
811.172
819.514
827.77
835.942
844.028
852.021
859.914
867.698
875.366
882.909
890.318
897.58
904.68
911.604
918.338
924.87
931.188
937.279
943.131
948.732
954.071
959.14
963.931
968.438
972.658
976.585
980.214
983.543
986.574
989.308
991.748
993.897
995.755
997.328
998.619
999.63
1000.37
1000.83
1001.02
1000.94
1000.6
999.99
999.117
997.978
996.575
994.909
992.98
990.791
988.342
985.633
982.664
979.436
975.952
972.213
968.226
963.995
959.529
954.836
949.93
944.822
939.528
934.063
928.443
922.689
916.82
910.859
904.827
898.746
892.638
886.521
880.414
874.335
868.297
862.314
856.397
850.556
844.799
839.136
833.576
828.125
822.79
817.576
812.483
807.516
802.681
797.981
793.422
789.009
784.774
780.679
775.959
11463.2
1883.5
739.34
465.329
364.214
317.653
293.414
279.557
271.061
265.71
262.881
261.994
263.139
267.204
274.241
284.068
296.431
311.158
328.073
346.824
366.889
387.506
407.872
427.249
445.501
463.014
479.61
492.694
499.526
502.367
503.221
502.183
499.482
495.837
491.853
487.805
483.83
479.903
475.979
472.04
468.14
464.403
461.011
458.16
456.033
454.918
454.645
455.394
457.206
459.949
463.604
468.153
473.556
479.738
486.547
494.021
502.227
511.132
520.675
530.792
541.428
552.568
564.112
575.993
588.154
600.539
613.072
625.688
638.344
650.965
663.449
675.731
687.76
699.484
710.908
722.037
732.89
743.494
753.884
764.081
774.096
783.952
793.679
803.292
812.8
822.206
831.506
840.703
849.797
858.791
867.692
876.502
885.224
893.852
902.378
910.791
919.082
927.24
935.257
943.119
950.813
958.32
965.624
972.707
979.556
986.158
992.5
998.568
1004.35
1009.83
1015.01
1019.87
1024.41
1028.63
1032.53
1036.09
1039.31
1042.21
1044.78
1047.03
1048.96
1050.57
1051.87
1052.87
1053.56
1053.97
1054.08
1053.9
1053.44
1052.7
1051.69
1050.4
1048.83
1046.98
1044.86
1042.47
1039.8
1036.86
1033.65
1030.17
1026.41
1022.37
1018.07
1013.5
1008.67
1003.59
998.263
992.704
986.927
980.945
974.777
968.435
961.945
955.33
948.614
941.821
934.974
928.095
921.207
914.329
907.481
900.678
893.935
887.265
880.678
874.182
867.792
861.518
855.37
849.355
843.476
837.735
832.132
826.674
821.362
816.197
811.185
806.353
801.683
796.237
11463.2
1887.64
738.416
468.27
371.969
328.832
307.269
295.619
289.117
285.939
284.95
285.911
289.504
295.455
303.588
313.615
325.263
338.271
352.389
367.21
382.23
396.96
411.329
425.503
439.117
450.39
457.899
462.748
465.687
466.995
467.326
466.8
465.502
463.824
461.967
460.015
458.005
455.954
453.902
451.936
450.217
449.015
448.428
448.35
449.039
450.578
452.891
455.883
459.505
464.055
469.586
476.097
483.565
491.963
501.307
511.553
522.645
534.525
547.111
560.323
574.09
588.35
602.993
617.925
633.067
648.39
663.716
678.921
693.881
708.492
722.694
736.417
749.605
762.222
774.272
785.788
796.817
807.445
817.803
827.976
837.961
847.802
857.564
867.265
876.9
886.456
895.919
905.285
914.56
923.749
932.852
941.874
950.812
959.658
968.398
977.021
985.511
993.858
1002.05
1010.07
1017.89
1025.51
1032.89
1040.02
1046.89
1053.47
1059.75
1065.73
1071.39
1076.7
1081.68
1086.31
1090.58
1094.5
1098.07
1101.3
1104.17
1106.68
1108.83
1110.63
1112.08
1113.18
1113.95
1114.39
1114.5
1114.31
1113.82
1113.02
1111.92
1110.55
1108.9
1106.98
1104.79
1102.32
1099.58
1096.56
1093.27
1089.7
1085.85
1081.72
1077.31
1072.62
1067.66
1062.42
1056.91
1051.13
1045.1
1038.83
1032.32
1025.6
1018.68
1011.57
1004.31
996.914
989.411
981.826
974.181
966.501
958.809
951.126
943.474
935.87
928.33
920.87
913.5
906.227
899.073
892.052
885.173
878.445
871.87
865.448
859.179
853.07
847.119
841.328
835.694
830.231
824.965
818.808
11463.2
1834.31
726.199
471.882
381.987
342.128
322.395
311.84
306.286
303.871
303.382
305.197
309.386
315.411
322.916
331.553
341.116
351.385
362.11
373.001
383.93
395.046
405.667
414.47
421.502
427.061
431.689
435.162
437.801
439.794
441.353
442.571
443.592
444.537
445.327
446.004
446.623
447.243
447.93
448.749
449.719
450.709
452.235
454.578
457.976
462.356
467.706
474.084
481.553
490.085
499.707
510.432
522.227
535.046
548.863
563.626
579.333
595.889
613.089
630.8
648.903
667.282
685.81
704.356
722.781
740.899
758.655
775.944
792.648
808.649
823.844
838.131
851.426
863.718
875.081
885.605
895.355
904.47
913.36
922.292
931.077
939.796
948.637
957.578
966.555
975.524
984.455
993.339
1002.16
1010.93
1019.63
1028.27
1036.86
1045.38
1053.82
1062.16
1070.37
1078.45
1086.36
1094.11
1101.65
1108.96
1116.02
1122.8
1129.27
1135.44
1141.27
1146.76
1151.89
1156.64
1161.02
1165.01
1168.61
1171.83
1174.68
1177.17
1179.28
1181
1182.33
1183.3
1183.89
1184.1
1183.96
1183.52
1182.71
1181.58
1180.15
1178.42
1176.39
1174.09
1171.53
1168.7
1165.61
1162.26
1158.65
1154.76
1150.61
1146.2
1141.51
1136.55
1131.33
1125.83
1120.05
1114.01
1107.7
1101.12
1094.29
1087.21
1079.89
1072.36
1064.62
1056.72
1048.66
1040.47
1032.16
1023.76
1015.31
1006.81
998.295
989.789
981.312
972.885
964.525
956.25
948.072
940
932.062
924.273
916.643
909.181
901.887
894.761
887.803
881.006
874.378
867.922
861.63
855.507
849.626
842.773
11463.7
1816.98
727.466
480.893
393.378
354.75
335.999
325.717
320
317.459
316.876
318.435
322.06
327.122
333.2
340.009
347.444
355.375
363.682
372.08
380.106
387.613
394.536
401.22
407.365
413.083
418.474
423.525
428.298
432.789
436.985
440.828
444.185
447.084
449.928
452.824
455.854
459.11
462.692
466.709
471.303
476.753
483.2
490.92
500.032
510.223
521.523
533.969
547.571
562.287
578.131
595.199
613.398
632.487
652.319
672.748
693.574
714.662
735.952
757.336
778.69
799.889
820.815
841.351
861.381
880.795
899.505
917.429
934.484
950.588
965.662
979.613
992.262
1003.66
1014.01
1023.48
1032.18
1040.21
1047.65
1054.61
1061.15
1067.62
1074.67
1082.06
1089.57
1097.12
1104.68
1112.22
1119.74
1127.23
1134.69
1142.14
1149.57
1157
1164.39
1171.7
1178.92
1186
1192.94
1199.71
1206.27
1212.6
1218.65
1224.38
1229.78
1234.84
1239.54
1243.85
1247.78
1251.3
1254.41
1257.11
1259.38
1261.26
1262.77
1263.88
1264.59
1264.9
1264.82
1264.43
1263.63
1262.48
1261
1259.21
1257.09
1254.68
1251.99
1249.02
1245.79
1242.3
1238.56
1234.57
1230.35
1225.88
1221.16
1216.21
1211.01
1205.57
1199.88
1193.94
1187.76
1181.32
1174.63
1167.68
1160.48
1153.02
1145.32
1137.37
1129.2
1120.81
1112.22
1103.47
1094.57
1085.53
1076.38
1067.13
1057.81
1048.45
1039.07
1029.7
1020.35
1011.05
1001.82
992.683
983.657
974.774
966.042
957.472
949.07
940.842
932.792
924.919
917.225
909.698
902.354
895.194
888.21
881.391
874.867
867.326
11462.8
1798.14
729.068
487.582
401.763
363.837
345.44
334.928
328.982
326.268
325.554
326.772
329.913
334.377
339.925
346.244
353.154
360.45
368.004
375.726
383.712
391.528
399.143
406.706
414.144
421.526
428.903
436.3
443.753
451.185
458.601
466.043
473.644
481.55
489.772
498.406
507.555
517.332
527.862
539.279
551.718
565.338
580.117
595.975
612.708
630.492
649.4
669.4
690.383
712.236
734.86
758.21
781.943
805.921
829.995
854.013
877.811
901.249
924.226
946.644
968.424
989.5
1009.81
1029.31
1047.93
1065.64
1082.39
1098.16
1112.92
1126.67
1139.4
1151.14
1161.95
1171.69
1180.55
1188.71
1196.3
1203.32
1209.48
1214.69
1219.39
1223.98
1229.02
1234.16
1239.32
1244.47
1249.61
1254.75
1259.93
1265.14
1270.41
1275.73
1281.12
1286.55
1291.98
1297.35
1302.62
1307.76
1312.77
1317.6
1322.23
1326.61
1330.68
1334.41
1337.8
1340.84
1343.49
1345.76
1347.64
1349.12
1350.2
1350.87
1351.13
1351.03
1350.61
1349.81
1348.65
1347.15
1345.31
1343.16
1340.69
1337.92
1334.88
1331.56
1328
1324.18
1320.14
1315.87
1311.38
1306.68
1301.77
1296.65
1291.34
1285.81
1280.08
1274.14
1267.99
1261.64
1255.06
1248.26
1241.24
1233.99
1226.51
1218.79
1210.83
1202.64
1194.21
1185.55
1176.67
1167.58
1158.29
1148.82
1139.19
1129.42
1119.52
1109.53
1099.47
1089.36
1079.22
1069.07
1058.95
1048.88
1038.87
1028.94
1019.13
1009.47
999.966
990.614
981.428
972.414
963.58
954.927
946.461
938.201
930.14
922.274
914.591
907.073
899.893
891.702
11461.8
1786.16
732.196
490.514
406.999
370.01
352.43
342.233
337.194
335.233
335.118
337.464
341.544
346.945
353.394
361.039
369.743
378.581
387.999
398.206
409.299
420.776
432.551
444.828
457.626
470.958
484.81
499.166
513.983
529.316
545.255
561.84
579.145
597.181
615.883
635.28
655.432
676.432
698.43
721.627
745.903
771.186
797.277
823.938
851.002
878.538
906.879
935.82
964.778
993.463
1021.55
1048.49
1074.31
1099.03
1122.6
1144.98
1166.13
1186.07
1204.81
1222.37
1238.8
1254.14
1268.42
1281.67
1293.9
1305.12
1315.36
1324.63
1332.95
1340.31
1346.79
1352.49
1357.76
1362.75
1367.35
1371.46
1375.08
1378.16
1380.62
1382.77
1384.96
1387.54
1389.7
1391.58
1393.3
1394.96
1396.65
1398.45
1400.42
1402.57
1404.9
1407.41
1410.03
1412.8
1415.54
1418.29
1420.89
1423.42
1425.83
1428.09
1430.15
1431.95
1433.46
1434.63
1435.47
1436.02
1436.17
1435.97
1435.41
1434.51
1433.25
1431.65
1429.71
1427.48
1424.96
1422.15
1419.07
1415.71
1412.1
1408.24
1404.15
1399.83
1395.31
1390.6
1385.7
1380.62
1375.38
1369.97