/*--------------------------------*- C++ -*----------------------------------*\
  =========                 |
  \\      /  F ield         | OpenFOAM: The Open Source CFD Toolbox
   \\    /   O peration     | Website:  https://openfoam.org
    \\  /    A nd           | Version:  13
     \\/     M anipulation  |
\*---------------------------------------------------------------------------*/
FoamFile
{
    format      ascii;
    class       volScalarField;
    location    "1300";
    object      p;
}
// * * * * * * * * * * * * * * * * * * * * * * * * * * * * * * * * * * * * * //

dimensions      [0 2 -2 0 0 0 0];

internalField   nonuniform List<scalar> 
12225
(
-4.4865
-5.35323
-5.74602
-5.87458
-6.00373
-6.16066
-6.30115
-6.41539
-6.51206
-6.5848
-6.65078
-6.72293
-6.79683
-6.873
-6.95087
-7.03181
-7.11867
-7.22
-4.763
-5.38658
-5.71967
-5.84822
-5.97657
-6.12754
-6.26842
-6.3825
-6.47415
-6.55346
-6.62775
-6.70151
-6.77459
-6.84784
-6.9265
-7.00832
-7.08324
-7.13427
-4.93469
-5.38185
-5.70118
-5.8564
-5.99006
-6.13631
-6.27259
-6.38361
-6.47332
-6.55405
-6.63017
-6.70312
-6.77482
-6.84606
-6.91937
-6.99131
-7.05275
-7.09394
-5.07434
-5.39869
-5.70335
-5.86967
-5.99748
-6.1334
-6.26329
-6.37174
-6.46101
-6.54129
-6.61708
-6.69016
-6.7619
-6.83237
-6.9021
-6.96826
-7.02515
-7.0662
-5.21581
-5.44435
-5.71665
-5.88282
-6.00629
-6.13469
-6.26002
-6.36709
-6.45646
-6.53673
-6.61264
-6.68569
-6.75642
-6.82472
-6.89046
-6.95159
-7.00455
-7.04481
-5.32624
-5.49938
-5.73076
-5.89358
-6.01537
-6.13758
-6.25762
-6.36209
-6.45059
-6.53011
-6.60516
-6.67701
-6.74584
-6.8116
-6.87399
-6.93149
-6.9816
-7.02134
-5.41722
-5.55287
-5.75159
-5.90764
-6.02631
-6.14225
-6.2565
-6.35796
-6.44536
-6.52413
-6.59824
-6.66882
-6.73598
-6.79961
-6.85935
-6.91396
-6.96168
-7.00074
-5.50026
-5.60764
-5.77888
-5.92396
-6.03822
-6.14848
-6.25712
-6.35529
-6.44114
-6.51877
-6.59157
-6.66053
-6.72571
-6.78699
-6.84404
-6.89585
-6.94136
-6.97957
-5.57946
-5.66351
-5.80832
-5.94159
-6.05143
-6.15633
-6.25929
-6.35366
-6.43744
-6.51356
-6.58474
-6.65187
-6.715
-6.77402
-6.82861
-6.87809
-6.92187
-6.95941
-5.65347
-5.71836
-5.83913
-5.96059
-6.06532
-6.16455
-6.26168
-6.35195
-6.43337
-6.50776
-6.57718
-6.64243
-6.70355
-6.76044
-6.81286
-6.86036
-6.90271
-6.93953
-5.72046
-5.77054
-5.87104
-5.98038
-6.07898
-6.17242
-6.26385
-6.34997
-6.42877
-6.5012
-6.56877
-6.63212
-6.69131
-6.74625
-6.79676
-6.84259
-6.88369
-6.91983
-5.7756
-5.81568
-5.90077
-5.99909
-6.09145
-6.17959
-6.26595
-6.34819
-6.42436
-6.4948
-6.56056
-6.62215
-6.67961
-6.73287
-6.78182
-6.82632
-6.86642
-6.90194
-5.82482
-5.85771
-5.92997
-6.01789
-6.10391
-6.18688
-6.26837
-6.34673
-6.42014
-6.48847
-6.55236
-6.61217
-6.66794
-6.71961
-6.76713
-6.81042
-6.84961
-6.88455
-5.87459
-5.9016
-5.96198
-6.03917
-6.11803
-6.19531
-6.27156
-6.34557
-6.41573
-6.48154
-6.54322
-6.60099
-6.65488
-6.70483
-6.75083
-6.79287
-6.83107
-6.86535
-5.92306
-5.94522
-5.99527
-6.06209
-6.13331
-6.20458
-6.27539
-6.34477
-6.41129
-6.4742
-6.53339
-6.58893
-6.64078
-6.68893
-6.73334
-6.77406
-6.81121
-6.84477
-5.96744
-5.98572
-6.02734
-6.08487
-6.14858
-6.21382
-6.27932
-6.34406
-6.40678
-6.46658
-6.52314
-6.57633
-6.62611
-6.6724
-6.71522
-6.7546
-6.79068
-6.82346
-6.00366
-6.01905
-6.05435
-6.10444
-6.16162
-6.22144
-6.28218
-6.34271
-6.40184
-6.45866
-6.51267
-6.56363
-6.61142
-6.65596
-6.69727
-6.73537
-6.7704
-6.80242
-6.02552
-6.03912
-6.07053
-6.11588
-6.16863
-6.22463
-6.28195
-6.3394
-6.39583
-6.45033
-6.50232
-6.55149
-6.59767
-6.6408
-6.68084
-6.71787
-6.75197
-6.78329
-6.02301
-6.03628
-6.067
-6.11155
-6.16347
-6.21861
-6.27506
-6.33167
-6.38729
-6.44102
-6.49225
-6.54068
-6.58612
-6.62851
-6.66783
-6.70418
-6.73766
-6.76847
-5.98786
-6.00304
-6.0378
-6.08725
-6.14347
-6.20199
-6.26125
-6.32031
-6.37802
-6.43345
-6.48599
-6.53542
-6.58151
-6.62428
-6.6637
-6.69994
-6.73313
-6.76355
-5.93827
-5.95655
-5.99834
-6.05604
-6.11902
-6.18266
-6.24627
-6.3092
-6.37027
-6.42846
-6.48332
-6.53456
-6.58208
-6.62579
-6.66583
-6.70234
-6.73557
-6.76582
-5.87499
-5.89814
-5.9514
-6.02118
-6.09276
-6.16249
-6.23136
-6.29904
-6.36412
-6.42566
-6.4833
-6.53683
-6.5861
-6.63108
-6.67193
-6.7089
-6.7423
-6.77252
-5.80004
-5.82983
-5.90064
-5.98632
-6.06734
-6.14343
-6.21797
-6.29065
-6.35977
-6.4246
-6.48501
-6.54086
-6.59189
-6.63813
-6.67974
-6.7171
-6.75051
-6.78047
-5.71455
-5.7519
-5.84744
-5.95183
-6.0428
-6.12597
-6.20711
-6.28543
-6.35885
-6.42689
-6.48986
-6.54767
-6.60018
-6.64742
-6.68967
-6.72731
-6.76075
-6.79057
-5.61956
-5.66967
-5.79181
-5.91327
-6.01355
-6.10449
-6.19378
-6.2794
-6.35867
-6.4314
-6.49789
-6.5581
-6.61201
-6.65991
-6.7023
-6.73967
-6.77247
-6.80122
-5.51621
-5.6064
-5.74932
-5.88288
-5.9897
-6.08589
-6.18131
-6.2728
-6.3574
-6.4353
-6.50657
-6.57066
-6.62739
-6.67723
-6.72088
-6.75901
-6.79224
-6.82127
-5.40067
-5.54725
-5.71793
-5.8618
-5.97489
-6.07642
-6.17697
-6.27189
-6.35895
-6.43914
-6.51255
-6.57843
-6.63651
-6.68722
-6.7314
-6.76978
-6.80308
-6.83267
-5.26526
-5.4695
-5.70271
-5.83924
-5.95452
-6.06616
-6.17717
-6.27924
-6.37145
-6.45564
-6.53164
-6.59902
-6.65768
-6.70829
-6.75193
-6.78939
-6.82161
-6.85059
-5.06915
-5.4573
-5.72683
-5.83815
-5.92664
-6.04274
-6.16356
-6.27257
-6.37037
-6.45963
-6.53985
-6.60989
-6.66977
-6.72047
-6.76347
-6.80002
-6.83131
-6.85696
-4.8013
-5.38583
-5.72612
-5.84135
-5.90318
-6.02763
-6.16188
-6.28031
-6.38528
-6.48058
-6.56624
-6.63977
-6.70132
-6.75249
-6.79477
-6.83023
-6.86046
-6.88314
-7.68143
-7.68154
-7.68161
-7.68161
-7.68128
-7.68005
-7.67763
-7.67456
-7.67171
-7.67001
-7.67023
-7.6725
-7.67634
-7.68111
-7.68613
-7.69083
-7.69471
-7.69741
-7.69889
-7.69947
-7.6994
-7.69885
-7.69802
-7.69719
-7.69657
-7.69624
-7.69613
-7.69608
-7.6959
-7.69553
-7.69502
-7.69441
-7.69367
-7.69275
-7.69162
-7.69045
-7.68966
-7.68988
-7.69153
-7.6943
-7.69737
-7.69994
-7.70175
-7.7031
-7.70445
-7.70634
-7.70919
-7.71247
-7.7152
-7.71728
-7.72104
-7.73024
-7.74846
-7.77581
-7.81108
-7.85342
-7.90294
-7.95946
-8.02161
-8.08733
-8.15478
-8.22213
-8.28791
-8.35077
-8.40994
-8.46504
-8.51563
-8.56152
-8.60278
-8.63948
-8.6718
-8.69984
-8.7238
-8.74379
-8.75996
-8.77238
-8.7812
-8.78646
-8.78824
-8.78652
-8.78138
-8.77276
-8.76069
-8.74507
-8.72588
-8.70299
-8.67634
-8.64579
-8.61124
-8.57254
-8.52954
-8.4821
-8.43004
-8.37319
-8.31131
-8.24415
-8.17149
-8.09315
-8.00902
-7.91904
-7.82317
-7.72144
-7.61379
-7.49997
-7.3796
-7.25265
-7.11934
-6.97974
-6.83391
-6.68191
-6.52384
-6.35979
-6.18986
-6.01419
-5.83289
-5.64608
-5.45391
-5.25649
-5.05395
-4.84643
-4.63408
-4.41701
-4.19535
-3.96922
-3.73871
-3.50395
-3.26502
-3.02206
-2.77518
-2.52454
-2.27028
-2.01257
-1.75161
-1.48761
-1.22083
-0.951579
-0.680191
-0.406817
-0.131582
0.145172
0.422972
0.701366
0.979918
1.25815
1.53563
1.81187
2.08644
2.35887
2.62873
2.89558
3.15902
3.41867
3.6742
3.92527
4.17164
4.41305
4.64933
4.88032
5.10593
5.32612
5.54087
5.75025
5.95433
6.15325
6.34718
6.5363
6.72081
6.90095
7.07695
7.24907
7.41755
7.58266
7.74464
7.90374
8.06017
8.21418
8.3661
8.51614
8.66718
8.81
-7.68257
-7.68276
-7.68309
-7.68339
-7.68327
-7.68238
-7.68053
-7.67831
-7.67681
-7.67681
-7.67853
-7.68179
-7.68614
-7.69102
-7.69589
-7.70033
-7.70401
-7.70676
-7.7084
-7.70874
-7.70788
-7.7061
-7.70379
-7.70139
-7.69926
-7.69765
-7.69657
-7.69587
-7.6953
-7.69475
-7.69425
-7.69383
-7.69341
-7.69286
-7.69214
-7.69145
-7.69137
-7.69253
-7.69504
-7.69826
-7.70113
-7.70284
-7.70332
-7.7031
-7.70235
-7.7014
-7.70146
-7.70445
-7.71054
-7.71701
-7.72397
-7.73501
-7.75195
-7.77582
-7.80852
-7.85164
-7.90483
-7.96572
-8.03158
-8.10008
-8.16918
-8.23705
-8.30217
-8.36379
-8.42145
-8.47434
-8.52244
-8.56597
-8.60506
-8.63986
-8.67053
-8.69719
-8.71999
-8.73902
-8.75441
-8.76622
-8.77455
-8.77944
-8.78094
-8.77907
-8.77384
-8.76522
-8.75322
-8.73776
-8.7188
-8.69622
-8.66995
-8.63984
-8.60579
-8.56766
-8.52527
-8.47849
-8.42716
-8.3711
-8.31007
-8.24387
-8.17228
-8.09509
-8.01212
-7.92322
-7.82828
-7.72714
-7.61968
-7.50586
-7.38586
-7.25973
-7.12734
-6.9887
-6.84383
-6.69279
-6.53566
-6.37254
-6.20354
-6.02877
-5.84838
-5.66248
-5.47121
-5.27469
-5.07306
-4.86646
-4.65502
-4.43887
-4.21815
-3.99294
-3.76336
-3.52953
-3.29155
-3.04952
-2.80358
-2.55386
-2.30051
-2.04369
-1.78356
-1.52031
-1.2541
-0.985175
-0.7138
-0.440399
-0.165404
0.110934
0.388344
0.666412
0.944717
1.2228
1.50021
1.77649
2.05118
2.32382
2.59398
2.86121
3.12512
3.38531
3.64143
3.89317
4.14024
4.3824
4.61946
4.85127
5.07771
5.29872
5.5143
5.7245
5.92937
6.12906
6.32371
6.51352
6.69868
6.87942
7.05598
7.22862
7.39758
7.56313
7.72554
7.88509
8.04202
8.1966
8.34924
8.4997
8.65309
8.79504
-7.68382
-7.68383
-7.68387
-7.68391
-7.68391
-7.68385
-7.68397
-7.68477
-7.68664
-7.68968
-7.69368
-7.69835
-7.70329
-7.70816
-7.71262
-7.71642
-7.71938
-7.72139
-7.72238
-7.7223
-7.72115
-7.71905
-7.71618
-7.71272
-7.70888
-7.70491
-7.70106
-7.69756
-7.69461
-7.69231
-7.69065
-7.68944
-7.6884
-7.68741
-7.68674
-7.68698
-7.68874
-7.69217
-7.69657
-7.70044
-7.70237
-7.70179
-7.69969
-7.69781
-7.69736
-7.69811
-7.70022
-7.70578
-7.71584
-7.72996
-7.74845
-7.77231
-7.80206
-7.83806
-7.88055
-7.92931
-7.98334
-8.04098
-8.10063
-8.16094
-8.22079
-8.27921
-8.33538
-8.38881
-8.43919
-8.48611
-8.5294
-8.56899
-8.60488
-8.6371
-8.66569
-8.69068
-8.71214
-8.73011
-8.74463
-8.75576
-8.76354
-8.76801
-8.76919
-8.7671
-8.76174
-8.75309
-8.74114
-8.72582
-8.70708
-8.68483
-8.65895
-8.62934
-8.59585
-8.55834
-8.51665
-8.47061
-8.42005
-8.36478
-8.30459
-8.23927
-8.16863
-8.09246
-8.0106
-7.92288
-7.82915
-7.72926
-7.62306
-7.51053
-7.39178
-7.26683
-7.13565
-6.99822
-6.85456
-6.70474
-6.54882
-6.3869
-6.21909
-6.0455
-5.86628
-5.68156
-5.49146
-5.29612
-5.09567
-4.89025
-4.68001
-4.46506
-4.24553
-4.02153
-3.79317
-3.56056
-3.32379
-3.08298
-2.83825
-2.58974
-2.33759
-2.08194
-1.82296
-1.56083
-1.29573
-1.02786
-0.757502
-0.485019
-0.210808
0.0648555
0.341663
0.619235
0.897132
1.17493
1.45215
1.72837
2.0031
2.2759
2.54632
2.81391
3.07826
3.33899
3.59572
3.84814
4.09595
4.33891
4.5768
4.80947
5.03679
5.25869
5.47515
5.6862
5.8919
6.09237
6.28775
6.47823
6.664
6.84529
7.02232
7.19536
7.36464
7.53046
7.69305
7.8527
8.00971
8.16435
8.3173
8.46762
8.62317
8.76026
-7.68494
-7.68468
-7.68434
-7.68434
-7.68534
-7.6877
-7.69127
-7.69573
-7.70077
-7.70609
-7.71146
-7.71667
-7.72152
-7.72587
-7.72954
-7.73242
-7.73442
-7.73548
-7.73558
-7.73468
-7.7328
-7.73
-7.72637
-7.72198
-7.71693
-7.71132
-7.70532
-7.69918
-7.69319
-7.68768
-7.68291
-7.67902
-7.67613
-7.67451
-7.67473
-7.67736
-7.68209
-7.68759
-7.69221
-7.69484
-7.69538
-7.69464
-7.69417
-7.69532
-7.69879
-7.70508
-7.71496
-7.72931
-7.74856
-7.77265
-7.80129
-7.83406
-7.87065
-7.91086
-7.95448
-8.00118
-8.05047
-8.10165
-8.15399
-8.20672
-8.25913
-8.31055
-8.36038
-8.40815
-8.45349
-8.49609
-8.53574
-8.57229
-8.60566
-8.63578
-8.66264
-8.68621
-8.70649
-8.72349
-8.73723
-8.74771
-8.75498
-8.75903
-8.7599
-8.7576
-8.75211
-8.74344
-8.73156
-8.7164
-8.69792
-8.67602
-8.6506
-8.62153
-8.58867
-8.55188
-8.51098
-8.46579
-8.41615
-8.36183
-8.30262
-8.2383
-8.16866
-8.09352
-8.01269
-7.92602
-7.83336
-7.73456
-7.62952
-7.51821
-7.40064
-7.27685
-7.14679
-7.01047
-6.86793
-6.71921
-6.56439
-6.40357
-6.23684
-6.06434
-5.8862
-5.70256
-5.51355
-5.3193
-5.11996
-4.91567
-4.70655
-4.49275
-4.27438
-4.05155
-3.82437
-3.59295
-3.35738
-3.11777
-2.87423
-2.6269
-2.37591
-2.12141
-1.86355
-1.60251
-1.33846
-1.07162
-0.802257
-0.530678
-0.257239
0.0177661
0.294003
0.571101
0.848624
1.12615
1.40323
1.6794
1.95421
2.22719
2.49789
2.76586
3.0307
3.29199
3.54937
3.8025
4.05108
4.29485
4.5336
4.76715
4.99538
5.21818
5.43555
5.64748
5.85404
6.05532
6.25147
6.44264
6.62905
6.8109
6.98842
7.16184
7.33143
7.49746
7.6602
7.81995
7.97699
8.13158
8.28448
8.43411
8.58985
8.72009
-7.68708
-7.68653
-7.68615
-7.6874
-7.69112
-7.69668
-7.70313
-7.70984
-7.7164
-7.72256
-7.7282
-7.73327
-7.7377
-7.74144
-7.74439
-7.7465
-7.74769
-7.74793
-7.74719
-7.74545
-7.74273
-7.73905
-7.73446
-7.72902
-7.72277
-7.71581
-7.7082
-7.70008
-7.6917
-7.68345
-7.67584
-7.66948
-7.66512
-7.66362
-7.66545
-7.66977
-7.67486
-7.67959
-7.68336
-7.68605
-7.68831
-7.69115
-7.69572
-7.70294
-7.71363
-7.72844
-7.74759
-7.77079
-7.79755
-7.82748
-7.86019
-7.8954
-7.93297
-7.97282
-8.01483
-8.0588
-8.10443
-8.15126
-8.19876
-8.2464
-8.29366
-8.34003
-8.3851
-8.42848
-8.46983
-8.50887
-8.54541
-8.57927
-8.61033
-8.63848
-8.66364
-8.68577
-8.70483
-8.72079
-8.73364
-8.74337
-8.75
-8.75353
-8.75398
-8.75135
-8.74565
-8.73686
-8.72495
-8.70989
-8.69161
-8.67002
-8.64501
-8.61644
-8.58419
-8.54808
-8.50795
-8.4636
-8.41485
-8.36146
-8.30321
-8.23987
-8.17122
-8.09707
-8.01722
-7.93151
-7.83979
-7.74195
-7.63789
-7.52757
-7.41098
-7.2881
-7.15893
-7.02349
-6.8818
-6.73394
-6.57996
-6.41996
-6.25407
-6.0824
-5.9051
-5.72229
-5.53413
-5.34076
-5.14231
-4.93893
-4.73075
-4.5179
-4.3005
-4.07867
-3.85249
-3.62209
-3.38755
-3.14897
-2.90645
-2.66013
-2.41013
-2.15658
-1.89966
-1.63952
-1.37633
-1.11032
-0.84173
-0.570858
-0.298009
-0.0235055
0.252333
0.5291
0.806404
1.08379
1.36084
1.63707
1.91204
2.18526
2.4563
2.72469
2.99002
3.25187
3.50987
3.76366
4.01295
4.25745
4.49696
4.73128
4.96027
5.18385
5.40197
5.61464
5.8219
6.02384
6.22059
6.41233
6.59921
6.78148
6.95934
7.13305
7.30285
7.46901
7.63179
7.79149
7.94841
8.10271
8.2552
8.40372
8.55866
8.68158
-7.69103
-7.69017
-7.69062
-7.69455
-7.70112
-7.70861
-7.71619
-7.72345
-7.73015
-7.73624
-7.74168
-7.74646
-7.75052
-7.7538
-7.75623
-7.75775
-7.75833
-7.75793
-7.75654
-7.75413
-7.75073
-7.74635
-7.74102
-7.73475
-7.72756
-7.71949
-7.71066
-7.70124
-7.69145
-7.68177
-7.67296
-7.66591
-7.66169
-7.66078
-7.66245
-7.66527
-7.66849
-7.67214
-7.67652
-7.6819
-7.6885
-7.69687
-7.70809
-7.72296
-7.7416
-7.76373
-7.78892
-7.81678
-7.84699
-7.87932
-7.91356
-7.94958
-7.98727
-8.0265
-8.06715
-8.109
-8.15182
-8.19527
-8.239
-8.28265
-8.32584
-8.36823
-8.40948
-8.44929
-8.48737
-8.52348
-8.55739
-8.58894
-8.61796
-8.64432
-8.66793
-8.68869
-8.70655
-8.72145
-8.73337
-8.74229
-8.74822
-8.75115
-8.75109
-8.74807
-8.74208
-8.73311
-8.72115
-8.70615
-8.68805
-8.66675
-8.64215
-8.61411
-8.58246
-8.54705
-8.50769
-8.46418
-8.4163
-8.36382
-8.30649
-8.24409
-8.17636
-8.10311
-8.02414
-7.93928
-7.84837
-7.75132
-7.64803
-7.53845
-7.42256
-7.30035
-7.17181
-7.03696
-6.89585
-6.74855
-6.59512
-6.43568
-6.27034
-6.09923
-5.92249
-5.74026
-5.55271
-5.35996
-5.16218
-4.95949
-4.75204
-4.53996
-4.32334
-4.10232
-3.87698
-3.64742
-3.41374
-3.17603
-2.93438
-2.6889
-2.43972
-2.18697
-1.93079
-1.67136
-1.40885
-1.14347
-0.875455
-0.605089
-0.332652
-0.0584638
0.217139
0.493759
0.770999
1.04842
1.32557
1.602
1.87724
2.15081
2.42226
2.69112
2.95698
3.2194
3.47799
3.73241
3.98234
4.2275
4.46765
4.70262
4.93225
5.15643
5.37513
5.58834
5.7961
5.99849
6.19564
6.38772
6.57488
6.75735
6.93534
7.10911
7.27889
7.44496
7.60757
7.76702
7.92358
8.07736
8.22914
8.3763
8.53026
8.64599
-7.69602
-7.69554
-7.69788
-7.7042
-7.71199
-7.71976
-7.72718
-7.73413
-7.74056
-7.74642
-7.75165
-7.75619
-7.75996
-7.76291
-7.76497
-7.7661
-7.76626
-7.76541
-7.76356
-7.76069
-7.75683
-7.75199
-7.74615
-7.73926
-7.73135
-7.72256
-7.71308
-7.70314
-7.69307
-7.68347
-7.67521
-7.66923
-7.66586
-7.66434
-7.66394
-7.66472
-7.66709
-7.67156
-7.67807
-7.68666
-7.69792
-7.71239
-7.73013
-7.75094
-7.77454
-7.80065
-7.82891
-7.85908
-7.891
-7.92451
-7.95946
-7.99571
-8.03313
-8.07159
-8.11095
-8.15103
-8.19164
-8.23253
-8.27348
-8.31421
-8.35446
-8.39394
-8.43238
-8.46952
-8.50511
-8.53893
-8.57076
-8.60041
-8.62773
-8.65257
-8.67479
-8.6943
-8.71102
-8.72489
-8.73587
-8.74394
-8.74909
-8.75135
-8.75073
-8.74725
-8.74092
-8.73173
-8.71969
-8.70473
-8.68681
-8.66582
-8.64166
-8.61416
-8.58317
-8.54849
-8.50993
-8.46727
-8.42028
-8.3687
-8.31228
-8.25075
-8.18388
-8.11145
-8.03324
-7.9491
-7.85885
-7.76242
-7.6597
-7.55065
-7.43523
-7.31343
-7.18526
-7.05074
-6.90995
-6.76293
-6.60979
-6.45063
-6.28558
-6.11476
-5.93833
-5.75645
-5.56927
-5.37694
-5.17962
-4.97744
-4.77054
-4.55904
-4.34306
-4.12269
-3.89805
-3.6692
-3.43626
-3.19928
-2.95836
-2.7136
-2.4651
-2.21301
-1.95746
-1.6986
-1.43661
-1.17171
-0.904125
-0.634093
-0.361913
-0.0878753
0.187644
0.464283
0.741607
1.01921
1.29661
1.57337
1.84899
2.12302
2.39496
2.66436
2.93078
3.1938
3.453
3.70803
3.95855
4.20429
4.44501
4.68051
4.91065
5.13531
5.35443
5.56801
5.77609
5.97874
6.17609
6.36828
6.5555
6.73794
6.91584
7.08943
7.25898
7.42474
7.58699
7.74598
7.90199
8.05503
8.20592
8.35159
8.50458
8.61355
-7.70011
-7.70073
-7.70531
-7.7126
-7.72017
-7.72744
-7.73441
-7.74104
-7.74723
-7.75291
-7.75798
-7.76235
-7.76596
-7.76872
-7.77057
-7.77148
-7.77139
-7.7703
-7.76819
-7.76507
-7.76097
-7.75585
-7.74964
-7.74236
-7.73422
-7.72541
-7.71606
-7.70646
-7.69716
-7.68894
-7.68238
-7.67744
-7.67351
-7.67038
-7.66875
-7.66934
-7.67238
-7.67828
-7.68742
-7.69988
-7.71555
-7.7342
-7.75561
-7.77951
-7.80563
-7.83371
-7.86356
-7.89497
-7.92781
-7.96191
-7.99712
-8.0333
-8.07033
-8.10808
-8.14643
-8.18521
-8.22428
-8.26344
-8.30252
-8.34129
-8.37953
-8.41699
-8.45347
-8.48871
-8.5225
-8.55462
-8.58487
-8.61306
-8.63901
-8.66257
-8.6836
-8.70199
-8.71764
-8.7305
-8.74052
-8.7477
-8.75204
-8.75357
-8.75231
-8.74831
-8.74158
-8.73214
-8.71998
-8.70507
-8.68733
-8.66668
-8.64299
-8.61608
-8.58578
-8.5519
-8.51419
-8.47243
-8.42635
-8.37568
-8.32013
-8.25945
-8.19337
-8.12167
-8.04413
-7.96058
-7.87086
-7.77488
-7.67255
-7.56381
-7.44864
-7.32703
-7.19899
-7.06457
-6.92384
-6.77688
-6.62378
-6.46467
-6.29966
-6.12892
-5.95258
-5.77083
-5.58382
-5.39173
-5.19469
-4.99286
-4.78636
-4.57532
-4.35984
-4.14002
-3.91596
-3.68772
-3.4554
-3.21906
-2.97878
-2.73464
-2.48674
-2.2352
-1.98017
-1.72179
-1.46023
-1.1957
-0.928415
-0.658603
-0.386548
-0.112555
0.163012
0.439777
0.717318
0.995209
1.27298
1.55016
1.82627
2.10083
2.37334
2.64336
2.9104
3.17404
3.43387
3.6895
3.94062
4.18692
4.42817
4.66416
4.89473
5.11977
5.33922
5.55305
5.76132
5.96407
6.16146
6.35361
6.54071
6.72294
6.90057
7.07381
7.24296
7.40826
7.56999
7.72838
7.88368
8.03586
8.18571
8.32984
8.48188
8.58463
-7.70165
-7.70371
-7.70966
-7.71679
-7.72381
-7.73066
-7.73735
-7.74378
-7.74985
-7.75547
-7.7605
-7.76485
-7.76843
-7.77116
-7.77298
-7.77384
-7.77372
-7.7726
-7.77045
-7.7673
-7.76314
-7.75789
-7.75156
-7.74433
-7.73645
-7.72807
-7.71948
-7.71112
-7.70344
-7.69674
-7.69095
-7.68583
-7.68132
-7.67791
-7.67654
-7.67795
-7.6826
-7.69076
-7.70242
-7.7173
-7.73522
-7.75588
-7.77902
-7.80438
-7.83171
-7.8608
-7.89146
-7.92351
-7.9568
-7.99116
-8.02647
-8.06257
-8.09935
-8.13667
-8.1744
-8.2124
-8.25055
-8.28868
-8.32662
-8.36417
-8.40115
-8.43735
-8.47255
-8.50655
-8.53913
-8.57008
-8.59921
-8.62631
-8.65121
-8.67374
-8.69375
-8.71112
-8.72577
-8.73763
-8.74668
-8.75292
-8.75638
-8.7571
-8.75513
-8.75054
-8.74336
-8.73363
-8.72135
-8.70647
-8.68894
-8.66866
-8.64547
-8.61921
-8.58967
-8.55663
-8.51984
-8.47903
-8.43391
-8.38416
-8.3295
-8.26964
-8.20431
-8.13326
-8.05629
-7.9732
-7.88387
-7.78819
-7.68607
-7.57745
-7.46232
-7.34069
-7.21257
-7.07804
-6.93717
-6.79005
-6.63679
-6.47752
-6.31237
-6.14149
-5.96506
-5.78326
-5.59627
-5.40426
-5.20737
-5.00577
-4.79956
-4.58888
-4.3738
-4.15444
-3.93086
-3.70316
-3.47138
-3.2356
-2.99588
-2.75228
-2.50489
-2.25384
-1.99925
-1.74127
-1.48006
-1.21582
-0.948734
-0.679051
-0.407021
-0.132984
0.14273
0.419707
0.697558
0.975819
1.25404
1.53173
1.8084
2.08353
2.35667
2.62732
2.89503
3.15934
3.41981
3.67606
3.92775
4.17459
4.41631
4.65273
4.88366
5.10899
5.32864
5.54262
5.75093
5.95368
6.15096
6.34295
6.52977
6.71168
6.88888
7.06166
7.23026
7.39497
7.55605
7.71373
7.86821
8.01943
8.16817
8.31076
8.46186
8.55906
-7.69917
-7.70244
-7.70868
-7.71541
-7.72216
-7.72888
-7.73551
-7.74195
-7.74809
-7.75381
-7.75899
-7.76351
-7.76726
-7.77017
-7.77217
-7.77319
-7.77321
-7.77219
-7.77014
-7.76706
-7.76293
-7.75776
-7.75164
-7.74481
-7.73752
-7.73004
-7.72265
-7.71555
-7.70884
-7.70258
-7.69686
-7.69176
-7.68766
-7.6852
-7.68517
-7.68811
-7.69431
-7.70388
-7.71678
-7.73281
-7.75175
-7.77333
-7.79728
-7.82334
-7.85128
-7.88089
-7.912
-7.94442
-7.978
-8.01258
-8.04802
-8.08418
-8.12091
-8.15809
-8.1956
-8.2333
-8.27106
-8.30872
-8.34613
-8.38309
-8.41945
-8.45499
-8.48952
-8.52283
-8.55471
-8.58495
-8.61335
-8.6397
-8.66381
-8.68551
-8.70464
-8.72107
-8.73474
-8.74558
-8.7536
-8.7588
-8.76127
-8.76106
-8.75829
-8.75303
-8.74536
-8.73532
-8.72291
-8.7081
-8.69081
-8.67094
-8.64833
-8.6228
-8.5941
-8.562
-8.52621
-8.48641
-8.44229
-8.39349
-8.3397
-8.28063
-8.21599
-8.14553
-8.06902
-7.9863
-7.89721
-7.80167
-7.6996
-7.59093
-7.47568
-7.35384
-7.22546
-7.09063
-6.94943
-6.80198
-6.64839
-6.4888
-6.32334
-6.15217
-5.9755
-5.79351
-5.60642
-5.41439
-5.21757
-5.01611
-4.81012
-4.59971
-4.38497
-4.166
-3.94287
-3.71563
-3.48434
-3.24907
-3.00984
-2.76673
-2.5198
-2.26918
-2.01498
-1.75735
-1.49643
-1.23241
-0.96547
-0.695838
-0.423782
-0.149626
0.126284
0.403546
0.681748
0.96044
1.23916
1.5174
1.79467
2.07045
2.34425
2.6156
2.88401
3.14901
3.41015
3.66702
3.91927
4.16661
4.40876
4.64554
4.87676
5.1023
5.32209
5.53611
5.74438
5.94701
6.1441
6.33581
6.52227
6.70372
6.8804
7.05259
7.22055
7.38458
7.54493
7.70181
7.8554
8.00558
8.15318
8.29423
8.44438
8.53671
-7.69093
-7.69484
-7.70098
-7.70773
-7.71469
-7.72164
-7.7285
-7.73519
-7.74161
-7.74763
-7.75314
-7.758
-7.76208
-7.7653
-7.76757
-7.76885
-7.76908
-7.76827
-7.76641
-7.76351
-7.7596
-7.75479
-7.74921
-7.7431
-7.73663
-7.72995
-7.7232
-7.71655
-7.71008
-7.70394
-7.6984
-7.69385
-7.69072
-7.68951
-7.69074
-7.69486
-7.70213
-7.71263
-7.72631
-7.74302
-7.76254
-7.78462
-7.809
-7.83544
-7.86375
-7.89372
-7.92518
-7.95793
-7.99183
-8.02671
-8.06242
-8.0988
-8.13574
-8.1731
-8.21075
-8.24856
-8.28638
-8.32405
-8.36143
-8.39834
-8.43461
-8.47002
-8.50437
-8.53745
-8.56904
-8.59892
-8.62688
-8.65271
-8.67621
-8.69719
-8.7155
-8.73103
-8.74368
-8.75344
-8.76032
-8.76438
-8.76572
-8.76448
-8.76081
-8.75483
-8.74664
-8.73628
-8.72375
-8.70903
-8.69204
-8.67265
-8.6507
-8.62598
-8.59824
-8.56717
-8.53246
-8.49374
-8.45064
-8.40279
-8.34986
-8.29154
-8.22754
-8.15759
-8.08146
-7.99898
-7.91003
-7.81451
-7.71233
-7.60348
-7.48794
-7.36575
-7.23697
-7.1017
-6.96004
-6.81212
-6.65807
-6.49803
-6.33214
-6.16057
-5.98354
-5.80129
-5.61403
-5.42193
-5.22514
-5.02377
-4.81796
-4.60779
-4.39337
-4.17475
-3.95203
-3.72522
-3.4944
-3.25959
-3.02083
-2.77817
-2.53167
-2.28145
-2.02762
-1.77031
-1.50965
-1.24582
-0.97899
-0.709374
-0.437265
-0.162952
0.113187
0.390781
0.669384
0.948561
1.22782
1.50666
1.78457
2.06103
2.33554
2.6076
2.87672
3.14242
3.40421
3.66168
3.91446
4.16225
4.40479
4.64185
4.8733
5.09897
5.31881
5.53277
5.74092
5.94332
6.14015
6.33149
6.5175
6.6984
6.87448
7.04599
7.21324
7.37651
7.53607
7.69209
7.84475
7.99385
8.1403
8.27985
8.42904
8.51721
-7.67553
-7.67956
-7.68594
-7.69343
-7.70111
-7.7086
-7.71589
-7.72299
-7.72983
-7.73632
-7.74231
-7.74763
-7.75214
-7.75575
-7.75839
-7.76
-7.76056
-7.76008
-7.75855
-7.75603
-7.75256
-7.74826
-7.74324
-7.73765
-7.73164
-7.72533
-7.71882
-7.71227
-7.70589
-7.69998
-7.69489
-7.69096
-7.68863
-7.68837
-7.69062
-7.69571
-7.70386
-7.71512
-7.72944
-7.74668
-7.76663
-7.78907
-7.81379
-7.84056
-7.86921
-7.89955
-7.93139
-7.96455
-7.99887
-8.03418
-8.07032
-8.10716
-8.14458
-8.18243
-8.22056
-8.25883
-8.29709
-8.33517
-8.37293
-8.41019
-8.44674
-8.48239
-8.51692
-8.55011
-8.58171
-8.61151
-8.63927
-8.66475
-8.68776
-8.70809
-8.72559
-8.74013
-8.75168
-8.76021
-8.7658
-8.76854
-8.7686
-8.76619
-8.76152
-8.75476
-8.74602
-8.73535
-8.72275
-8.70817
-8.69153
-8.6727
-8.6515
-8.6277
-8.601
-8.57106
-8.53751
-8.49992
-8.45786
-8.41094
-8.35883
-8.30123
-8.23782
-8.16832
-8.0925
-8.0102
-7.92129
-7.82568
-7.72331
-7.61416
-7.49823
-7.37558
-7.24629
-7.11048
-6.96827
-6.81981
-6.66524
-6.50468
-6.33829
-6.16625
-5.98884
-5.8063
-5.61887
-5.4267
-5.22993
-5.02866
-4.82302
-4.61308
-4.39895
-4.18069
-3.95835
-3.73199
-3.50163
-3.26729
-3.02902
-2.78683
-2.54079
-2.29099
-2.03756
-1.78059
-1.52021
-1.25657
-0.989842
-0.720249
-0.44806
-0.17358
0.102832
0.380786
0.659847
0.939547
1.21939
1.49886
1.77744
2.0546
2.32982
2.60259
2.87244
3.13883
3.40127
3.65932
3.91263
4.16087
4.40377
4.64109
4.8727
5.09844
5.31826
5.53211
5.74005
5.94217
6.13866
6.3296
6.51509
6.69537
6.87077
7.04155
7.20803
7.37049
7.52922
7.68436
7.83605
7.98407
8.12935
8.26746
8.41564
8.50034
-7.65258
-7.65652
-7.66376
-7.6726
-7.68131
-7.68945
-7.69725
-7.70488
-7.71236
-7.71955
-7.72623
-7.73219
-7.73726
-7.74136
-7.74446
-7.74652
-7.74753
-7.74749
-7.74642
-7.74434
-7.74131
-7.73743
-7.73278
-7.72748
-7.72164
-7.71538
-7.70888
-7.70238
-7.69615
-7.69048
-7.68572
-7.6823
-7.68065
-7.6812
-7.68432
-7.69027
-7.6992
-7.71114
-7.72603
-7.74373
-7.76406
-7.78684
-7.8119
-7.83903
-7.86808
-7.89887
-7.93121
-7.96492
-7.99981
-8.03571
-8.07248
-8.10999
-8.14808
-8.18661
-8.22545
-8.26443
-8.30341
-8.34221
-8.38067
-8.41859
-8.45575
-8.49193
-8.52692
-8.56045
-8.59228
-8.62215
-8.64982
-8.67504
-8.69758
-8.71722
-8.73378
-8.74715
-8.75732
-8.76437
-8.7684
-8.76955
-8.7681
-8.76436
-8.75861
-8.75108
-8.74185
-8.73098
-8.71842
-8.70411
-8.68794
-8.66977
-8.64941
-8.62662
-8.60105
-8.57233
-8.53997
-8.50352
-8.46247
-8.41643
-8.36511
-8.3082
-8.24538
-8.17631
-8.10077
-8.01859
-7.92966
-7.83391
-7.73129
-7.62178
-7.5054
-7.38223
-7.25237
-7.11598
-6.97319
-6.82416
-6.66905
-6.50799
-6.34111
-6.16864
-5.99087
-5.80808
-5.6205
-5.42826
-5.23148
-5.0303
-4.82479
-4.61509
-4.40125
-4.18335
-3.96143
-3.73553
-3.50568
-3.2719
-3.03419
-2.79257
-2.54708
-2.29781
-2.04485
-1.78829
-1.52824
-1.26484
-0.998247
-0.728708
-0.456464
-0.181837
0.0948406
0.373152
0.652678
0.932902
1.21332
1.4934
1.77264
2.05047
2.32637
2.59982
2.87036
3.13743
3.40049
3.65912
3.91295
4.16169
4.40495
4.6425
4.87422
5.1
5.31973
5.53341
5.74108
5.94288
6.13902
6.32954
6.51445
6.69408
6.86875
7.03877
7.20444
7.36608
7.52398
7.67824
7.82894
7.97588
8.12001
8.25674
8.40387
8.48577
-7.62297
-7.62721
-7.63584
-7.64636
-7.65617
-7.66499
-7.67353
-7.68201
-7.69029
-7.69831
-7.70593
-7.71279
-7.71856
-7.72316
-7.72671
-7.72926
-7.73077
-7.7312
-7.73056
-7.72886
-7.72616
-7.72252
-7.718
-7.71273
-7.70683
-7.70049
-7.69393
-7.68738
-7.68116
-7.67562
-7.67117
-7.66822
-7.66719
-7.66846
-7.67233
-7.67899
-7.68857
-7.70107
-7.71643
-7.73455
-7.75528
-7.77845
-7.8039
-7.83146
-7.86097
-7.89226
-7.92514
-7.95943
-7.99495
-8.03155
-8.06907
-8.10737
-8.14629
-8.18568
-8.2254
-8.2653
-8.30521
-8.34495
-8.38432
-8.4231
-8.46106
-8.49794
-8.53349
-8.56743
-8.59949
-8.62939
-8.65686
-8.68165
-8.70351
-8.7222
-8.73749
-8.74931
-8.75774
-8.763
-8.76522
-8.76459
-8.76145
-8.7563
-8.74948
-8.74126
-8.73176
-8.72092
-8.70866
-8.69484
-8.67933
-8.66195
-8.64255
-8.62083
-8.59646
-8.56894
-8.53778
-8.50244
-8.46239
-8.41723
-8.36669
-8.31052
-8.24829
-8.17963
-8.10432
-8.0222
-7.93319
-7.83724
-7.73431
-7.62436
-7.50745
-7.38366
-7.25316
-7.11611
-6.97268
-6.82305
-6.66739
-6.50586
-6.33865
-6.16594
-5.98799
-5.805
-5.61719
-5.42474
-5.2278
-5.02653
-4.82104
-4.61144
-4.3978
-4.1802
-3.95867
-3.73326
-3.50397
-3.27082
-3.03379
-2.7929
-2.54817
-2.29961
-2.04728
-1.79124
-1.53163
-1.26856
-1.00223
-0.732853
-0.460692
-0.186053
0.0907126
0.369202
0.648968
0.929523
1.21034
1.49089
1.77061
2.04896
2.32536
2.59933
2.87036
3.13794
3.40148
3.66058
3.91486
4.16403
4.40762
4.64537
4.87716
5.10292
5.32254
5.53603
5.74344
5.94494
6.14077
6.33088
6.51521
6.69416
6.8681
7.03735
7.20223
7.36308
7.5202
7.67359
7.82333
7.96919
8.11221
8.24762
8.39364
8.47343
-7.58926
-7.59433
-7.60482
-7.6174
-7.62846
-7.63784
-7.64678
-7.65606
-7.66554
-7.67476
-7.68347
-7.69134
-7.69789
-7.70295
-7.70684
-7.70979
-7.7117
-7.71251
-7.71217
-7.7107
-7.70812
-7.70448
-7.69988
-7.69445
-7.68834
-7.68175
-7.67494
-7.66821
-7.66192
-7.65647
-7.65227
-7.64971
-7.64918
-7.651
-7.6554
-7.66257
-7.67259
-7.68547
-7.70117
-7.71961
-7.74065
-7.76415
-7.78997
-7.81794
-7.84792
-7.87971
-7.91313
-7.94801
-7.9842
-8.02153
-8.05984
-8.09899
-8.13883
-8.1792
-8.21994
-8.26087
-8.3018
-8.34251
-8.38278
-8.42236
-8.46098
-8.49839
-8.53428
-8.56837
-8.60037
-8.62999
-8.65696
-8.68101
-8.70187
-8.71925
-8.73286
-8.74262
-8.74884
-8.75199
-8.7523
-8.74984
-8.74503
-8.73849
-8.73057
-8.72162
-8.7119
-8.70129
-8.68957
-8.67646
-8.66176
-8.64537
-8.62711
-8.60676
-8.58384
-8.55786
-8.5282
-8.49428
-8.45566
-8.4119
-8.36266
-8.30752
-8.24607
-8.17795
-8.10291
-8.02085
-7.93171
-7.83546
-7.73207
-7.62155
-7.50393
-7.37936
-7.24803
-7.11015
-6.96589
-6.81547
-6.65907
-6.4969
-6.32919
-6.15611
-5.97783
-5.79452
-5.60637
-5.41358
-5.21637
-5.0149
-4.80932
-4.59971
-4.38619
-4.1688
-3.9476
-3.72261
-3.49384
-3.26127
-3.02491
-2.78474
-2.54077
-2.29295
-2.0413
-1.78589
-1.52682
-1.26423
-0.998303
-0.729246
-0.457333
-0.182855
0.0938204
0.3723
0.652117
0.932808
1.21385
1.49467
1.7747
2.05336
2.33008
2.60429
2.87545
3.14304
3.4066
3.66569
3.91992
4.16892
4.41242
4.65012
4.88183
5.10739
5.32675
5.5399
5.74695
5.94804
6.14344
6.33301
6.5167
6.69495
6.86818
7.0367
7.20085
7.36101
7.51746
7.67007
7.81888
7.96371
8.10567
8.23983
8.38472
8.46304
-7.55366
-7.55985
-7.57267
-7.58728
-7.59889
-7.60864
-7.61864
-7.62915
-7.63975
-7.65006
-7.65982
-7.66865
-7.67596
-7.68155
-7.68588
-7.68926
-7.69155
-7.69265
-7.69251
-7.69113
-7.68851
-7.68473
-7.67987
-7.67409
-7.66757
-7.66056
-7.65336
-7.6463
-7.63978
-7.6342
-7.62997
-7.62746
-7.62702
-7.62894
-7.63345
-7.6407
-7.65078
-7.66371
-7.67947
-7.69798
-7.71915
-7.74286
-7.76897
-7.79733
-7.82774
-7.86001
-7.89399
-7.92951
-7.96641
-8.00452
-8.04368
-8.08371
-8.12446
-8.16575
-8.2074
-8.24921
-8.29097
-8.33242
-8.37334
-8.41343
-8.45243
-8.49003
-8.52595
-8.55987
-8.59148
-8.62052
-8.64671
-8.66979
-8.68946
-8.70536
-8.71697
-8.72407
-8.72734
-8.72793
-8.72667
-8.72369
-8.71874
-8.71192
-8.70357
-8.69426
-8.68421
-8.67348
-8.66185
-8.64911
-8.63496
-8.61933
-8.6021
-8.58294
-8.56141
-8.53692
-8.50879
-8.47644
-8.43942
-8.3973
-8.34955
-8.29563
-8.23511
-8.16765
-8.09304
-8.01117
-7.92201
-7.82555
-7.72179
-7.61075
-7.49251
-7.36724
-7.23517
-7.09652
-6.95151
-6.80034
-6.64322
-6.48037