/*--------------------------------*- C++ -*----------------------------------*\
  =========                 |
  \\      /  F ield         | OpenFOAM: The Open Source CFD Toolbox
   \\    /   O peration     | Website:  https://openfoam.org
    \\  /    A nd           | Version:  13
     \\/     M anipulation  |
\*---------------------------------------------------------------------------*/
FoamFile
{
    format      ascii;
    class       surfaceScalarField;
    location    "1300";
    object      phi;
}
// * * * * * * * * * * * * * * * * * * * * * * * * * * * * * * * * * * * * * //

dimensions      [0 3 -1 0 0 0 0];

internalField   nonuniform List<scalar> 
24170
(
3.04272e-06
1.45715e-07
2.88369e-06
1.59089e-07
2.74157e-06
1.42017e-07
2.6126e-06
1.28836e-07
2.49605e-06
1.16672e-07
2.39626e-06
9.98399e-08
2.31481e-06
8.14369e-08
2.25131e-06
6.35202e-08
2.20249e-06
4.87861e-08
2.1603e-06
4.21635e-08
2.11953e-06
4.07899e-08
2.08109e-06
3.84532e-08
2.05022e-06
3.08743e-08
2.02556e-06
2.46648e-08
2.00624e-06
1.93232e-08
1.99432e-06
1.1928e-08
1.99022e-06
4.07054e-09
-2.72869e-09
1.99293e-06
3.49621e-06
6.67707e-08
3.54516e-06
1.10125e-07
3.57384e-06
1.1327e-07
3.58633e-06
1.1631e-07
3.5825e-06
1.20552e-07
3.56548e-06
1.1687e-07
3.54161e-06
1.05303e-07
3.51115e-06
9.39706e-08
3.47713e-06
8.2783e-08
3.44352e-06
7.57586e-08
3.41278e-06
7.15304e-08
3.38508e-06
6.61428e-08
3.35589e-06
6.00605e-08
3.32596e-06
5.45981e-08
3.29825e-06
4.70333e-08
3.27208e-06
3.8091e-08
3.24597e-06
3.01703e-08
2.48462e-08
3.2184e-06
3.67964e-06
4.96654e-08
3.69434e-06
9.55352e-08
3.71064e-06
9.68322e-08
3.72799e-06
9.88048e-08
3.74587e-06
1.02785e-07
3.76215e-06
1.00649e-07
3.77476e-06
9.26833e-08
3.78412e-06
8.4643e-08
3.78947e-06
7.73959e-08
3.79212e-06
7.30781e-08
3.79373e-06
6.99436e-08
3.79411e-06
6.57768e-08
3.79315e-06
6.10318e-08
3.79158e-06
5.61785e-08
3.78863e-06
4.99914e-08
3.78359e-06
4.3136e-08
3.77646e-06
3.72849e-08
3.30744e-08
3.76821e-06
3.93629e-06
3.878e-08
3.94757e-06
8.42863e-08
3.95378e-06
9.05606e-08
3.95967e-06
9.28764e-08
3.9668e-06
9.5702e-08
3.97403e-06
9.34171e-08
3.9803e-06
8.64033e-08
3.9861e-06
7.88408e-08
3.99128e-06
7.21883e-08
3.99653e-06
6.78156e-08
4.00211e-06
6.43705e-08
4.00741e-06
6.04829e-08
4.01229e-06
5.61488e-08
4.01699e-06
5.14817e-08
4.02093e-06
4.6062e-08
4.02369e-06
4.0374e-08
4.02555e-06
3.54097e-08
3.17686e-08
4.02685e-06
4.21241e-06
3.35068e-08
4.22434e-06
7.24401e-08
4.23119e-06
8.36078e-08
4.23705e-06
8.68925e-08
4.24343e-06
8.94034e-08
4.24933e-06
8.75776e-08
4.25399e-06
8.17549e-08
4.25779e-06
7.50598e-08
4.26095e-06
6.9e-08
4.26428e-06
6.4474e-08
4.26799e-06
6.06712e-08
4.27174e-06
5.67512e-08
4.2754e-06
5.25033e-08
4.27896e-06
4.79355e-08
4.28205e-06
4.29827e-08
4.28445e-06
3.79744e-08
4.28636e-06
3.34733e-08
2.9883e-08
4.28824e-06
4.51276e-06
2.98475e-08
4.52295e-06
6.22792e-08
4.53011e-06
7.64074e-08
4.53631e-06
8.06829e-08
4.54286e-06
8.28849e-08
4.54893e-06
8.15215e-08
4.55381e-06
7.6869e-08
4.55774e-06
7.11267e-08
4.56096e-06
6.57607e-08
4.56407e-06
6.13558e-08
4.56732e-06
5.74326e-08
4.57056e-06
5.35176e-08
4.57369e-06
4.93749e-08
4.57665e-06
4.49824e-08
4.57923e-06
4.04096e-08
4.58131e-06
3.58915e-08
4.58302e-06
3.1749e-08
2.82155e-08
4.58468e-06
4.83653e-06
2.6053e-08
4.84464e-06
5.42214e-08
4.8518e-06
6.91748e-08
4.85807e-06
7.43525e-08
4.86446e-06
7.65439e-08
4.87044e-06
7.55817e-08
4.87545e-06
7.18747e-08
4.8796e-06
6.69923e-08
4.88314e-06
6.2206e-08
4.88647e-06
5.8011e-08
4.88978e-06
5.41321e-08
4.89304e-06
5.02754e-08
4.89616e-06
4.62662e-08
4.89905e-06
4.2105e-08
4.90158e-06
3.78832e-08
4.9037e-06
3.37649e-08
4.90551e-06
2.99315e-08
2.65192e-08
4.9072e-06
5.18378e-06
2.18627e-08
5.19041e-06
4.76175e-08
5.19726e-06
6.23059e-08
5.20354e-06
6.80571e-08
5.20982e-06
7.029e-08
5.21571e-06
6.96995e-08
5.22085e-06
6.67445e-08
5.22522e-06
6.2613e-08
5.22905e-06
5.83658e-08
5.23263e-06
5.44261e-08
5.2361e-06
5.0675e-08
5.23944e-06
4.69379e-08
5.24261e-06
4.31032e-08
5.24553e-06
3.91951e-08
5.24812e-06
3.52971e-08
5.25035e-06
3.1522e-08
5.2523e-06
2.79746e-08
2.47422e-08
5.25408e-06
5.55546e-06
1.77562e-08
5.56125e-06
4.18588e-08
5.56786e-06
5.56583e-08
5.57419e-06
6.16854e-08
5.58042e-06
6.40817e-08
5.5863e-06
6.38479e-08
5.59157e-06
6.14965e-08
5.59617e-06
5.80117e-08
5.60027e-06
5.42552e-08
5.60409e-06
5.06067e-08
5.60772e-06
4.70495e-08
5.61118e-06
4.34888e-08
5.61442e-06
3.9871e-08
5.6174e-06
3.62272e-08
5.62007e-06
3.26298e-08
5.62243e-06
2.91594e-08
5.62452e-06
2.58808e-08
2.28529e-08
5.6264e-06
5.95318e-06
1.43582e-08
5.95868e-06
3.63691e-08
5.96511e-06
4.92191e-08
5.97147e-06
5.53218e-08
5.97773e-06
5.78285e-08
5.98368e-06
5.79114e-08
5.98909e-06
5.60889e-08
5.99392e-06
5.31752e-08
5.99829e-06
4.98815e-08
6.00234e-06
4.65504e-08
6.00617e-06
4.32303e-08
6.00977e-06
3.98894e-08
6.01313e-06
3.65177e-08
6.01622e-06
3.31498e-08
6.019e-06
2.98465e-08
6.02149e-06
2.66665e-08
6.02371e-06
2.36527e-08
2.08501e-08
6.02572e-06
6.37948e-06
1.17008e-08
6.38468e-06
3.11824e-08
6.39088e-06
4.30011e-08
6.3972e-06
4.89755e-08
6.4035e-06
5.15477e-08
6.40953e-06
5.18909e-08
6.41511e-06
5.05231e-08
6.42017e-06
4.81123e-08
6.4248e-06
4.52496e-08
6.4291e-06
4.22494e-08
6.43313e-06
3.92013e-08
6.43691e-06
3.61167e-08
6.44042e-06
3.30117e-08
6.44365e-06
2.9929e-08
6.44658e-06
2.69164e-08
6.44922e-06
2.40221e-08
6.4516e-06
2.12754e-08
1.87079e-08
6.45374e-06
5.74266e-06
9.8848e-09
5.74672e-06
2.71233e-08
5.75175e-06
3.79662e-08
5.75702e-06
4.36997e-08
5.76231e-06
4.626e-08
5.76745e-06
4.67605e-08
5.77227e-06
4.5705e-08
5.77672e-06
4.36648e-08
5.78082e-06
4.11435e-08
5.78464e-06
3.84288e-08
5.78822e-06
3.56285e-08
5.79156e-06
3.27791e-08
5.79466e-06
2.99166e-08
5.79751e-06
2.70775e-08
5.80012e-06
2.43137e-08
5.80248e-06
2.16591e-08
5.80461e-06
1.91407e-08
1.67844e-08
5.80653e-06
6.9999e-06
8.14003e-09
7.0042e-06
2.2839e-08
7.00967e-06
3.24856e-08
7.01556e-06
3.78039e-08
7.02156e-06
4.02588e-08
7.02746e-06
4.0867e-08
7.03307e-06
4.00983e-08
7.03831e-06
3.8424e-08
7.04319e-06
3.62606e-08
7.04775e-06
3.38655e-08
7.05203e-06
3.1358e-08
7.05602e-06
2.87952e-08
7.05972e-06
2.62164e-08
7.06313e-06
2.36695e-08
7.06625e-06
2.11896e-08
7.06909e-06
1.88147e-08
7.07167e-06
1.65592e-08
1.44485e-08
7.07401e-06
8.53253e-06
6.4617e-09
8.53695e-06
1.84228e-08
8.54281e-06
2.66207e-08
8.54929e-06
3.13218e-08
8.556e-06
3.35522e-08
8.56268e-06
3.41888e-08
8.56913e-06
3.36531e-08
8.57524e-06
3.23205e-08
8.58098e-06
3.05195e-08
8.58637e-06
2.84744e-08
8.59142e-06
2.63025e-08
8.59615e-06
2.4072e-08
8.60054e-06
2.18294e-08
8.60459e-06
1.96162e-08
8.60831e-06
1.74671e-08
8.61172e-06
1.54111e-08
8.61481e-06
1.34594e-08
1.16335e-08
8.61763e-06
1.04009e-05
4.82994e-09
1.04053e-05
1.39673e-08
1.04115e-05
2.04393e-08
1.04185e-05
2.42822e-08
1.0426e-05
2.6135e-08
1.04335e-05
2.66973e-08
1.04408e-05
2.63179e-08
1.04478e-05
2.52815e-08
1.04545e-05
2.3838e-08
1.04608e-05
2.21625e-08
1.04668e-05
2.03694e-08
1.04723e-05
1.85191e-08
1.04775e-05
1.66634e-08
1.04823e-05
1.48334e-08
1.04867e-05
1.30636e-08
1.04907e-05
1.13715e-08
1.04944e-05
9.76953e-09
8.27114e-09
1.04978e-05
1.26784e-05
3.21993e-09
1.26829e-05
9.482e-09
1.26894e-05
1.39775e-08
1.26969e-05
1.66925e-08
1.27051e-05
1.79811e-08
1.27135e-05
1.83358e-08
1.27218e-05
1.80115e-08
1.27299e-05
1.72112e-08
1.27376e-05
1.61023e-08
1.2745e-05
1.48163e-08
1.27519e-05
1.34362e-08
1.27584e-05
1.20202e-08
1.27644e-05
1.06022e-08
1.27701e-05
9.21461e-09
1.27753e-05
7.87444e-09
1.278e-05
6.60237e-09
1.27844e-05
5.39765e-09
4.27913e-09
1.27884e-05
1.54548e-05
1.58563e-09
1.54594e-05
4.89109e-09
1.54662e-05
7.16446e-09
1.54744e-05
8.47314e-09
1.54835e-05
8.97495e-09
1.54928e-05
8.9631e-09
1.55023e-05
8.58139e-09
1.55115e-05
7.94402e-09
1.55205e-05
7.14492e-09
1.55291e-05
6.25701e-09
1.55372e-05
5.33055e-09
1.55448e-05
4.39837e-09
1.55519e-05
3.48204e-09
1.55585e-05
2.59691e-09
1.55647e-05
1.75379e-09
1.55703e-05
9.61605e-10
1.55755e-05
2.18256e-10
-4.64863e-10
1.55802e-05
1.88394e-05
-1.61974e-10
1.88443e-05
-3.66648e-11
1.88518e-05
-2.89959e-10
1.88609e-05
-6.93403e-10
1.88711e-05
-1.21693e-09
1.88818e-05
-1.76324e-09
1.88927e-05
-2.31162e-09
1.89035e-05
-2.84835e-09
1.8914e-05
-3.35313e-09
1.89241e-05
-3.8199e-09
1.89337e-05
-4.2422e-09
1.89427e-05
-4.62167e-09
1.89511e-05
-4.95943e-09
1.8959e-05
-5.25873e-09
1.89663e-05
-5.52256e-09
1.8973e-05
-5.75189e-09
1.89792e-05
-5.95613e-09
-6.12934e-09
1.89848e-05
2.29654e-05
-2.23576e-09
2.29712e-05
-5.83902e-09
2.298e-05
-9.14032e-09
2.2991e-05
-1.16258e-08
2.30032e-05
-1.34249e-08
2.30161e-05
-1.46436e-08
2.30292e-05
-1.54381e-08
2.30422e-05
-1.58785e-08
2.30549e-05
-1.60536e-08
2.30671e-05
-1.60183e-08
2.30787e-05
-1.58355e-08
2.30896e-05
-1.55419e-08
2.30998e-05
-1.5175e-08
2.31093e-05
-1.47591e-08
2.31181e-05
-1.43171e-08
2.31262e-05
-1.38629e-08
2.31337e-05
-1.34151e-08
-1.29767e-08
2.31405e-05
1.68125e-05
-3.98953e-09
1.68172e-05
-1.05942e-08
1.68244e-05
-1.62772e-08
1.6833e-05
-2.0308e-08
1.68426e-05
-2.29675e-08
1.68526e-05
-2.46441e-08
1.68627e-05
-2.55469e-08
1.68727e-05
-2.5869e-08
1.68823e-05
-2.57302e-08
1.68916e-05
-2.52744e-08
1.69004e-05
-2.45873e-08
1.69086e-05
-2.37514e-08
1.69162e-05
-2.28162e-08
1.69233e-05
-2.18327e-08
1.69298e-05
-2.08315e-08
1.69358e-05
-1.98394e-08
1.69413e-05
-1.88811e-08
-1.79692e-08
1.69463e-05
1.46364e-05
-5.86371e-09
1.46414e-05
-1.55277e-08
1.46486e-05
-2.35118e-08
1.46571e-05
-2.88141e-08
1.46663e-05
-3.21513e-08
1.46758e-05
-3.41133e-08
1.46853e-05
-3.50483e-08
1.46946e-05
-3.51547e-08
1.47035e-05
-3.46641e-08
1.4712e-05
-3.37521e-08
1.472e-05
-3.25581e-08
1.47274e-05
-3.11775e-08
1.47343e-05
-2.96902e-08
1.47406e-05
-2.81522e-08
1.47464e-05
-2.66129e-08
1.47517e-05
-2.51034e-08
1.47565e-05
-2.36551e-08
-2.22999e-08
1.47608e-05
1.27423e-05
-8.02387e-09
1.27477e-05
-2.09715e-08
1.27553e-05
-3.10687e-08
1.27638e-05
-3.73335e-08
1.27728e-05
-4.10987e-08
1.27819e-05
-4.32214e-08
1.27909e-05
-4.4039e-08
1.27996e-05
-4.38418e-08
1.28079e-05
-4.29286e-08
1.28156e-05
-4.15325e-08
1.28229e-05
-3.9813e-08
1.28296e-05
-3.78924e-08
1.28358e-05
-3.58552e-08
1.28414e-05
-3.37799e-08
1.28465e-05
-3.17209e-08
1.28511e-05
-2.97135e-08
1.28553e-05
-2.78055e-08
-2.60509e-08
1.2859e-05
1.10935e-05
-1.05919e-08
1.10998e-05
-2.73122e-08
1.11078e-05
-3.9041e-08
1.11163e-05
-4.58083e-08
1.1125e-05
-4.9788e-08
1.11336e-05
-5.18583e-08
1.1142e-05
-5.24309e-08
1.115e-05
-5.18315e-08
1.11575e-05
-5.04604e-08
1.11646e-05
-4.85764e-08
1.11711e-05
-4.63473e-08
1.11771e-05
-4.38987e-08
1.11826e-05
-4.13455e-08
1.11876e-05
-3.87541e-08
1.11921e-05
-3.6197e-08
1.11961e-05
-3.37217e-08
1.11996e-05
-3.13831e-08
-2.92724e-08
1.12029e-05
9.65836e-06
-1.37421e-08
9.66581e-06
-3.47592e-08
9.67404e-06
-4.72622e-08
9.68234e-06
-5.4115e-08
9.69061e-06
-5.80409e-08
9.69864e-06
-5.9906e-08
9.70633e-06
-6.01205e-08
9.71358e-06
-5.9083e-08
9.72037e-06
-5.72414e-08
9.72668e-06
-5.49005e-08
9.73252e-06
-5.21808e-08
9.73787e-06
-4.92602e-08
9.74276e-06
-4.62275e-08
9.74717e-06
-4.31672e-08
9.75111e-06
-4.01514e-08
9.75462e-06
-3.72261e-08
9.75774e-06
-3.45111e-08
-3.20453e-08
9.76052e-06
8.40934e-06
-1.77279e-08
8.41784e-06
-4.32743e-08
8.42622e-06
-5.56431e-08
8.43412e-06
-6.2006e-08
8.44195e-06
-6.58814e-08
8.44959e-06
-6.75457e-08
8.45681e-06
-6.73473e-08
8.46354e-06
-6.5815e-08
8.46975e-06
-6.34534e-08
8.47544e-06
-6.05883e-08
8.48065e-06
-5.74006e-08
8.4854e-06
-5.40069e-08
8.48971e-06
-5.05435e-08
8.49359e-06
-4.70469e-08
8.49704e-06
-4.35982e-08
8.50007e-06
-4.02703e-08
8.50272e-06
-3.71458e-08
-3.42233e-08
8.50488e-06
7.32308e-06
-2.35256e-08
7.33235e-06
-5.25499e-08
7.34128e-06
-6.45751e-08
7.34892e-06
-6.96432e-08
7.35637e-06
-7.33239e-08
7.36364e-06
-7.48268e-08
7.37036e-06
-7.40697e-08
7.37649e-06
-7.19475e-08
7.3821e-06
-6.90607e-08
7.38722e-06
-6.57187e-08
7.39191e-06
-6.20796e-08
7.39618e-06
-5.8288e-08
7.40006e-06
-5.4416e-08
7.40353e-06
-5.05153e-08
7.4066e-06
-4.66644e-08
7.40929e-06
-4.2947e-08
7.41159e-06
-3.94561e-08
-3.60876e-08
7.41346e-06
6.37827e-06
-3.17259e-08
6.38925e-06
-6.35374e-08
6.39915e-06
-7.44863e-08
6.40808e-06
-7.85764e-08
6.41623e-06
-8.14729e-08
6.42373e-06
-8.23318e-08
6.43037e-06
-8.0708e-08
6.43636e-06
-7.79426e-08
6.44199e-06
-7.46835e-08
6.44732e-06
-7.10423e-08
6.45239e-06
-6.71526e-08
6.45721e-06
-6.31049e-08
6.46174e-06
-5.89418e-08
6.46593e-06
-5.4701e-08
6.46972e-06
-5.04527e-08
6.47314e-06
-4.63599e-08
6.47619e-06
-4.24912e-08
-3.88644e-08
6.47895e-06
5.56003e-06
-4.62958e-08
5.57699e-06
-8.0504e-08
5.59187e-06
-8.93765e-08
5.60699e-06
-9.36956e-08
5.62131e-06
-9.57937e-08
5.63503e-06
-9.60512e-08
5.64818e-06
-9.38557e-08
5.66082e-06
-9.05821e-08
5.67298e-06
-8.68346e-08
5.68443e-06
-8.24971e-08
5.69503e-06
-7.77457e-08
5.70472e-06
-7.27899e-08
5.71341e-06
-6.76284e-08
5.72107e-06
-6.23534e-08
5.72764e-06
-5.70195e-08
5.73317e-06
-5.18794e-08
5.73775e-06
-4.70728e-08
-4.31382e-08
5.74203e-06
4.88029e-06
-9.8983e-08
4.91975e-06
-1.19969e-07
4.95005e-06
-1.19694e-07
4.97345e-06
-1.17091e-07
4.98898e-06
-1.11325e-07
4.99777e-06
-1.04834e-07
5.00147e-06
-9.75605e-08
5.00111e-06
-9.02253e-08
4.99685e-06
-8.25684e-08
4.98936e-06
-7.49926e-08
4.97929e-06
-6.76762e-08
4.96724e-06
-6.07341e-08
4.95398e-06
-5.43652e-08
4.93997e-06
-4.83344e-08
4.92551e-06
-4.25561e-08
4.91063e-06
-3.69846e-08
4.89528e-06
-3.17145e-08
-2.76112e-08
4.87975e-06
4.10369e-06
3.98372e-06
3.86403e-06
3.74694e-06
3.63561e-06
3.53078e-06
3.43322e-06
3.34299e-06
3.26043e-06
3.18543e-06
3.11776e-06
3.05703e-06
3.00266e-06
2.95433e-06
2.91178e-06
2.87479e-06
2.84308e-06
2.81547e-06
-7.86667e-09
7.85861e-09
-2.14127e-08
1.35126e-08
-3.61576e-08
1.47358e-08
-4.87947e-08
1.25985e-08
-5.43509e-08
5.55853e-09
-4.72942e-08
-7.10092e-09
-2.56276e-08
-2.16428e-08
8.26552e-09
-3.39284e-08
5.05799e-08
-4.22805e-08
9.66252e-08
-4.60673e-08
1.42326e-07
-4.56692e-08
1.84687e-07
-4.23735e-08
2.21908e-07
-3.71943e-08
2.52781e-07
-3.08762e-08
2.76711e-07
-2.3907e-08
2.9328e-07
-1.65663e-08
3.02275e-07
-8.97218e-09
3.03368e-07
-1.08799e-09
2.96422e-07
6.97043e-09
2.81596e-07
1.48284e-08
2.59539e-07
2.20828e-08
2.31158e-07
2.83826e-08
1.97844e-07
3.33429e-08
1.61322e-07
3.65309e-08
1.23828e-07
3.75308e-08
8.78013e-08
3.60533e-08
5.57462e-08
3.21069e-08
2.96069e-08
2.61934e-08
1.03405e-08
1.93356e-08
-2.29665e-09
1.27133e-08
-9.30985e-09
7.0873e-09
-1.1428e-08
2.19452e-09
-8.6693e-09
-2.68894e-09
-5.06382e-11
-8.5526e-09
1.60539e-08
-1.60496e-08
4.0786e-08
-2.46877e-08
7.1842e-08
-3.10151e-08
1.04007e-07
-3.21292e-08
1.31683e-07
-2.76395e-08
1.51033e-07
-1.93115e-08
1.60616e-07
-9.54863e-09
1.61916e-07
-1.25326e-09
1.5805e-07
3.89684e-09
1.52625e-07
5.49257e-09
1.49044e-07
3.60102e-09
1.47168e-07
1.98904e-09
1.38347e-07
8.80704e-09
1.15056e-07
2.3425e-08
6.96896e-08
4.53134e-08
-2.32489e-09
7.2106e-08
-9.70778e-08
9.46929e-08
-2.08339e-07
1.11297e-07
-3.32972e-07
1.24601e-07
-4.67852e-07
1.34896e-07
-6.09036e-07
1.41166e-07
-7.51607e-07
1.42582e-07
-8.91721e-07
1.40107e-07
-1.02742e-06
1.35717e-07
-1.15713e-06
1.29706e-07
-1.27882e-06
1.217e-07
-1.3912e-06
1.12378e-07
-1.49417e-06
1.02989e-07
-1.58838e-06
9.42016e-08
-1.67463e-06
8.62601e-08
-1.75326e-06
7.8636e-08
-1.82502e-06
7.177e-08
-1.89113e-06
6.6108e-08
-1.95214e-06
6.10208e-08
-2.00869e-06
5.65536e-08
-2.06133e-06
5.26573e-08
-2.11058e-06
4.92496e-08
-2.15683e-06
4.62605e-08
-2.20045e-06
4.36227e-08
-2.24172e-06
4.12809e-08
-2.2809e-06
3.91841e-08
-2.31817e-06
3.72941e-08
-2.35373e-06
3.55743e-08
-2.38771e-06
3.39984e-08
-2.42024e-06
3.2542e-08
-2.4514e-06
3.11883e-08
-2.48131e-06
2.99191e-08
-2.51001e-06
2.87215e-08
-2.53758e-06
2.75807e-08
-2.56404e-06
2.64879e-08
-2.58946e-06
2.54288e-08
-2.61383e-06
2.43952e-08
-2.6372e-06
2.33729e-08
-2.65954e-06
2.2355e-08
-2.68086e-06
2.13253e-08
-2.70112e-06
2.02863e-08
-2.72029e-06
1.92182e-08
-2.73836e-06
1.81178e-08
-2.75529e-06
1.69752e-08
-2.77104e-06
1.57823e-08
-2.78557e-06
1.45361e-08
-2.7988e-06
1.32325e-08
-2.81068e-06
1.18667e-08
-2.82113e-06
1.0433e-08
-2.83007e-06
8.92036e-09
-2.8374e-06
7.31938e-09
-2.84302e-06
5.61432e-09
-2.84681e-06
3.80008e-09
-2.84869e-06
1.8987e-09
-2.84868e-06
1.79764e-11
-2.847e-06
-1.66006e-09
-2.84381e-06
-3.16232e-09
-2.83916e-06
-4.63783e-09
-2.83304e-06
-6.10486e-09
-2.82545e-06
-7.57488e-09
-2.8164e-06
-9.0431e-09
-2.80588e-06
-1.05106e-08
-2.7939e-06
-1.19705e-08
-2.78048e-06
-1.34246e-08
-2.76561e-06
-1.48655e-08
-2.74932e-06
-1.62963e-08
-2.73161e-06
-1.77095e-08
-2.71251e-06
-1.91093e-08
-2.69203e-06
-2.04906e-08
-2.67019e-06
-2.1859e-08
-2.647e-06
-2.3212e-08
-2.62247e-06
-2.45539e-08
-2.59661e-06
-2.58831e-08
-2.56944e-06
-2.72028e-08
-2.54095e-06
-2.85128e-08
-2.51117e-06
-2.98153e-08
-2.4801e-06
-3.11115e-08
-2.44773e-06
-3.24006e-08
-2.41408e-06
-3.36855e-08
-2.37914e-06
-3.49631e-08
-2.34293e-06
-3.62395e-08
-2.30543e-06
-3.7509e-08
-2.26666e-06
-3.87754e-08
-2.22662e-06
-4.00299e-08
-2.18535e-06
-4.12577e-08
-2.14288e-06
-4.2457e-08
-2.09924e-06
-4.36166e-08
-2.05451e-06
-4.47227e-08
-2.00874e-06
-4.57547e-08
-1.96185e-06
-4.69046e-08
-1.91377e-06
-4.81163e-08
-1.8646e-06
-4.92197e-08
-1.81442e-06
-5.02503e-08
-1.76328e-06
-5.12256e-08
-1.71123e-06
-5.21432e-08
-1.65834e-06
-5.29925e-08
-1.60469e-06
-5.37703e-08
-1.55032e-06
-5.44863e-08
-1.49534e-06
-5.51125e-08
-1.43981e-06
-5.56615e-08
-1.38382e-06
-5.6132e-08
-1.32746e-06
-5.65018e-08
-1.27083e-06
-5.67934e-08
-1.214e-06
-5.69886e-08
-1.15708e-06
-5.70882e-08
-1.10016e-06
-5.70897e-08
-1.04334e-06
-5.69994e-08
-9.86695e-07
-5.68152e-08
-9.30334e-07
-5.65428e-08
-8.74316e-07
-5.61892e-08
-8.18727e-07
-5.57644e-08
-7.63616e-07
-5.52729e-08
-7.09046e-07
-5.47303e-08
-6.55046e-07
-5.41416e-08
-6.01653e-07
-5.35265e-08
-5.48878e-07
-5.28871e-08
-4.96739e-07
-5.22384e-08
-4.45235e-07
-5.15793e-08
-3.94368e-07
-5.09272e-08
-3.44131e-07
-5.02741e-08
-2.9451e-07
-4.96429e-08
-2.45493e-07
-4.90183e-08
-1.97066e-07
-4.84195e-08
-1.49226e-07
-4.78175e-08
-1.02032e-07
-4.71651e-08
-5.56608e-08
-4.63246e-08
-1.05436e-08
-4.5061e-08
3.25371e-08
-4.30314e-08
7.1977e-08
-3.94284e-08
1.08153e-07
-3.62157e-08
-1.39889e-08
1.22113e-07
-3.54045e-09
1.13873e-08
-9.6764e-09
1.95958e-08
-1.26984e-08
1.77489e-08
-6.23415e-09
6.07121e-09
1.46916e-08
-1.536e-08
4.95589e-08
-4.20004e-08
9.43745e-08
-6.64418e-08
1.43645e-07
-8.32133e-08
1.92425e-07
-9.10432e-08
2.37522e-07
-9.11724e-08
2.77579e-07
-8.57113e-08
3.11936e-07
-7.67351e-08
3.4056e-07
-6.58044e-08
3.63622e-07
-5.39384e-08
3.8147e-07
-4.1741e-08
3.94446e-07
-2.95382e-08
4.02968e-07
-1.74787e-08
4.07542e-07
-5.6566e-09
4.08538e-07
5.99132e-09
4.05793e-07
1.758e-08
3.98851e-07
2.90418e-08
3.87097e-07
4.01435e-08
3.70007e-07
5.04523e-08
3.47207e-07
5.93425e-08
3.18731e-07
6.60314e-08
2.85125e-07
6.96815e-08
2.47666e-07
6.95986e-08
2.08412e-07
6.54861e-08
1.70207e-07
5.75879e-08
1.36387e-07
4.65944e-08
1.10234e-07
3.33081e-08
9.41653e-08
1.83449e-08
8.95404e-08
2.01161e-09
9.60426e-08
-1.49875e-08
1.12411e-07
-3.23659e-08
1.34558e-07
-4.67931e-08
1.56461e-07
-5.2883e-08
1.72577e-07
-4.82117e-08
1.80168e-07
-3.51976e-08
1.78861e-07
-1.79666e-08
1.69315e-07
3.34786e-11
1.53699e-07
1.44126e-08
1.3189e-07
2.57386e-08
9.64798e-08
4.09785e-08
3.74686e-08
6.26379e-08
-5.25818e-08
9.21189e-08
-1.71535e-07
1.27772e-07
-3.10862e-07
1.62786e-07
-4.60919e-07
1.9537e-07
-6.13684e-07
2.24879e-07
-7.67233e-07
2.48237e-07
-9.19895e-07
2.63964e-07
-1.0681e-06
2.72802e-07
-1.20835e-06
2.75145e-07
-1.33823e-06
2.71048e-07
-1.45651e-06
2.6087e-07
-1.56259e-06
2.46189e-07
-1.65617e-06
2.29301e-07
-1.73812e-06
2.11657e-07
-1.8102e-06
1.93785e-07
-1.87418e-06
1.7637e-07
-1.93138e-06
1.60193e-07
-1.9829e-06
1.45724e-07
-2.02964e-06
1.33008e-07
-2.07273e-06
1.21727e-07
-2.11278e-06
1.11835e-07
-2.15007e-06
1.03401e-07
-2.18514e-06
9.60985e-08
-2.21832e-06
8.97381e-08
-2.24984e-06
8.41792e-08
-2.27987e-06
7.92868e-08
-2.30856e-06
7.49486e-08
-2.336e-06
7.10696e-08
-2.36228e-06
6.75718e-08
-2.38748e-06
6.43899e-08
-2.41165e-06
6.14714e-08
-2.43484e-06
5.87723e-08
-2.45708e-06
5.62571e-08
-2.47843e-06
5.38964e-08
-2.49889e-06
5.16651e-08
-2.5185e-06
4.95405e-08
-2.53727e-06
4.75029e-08
-2.55521e-06
4.55338e-08
-2.57232e-06
4.36161e-08
-2.58861e-06
4.17323e-08
-2.60407e-06
3.98664e-08
-2.61869e-06
3.80019e-08
-2.63246e-06
3.61221e-08
-2.64533e-06
3.42167e-08
-2.6573e-06
3.22665e-08
-2.66831e-06
3.02659e-08
-2.67836e-06
2.82007e-08
-2.68741e-06
2.60594e-08
-2.69544e-06
2.38389e-08
-2.70243e-06
2.15347e-08
-2.70835e-06
1.91452e-08
-2.71317e-06
1.6669e-08
-2.71685e-06
1.41049e-08
-2.7194e-06
1.14558e-08
-2.72082e-06
8.72681e-09
-2.72114e-06
5.93335e-09
-2.72043e-06
3.10168e-09
-2.71879e-06
2.71462e-10
-2.71622e-06
-2.53334e-09
-2.7125e-06
-5.34999e-09
-2.70744e-06
-8.20835e-09
-2.70097e-06
-1.10906e-08
-2.69308e-06
-1.39876e-08
-2.68376e-06
-1.68941e-08
-2.67299e-06
-1.98025e-08
-2.66079e-06
-2.27068e-08
-2.64716e-06
-2.55996e-08
-2.6321e-06
-2.84767e-08
-2.61563e-06
-3.13314e-08
-2.59777e-06
-3.41611e-08
-2.57852e-06
-3.69606e-08
-2.55791e-06
-3.97296e-08
-2.53594e-06
-4.24665e-08
-2.51264e-06
-4.51744e-08
-2.48802e-06
-4.78537e-08
-2.46208e-06
-5.05085e-08
-2.43484e-06
-5.3139e-08
-2.40632e-06
-5.57497e-08
-2.37651e-06
-5.83415e-08
-2.34543e-06
-6.09188e-08
-2.31308e-06
-6.3483e-08
-2.27947e-06
-6.60362e-08
-2.2446e-06
-6.85796e-08
-2.20848e-06
-7.11107e-08
-2.1711e-06
-7.36319e-08
-2.13247e-06
-7.61431e-08
-2.09261e-06
-7.86442e-08
-2.05151e-06
-8.11246e-08
-2.00918e-06
-8.35739e-08
-1.96564e-06
-8.59862e-08
-1.92089e-06
-8.83594e-08
-1.87492e-06
-9.06802e-08
-1.82772e-06
-9.29551e-08
-1.77939e-06
-9.52442e-08
-1.73004e-06
-9.75041e-08
-1.67964e-06
-9.9653e-08
-1.62826e-06
-1.01687e-07
-1.57594e-06
-1.03598e-07
-1.52276e-06
-1.05397e-07
-1.46877e-06
-1.07054e-07
-1.41406e-06
-1.0857e-07
-1.35869e-06
-1.09937e-07
-1.30276e-06
-1.11144e-07
-1.24634e-06
-1.12175e-07
-1.18953e-06
-1.13049e-07
-1.13241e-06
-1.13724e-07
-1.07509e-06
-1.14229e-07
-1.01766e-06
-1.14538e-07
-9.60216e-07
-1.14661e-07
-9.02848e-07
-1.14583e-07
-8.4566e-07
-1.14324e-07
-7.88731e-07
-1.13874e-07
-7.32155e-07
-1.13256e-07
-6.76004e-07
-1.12471e-07
-6.20355e-07
-1.11547e-07
-5.6526e-07
-1.10492e-07
-5.10772e-07
-1.09338e-07
-4.56922e-07
-1.081e-07
-4.03736e-07
-1.0681e-07
-3.5122e-07
-1.05486e-07
-2.99378e-07
-1.04146e-07
-2.48203e-07
-1.02808e-07
-1.97676e-07
-1.01484e-07
-1.4778e-07
-1.00191e-07
-9.84796e-08
-9.89377e-08
-4.97424e-08
-9.7743e-08
-1.55906e-09
-9.65667e-08
4.60366e-08
-9.53756e-08
9.30237e-08
-9.40932e-08
1.39363e-07
-9.26048e-08
1.84971e-07
-9.0588e-08
2.29557e-07
-8.75469e-08
2.72839e-07
-8.26462e-08
3.11745e-07
-7.50877e-08
-5.14317e-08
3.49229e-07
2.68504e-10
1.11106e-08
3.78525e-09
1.60397e-08
1.73243e-08
4.20253e-09
4.82884e-08
-2.49182e-08
9.58353e-08
-6.29018e-08
1.50897e-07
-9.70758e-08
2.04031e-07
-1.19566e-07
2.49883e-07
-1.29074e-07
2.86978e-07
-1.28129e-07
3.15994e-07
-1.20194e-07
3.38468e-07
-1.08177e-07
3.55808e-07
-9.40781e-08
3.69124e-07
-7.91107e-08
3.79134e-07
-6.39485e-08
3.86346e-07
-4.89435e-08
3.91078e-07
-3.42674e-08
3.93609e-07
-1.99979e-08
3.94137e-07
-6.18003e-09
3.92959e-07
7.18193e-09
3.90406e-07
2.0138e-08
3.86727e-07
3.27337e-08
3.81922e-07
4.4956e-08
3.75716e-07
5.66736e-08
3.67495e-07
6.75748e-08
3.56422e-07
7.71229e-08
3.41588e-07
8.4534e-08
3.22384e-07
8.88261e-08
2.98925e-07
8.89715e-08
2.72388e-07
8.41567e-08
2.45044e-07
7.3974e-08
2.19813e-07
5.85786e-08
1.99527e-07
3.86746e-08
1.86026e-07
1.55569e-08
1.79854e-07
-8.77331e-09
1.78089e-07
-3.05666e-08
1.74042e-07
-4.27172e-08
1.62376e-07
-4.11913e-08
1.41914e-07
-2.77244e-08
1.13382e-07
-6.63825e-09
7.66404e-08
1.88051e-08
2.85002e-08
4.82049e-08
-3.76403e-08
8.05882e-08
-1.27392e-07
1.15513e-07
-2.41039e-07
1.54647e-07
-3.75147e-07
1.96757e-07
-5.22109e-07
2.39094e-07
-6.72873e-07
2.7854e-07
-8.22219e-07
3.1214e-07
-9.65193e-07
3.38344e-07
-1.09703e-06
3.56723e-07
-1.2156e-06
3.66801e-07
-1.32047e-06
3.68837e-07
-1.41142e-06
3.63751e-07
-1.48891e-06
3.52643e-07
-1.55455e-06
3.36681e-07
-1.61083e-06
3.17155e-07
-1.66023e-06
2.95591e-07
-1.70442e-06
2.73494e-07
-1.74468e-06
2.51923e-07
-1.78231e-06
2.31425e-07
-1.81829e-06
2.12356e-07
-1.85309e-06
1.94998e-07
-1.88684e-06
1.79479e-07
-1.91956e-06
1.65731e-07
-1.95143e-06
1.53603e-07
-1.9825e-06
1.42915e-07
-2.01264e-06
1.3354e-07
-2.04183e-06
1.25297e-07
-2.07009e-06
1.18001e-07
-2.09742e-06
1.11507e-07
-2.12381e-06
1.05685e-07
-2.14929e-06
1.00429e-07
-2.17386e-06
9.56456e-08
-2.19755e-06
9.12604e-08
-2.22036e-06
8.72108e-08
-2.24233e-06
8.34454e-08
-2.26347e-06
7.9921e-08
-2.28381e-06
7.66017e-08
-2.30336e-06
7.3457e-08
-2.32215e-06
7.04597e-08
-2.34019e-06
6.75847e-08
-2.35748e-06
6.48089e-08
-2.37405e-06
6.21096e-08
-2.38989e-06
5.94654e-08
-2.40501e-06
5.68544e-08
-2.41939e-06
5.42554e-08
-2.43303e-06
5.16464e-08
-2.4459e-06
4.9009e-08
-2.458e-06
4.6321e-08
-2.46929e-06
4.35715e-08
-2.47974e-06
4.07378e-08
-2.48932e-06
3.78084e-08
-2.49801e-06
3.47732e-08
-2.50578e-06
3.16238e-08
-2.5126e-06
2.83579e-08
-2.51844e-06
2.49745e-08
-2.52326e-06
2.14747e-08
-2.52702e-06
1.78619e-08
-2.52972e-06
1.41422e-08
-2.53133e-06
1.03267e-08
-2.53183e-06
6.43072e-09
-2.53119e-06
2.47422e-09
-2.52938e-06
-1.5273e-09
-2.52632e-06
-5.57779e-09
-2.52195e-06
-9.69915e-09
-2.51626e-06
-1.38936e-08
-2.5092e-06
-1.81375e-08
-2.50077e-06
-2.24138e-08
-2.49095e-06
-2.67075e-08
-2.47974e-06
-3.10069e-08
-2.46714e-06
-3.52997e-08
-2.45316e-06
-3.95774e-08
-2.4378e-06
-4.38296e-08
-2.42108e-06
-4.80504e-08
-2.40301e-06
-5.2232e-08
-2.3836e-06
-5.6371e-08
-2.36287e-06
-6.04638e-08
-2.34083e-06
-6.45117e-08
-2.3175e-06
-6.85154e-08
-2.29289e-06
-7.24784e-08
-2.26701e-06
-7.64039e-08
-2.23986e-06
-8.02958e-08
-2.21147e-06
-8.41587e-08
-2.18183e-06
-8.79966e-08
-2.15095e-06
-9.18146e-08
-2.11884e-06
-9.56156e-08
-2.08549e-06
-9.94038e-08
-2.05091e-06
-1.0318e-07
-2.01509e-06
-1.06943e-07
-1.97804e-06
-1.1069e-07
-1.93977e-06
-1.14425e-07
-1.90027e-06
-1.18145e-07
-1.85955e-06
-1.2184e-07
-1.81762e-06
-1.25497e-07
-1.77449e-06
-1.2911e-07
-1.73016e-06
-1.32675e-07
-1.68465e-06
-1.36179e-07
-1.63799e-06
-1.39619e-07
-1.59024e-06
-1.43007e-07
-1.54145e-06
-1.46305e-07
-1.49166e-06
-1.49467e-07
-1.4409e-06
-1.52467e-07
-1.38924e-06
-1.55287e-07
-1.33674e-06
-1.57926e-07
-1.28347e-06
-1.60356e-07
-1.22951e-06
-1.62562e-07
-1.17495e-06
-1.64538e-07
-1.11986e-06
-1.66268e-07
-1.06434e-06
-1.67734e-07
-1.00848e-06
-1.68946e-07
-9.52371e-07
-1.69872e-07
-8.96116e-07
-1.7052e-07
-8.3981e-07
-1.70886e-07
-7.83545e-07
-1.70962e-07
-7.27419e-07
-1.7075e-07
-6.71522e-07
-1.70258e-07
-6.15939e-07
-1.69497e-07
-5.6075e-07
-1.68481e-07
-5.06029e-07
-1.67229e-07
-4.5184e-07
-1.65769e-07
-3.98235e-07
-1.6413e-07
-3.45253e-07
-1.62348e-07
-2.92924e-07
-1.60457e-07
-2.4126e-07
-1.58498e-07
-1.9026e-07
-1.56508e-07
-1.39917e-07
-1.54509e-07
-9.02101e-08
-1.52532e-07
-4.11097e-08
-1.506e-07
7.42103e-09
-1.48734e-07
5.54144e-08
-1.46944e-07
1.02918e-07
-1.45258e-07
1.49997e-07
-1.43661e-07
1.9672e-07
-1.42112e-07
2.43126e-07
-1.40515e-07
2.89212e-07
-1.38705e-07
3.34926e-07
-1.36316e-07
3.80148e-07
-1.32783e-07
4.24691e-07
-1.27212e-07
4.67693e-07
-1.18124e-07
-9.61414e-08
5.12373e-07
-5.22997e-11
1.11603e-08
1.21005e-08
3.86203e-09
4.89078e-08
-3.25998e-08
1.06895e-07
-8.29192e-08
1.69993e-07
-1.25993e-07
2.24436e-07
-1.51527e-07
2.64839e-07
-1.59963e-07
2.92104e-07
-1.56346e-07
3.09718e-07
-1.45736e-07
3.21103e-07
-1.31584e-07
3.28755e-07
-1.15822e-07
3.34101e-07
-9.94276e-08
3.3789e-07
-8.28923e-08
3.40414e-07
-6.64726e-08
3.41795e-07
-5.03159e-08
3.42049e-07
-3.45193e-08
3.41214e-07
-1.91533e-08
3.39316e-07
-4.27797e-09
3.36444e-07
1.00647e-08
3.32735e-07
2.38529e-08
3.28414e-07
3.70654e-08
3.23702e-07
4.9676e-08
3.18765e-07
6.1623e-08
3.13601e-07
7.27498e-08
3.07974e-07
8.27661e-08
3.01349e-07
9.11754e-08
2.92991e-07
9.72051e-08
2.82167e-07
9.98182e-08
2.68497e-07
9.78536e-08
2.52213e-07
9.02873e-08
2.34264e-07
7.65594e-08
2.16134e-07
5.68396e-08
1.98914e-07
3.28133e-08
1.80878e-07
9.29574e-09
1.55713e-07
-5.37052e-09
1.1908e-07
-6.06065e-09
7.13429e-08
6.57198e-09
1.29612e-08
3.06813e-08
-5.83611e-08
6.47072e-08
-1.45478e-07
1.05941e-07
-2.49017e-07
1.51759e-07
-3.68005e-07
1.99588e-07
-4.99677e-07
2.47193e-07
-6.3808e-07
2.93058e-07
-7.76843e-07
3.35524e-07
-9.09902e-07
3.72159e-07
-1.03197e-06
4.00607e-07
-1.14009e-06
4.20265e-07
-1.23313e-06
4.31384e-07
-1.31082e-06
4.34419e-07
-1.37434e-06
4.30316e-07
-1.42572e-06
4.20219e-07
-1.46733e-06
4.0536e-07
-1.50166e-06
3.86978e-07
-1.53117e-06
3.6619e-07
-1.55804e-06
3.44029e-07
-1.58391e-06
3.21459e-07
-1.6097e-06
2.99285e-07
-1.63585e-06
2.78075e-07
-1.66258e-06
2.58164e-07
-1.68995e-06
2.3973e-07
-1.71782e-06
2.22872e-07
-1.74595e-06
2.07618e-07
-1.77411e-06
1.93895e-07
-1.80211e-06
1.81604e-07
-1.82979e-06
1.70603e-07
-1.857e-06
1.60752e-07
-1.88362e-06
1.51914e-07
-1.90956e-06
1.43947e-07
-1.93478e-06
1.36726e-07
-1.95923e-06
1.30144e-07
-1.98291e-06
1.24104e-07
-2.00579e-06
1.18529e-07
-2.02787e-06
1.1335e-07
-2.04917e-06
1.08514e-07
-2.0697e-06
1.03972e-07
-2.08946e-06
9.9686e-08
-2.10847e-06
9.56223e-08
-2.12676e-06
9.17509e-08
-2.14434e-06
8.80441e-08
-2.16123e-06
8.44753e-08
-2.17743e-06
8.10184e-08
-2.19296e-06
7.76473e-08
-2.20783e-06
7.43358e-08
-2.22202e-06
7.10576e-08
-2.23555e-06
6.77861e-08
-2.24839e-06
6.44951e-08
-2.26054e-06
6.11584e-08
-2.27196e-06
5.77551e-08
-2.28264e-06
5.42564e-08
-2.29253e-06
5.06509e-08
-2.30162e-06
4.69151e-08
-2.30987e-06
4.30381e-08
-2.31724e-06
3.90096e-08
-2.32371e-06
3.48268e-08
-2.32923e-06
3.04877e-08
-2.33376e-06
2.59958e-08
-2.33727e-06
2.13549e-08
-2.33971e-06
1.65738e-08
-2.34105e-06
1.16628e-08
-2.34126e-06
6.63658e-09
-2.34028e-06
1.50864e-09
-2.33809e-06
-3.71175e-09
-2.33463e-06
-9.02588e-09
-2.32988e-06
-1.44375e-08
-2.32382e-06
-1.99374e-08
-2.31645e-06
-2.55027e-08
-2.30774e-06
-3.11124e-08
-2.2977e-06
-3.67466e-08
-2.28631e-06
-4.23893e-08
-2.27358e-06
-4.8024e-08
-2.25952e-06
-5.36392e-08
-2.24413e-06
-5.92211e-08
-2.22741e-06
-6.47618e-08
-2.20939e-06
-7.02506e-08
-2.19008e-06
-7.56836e-08
-2.1695e-06
-8.10565e-08
-2.14765e-06
-8.63706e-08
-2.12454e-06
-9.16268e-08