/*--------------------------------*- C++ -*----------------------------------*\
  =========                 |
  \\      /  F ield         | OpenFOAM: The Open Source CFD Toolbox
   \\    /   O peration     | Website:  https://openfoam.org
    \\  /    A nd           | Version:  13
     \\/     M anipulation  |
\*---------------------------------------------------------------------------*/
FoamFile
{
    format      ascii;
    class       volVectorField;
    location    "1300";
    object      U;
}
// * * * * * * * * * * * * * * * * * * * * * * * * * * * * * * * * * * * * * //

dimensions      [0 1 -1 0 0 0 0];

internalField   nonuniform List<vector> 
12225
(
(9.75253 0.0483942 0)
(9.28291 0.093405 0)
(8.82408 0.0993102 0)
(8.39533 0.0876707 0)
(8.00325 0.0921947 0)
(7.65809 0.0901737 0)
(7.37816 0.0684992 0)
(7.14395 0.0502712 0)
(6.98069 0.0284243 0)
(6.84117 0.0145432 0)
(6.71392 0.0127699 0)
(6.58491 0.0149313 0)
(6.46991 0.0186112 0)
(6.39041 0.0273179 0)
(6.31778 0.020052 0)
(6.26702 0.0017102 0)
(6.24324 -0.012172 0)
(6.23934 -0.00662441 0)
(10.1069 0.055965 0)
(10.3138 0.0931876 0)
(10.4355 0.094157 0)
(10.4872 0.0949966 0)
(10.5054 0.0908268 0)
(10.4623 0.0840863 0)
(10.4042 0.0798702 0)
(10.3244 0.0743085 0)
(10.2262 0.0680873 0)
(10.1277 0.0639184 0)
(10.0293 0.0617304 0)
(9.94593 0.0572306 0)
(9.86706 0.0500865 0)
(9.77704 0.0423303 0)
(9.68983 0.0370499 0)
(9.6128 0.0326558 0)
(9.53742 0.0273178 0)
(9.46056 0.0184173 0)
(10.0099 0.0448396 0)
(10.0607 0.0700863 0)
(10.1105 0.0694982 0)
(10.1565 0.0740006 0)
(10.2033 0.0821246 0)
(10.2506 0.0850341 0)
(10.2908 0.0818292 0)
(10.3212 0.0776024 0)
(10.3416 0.0743895 0)
(10.352 0.073915 0)
(10.3567 0.0743559 0)
(10.3595 0.0736445 0)
(10.3592 0.0704743 0)
(10.3552 0.0670174 0)
(10.349 0.0625377 0)
(10.3382 0.0561287 0)
(10.3224 0.0491464 0)
(10.3005 0.0429037 0)
(10.0135 0.0239646 0)
(10.0393 0.0531594 0)
(10.0663 0.0592646 0)
(10.0814 0.0648867 0)
(10.0962 0.0708588 0)
(10.1143 0.0722359 0)
(10.1318 0.0690153 0)
(10.1473 0.0650736 0)
(10.1612 0.0619417 0)
(10.1746 0.0611435 0)
(10.1883 0.0606882 0)
(10.2023 0.0592345 0)
(10.2154 0.0573092 0)
(10.2276 0.0548367 0)
(10.2384 0.0508067 0)
(10.2471 0.0459135 0)
(10.2531 0.0417581 0)
(10.2574 0.0393678 0)
(10.0086 0.0229554 0)
(10.0214 0.0509071 0)
(10.0501 0.0606495 0)
(10.0658 0.0653545 0)
(10.0791 0.0696751 0)
(10.0932 0.070656 0)
(10.106 0.0682583 0)
(10.1162 0.0650848 0)
(10.1242 0.0622474 0)
(10.1317 0.0608209 0)
(10.1402 0.0599513 0)
(10.1491 0.058622 0)
(10.158 0.0566504 0)
(10.1666 0.0540344 0)
(10.1744 0.0503881 0)
(10.181 0.0461274 0)
(10.1862 0.042225 0)
(10.1907 0.0394507 0)
(10.0033 0.020586 0)
(10.016 0.0442081 0)
(10.0389 0.055214 0)
(10.0546 0.0599146 0)
(10.068 0.0640547 0)
(10.0816 0.0655555 0)
(10.0939 0.0641532 0)
(10.1039 0.0616271 0)
(10.1116 0.0591806 0)
(10.1185 0.0575201 0)
(10.1255 0.0562131 0)
(10.1327 0.0546113 0)
(10.1399 0.0524902 0)
(10.1466 0.0497889 0)
(10.1527 0.0464537 0)
(10.1579 0.042782 0)
(10.1622 0.0393056 0)
(10.1658 0.0364586 0)
(10.0003 0.0179677 0)
(10.015 0.0384602 0)
(10.0318 0.0495551 0)
(10.0468 0.0552653 0)
(10.0594 0.0592794 0)
(10.0719 0.0608464 0)
(10.0834 0.0599905 0)
(10.093 0.05802 0)
(10.1008 0.0559684 0)
(10.1078 0.0543767 0)
(10.1146 0.0529424 0)
(10.1214 0.051298 0)
(10.1281 0.0492335 0)
(10.1343 0.0467175 0)
(10.1399 0.0437778 0)
(10.1448 0.0405948 0)
(10.1489 0.0374734 0)
(10.1524 0.0346653 0)
(10.0001 0.0149625 0)
(10.0139 0.0335454 0)
(10.0271 0.0450669 0)
(10.0407 0.0509569 0)
(10.0526 0.0545746 0)
(10.0641 0.0561604 0)
(10.0748 0.0558417 0)
(10.0841 0.0544108 0)
(10.0919 0.0527557 0)
(10.099 0.051265 0)
(10.1058 0.0497642 0)
(10.1124 0.0480736 0)
(10.1187 0.0460358 0)
(10.1246 0.04363 0)
(10.1299 0.0409016 0)
(10.1346 0.0380026 0)
(10.1386 0.0351056 0)
(10.1421 0.0323675 0)
(10.0009 0.0121221 0)
(10.0118 0.029205 0)
(10.0232 0.0404697 0)
(10.0357 0.0462778 0)
(10.047 0.0499245 0)
(10.0577 0.0516961 0)
(10.0678 0.0517269 0)
(10.0768 0.0507089 0)
(10.0846 0.0493312 0)
(10.0916 0.0479043 0)
(10.0983 0.0464242 0)
(10.1047 0.0447388 0)
(10.1108 0.0427537 0)
(10.1164 0.0404748 0)
(10.1215 0.0379672 0)
(10.126 0.0353274 0)
(10.13 0.0326589 0)
(10.1336 0.0300709 0)
(10.0009 0.00998436 0)
(10.0094 0.0254454 0)
(10.0197 0.0356916 0)
(10.0312 0.0416676 0)
(10.0419 0.0452991 0)
(10.052 0.0471566 0)
(10.0616 0.0474446 0)
(10.0702 0.0467439 0)
(10.078 0.0455967 0)
(10.085 0.044314 0)
(10.0916 0.0428868 0)
(10.0978 0.0412486 0)
(10.1037 0.039358 0)
(10.1091 0.0372283 0)
(10.1141 0.0349151 0)
(10.1185 0.0324923 0)
(10.1225 0.0300306 0)
(10.126 0.0276012 0)
(10.0008 0.00817924 0)
(10.0073 0.0220451 0)
(10.0165 0.0314161 0)
(10.0269 0.0371023 0)
(10.037 0.0405904 0)
(10.0466 0.0424767 0)
(10.0557 0.042981 0)
(10.0641 0.042543 0)
(10.0717 0.0416296 0)
(10.0787 0.0404759 0)
(10.0852 0.0391327 0)
(10.0913 0.0375788 0)
(10.097 0.0358033 0)
(10.1023 0.0338307 0)
(10.1072 0.0317087 0)
(10.1116 0.0294939 0)
(10.1155 0.0272329 0)
(10.119 0.0249791 0)
(10.0006 0.00679707 0)
(10.0058 0.0190548 0)
(10.0139 0.0276079 0)
(10.0234 0.0329766 0)
(10.0328 0.0362911 0)
(10.0419 0.0381515 0)
(10.0506 0.0387849 0)
(10.0587 0.0385507 0)
(10.0661 0.0378115 0)
(10.073 0.0367842 0)
(10.0795 0.0355373 0)
(10.0855 0.0340787 0)
(10.0911 0.03242 0)
(10.0963 0.0305894 0)
(10.1011 0.0286322 0)
(10.1054 0.0265927 0)
(10.1093 0.0245074 0)
(10.1128 0.0224188 0)
(10.0005 0.00566164 0)
(10.0047 0.0163171 0)
(10.0118 0.0239968 0)
(10.0204 0.028964 0)
(10.0291 0.0320587 0)
(10.0376 0.0338431 0)
(10.0459 0.0345362 0)
(10.0537 0.0344316 0)
(10.0609 0.0338279 0)
(10.0677 0.0329155 0)
(10.074 0.0317714 0)
(10.0799 0.0304213 0)
(10.0854 0.0288882 0)
(10.0905 0.027204 0)
(10.0951 0.0254092 0)
(10.0994 0.0235434 0)
(10.1033 0.0216339 0)
(10.1068 0.0197188 0)
(10.0004 0.00458926 0)
(10.0038 0.013464 0)
(10.0099 0.0200977 0)
(10.0175 0.0245236 0)
(10.0255 0.0273105 0)
(10.0334 0.0289496 0)
(10.0411 0.0296487 0)
(10.0485 0.0296391 0)
(10.0554 0.0291538 0)
(10.062 0.028355 0)
(10.0681 0.0273221 0)
(10.0738 0.0260962 0)
(10.0792 0.0247054 0)
(10.0841 0.0231859 0)
(10.0887 0.0215704 0)
(10.0929 0.0198953 0)
(10.0967 0.0181795 0)
(10.1001 0.0164565 0)
(10.0003 0.00355592 0)
(10.0031 0.0105523 0)
(10.0082 0.015961 0)
(10.0149 0.0196765 0)
(10.022 0.022036 0)
(10.0292 0.0234389 0)
(10.0364 0.0240667 0)
(10.0434 0.0240952 0)
(10.05 0.0236978 0)
(10.0562 0.0230029 0)
(10.0621 0.022089 0)
(10.0677 0.0209995 0)
(10.0728 0.0197708 0)
(10.0776 0.0184326 0)
(10.082 0.0170175 0)
(10.0861 0.0155522 0)
(10.0898 0.0140528 0)
(10.0932 0.0125458 0)
(10.0003 0.0025411 0)
(10.0025 0.00762105 0)
(10.0068 0.0116312 0)
(10.0126 0.0144451 0)
(10.019 0.0162309 0)
(10.0255 0.0172825 0)
(10.0322 0.0177392 0)
(10.0386 0.0177285 0)
(10.0449 0.0173704 0)
(10.0509 0.0167608 0)
(10.0565 0.0159652 0)
(10.0618 0.0150256 0)
(10.0668 0.0139747 0)
(10.0714 0.0128396 0)
(10.0757 0.0116453 0)
(10.0796 0.0104136 0)
(10.0832 0.00915424 0)
(10.0865 0.00789111 0)
(10.0002 0.00152073 0)
(10.0021 0.00465374 0)
(10.0058 0.00710548 0)
(10.0108 0.0088181 0)
(10.0165 0.00985892 0)
(10.0225 0.0104189 0)
(10.0286 0.010587 0)
(10.0347 0.0104443 0)
(10.0406 0.0100641 0)
(10.0463 0.00950945 0)
(10.0517 0.00882422 0)
(10.0568 0.00804205 0)
(10.0616 0.00718478 0)
(10.0661 0.00627412 0)
(10.0702 0.00532439 0)
(10.074 0.00435345 0)
(10.0775 0.00336234 0)
(10.0807 0.00237337 0)
(10.0002 0.000451217 0)
(10.0018 0.00155653 0)
(10.0051 0.00227513 0)
(10.0096 0.00267456 0)
(10.0149 0.00277463 0)
(10.0205 0.00267854 0)
(10.0263 0.00242357 0)
(10.0321 0.00204223 0)
(10.0377 0.0015683 0)
(10.0432 0.00102663 0)
(10.0485 0.00043768 0)
(10.0534 -0.000185593 0)
(10.058 -0.00083323 0)
(10.0624 -0.00149759 0)
(10.0664 -0.0021727 0)
(10.0701 -0.00285139 0)
(10.0735 -0.00353755 0)
(10.0767 -0.00421723 0)
(10.0002 -0.000760119 0)
(10.0018 -0.00189525 0)
(10.0049 -0.00316663 0)
(10.0093 -0.00431909 0)
(10.0145 -0.00536647 0)
(10.02 -0.00628158 0)
(10.0257 -0.00709231 0)
(10.0315 -0.00780513 0)
(10.0371 -0.00843474 0)
(10.0425 -0.00899055 0)
(10.0477 -0.00948702 0)
(10.0526 -0.00993399 0)
(10.0572 -0.0103425 0)
(10.0615 -0.0107208 0)
(10.0655 -0.0110773 0)
(10.0692 -0.0114167 0)
(10.0726 -0.0117523 0)
(10.0757 -0.0120806 0)
(10.0002 -0.00197313 0)
(10.002 -0.00531037 0)
(10.0055 -0.00853631 0)
(10.0104 -0.0112004 0)
(10.0159 -0.0133444 0)
(10.0218 -0.0150485 0)
(10.0278 -0.0163839 0)
(10.0338 -0.0174092 0)
(10.0397 -0.0181718 0)
(10.0454 -0.0187245 0)
(10.0507 -0.019109 0)
(10.0558 -0.0193622 0)
(10.0605 -0.0195129 0)
(10.0649 -0.0195885 0)
(10.069 -0.0196104 0)
(10.0727 -0.0195966 0)
(10.0761 -0.0195705 0)
(10.0792 -0.019541 0)
(10.0003 -0.0031225 0)
(10.0024 -0.00845159 0)
(10.0066 -0.0133846 0)
(10.0122 -0.0172705 0)
(10.0184 -0.0202597 0)
(10.0248 -0.0225527 0)
(10.0314 -0.0242695 0)
(10.0378 -0.0254966 0)
(10.0441 -0.026317 0)
(10.05 -0.0268183 0)
(10.0557 -0.0270656 0)
(10.0609 -0.0271155 0)
(10.0658 -0.0270129 0)
(10.0704 -0.0267978 0)
(10.0745 -0.0265045 0)
(10.0783 -0.02616 0)
(10.0817 -0.0257956 0)
(10.0848 -0.0254353 0)
(10.0003 -0.00439745 0)
(10.0032 -0.0118305 0)
(10.0083 -0.0183727 0)
(10.0149 -0.0232563 0)
(10.022 -0.026909 0)
(10.0292 -0.0296644 0)
(10.0363 -0.0316659 0)
(10.0432 -0.0330127 0)
(10.0499 -0.0338372 0)
(10.0562 -0.0342514 0)
(10.0622 -0.0343409 0)
(10.0677 -0.0341747 0)
(10.0727 -0.0338088 0)
(10.0774 -0.0332973 0)
(10.0816 -0.0326864 0)
(10.0854 -0.0320107 0)
(10.0888 -0.0313148 0)
(10.0919 -0.0306508 0)
(10.0004 -0.00588604 0)
(10.0044 -0.0156772 0)
(10.0109 -0.0237609 0)
(10.0188 -0.0294644 0)
(10.0268 -0.0335887 0)
(10.0346 -0.036604 0)
(10.0422 -0.0386897 0)
(10.0497 -0.0399793 0)
(10.0567 -0.0406634 0)
(10.0633 -0.0408942 0)
(10.0694 -0.0407695 0)
(10.0751 -0.0403577 0)
(10.0803 -0.0397231 0)
(10.085 -0.0389168 0)
(10.0892 -0.0379923 0)
(10.0931 -0.0369912 0)
(10.0965 -0.0359732 0)
(10.0996 -0.0350416 0)
(10.0004 -0.00763833 0)
(10.0062 -0.0201483 0)
(10.0145 -0.029581 0)
(10.0237 -0.0358261 0)
(10.0325 -0.0402842 0)
(10.0409 -0.0434505 0)
(10.0489 -0.04548 0)
(10.0567 -0.0465744 0)
(10.064 -0.0470198 0)
(10.0708 -0.0469719 0)
(10.0771 -0.0465278 0)
(10.0829 -0.0457969 0)
(10.0882 -0.0448431 0)
(10.093 -0.0437219 0)
(10.0974 -0.0424919 0)
(10.1012 -0.0411908 0)
(10.1046 -0.039913 0)
(10.1078 -0.0387807 0)
(10.0005 -0.00983919 0)
(10.0087 -0.0250387 0)
(10.0192 -0.0347905 0)
(10.0297 -0.0412072 0)
(10.0391 -0.0459421 0)
(10.0481 -0.0493173 0)
(10.0569 -0.0515249 0)
(10.0653 -0.05271 0)
(10.073 -0.0531088 0)
(10.0801 -0.0529179 0)
(10.0866 -0.0522195 0)
(10.0925 -0.0511439 0)
(10.0979 -0.0497799 0)
(10.1028 -0.0481911 0)
(10.1071 -0.0464537 0)
(10.111 -0.0446349 0)
(10.1144 -0.0428651 0)
(10.1173 -0.0412032 0)
(10.0012 -0.0128232 0)
(10.0128 -0.0309614 0)
(10.0264 -0.0404083 0)
(10.0385 -0.0465566 0)
(10.0486 -0.0512393 0)
(10.0584 -0.0544618 0)
(10.0679 -0.0563134 0)
(10.0768 -0.0572607 0)
(10.0849 -0.0575823 0)
(10.0922 -0.0574387 0)
(10.0989 -0.0568811 0)
(10.105 -0.0559401 0)
(10.1106 -0.0546914 0)
(10.1156 -0.053142 0)
(10.1201 -0.051362 0)
(10.124 -0.0494335 0)
(10.1274 -0.0474946 0)
(10.1303 -0.0454356 0)
(10.0027 -0.0175908 0)
(10.0197 -0.0366878 0)
(10.0378 -0.0470802 0)
(10.0535 -0.0531675 0)
(10.0666 -0.0579784 0)
(10.0785 -0.0608066 0)
(10.0895 -0.0619504 0)
(10.0994 -0.0620056 0)
(10.1086 -0.0614945 0)
(10.1171 -0.0605981 0)
(10.1253 -0.0594066 0)
(10.1331 -0.0579685 0)
(10.1405 -0.0562798 0)
(10.1473 -0.0543242 0)
(10.1536 -0.0521574 0)
(10.1592 -0.0499074 0)
(10.1643 -0.0476632 0)
(10.1688 -0.0453363 0)
(10.007 -0.0266224 0)
(10.0392 -0.0465145 0)
(10.071 -0.0540707 0)
(10.0981 -0.0587719 0)
(10.1241 -0.0640559 0)
(10.1489 -0.0678008 0)
(10.1732 -0.0695546 0)
(10.1966 -0.0704676 0)
(10.2191 -0.0706775 0)
(10.2404 -0.0702865 0)
(10.2604 -0.0694205 0)
(10.2788 -0.0681824 0)
(10.2954 -0.0665685 0)
(10.3101 -0.0645766 0)
(10.323 -0.0622701 0)
(10.3339 -0.0597664 0)
(10.343 -0.0571527 0)
(10.3506 -0.0548138 0)
(10.0473 -0.0371304 0)
(10.1511 -0.0656269 0)
(10.2284 -0.0708757 0)
(10.2832 -0.073098 0)
(10.3212 -0.0747364 0)
(10.3457 -0.077385 0)
(10.3583 -0.0785806 0)
(10.3619 -0.078803 0)
(10.3572 -0.0784903 0)
(10.3443 -0.0773627 0)
(10.3262 -0.0755246 0)
(10.3028 -0.0731396 0)
(10.2764 -0.0702369 0)
(10.2479 -0.0668904 0)
(10.2183 -0.0630937 0)
(10.188 -0.059167 0)
(10.1566 -0.0553276 0)
(10.1248 -0.0524593 0)
(9.87287 -0.0363337 0)
(9.62276 -0.0746314 0)
(9.34534 -0.0881384 0)
(9.05802 -0.0909314 0)
(8.78123 -0.0886687 0)
(8.52302 -0.086426 0)
(8.28326 -0.0828166 0)
(8.05981 -0.0778728 0)
(7.85339 -0.0719864 0)
(7.66636 -0.0657026 0)
(7.49625 -0.0591335 0)
(7.34409 -0.0524759 0)
(7.20705 -0.0461816 0)
(7.0849 -0.0401671 0)
(6.97675 -0.0343064 0)
(6.88196 -0.0285278 0)
(6.80025 -0.0228388 0)
(6.73115 -0.0180804 0)
(-0.00255623 0.00722086 -1.04032e-18)
(-0.0123018 0.0120011 1.1483e-18)
(-0.0256548 0.0130233 0)
(-0.0397271 0.0111634 0)
(-0.0496702 0.00580457 0)
(-0.0484646 -0.00305936 -8.13895e-19)
(-0.0333681 -0.0151384 0)
(-0.00750117 -0.0277951 0)
(0.0262535 -0.0373005 0)
(0.0650715 -0.0419384 0)
(0.106016 -0.0423501 4.37555e-19)
(0.145763 -0.0396242 0)
(0.181773 -0.0347428 0)
(0.212552 -0.0284764 0)
(0.237309 -0.0213624 0)
(0.255667 -0.0137445 2.51583e-19)
(0.267298 -0.00580919 0)
(0.272451 0.0025181 0)
(0.269942 0.0111099 0)
(0.260123 0.019457 0)
(0.243572 0.0268274 0)
(0.220929 0.0324567 0)
(0.193091 0.0356607 0)
(0.161401 0.0358622 3.56024e-19)
(0.127647 0.0326943 -4.18086e-19)
(0.0940133 0.0262023 5.08753e-19)
(0.0628839 0.0171414 6.42126e-19)
(0.0365036 0.00727067 0)
(0.0162889 -0.000841663 0)
(0.00233525 -0.00534949 -1.39525e-18)
(-0.00630247 -0.00683571 -1.45561e-18)
(-0.0106595 -0.00729526 0)
(-0.0104788 -0.00822266 0)
(-0.00502532 -0.0106398 -1.4783e-18)
(0.00635006 -0.0149478 0)
(0.0251919 -0.0208606 0)
(0.0504342 -0.0260205 7.24152e-19)
(0.0791562 -0.0281604 0)
(0.106685 -0.0259953 4.74796e-19)
(0.128766 -0.0202577 8.54681e-19)
(0.142566 -0.0127108 0)
(0.147888 -0.00554522 0)
(0.146308 -0.00057167 0)
(0.141312 0.00134728 0)
(0.1368 -0.000636877 0)
(0.134556 -0.00681036 8.63747e-19)
(0.13057 -0.0161073 8.69202e-19)
(0.118058 -0.0229631 8.98148e-19)
(0.0908437 -0.0180839 0)
(0.0450891 0.00138563 -1.20223e-18)
(-0.0401359 0.0203773 0)
(-0.139385 0.039998 5.20329e-19)
(-0.24694 0.0631204 3.46987e-19)
(-0.364977 0.0862293 0)
(-0.490589 0.103239 0)
(-0.621076 0.110429 0)
(-0.751984 0.110692 1.63983e-19)
(-0.879288 0.109838 0)
(-1.00128 0.107736 0)
(-1.11708 0.101771 0)
(-1.2253 0.0925945 0)
(-1.32481 0.0832604 0)
(-1.41597 0.0752745 0)
(-1.49951 0.0686785 0)
(-1.57611 0.0614675 0)
(-1.64615 0.0547907 -9.6477e-20)
(-1.7106 0.0501391 0)
(-1.77018 0.0458946 0)
(-1.82553 0.0421522 8.91021e-20)
(-1.87711 0.0389205 8.71701e-20)
(-1.92544 0.0361142 0)
(-1.97092 0.0336724 -8.37933e-20)
(-2.0139 0.0315407 8.22892e-20)
(-2.05466 0.0296693 0)
(-2.09346 0.0280149 -7.95467e-20)
(-2.13049 0.0265436 0)
(-2.16592 0.0252242 0)
(-2.1999 0.0240324 7.59009e-20)
(-2.23255 0.0229477 0)
(-2.26396 0.0219527 -7.36877e-20)
(-2.29422 0.0210319 0)
(-2.32341 0.0201723 7.16049e-20)
(-2.35157 0.0193622 7.06046e-20)
(-2.37876 0.018592 6.96296e-20)
(-2.40501 0.0178509 1.37354e-19)
(-2.43035 0.0171306 -1.35492e-19)
(-2.45479 0.0164218 0)
(-2.47834 0.0157185 0)
(-2.50099 0.0150119 0)
(-2.52273 0.0143025 -1.28397e-19)
(-2.54352 0.013578 -1.26697e-19)
(-2.56334 0.0128362 1.25022e-19)
(-2.58216 0.0120682 0)
(-2.59995 0.0112655 -1.21733e-19)
(-2.61666 0.0104202 -1.20112e-19)
(-2.63223 0.00952116 -1.185e-19)
(-2.64661 0.00855771 0)
(-2.65971 0.00752249 0)
(-2.67147 0.00641273 0)
(-2.68179 0.00523522 -1.12033e-19)
(-2.69059 0.00400649 0)
(-2.69776 0.00276583 0)
(-2.7032 0.00157616 1.0705e-19)
(-2.70681 0.000516707 0)
(-2.70863 -0.000367025 0)
(-2.70911 -0.00114755 1.01703e-19)
(-2.70819 -0.00190696 0)
(-2.70589 -0.0026485 0)
(-2.70221 -0.00337795 -9.58307e-20)
(-2.69714 -0.00409168 -9.37518e-20)
(-2.69068 -0.00478981 0)
(-2.68283 -0.00546847 8.94064e-20)
(-2.67358 -0.00612862 0)
(-2.66295 -0.00676678 -8.48116e-20)
(-2.65094 -0.00738539 0)
(-2.63756 -0.00798156 -7.9973e-20)
(-2.62283 -0.00855878 -7.74647e-20)
(-2.60674 -0.0091156 0)
(-2.58933 -0.00965654 0)
(-2.57058 -0.0101816 0)
(-2.55051 -0.0106949 0)
(-2.52912 -0.011197 0)
(-2.50643 -0.0116918 0)
(-2.48243 -0.0121803 0)
(-2.45713 -0.0126661 -5.53505e-20)
(-2.43052 -0.0131521 5.23283e-20)
(-2.40262 -0.0136413 0)
(-2.37341 -0.0141382 0)
(-2.3429 -0.0146451 0)
(-2.31107 -0.0151674 0)
(-2.27793 -0.0156976 7.23446e-20)
(-2.24347 -0.0162407 0)
(-2.2077 -0.0167876 -5.82126e-20)
(-2.17061 -0.0173105 5.08245e-20)
(-2.13225 -0.0177723 0)
(-2.09264 -0.0181047 0)
(-2.05184 -0.0182257 0)
(-2.0099 -0.0181584 -1.85961e-20)
(-1.9668 -0.0184287 -9.75534e-21)
(-1.92242 -0.0190604 0)
(-1.87681 -0.0196574 9.12812e-21)
(-1.83006 -0.0202505 1.92431e-20)
(-1.78219 -0.0208454 -2.98452e-20)
(-1.73329 -0.0214302 0)
(-1.68338 -0.0220031 0)
(-1.63254 -0.0225637 -6.49585e-20)
(-1.58082 -0.0231102 0)
(-1.52831 -0.0236203 0)
(-1.47505 -0.0241079 0)
(-1.42117 -0.0245554 0)
(-1.36671 -0.0249607 1.36498e-19)
(-1.31176 -0.0253295 1.53044e-19)
(-1.25643 -0.0256421 0)
(-1.20079 -0.0259031 1.88705e-19)
(-1.14495 -0.0261077 0)
(-1.08898 -0.0262582 0)
(-1.03299 -0.026348 2.49039e-19)
(-0.977076 -0.0263807 0)
(-0.921302 -0.0263603 2.94292e-19)
(-0.865753 -0.0262872 0)
(-0.810496 -0.0261629 0)
(-0.755587 -0.0259929 3.7061e-19)
(-0.701075 -0.0257817 0)
(-0.646991 -0.025538 4.27823e-19)
(-0.593361 -0.025265 0)
(-0.540199 -0.0249697 0)
(-0.487513 -0.0246562 0)
(-0.435306 -0.0243329 -5.60821e-19)
(-0.383573 -0.024002 0)
(-0.332306 -0.0236757 6.39013e-19)
(-0.281492 -0.0233549 0)
(-0.231108 -0.0230487 0)
(-0.181146 -0.022765 0)
(-0.131637 -0.0225061 0)
(-0.0826911 -0.0222115 0)
(-0.0345532 -0.021756 0)
(0.012426 -0.0207461 0)
(0.0545645 -0.0187145 -1.99397e-18)
(0.101715 -0.0161287 0)
(0.111558 -0.00525276 0)
(-0.000292703 0.0197042 3.16301e-18)
(-0.00580082 0.0344309 -3.58948e-18)
(-0.012519 0.0354789 0)
(-0.0132276 0.0261053 2.55372e-18)
(-0.000307014 0.00485656 0)
(0.0272238 -0.0304865 7.7404e-19)
(0.0641008 -0.0697872 -9.79877e-19)
(0.106435 -0.101734 -7.01668e-19)
(0.15026 -0.121103 0)
(0.192204 -0.127666 -4.6047e-19)
(0.23023 -0.124082 -2.01819e-19)
(0.263471 -0.113616 0)
(0.291645 -0.0990083 0)
(0.314801 -0.0822078 0)
(0.333166 -0.0644545 0)
(0.347038 -0.0464574 -1.57823e-19)
(0.356786 -0.0285475 0)
(0.36255 -0.0108917 3.2213e-19)
(0.365333 0.00658892 0)
(0.364925 0.0237659 0)
(0.360958 0.0402632 -3.34947e-19)
(0.35293 0.0555984 0)
(0.340296 0.0690384 3.58091e-19)
(0.322598 0.0796342 -1.87928e-19)
(0.299628 0.086306 2.00456e-19)
(0.271619 0.0880176 -2.17916e-19)
(0.239426 0.0840958 -2.42522e-19)
(0.204617 0.0746446 0)
(0.169381 0.0607061 0)
(0.136415 0.044014 3.92201e-19)
(0.108687 0.026216 -4.76433e-19)
(0.0892812 0.00836275 0)
(0.0797706 -0.00945913 0)
(0.0814251 -0.0266828 6.0616e-19)
(0.0927785 -0.0440565 0)
(0.111283 -0.0607734 0)
(0.131985 -0.0715281 -3.43439e-19)
(0.149528 -0.0710505 0)
(0.160384 -0.0596746 2.7015e-19)
(0.163458 -0.0416947 -5.35706e-19)
(0.158792 -0.0223338 0)
(0.147824 -0.00718269 0)
(0.131483 0.00201943 -1.33461e-18)
(0.107573 0.00671684 -1.47949e-18)
(0.0686176 0.0115222 -1.73275e-18)
(0.0031933 0.027298 8.82409e-19)
(-0.0968363 0.0633234 -6.01284e-19)
(-0.218408 0.106605 -1.14511e-18)
(-0.350216 0.150174 5.33851e-19)
(-0.486957 0.190523 2.01173e-19)
(-0.628396 0.223206 0)
(-0.769132 0.246825 -1.34606e-19)
(-0.907144 0.261892 1.1729e-19)
(-1.03964 0.268991 0)
(-1.16406 0.268546 0)
(-1.27887 0.261158 0)
(-1.38247 0.24853 -8.26211e-20)
(-1.47415 0.232894 0)
(-1.55492 0.2157 1.50302e-19)
(-1.62619 0.197677 0)
(-1.68937 0.179835 1.40629e-19)
(-1.74568 0.163 0)
(-1.79639 0.14766 -1.33212e-19)
(-1.84246 0.133959 0)
(-1.88507 0.121762 1.27823e-19)
(-1.92444 0.111077 -6.27399e-20)
(-1.96127 0.101866 0)
(-1.99598 0.0938542 -1.20902e-19)
(-2.02884 0.0868995 -5.94442e-20)
(-2.06016 0.0808468 -5.8521e-20)
(-2.09008 0.0755537 0)
(-2.11877 0.0708971 -5.67553e-20)
(-2.14633 0.0667694 -5.59739e-20)
(-2.17283 0.0630827 0)
(-2.19835 0.0597627 5.44077e-20)
(-2.22295 0.0567501 -1.07229e-19)
(-2.24667 0.0539947 0)
(-2.26956 0.0514567 -5.21879e-20)
(-2.29164 0.0491032 0)
(-2.31295 0.0469071 1.52222e-19)
(-2.3335 0.0448438 0)
(-2.35332 0.0428928 -1.48103e-19)
(-2.3724 0.0410351 -4.87332e-20)
(-2.39077 0.0392545 4.79614e-20)
(-2.40842 0.0375338 9.46184e-20)
(-2.42534 0.0358587 -9.33342e-20)
(-2.44152 0.034213 0)
(-2.45696 0.032584 0)
(-2.47163 0.0309589 0)
(-2.4855 0.0293293 2.65523e-19)
(-2.49853 0.027685 8.7358e-20)
(-2.51071 0.0260187 -8.61517e-20)
(-2.52201 0.0243228 0)
(-2.5324 0.0225958 -8.36279e-20)
(-2.54186 0.0208364 8.25723e-20)
(-2.55035 0.0190439 8.13833e-20)
(-2.55785 0.0172144 0)
(-2.56433 0.0153424 0)
(-2.56976 0.0134202 0)
(-2.57415 0.0114415 7.65466e-20)
(-2.5775 0.0094039 0)
(-2.57986 0.00731899 -1.4814e-19)
(-2.5813 0.00522368 -2.18344e-19)
(-2.58191 0.00318357 1.42917e-19)
(-2.58168 0.0012537 0)
(-2.58017 -0.000597245 6.87303e-20)
(-2.57736 -0.00242152 0)
(-2.57322 -0.00422354 1.31412e-19)
(-2.56772 -0.00600645 -6.42854e-20)
(-2.56086 -0.00776524 -6.27257e-20)
(-2.55262 -0.00949819 0)
(-2.54302 -0.0111996 -1.77892e-19)
(-2.53205 -0.0128687 1.1532e-19)
(-2.51971 -0.0145001 5.57764e-20)
(-2.50602 -0.0160942 0)
(-2.49098 -0.0176466 5.22148e-20)
(-2.47461 -0.0191593 1.51527e-19)
(-2.45691 -0.0206305 0)
(-2.43789 -0.0220639 9.36767e-20)
(-2.41757 -0.0234595 8.98618e-20)
(-2.39594 -0.0248208 8.59954e-20)
(-2.37302 -0.0261474 0)
(-2.34882 -0.0274431 0)
(-2.32333 -0.028708 0)
(-2.29655 -0.0299455 -3.52566e-20)
(-2.2685 -0.0311563 -3.27567e-20)
(-2.23917 -0.0323414 0)
(-2.20855 -0.0335021 -5.76495e-20)
(-2.17665 -0.034637 -5.34136e-20)
(-2.14346 -0.0357498 0)
(-2.10898 -0.0368414 -4.42433e-20)
(-2.07321 -0.0379142 -8.06968e-20)
(-2.03615 -0.0389633 3.52918e-20)
(-1.99782 -0.0399896 3.18663e-20)
(-1.95818 -0.0410013 0)
(-1.91727 -0.0420086 0)
(-1.87506 -0.0430164 0)
(-1.83155 -0.0440163 1.128e-20)
(-1.78676 -0.0449822 -7.50781e-21)
(-1.74079 -0.0458639 -3.0742e-21)
(-1.69369 -0.0466717 -4.64779e-21)
(-1.64547 -0.0474052 8.69957e-21)
(-1.59616 -0.0480733 1.60762e-20)
(-1.54583 -0.0486815 0)
(-1.49453 -0.0492135 0)
(-1.44234 -0.0496717 -3.27686e-20)
(-1.3893 -0.0500634 0)
(-1.33553 -0.0503736 0)
(-1.28106 -0.0506025 1.07864e-19)
(-1.22601 -0.0507626 0)
(-1.17045 -0.0508248 6.74025e-20)
(-1.11447 -0.0508158 -7.71275e-20)
(-1.05818 -0.0507221 0)
(-1.00165 -0.0505452 9.06218e-20)
(-0.944996 -0.0502827 0)
(-0.888294 -0.0499452 0)
(-0.831648 -0.0495309 -1.17785e-19)
(-0.775139 -0.0490468 2.5045e-19)
(-0.718851 -0.0484969 -1.35094e-19)
(-0.662862 -0.047895 0)
(-0.607235 -0.0472452 0)
(-0.552027 -0.0465622 1.59531e-19)
(-0.497279 -0.0458521 0)
(-0.443021 -0.0451304 1.77658e-19)
(-0.38927 -0.0444038 0)
(-0.336031 -0.0436802 0)
(-0.283301 -0.0429665 0)
(-0.231069 -0.0422695 2.15896e-19)
(-0.179315 -0.0415932 0)
(-0.128014 -0.0409425 -2.33683e-19)
(-0.0771337 -0.0403224 0)
(-0.0266271 -0.0397261 0)
(0.0234762 -0.0391267 5.12808e-19)
(0.0731187 -0.0384769 -5.16237e-19)
(0.122323 -0.0377172 0)
(0.171006 -0.0367136 0)
(0.219267 -0.0351767 0)
(0.265116 -0.0327791 1.55353e-18)
(0.314112 -0.0291417 0)
(0.34323 -0.01827 -1.06204e-18)
(0.00027497 0.0226453 3.23683e-22)
(0.000652571 0.0386624 5.00966e-18)
(0.00581009 0.0317409 0)
(0.0243617 0.000667225 -3.49789e-18)
(0.0612919 -0.0554908 0)
(0.1096 -0.11835 0)
(0.159325 -0.16836 -2.93571e-22)
(0.203815 -0.196855 4.05696e-19)
(0.24059 -0.204731 3.48669e-19)
(0.269721 -0.197166 3.11469e-19)
(0.292383 -0.179827 0)
(0.309958 -0.157215 0)
(0.323576 -0.13231 -2.58884e-19)
(0.334015 -0.106859 -5.03233e-19)
(0.341792 -0.0817906 4.95725e-19)
(0.347245 -0.0575346 0)
(0.350626 -0.0342539 4.97908e-19)
(0.352099 -0.0120151 -2.53008e-19)
(0.351926 0.00922282 0)
(0.350402 0.029629 5.17433e-19)
(0.347776 0.0493254 2.63556e-19)
(0.344186 0.068248 -5.44654e-19)
(0.339544 0.0860515 -2.83303e-19)
(0.333439 0.102053 0)
(0.325186 0.115224 6.26826e-19)
(0.313935 0.124253 6.64709e-19)
(0.298905 0.127754 0)
(0.279766 0.124593 7.69717e-19)
(0.257028 0.114264 0)
(0.232231 0.0970726 9.46862e-19)
(0.207905 0.0741142 5.38284e-19)
(0.186956 0.0468514 0)
(0.172055 0.0168359 0)
(0.163777 -0.0149065 0)
(0.161457 -0.0470184 0)
(0.159921 -0.0717961 0)
(0.153081 -0.0793329 0)
(0.138071 -0.0680008 8.4405e-19)
(0.116012 -0.0442451 -1.25536e-18)
(0.0870952 -0.0148784 0)
(0.0507714 0.0165137 0)
(0.00292766 0.0456183 0)
(-0.068233 0.0746179 5.35412e-22)
(-0.162252 0.114395 7.2806e-19)
(-0.27575 0.163932 1.06728e-18)
(-0.404767 0.217878 -8.15535e-19)
(-0.542037 0.272074 -3.24949e-19)
(-0.680262 0.321281 2.67962e-19)
(-0.814417 0.362069 7.12186e-22)
(-0.940575 0.393583 2.01635e-19)
(-1.05538 0.414217 0)
(-1.1578 0.423564 1.64448e-19)
(-1.24767 0.422676 1.2328e-21)
(-1.32493 0.412906 0)
(-1.39065 0.395708 0)
(-1.44676 0.372741 -1.27416e-19)
(-1.49552 0.346119 0)
(-1.53885 0.318143 0)
(-1.57817 0.290492 1.13424e-19)
(-1.61471 0.264027 2.1799e-19)
(-1.64941 0.239355 -1.05245e-19)
(-1.6829 0.216978 0)
(-1.71547 0.19713 1.00008e-19)
(-1.74718 0.179747 0)
(-1.77811 0.164577 9.60191e-20)
(-1.80835 0.151357 9.37173e-20)
(-1.83782 0.139932 -1.83965e-19)
(-1.8665 0.130014 -9.029e-20)
(-1.89436 0.121336 0)
(-1.92142 0.113704 1.74111e-19)
(-1.94766 0.106942 0)
(-1.9731 0.100903 2.52473e-19)
(-1.99775 0.0954682 1.65546e-19)
(-2.02163 0.0905379 1.62883e-19)
(-2.04473 0.0860312 -1.60292e-19)
(-2.0671 0.0818825 2.36707e-19)
(-2.08873 0.0780371 0)
(-2.10966 0.0744511 0)
(-2.12989 0.0710871 -1.50493e-19)
(-2.14946 0.0679137 -2.22314e-19)
(-2.16836 0.0649023 0)
(-2.18662 0.062028 7.18874e-20)
(-2.20425 0.0592671 0)
(-2.22124 0.0565982 -2.08901e-19)
(-2.23759 0.0539998 -1.81939e-22)
(-2.25331 0.0514527 1.83326e-22)
(-2.26838 0.048937 1.32878e-19)
(-2.2828 0.0464355 0)
(-2.29653 0.0439319 -1.2882e-19)
(-2.30956 0.0414127 -1.65445e-22)
(-2.32185 0.0388639 0)
(-2.33338 0.0362748 0)
(-2.34413 0.0336366 0)
(-2.35406 0.0309456 1.19227e-19)
(-2.36315 0.0282009 0)
(-2.37136 0.0254046 0)
(-2.37865 0.0225601 0)
(-2.38499 0.0196727 0)
(-2.39037 0.0167496 0)
(-2.39475 0.0138016 1.07794e-19)
(-2.39811 0.0108443 0)
(-2.40044 0.00789533 1.03885e-19)
(-2.4017 0.00496803 1.01858e-19)
(-2.40183 0.00205651 -9.97351e-20)
(-2.40077 -0.000865014 0)
(-2.39846 -0.00379854 -9.53759e-20)
(-2.39488 -0.00672102 0)
(-2.39 -0.00962124 -9.08399e-20)
(-2.38382 -0.0124905 8.85035e-20)
(-2.37631 -0.0153212 2.58758e-19)
(-2.36748 -0.0181061 0)
(-2.35731 -0.0208397 2.44122e-19)
(-2.34583 -0.0235166 7.91869e-20)
(-2.33302 -0.0261327 0)
(-2.3189 -0.0286845 1.47657e-19)
(-2.30347 -0.03117 1.42426e-19)
(-2.28675 -0.0335886 -2.05416e-19)
(-2.26875 -0.0359415 0)
(-2.24946 -0.0382309 -6.28883e-20)
(-2.22891 -0.0404598 -6.01507e-20)
(-2.2071 -0.0426315 -1.72781e-19)
(-2.18402 -0.0447488 0)
(-2.1597 -0.0468158 0)
(-2.13412 -0.0488353 0)
(-2.1073 -0.0508116 -4.68345e-20)
(-2.07923 -0.052747 0)
(-2.0499 -0.0546445 0)
(-2.01931 -0.0565051 3.76129e-20)
(-1.98746 -0.0583288 3.47275e-20)
(-1.95435 -0.0601158 0)
(-1.91996 -0.0618689 0)
(-1.88429 -0.063586 5.18939e-20)
(-1.84736 -0.0652629 0)
(-1.80915 -0.0668898 -3.9923e-20)
(-1.76966 -0.0684662 -3.47041e-20)
(-1.7289 -0.0699927 0)
(-1.68688 -0.0714667 0)
(-1.64359 -0.0728894 1.59863e-20)
(-1.59909 -0.0742726 -1.02513e-21)
(-1.55343 -0.0755927 -1.06452e-21)
(-1.50666 -0.0768163 0)
(-1.45877 -0.0779352 -2.22373e-20)
(-1.40984 -0.0789415 0)
(-1.35991 -0.0798437 0)
(-1.30904 -0.0806237 0)
(-1.2573 -0.0812793 4.07019e-20)
(-1.20478 -0.0818088 0)
(-1.15155 -0.0822086 -1.09532e-19)
(-1.09768 -0.0824666 -6.41171e-20)
(-1.04328 -0.0825985 0)
(-0.988425 -0.0825824 -8.04907e-20)
(-0.933214 -0.0824302 0)
(-0.87774 -0.08214 0)
(-0.822096 -0.0817107 -3.1479e-19)
(-0.766377 -0.0811434 2.26185e-19)
(-0.710676 -0.0804468 0)
(-0.655081 -0.0796262 2.6125e-19)
(-0.599673 -0.0786923 -1.40998e-19)
(-0.544532 -0.0776532 0)
(-0.489727 -0.0765266 0)
(-0.435319 -0.0753245 0)
(-0.381353 -0.0740668 -5.25243e-19)
(-0.327866 -0.0727674 0)
(-0.274879 -0.0714473 -1.93137e-19)
(-0.222401 -0.070122 0)
(-0.170422 -0.0688018 0)
(-0.118931 -0.0674969 0)
(-0.0679044 -0.0662171 0)
(-0.017303 -0.0649745 0)
(0.032908 -0.0637761 0)
(0.0827605 -0.0626317 -4.82335e-19)
(0.132329 -0.0615235 0)
(0.181682 -0.0604246 -2.47824e-19)
(0.230874 -0.0592923 7.48583e-19)
(0.279947 -0.0580694 0)
(0.32884 -0.0565945 0)
(0.377703 -0.0546108 -5.10495e-19)
(0.425154 -0.0517082 -5.16189e-19)
(0.475514 -0.0473096 5.205e-19)
(0.514187 -0.0363037 5.32103e-19)
(-0.00105519 0.0227182 -6.335e-18)
(0.00179503 0.0260467 -7.93036e-18)
(0.0216927 -0.0117609 -3.50088e-18)
(0.0662313 -0.0891117 -9.44594e-19)
(0.123489 -0.172891 0)
(0.177852 -0.23451 8.72009e-19)
(0.220407 -0.26469 -3.53835e-19)
(0.249953 -0.268067 0)
(0.269189 -0.253862 -2.73425e-19)
(0.281555 -0.230146 0)
(0.28975 -0.202149 4.74603e-19)
(0.295457 -0.172748 0)
(0.299568 -0.143375 2.18666e-19)
(0.302491 -0.114684 4.28776e-19)
(0.304373 -0.0869689 -4.25277e-19)
(0.305252 -0.0603604 0)
(0.305141 -0.0349173 -4.32051e-19)
(0.304058 -0.0106767 0)
(0.302061 0.012372 0)
(0.299246 0.0342701 -4.50465e-19)
(0.295756 0.0550574 0)
(0.291811 0.0747526 -5.62511e-22)
(0.287616 0.0932686 0)
(0.283269 0.110311 0)
(0.278682 0.125314 3.98799e-22)
(0.273515 0.137366 -5.81365e-19)
(0.267168 0.145179 -6.24192e-19)
(0.258884 0.147189 -6.72655e-19)
(0.248058 0.141892 0)
(0.234555 0.128155 -1.60361e-18)
(0.218993 0.105685 0)
(0.202674 0.0752913 -1.01305e-18)
(0.187006 0.0389878 0)
(0.172455 -2.61861e-05 0)
(0.153514 -0.0334039 1.08947e-18)
(0.125199 -0.0473722 0)
(0.0869118 -0.0383248 -8.64132e-19)
(0.0395018 -0.0119553 -6.02348e-22)
(-0.0171573 0.0261148 1.65393e-18)
(-0.0876954 0.0722595 -1.39386e-18)
(-0.173981 0.125921 0)
(-0.275324 0.184797 0)
(-0.390664 0.245456 -3.68895e-19)
(-0.51471 0.30702 0)
(-0.641986 0.367591 -2.54459e-19)
(-0.766973 0.422601 2.18766e-19)
(-0.884277 0.467408 1.92412e-19)
(-0.989708 0.500568 0)
(-1.08191 0.521859 -1.56031e-19)
(-1.16016 0.531573 -1.43225e-19)
(-1.22464 0.530502 2.6745e-19)
(-1.27719 0.519949 -1.24009e-19)
(-1.31976 0.501677 -1.16674e-19)
(-1.35463 0.477566 0)