# vtk DataFile Version 2.0
tracks
ASCII
DATASET POLYDATA
POINTS 12025 float
-0.0206 0.000999967 1e-05 -0.02058 0.000999969 1e-05 -0.02056 0.000999974 1e-05 -0.02054 0.00099998
1e-05 -0.02052 0.000999989 1e-05 -0.0205 0.001 1e-05 -0.0202034 0.00100016 1e-05
-0.0199069 0.00100062 1e-05 -0.0196103 0.00100134 1e-05 -0.0193137 0.00100235 1e-05 -0.0190172
0.00100362 1e-05 -0.0187132 0.00100516 1e-05 -0.0184093 0.00100681 1e-05 -0.0181054 0.00100853
1e-05 -0.0178015 0.00101035 1e-05 -0.0174976 0.00101225 1e-05 -0.0172058 0.00101415 1e-05
-0.016914 0.00101606 1e-05 -0.0166222 0.00101799 1e-05 -0.0163305 0.00101993 1e-05 -0.0160387
0.0010219 1e-05 -0.0158944 0.00102288 1e-05 -0.0157502 0.00102387 1e-05 -0.015606 0.00102486
1e-05 -0.0154617 0.00102586 1e-05 -0.0153236 0.00102682 1e-05 -0.0151865 0.00102777 1e-05
-0.0150494 0.00102873 1e-05 -0.0149123 0.0010297 1e-05 -0.0147752 0.00103067 1e-05 -0.0146381
0.00103165 1e-05 -0.0143692 0.00103357 1e-05 -0.0141002 0.0010355 1e-05 -0.0138313 0.00103746
1e-05 -0.0135624 0.00103943 1e-05 -0.0132934 0.00104141 1e-05 -0.0130353 0.00104333 1e-05
-0.0127771 0.00104525 1e-05 -0.0125189 0.00104718 1e-05 -0.0122607 0.00104911 1e-05 -0.0120025
0.00105104 1e-05 -0.0117547 0.0010529 1e-05 -0.0115068 0.00105475 1e-05 -0.0112589 0.00105659
1e-05 -0.0110111 0.00105842 1e-05 -0.0107632 0.00106025 1e-05 -0.0105252 0.001062 1e-05
-0.0102873 0.00106372 1e-05 -0.0100493 0.00106544 1e-05 -0.00981133 0.00106714 1e-05 -0.00957337
0.00106882 1e-05 -0.00934491 0.00107043 1e-05 -0.00911645 0.00107201 1e-05 -0.00888799 0.00107357
1e-05 -0.00865954 0.00107512 1e-05 -0.00843108 0.00107664 1e-05 -0.00821175 0.0010781 1e-05
-0.00799242 0.00107953 1e-05 -0.00777309 0.00108094 1e-05 -0.00755376 0.00108233 1e-05 -0.00733443
0.0010837 1e-05 -0.00712387 0.00108502 1e-05 -0.0069133 0.00108631 1e-05 -0.00670273 0.00108759
1e-05 -0.00649216 0.00108886 1e-05 -0.0062816 0.00109012 1e-05 -0.00607944 0.00109134 1e-05
-0.00587729 0.00109253 1e-05 -0.00567514 0.00109371 1e-05 -0.00547298 0.00109489 1e-05 -0.00527083
0.00109605 1e-05 -0.00507675 0.00109718 1e-05 -0.00488267 0.00109829 1e-05 -0.0046886 0.00109938
1e-05 -0.00449452 0.00110047 1e-05 -0.00430044 0.00110154 1e-05 -0.00411412 0.00110258 1e-05
-0.0039278 0.00110359 1e-05 -0.00374147 0.00110459 1e-05 -0.00355515 0.00110557 1e-05 -0.00336883
0.00110654 1e-05 -0.00318995 0.00110748 1e-05 -0.00301107 0.00110839 1e-05 -0.00283219 0.00110928
1e-05 -0.00265331 0.00111016 1e-05 -0.00247443 0.00111103 1e-05 -0.0023027 0.00111186 1e-05
-0.00213097 0.00111266 1e-05 -0.00195924 0.00111345 1e-05 -0.0017875 0.00111422 1e-05 -0.00161577
0.00111498 1e-05 -0.0014509 0.0011157 1e-05 -0.00128603 0.0011164 1e-05 -0.00112116 0.00111708
1e-05 -0.000956289 0.00111775 1e-05 -0.000791418 0.00111839 1e-05 -0.000633135 0.001119 1e-05
-0.000474851 0.00111958 1e-05 -0.000316567 0.00112015 1e-05 -0.000158283 0.0011207 1e-05 0
0.00112123 1e-05 0.000105677 0.00112158 1e-05 0.000211355 0.00112192 1e-05 0.000317032 0.00112225
1e-05 0.00042271 0.00112257 1e-05 0.000528387 0.00112289 1e-05 0.000634886 0.0011232 1e-05
0.000741385 0.0011235 1e-05 0.000847885 0.0011238 1e-05 0.000954384 0.00112409 1e-05 0.00106088
0.00112437 1e-05 0.00116821 0.00112466 1e-05 0.00127554 0.00112493 1e-05 0.00138286 0.00112519
1e-05 0.00149019 0.00112544 1e-05 0.00159752 0.00112569 1e-05 0.00170568 0.00112593 1e-05
0.00181384 0.00112616 1e-05 0.001922 0.00112638 1e-05 0.00203016 0.00112659 1e-05 0.00213833
0.0011268 1e-05 0.00224733 0.001127 1e-05 0.00235633 0.0011272 1e-05 0.00246533 0.00112738
1e-05 0.00257434 0.00112757 1e-05 0.00268334 0.00112774 1e-05 0.00279319 0.00112792 1e-05
0.00290304 0.00112809 1e-05 0.00301289 0.00112827 1e-05 0.00312274 0.00112844 1e-05 0.00323259
0.0011286 1e-05 0.00334329 0.00112877 1e-05 0.003454 0.00112894 1e-05 0.0035647 0.00112911
1e-05 0.0036754 0.00112928 1e-05 0.00378611 0.00112945 1e-05 0.00389767 0.00112962 1e-05
0.00400924 0.0011298 1e-05 0.0041208 0.00112997 1e-05 0.00423237 0.00113015 1e-05 0.00434393
0.00113033 1e-05 0.00445636 0.00113051 1e-05 0.00456879 0.00113069 1e-05 0.00468123 0.00113087
1e-05 0.00479366 0.00113105 1e-05 0.00490609 0.00113123 1e-05 0.0050194 0.00113141 1e-05
0.0051327 0.00113159 1e-05 0.00524601 0.00113177 1e-05 0.00535931 0.00113195 1e-05 0.00547262
0.00113212 1e-05 0.00558681 0.0011323 1e-05 0.005701 0.00113247 1e-05 0.00581518 0.00113264
1e-05 0.00592937 0.00113281 1e-05 0.00604356 0.00113297 1e-05 0.00615863 0.00113313 1e-05
0.00627371 0.00113329 1e-05 0.00638878 0.00113344 1e-05 0.00650386 0.00113358 1e-05 0.00661893
0.00113372 1e-05 0.0067349 0.00113386 1e-05 0.00685087 0.00113399 1e-05 0.00696684 0.00113411
1e-05 0.00708281 0.00113423 1e-05 0.00719878 0.00113434 1e-05 0.00731565 0.00113445 1e-05
0.00743252 0.00113454 1e-05 0.00754939 0.00113463 1e-05 0.00766626 0.00113472 1e-05 0.00778313
0.00113479 1e-05 0.00790091 0.00113486 1e-05 0.00801869 0.00113492 1e-05 0.00813647 0.00113497
1e-05 0.00825425 0.00113502 1e-05 0.00837203 0.00113506 1e-05 0.00849073 0.00113508 1e-05
0.00860942 0.0011351 1e-05 0.00872812 0.00113511 1e-05 0.00884682 0.00113511 1e-05 0.00896551
0.00113511 1e-05 0.00906183 0.00113509 1e-05 0.00915814 0.00113507 1e-05 0.00925446 0.00113505
1e-05 0.00935078 0.00113502 1e-05 0.00944204 0.00113498 1e-05 0.00946635 0.00113497 1e-05
0.00949066 0.00113496 1e-05 0.00951498 0.00113495 1e-05 0.00953929 0.00113493 1e-05 0.0095636
0.00113492 1e-05 0.00968415 0.00113485 1e-05 0.0098047 0.00113478 1e-05 0.00992525 0.00113469
1e-05 0.0100458 0.00113459 1e-05 0.0101663 0.00113448 1e-05 0.0102878 0.00113435 1e-05
0.0104093 0.00113422 1e-05 0.0105308 0.00113407 1e-05 0.0106523 0.00113392 1e-05 0.0107738
0.00113374 1e-05 0.0108962 0.00113355 1e-05 0.0110186 0.00113335 1e-05 0.0111411 0.00113313
1e-05 0.0112635 0.0011329 1e-05 0.0113859 0.00113266 1e-05 0.0115093 0.00113239 1e-05
0.0116327 0.00113211 1e-05 0.0117561 0.00113182 1e-05 0.0118795 0.00113151 1e-05 0.0120028
0.00113119 1e-05 0.0121272 0.00113083 1e-05 0.0122515 0.00113046 1e-05 0.0123759 0.00113008
1e-05 0.0125002 0.00112968 1e-05 0.0126245 0.00112927 1e-05 0.0127498 0.00112881 1e-05
0.0128752 0.00112835 1e-05 0.0130005 0.00112787 1e-05 0.0131258 0.00112737 1e-05 0.0132511
0.00112685 1e-05 0.0133774 0.00112629 1e-05 0.0135036 0.00112572 1e-05 0.0136299 0.00112514
1e-05 0.0137562 0.00112453 1e-05 0.0138825 0.00112391 1e-05 0.0140098 0.00112324 1e-05
0.014137 0.00112256 1e-05 0.0142643 0.00112187 1e-05 0.0143915 0.00112115 1e-05 0.0145188
0.00112042 1e-05 0.0146471 0.00111964 1e-05 0.0147753 0.00111885 1e-05 0.0149036 0.00111805
1e-05 0.0150318 0.00111723 1e-05 0.0151601 0.00111639 1e-05 0.0152893 0.00111551 1e-05
0.0154186 0.00111462 1e-05 0.0155478 0.00111372 1e-05 0.0156771 0.0011128 1e-05 0.0158063
0.00111186 1e-05 0.0159366 0.00111089 1e-05 0.0160668 0.00110991 1e-05 0.0161971 0.00110891
1e-05 0.0163273 0.0011079 1e-05 0.0164576 0.00110688 1e-05 0.0165889 0.00110583 1e-05
0.0167201 0.00110477 1e-05 0.0168514 0.0011037 1e-05 0.0169827 0.00110263 1e-05 0.0171139
0.00110154 1e-05 0.0172462 0.00110043 1e-05 0.0173785 0.00109932 1e-05 0.0175108 0.00109819
1e-05 0.0176431 0.00109706 1e-05 0.0177754 0.00109593 1e-05 0.0179087 0.00109479 1e-05
0.018042 0.00109364 1e-05 0.0181753 0.00109248 1e-05 0.0183087 0.00109133 1e-05 0.018442
0.00109017 1e-05 0.0185763 0.00108902 1e-05 0.0187107 0.00108786 1e-05 0.018845 0.00108669
1e-05 0.0189794 0.00108553 1e-05 0.0191137 0.00108438 1e-05 0.0192491 0.00108324 1e-05
0.0193845 0.00108209 1e-05 0.0195199 0.00108094 1e-05 0.0196553 0.00107979 1e-05 0.0197907
0.00107867 1e-05 0.0199272 0.00107756 1e-05 0.0200636 0.00107645 1e-05 0.0202001 0.00107533
1e-05 0.0203365 0.00107422 1e-05 0.020473 0.00107315 1e-05 0.0206105 0.0010721 1e-05
0.020748 0.00107104 1e-05 0.0208855 0.00106998 1e-05 0.021023 0.00106893 1e-05 0.0211606
0.00106792 1e-05 0.0212991 0.00106695 1e-05 0.0214377 0.00106596 1e-05 0.0215763 0.00106497
1e-05 0.0217149 0.001064 1e-05 0.0218535 0.00106307 1e-05 0.0219931 0.00106218 1e-05
0.0221328 0.00106128 1e-05 0.0222724 0.00106037 1e-05 0.0224121 0.00105947 1e-05 0.0225517
0.00105863 1e-05 0.0226925 0.00105783 1e-05 0.0228332 0.00105702 1e-05 0.022974 0.00105619
1e-05 0.0231147 0.00105538 1e-05 0.0232555 0.00105462 1e-05 0.0233973 0.00105391 1e-05
0.0235391 0.00105319 1e-05 0.023681 0.00105244 1e-05 0.0238228 0.00105171 1e-05 0.0239647
0.00105104 1e-05 0.0241076 0.00105041 1e-05 0.0242505 0.00104976 1e-05 0.0243935 0.00104908
1e-05 0.0245364 0.00104843 1e-05 0.0246794 0.00104782 1e-05 0.0248234 0.00104726 1e-05
0.0249675 0.00104667 1e-05 0.0251115 0.00104606 1e-05 0.0252556 0.00104545 1e-05 0.0253996
0.0010449 1e-05 0.0255448 0.00104438 1e-05 0.02569 0.00104384 1e-05 0.0258351 0.00104325
1e-05 0.0259803 0.00104268 1e-05 0.0261255 0.00104215 1e-05 0.0262718 0.00104166 1e-05
0.0264181 0.00104113 1e-05 0.0265644 0.00104056 1e-05 0.0267107 0.00103999 1e-05 0.026857
0.00103946 1e-05 0.0270044 0.00103896 1e-05 0.0271519 0.00103841 1e-05 0.0272993 0.00103782
1e-05 0.0274468 0.00103723 1e-05 0.0275942 0.00103666 1e-05 0.0277428 0.00103612 1e-05
0.0278914 0.00103553 1e-05 0.0280399 0.00103489 1e-05 0.0281885 0.00103424 1e-05 0.0283371
0.0010336 1e-05 0.0284869 0.00103298 1e-05 0.0286366 0.00103231 1e-05 0.0287863 0.00103158
1e-05 0.0289361 0.00103084 1e-05 0.0290858 0.0010301 1e-05 0.0292367 0.00102937 1e-05
0.0293876 0.00102858 1e-05 0.0295385 0.00102774 1e-05 0.0296894 0.00102687 1e-05 0.0298403
0.001026 1e-05 0.0299924 0.00102513 1e-05 0.0301445 0.00102419 1e-05 0.0302966 0.0010232
1e-05 0.0304486 0.00102218 1e-05 0.0306007 0.00102114 1e-05 0.030754 0.0010201 1e-05
0.0309072 0.00101899 1e-05 0.0310605 0.00101783 1e-05 0.0312138 0.00101663 1e-05 0.031367
0.0010154 1e-05 0.0315215 0.00101417 1e-05 0.0316759 0.00101286 1e-05 0.0318304 0.0010115
1e-05 0.0319848 0.00101011 1e-05 0.0321393 0.00100868 1e-05 0.0322949 0.00100723 1e-05
0.0324506 0.00100571 1e-05 0.0326062 0.00100414 1e-05 0.0327619 0.00100253 1e-05 0.0329175
[...]
POINT_DATA 12025
FIELD attributes 4
age 1 12025 float
-9.99918e-06 -7.99924e-06 -5.99935e-06 -3.99951e-06 -1.99973e-06 0 2.96527e-05 5.92894e-05 8.89098e-05 0.000118514 0.000148102
0.000178388 0.000208663 0.000238915 0.000269143 0.000299348 0.000328308 0.000357261 0.000386195 0.000415108 0.000444003
0.000458275 0.000472544 0.00048681 0.000501071 0.000514726 0.000528273 0.000541816 0.000555355 0.00056889 0.000582421
0.000608956 0.000635477 0.000661984 0.000688475 0.000714952 0.000740353 0.000765747 0.000791127 0.000816494 0.000841848
0.000866168 0.000890488 0.000914797 0.000939094 0.000963381 0.000986674 0.00100997 0.00103327 0.00105655 0.00107982
0.00110215 0.00112448 0.00114681 0.00116913 0.00119144 0.00121284 0.00123426 0.00125567 0.00127707 0.00129848
0.001319 0.00133954 0.00136008 0.00138061 0.00140115 0.00142084 0.00144054 0.00146025 0.00147995 0.00149965
0.00151854 0.00153745 0.00155635 0.00157526 0.00159416 0.00161229 0.00163043 0.00164858 0.00166672 0.00168486
0.00170226 0.00171967 0.00173708 0.0017545 0.00177191 0.00178862 0.00180533 0.00182204 0.00183875 0.00185547
0.00187151 0.00188755 0.0019036 0.00191964 0.00193569 0.0019511 0.0019665 0.0019819 0.00199731 0.00201272
0.00202301 0.00203329 0.00204358 0.00205387 0.00206415 0.00207453 0.0020849 0.00209527 0.00210564 0.00211601
0.00212647 0.00213693 0.00214738 0.00215784 0.0021683 0.00217885 0.00218939 0.00219993 0.00221047 0.00222102
0.00223166 0.00224229 0.00225292 0.00226355 0.00227419 0.00228492 0.00229564 0.00230636 0.00231709 0.00232781
0.00233864 0.00234945 0.00236027 0.00237108 0.0023819 0.00239282 0.00240373 0.00241464 0.00242555 0.00243646
0.00244747 0.00245847 0.00246948 0.00248048 0.00249149 0.0025026 0.0025137 0.0025248 0.0025359 0.00254701
0.00255821 0.00256941 0.00258061 0.00259181 0.00260302 0.00261432 0.00262562 0.00263692 0.00264823 0.00265954
0.00267095 0.00268235 0.00269376 0.00270517 0.00271659 0.00272811 0.00273962 0.00275114 0.00276267 0.0027742
0.00278583 0.00279746 0.00280909 0.00282073 0.00283238 0.00284413 0.00285588 0.00286764 0.0028794 0.00289117
0.00290073 0.00291029 0.00291986 0.00292943 0.0029385 0.00294092 0.00294334 0.00294576 0.00294818 0.0029506
0.0029626 0.00297461 0.00298662 0.00299865 0.00301068 0.00302284 0.00303498 0.00304714 0.0030593 0.00307147
0.00308379 0.00309608 0.00310838 0.00312069 0.00313301 0.00314548 0.00315793 0.00317038 0.00318284 0.00319532
0.00320796 0.00322056 0.00323317 0.0032458 0.00325843 0.00327126 0.00328402 0.0032968 0.00330959 0.0033224
0.00333541 0.00334835 0.0033613 0.00337427 0.00338725 0.00340045 0.00341358 0.00342672 0.00343987 0.00345304
0.00346644 0.00347976 0.00349309 0.00350644 0.00351981 0.00353342 0.00354694 0.00356048 0.00357404 0.00358763
0.00360146 0.00361521 0.00362896 0.00364274 0.00365656 0.00367062 0.00368461 0.00369859 0.0037126 0.00372667
0.00374096 0.00375519 0.00376942 0.00378367 0.00379799 0.00381253 0.00382702 0.0038415 0.003856 0.00387058
0.00388537 0.00390013 0.00391487 0.00392964 0.00394449 0.00395954 0.00397457 0.00398959 0.00400463 0.00401975
0.00403507 0.00405038 0.00406568 0.00408101 0.00409641 0.004112 0.00412758 0.00414317 0.00415879 0.00417447
0.00419034 0.00420621 0.00422209 0.004238 0.00425396 0.0042701 0.00428625 0.00430242 0.00431862 0.00433486
0.00435128 0.00436771 0.00438416 0.00440065 0.00441716 0.00443385 0.00445056 0.00446729 0.00448405 0.00450085
0.0045178 0.00453478 0.00455179 0.00456882 0.00458588 0.00460309 0.00462033 0.00463761 0.0046549 0.00467222
0.00468969 0.00470719 0.00472472 0.00474227 0.00475984 0.00477755 0.0047953 0.00481309 0.00483088 0.00484869
0.00486665 0.00488464 0.00490266 0.0049207 0.00493874 0.00495693 0.00497516 0.00499341 0.00501168 0.00502996
0.00504838 0.00506683 0.00508531 0.00510381 0.00512231 0.00514096 0.00515964 0.00517834 0.00519706 0.00521579
0.00523466 0.00525357 0.00527249 0.00529143 0.00531038 0.00532948 0.00534861 0.00536776 0.00538692 0.00540609
0.00542541 0.00544477 0.00546414 0.00548352 0.00550292 0.00552247 0.00554206 0.00556166 0.00558127 0.0056009
0.00562068 0.00564049 0.00566032 0.00568017 0.00570003 0.00572005 0.0057401 0.00576017 0.00578025 0.00580035
0.00582062 0.00584092 0.00586123 0.00588156 0.00590191 0.00592243 0.00594298 0.00596355 0.00598413 0.00600474
0.00602463 0.00604455 0.00606448 0.00608444 0.00610272 0.00610395 0.00610519 0.00610643 0.00610766 0.0061089
0.00612996 0.00615104 0.00617214 0.00619327 0.00621442 0.00623576 0.00625712 0.00627851 0.00629992 0.00632136
0.00634298 0.00636463 0.00638631 0.00640802 0.00642975 0.00645167 0.00647362 0.0064956 0.00651761 0.00653964
0.00656186 0.00658412 0.0066064 0.00662872 0.00665106 0.00667358 0.00669615 0.00671875 0.00674137 0.00676403
0.00678686 0.00680974 0.00683266 0.0068556 0.00687857 0.00690172 0.00692492 0.00694815 0.00697141 0.0069947
0.00701817 0.00704168 0.00706524 0.00708882 0.00711242 0.00713621 0.00716005 0.00718392 0.00720783 0.00723174
0.00725585 0.00728 0.00730419 0.00732841 0.00735264 0.00737706 0.00740153 0.00742603 0.00745056 0.0074751
0.00749983 0.00752461 0.00754942 0.00757426 0.0075991 0.00762414 0.00764922 0.00767433 0.00769947 0.00772461
0.00774995 0.00777533 0.00780074 0.00782617 0.00785161 0.00787724 0.00790291 0.00792861 0.00795433 0.00798005
0.00800597 0.00803192 0.0080579 0.0080839 0.0081099 0.0081361 0.00816233 0.00818859 0.00821486 0.00824113
0.00826761 0.00829412 0.00832065 0.00834718 0.00837373 0.00840048 0.00842725 0.00845405 0.00848085 0.00850766
0.00853467 0.00856172 0.00858878 0.00861584 0.00864292 0.0086702 0.00869751 0.00872483 0.00875216 0.0087795
0.00880705 0.00883462 0.0088622 0.0088898 0.0089174 0.00894522 0.00897306 0.00900092 0.00902878 0.00905665
0.00908474 0.00911286 0.00914098 0.00916912 0.00919726 0.00922564 0.00925403 0.00928244 0.00931085 0.00933928
0.00935496 0.00937065 0.00938634 0.00940204 0.00941652 0.00942976 0.00944301 0.00945626 0.00946951 0.00948276
0.00951172 0.0095407 0.00956969 0.0095987 0.00962773 0.00965699 0.00968628 0.00971558 0.0097449 0.00977425
0.00980383 0.00983343 0.00986306 0.0098927 0.00992238 0.00995228 0.00998222 0.0100122 0.0100422 0.0100722
0.0101024 0.0101327 0.010163 0.0101934 0.0102237 0.0102543 0.0102849 0.0103156 0.0103463 0.010377
0.010408 0.010439 0.0104701 0.0105011 0.0105322 0.0105636 0.010595 0.0106264 0.0106578 0.0106893
0.0107211 0.0107528 0.0107847 0.0108165 0.0108484 0.0108805 0.0109127 0.0109449 0.0109772 0.0110095
0.011042 0.0110746 0.0111073 0.0111399 0.0111726 0.0112056 0.0112386 0.0112717 0.0113048 0.0113379
0.0113713 0.0114048 0.0114383 0.0114718 0.0115054 0.0115392 0.0115731 0.0116071 0.0116411 0.0116751
0.0117001 0.0117252 0.0117503 0.0117755 0.0117996 0.0118091 0.0118185 0.011828 0.0118375 0.011847
0.0118818 0.0119166 0.0119515 0.0119864 0.0120213 0.0120566 0.0120919 0.0121272 0.0121626 0.012198
0.0122338 0.0122696 0.0123054 0.0123413 0.0123772 0.0124135 0.0124498 0.0124861 0.0125225 0.0125589
0.0125957 0.0126325 0.0126694 0.0127063 0.0127433 0.0127805 0.0128179 0.0128553 0.0128927 0.0129302
0.012968 0.0130059 0.0130438 0.0130818 0.0131199 0.0131582 0.0131967 0.0132352 0.0132737 0.0133123
0.0133512 0.0133902 0.0134293 0.0134684 0.0135076 0.0135368 0.013566 0.0135952 0.0136245 0.0136527
0.0136633 0.0136739 0.0136845 0.0136951 0.0137058 0.0137459 0.013786 0.0138262 0.0138665 0.0139068
0.0139475 0.0139883 0.0140291 0.01407 0.0141109 0.0141522 0.0141935 0.014235 0.0142764 0.014318
0.0143599 0.0144019 0.0144439 0.014486 0.0145282 0.0145708 0.0146134 0.0146561 0.0146988 0.0147417
0.0147849 0.0148281 0.0148715 0.0149149 0.0149584 0.0150023 0.0150462 0.0150902 0.0151343 0.0151785
0.015223 0.0152677 0.0153124 0.0153572 0.015402 0.0154094 0.0154168 0.0154242 0.0154315 0.0154389
0.0154768 0.0155148 0.0155529 0.015591 0.0156291 0.0156751 0.0157212 0.0157673 0.0158135 0.0158598
0.0159065 0.0159533 0.0160001 0.016047 0.0160941 0.0161415 0.0161891 0.0162367 0.0162844 0.0163321
0.0163804 0.0164287 0.0164771 0.0165256 0.0165741 0.0166232 0.0166723 0.0167215 0.0167707 0.0168201
0.01687 0.0169199 0.01697 0.0170201 0.0170703 0.017098 0.0171258 0.0171536 0.0171814 0.0172086
0.0172318 0.0172551 0.0172783 0.0173016 0.0173249 0.0173765 0.0174282 0.01748 0.0175319 0.0175839
0.0176364 0.017689 0.0177417 0.0177945 0.0178475 0.0179009 0.0179545 0.0180082 0.0180619 0.0181159
0.0181704 0.0182249 0.0182796 0.0183344 0.0183894 0.0184449 0.0185005 0.0185563 0.0186122 0.0186682
0.0187248 0.0187816 0.0188385 0.0188955 0.0189526 0.018959 0.0189653 0.0189716 0.0189779 0.0189842
0.0190358 0.0190874 0.0191391 0.019191 0.019243 0.019302 0.0193611 0.0194203 0.0194797 0.0195393
0.0195996 0.0196599 0.0197205 0.0197811 0.0198421 0.0199036 0.0199653 0.0200272 0.0200892 0.0201515
0.0202145 0.0202776 0.0203409 0.0204044 0.0204681 0.0205316 0.0205953 0.0206591 0.0207232 0.0207846
0.0207861 0.0207876 0.0207891 0.0207906 0.0207921 0.0208581 0.0209242 0.0209906 0.0210572 0.021124
0.0211916 0.0212593 0.0213273 0.0213955 0.021464 0.0215333 0.0216027 0.0216724 0.0217424 0.0218126
0.0218836 0.0219549 0.0220264 0.0220982 0.0221703 0.0222432 0.0223163 0.0223898 0.0224635 0.0225375
0.0225581 0.0225787 0.0225993 0.02262 0.0226404 0.022695 0.0227498 0.0228047 0.0228598 0.0229151
0.022992 0.0230692 0.0231468 0.0232246 0.0233028 0.0233819 0.0234613 0.023541 0.0236211 0.0237015
0.0237829 0.0238646 0.0239467 0.0240291 0.0241119 0.0241957 0.0242798 0.0243643 0.0244492 0.0245345
0.0245448 0.0245551 0.0245654 0.0245757 0.024586 0.0246623 0.0247388 0.0248156 0.0248927 0.0249701
0.0250591 0.0251484 0.0252382 0.0253283 0.0254189 0.0255107 0.0256028 0.0256954 0.0257884 0.0258819
0.0259765 0.0260716 0.0261671 0.0262631 0.0263597 0.0264176 0.0264757 0.0265339 0.0265924 0.0266496
0.0266903 0.026731 0.0267719 0.0268128 0.0268537 0.0269547 0.0270561 0.0271581 0.0272605 0.0273635
0.0274678 0.0275726 0.027678 0.0277839 0.0278904 0.0279982 0.0281066 0.0282156 0.0283251 0.0284353
0.0285186 0.0286022 0.0286862 0.0287705 0.0288528 0.0288821 0.0289114 0.0289408 0.0289702 0.0289996
0.0291151 0.0292311 0.0293478 0.0294651 0.0295831 0.0297025 0.0298226 0.0299433 0.0300648 0.0301868
0.0303104 0.0304347 0.0305598 0.0306854 0.0308118 0.0308918 0.030972 0.0310525 0.0311333 0.0312127
0.0312619 0.0313112 0.0313606 0.0314101 0.0314597 0.0315922 0.0317254 0.0318593 0.031994 0.0321293
0.0322663 0.0324041 0.0325427 0.032682 0.032822 0.0329637 0.0331062 0.0332495 0.0333935 0.0335383
0.0335798 0.0336214 0.0336631 0.0337049 0.0337464 0.0338523 0.0339585 0.034065 0.034172 0.0342793
0.0344306 0.0345828 0.0347357 0.0348893 0.0350437 0.0351998 0.0353568 0.0355146 0.0356731 0.0358323
0.0359585 0.0360852 0.0362123 0.0363399 0.0364668 0.0365026 0.0365384 0.0365743 0.0366102 0.0366461
0.0368122 0.0369791 0.0371468 0.0373152 0.0374843 0.0376554 0.0378273 0.038 0.0381735 0.0383477
0.0385238 0.0387008 0.0388786 0.0390571 0.0392363 0.0392507 0.0392651 0.0392795 0.0392939 0.0393083
0.0394755 0.0396433 0.0398117 0.0399808 0.0401504 0.0403366 0.0405236 0.0407115 0.0409 0.0410892
0.0412803 0.0414723 0.0416651 0.0418585 0.0420525 0.0421071 0.0421618 0.0422166 0.0422714 0.0423265
0.0424686 0.0426111 0.0427539 0.0428971 0.0430405 0.0432413 0.0434429 0.0436451 0.043848 0.0440512
0.0442565 0.0444626 0.0446693 0.0448765 0.0450841 0.0451772 0.0452705 0.0453639 0.0454574 0.0455522
0.0456692 0.0457863 0.0459036 0.046021 0.0461385 0.0463522 0.0465665 0.0467812 0.0469964 0.0472117
0.047429 0.0476468 0.0478652 0.0480837 0.0483023 0.0484528 0.0486035 0.0487543 0.0489053 0.0490635
0.0491323 0.0492012 0.0492701 0.049339 0.049408 0.0496314 0.0498552 0.0500792 0.0503032 0.0505268
0.050743 0.0509596 0.0511767 0.0513937 0.0516102 0.051701 0.0517918 0.0518826 0.0519733 0.0520667
0.0521999 0.052333 0.0524661 0.052599 0.0527318 0.0529639 0.053196 0.0534279 0.0536595 0.0538901
0.0540394 0.0541886 0.0543376 0.0544864 0.0546447 0.0547321 0.0548195 0.0549067 0.0549939 0.055081
0.0553266 0.0555715 0.0558158 0.0560593 0.0563013 0.0565105 0.056719 0.0569269 0.057134 0.0573664
0.0574018 0.0574372 0.0574726 0.0575079 0.0575432 0.0577978 0.058051 0.058303 0.0585536 0.0588021
0.059059 0.0593144 0.0595682 0.0598203 0.0600702 0.0601182 0.0601662 0.0602141 0.0602619 0.0603116
0.0605197 0.0607265 0.060932 0.0611363 0.061339 0.0615966 0.0618522 0.0621056 0.0623569 0.0626056
0.0627996 0.0629924 0.0631838 0.0633737 0.0636002 0.0636525 0.0637046 0.0637567 0.0638086 0.0638604
0.064114 0.0643651 0.0646136 0.0648596 0.065103 0.0653532 0.0656008 0.0658457 0.066088 0.0663276
0.0665414 0.0667532 0.0669629 0.0671705 0.067433 0.0674524 0.0674719 0.0674913 0.0675107 0.06753
0.0677717 0.0680105 0.0682464 0.0684797 0.0687103 0.0689471 0.069181 0.0694121 0.0696405 0.0698662
0.0700979 0.0703268 0.0705528 0.0707761 0.0709968 0.0712233 0.071447 0.0716679 0.0718861 0.0721017
0.0721288 0.0721558 0.0721828 0.0722097 0.0722378 0.0724302 0.0726205 0.0728088 0.072995 0.0731793
0.0733954 0.0736088 0.0738195 0.0740276 0.0742332 0.0744441 0.0746522 0.0748575 0.0750603 0.075261
0.0754671 0.0756707 0.0758719 0.0760704 0.0762661 0.0764665 0.0766639 0.0768586 0.0770512 0.0772419
0.0774385 0.0776333 0.0778247 0.0780129 0.078198 0.0783136 0.0784279 0.0785415 0.0786546 0.0787244
0.0788033 0.0788818 0.0789599 0.0790375 0.0791147 -9.9999e-06 -7.99991e-06 -5.99992e-06 -3.99994e-06 -1.99997e-06
0 2.96563e-05 5.93111e-05 8.89633e-05 0.000118612 0.000148257 0.000178631 0.000208999 0.000239362 0.000269717
0.000300065 0.000329192 0.000358311 0.000387422 0.000416526 0.000445622 0.000473548 0.000501467 0.000529379 0.000557284
0.000585183 0.000611961 0.000638733 0.000665499 0.00069226 0.000719015 0.000744695 0.00077037 0.00079604 0.000821704
0.000847364 0.000871993 0.000896617 0.000921236 0.000945851 0.000970462 0.000994084 0.0010177 0.00104132 0.00106493
0.00108853 0.00111119 0.00113385 0.0011565 0.00117915 0.0012018 0.00122353 0.00124527 0.001267 0.00128873
0.00131045 0.00133131 0.00135216 0.00137301 0.00139386 0.0014147 0.00143471 0.00145472 0.00147472 0.00149473
0.00151473 0.00153392 0.00155312 0.00157232 0.00159151 0.0016107 0.00162912 0.00164754 0.00166596 0.00168438
0.00170279 0.00172047 0.00173815 0.00175582 0.00177349 0.00179116 0.00180813 0.00182509 0.00184205 0.00185901
0.00187597 0.00189225 0.00190853 0.00192481 0.00194108 0.00195736 0.00197298 0.00198861 0.00200423 0.00201985
0.00203547 0.0020459 0.00205633 0.00206675 0.00207718 0.00208761 0.00209812 0.00210862 0.00211913 0.00212964
0.00214014 0.00215073 0.00216132 0.00217191 0.00218249 0.00219308 0.00220375 0.00221442 0.00222509 0.00223575
0.00224642 0.00225717 0.00226792 0.00227867 0.00228942 0.00230017 0.002311 0.00232184 0.00233267 0.0023435
0.00235433 0.00236525 0.00237616 0.00238708 0.00239799 0.00240891 0.00241991 0.00243091 0.00244191 0.00245291
0.00246391 0.00247499 0.00248607 0.00249716 0.00250824 0.00251932 0.00253049 0.00254166 0.00255283 0.002564
0.00257516 0.00258642 0.00259767 0.00260893 0.00262018 0.00263143 0.00264277 0.00265411 0.00266545 0.00267679
0.00268813 0.00269956 0.00271098 0.00272241 0.00273384 0.00274526 0.00275678 0.00276829 0.00277981 0.00279132
0.00280283 0.00281443 0.00282604 0.00283764 0.00284924 0.00286084 0.00287253 0.00288423 0.00289592 0.00290761
0.0029193 0.00293108 0.00294286 0.00295464 0.00296642 0.0029782 0.00299007 0.00300195 0.00301382 0.00302569
0.00303756 0.00304952 0.00306149 0.00307345 0.00308541 0.00309738 0.00310943 0.00312149 0.00313354 0.0031456
0.00315766 0.00316981 0.00318196 0.0031941 0.00320625 0.0032184 0.00323065 0.00324289 0.00325514 0.00326738
0.00327963 0.00329197 0.00330431 0.00331665 0.00332899 0.00334133 0.00335376 0.0033662 0.00337864 0.00339108
0.00340352 0.00341605 0.00342859 0.00344112 0.00345366 0.0034662 0.00347883 0.00349147 0.00350411 0.00351674
0.00352938 0.00354212 0.00355485 0.00356759 0.00358033 0.00359307 0.00360591 0.00361875 0.00363159 0.00364443
0.00365727 0.00366225 0.00366723 0.00367221 0.00367719 0.00368219 0.00369014 0.0036981 0.00370606 0.00371402
0.00372198 0.00373503 0.00374808 0.00376112 0.00377417 0.00378722 0.00380037 0.00381352 0.00382667 0.00383982
0.00385297 0.00386623 0.00387948 0.00389274 0.00390599 0.00391925 0.00393261 0.00394597 0.00395933 0.00397269
0.00398605 0.00399952 0.00401298 0.00402644 0.00403991 0.00405337 0.00406694 0.00408051 0.00409408 0.00410765
0.00412121 0.00413489 0.00414856 0.00416223 0.0041759 0.00418957 0.00420334 0.00421712 0.00423089 0.00424467
0.00425844 0.00427231 0.00428619 0.00430007 0.00431394 0.00432781 0.00434179 0.00435577 0.00436975 0.00438372
0.0043977 0.00441178 0.00442586 0.00443994 0.00445401 0.00446809 0.00448227 0.00449645 0.00451063 0.0045248
0.00453898 0.00455326 0.00456754 0.00458182 0.0045961 0.00461037 0.00462476 0.00463914 0.00465352 0.0046679
0.00468227 0.00469676 0.00471124 0.00472572 0.0047402 0.00475468 0.00476927 0.00478386 0.00479844 0.00481303
0.00482761 0.0048423 0.00485699 0.00487168 0.00488637 0.00490106 0.00491586 0.00493065 0.00494545 0.00496024
0.00497504 0.00498995 0.00500485 0.00501976 0.00503466 0.00504956 0.00506458 0.0050796 0.00509461 0.00510963
0.00512464 0.00513977 0.0051549 0.00517003 0.00518516 0.00520029 0.00521554 0.00523078 0.00524603 0.00526127
0.00527652 0.00529188 0.00530725 0.00532261 0.00533797 0.00535334 0.00536882 0.00538431 0.00539979 0.00541528
0.00543077 0.00544637 0.00546198 0.00547759 0.0054932 0.00550881 0.00552455 0.00554028 0.00555602 0.00557176
0.0055875 0.00560336 0.00561922 0.00563509 0.00565095 0.00566682 0.00568282 0.00569881 0.00571481 0.0057308
0.0057468 0.00576293 0.00577906 0.00579518 0.00581132 0.00582745 0.00584371 0.00585997 0.00587623 0.0058925
0.00590876 0.00590936 0.00590996 0.00591056 0.00591116 0.00591176 0.00592755 0.00594335 0.00595915 0.00597495
0.00599075 0.00600729 0.00602382 0.00604035 0.00605689 0.00607343 0.0060901 0.00610677 0.00612344 0.00614011
0.00615679 0.0061736 0.00619041 0.00620722 0.00622403 0.00624084 0.00625779 0.00627474 0.00629169 0.00630863
0.00632558 0.00634268 0.00635976 0.00637685 0.00639393 0.00641102 0.00642827 0.00644549 0.00646271 0.00647994
0.00649717 0.00651455 0.00653192 0.00654928 0.00656664 0.00658401 0.00660155 0.00661906 0.00663656 0.00665406
0.00667157 0.00668925 0.00670691 0.00672455 0.00674219 0.00675985 0.00677768 0.00679548 0.00681326 0.00683104
0.00684884 0.00686682 0.00688477 0.00690269 0.00692062 0.00693857 0.0069567 0.0069748 0.00699287 0.00701094
0.00702905 0.00704734 0.00706559 0.00708381 0.00710203 0.00712029 0.00713873 0.00715714 0.00717551 0.00719389
0.0072123 0.0072309 0.00724947 0.007268 0.00728653 0.00730511 0.00732387 0.0073426 0.00736128 0.00737998
0.00739871 0.00741764 0.00743653 0.00745539 0.00747426 0.00749316 0.00751226 0.00753132 0.00755036 0.0075694
0.00758847 0.00760775 0.00762698 0.0076462 0.00766542 0.00768467 0.00770412 0.00772353 0.00774294 0.00776235
0.00778178 0.00780142 0.00782101 0.00784061 0.00786022 0.00787983 0.00789966 0.00791945 0.00793924 0.00795905
0.00797887 0.00799889 0.00801888 0.00803888 0.0080589 0.00807893 0.00809914 0.00811934 0.00813956 0.00815979
0.00818003 0.00819748 0.00821493 0.0082324 0.00824987 0.00826627 0.00826946 0.00827265 0.00827584 0.00827903
0.00828222 0.00830285 0.00832349 0.00834415 0.00836482 0.00838551 0.00840639 0.00842726 0.00844815 0.00846906
0.00848998 0.0085111 0.00853222 0.00855334 0.00857449 0.00859565 0.00861703 0.00863838 0.00865976 0.00868114
0.00870255 0.00872419 0.00874581 0.00876743 0.00878907 0.00881075 0.00883265 0.00885454 0.00887642 0.00889831
0.00892026 0.00894244 0.00896459 0.00898673 0.00900889 0.00903111 0.00905357 0.00907601 0.00909842 0.00912086
0.00914336 0.0091661 0.00918883 0.00921153 0.00923425 0.00925704 0.00928007 0.00930308 0.00932608 0.00934909
0.00937217 0.0093955 0.00941881 0.00944211 0.00946543 0.00948881 0.00951243 0.00953604 0.00955966 0.0095833
0.00960698 0.00963091 0.00965483 0.00967877 0.00970273 0.00972673 0.00975097 0.0097752 0.00979947 0.00982376
0.00984809 0.00987264 0.00989721 0.00992181 0.00994644 0.0099711 0.00997367 0.00997624 0.00997882 0.00998139
0.00998396 0.0100063 0.0100286 0.010051 0.0100734 0.0100958 0.010121 0.0101463 0.0101716 0.0101969