/*--------------------------------*- C++ -*----------------------------------*\
  =========                 |
  \\      /  F ield         | OpenFOAM: The Open Source CFD Toolbox
   \\    /   O peration     | Website:  https://openfoam.org
    \\  /    A nd           | Version:  13
     \\/     M anipulation  |
\*---------------------------------------------------------------------------*/
FoamFile
{
    format      ascii;
    class       volScalarField;
    location    "5";
    object      nut;
}
// * * * * * * * * * * * * * * * * * * * * * * * * * * * * * * * * * * * * * //

dimensions      [0 2 -1 0 0 0 0];

internalField   nonuniform List<scalar> 
400
(
8.10856e-08
1.98897e-07
8.35639e-07
2.60435e-06
4.53161e-06
5.97913e-06
7.136e-06
8.18738e-06
9.14919e-06
1.00741e-05
1.09827e-05
1.18944e-05
1.28429e-05
1.36041e-05
1.39732e-05
1.40656e-05
1.32362e-05
1.04326e-05
6.2761e-06
4.4782e-06
3.97977e-07
2.32318e-06
4.09067e-06
8.32515e-06
1.2811e-05
1.80743e-05
2.28559e-05
2.7763e-05
3.25767e-05
3.67188e-05
4.02776e-05
4.29479e-05
4.45538e-05
4.52159e-05
4.51638e-05
4.28368e-05
4.13795e-05
3.37157e-05
1.82156e-05
1.0081e-05
1.55595e-06
8.32344e-06
1.43001e-05
2.12874e-05
2.8552e-05
3.52865e-05
4.15961e-05
4.70424e-05
5.09799e-05
5.40651e-05
5.59873e-05
5.7146e-05
5.75757e-05
5.76285e-05
5.70445e-05
5.41356e-05
5.00287e-05
4.44497e-05
2.5256e-05
1.37708e-05
3.71246e-06
1.80075e-05
2.52001e-05
3.28659e-05
4.02148e-05
4.72008e-05
5.2582e-05
5.64992e-05
5.96609e-05
6.21405e-05
6.42304e-05
6.54652e-05
6.55887e-05
6.55051e-05
6.46996e-05
6.22489e-05
5.61244e-05
5.27745e-05
3.37991e-05
1.61622e-05
5.54329e-06
2.56752e-05
3.41221e-05
4.0159e-05
4.7631e-05
5.3363e-05
5.88874e-05
6.32012e-05
6.67091e-05
6.86861e-05
6.90247e-05
6.89602e-05
6.92119e-05
6.93273e-05
6.95007e-05
6.9038e-05
6.29622e-05
5.72497e-05
4.08623e-05
1.80189e-05
6.94516e-06
3.12273e-05
3.89276e-05
4.5167e-05
5.29889e-05
5.95288e-05
6.49872e-05
6.79164e-05
6.99388e-05
7.02777e-05
7.08583e-05
7.07441e-05
7.05839e-05
7.0589e-05
7.12876e-05
7.24593e-05
6.93074e-05
6.18662e-05
4.75101e-05
1.95172e-05
7.39632e-06
3.23333e-05
4.1731e-05
4.94025e-05
5.77026e-05
6.33697e-05
6.75254e-05
6.98815e-05
7.17015e-05
7.26849e-05
7.32409e-05
7.34331e-05
7.26336e-05
7.17773e-05
7.18591e-05
7.336e-05
7.42486e-05
6.57785e-05
5.30715e-05
2.07305e-05
7.31722e-06
3.33718e-05
4.44291e-05
5.25802e-05
5.99096e-05
6.52749e-05
6.9197e-05
7.18363e-05
7.42488e-05
7.62094e-05
7.74097e-05
7.81809e-05
7.70301e-05
7.48274e-05
7.336e-05
7.47095e-05
7.82183e-05
6.96471e-05
5.82051e-05
2.17175e-05
7.05891e-06
3.37639e-05
4.55502e-05
5.40184e-05
6.10914e-05
6.65707e-05
7.06426e-05
7.38962e-05
7.71425e-05
8.01846e-05
8.2447e-05
8.36052e-05
8.27575e-05
7.94009e-05
7.53523e-05
7.43485e-05
7.79105e-05
7.39272e-05
6.2063e-05
2.24472e-05
6.50984e-06
3.35818e-05
4.58397e-05
5.45754e-05
6.16799e-05
6.73142e-05
7.17194e-05
7.55761e-05
7.94477e-05
8.31039e-05
8.58016e-05
8.70877e-05
8.64497e-05
8.35126e-05
7.87503e-05
7.51595e-05
7.67996e-05
7.68441e-05
6.55718e-05
2.30075e-05
5.87628e-06
3.19357e-05
4.50762e-05
5.42712e-05
6.16378e-05
6.74919e-05
7.2228e-05
7.63684e-05
8.04277e-05
8.4081e-05
8.67826e-05
8.80785e-05
8.78948e-05
8.60528e-05
8.16493e-05
7.6973e-05
7.67837e-05
7.83347e-05
6.83398e-05
2.32998e-05
5.34618e-06
2.96815e-05
4.40853e-05
5.34961e-05
6.0803e-05
6.68069e-05
7.19142e-05
7.60928e-05
7.97893e-05
8.30221e-05
8.56905e-05
8.73868e-05
8.77519e-05
8.68446e-05
8.34234e-05
7.83168e-05
7.72639e-05
7.95664e-05
7.07233e-05
2.34318e-05
4.75446e-06
2.60835e-05
4.15211e-05
5.18259e-05
5.96307e-05
6.5656e-05
7.0829e-05
7.44486e-05
7.79771e-05
8.12795e-05
8.38147e-05
8.54834e-05
8.62082e-05
8.65449e-05
8.42095e-05
7.92752e-05
7.64063e-05
8.03997e-05
7.18639e-05
2.34584e-05
4.24075e-06
2.3375e-05
3.88325e-05
4.97174e-05
5.70561e-05
6.2815e-05
6.81298e-05
7.22475e-05
7.58792e-05
7.85472e-05
8.09915e-05
8.26237e-05
8.38205e-05
8.50109e-05
8.4175e-05
7.97908e-05
7.5555e-05
7.9705e-05
7.22321e-05
2.33639e-05
3.60724e-06
1.91852e-05
3.42584e-05
4.60455e-05
5.48788e-05
6.08293e-05
6.62966e-05
7.0168e-05
7.30758e-05
7.53102e-05
7.80253e-05
7.90853e-05
8.07063e-05
8.22708e-05
8.20679e-05
7.92602e-05
7.49061e-05
7.81285e-05
7.02554e-05
2.32518e-05
3.04785e-06
1.67496e-05
3.13164e-05
4.31902e-05
5.25719e-05
5.84448e-05
6.36321e-05
6.73881e-05
6.98892e-05
7.18244e-05
7.41504e-05
7.49814e-05
7.62258e-05
7.73818e-05
7.68476e-05
7.61697e-05
7.13169e-05
7.53084e-05
6.73169e-05
2.2595e-05
2.2979e-06
1.19585e-05
2.61547e-05
3.99676e-05
4.94623e-05
5.55288e-05
6.01789e-05
6.37388e-05
6.56869e-05
6.70997e-05
6.78218e-05
6.82342e-05
6.85501e-05
6.92365e-05
6.79368e-05
7.00765e-05
6.70842e-05
7.02884e-05
6.21263e-05
2.1697e-05
1.67367e-06
1.23033e-05
2.58531e-05
3.75325e-05
4.70257e-05
5.21999e-05
5.5616e-05
5.82955e-05
5.92356e-05
5.91894e-05
5.89402e-05
5.86175e-05
5.84683e-05
6.00777e-05
6.08629e-05
6.5533e-05
6.75724e-05
6.55419e-05
5.35809e-05
2.02278e-05
2.16336e-06
1.50009e-05
2.63485e-05
3.44628e-05
4.12894e-05
4.61027e-05
4.93068e-05
5.18625e-05
5.40021e-05
5.54805e-05
5.76185e-05
5.96212e-05
6.29306e-05
6.63568e-05
7.05957e-05
7.5699e-05
7.12157e-05
6.44589e-05
4.75525e-05
1.81086e-05
1.60326e-06
2.5827e-06
4.74606e-06
6.85896e-06
8.55342e-06
9.82588e-06
1.06755e-05
1.1349e-05
1.18048e-05
1.23241e-05
1.26662e-05
1.32541e-05
1.36502e-05
1.44464e-05
1.49917e-05
1.59779e-05
1.67916e-05
1.7572e-05
1.73616e-05
1.55091e-05
)
;

boundaryField
{
    movingWall
    {
        type            nutkWallFunction;
        Cmu             0.09;
        kappa           0.41;
        E               9.8;
        value           uniform 0;
    }
    fixedWalls
    {
        type            nutkWallFunction;
        Cmu             0.09;
        kappa           0.41;
        E               9.8;
        value           uniform 0;
    }
    frontAndBack
    {
        type            empty;
    }
}


// ************************************************************************* //
