/*--------------------------------*- C++ -*----------------------------------*\
  =========                 |
  \\      /  F ield         | OpenFOAM: The Open Source CFD Toolbox
   \\    /   O peration     | Website:  https://openfoam.org
    \\  /    A nd           | Version:  13
     \\/     M anipulation  |
\*---------------------------------------------------------------------------*/
FoamFile
{
    format      ascii;
    class       surfaceScalarField;
    location    "5";
    object      phi;
}
// * * * * * * * * * * * * * * * * * * * * * * * * * * * * * * * * * * * * * //

dimensions      [0 3 -1 0 0 0 0];

internalField   nonuniform List<scalar> 
760
(
1.82736e-07
-1.82741e-07
9.95675e-08
8.31685e-08
-3.41334e-07
4.40901e-07
-1.25218e-06
9.10843e-07
-2.46664e-06
1.21446e-06
-3.62652e-06
1.15988e-06
-4.63577e-06
1.00925e-06
-5.46239e-06
8.26622e-07
-6.09646e-06
6.34069e-07
-6.54041e-06
4.43944e-07
-6.80732e-06
2.66916e-07
-6.89587e-06
8.85432e-08
-6.78475e-06
-1.11115e-07
-6.47448e-06
-3.10271e-07
-5.91109e-06
-5.6339e-07
-5.06067e-06
-8.50421e-07
-3.88318e-06
-1.17749e-06
-2.42088e-06
-1.4623e-06
-8.96925e-07
-1.52396e-06
-8.96925e-07
-1.66286e-07
-1.64543e-08
-8.05431e-07
7.22313e-07
-1.88952e-06
1.52499e-06
-3.08461e-06
2.10593e-06
-4.04022e-06
2.17007e-06
-4.88713e-06
2.0068e-06
-5.60199e-06
1.72411e-06
-6.17625e-06
1.40089e-06
-6.61893e-06
1.07675e-06
-6.93392e-06
7.58935e-07
-7.10336e-06
4.36354e-07
-7.11282e-06
9.79996e-08
-6.98092e-06
-2.43014e-07
-6.67369e-06
-6.17503e-07
-6.17815e-06
-1.05893e-06
-5.44862e-06
-1.57995e-06
-4.44671e-06
-2.17939e-06
-3.12096e-06
-2.78805e-06
-1.51856e-06
-3.12636e-06
-2.41548e-06
-6.91677e-07
6.75223e-07
-1.72997e-06
1.76061e-06
-2.79011e-06
2.58513e-06
-3.65171e-06
2.96753e-06
-4.37037e-06
2.88872e-06
-4.9687e-06
2.60513e-06
-5.45465e-06
2.21006e-06
-5.82647e-06
1.7727e-06
-6.07875e-06
1.32903e-06
-6.2185e-06
8.98682e-07
-6.25754e-06
4.75391e-07
-6.20439e-06
4.4857e-08
-6.05842e-06
-3.88984e-07
-5.79877e-06
-8.77154e-07
-5.40518e-06
-1.45252e-06
-4.84635e-06
-2.13878e-06
-4.08092e-06
-2.94482e-06
-3.04832e-06
-3.82064e-06
-1.68014e-06
-4.49455e-06
-4.09562e-06
-9.54219e-07
1.62944e-06
-1.98962e-06
2.796e-06
-2.86764e-06
3.46315e-06
-3.52906e-06
3.62896e-06
-4.04767e-06
3.40734e-06
-4.44755e-06
3.005e-06
-4.74013e-06
2.50264e-06
-4.93992e-06
1.9725e-06
-5.06156e-06
1.45066e-06
-5.11394e-06
9.51069e-07
-5.1045e-06
4.65942e-07
-5.03653e-06
-2.31111e-08
-4.89962e-06
-5.25893e-07
-4.68809e-06
-1.08869e-06
-4.39086e-06
-1.74975e-06
-3.98079e-06
-2.54885e-06
-3.41597e-06
-3.50964e-06
-2.63068e-06
-4.60593e-06
-1.51139e-06
-5.61384e-06
-5.60701e-06
-9.56798e-07
2.58624e-06
-1.85504e-06
3.69425e-06
-2.5526e-06
4.16071e-06
-3.06109e-06
4.13744e-06
-3.43354e-06
3.77979e-06
-3.69541e-06
3.26687e-06
-3.87061e-06
2.67785e-06
-3.97842e-06
2.0803e-06
-4.03095e-06
1.5032e-06
-4.03422e-06
9.54332e-07
-3.99239e-06
4.24111e-07
-3.91153e-06
-1.03963e-07
-3.78517e-06
-6.52259e-07
-3.61594e-06
-1.25791e-06
-3.39824e-06
-1.96745e-06
-3.11224e-06
-2.83485e-06
-2.71534e-06
-3.90654e-06
-2.13757e-06
-5.18371e-06
-1.2702e-06
-6.48121e-06
-6.87721e-06
-8.14983e-07
3.40122e-06
-1.54071e-06
4.41998e-06
-2.07852e-06
4.69852e-06
-2.46387e-06
4.52279e-06
-2.73205e-06
4.04797e-06
-2.90791e-06
3.44273e-06
-3.01679e-06
2.78672e-06
-3.07561e-06
2.13912e-06
-3.0939e-06
1.5215e-06
-3.07587e-06
9.363e-07
-3.02445e-06
3.72696e-07
-2.94255e-06
-1.85869e-07
-2.83146e-06
-7.63347e-07
-2.69529e-06
-1.39408e-06
-2.53527e-06
-2.12747e-06
-2.34234e-06
-3.02778e-06
-2.08865e-06
-4.16023e-06
-1.70101e-06
-5.57135e-06
-1.02845e-06
-7.15377e-06
-7.90566e-06
-6.31147e-07
4.03237e-06
-1.16696e-06
4.95579e-06
-1.56631e-06
5.09787e-06
-1.84695e-06
4.80342e-06
-2.03738e-06
4.2384e-06
-2.1587e-06
3.56405e-06
-2.23175e-06
2.85978e-06
-2.26907e-06
2.17644e-06
-2.27739e-06
1.52982e-06
-2.25918e-06
9.18083e-07
-2.21525e-06
3.28765e-07
-2.14596e-06
-2.55156e-07
-2.05379e-06
-8.55521e-07
-1.94503e-06
-1.50284e-06
-1.82721e-06
-2.24528e-06
-1.6995e-06
-3.15549e-06
-1.54223e-06
-4.3175e-06
-1.29335e-06
-5.82023e-06
-8.50324e-07
-7.59679e-06
-8.75599e-06
-4.21824e-07
4.45419e-06
-7.91273e-07
5.32524e-06
-1.06499e-06
5.37158e-06
-1.25606e-06
4.9945e-06
-1.38601e-06
4.36834e-06
-1.47027e-06
3.64831e-06
-1.52373e-06
2.91324e-06
-1.55434e-06
2.20704e-06
-1.56577e-06
1.54126e-06
-1.55835e-06
9.10658e-07
-1.5308e-06
3.01221e-07
-1.48196e-06
-3.03998e-07
-1.41331e-06
-9.24165e-07
-1.33192e-06
-1.58423e-06
-1.2505e-06
-2.32671e-06
-1.17765e-06
-3.22834e-06
-1.10012e-06
-4.39503e-06
-9.6014e-07
-5.96021e-06
-6.66096e-07
-7.89084e-06
-9.42208e-06
-2.29044e-07
4.68324e-06
-4.38639e-07
5.53484e-06
-5.95157e-07
5.5281e-06
-7.06055e-07
5.1054e-06
-7.83936e-07
4.44622e-06
-8.38323e-07
3.7027e-06
-8.77861e-07
2.95278e-06
-9.06085e-07
2.23527e-06
-9.23768e-07
1.55894e-06
-9.29495e-07
9.16385e-07
-9.20909e-07
2.92635e-07
-8.96172e-07
-3.28736e-07
-8.56152e-07
-9.64185e-07
-8.0726e-07
-1.63313e-06
-7.63696e-07
-2.37027e-06
-7.41028e-07
-3.251e-06
-7.33403e-07
-4.40266e-06
-6.88215e-07
-6.0054e-06
-5.39603e-07
-8.03945e-06
-9.96169e-06
-3.61115e-08
4.71935e-06
-1.1219e-07
5.61092e-06
-1.60729e-07
5.57664e-06
-1.9644e-07
5.14111e-06
-2.23023e-07
4.4728e-06
-2.47123e-07
3.7268e-06
-2.71103e-07
2.97676e-06
-2.94606e-07
2.25877e-06
-3.15952e-07
1.58029e-06
-3.32755e-07
9.33188e-07
-3.42606e-07
3.02486e-07
-3.4384e-07
-3.27502e-07
-3.372e-07
-9.70824e-07
-3.2843e-07
-1.6419e-06
-3.31278e-07
-2.36743e-06
-3.60686e-07
-3.2216e-06
-4.26448e-07
-4.3369e-06
-4.67701e-07
-5.96414e-06
-4.21083e-07
-8.08607e-06
-1.03828e-05
1.3963e-07
4.57972e-06
2.02683e-07
5.54787e-06
2.59566e-07
5.51976e-06
2.92251e-07
5.10843e-06
3.13961e-07
4.45109e-06
3.22272e-07
3.71849e-06
3.18382e-07
2.98065e-06
3.04973e-07
2.27218e-06
2.84861e-07
1.6004e-06
2.60471e-07
9.57578e-07
2.33532e-07
3.29425e-07
2.05003e-07
-2.98972e-07
1.74092e-07
-9.39913e-07
1.36227e-07
-1.60403e-06
7.97144e-08
-2.31091e-06
-2.02579e-08
-3.12162e-06
-1.48275e-07
-4.20888e-06
-2.79514e-07
-5.8329e-06
-3.39878e-07
-8.0257e-06
-1.07226e-05
2.99353e-07
4.28037e-06
4.92662e-07
5.35456e-06
6.49599e-07
5.36282e-06
7.57857e-07
5.00017e-06
8.34431e-07
4.37452e-06
8.82613e-07
3.67031e-06
9.06459e-07
2.9568e-06
9.10197e-07
2.26844e-06
8.97109e-07
1.61349e-06
8.69095e-07
9.85591e-07
8.26739e-07
3.7178e-07
7.69796e-07
-2.42029e-07
6.97086e-07
-8.67203e-07
6.05239e-07
-1.51218e-06
4.85199e-07
-2.19087e-06
3.24615e-07
-2.96104e-06
1.16337e-07
-4.0006e-06
-1.15492e-07
-5.60107e-06
-2.58086e-07
-7.88311e-06
-1.09807e-05
4.52298e-07
3.82807e-06
7.69719e-07
5.03714e-06
1.01547e-06
5.11707e-06
1.20407e-06
4.81157e-06
1.3434e-06
4.23519e-06
1.44079e-06
3.57292e-06
1.5017e-06
2.89589e-06
1.53094e-06
2.23921e-06
1.53159e-06
1.61283e-06
1.50482e-06
1.01237e-06
1.44978e-06
4.26819e-07
1.36447e-06
-1.56717e-07
1.24747e-06
-7.50204e-07
1.09626e-06
-1.36098e-06
9.06578e-07
-2.00119e-06
6.684e-07
-2.72286e-06
3.64149e-07
-3.69635e-06
2.46594e-08
-5.26158e-06
-1.69651e-07
-7.6888e-06
-1.11504e-05
5.72735e-07
3.25533e-06
9.97867e-07
4.612e-06
1.33454e-06
4.7804e-06
1.61632e-06
4.52978e-06
1.83352e-06
4.018e-06
1.99474e-06
3.4117e-06
2.1054e-06
2.78523e-06
2.17037e-06
2.17423e-06
2.19261e-06
1.5906e-06
2.17272e-06
1.03226e-06
2.10886e-06
4.9068e-07
1.99619e-06
-4.40474e-08
1.8343e-06
-5.88317e-07
1.62061e-06
-1.14729e-06
1.35501e-06
-1.73559e-06
1.03266e-06
-2.40051e-06
6.39845e-07
-3.30354e-06
2.44125e-07
-4.86586e-06
-1.12996e-08
-7.43337e-06
-1.11617e-05
6.61624e-07
2.59371e-06
1.18628e-06
4.08735e-06
1.61794e-06
4.34874e-06
1.99486e-06
4.15286e-06
2.30098e-06
3.71188e-06
2.53862e-06
3.17406e-06
2.7112e-06
2.61265e-06
2.82276e-06
2.06268e-06
2.8755e-06
1.53786e-06
2.86932e-06
1.03844e-06
2.80132e-06
5.58681e-07
2.66718e-06
9.00915e-08
2.46223e-06
-3.83368e-07
2.18701e-06
-8.72074e-07
1.84296e-06
-1.39154e-06
1.4338e-06
-1.99135e-06
9.51815e-07
-2.82156e-06
4.74819e-07
-4.38887e-06
1.21401e-07
-7.07996e-06
-1.10403e-05
6.44662e-07
1.94905e-06
1.23693e-06
3.49509e-06
1.7846e-06
3.80106e-06
2.281e-06
3.65646e-06
2.70111e-06
3.29177e-06
3.03846e-06
2.83671e-06
3.293e-06
2.3581e-06
3.46726e-06
1.88842e-06
3.56308e-06
1.44204e-06
3.58043e-06
1.02109e-06
3.51685e-06
6.2227e-07
3.37066e-06
2.3628e-07
3.13238e-06
-1.45091e-07
2.80616e-06
-5.45853e-07
2.39164e-06
-9.77014e-07
1.90118e-06
-1.50089e-06
1.33305e-06
-2.25342e-06
7.6472e-07
-3.82054e-06
2.98943e-07
-6.61418e-06
-1.07413e-05
5.42187e-07
1.40686e-06
1.20923e-06
2.82804e-06
1.87945e-06
3.13084e-06
2.49997e-06
3.03595e-06
3.03926e-06
2.75248e-06
3.48463e-06
2.39134e-06
3.8308e-06
2.01193e-06
4.07707e-06
1.64215e-06
4.22586e-06
1.29325e-06
4.27846e-06
9.68486e-07
4.23507e-06
6.65654e-07
4.09585e-06
3.75498e-07
3.85201e-06
9.87561e-08
3.50863e-06
-2.02474e-07
3.05748e-06
-5.25865e-07
2.51337e-06
-9.56778e-07
1.88142e-06
-1.62148e-06
1.21226e-06
-3.15139e-06
5.65088e-07
-5.967e-06
-1.01763e-05
7.64924e-08
1.33037e-06
8.13389e-07
2.09114e-06
1.65356e-06
2.29067e-06
2.4555e-06
2.234e-06
3.16024e-06
2.04775e-06
3.74867e-06
1.80291e-06
4.21856e-06
1.54204e-06
4.57008e-06
1.29062e-06
4.80912e-06
1.05421e-06
4.93978e-06
8.37824e-07
4.96594e-06
6.39501e-07
4.88974e-06
4.51694e-07
4.71292e-06
2.75576e-07
4.44706e-06
6.33856e-08
4.04964e-06
-1.28441e-07
3.54209e-06
-4.49226e-07
2.88969e-06
-9.69076e-07
2.12265e-06
-2.38435e-06
1.09382e-06
-4.93817e-06
-9.08243e-06
-5.68554e-07
1.89892e-06
3.1539e-07
1.2072e-06
1.42949e-06
1.17657e-06
2.47517e-06
1.18833e-06
3.39112e-06
1.13179e-06
4.17099e-06
1.02305e-06
4.81808e-06
8.94944e-07
5.33319e-06
7.75511e-07
5.72791e-06
6.59498e-07
6.00654e-06
5.59191e-07
6.18791e-06
4.58133e-07
6.26717e-06
3.72427e-07
6.2639e-06
2.78849e-07
6.13903e-06
1.88256e-07
5.92662e-06
8.39714e-08
5.60271e-06
-1.25322e-07
5.08364e-06
-4.49998e-07
4.25822e-06
-1.55893e-06
2.51804e-06
-3.19799e-06
-6.5644e-06
1.89892e-06
3.10612e-06
4.28269e-06
5.47102e-06
6.60281e-06
7.62586e-06
8.5208e-06
9.29631e-06
9.95581e-06
1.0515e-05
1.09731e-05
1.13456e-05
1.16244e-05
1.18127e-05
1.18966e-05
1.17713e-05
1.13213e-05
9.76238e-06
6.5644e-06
)
;

boundaryField
{
    movingWall
    {
        type            calculated;
        value           uniform 0;
    }
    fixedWalls
    {
        type            calculated;
        value           uniform 0;
    }
    frontAndBack
    {
        type            empty;
    }
}


// ************************************************************************* //
