/*--------------------------------*- C++ -*----------------------------------*\
  =========                 |
  \\      /  F ield         | OpenFOAM: The Open Source CFD Toolbox
   \\    /   O peration     | Website:  https://openfoam.org
    \\  /    A nd           | Version:  13
     \\/     M anipulation  |
\*---------------------------------------------------------------------------*/
FoamFile
{
    format      ascii;
    class       volVectorField;
    location    "5";
    object      U;
}
// * * * * * * * * * * * * * * * * * * * * * * * * * * * * * * * * * * * * * //

dimensions      [0 1 -1 0 0 0 0];

internalField   nonuniform List<vector> 
400
(
(0.00197336 -0.00253792 0)
(0.00501765 -0.00123198 0)
(-0.00145661 0.000838578 0)
(-0.0107989 0.00498034 0)
(-0.0372597 0.0121666 0)
(-0.0633741 0.0117837 0)
(-0.085082 0.0102821 0)
(-0.103491 0.0083071 0)
(-0.117455 0.00645252 0)
(-0.12809 0.00451191 0)
(-0.134899 0.00262824 0)
(-0.138034 0.000855678 0)
(-0.13827 -0.00180298 0)
(-0.133256 -0.00414277 0)
(-0.124273 -0.00726093 0)
(-0.108986 -0.00996128 0)
(-0.0883665 -0.0129753 0)
(-0.0618566 -0.0147222 0)
(-0.0324327 -0.0130822 0)
(-0.00701143 -0.0034526 0)
(-0.000117535 -0.00541596 0)
(-0.00679187 0.00474229 0)
(-0.0240415 0.0182818 0)
(-0.0501483 0.0325883 0)
(-0.072276 0.0348726 0)
(-0.0912814 0.0325459 0)
(-0.106749 0.0282222 0)
(-0.119301 0.0233354 0)
(-0.128943 0.0179348 0)
(-0.136743 0.0124227 0)
(-0.141308 0.00727685 0)
(-0.143291 0.00203006 0)
(-0.141929 -0.00359805 0)
(-0.137408 -0.00998699 0)
(-0.129045 -0.0176446 0)
(-0.116185 -0.0268305 0)
(-0.0982578 -0.0369573 0)
(-0.0752112 -0.0459202 0)
(-0.0467516 -0.0477386 0)
(-0.0166583 -0.0298771 0)
(-0.00541084 0.00509523 0)
(-0.0228526 0.0257507 0)
(-0.0450771 0.0428958 0)
(-0.0657033 0.0513961 0)
(-0.0815704 0.050824 0)
(-0.094847 0.0461495 0)
(-0.105276 0.0391573 0)
(-0.113787 0.0312669 0)
(-0.120128 0.0236072 0)
(-0.123716 0.0163488 0)
(-0.125362 0.0088645 0)
(-0.125132 0.00123985 0)
(-0.123313 -0.00693103 0)
(-0.119239 -0.0159309 0)
(-0.112578 -0.0265009 0)
(-0.102744 -0.039027 0)
(-0.0890169 -0.0537038 0)
(-0.0708774 -0.0694159 0)
(-0.0469086 -0.0802362 0)
(-0.0204274 -0.0683406 0)
(-0.00913316 0.0233684 0)
(-0.0297388 0.0464653 0)
(-0.0499447 0.0612525 0)
(-0.0656517 0.0661113 0)
(-0.0769435 0.063038 0)
(-0.0860679 0.0561989 0)
(-0.0927164 0.0472134 0)
(-0.0975723 0.0376087 0)
(-0.10051 0.0279482 0)
(-0.102164 0.0185147 0)
(-0.102573 0.00936772 0)
(-0.101804 0.000207676 0)
(-0.099814 -0.00949222 0)
(-0.096326 -0.0203056 0)
(-0.0912234 -0.0329956 0)
(-0.084075 -0.0482268 0)
(-0.0740853 -0.0662969 0)
(-0.0602032 -0.0863422 0)
(-0.0404724 -0.103612 0)
(-0.0188399 -0.100717 0)
(-0.00995399 0.0420193 0)
(-0.0293215 0.0648167 0)
(-0.0459194 0.0762422 0)
(-0.0577357 0.0776489 0)
(-0.0659893 0.0720059 0)
(-0.0721791 0.0629476 0)
(-0.0762412 0.0520825 0)
(-0.0789443 0.0407927 0)
(-0.0803834 0.0297193 0)
(-0.080912 0.0191344 0)
(-0.0805088 0.00891562 0)
(-0.0792891 -0.00125894 0)
(-0.0772341 -0.0119037 0)
(-0.074291 -0.0237307 0)
(-0.0704297 -0.0376458 0)
(-0.0654253 -0.0546219 0)
(-0.0586253 -0.0754239 0)
(-0.0485124 -0.0998491 0)
(-0.0329135 -0.123176 0)
(-0.0168601 -0.127675 0)
(-0.00853711 0.0592081 0)
(-0.0252516 0.0809459 0)
(-0.0377859 0.0884026 0)
(-0.0468339 0.0866127 0)
(-0.0528676 0.0784411 0)
(-0.0570765 0.0673172 0)
(-0.0596338 0.0548602 0)
(-0.0612037 0.0423651 0)
(-0.0618857 0.0303648 0)
(-0.0618679 0.0189793 0)
(-0.0611497 0.00800129 0)
(-0.059815 -0.00289433 0)
(-0.0578913 -0.0141732 0)
(-0.0554269 -0.0265785 0)
(-0.0524757 -0.0410872 0)
(-0.0489716 -0.0588933 0)
(-0.044533 -0.0811409 0)
(-0.0377807 -0.108347 0)
(-0.0273555 -0.1382 0)
(-0.0118448 -0.149784 0)
(-0.00698201 0.073906 0)
(-0.0194793 0.0935907 0)
(-0.0285385 0.0979279 0)
(-0.035345 0.0933659 0)
(-0.0395823 0.0830179 0)
(-0.0424614 0.0702223 0)
(-0.0441683 0.0565928 0)
(-0.0451849 0.0432456 0)
(-0.0455862 0.0305641 0)
(-0.0454726 0.018557 0)
(-0.044841 0.00699481 0)
(-0.0437036 -0.00445434 0)
(-0.0420826 -0.0162403 0)
(-0.0400666 -0.0290325 0)
(-0.0377982 -0.0438319 0)
(-0.0353478 -0.0620296 0)
(-0.0325552 -0.085123 0)
(-0.0279972 -0.11451 0)
(-0.0220639 -0.148469 0)
(-0.00974496 -0.167915 0)
(-0.00466468 0.0849566 0)
(-0.0132856 0.103074 0)
(-0.0194467 0.104965 0)
(-0.024195 0.0981874 0)
(-0.0269809 0.0862377 0)
(-0.0289217 0.0722506 0)
(-0.0301149 0.057813 0)
(-0.0308868 0.0438735 0)
(-0.0312739 0.0307072 0)
(-0.0313106 0.0182447 0)
(-0.03096 0.0062239 0)
(-0.030191 -0.00569212 0)
(-0.0289994 -0.0179108 0)
(-0.0274746 -0.0309885 0)
(-0.0258183 -0.0458514 0)
(-0.0242354 -0.0640202 0)
(-0.0228143 -0.087359 0)
(-0.0201549 -0.118181 0)
(-0.0177441 -0.155513 0)
(-0.0066696 -0.182527 0)
(-0.00274805 0.0918248 0)
(-0.00726646 0.10893 0)
(-0.0109968 0.109351 0)
(-0.0137234 0.101283 0)
(-0.0152828 0.0883444 0)
(-0.0164636 0.0736376 0)
(-0.0172688 0.058728 0)
(-0.0178956 0.0444399 0)
(-0.0183365 0.0309744 0)
(-0.0185739 0.0182032 0)
(-0.0185485 0.00583488 0)
(-0.0182075 -0.0064637 0)
(-0.0175348 -0.019045 0)
(-0.0166076 -0.0323476 0)
(-0.0156384 -0.0471515 0)
(-0.0148823 -0.0650162 0)
(-0.0147932 -0.0882497 0)
(-0.0135775 -0.120056 0)
(-0.0144276 -0.159716 0)
(-0.00506074 -0.194374 0)
(2.54322e-05 0.0948915 0)
(-0.00177825 0.112304 0)
(-0.00309822 0.111689 0)
(-0.00394324 0.102827 0)
(-0.00438378 0.0894539 0)
(-0.00482981 0.074454 0)
(-0.00523045 0.0593777 0)
(-0.00567375 0.0449653 0)
(-0.00611293 0.0313706 0)
(-0.0064983 0.0184314 0)
(-0.00676643 0.00584418 0)
(-0.00686608 -0.0067132 0)
(-0.00678124 -0.0195411 0)
(-0.00657795 -0.0329709 0)
(-0.00646026 -0.0476129 0)
(-0.0066267 -0.0649636 0)
(-0.00810901 -0.0877179 0)
(-0.00792299 -0.120107 0)
(-0.0118572 -0.161503 0)
(-0.00293667 -0.203908 0)
(0.00188521 0.0937797 0)
(0.0032861 0.112272 0)
(0.00436307 0.111486 0)
(0.00527847 0.102831 0)
(0.00593706 0.0894907 0)
(0.00629444 0.0746266 0)
(0.0063996 0.0596824 0)
(0.006252 0.0453631 0)
(0.00592467 0.0318122 0)
(0.0054804 0.0188651 0)
(0.00497203 0.00622535 0)
(0.00443356 -0.00641363 0)
(0.00386924 -0.0193113 0)
(0.0032294 -0.032707 0)
(0.002328 -0.0470536 0)
(0.00111504 -0.0637177 0)
(-0.00217363 -0.0858336 0)
(-0.00275803 -0.118326 0)
(-0.00993418 -0.161432 0)
(-0.00142147 -0.211494 0)
(0.00360414 0.0901763 0)
(0.00792694 0.110249 0)
(0.0111883 0.109663 0)
(0.0138596 0.101721 0)
(0.0158328 0.088652 0)
(0.017137 0.0741542 0)
(0.0179134 0.0595539 0)
(0.0182183 0.0455195 0)
(0.0181378 0.0321943 0)
(0.0177362 0.01943 0)
(0.0170488 0.00694957 0)
(0.0160848 -0.00553794 0)
(0.0148259 -0.018267 0)
(0.0132375 -0.0314177 0)
(0.0111843 -0.0453104 0)
(0.00864535 -0.0611491 0)
(0.00345221 -0.0824294 0)
(0.00237608 -0.114581 0)
(-0.00854314 -0.159515 0)
(0.000823291 -0.217261 0)
(0.00534618 0.0825511 0)
(0.0122821 0.104703 0)
(0.0178268 0.105192 0)
(0.021941 0.0985722 0)
(0.0254268 0.0864521 0)
(0.0278421 0.0727197 0)
(0.0294735 0.0587589 0)
(0.0304104 0.0452522 0)
(0.0307333 0.0323802 0)
(0.0304928 0.0200352 0)
(0.0297042 0.00797307 0)
(0.0283443 -0.00407709 0)
(0.0263636 -0.016334 0)
(0.023747 -0.0289628 0)
(0.0203636 -0.0422009 0)
(0.0163443 -0.0571419 0)
(0.00925214 -0.0772896 0)
(0.00756173 -0.108997 0)
(-0.00753093 -0.15628 0)
(0.00348139 -0.221373 0)
(0.00682146 0.0725902 0)
(0.0158482 0.0981572 0)
(0.0233907 0.10015 0)
(0.029305 0.0942794 0)
(0.0344497 0.0832377 0)
(0.0382984 0.0703967 0)
(0.0410736 0.0572343 0)
(0.0428772 0.0444533 0)
(0.0437869 0.0322635 0)
(0.0438439 0.0205919 0)
(0.04305 0.00923592 0)
(0.0413444 -0.00206323 0)
(0.0386458 -0.013483 0)
(0.0349672 -0.0252522 0)
(0.030128 -0.0375949 0)
(0.0245804 -0.0514849 0)
(0.0155599 -0.0702744 0)
(0.0129531 -0.101621 0)
(-0.00640134 -0.151356 0)
(0.00754227 -0.223985 0)
(0.00788675 0.0594418 0)
(0.0190035 0.0872608 0)
(0.0282165 0.091557 0)
(0.0359858 0.0872162 0)
(0.0428685 0.0777889 0)
(0.0483923 0.0663529 0)
(0.0525823 0.0544272 0)
(0.0554928 0.0427519 0)
(0.0571908 0.0315929 0)
(0.0577075 0.0209361 0)
(0.0570203 0.0106347 0)
(0.0550772 0.00045396 0)
(0.0517232 -0.00973299 0)
(0.0470426 -0.0202618 0)
(0.0406921 -0.0314133 0)
(0.0336377 -0.044131 0)
(0.0225046 -0.0616162 0)
(0.018996 -0.0930984 0)
(-0.00465667 -0.146245 0)
(0.0125547 -0.225367 0)
(0.00747411 0.0458834 0)
(0.0195754 0.0775375 0)
(0.0305378 0.0832579 0)
(0.0405202 0.0796196 0)
(0.0496734 0.0713373 0)
(0.0573616 0.0612009 0)
(0.0634128 0.0506074 0)
(0.0677979 0.0402363 0)
(0.0705689 0.030368 0)
(0.0717755 0.0210262 0)
(0.0713566 0.0121101 0)
(0.0693633 0.0034108 0)
(0.0655094 -0.00519803 0)
(0.0600814 -0.0141355 0)
(0.0523352 -0.0237445 0)
(0.0440407 -0.0351009 0)
(0.0306657 -0.0511642 0)
(0.0265881 -0.0829401 0)
(-0.00211589 -0.139055 0)
(0.0193187 -0.225166 0)
(0.00514656 0.0317091 0)
(0.0184978 0.0615187 0)
(0.0312698 0.0691133 0)
(0.0435951 0.0672599 0)
(0.0551324 0.0609801 0)
(0.0651502 0.052872 0)
(0.0732495 0.0442635 0)
(0.0793062 0.0358007 0)
(0.0833375 0.0277879 0)
(0.0854477 0.0202696 0)
(0.0855487 0.0131929 0)
(0.0838697 0.00635446 0)
(0.0799112 -0.000362131 0)
(0.0744137 -0.00740976 0)
(0.065859 -0.0149781 0)
(0.0571258 -0.0245918 0)
(0.0418511 -0.0388064 0)
(0.0376145 -0.0709467 0)
(0.00266258 -0.129915 0)
(0.0285069 -0.219411 0)
(-0.00477991 0.0245397 0)
(0.00896258 0.0525128 0)
(0.024862 0.057746 0)
(0.0408622 0.0558846 0)
(0.0559001 0.0507074 0)
(0.0689879 0.0442445 0)
(0.0797627 0.0375502 0)
(0.0881141 0.0310745 0)
(0.0940963 0.0249643 0)
(0.0979095 0.0193471 0)
(0.0994342 0.0141863 0)
(0.0991513 0.00935041 0)
(0.0962975 0.0047879 0)
(0.0924078 1.23892e-05 0)
(0.0847707 -0.0051983 0)
(0.0775979 -0.0126463 0)
(0.0615921 -0.0250682 0)
(0.0573848 -0.0563565 0)
(0.0153356 -0.115271 0)
(0.0440721 -0.198488 0)
(-0.0141342 0.0315134 0)
(-0.00480713 0.0261142 0)
(0.0176831 0.029086 0)
(0.0390871 0.0299161 0)
(0.0584825 0.028286 0)
(0.0755061 0.025238 0)
(0.0899522 0.0217279 0)
(0.101709 0.0183536 0)
(0.110919 0.0151921 0)
(0.117718 0.0122719 0)
(0.122301 0.00961061 0)
(0.124985 0.00701179 0)
(0.125471 0.00471495 0)
(0.124555 0.00166174 0)
(0.120208 -0.00104823 0)
(0.116042 -0.00696716 0)
(0.102975 -0.016348 0)
(0.0991158 -0.0430038 0)
(0.0545482 -0.089444 0)
(0.0759506 -0.151607 0)
(0.0410483 0.0390918 0)
(0.0470262 0.0282098 0)
(0.0703357 0.0240565 0)
(0.0970228 0.0228935 0)
(0.120494 0.0217586 0)
(0.141518 0.0200917 0)
(0.160974 0.0180361 0)
(0.177714 0.016186 0)
(0.192585 0.0142822 0)
(0.204675 0.0128571 0)
(0.21521 0.0111783 0)
(0.22319 0.0101548 0)
(0.229915 0.00850132 0)
(0.234105 0.00769712 0)
(0.237142 0.00563858 0)
(0.236083 0.00344032 0)
(0.229451 0.00231605 0)
(0.216007 -0.00842254 0)
(0.16689 -0.0133783 0)
(0.144907 -0.0677064 0)
)
;

boundaryField
{
    movingWall
    {
        type            fixedValue;
        value           uniform (1 0 0);
    }
    fixedWalls
    {
        type            noSlip;
    }
    frontAndBack
    {
        type            empty;
    }
}


// ************************************************************************* //
