/*--------------------------------*- C++ -*----------------------------------*\
  =========                 |
  \\      /  F ield         | OpenFOAM: The Open Source CFD Toolbox
   \\    /   O peration     | Website:  https://openfoam.org
    \\  /    A nd           | Version:  13
     \\/     M anipulation  |
\*---------------------------------------------------------------------------*/
FoamFile
{
    format      ascii;
    class       volScalarField;
    location    "5.3";
    object      k;
}
// * * * * * * * * * * * * * * * * * * * * * * * * * * * * * * * * * * * * * //

dimensions      [0 2 -2 0 0 0 0];

internalField   nonuniform List<scalar> 
6400
(
4.69803e-07
2.40968e-06
5.82116e-06
9.39576e-06
1.21322e-05
1.37047e-05
1.43106e-05
1.44024e-05
1.44985e-05
1.50302e-05
1.63191e-05
1.8849e-05
2.28868e-05
2.85342e-05
3.55535e-05
4.35859e-05
5.22523e-05
6.13596e-05
7.05483e-05
7.95103e-05
8.84263e-05
9.79757e-05
0.000109124
0.000122654
0.000138322
0.000154679
0.000170871
0.000186921
0.000203235
0.000220231
0.000237848
0.000255379
0.000272632
0.000289436
0.000306316
0.000323359
0.000340965
0.000359271
0.000378528
0.000398842
0.000420348
0.0004432
0.000467545
0.000493651
0.000521661
0.000552255
0.000586779
0.000628136
0.000676916
0.000723211
0.000771214
0.000817151
0.000861502
0.000902091
0.000937913
0.000967095
0.000985447
0.000993933
0.000996407
0.000983281
0.000954347
0.000910273
0.000851523
0.000779446
0.000696765
0.000606462
0.000513945
0.00042288
0.00033684
0.000258375
0.000195575
0.000142719
9.97782e-05
6.67569e-05
4.29051e-05
2.65986e-05
1.59422e-05
9.08697e-06
4.2678e-06
9.06136e-07
2.27809e-06
1.92029e-05
4.65225e-05
7.31216e-05
9.31041e-05
0.000105213
0.000111102
0.00011355
0.000115665
0.000120221
0.000130248
0.000149336
0.000178707
0.000218092
0.00026585
0.000319646
0.000377391
0.000437
0.000496623
0.00055525
0.000614043
0.000676736
0.000748399
0.000832543
0.000927048
0.00102434
0.00111928
0.00121023
0.00129771
0.00138251
0.00146353
0.00153877
0.00160774
0.00166997
0.00172826
0.00178322
0.00183694
0.00189028
0.00194458
0.00200054
0.00205886
0.00212017
0.00218484
0.00225315
0.0023246
0.00239901
0.00247582
0.00255205
0.00262923
0.00271189
0.0027961
0.00288131
0.00296466
0.00304367
0.00311474
0.00317406
0.00321175
0.0032266
0.00322687
0.00319617
0.00312884
0.00302443
0.00288114
0.0027002
0.00248636
0.00224615
0.00199206
0.00173263
0.00147529
0.00122819
0.000989975
0.000771996
0.000581506
0.000421636
0.000293716
0.000195728
0.000124509
7.45048e-05
3.58792e-05
4.78695e-06
4.9932e-06
4.19071e-05
9.78886e-05
0.000145867
0.000178999
0.000198724
0.000209591
0.000216859
0.000225887
0.000242038
0.000270664
0.000316337
0.000381006
0.000463433
0.00056021
0.000667553
0.000782491
0.000902563
0.00102524
0.00114827
0.00126982
0.00138894
0.001504
0.00161082
0.00170449
0.00178127
0.00183836
0.00187778
0.00190738
0.00193337
0.00196078
0.0019898
0.00202195
0.00205359
0.00208851
0.00212582
0.00216726
0.00221282
0.00226332
0.00231907
0.00237997
0.00244632
0.00251805
0.00259495
0.00267709
0.00276435
0.00285633
0.00295347
0.00305608
0.00316351
0.00327406
0.00338639
0.00349819
0.0036068
0.00370856
0.00379923
0.00387364
0.00392229
0.00394142
0.00393789
0.00389239
0.00380351
0.00366645
0.0034815
0.00325083
0.00297877
0.00268283
0.00237228
0.00205703
0.00174817
0.00145485
0.00118415
0.000941642
0.000730199
0.000550984
0.000403301
0.000283984
0.000185655
9.39224e-05
1.27274e-05
8.67702e-06
7.07233e-05
0.000155258
0.000220107
0.000262979
0.000289594
0.000307373
0.000323912
0.000346786
0.000383524
0.000441055
0.000523952
0.000632576
0.000763022
0.000909188
0.00106508
0.00122539
0.00138486
0.00153769
0.0016782
0.00180072
0.00190243
0.00198129
0.00203134
0.00205404
0.00206046
0.00205748
0.00205284
0.00205135
0.00205387
0.00206269
0.00207446
0.00209129
0.0021124
0.00213894
0.00217014
0.00220674
0.00224865
0.00229589
0.00234854
0.00240682
0.0024708
0.00254058
0.00261604
0.00269704
0.00278311
0.00287587
0.0029749
0.00308004
0.00319075
0.003306
0.00342451
0.00354442
0.00366331
0.00377789
0.00388416
0.00397708
0.00405117
0.00409413
0.00410883
0.00408976
0.00402779
0.00392003
0.00376841
0.00356419
0.0033061
0.00300985
0.00268545
0.00234854
0.00201375
0.00169369
0.00139799
0.00113261
0.00090021
0.000701185
0.00053413
0.000394714
0.000273504
0.000148119
2.10014e-05
1.39131e-05
0.000109381
0.000223578
0.000304612
0.000357339
0.00039217
0.000419699
0.000450208
0.000493694
0.00055953
0.00065482
0.000781977
0.000937433
0.00111301
0.00129888
0.00148559
0.00166436
0.00182654
0.00196312
0.0020693
0.00213625
0.00216484
0.00217016
0.0021458
0.00211601
0.00208915
0.0020675
0.00205129
0.00204307
0.00203975
0.00203959
0.00204497
0.00205487
0.00206891
0.00208734
0.00210958
0.00213586
0.00216575
0.00219912
0.00223615
0.00227686
0.0023215
0.00237086
0.00242544
0.00248604
0.00255364
0.00262725
0.00270764
0.00279496
0.00288943
0.002991
0.00309939
0.00321375
0.00333287
0.00345481
0.00357702
0.00369532
0.00380466
0.00389882
0.00396573
0.00399444
0.00399529
0.00393766
0.00382719
0.00366522
0.00345494
0.00318116
0.00286483
0.00252216
0.00217168
0.00183099
0.00151457
0.00123157
0.0009857
0.000776771
0.000602014
0.000455674
0.000325767
0.000184204
2.65774e-05
2.13901e-05
0.000161018
0.000306931
0.000404985
0.000468954
0.000514223
0.000554952
0.000604403
0.000674771
0.000775908
0.000912762
0.00108313
0.0012779
0.00148388
0.00168702
0.00187419
0.00203376
0.00215755
0.00222932
0.00225538
0.00225302
0.00221168
0.0021693
0.00212865
0.00208847
0.00205363
0.00202464
0.00200085
0.00198218
0.00196709
0.00195518
0.00194879
0.00194579
0.00194499
0.00194694
0.00195178
0.00195901
0.00196875
0.00198105
0.00199626
0.0020147
0.00203683
0.00206243
0.0020921
0.00212623
0.00216541
0.00221012
0.00226137
0.00232012
0.0023874
0.00246428
0.00255181
0.00265063
0.00276101
0.00288242
0.00301322
0.00315145
0.00329341
0.00343385
0.00356491
0.00367759
0.00375134
0.00377944
0.00376162
0.00367538
0.00352821
0.00330665
0.00301839
0.00268094
0.00231716
0.00195135
0.00160584
0.00129671
0.00103154
0.00081053
0.000629123
0.000479185
0.000346156
0.000199539
2.84897e-05
3.1788e-05
0.000227575
0.000407667
0.000524078
0.000600989
0.00065913
0.000716496
0.000789132
0.00089029
0.0010281
0.00120283
0.00140603
0.0016226
0.00183466
0.00202489
0.00217854
0.00227899
0.002321
0.00232549
0.00228452
0.00223571
0.00217576
0.00211771
0.00205808
0.00200482
0.00195918
0.00191946
0.00188462
0.00185417
0.0018284
0.00180649
0.00178766
0.00177113
0.00175676
0.00174467
0.00173472
0.00172689
0.00172124
0.00171841
0.00171738
0.00171809
0.00172215
0.00172856
0.00173824
0.00175126
0.00176815
0.00178944
0.00181589
0.00184858
0.00188871
0.00193774
0.00199755
0.00207049
0.00215883
0.00226476
0.00238889
0.00253113
0.00269176
0.00286578
0.00304669
0.00322638
0.00339346
0.00353145
0.00360196
0.00361988
0.00355973
0.00343475
0.0032014
0.00288671
0.0025161
0.00212022
0.00173188
0.00137898
0.00107821
0.000833192
0.000638188
0.000481421
0.00034489
0.000198262
2.76198e-05
4.57487e-05
0.000310147
0.000526595
0.000662768
0.00075424
0.000827349
0.000903823
0.00100164
0.00113326
0.00130272
0.00150395
0.00172187
0.00193619
0.00212591
0.00227351
0.00235351
0.00237855
0.00235795
0.00230731
0.00223881
0.00216018
0.00207495
0.00199958
0.00193124
0.00187418
0.00182254
0.00177641
0.00173466
0.00169706
0.00166323
0.00163261
0.00160492
0.00157996
0.00155777
0.00153833
0.00152144
0.00150699
0.00149496
0.00148532
0.00147793
0.0014732
0.00147107
0.00147056
0.00147304
0.00147849
0.00148706
0.00149926
0.00151555
0.00153628
0.00156201
0.00159349
0.00163172
0.00167796
0.00173403
0.00180284
0.0018895
0.00200038
0.00213895
0.00230927
0.00250628
0.00272311
0.00295102
0.00317352
0.00337282
0.00350006
0.00354685
0.00351707
0.00340552
0.00314776
0.00279417
0.00237704
0.0019389
0.00152331
0.0011634
0.000873951
0.00065126
0.000479828
0.000337307
0.000191714
2.56648e-05
6.3757e-05
0.000408765
0.000663356
0.000820424
0.000927617
0.00101679
0.00111284
0.00123435
0.00139099
0.00158106
0.00179168
0.00200215
0.002189
0.00232913
0.00239598
0.0024102
0.00237497
0.00231656
0.00222745
0.00212174
0.00202193
0.00193416
0.00185666
0.0017876
0.00172676
0.00167087
0.00162036
0.00157437
0.00153294
0.00149575
0.00146266
0.00143356
0.00140833
0.00138675
0.0013686
0.00135365
0.00134169
0.00133248
0.00132574
0.00132169
0.00131992
0.00131954
0.00132153
0.00132595
0.00133266
0.00134181
0.00135353
0.00136803
0.00138555
0.00140641
0.00143095
0.0014597
0.00149323
0.00153234
0.0015781
0.00163223
0.00169768
0.00177887
0.00188464
0.00203177
0.00222859
0.00246969
0.00273408
0.0030107
0.00327045
0.00345563
0.00353091
0.00353184
0.00341822
0.00312786
0.00272293
0.00224884
0.00176362
0.00132203
0.000960038
0.000685983
0.000485096
0.000327214
0.000179301
2.36013e-05
8.60412e-05
0.000522244
0.000816341
0.000995084
0.00111831
0.00122298
0.00133637
0.00147616
0.00164776
0.00184316
0.00204356
0.00222475
0.00235847
0.00241908
0.00242827
0.00238964
0.00231493
0.00220402
0.00208182
0.00197113
0.00187167
0.00178461
0.00170698
0.00163737
0.00157479
0.00151796
0.00146727
0.0014223
0.00138314
0.00134951
0.00132121
0.00129788
0.00127913
0.00126447
0.00125341
0.00124544
0.00124018
0.00123761
0.0012367
0.00123703
0.00123962
0.00124344
0.00124902
0.00125614
0.0012649
0.00127539
0.00128775
0.00130217
0.00131887
0.00133812
0.00136017
0.00138517
0.0014134
0.00144518
0.00148086
0.00152075
0.00156592
0.00161816
0.00168119
0.00176208
0.00187238
0.00203373
0.00227261
0.00256721
0.00288786
0.00320699
0.00345217
0.00355871
0.00357129
0.00345119
0.00311619
0.0026483
0.00211164
0.00158128
0.00112158
0.000765712
0.000510939
0.000328125
0.000169882
2.20946e-05
0.00011284
0.000647428
0.000982718
0.0011835
0.00132186
0.00143948
0.00156507
0.00171434
0.00188774
0.00207149
0.00224273
0.00237123
0.00242873
0.00243599
0.00239712
0.00230966
0.00218212
0.00204891
0.00192516
0.00181631
0.00171983
0.00163478
0.00155869
0.00149083
0.00143061
0.00137776
0.00133245
0.0012943
0.00126308
0.00123816
0.00121892
0.0012046
0.00119443
0.00118763
0.00118395
0.00118238
0.00118205
0.00118354
0.00118622
0.00119002
0.00119505
0.00120111
0.00120843
0.00121701
0.00122703
0.00123862
0.00125197
0.00126725
0.00128462
0.00130423
0.00132617
0.00135053
0.00137741
0.0014069
0.00143915
0.00147452
0.00151252
0.00155355
0.00159842
0.00164963
0.00171316
0.0018001
0.00192925
0.00213428
0.0024419
0.00279934
0.00317644
0.00347439
0.00360468
0.00362146
0.00348125
0.00308594
0.00254533
0.00194638
0.00138084
0.000917158
0.00057689
0.000344598
0.0001705
2.20181e-05
0.000145818
0.000779591
0.00115911
0.00138134
0.00153253
0.00165856
0.00178888
0.00193659
0.00209742
0.0022533
0.00237552
0.00243141
0.00243851
0.00240036
0.0023048
0.00216656
0.00202396
0.00188904
0.00176955
0.00166517
0.00157302
0.00149191
0.00142037
0.00135822
0.00130517
0.00126101
0.00122538
0.00119749
0.00117649
0.00116128
0.00115084
0.00114415
0.00114068
0.0011392
0.00113888
0.00113986
0.00114181
0.00114465
0.00114817
0.00115251
0.00115774
0.00116397
0.00117139
0.00118017
0.00119054
0.00120269
0.00121686
0.00123324
0.00125201
0.00127333
0.00129726
0.00132384
0.00135297
0.00138446
0.00141801
0.0014533
0.00149012
0.00152857
0.00156867
0.00160985
0.00165403
0.0017063
0.001776
0.00188178
0.00205687
0.0023531
0.0027451
0.00317424
0.00351405
0.00365705
0.00366861
0.00348395
0.0030099
0.00239095
0.00173816
0.00115625
0.00070641
0.000393541
0.000181942
2.33464e-05
0.000182792
0.000919372
0.00134178
0.00158354
0.00174393
0.00187231
0.00199838
0.00213268
0.00226726
0.00237974
0.00243363
0.00244133
0.00240411
0.00230637
0.0021623
0.00200921
0.00186422
0.00173425
0.00162133
0.00152302
0.00143716
0.00136294
0.00129961
0.00124701
0.00120457
0.00117153
0.00114678
0.00112899
0.00111682
0.00110892
0.0011042
0.00110187
0.00110088
0.0011006
0.00110087
0.00110186
0.00110324
0.00110512
0.00110761
0.00111085
0.00111505
0.00112041
0.00112716
0.00113553
0.00114576
0.00115809
0.00117276
0.00119001
0.00121006
0.0012331
0.00125927
0.00128866
0.0013212
0.00135669
0.00139472
0.00143466
0.00147567
0.00151689
0.00155771
0.00159824
0.00163813
0.00167822
0.00172239
0.00178012
0.00187057
0.00202758
0.0023031
0.00272279
0.00319855
0.00356527
0.003708
0.00369856
0.0034311
0.00286257
0.0021661
0.00147969
0.000907574
0.000493834
0.000215485
2.78356e-05
0.000222665
0.00106336
0.0015261
0.00178461
0.00194968
0.0020735
0.00218593
0.00229559
0.00239237
0.00244184
0.00244963
0.00241227
0.00231651
0.00216996
0.00200822
0.00185205
0.00171178
0.00158966
0.00148471
0.00139438
0.00131735
0.00125303
0.00120071
0.00115968
0.00112866
0.00110619
0.00109057
0.00108015
0.00107345
0.00106924
0.00106656
0.00106474
0.00106327
0.00106199
0.0010609
0.00106015
0.00105981
0.00105976
0.00106057
0.0010623
0.00106526
0.0010696
0.00107558
0.00108343
0.00109336
0.00110562
0.00112046
0.00113812
0.00115886
0.00118295
0.00121061
0.00124205
0.00127736
0.00131651
0.00135924
0.00140499
0.0014528
0.00150135
0.001549
0.0015942
0.00163618
0.00167464
0.00171146
0.00175101
0.00180039
0.00188156
0.00202557
0.00228975
0.00273176
0.00324848
0.00362199
0.0037516
0.00368452
0.00329805
0.00262009
0.00186302
0.00117432
0.000645167
0.00028113
3.74715e-05
0.000264152
0.00120781
0.00170731
0.00197917
0.00214395
0.00225626
0.00234637
0.00242235
0.002463
0.00246888
0.00242886
0.00233714
0.00219083
0.0020225
0.00185512
0.00170314
0.00157114
0.00145841
0.00136292
0.00128266
0.00121668
0.00116409
0.00112364
0.00109378
0.00107257
0.00105803
0.00104827
0.00104165
0.00103693
0.00103317
0.00102979
0.00102645
0.00102304
0.00101964
0.00101638
0.00101347
0.00101106
0.00100961
0.00100908
0.00100936
0.00101143
0.00101503
0.00102047
0.00102791
0.00103756
0.00104963
0.00106435
0.00108197
0.00110276
0.00112704
0.00115512
0.00118731
0.00122392
0.00126513
0.001311
0.00136127
0.00141533
0.00147198
0.0015294
0.00158514
0.00163649
0.00168153
0.00171999
0.00174961
0.00178435
0.00183176
0.00190682
0.00204509
0.00231005
0.00277511
0.00332837
0.00367304
0.00376452
0.00360942
0.00305274
0.00227469
0.00148803
0.000839097
0.0003709
5.13173e-05
0.000305923
0.00134899
0.0018809
0.00216242
0.00232184
0.00241633
0.00247626
0.00250359
0.00250432
0.00245847
0.00237055
0.00222624
0.00205341
0.00187538
0.00171034
0.00156658
0.00144469
0.00134256
0.00125802
0.00118941
0.00113549
0.00109467
0.00106494
0.00104404
0.00102967
0.00101973
0.0010125
0.00100668
0.00100141
0.000996171
0.000990741
0.000985106
0.000979393
0.000973809
0.000968586
0.000963959
0.000960159
0.000957509
0.000956257
0.00095594
0.000957384
0.000960687
0.000965858
0.00097309
0.000982531
0.000994367
0.0010088
0.00102606
0.00104643
0.00107022
0.0010978
0.00112958
0.00116597
0.00120739
0.0012542
0.00130657
0.00136435
0.00142691
0.00149289
0.00156001
0.00162497
0.00168374
0.00173375
0.00177454
0.00179531
0.00182348
0.00187018
0.00194262
0.00208246
0.00236225
0.00285934
0.00343194
0.00370635
0.00373516
0.00342288
0.00268701
0.00183092
0.00106446
0.000478898
6.839e-05
0.000346895
0.00148305
0.00204311
0.00233088
0.00247935
0.00254715
0.00256861
0.00255775
0.00250631
0.00241985
0.00227779
0.00210228
0.00191462
0.00173557
0.0015777
0.0014443
0.00133364
0.0012431
0.0011705
0.00111399
0.00107163
0.00104103
0.00101957
0.00100465
0.000993979
0.000985716
0.000978539
0.00097161
0.000964486
0.000957027
0.000949296
0.000941482
0.000933829
0.000926604
0.000920055
0.000914411
0.000909878
0.000906707
0.000905181
0.000904736
0.000906
0.000909291
0.000914423
0.000921597
0.000930915
0.000942533
0.000956624
0.000973398
0.000993106
0.00101606
0.00104261
0.00107321
0.00110835
0.00114859
0.00119448
0.00124657
0.00130519
0.00137035
0.00144149
0.0015171
0.00159449
0.00166949
0.00173663
0.00179209
0.00183056
0.00184632
0.00186691
0.00191341
0.00198637
0.00213572
0.00244697
0.00299155
0.00352995
0.00373932
0.00363621
0.00307061
0.00219077
0.00131381
0.000599428
8.76361e-05
0.000386565
0.00160756
0.00219115
0.00247923
0.0026094
0.00264856
0.00263824
0.002582
0.00248686
0.00234771
0.00217051
0.00197458
0.00178119
0.00160688
0.00145888
0.00133699
0.00123824
0.0011598
0.00109921
0.00105401
0.0010215
0.000998669
0.00098263
0.000970849
0.000961344
0.000952737
0.00094419
0.000935309
0.000926013
0.000916424
0.000906778
0.000897352
0.000888427
0.000880256
0.000873061
0.000867024
0.000862298
0.000859134
0.000857658
0.000857275
0.000858691
0.000862104
0.000867318
0.000874507
0.000883749
0.000895177
0.000908935
0.000925207
0.000944216
0.000966238
0.000991613
0.00102076
0.00105419
0.00109249
0.00113636
0.00118654
0.00124374
0.00130853
0.00138109
0.00146093
0.00154644
0.00163445
0.00171985
0.0017955
0.00185596
0.00188879
0.00190011
0.00191326
0.00195935
0.00203762
0.00220566
0.00256749
0.00316342
0.00359817
0.00370371
0.00339804
0.00255625
0.00158362
0.000729075
0.000108202
0.000423421
0.00172029
0.00231992
0.00260276
0.00271228
0.00272884
0.0026791
0.00257759
0.00244033
0.00226002
0.00205697
0.00184961
0.00165703
0.00149099
0.00135429
0.00124444
0.00115784
0.00109129
0.00104181
0.00100622
0.000981209
0.000963519
0.000950342
0.0009395
0.000929502
0.000919477
0.000909038
0.000898143
0.000886955
0.000875744
0.000864813
0.000854448
0.000844902
0.000836383
0.000829056
0.000823049
0.000818461
0.000815566
0.000814286
0.000814037
0.000815719
0.000819272
0.00082458
0.000831782
0.000840949
0.000852194
0.000865645
0.000881459
0.000899831
0.000921002
0.000945273
0.00097302
0.00100471
0.00104093
0.00108238
0.00112989
0.00118439
0.00124681
0.00131795
0.00139821
0.00148716
0.00158302
0.0016821
0.00177822
0.00186254
0.00192353
0.00194891
0.00195595
0.00196299
0.00200916
0.00209722
0.00229825
0.00274363
0.00335922
0.00363926
0.00356972
0.00290326
0.00186875
0.000864641
0.000129319
0.000456037
0.0018182
0.00242743
0.00270204
0.00279214
0.00278547
0.00269653
0.00255664
0.00237406
0.00216371
0.00194318
0.0017314
0.00154408
0.00138832
0.00126353
0.00116578
0.00109098
0.00103541
0.000995429
0.000967292
0.00094738
0.000932525
0.000920282
0.000908977
0.000897646
0.000885871
0.000873618
0.000861075
0.000848537
0.00083632
0.00082472
0.000813983
0.000804305
0.00079583
0.000788669
0.000782899
0.000778579
0.000776
0.000774929
0.00077481
0.000776705
0.000780339
0.000785679
0.00079284
0.000801893
0.00081294
0.000826096
0.000841502
0.000859328
0.000879782
0.000903125
0.00092968
0.00095986
0.000994188
0.00103332
0.00107808
0.00112945
0.00118855
0.00125657
0.00133457
0.00142314
0.00152186
0.00162865
0.00173896
0.00184517
0.00193656
0.00199398
0.00200936
0.00201117
0.00201198
0.00206259
0.0021678
0.0024299
0.00297545
0.00348558
0.00361843
0.00321246
0.00216399
0.00100143
0.000151654
0.000483532
0.00189976
0.00251264
0.00277714
0.00285221
0.00281794
0.00269187
0.00251357
0.0022974
0.0020642
0.00183322
0.00162221
0.00144296
0.00129847
0.00118565
0.00109962
0.00103573
0.000989687
0.000957265
0.000934399
0.000917503
0.000903755
0.000891215
0.000878747
0.000865851
0.000852465
0.000838783
0.000825114
0.00081179
0.000799108
0.000787312
0.000776586
0.00076706
0.000758825
0.000751941
0.00074645
0.000742386
0.000740039
0.000739109
0.00073907
0.000741041
0.000744659
0.000749936
0.000756975
0.000765852
0.000776664
0.00078952
0.000804552
0.000821909
0.000841775
0.000864373
0.000889979
0.000918947
0.000951726
0.000988896
0.0010312
0.00107959
0.00113523
0.00119947
0.00127378
0.00135951
0.00145743
0.00156709
0.00168581
0.00180766
0.00192247
0.00201554
0.00206244
0.0020707
0.00206406
0.00206081
0.00211841
0.00226107
0.00262814
0.0032467
0.00354189
0.00340384
0.0024592
0.0011424
0.000174621
0.000505516
0.00196492
0.00257662
0.00283025
0.00289157
0.00282991
0.00267407
0.00245851
0.00221507
0.00196548
0.00172964
0.00152306
0.00135351
0.00122057
0.00111937
0.00104424
0.000989986
0.000951749
0.000924935
0.000905443
0.000889977
0.000876209
0.000862739
0.000848912
0.000834596
0.000819963
0.000805329
0.000791035
0.000777387
0.000764628
0.000752932
0.00074242
0.000733165
0.000725213
0.000718592
0.000713323
0.000709427
0.000707169
0.000706277
0.000706249
0.000708141
0.000711635
0.000716747
0.000723579
0.000732211
0.000742741
0.000755278
0.000769946
0.000786885
0.000806258
0.00082826
0.00085313
0.000881165
0.000912746
0.000948369
0.000988682
0.00103453
0.00108702
0.00114751
0.00121764
0.00129921
0.00139387
0.00150257
0.00162472
0.00175692
0.00189179
0.00201682
0.00210021
0.00212914
0.00212993
0.00211271
0.00210964
0.00218499
0.00239825
0.0029119
0.00339276
0.00347429
0.00275908
0.00130608
0.000201544
0.000521818
0.00201428
0.00262075
0.00286299
0.00291167
0.00282473
0.00263879
0.00239545
0.00213076
0.00187032
0.00163389
0.00143413
0.00127506
0.00115349
0.00106321
0.000997873
0.000951753
0.000919584
0.000896646
0.000879046
0.000863939
0.000849534
0.000834929
0.000819858
0.00080444
0.000788981
0.00077383
0.000759305
0.000745652
0.000733045
0.000721593
0.00071136
0.000702378
0.000694663
0.000688226
0.000683076
0.000679232
0.000676914
0.000675954
0.000675869
0.000677545
0.000680813
0.000685671
0.000692217
0.000700541
0.000710741
0.00072293
0.000737228
0.000753769
0.000772706
0.000794215
0.000818503
0.000845825
0.000876505
0.000910958
0.000949735
0.00099357
0.00104344
0.00110062
0.00116675
0.0012438
0.00133391
0.00143903
0.00156013
0.00169596
0.00184156
0.00198662
0.00211454
0.00218387
0.00219717
0.00217768
0.0021517
0.00216275
0.00227726
0.0026255
0.00322384
0.0034721
0.00304167
0.00151371
0.000237336
0.0005327
0.0020488
0.002646
0.00287562
0.00291197
0.00280747
0.00259424
0.00232788
0.00204724
0.00178051
0.00154661
0.00135512
0.00120669
0.00109597
0.00101565
0.000958825
0.000919315
0.000891638
0.000871177
0.000854419
0.000839034
0.000823746
0.000808067
0.000792012
0.000775853
0.000759943
0.000744612
0.000730119
0.000716643
0.000704291
0.000693116
0.000683142
0.000674373
0.000666809
0.000660453
0.000655314
0.000651413
0.000648905
0.000647785
0.000647583
0.000648941
0.000651902
0.000656433
0.000662632
0.000670592
0.000680419
0.000692225
0.000706133
0.000722277
0.000740802
0.000761872
0.000785676
0.000812438
0.000842433
0.000876014
0.000913644
0.000955944
0.00100376
0.00105822
0.00112087
0.00119366
0.00127897
0.0013794
0.0014972
0.00163324
0.00178535
0.00194632
0.00210215
0.00221646
0.00226031
0.00226121
0.00220873
0.00218041
0.00222562
0.00242361
0.00295404
0.00334032
0.00323608
0.00177035
0.000284369
0.000538227
0.00206875
0.00265334
0.00287305
0.00290211
0.00277589
0.00254274
0.00225846
0.00196653
0.00169711
0.00146788
0.00128538
0.00114738
0.00104672
0.000975284
0.000925638
0.000891312
0.000866806
0.000847778
0.000831185
0.000815213
0.000799031
0.00078247
0.000765728
0.000749148
0.000733075
0.000717787
0.000703477
0.000690254
0.000678172
0.000667244
0.000657464
0.000648824
0.000641317
0.000634946
0.000629725
0.00062568
0.000622889
0.000621534
0.000621171
0.000622144
0.000624738
0.000628893
0.000634697
0.000642252
0.000651667
0.000663057
0.00067655
0.000692279
0.00071039
0.000731041
0.000754409
0.000780699
0.000810153
0.000843073
0.00087985
0.000921008
0.000967261
0.0010196
0.00107937
0.00114842
0.00122914
0.00132439
0.00143723
0.00157008
0.00172316
0.00189236
0.00206675
0.00222668
0.00231608
0.00233425
0.00230312
0.002233
0.00221483
0.00232101
0.00271426
0.00322825
0.00331914
0.00206844
0.000340837
0.00053801
0.00207673
0.0026492
0.00286018
0.0028786
0.00273579
0.00248688
0.00218927
0.00189
0.00162064
0.00139746
0.00122418
0.00109606
0.00100457
0.000940854
0.000897114
0.000866733
0.000844358
0.000826037
0.000809222
0.000792569
0.000775609
0.000758398
0.000741238
0.000724485
0.000708442
0.000693325
0.000679258
0.000666297
0.00065445
0.000643707
0.000634046
0.000625451
0.000617919
0.000611454
0.000606077
0.000601821
0.000598732
0.000597068
0.000596506
0.000597066
0.000599256
0.000603001
0.000608382
0.000615501
0.000624472
0.000635417
0.000648465
0.000663753
0.00068143
0.000701654
0.000724598
0.000750454
0.000779445
0.000811838
0.000847968
0.000888278
0.000933371
0.000984086
0.0010416
0.00110758
0.00118426
0.00127459
0.00138207
0.00151023
0.00166142
0.0018346
0.00202249
0.00220892
0.00234907
0.00240084
0.00239518
0.00230949
0.0022477
0.00227389
0.00250492
0.00308021
0.00333152
0.00239686
0.000405208
0.000535176
0.00207526
0.00263496
0.00283315
0.00284304
0.00268896
0.00242863
0.00212186
0.00181852
0.00155126
0.00133491
0.00117067
0.00105174
0.000968424
0.000911307
0.000872323
0.000844863
0.000823847
0.000805763
0.00078854
0.000771238
0.000753664
0.000736022
0.000718657
0.0007019
0.000686001
0.000671108
0.000657289
0.000644556
0.000632891
0.000622264
0.00061265
0.000604034
0.000596413
0.0005898
0.000584223
0.000579718
0.000576335
0.000574309
0.000573522
0.00057368
0.000575447
0.000578766
0.000583705
0.00059037
0.000598876
0.000609349
0.000621922
0.000636738
0.000653951
0.000673722
0.000696226
0.000721651
0.000750209
0.000782145
0.000817755
0.00085742
0.00090165
0.000951154
0.00100694
0.00107046
0.00114376
0.00122965
0.00133175
0.00145428
0.00160112
0.00177386
0.00196871
0.00217264
0.00236043
0.00246093
0.0024783
0.00241797
0.00229857
0.00226402
0.00239049
0.00286533
0.00323078
0.00270621
0.000467972
0.000528806
0.00206776
0.00260764
0.00279586
0.00279929
0.00263735
0.00236961
0.00205733
0.0017526
0.00148886
0.00127967
0.00112406
0.00101351
0.000937364
0.000885789
0.000850568
0.000825221
0.000805013
0.000786885
0.000769198
0.000751341
0.00073332
0.000715425
0.000698004
0.000681347
0.000665641
0.000650978
0.00063738
0.000624827
0.000613284
0.000602715
0.000593092
0.000584405
0.000576658
0.00056987
0.000564074
0.000559315
0.000555647
0.00055323
0.00055215
0.000552004
0.000553332
0.000556219
0.000560712
0.000566913
0.000574939
0.000584919
0.000596991
0.000611304
0.000628017
0.000647298
0.000669328
0.000694299
0.000722418
0.000753921
0.000789078
0.000828224
0.000871799
0.000920401
0.00097489
0.00103651
0.00110708
0.00118918
0.00128638
0.00140318
0.00154455
0.00171438
0.00191257
0.00213082
0.0023485
0.00250303
0.00255162
0.00252512
0.00238498
0.00229323
0.00233358
0.00269592
0.00311703
0.00293294
0.000514488
0.000518941
0.00205159
0.00257213
0.00275122
0.00274921
0.00258262
0.00231104
0.00199643
0.00169246
0.00143321
0.00123116
0.00108359
0.000980537
0.000910609
0.000863627
0.000831342
0.000807489
0.000787715
0.000769395
0.00075126
0.000732957
0.000714633
0.000696616
0.000679234
0.000662725
0.000647222
0.000632767
0.000619349
0.000606927
0.000595457
0.000584899
0.00057523
0.000566445
0.000558554
0.000551582
0.000545568
0.000540562
0.000536623
0.000533825
0.000532414
0.000532032
0.000532932
0.000535395
0.000539446
0.000545182
0.000552721
0.000562193
0.000573742
0.000587522
0.000603699
0.00062245
0.000643964
0.00066844
0.000696091
0.000727149
0.000761873
0.000800569
0.000843621
0.000891543
0.000945062
0.00100524
0.00107366
0.00115264
0.00124551
0.00135682
0.00149209
0.00165681
0.00185382
0.00207886
0.0023152
0.00252191
0.0026164
0.00262143
0.00250146
0.00233864
0.00231103
0.00253627
0.00300884
0.00303638
0.000534247
0.000506062
0.00202888
0.00252997
0.00270113
0.00269447
0.00252611
0.00225387
0.00193966
0.00163815
0.00138394
0.0011888
0.00104856
0.000952131
0.000887514
0.000844296
0.000814277
0.000791458
0.000771877
0.000753297
0.000734765
0.000716123
0.000697605
0.000679553
0.00066226
0.000645914
0.000630598
0.000616318
0.000603037
0.000590703
0.000579266
0.000568689
0.000558954
0.00055006
0.000542024
0.000534874
0.000528654
0.000523414
0.000519213
0.000516115
0.000514361
0.000513755
0.000514263
0.000516319
0.000519939
0.000525217
0.000532268
0.000541224
0.000552233
0.000565455
0.000581062
0.000599242
0.000620194
0.000644128
0.000671266
0.000701847
0.000736125
0.000774393
0.000816997
0.000864385
0.000917178
0.000976277
0.00104304
0.00111951
0.00120875
0.00131511
0.00144438
0.00160319
0.00179702
0.0020259
0.00227832
0.00252489
0.00267441
0.00270763
0.00262597
0.00240947
0.00230983
0.00241922
0.00290756
0.00306441
0.000537145
0.000490841
0.00200176
0.00248291
0.00264682
0.00263667
0.00246895
0.00219879
0.00188728
0.00158955
0.00134069
0.00115202
0.00101834
0.000927687
0.000867557
0.000827394
0.000799107
0.00077699
0.00075745
0.000738596
0.000719727
0.000700833
0.0006822
0.000664163
0.000646977
0.000630785
0.000615628
0.000601486
0.000588306
0.000576026
0.000564598
0.000553987
0.000544179
0.00053518
0.000527009
0.0005197
0.000513296
0.000507849
0.000503417
0.000500061
0.000497981
0.000497156
0.000497322
0.000498995
0.000502202
0.000507032
0.0005136
0.000522038
0.000532497
0.000545141
0.000560151
0.000577723
0.000598068
0.00062141
0.000647985
0.00067804
0.00071184
0.00074967
0.000791857
0.000838801
0.000891038
0.000949335
0.00101485
0.00108936
0.0011756
0.00127762
0.00140118
0.00155349
0.0017419
0.00197011
0.00223185
0.00250397
0.00271329
0.00278267
0.00273974
0.00252571
0.00235258
0.00236395
0.0027566
0.00303717
0.000526863
0.000473971
0.00197194
0.00243252
0.00258959
0.0025771
0.00241205
0.00214627
0.00183939
0.00154645
0.00130303
0.0011203
0.000992404
0.000906697
0.000850312
0.000812607
0.000785635
0.000763982
0.000744396
0.000725279
0.000706133
0.000687052
0.000668354
0.000650355
0.000633274
0.000617213
0.000602186
0.000588149
0.000575038
0.000562791
0.000551357
0.000540708
0.000530833
0.000521742
0.000513457
0.000506014
0.000499457
0.000493836
0.000489209
0.000485637
0.000483255
0.00048219
0.000482093
0.000483405
0.000486219
0.000490617
0.000496712
0.000504636
0.000514541
0.000526595
0.000540986
0.00055792
0.000577619
0.000600321
0.00062628
0.000655758
0.000689033
0.000726395
0.000768164
0.00081471
0.000866503
0.000924202
0.00098879
0.0010618
0.00114563
0.001244
0.00136241
0.00150835
0.00169053
0.00191572
0.00218231
0.00247141
0.00273174
0.00285018
0.00284683
0.00265134
0.00239478
0.00234383
0.00263459
0.00297889
0.000511227
0.000455953
0.00194014
0.00237997
0.00253058
0.00251681
0.00235609
0.00209664
0.00179597
0.00150859
0.00127056
0.00109319
0.00097027
0.000888735
0.000835436
0.000799688
0.000773706
0.000752353
0.000732675
0.00071332
0.000693946
0.000674725
0.000655989
0.000638032
0.000621041
0.000605087
0.000590158
0.000576197
0.000563135
0.000550907
0.000539464
0.000528782
0.000518853
0.00050969
0.000501316
0.000493768
0.000487089
0.000481329
0.000476543
0.000472792