/*--------------------------------*- C++ -*----------------------------------*\
  =========                 |
  \\      /  F ield         | OpenFOAM: The Open Source CFD Toolbox
   \\    /   O peration     | Website:  https://openfoam.org
    \\  /    A nd           | Version:  13
     \\/     M anipulation  |
\*---------------------------------------------------------------------------*/
FoamFile
{
    format      ascii;
    class       volScalarField;
    location    "5.3";
    object      nut;
}
// * * * * * * * * * * * * * * * * * * * * * * * * * * * * * * * * * * * * * //

dimensions      [0 2 -1 0 0 0 0];

internalField   nonuniform List<scalar> 
6400
(
8.25879e-10
4.23605e-09
1.02333e-08
1.65173e-08
2.13277e-08
2.40921e-08
2.5157e-08
2.53183e-08
2.54873e-08
2.64218e-08
2.86877e-08
3.31352e-08
4.02339e-08
5.01623e-08
6.25024e-08
7.66236e-08
9.18591e-08
1.0787e-07
1.24023e-07
1.39777e-07
1.55451e-07
1.72238e-07
1.91835e-07
2.15621e-07
2.43164e-07
2.71916e-07
3.00379e-07
3.28593e-07
3.57272e-07
3.87149e-07
4.18117e-07
4.48933e-07
4.79262e-07
5.08802e-07
5.38474e-07
5.68433e-07
5.99383e-07
6.31562e-07
6.65414e-07
7.01124e-07
7.38928e-07
7.79099e-07
8.21895e-07
8.67787e-07
9.17026e-07
9.70807e-07
1.0315e-06
1.1042e-06
1.18995e-06
1.27133e-06
1.35571e-06
1.43646e-06
1.51442e-06
1.58577e-06
1.64874e-06
1.70003e-06
1.73228e-06
1.7472e-06
1.75154e-06
1.72846e-06
1.6776e-06
1.60012e-06
1.49684e-06
1.37014e-06
1.22479e-06
1.06605e-06
9.03422e-07
7.43344e-07
5.92099e-07
4.54174e-07
3.43781e-07
2.5087e-07
1.75389e-07
1.17344e-07
7.54178e-08
4.67544e-08
2.80229e-08
1.59731e-08
7.50198e-09
1.59282e-09
4.00471e-09
2.87114e-07
1.03252e-06
1.75506e-06
2.29786e-06
2.62227e-06
2.77408e-06
2.82918e-06
2.86453e-06
2.93658e-06
3.11287e-06
3.45824e-06
3.94948e-06
4.53261e-06
5.15018e-06
5.7404e-06
6.25993e-06
6.66548e-06
6.93606e-06
7.07804e-06
7.15009e-06
7.22537e-06
7.36507e-06
7.61034e-06
7.92474e-06
8.18221e-06
8.38968e-06
8.61414e-06
8.89929e-06
9.28163e-06
9.78514e-06
1.03402e-05
1.09489e-05
1.15734e-05
1.22339e-05
1.29166e-05
1.36304e-05
1.43709e-05
1.51428e-05
1.59459e-05
1.67752e-05
1.7632e-05
1.85118e-05
1.94407e-05
2.03999e-05
2.13655e-05
2.22996e-05
2.3167e-05
2.39757e-05
2.4848e-05
2.57107e-05
2.65826e-05
2.74356e-05
2.82565e-05
2.90206e-05
2.97568e-05
3.03146e-05
3.05951e-05
3.08917e-05
3.09534e-05
3.07163e-05
3.01571e-05
2.92859e-05
2.80615e-05
2.64992e-05
2.4621e-05
2.25471e-05
2.03008e-05
1.79067e-05
1.54182e-05
1.25711e-05
9.77571e-06
7.28408e-06
5.21657e-06
3.61075e-06
2.43905e-06
1.61661e-06
1.03268e-06
4.62916e-07
8.41455e-09
8.7777e-09
7.53534e-07
3.07608e-06
5.40317e-06
7.20622e-06
8.3864e-06
9.05329e-06
9.39203e-06
9.59274e-06
9.82928e-06
1.02275e-05
1.08676e-05
1.17301e-05
1.27243e-05
1.37316e-05
1.46334e-05
1.53801e-05
1.59449e-05
1.6322e-05
1.65217e-05
1.65617e-05
1.6513e-05
1.64613e-05
1.64512e-05
1.65132e-05
1.67213e-05
1.70489e-05
1.73546e-05
1.76854e-05
1.80305e-05
1.84485e-05
1.90067e-05
1.99004e-05
2.08341e-05
2.18949e-05
2.30193e-05
2.42238e-05
2.54727e-05
2.67567e-05
2.81205e-05
2.95007e-05
3.08874e-05
3.22907e-05
3.36304e-05
3.49132e-05
3.61489e-05
3.73608e-05
3.8563e-05
3.97717e-05
4.09915e-05
4.2202e-05
4.34002e-05
4.45686e-05
4.56906e-05
4.6742e-05
4.7693e-05
4.84889e-05
4.91189e-05
4.94228e-05
4.96679e-05
4.95884e-05
4.9204e-05
4.84888e-05
4.73076e-05
4.55991e-05
4.32923e-05
4.06262e-05
3.76092e-05
3.42403e-05
3.05736e-05
2.66254e-05
2.25254e-05
1.84707e-05
1.46684e-05
1.13021e-05
8.4534e-06
6.17276e-06
4.2172e-06
1.74231e-06
2.23725e-08
1.52537e-08
1.24174e-06
4.87925e-06
8.42553e-06
1.11926e-05
1.31027e-05
1.42924e-05
1.49691e-05
1.53769e-05
1.57339e-05
1.62295e-05
1.69839e-05
1.79802e-05
1.90846e-05
2.0136e-05
2.10244e-05
2.16831e-05
2.21023e-05
2.23045e-05
2.23406e-05
2.22692e-05
2.21883e-05
2.21697e-05
2.22656e-05
2.23261e-05
2.23383e-05
2.22594e-05
2.25222e-05
2.31395e-05
2.39984e-05
2.52039e-05
2.63692e-05
2.75563e-05
2.87697e-05
3.00534e-05
3.13311e-05
3.25957e-05
3.39084e-05
3.52172e-05
3.64723e-05
3.77109e-05
3.89147e-05
4.00897e-05
4.12196e-05
4.23116e-05
4.33536e-05
4.44008e-05
4.54439e-05
4.64867e-05
4.75242e-05
4.85484e-05
4.95514e-05
5.05203e-05
5.14406e-05
5.22927e-05
5.3054e-05
5.36971e-05
5.41968e-05
5.45105e-05
5.4627e-05
5.45288e-05
5.41663e-05
5.34068e-05
5.26251e-05
5.14941e-05
4.96951e-05
4.74353e-05
4.4689e-05
4.15323e-05
3.80107e-05
3.41583e-05
3.0033e-05
2.5731e-05
2.1411e-05
1.72729e-05
1.35022e-05
1.02052e-05
7.10587e-06
2.91516e-06
3.69168e-08
2.44585e-08
1.86885e-06
6.81776e-06
1.14081e-05
1.4862e-05
1.72002e-05
1.86402e-05
1.94499e-05
1.99253e-05
2.03714e-05
2.10329e-05
2.19964e-05
2.31663e-05
2.43507e-05
2.53729e-05
2.61304e-05
2.65947e-05
2.67939e-05
2.67745e-05
2.66536e-05
2.64317e-05
2.62798e-05
2.61378e-05
2.55499e-05
2.53621e-05
2.57089e-05
2.66046e-05
2.76601e-05
2.88041e-05
3.00467e-05
3.12921e-05
3.2506e-05
3.37091e-05
3.4873e-05
3.59922e-05
3.70116e-05
3.80246e-05
3.9024e-05
3.98697e-05
4.06695e-05
4.13902e-05
4.20509e-05
4.26751e-05
4.3278e-05
4.38845e-05
4.45195e-05
4.51417e-05
4.57697e-05
4.64031e-05
4.7046e-05
4.77006e-05
4.83683e-05
4.90475e-05
4.9735e-05
5.04238e-05
5.11044e-05
5.17604e-05
5.237e-05
5.28989e-05
5.32967e-05
5.34702e-05
5.34607e-05
5.30636e-05
5.20845e-05
5.11568e-05
5.0167e-05
4.84207e-05
4.62213e-05
4.36005e-05
4.05976e-05
3.72445e-05
3.35657e-05
2.95906e-05
2.53936e-05
2.11532e-05
1.70732e-05
1.3226e-05
9.24434e-06
3.72057e-06
4.67186e-08
3.76031e-08
2.71659e-06
9.11435e-06
1.46823e-05
1.86326e-05
2.11616e-05
2.26276e-05
2.34162e-05
2.39262e-05
2.45165e-05
2.53926e-05
2.654e-05
2.77818e-05
2.89031e-05
2.97471e-05
3.02474e-05
3.0415e-05
3.03554e-05
2.99682e-05
2.96369e-05
2.92952e-05
2.83483e-05
2.81025e-05
2.86482e-05
2.95456e-05
3.05479e-05
3.16651e-05
3.27871e-05
3.38874e-05
3.49376e-05
3.58773e-05
3.67896e-05
3.76313e-05
3.83506e-05
3.89827e-05
3.95219e-05
3.99771e-05
4.04175e-05
4.07627e-05
4.10589e-05
4.13233e-05
4.1569e-05
4.17888e-05
4.19924e-05
4.21858e-05
4.23709e-05
4.25475e-05
4.2727e-05
4.29165e-05
4.31255e-05
4.33651e-05
4.36482e-05
4.39872e-05
4.43935e-05
4.48738e-05
4.54222e-05
4.60371e-05
4.67194e-05
4.74351e-05
4.81386e-05
4.87887e-05
4.9308e-05
4.95274e-05
4.94847e-05
4.86802e-05
4.81437e-05
4.70271e-05
4.53902e-05
4.32716e-05
4.0738e-05
3.78558e-05
3.46677e-05
3.11725e-05
2.73327e-05
2.32471e-05
1.90877e-05
1.49582e-05
1.04714e-05
4.09321e-06
5.00805e-08
5.58826e-08
3.83008e-06
1.18096e-05
1.82582e-05
2.25263e-05
2.5067e-05
2.64257e-05
2.71376e-05
2.76922e-05
2.84342e-05
2.94677e-05
3.06738e-05
3.18304e-05
3.27365e-05
3.32801e-05
3.34442e-05
3.31035e-05
3.26872e-05
3.23076e-05
3.1192e-05
3.07846e-05
3.107e-05
3.18861e-05
3.26107e-05
3.34734e-05
3.43627e-05
3.52527e-05
3.60619e-05
3.67943e-05
3.74714e-05
3.80673e-05
3.85769e-05
3.8989e-05
3.93097e-05
3.95613e-05
3.97485e-05
3.98879e-05
3.99866e-05
4.00347e-05
4.0055e-05
4.00745e-05
4.00468e-05
4.00077e-05
3.99449e-05
3.98702e-05
3.97761e-05
3.96694e-05
3.95492e-05
3.94263e-05
3.93028e-05
3.91891e-05
3.9099e-05
3.90559e-05
3.90921e-05
3.9258e-05
3.95584e-05
3.99744e-05
4.05892e-05
4.13791e-05
4.22815e-05
4.32589e-05
4.42517e-05
4.52135e-05
4.57982e-05
4.60028e-05
4.5313e-05
4.51602e-05
4.4091e-05
4.24033e-05
4.01862e-05
3.75542e-05
3.46288e-05
3.14755e-05
2.80581e-05
2.42381e-05
2.01876e-05
1.58729e-05
1.07752e-05
4.07992e-06
4.85514e-08
8.04256e-08
5.23122e-06
1.48451e-05
2.204e-05
2.64564e-05
2.88844e-05
3.00747e-05
3.07042e-05
3.13016e-05
3.21388e-05
3.32058e-05
3.43107e-05
3.52226e-05
3.57751e-05
3.5919e-05
3.54702e-05
3.50283e-05
3.41778e-05
3.33371e-05
3.31741e-05
3.36646e-05
3.40391e-05
3.4645e-05
3.52508e-05
3.60178e-05
3.66877e-05
3.73056e-05
3.78187e-05
3.82539e-05
3.86082e-05
3.88814e-05
3.90832e-05
3.9222e-05
3.9313e-05
3.93689e-05
3.93947e-05
3.93966e-05
3.93765e-05
3.93371e-05
3.92796e-05
3.91923e-05
3.91323e-05
3.90306e-05
3.88883e-05
3.87526e-05
3.85908e-05
3.84204e-05
3.82354e-05
3.80317e-05
3.78106e-05
3.75696e-05
3.73089e-05
3.70242e-05
3.67112e-05
3.63616e-05
3.60564e-05
3.59399e-05
3.60253e-05
3.64942e-05
3.72435e-05
3.82208e-05
3.94482e-05
4.07139e-05
4.19933e-05
4.29645e-05
4.33582e-05
4.28718e-05
4.29648e-05
4.17994e-05
3.9915e-05
3.74214e-05
3.45099e-05
3.13802e-05
2.81396e-05
2.46518e-05
2.0689e-05
1.63191e-05
1.09243e-05
3.97211e-06
4.5115e-08
1.12085e-07
6.91018e-06
1.81383e-05
2.58822e-05
3.03308e-05
3.25742e-05
3.35748e-05
3.41185e-05
3.47188e-05
3.55492e-05
3.65061e-05
3.73632e-05
3.79116e-05
3.79718e-05
3.75042e-05
3.70159e-05
3.58357e-05
3.53041e-05
3.53039e-05
3.5344e-05
3.5578e-05
3.60262e-05
3.65606e-05
3.70823e-05
3.76117e-05
3.80223e-05
3.83706e-05
3.86295e-05
3.88327e-05
3.89805e-05
3.90888e-05
3.9169e-05
3.92311e-05
3.92821e-05
3.93244e-05
3.93587e-05
3.93846e-05
3.93992e-05
3.93996e-05
3.93682e-05
3.93426e-05
3.93215e-05
3.9221e-05
3.914e-05
3.90296e-05
3.89029e-05
3.87543e-05
3.85852e-05
3.83934e-05
3.81762e-05
3.79278e-05
3.76471e-05
3.73262e-05
3.69575e-05
3.65309e-05
3.6036e-05
3.54844e-05
3.48726e-05
3.42298e-05
3.3959e-05
3.43117e-05
3.52991e-05
3.65112e-05
3.80644e-05
3.96391e-05
4.0917e-05
4.1408e-05
4.12579e-05
4.13425e-05
4.00268e-05
3.78328e-05
3.49385e-05
3.16253e-05
2.81643e-05
2.4687e-05
2.08865e-05
1.6382e-05
1.06828e-05
3.69696e-06
4.14874e-08
1.5126e-07
8.80619e-06
2.15372e-05
2.96981e-05
3.40881e-05
3.61056e-05
3.69045e-05
3.7337e-05
3.78661e-05
3.85705e-05
3.92861e-05
3.97866e-05
3.97484e-05
3.92751e-05
3.87648e-05
3.76432e-05
3.71227e-05
3.69016e-05
3.66138e-05
3.67813e-05
3.70519e-05
3.74424e-05
3.78271e-05
3.81708e-05
3.84655e-05
3.86755e-05
3.88484e-05
3.89786e-05
3.90962e-05
3.9204e-05
3.93152e-05
3.94316e-05
3.95543e-05
3.96801e-05
3.98038e-05
3.9917e-05
4.00207e-05
4.01015e-05
4.01463e-05
4.01834e-05
4.01983e-05
4.01753e-05
4.01198e-05
4.0048e-05
3.99445e-05
3.98202e-05
3.96722e-05
3.95051e-05
3.932e-05
3.91199e-05
3.89034e-05
3.86584e-05
3.83765e-05
3.80416e-05
3.76376e-05
3.71474e-05
3.65517e-05
3.58343e-05
3.5e-05
3.41108e-05
3.3229e-05
3.25539e-05
3.30432e-05
3.42798e-05
3.58806e-05
3.77121e-05
3.93458e-05
4.00399e-05
3.99568e-05
4.00576e-05
3.85092e-05
3.5923e-05
3.25615e-05
2.87551e-05
2.4865e-05
2.09392e-05
1.64031e-05
1.05775e-05
3.48583e-06
3.88386e-08
1.98373e-07
1.07765e-05
2.49002e-05
3.34043e-05
3.76808e-05
3.94479e-05
4.00255e-05
4.0297e-05
4.06628e-05
4.11262e-05
4.14946e-05
4.13786e-05
4.08369e-05
4.0268e-05
3.93206e-05
3.86616e-05
3.81412e-05
3.77683e-05
3.76702e-05
3.78506e-05
3.80656e-05
3.83303e-05
3.85532e-05
3.87411e-05
3.88944e-05
3.90213e-05
3.91545e-05
3.92958e-05
3.94616e-05
3.96474e-05
3.98539e-05
4.0072e-05
4.02942e-05
4.05088e-05
4.07342e-05
4.09142e-05
4.10248e-05
4.11646e-05
4.12715e-05
4.13288e-05
4.1358e-05
4.13499e-05
4.1311e-05
4.12423e-05
4.11423e-05
4.10154e-05
4.08613e-05
4.06826e-05
4.04797e-05
4.02535e-05
4.00037e-05
3.97297e-05
3.94314e-05
3.91076e-05
3.87559e-05
3.83717e-05
3.7892e-05
3.72731e-05
3.64756e-05
3.55057e-05
3.4397e-05
3.32363e-05
3.21559e-05
3.15623e-05
3.25325e-05
3.40615e-05
3.61136e-05
3.80067e-05
3.88621e-05
3.88179e-05
3.88708e-05
3.6995e-05
3.39753e-05
3.00658e-05
2.57188e-05
2.13038e-05
1.652e-05
1.05909e-05
3.48912e-06
3.87039e-08
2.56349e-07
1.25896e-05
2.81265e-05
3.69382e-05
4.10707e-05
4.25677e-05
4.28912e-05
4.29354e-05
4.3042e-05
4.31631e-05
4.29474e-05
4.23052e-05
4.16869e-05
4.0807e-05
4.00489e-05
3.91984e-05
3.87343e-05
3.84608e-05
3.8439e-05
3.85584e-05
3.86836e-05
3.88306e-05
3.89509e-05
3.90745e-05
3.92084e-05
3.93704e-05
3.95733e-05
3.9813e-05
4.00883e-05
4.03859e-05
4.06963e-05
4.10059e-05
4.13307e-05
4.16264e-05
4.18562e-05
4.20501e-05
4.22358e-05
4.24226e-05
4.2533e-05
4.26159e-05
4.26601e-05
4.26685e-05
4.26426e-05
4.25828e-05
4.24902e-05
4.23667e-05
4.22133e-05
4.20316e-05
4.18226e-05
4.15869e-05
4.13245e-05
4.10343e-05
4.07143e-05
4.03606e-05
3.9969e-05
3.9535e-05
3.90558e-05
3.8529e-05
3.7917e-05
3.71064e-05
3.60452e-05
3.481e-05
3.34231e-05
3.20394e-05
3.08913e-05
3.11047e-05
3.2626e-05
3.47547e-05
3.68025e-05
3.7736e-05
3.77047e-05
3.75644e-05
3.5319e-05
3.17422e-05
2.72614e-05
2.2331e-05
1.71548e-05
1.09686e-05
3.69664e-06
4.10382e-08
3.2135e-07
1.43945e-05
3.12061e-05
4.02657e-05
4.42276e-05
4.5432e-05
4.54578e-05
4.52008e-05
4.49567e-05
4.45736e-05
4.37955e-05
4.31404e-05
4.22316e-05
4.13883e-05
4.02897e-05
3.95721e-05
3.91698e-05
3.89596e-05
3.89359e-05
3.89806e-05
3.90412e-05
3.91347e-05
3.92458e-05
3.94056e-05
3.96158e-05
3.98838e-05
4.02031e-05
4.05608e-05
4.0944e-05
4.13366e-05
4.1729e-05
4.21218e-05
4.24834e-05
4.27975e-05
4.30701e-05
4.33281e-05
4.35347e-05
4.37192e-05
4.3879e-05
4.39826e-05
4.40522e-05
4.40817e-05
4.40751e-05
4.4031e-05
4.39506e-05
4.38349e-05
4.3685e-05
4.35024e-05
4.32887e-05
4.30452e-05
4.27728e-05
4.24717e-05
4.214e-05
4.1774e-05
4.13672e-05
4.09107e-05
4.03946e-05
3.98109e-05
3.91583e-05
3.84435e-05
3.75914e-05
3.64961e-05
3.51281e-05
3.35885e-05
3.20187e-05
3.06589e-05
3.00358e-05
3.14734e-05
3.35903e-05
3.56838e-05
3.65982e-05
3.64716e-05
3.60507e-05
3.32201e-05
2.90537e-05
2.39719e-05
1.83721e-05
1.19693e-05
4.25465e-06
4.89281e-08
3.91448e-07
1.61547e-05
3.40955e-05
4.33538e-05
4.71259e-05
4.80147e-05
4.76953e-05
4.7065e-05
4.63883e-05
4.54211e-05
4.47252e-05
4.3655e-05
4.27058e-05
4.14256e-05
4.0438e-05
3.98207e-05
3.94635e-05
3.92794e-05
3.92313e-05
3.92381e-05
3.92952e-05
3.94164e-05
3.96001e-05
3.98621e-05
4.01918e-05
4.05819e-05
4.10144e-05
4.14721e-05
4.19395e-05
4.24026e-05
4.28515e-05
4.32774e-05
4.36673e-05
4.40217e-05
4.43451e-05
4.4643e-05
4.491e-05
4.51111e-05
4.5272e-05
4.54374e-05
4.55492e-05
4.56091e-05
4.56314e-05
4.56102e-05
4.55465e-05
4.54401e-05
4.52918e-05
4.5103e-05
4.48757e-05
4.46127e-05
4.43168e-05
4.39908e-05
4.36363e-05
4.32527e-05
4.28361e-05
4.23779e-05
4.1864e-05
4.12759e-05
4.05936e-05
3.98044e-05
3.89146e-05
3.78938e-05
3.67034e-05
3.52688e-05
3.36088e-05
3.19415e-05
3.03392e-05
2.92199e-05
3.05021e-05
3.26063e-05
3.46202e-05
3.53867e-05
3.50477e-05
3.40477e-05
3.05613e-05
2.57646e-05
2.00198e-05
1.33241e-05
5.19156e-06
6.5865e-08
4.64381e-07
1.78303e-05
3.67548e-05
4.61772e-05
4.97492e-05
5.03069e-05
4.96095e-05
4.85757e-05
4.73476e-05
4.6556e-05
4.51711e-05
4.40764e-05
4.26349e-05
4.13953e-05
4.05147e-05
3.99681e-05
3.96417e-05
3.94736e-05
3.94248e-05
3.94535e-05
3.95719e-05
3.97835e-05
4.00836e-05
4.04683e-05
4.0917e-05
4.14129e-05
4.19349e-05
4.24667e-05
4.29942e-05
4.35072e-05
4.39984e-05
4.44623e-05
4.48957e-05
4.53001e-05
4.56758e-05
4.60206e-05
4.63293e-05
4.66206e-05
4.68446e-05
4.69891e-05
4.71961e-05
4.7302e-05
4.7362e-05
4.73735e-05
4.73316e-05
4.72372e-05
4.7089e-05
4.68884e-05
4.66373e-05
4.63393e-05
4.5999e-05
4.56222e-05
4.52146e-05
4.47815e-05
4.43256e-05
4.3845e-05
4.33312e-05
4.27663e-05
4.21227e-05
4.1365e-05
4.04591e-05
3.93989e-05
3.8199e-05
3.66692e-05
3.51148e-05
3.34987e-05
3.17208e-05
2.9878e-05
2.84719e-05
2.96141e-05
3.17413e-05
3.35292e-05
3.39888e-05
3.35463e-05
3.1427e-05
2.72487e-05
2.16954e-05
1.48764e-05
6.1864e-06
9.02027e-08
5.37815e-07
1.93873e-05
3.9157e-05
4.87239e-05
5.20909e-05
5.23166e-05
5.12076e-05
4.9646e-05
4.86412e-05
4.69326e-05
4.55838e-05
4.39746e-05
4.24905e-05
4.1326e-05
4.05361e-05
4.00418e-05
3.97486e-05
3.96149e-05
3.96101e-05
3.9716e-05
3.99394e-05
4.027e-05
4.06933e-05
4.11911e-05
4.17386e-05
4.23167e-05
4.29064e-05
4.34948e-05
4.4072e-05
4.46318e-05
4.51707e-05
4.56866e-05
4.6179e-05
4.66475e-05
4.70905e-05
4.75047e-05
4.78869e-05
4.82439e-05
4.85752e-05
4.87738e-05
4.89994e-05
4.92092e-05
4.93067e-05
4.93624e-05
4.93489e-05
4.92716e-05
4.91264e-05
4.89137e-05
4.86348e-05
4.82929e-05
4.78932e-05
4.74431e-05
4.69518e-05
4.64298e-05
4.58872e-05
4.53318e-05
4.47664e-05
4.41845e-05
4.35669e-05
4.28781e-05
4.20658e-05
4.10679e-05
3.98937e-05
3.85848e-05
3.66187e-05
3.48265e-05
3.32432e-05
3.1352e-05
2.92852e-05
2.7716e-05
2.87811e-05
3.10126e-05
3.2343e-05
3.23324e-05
3.16167e-05
2.81904e-05
2.30832e-05
1.63845e-05
7.16639e-06
1.20213e-07
6.09844e-07
2.07867e-05
4.12935e-05
5.10153e-05
5.41414e-05
5.38944e-05
5.23728e-05
5.09364e-05
4.9041e-05
4.7328e-05
4.55158e-05
4.37801e-05
4.23145e-05
4.12354e-05
4.05213e-05
4.00776e-05
3.98365e-05
3.9769e-05
3.98501e-05
4.00668e-05
4.04113e-05
4.0861e-05
4.13935e-05
4.19842e-05
4.26096e-05
4.32524e-05
4.38983e-05
4.45389e-05
4.51687e-05
4.57852e-05
4.63871e-05
4.69736e-05
4.75436e-05
4.80952e-05
4.86249e-05
4.91285e-05
4.96013e-05
5.00464e-05
5.04735e-05
5.07467e-05
5.10107e-05
5.13261e-05
5.14713e-05
5.15775e-05
5.16003e-05
5.15472e-05
5.14119e-05
5.11936e-05
5.08919e-05
5.05085e-05
5.00478e-05
4.95169e-05
4.89262e-05
4.82889e-05
4.76208e-05
4.69384e-05
4.62564e-05
4.55836e-05
4.49184e-05
4.42422e-05
4.35139e-05
4.26659e-05
4.16061e-05
4.03344e-05
3.87216e-05
3.64966e-05
3.44186e-05
3.28371e-05
3.0797e-05
2.8495e-05
2.69395e-05
2.80213e-05
3.01874e-05
3.13008e-05
3.04364e-05
2.8511e-05
2.40555e-05
1.76611e-05
8.01499e-06
1.54044e-07
6.79584e-07
2.20209e-05
4.31773e-05
5.29588e-05
5.57091e-05
5.51762e-05
5.38303e-05
5.17416e-05
4.93922e-05
4.73458e-05
4.53322e-05
4.35437e-05
4.2132e-05
4.11377e-05
4.04936e-05
4.01135e-05
3.99504e-05
3.99781e-05
4.01703e-05
4.05078e-05
4.09685e-05
4.15232e-05
4.21458e-05
4.28116e-05
4.35012e-05
4.42014e-05
4.49034e-05
4.56028e-05
4.62977e-05
4.69874e-05
4.76711e-05
4.83472e-05
4.90129e-05
4.96639e-05
5.02948e-05
5.08994e-05
5.1471e-05
5.20181e-05
5.25371e-05
5.288e-05
5.32072e-05
5.36149e-05
5.38173e-05
5.39759e-05
5.4041e-05
5.40191e-05
5.3903e-05
5.36899e-05
5.33776e-05
5.29656e-05
5.2456e-05
5.18539e-05
5.11683e-05
5.04123e-05
4.96038e-05
4.87642e-05
4.79175e-05
4.70863e-05
4.62873e-05
4.55244e-05
4.47811e-05
4.40118e-05
4.31337e-05
4.20225e-05
4.06534e-05
3.86416e-05
3.62119e-05
3.38917e-05
3.22406e-05
3.00375e-05
2.74965e-05
2.62321e-05
2.73455e-05
2.89578e-05
2.9444e-05
2.83724e-05
2.45997e-05
1.86186e-05
8.67699e-06
1.90196e-07
7.44375e-07
2.30836e-05
4.47036e-05
5.44482e-05
5.69053e-05
5.66115e-05
5.46506e-05
5.20512e-05
4.96531e-05
4.72316e-05
4.50871e-05
4.3298e-05
4.19581e-05
4.10466e-05
4.04772e-05
4.01801e-05
4.01174e-05
4.02572e-05
4.05672e-05
4.10192e-05
4.15822e-05
4.22251e-05
4.29223e-05
4.36526e-05
4.44019e-05
4.51619e-05
4.59283e-05
4.67001e-05
4.74766e-05
4.82572e-05
4.90397e-05
4.98204e-05
5.05939e-05
5.13533e-05
5.2091e-05
5.27991e-05
5.34692e-05
5.41192e-05
5.47234e-05
5.51269e-05
5.55268e-05
5.60117e-05
5.62746e-05
5.6484e-05
5.65943e-05
5.66089e-05
5.65205e-05
5.63246e-05
5.60172e-05
5.55953e-05
5.50579e-05
5.4407e-05
5.36481e-05
5.27915e-05
5.18535e-05
5.08563e-05
4.98282e-05
4.88012e-05
4.78069e-05
4.68709e-05
4.60035e-05
4.51906e-05
4.43835e-05
4.34883e-05
4.23565e-05
4.07533e-05
3.83624e-05
3.57837e-05
3.32996e-05
3.14942e-05
2.90003e-05
2.61654e-05
2.55793e-05
2.69187e-05
2.78956e-05
2.7158e-05
2.46838e-05
1.92054e-05
9.16087e-06
2.27316e-07
8.01714e-07
2.39429e-05
4.5868e-05
5.55724e-05
5.80864e-05
5.76739e-05
5.53947e-05
5.24464e-05
4.96359e-05
4.70333e-05
4.48173e-05
4.30624e-05
4.1803e-05
4.09754e-05
4.04921e-05
4.02954e-05
4.03455e-05
4.06012e-05
4.10231e-05
4.15763e-05
4.22267e-05
4.29446e-05
4.37075e-05
4.44996e-05
4.53119e-05
4.61407e-05
4.69849e-05
4.78444e-05
4.87183e-05
4.96039e-05
5.04966e-05
5.13895e-05
5.22744e-05
5.31422e-05
5.39835e-05
5.47889e-05
5.55495e-05
5.62923e-05
5.69713e-05
5.74273e-05
5.78957e-05
5.84411e-05
5.8762e-05
5.90177e-05
5.91723e-05
5.92257e-05
5.91711e-05
5.90028e-05
5.8715e-05
5.83028e-05
5.7762e-05
5.70906e-05
5.62898e-05
5.53652e-05
5.43284e-05
5.31984e-05
5.20026e-05
5.07766e-05
4.95614e-05
4.83991e-05
4.73236e-05
4.63505e-05
4.54644e-05
4.46076e-05
4.36723e-05
4.24955e-05
4.05925e-05
3.78684e-05
3.51917e-05
3.25389e-05
3.0532e-05
2.75939e-05
2.48207e-05
2.4809e-05
2.58805e-05
2.62557e-05
2.45052e-05
1.94615e-05
9.41701e-06
2.66577e-07
8.5005e-07
2.45962e-05
4.66971e-05
5.64358e-05
5.90207e-05
5.83924e-05
5.56858e-05
5.26025e-05
4.95248e-05
4.67885e-05
4.45464e-05
4.28478e-05
4.16736e-05
4.09349e-05
4.05496e-05
4.04637e-05
4.06287e-05
4.09945e-05
4.1517e-05
4.21581e-05
4.28842e-05
4.36693e-05
4.44958e-05
4.53531e-05
4.62372e-05
4.7147e-05
4.80826e-05
4.90431e-05
5.00254e-05
5.10238e-05
5.20301e-05
5.30346e-05
5.40265e-05
5.4995e-05
5.59293e-05
5.68198e-05
5.76576e-05
5.84758e-05
5.92172e-05
5.97189e-05
6.02395e-05
6.0833e-05
6.1204e-05
6.14996e-05
6.16942e-05
6.17856e-05
6.17674e-05
6.16334e-05
6.13769e-05
6.09909e-05
6.0469e-05
5.98054e-05
5.89966e-05
5.80425e-05
5.69482e-05
5.57266e-05
5.43997e-05
5.30009e-05
5.15742e-05
5.01716e-05
4.88468e-05
4.76433e-05
4.65803e-05
4.56356e-05
4.47292e-05
4.37081e-05
4.23311e-05
4.00015e-05
3.72062e-05
3.44677e-05
3.15994e-05
2.91809e-05
2.58221e-05
2.38583e-05
2.41831e-05
2.47485e-05
2.35799e-05
1.94098e-05
9.53764e-06
3.0695e-07
8.88696e-07
2.50565e-05
4.72402e-05
5.70528e-05
5.9708e-05
5.89604e-05
5.60757e-05
5.26348e-05
4.93512e-05
4.6524e-05
4.42889e-05
4.26601e-05
4.15747e-05
4.09312e-05
4.06522e-05
4.06795e-05
4.09543e-05
4.14203e-05
4.20314e-05
4.27496e-05
4.35444e-05
4.43944e-05
4.52873e-05
4.62175e-05
4.71838e-05
4.81864e-05
4.92243e-05
5.02943e-05
5.13896e-05
5.2501e-05
5.36172e-05
5.47256e-05
5.58136e-05
5.68695e-05
5.78822e-05
5.88422e-05
5.97414e-05
6.06143e-05
6.14051e-05
6.19487e-05
6.25018e-05
6.31285e-05
6.35414e-05
6.38689e-05
6.40971e-05
6.42226e-05
6.42399e-05
6.41428e-05
6.39242e-05
6.35763e-05
6.30905e-05
6.24583e-05
6.16719e-05
6.07256e-05
5.96176e-05
5.83524e-05
5.6944e-05
5.54181e-05
5.3815e-05
5.2189e-05
5.06049e-05
4.91295e-05
4.7817e-05
4.66914e-05
4.57286e-05
4.48401e-05
4.3859e-05
4.19496e-05
3.91347e-05
3.6377e-05
3.3508e-05
3.03918e-05
2.73778e-05
2.37723e-05
2.28786e-05
2.29281e-05
2.26936e-05
1.93185e-05
9.74015e-06
3.54273e-07
9.17355e-07
2.53239e-05
4.75574e-05
5.74085e-05
6.02182e-05
5.92022e-05
5.62209e-05
5.25787e-05
4.91395e-05
4.62574e-05
4.40527e-05
4.25019e-05
4.15085e-05
4.09655e-05
4.07958e-05
4.09326e-05
4.13082e-05
4.18638e-05
4.25537e-05
4.33421e-05
4.42027e-05
4.51194e-05
4.60847e-05
4.70964e-05
4.81547e-05
4.92588e-05
5.04052e-05
5.15868e-05
5.27933e-05
5.40118e-05
5.52281e-05
5.64279e-05
5.75977e-05
5.87253e-05
5.98003e-05
6.08138e-05
6.17586e-05
6.26651e-05
6.34934e-05
6.40776e-05
6.46438e-05
6.52876e-05
6.57345e-05
6.6085e-05
6.63388e-05
6.64924e-05
6.65411e-05
6.64796e-05
6.63009e-05
6.59969e-05
6.55581e-05
6.49741e-05
6.42338e-05
6.33265e-05
6.22441e-05
6.09825e-05
5.95458e-05
5.79491e-05
5.62233e-05
5.4417e-05
5.25972e-05
5.0843e-05
4.92336e-05
4.78281e-05
4.66426e-05
4.56284e-05
4.4657e-05
4.35098e-05
4.11296e-05
3.81027e-05
3.52372e-05
3.21057e-05
2.88366e-05
2.50741e-05
2.23243e-05
2.19441e-05
2.2006e-05
1.922e-05
1.02002e-05
4.17188e-07
9.36485e-07
2.54289e-05
4.76287e-05
5.74792e-05
6.04e-05
5.94817e-05
5.62748e-05
5.24624e-05
4.89085e-05
4.60004e-05
4.38419e-05
4.23738e-05
4.1475e-05
4.10351e-05
4.09728e-05
4.12116e-05
4.16784e-05
4.23145e-05
4.30762e-05
4.39311e-05
4.48578e-05
4.58453e-05
4.68898e-05
4.79907e-05
4.91478e-05
5.03577e-05
5.16132e-05
5.29032e-05
5.42136e-05
5.55286e-05
5.6832e-05
5.81086e-05
5.93446e-05
6.05285e-05
6.16504e-05
6.27027e-05
6.36794e-05
6.46006e-05
6.54558e-05
6.6081e-05
6.66438e-05
6.72886e-05
6.77617e-05
6.81269e-05
6.83979e-05
6.8572e-05
6.86459e-05
6.86152e-05
6.84739e-05
6.82143e-05
6.7827e-05
6.73004e-05
6.66214e-05
6.5776e-05
6.47502e-05
6.35325e-05
6.21168e-05
6.05063e-05
5.87189e-05
5.6792e-05
5.47862e-05
5.27844e-05
5.0884e-05
4.91791e-05
4.77349e-05
4.65589e-05
4.55783e-05
4.4628e-05
4.28589e-05
3.99293e-05
3.71203e-05
3.3763e-05
3.02276e-05
2.66372e-05
2.24078e-05
2.08865e-05
2.02938e-05
1.88061e-05
1.08785e-05
4.99863e-07
9.46201e-07
2.5369e-05
4.74469e-05
5.74217e-05
6.05374e-05
5.95356e-05
5.62387e-05
5.23048e-05
4.86719e-05
4.57601e-05
4.36579e-05
4.2275e-05
4.14719e-05
4.11345e-05
4.11745e-05
4.15068e-05
4.20562e-05
4.27656e-05
4.35945e-05
4.45146e-05
4.55096e-05
4.65726e-05
4.7702e-05
4.88974e-05
5.01561e-05
5.14714e-05
5.28319e-05
5.42225e-05
5.5626e-05
5.70245e-05
5.84008e-05
5.97395e-05
6.10273e-05
6.22534e-05
6.34092e-05
6.44884e-05
6.54862e-05
6.64073e-05
6.72798e-05
6.79474e-05
6.84944e-05
6.91255e-05
6.96175e-05
6.99898e-05
7.02694e-05
7.04559e-05
7.05472e-05
7.05403e-05
7.04305e-05
7.02114e-05
6.98741e-05
6.94072e-05
6.87968e-05
6.80265e-05
6.70787e-05
6.59353e-05
6.45813e-05
6.3008e-05
6.12188e-05
5.92356e-05
5.71053e-05
5.49037e-05
5.27333e-05
5.07098e-05
4.8937e-05
4.7473e-05
4.62972e-05
4.52916e-05
4.42371e-05
4.17849e-05
3.85949e-05
3.56679e-05
3.19248e-05
2.79404e-05
2.36404e-05
2.075e-05
1.93008e-05
1.83961e-05
1.14768e-05
5.99124e-07
9.45819e-07
2.52097e-05
4.71982e-05
5.72228e-05
6.05639e-05
5.94904e-05
5.61345e-05
5.21209e-05
4.84396e-05
4.55406e-05
4.35008e-05
4.22036e-05
4.14959e-05
4.12579e-05
4.13931e-05
4.18107e-05
4.24352e-05
4.32127e-05
4.4106e-05
4.50916e-05
4.61576e-05
4.73e-05
4.85179e-05
4.98094e-05
5.11687e-05
5.25849e-05
5.40425e-05
5.55232e-05
5.70075e-05
5.8476e-05
5.99116e-05
6.1299e-05
6.2626e-05
6.38828e-05
6.5062e-05
6.61581e-05
6.71674e-05
6.80875e-05
6.89639e-05
6.96747e-05
7.01986e-05
7.08034e-05
7.13075e-05
7.16804e-05
7.19611e-05
7.21517e-05
7.22519e-05
7.22604e-05
7.21741e-05
7.1988e-05
7.16948e-05
7.12841e-05
7.07421e-05
7.00519e-05
6.91934e-05
6.8144e-05
6.68815e-05
6.53865e-05
6.36483e-05
6.16716e-05
5.94852e-05
5.71503e-05
5.47638e-05
5.24529e-05
5.03543e-05
4.85779e-05
4.71639e-05
4.60497e-05
4.50662e-05
4.32528e-05
4.01226e-05
3.74135e-05
3.35237e-05
2.9459e-05
2.51038e-05
2.06744e-05
1.88794e-05
1.80158e-05
1.21103e-05
7.12278e-07
9.40839e-07
2.49526e-05
4.68054e-05
5.68385e-05
6.03713e-05
5.93435e-05
5.59765e-05
5.19221e-05
4.82182e-05
4.53443e-05
4.33696e-05
4.21575e-05
4.15428e-05
4.13993e-05
4.16224e-05
4.21177e-05
4.28115e-05
4.3653e-05
4.46092e-05
4.5661e-05
4.68e-05
4.80239e-05
4.93312e-05
5.07173e-05
5.21725e-05
5.3682e-05
5.52267e-05
5.67858e-05
5.83381e-05
5.98642e-05
6.13469e-05
6.27721e-05
6.41285e-05
6.54075e-05
6.66025e-05
6.7709e-05
6.87237e-05
6.9644e-05
7.05117e-05
7.1265e-05
7.17667e-05
7.23351e-05
7.28444e-05
7.32129e-05
7.3488e-05
7.36752e-05
7.37761e-05
7.3791e-05
7.37187e-05
7.35563e-05
7.32981e-05
7.29357e-05
7.24565e-05
7.18441e-05
7.10774e-05
7.01316e-05
6.89789e-05
6.75916e-05
6.59463e-05
6.40306e-05
6.18531e-05
5.94537e-05
5.69136e-05
5.43569e-05
5.19389e-05
4.98124e-05
4.80777e-05
4.67306e-05
4.56303e-05
4.4505e-05
4.18032e-05
3.88086e-05
3.55651e-05
3.09196e-05
2.63364e-05
2.12765e-05
1.83816e-05
1.68759e-05
1.27195e-05
8.22611e-07
9.29639e-07
2.46435e-05
4.61513e-05
5.63227e-05
6.00535e-05
5.91108e-05
5.57764e-05
5.1717e-05
4.80126e-05
4.51723e-05
4.32633e-05
4.2134e-05
4.16089e-05
4.15539e-05
4.18576e-05
4.24241e-05
4.31822e-05
4.40847e-05
4.51026e-05
4.62208e-05
4.74335e-05
4.87388e-05
5.01334e-05
5.16095e-05
5.31535e-05
5.47468e-05
5.63676e-05
5.79933e-05
5.96021e-05
6.11748e-05
6.2695e-05
6.41496e-05
6.55285e-05
6.68241e-05
6.80308e-05
6.91448e-05
7.01634e-05
7.10848e-05
7.19325e-05
7.27117e-05
7.32151e-05
7.37362e-05
7.42446e-05
7.46047e-05
7.48688e-05
7.50462e-05
7.51401e-05
7.51527e-05
7.50848e-05
7.49356e-05
7.47017e-05
7.4377e-05
7.39509e-05
7.34084e-05
7.27293e-05
7.18877e-05
7.0853e-05
6.95912e-05
6.80685e-05
6.62575e-05
6.41462e-05
6.17509e-05
5.91293e-05
5.63914e-05
5.36967e-05
5.12306e-05
4.91544e-05
4.75414e-05
4.63267e-05
4.52984e-05
4.31618e-05
3.99869e-05
3.7308e-05
3.24677e-05
2.77405e-05
2.26613e-05
1.86292e-05
1.59241e-05
1.31529e-05
9.04385e-07
9.12298e-07
2.42543e-05
4.54345e-05
5.57072e-05
5.96237e-05
5.88058e-05
5.55439e-05
5.15119e-05
4.78257e-05
4.5025e-05
4.31806e-05
4.21308e-05
4.16906e-05
4.17176e-05
4.20951e-05
4.2727e-05
4.35451e-05
4.45058e-05
4.55841e-05
4.67681e-05
4.80534e-05
4.94376e-05
5.0915e-05
5.24742e-05
5.40982e-05
5.5765e-05
5.7451e-05
5.91325e-05
6.07878e-05
6.23982e-05
6.39484e-05
6.54266e-05
6.68234e-05
6.81325e-05
6.93489e-05
7.04694e-05
7.14921e-05
7.24163e-05
7.32433e-05
7.40224e-05
7.45517e-05
7.50221e-05
7.55243e-05
7.5873e-05
7.61224e-05
7.62846e-05
7.6365e-05
7.63674e-05
7.62948e-05
7.61484e-05
7.59276e-05
7.56285e-05
7.52435e-05
7.47598e-05
7.41588e-05
7.34156e-05
7.24983e-05
7.13692e-05
6.9987e-05
6.83117e-05
6.63127e-05
6.39817e-05
6.13489e-05
5.84992e-05
5.55815e-05
5.27961e-05
5.03514e-05
4.83908e-05
4.69165e-05
4.57474e-05
4.42519e-05
4.11016e-05
3.87394e-05
3.44866e-05
2.90189e-05
2.38866e-05
1.89241e-05
1.55004e-05
1.3312e-05
9.39121e-07
8.89656e-07
2.3759e-05
4.46024e-05
5.50094e-05
5.90953e-05
5.84392e-05
5.52868e-05
5.13115e-05
4.76597e-05
4.49024e-05
4.31202e-05
4.21455e-05
4.17847e-05
4.18872e-05
4.2332e-05
4.30242e-05
4.38983e-05
4.49145e-05
4.60511e-05
4.72987e-05
4.86537e-05
5.01124e-05
5.16661e-05
5.33002e-05
5.49944e-05
5.67244e-05
5.84653e-05
6.01931e-05
6.18866e-05
6.35278e-05
6.51028e-05
6.66005e-05
6.80129e-05
6.9334e-05
7.05595e-05
7.16864e-05
7.27125e-05
7.36364e-05
7.4457e-05
7.5224e-05
7.57831e-05
7.6206e-05
7.66973e-05
7.70327e-05
7.72648e-05
7.7408e-05
7.74696e-05
7.74553e-05
7.73698e-05
7.72168e-05
7.69982e-05
7.67128e-05
7.6356e-05
7.59179e-05
7.53827e-05
7.47272e-05
7.39203e-05
7.29228e-05
7.16886e-05
7.01681e-05
6.83151e-05
6.60985e-05
6.3519e-05
6.06307e-05
5.7559e-05
5.45037e-05
5.1708e-05
4.93889e-05
4.76424e-05
4.63702e-05
4.5262e-05
4.24824e-05
3.97892e-05
3.63957e-05
3.01878e-05
2.47743e-05
1.90343e-05
1.5668e-05
1.33029e-05
9.44215e-07
8.62899e-07
2.32233e-05
4.36824e-05
5.42293e-05
5.84865e-05
5.80212e-05
5.50111e-05
5.11192e-05
4.75159e-05
4.48043e-05
4.30807e-05
4.2176e-05
4.18885e-05
4.20598e-05
4.25661e-05
4.33135e-05
4.42397e-05
4.53081e-05
4.65001e-05
4.7808e-05
4.92282e-05
5.07551e-05
5.23773e-05
5.40772e-05
5.58317e-05
5.76152e-05
5.94018e-05
6.11678e-05
6.28927e-05
6.45597e-05
6.61557e-05
6.76708e-05
6.90975e-05
7.04304e-05
7.16654e-05
7.27995e-05
7.38302e-05
7.47556e-05
7.55742e-05
7.63255e-05
7.69149e-05
7.72987e-05
7.77736e-05
7.80947e-05
7.83081e-05
7.84298e-05
7.84689e-05
7.84327e-05
7.83278e-05
7.81601e-05
7.7934e-05
7.76512e-05
7.73101e-05
7.69043e-05
7.6421e-05
7.584e-05
7.51322e-05
7.42589e-05
7.31716e-05
7.18145e-05
7.01292e-05
6.80644e-05
6.5593e-05
6.27343e-05
5.95806e-05
5.63134e-05
5.31907e-05
5.04848e-05