/*--------------------------------*- C++ -*----------------------------------*\
  =========                 |
  \\      /  F ield         | OpenFOAM: The Open Source CFD Toolbox
   \\    /   O peration     | Website:  https://openfoam.org
    \\  /    A nd           | Version:  13
     \\/     M anipulation  |
\*---------------------------------------------------------------------------*/
FoamFile
{
    format      ascii;
    class       surfaceScalarField;
    location    "5.3";
    object      phi;
}
// * * * * * * * * * * * * * * * * * * * * * * * * * * * * * * * * * * * * * //

dimensions      [0 3 -1 0 0 0 0];

internalField   nonuniform List<scalar> 
12640
(
1.60425e-09
-1.6038e-09
1.43389e-08
-1.27347e-08
3.67204e-08
-2.23815e-08
6.2668e-08
-2.59477e-08
8.62555e-08
-2.35875e-08
1.04064e-07
-1.78084e-08
1.14789e-07
-1.07251e-08
1.19182e-07
-4.39268e-09
1.19351e-07
-1.69097e-10
1.17498e-07
1.85228e-09
1.15491e-07
2.00737e-09
1.14556e-07
9.35017e-10
1.15112e-07
-5.55615e-10
1.16872e-07
-1.76045e-09
1.19072e-07
-2.19995e-09
1.20835e-07
-1.76322e-09
1.21334e-07
-4.9868e-10
1.20061e-07
1.27281e-09
1.16291e-07
3.77032e-09
1.09139e-07
7.15164e-09
9.79756e-08
1.11635e-08
8.22835e-08
1.56921e-08
6.1603e-08
2.06805e-08
3.57499e-08
2.58531e-08
4.70961e-09
3.10403e-08
-3.16645e-08
3.63741e-08
-7.44166e-08
4.27522e-08
-1.25624e-07
5.12069e-08
-1.87953e-07
6.23292e-08
-2.6378e-07
7.58273e-08
-3.52847e-07
8.90666e-08
-4.52248e-07
9.9401e-08
-5.58739e-07
1.06491e-07
-6.69069e-07
1.1033e-07
-7.80334e-07
1.11265e-07
-8.89958e-07
1.09624e-07
-9.95783e-07
1.05826e-07
-1.09605e-06
1.00262e-07
-1.18932e-06
9.32733e-08
-1.27449e-06
8.51692e-08
-1.35065e-06
7.61578e-08
-1.41705e-06
6.64081e-08
-1.47307e-06
5.60193e-08
-1.51811e-06
4.50396e-08
-1.55157e-06
3.34581e-08
-1.57282e-06
2.12457e-08
-1.5821e-06
9.27911e-09
-1.57874e-06
-3.35792e-09
-1.56117e-06
-1.75667e-08
-1.53029e-06
-3.08827e-08
-1.48477e-06
-4.55129e-08
-1.42502e-06
-5.97562e-08
-1.35084e-06
-7.41834e-08
-1.26274e-06
-8.80948e-08
-1.16128e-06
-1.01462e-07
-1.04723e-06
-1.14051e-07
-9.21788e-07
-1.2544e-07
-7.86587e-07
-1.35201e-07
-6.43737e-07
-1.42849e-07
-4.95994e-07
-1.47743e-07
-3.46653e-07
-1.49341e-07
-1.99456e-07
-1.47198e-07
-5.84146e-08
-1.41041e-07
7.25162e-08
-1.30931e-07
1.89245e-07
-1.16729e-07
2.8729e-07
-9.80454e-08
3.63398e-07
-7.61074e-08
4.1481e-07
-5.14128e-08
4.39908e-07
-2.50979e-08
4.37917e-07
1.99145e-09
4.10891e-07
2.7026e-08
3.61311e-07
4.95799e-08
2.94752e-07
6.65592e-08
2.20177e-07
7.45752e-08
1.48901e-07
7.12756e-08
8.83855e-08
6.05155e-08
4.28562e-08
4.55293e-08
1.33505e-08
2.95057e-08
1.76336e-10
1.31741e-08
1.76335e-10
9.87962e-09
-1.14834e-08
4.06335e-08
-4.34886e-08
8.36037e-08
-6.53517e-08
1.2791e-07
-7.02539e-08
1.66214e-07
-6.18919e-08
1.94751e-07
-4.63456e-08
2.1277e-07
-2.87434e-08
2.21174e-07
-1.27964e-08
2.21688e-07
-6.8381e-10
2.16548e-07
6.99244e-09
2.07927e-07
1.06281e-08
1.97297e-07
1.15656e-08
1.85114e-07
1.1627e-08
1.7086e-07
1.24932e-08
1.53496e-07
1.51642e-08
1.31873e-07
1.98602e-08
1.05108e-07
2.62662e-08
7.21015e-08
3.42793e-08
3.16644e-08
4.42075e-08
-1.7584e-08
5.64e-08
-7.74854e-08
7.10649e-08
-1.49874e-07
8.80802e-08
-2.36014e-07
1.06821e-07
-3.36732e-07
1.26571e-07
-4.52592e-07
1.469e-07
-5.83483e-07
1.67265e-07
-7.27484e-07
1.86753e-07
-8.80808e-07
2.04531e-07
-1.03853e-06
2.2005e-07
-1.19506e-06
2.32356e-07
-1.34658e-06
2.40592e-07
-1.49167e-06
2.44489e-07
-1.62901e-06
2.43828e-07
-1.7573e-06
2.38624e-07
-1.8755e-06
2.29467e-07
-1.98291e-06
2.17033e-07
-2.07901e-06
2.01927e-07
-2.16349e-06
1.84735e-07
-2.2361e-06
1.65886e-07
-2.2967e-06
1.4577e-07
-2.34518e-06
1.24632e-07
-2.38141e-06
1.0264e-07
-2.40529e-06
7.98981e-08
-2.41671e-06
5.64623e-08
-2.41562e-06
3.23699e-08
-2.40169e-06
7.31886e-09
-2.37474e-06
-1.76758e-08
-2.33445e-06
-4.36445e-08
-2.28127e-06
-7.0752e-08
-2.21412e-06
-9.80266e-08
-2.13364e-06
-1.25992e-07
-2.03934e-06
-1.5406e-07
-1.93137e-06
-1.82157e-07
-1.80967e-06
-2.09793e-07
-1.6746e-06
-2.36533e-07
-1.52707e-06
-2.61578e-07
-1.36831e-06
-2.84198e-07
-1.19992e-06
-3.03596e-07
-1.02415e-06
-3.18621e-07
-8.43517e-07
-3.28372e-07
-6.60953e-07
-3.31905e-07
-4.79796e-07
-3.28355e-07
-3.03717e-07
-3.1712e-07
-1.36568e-07
-2.9808e-07
1.783e-08
-2.71126e-07
1.56496e-07
-2.36711e-07
2.75545e-07
-1.95156e-07
3.72194e-07
-1.48062e-07
4.43947e-07
-9.68509e-08
4.89467e-07
-4.35286e-08
5.08071e-07
8.42224e-09
4.99071e-07
5.85793e-08
4.64738e-07
1.00892e-07
4.06698e-07
1.32615e-07
3.27632e-07
1.50342e-07
2.37321e-07
1.50827e-07
1.48045e-07
1.34805e-07
7.23258e-08
1.05225e-07
2.06904e-08
6.48095e-08
2.08668e-08
1.8571e-08
-3.00544e-08
6.21847e-08
-8.71023e-08
1.12036e-07
-1.15203e-07
1.56601e-07
-1.14819e-07
1.91266e-07
-9.65574e-08
2.14898e-07
-6.99774e-08
2.28037e-07
-4.1882e-08
2.3161e-07
-1.63698e-08
2.26728e-07
4.19839e-09
2.14741e-07
1.89795e-08
1.97053e-07
2.83153e-08
1.74252e-07
3.43675e-08
1.46151e-07
3.97276e-08
1.11987e-07
4.6657e-08
7.06169e-08
5.65344e-08
2.06803e-08
6.97968e-08
-3.94675e-08
8.64139e-08
-1.11588e-07
1.064e-07
-1.97171e-07
1.2979e-07
-2.97458e-07
1.56687e-07
-4.1305e-07
1.86657e-07
-5.43686e-07
2.18716e-07
-6.88399e-07
2.51534e-07
-8.4506e-07
2.83231e-07
-1.01055e-06
3.12387e-07
-1.18084e-06
3.37559e-07
-1.35178e-06
3.57697e-07
-1.51952e-06
3.72266e-07
-1.68046e-06
3.80992e-07
-1.83189e-06
3.83787e-07
-1.97214e-06
3.80842e-07
-2.10012e-06
3.72465e-07
-2.2156e-06
3.59313e-07
-2.31897e-06
3.41992e-07
-2.41053e-06
3.21022e-07
-2.49063e-06
2.97136e-07
-2.55959e-06
2.70891e-07
-2.6177e-06
2.42838e-07
-2.66513e-06
2.13319e-07
-2.70203e-06
1.82674e-07
-2.72851e-06
1.51103e-07
-2.74455e-06
1.18685e-07
-2.75013e-06
8.54771e-08
-2.74512e-06
5.14549e-08
-2.72931e-06
1.65629e-08
-2.70279e-06
-1.92011e-08
-2.6647e-06
-5.57726e-08
-2.61492e-06
-9.34178e-08
-2.55351e-06
-1.32168e-07
-2.47978e-06
-1.71758e-07
-2.39361e-06
-2.12156e-07
-2.29475e-06
-2.52919e-07
-2.18314e-06
-2.9377e-07
-2.05878e-06
-3.34151e-07
-1.92198e-06
-3.73336e-07
-1.77326e-06
-4.10295e-07
-1.61354e-06
-4.43922e-07
-1.44411e-06
-4.73024e-07
-1.26668e-06
-4.9605e-07
-1.08359e-06
-5.11468e-07
-8.97505e-07
-5.17987e-07
-7.11615e-07
-5.14245e-07
-5.29503e-07
-4.99231e-07
-3.54868e-07
-4.72716e-07
-1.9113e-07
-4.34864e-07
-4.16077e-08
-3.86234e-07
9.09282e-08
-3.27692e-07
2.0383e-07
-2.60964e-07
2.95228e-07
-1.88249e-07
3.64199e-07
-1.125e-07
4.0944e-07
-3.68182e-08
4.31352e-07
3.66673e-08
4.28248e-07
1.03996e-07
4.01261e-07
1.59602e-07
3.51669e-07
1.99934e-07
2.82624e-07
2.19871e-07
2.00314e-07
2.17116e-07
1.15091e-07
1.90447e-07
4.06623e-08
1.39238e-07
6.15291e-08
2.58182e-08
-5.58726e-08
7.59385e-08
-1.37223e-07
1.24163e-07
-1.63427e-07
1.61719e-07
-1.52375e-07
1.87005e-07
-1.21844e-07
2.01008e-07
-8.39797e-08
2.04844e-07
-4.57181e-08
1.99578e-07
-1.11041e-08
1.85971e-07
1.78047e-08
1.64541e-07
4.04105e-08
1.35044e-07
5.78122e-08
9.70024e-08
7.24087e-08
4.9668e-08
8.7062e-08
-7.87897e-09
1.04204e-07
-7.66833e-08
1.25339e-07
-1.58011e-07
1.51125e-07
-2.53304e-07
1.81707e-07
-3.63838e-07
2.16933e-07
-4.90249e-07
2.56201e-07
-6.32234e-07
2.98672e-07
-7.88283e-07
3.42706e-07
-9.55409e-07
3.85843e-07
-1.13004e-06
4.26164e-07
-1.30803e-06
4.61218e-07
-1.48534e-06
4.89699e-07
-1.65814e-06
5.10362e-07
-1.8229e-06
5.22457e-07
-1.9768e-06
5.26162e-07
-2.11829e-06
5.22482e-07
-2.24681e-06
5.12316e-07
-2.36248e-06
4.96507e-07
-2.46584e-06
4.75822e-07
-2.55747e-06
4.5095e-07
-2.6381e-06
4.22619e-07
-2.70843e-06
3.91348e-07
-2.76904e-06
3.57751e-07
-2.82041e-06
3.22259e-07
-2.86287e-06
2.85296e-07
-2.89665e-06
2.47101e-07
-2.92186e-06
2.0789e-07
-2.93856e-06
1.67801e-07
-2.9467e-06
1.26823e-07
-2.94616e-06
8.49363e-08
-2.93673e-06
4.20222e-08
-2.91815e-06
-2.01305e-09
-2.89014e-06
-4.72176e-08
-2.85222e-06
-9.36908e-08
-2.80406e-06
-1.41571e-07
-2.74537e-06
-1.90863e-07
-2.67558e-06
-2.41543e-07
-2.59429e-06
-2.93449e-07
-2.50112e-06
-3.46087e-07
-2.39585e-06
-3.99047e-07
-2.27826e-06
-4.51738e-07
-2.14831e-06
-5.03288e-07
-2.00612e-06
-5.52483e-07
-1.85233e-06
-5.97715e-07
-1.68789e-06
-6.37462e-07
-1.51408e-06
-6.69856e-07
-1.3328e-06
-6.92747e-07
-1.14641e-06
-7.04379e-07
-9.5779e-07
-7.02867e-07
-7.70377e-07
-6.86644e-07
-5.88253e-07
-6.5484e-07
-4.1542e-07
-6.07697e-07
-2.5528e-07
-5.46374e-07
-1.10866e-07
-4.72106e-07
1.52568e-08
-3.87087e-07
1.21325e-07
-2.94317e-07
2.05986e-07
-1.9716e-07
2.68599e-07
-9.94313e-08
3.09906e-07
-4.63994e-09
3.30011e-07
8.38903e-08
3.28286e-07
1.61328e-07
3.04817e-07
2.23403e-07
2.60071e-07
2.64617e-07
1.97775e-07
2.79412e-07
1.23578e-07
2.64645e-07
4.79033e-08
2.14913e-07
1.09432e-07
3.14909e-08
-8.73635e-08
8.16413e-08
-1.87373e-07
1.22057e-07
-2.03843e-07
1.48863e-07
-1.79181e-07
1.62496e-07
-1.35477e-07
1.65015e-07
-8.64991e-08
1.57736e-07
-3.84387e-08
1.41403e-07
5.22858e-09
1.16155e-07
4.30532e-08
8.16035e-08
7.49619e-08
3.68196e-08
1.02596e-07
-1.93394e-08
1.28568e-07
-8.79985e-08
1.55721e-07
-1.70191e-07
1.86396e-07
-2.66887e-07
2.22035e-07
-3.78936e-07
2.63175e-07
-5.06848e-07
3.09618e-07
-6.50503e-07
3.60589e-07
-8.08661e-07
4.14359e-07
-9.78536e-07
4.68547e-07
-1.15656e-06
5.2073e-07
-1.33829e-06
5.67574e-07
-1.51955e-06
6.07425e-07
-1.6962e-06
6.37862e-07
-1.86387e-06
6.57371e-07
-2.01972e-06
6.6621e-07
-2.16259e-06
6.65326e-07
-2.29243e-06
6.56003e-07
-2.40962e-06
6.39673e-07
-2.51484e-06
6.17541e-07
-2.60892e-06
5.90585e-07
-2.69269e-06
5.59594e-07
-2.76691e-06
5.25165e-07
-2.83222e-06
4.8793e-07
-2.88926e-06
4.48385e-07
-2.93849e-06
4.06981e-07
-2.98029e-06
3.6406e-07
-3.01493e-06
3.19938e-07
-3.04259e-06
2.74756e-07
-3.06323e-06
2.2853e-07
-3.07691e-06
1.81482e-07
-3.08355e-06
1.33461e-07
-3.08301e-06
8.44021e-08
-3.07509e-06
3.40962e-08
-3.05947e-06
-1.76276e-08
-3.03578e-06
-7.09051e-08
-3.00353e-06
-1.25948e-07
-2.96227e-06
-1.82831e-07
-2.9116e-06
-2.4153e-07
-2.85103e-06
-3.02111e-07
-2.7799e-06
-3.64584e-07
-2.69751e-06
-4.28473e-07
-2.60347e-06
-4.93091e-07
-2.49732e-06
-5.5788e-07
-2.37868e-06
-6.21933e-07
-2.24716e-06
-6.84001e-07
-2.10306e-06
-7.41811e-07
-1.94696e-06
-7.93568e-07
-1.77961e-06
-8.37206e-07
-1.60251e-06
-8.69848e-07
-1.41766e-06
-8.89228e-07
-1.22761e-06
-8.92912e-07
-1.0354e-06
-8.7886e-07
-8.44737e-07
-8.45502e-07
-6.60267e-07
-7.92167e-07
-4.8669e-07
-7.19951e-07
-3.2733e-07
-6.31466e-07
-1.85236e-07
-5.2918e-07
-6.2941e-08
-4.16612e-07
3.80765e-08
-2.98178e-07
1.17178e-07
-1.78533e-07
1.74634e-07
-6.20954e-08
2.11511e-07
4.70136e-08
2.28229e-07
1.4461e-07
2.25284e-07
2.26347e-07
2.0302e-07
2.86881e-07
1.62359e-07
3.20073e-07
1.06308e-07
3.20695e-07
4.25493e-08
2.78672e-07
1.51982e-07
3.49631e-08
-1.22327e-07
7.89722e-08
-2.31382e-07
1.07534e-07
-2.32404e-07
1.2106e-07
-1.92707e-07
1.21985e-07
-1.36402e-07
1.12242e-07
-7.6757e-08
9.28096e-08
-1.90058e-08
6.38227e-08
3.42155e-08
2.48788e-08
8.19971e-08
-2.51142e-08
1.24955e-07
-8.74962e-08
1.64978e-07
-1.63612e-07
2.04684e-07
-2.5461e-07
2.46718e-07
-3.61323e-07
2.9311e-07
-4.84204e-07
3.44916e-07
-6.23117e-07
4.02087e-07
-7.77163e-07
4.63664e-07
-9.44306e-07
5.27732e-07
-1.12133e-06
5.91388e-07
-1.30383e-06
6.51048e-07
-1.48736e-06
7.04255e-07
-1.66726e-06
7.47478e-07
-1.83827e-06
7.78428e-07
-1.99705e-06
7.96648e-07
-2.14248e-06
8.02795e-07
-2.27463e-06
7.98361e-07
-2.39423e-06
7.84925e-07
-2.50228e-06
7.64061e-07
-2.5997e-06
7.37085e-07
-2.6873e-06
7.05145e-07
-2.76585e-06
6.69132e-07
-2.836e-06
6.29749e-07
-2.89843e-06
5.87595e-07
-2.95369e-06
5.43184e-07
-3.00222e-06
4.96922e-07
-3.04435e-06
4.49109e-07
-3.08035e-06
4.00058e-07
-3.11043e-06
3.50021e-07
-3.13478e-06
2.99103e-07
-3.15318e-06
2.46936e-07
-3.16587e-06
1.94164e-07
-3.17274e-06
1.40339e-07
-3.17375e-06
8.54113e-08
-3.16876e-06
2.9105e-08
-3.15765e-06
-2.87378e-08
-3.14019e-06
-8.83645e-08
-3.11597e-06
-1.50169e-07
-3.08446e-06
-2.14338e-07
-3.04502e-06
-2.80977e-07
-2.99697e-06
-3.50159e-07
-2.93953e-06
-4.22018e-07
-2.87171e-06
-4.96302e-07
-2.7926e-06
-5.72191e-07
-2.70145e-06
-6.49034e-07
-2.59779e-06
-7.25597e-07
-2.48108e-06
-8.00709e-07
-2.35073e-06
-8.72163e-07
-2.20674e-06
-9.37556e-07
-2.0492e-06
-9.94743e-07
-1.87927e-06
-1.03978e-06
-1.69853e-06
-1.06997e-06
-1.50905e-06
-1.08238e-06
-1.31378e-06
-1.07414e-06
-1.11606e-06
-1.04322e-06
-9.20044e-07
-9.8818e-07
-7.3122e-07
-9.08775e-07
-5.54526e-07
-8.0816e-07
-3.93762e-07
-6.89944e-07
-2.52252e-07
-5.58123e-07
-1.32326e-07
-4.18103e-07
-3.51781e-08
-2.75682e-07
3.92611e-08
-1.36535e-07
9.21038e-08
-5.82904e-09
1.24811e-07
1.11902e-07
1.38701e-07
2.12457e-07
1.34511e-07
2.91071e-07
1.12802e-07
3.41783e-07
7.59072e-08
3.5759e-07
3.0128e-08
3.24451e-07
1.8211e-07
3.52688e-08
-1.57595e-07
6.77161e-08
-2.63829e-07
8.22439e-08
-2.46932e-07
8.15462e-08
-1.92009e-07
6.91788e-08
-1.24035e-07
4.65645e-08
-5.41426e-08
1.40419e-08
1.35168e-08
-2.88132e-08
7.70706e-08
-8.29852e-08
1.36169e-07
-1.49823e-07
1.91792e-07
-2.3076e-07
2.45915e-07
-3.2704e-07
3.00964e-07
-4.39492e-07
3.5917e-07
-5.68365e-07
4.21983e-07
-7.13161e-07
4.89713e-07
-8.72533e-07
5.61459e-07
-1.04391e-06
6.35037e-07
-1.22342e-06
7.07249e-07
-1.40652e-06
7.74482e-07
-1.58832e-06
8.32845e-07
-1.7629e-06
8.78842e-07
-1.92605e-06
9.10626e-07
-2.07576e-06
9.28137e-07
-2.21194e-06
9.32827e-07
-2.33534e-06
9.26199e-07
-2.44699e-06
9.10011e-07
-2.54796e-06
8.85894e-07
-2.63923e-06
8.55331e-07
-2.72164e-06
8.19491e-07
-2.79588e-06
7.79383e-07
-2.86255e-06
7.35805e-07
-2.9222e-06
6.89399e-07
-2.97532e-06
6.40712e-07
-3.02231e-06
5.90175e-07
-3.06355e-06
5.38165e-07
-3.09918e-06
4.84735e-07
-3.1294e-06
4.30284e-07
-3.15446e-06
3.75076e-07
-3.17457e-06
3.19217e-07
-3.19022e-06
2.6259e-07
-3.20108e-06
2.05017e-07
-3.20711e-06
1.46368e-07
-3.20816e-06
8.64648e-08
-3.20408e-06
2.50248e-08
-3.19494e-06
-3.78731e-08
-3.18073e-06
-1.02581e-07
-3.1614e-06
-1.69496e-07
-3.13688e-06
-2.38862e-07
-3.10688e-06
-3.10972e-07
-3.07104e-06
-3.86005e-07
-3.02893e-06
-4.6412e-07
-2.97967e-06
-5.45569e-07
-2.9217e-06
-6.30162e-07
-2.85347e-06
-7.17259e-07
-2.77292e-06
-8.06148e-07
-2.67812e-06
-8.95512e-07
-2.5678e-06
-9.82484e-07
-2.44166e-06
-1.06369e-06
-2.29995e-06
-1.13645e-06
-2.14303e-06
-1.1967e-06
-1.97148e-06
-1.24152e-06
-1.78705e-06
-1.26682e-06
-1.59235e-06
-1.26883e-06
-1.39061e-06
-1.24496e-06
-1.18551e-06
-1.19328e-06
-9.8219e-07
-1.1121e-06
-7.87188e-07
-1.00316e-06
-6.06025e-07
-8.71106e-07
-4.42877e-07
-7.21271e-07
-3.01244e-07
-5.59735e-07
-1.83377e-07
-3.93549e-07
-8.99895e-08
-2.29922e-07
-2.02567e-08
-7.55618e-08
2.76742e-08
6.39715e-08
5.62449e-08
1.83886e-07
6.72011e-08
2.80115e-07
6.17671e-08
3.47217e-07
4.22865e-08
3.77071e-07
1.52027e-08
3.51534e-07
1.97312e-07
3.12486e-08
-1.88844e-07
4.93321e-08
-2.81913e-07
4.85636e-08
-2.46164e-07
3.32935e-08
-1.76739e-07
7.34119e-09
-9.80822e-08
-2.86347e-08
-1.81667e-08
-7.49674e-08
5.98495e-08
-1.32551e-07
1.34654e-07
-2.02644e-07
2.06262e-07
-2.86623e-07
2.75771e-07
-3.85729e-07
3.45021e-07
-5.00811e-07
4.16047e-07
-6.32078e-07
4.90437e-07
-7.78932e-07
5.68836e-07
-9.39808e-07
6.50589e-07
-1.11178e-06
7.33429e-07
-1.29068e-06
8.13936e-07
-1.47166e-06
8.88227e-07
-1.64889e-06
9.51713e-07
-1.81697e-06
1.00093e-06
-1.97245e-06
1.03432e-06
-2.1144e-06
1.05258e-06
-2.24312e-06
1.05686e-06
-2.35951e-06
1.04922e-06
-2.46463e-06
1.03132e-06
-2.55963e-06
1.00501e-06
-2.64547e-06
9.7173e-07
-2.72292e-06
9.32784e-07
-2.79263e-06
8.89205e-07
-2.85514e-06
8.41892e-07
-2.91091e-06
7.9157e-07
-2.96035e-06
7.38837e-07
-3.00379e-06
6.84154e-07
-3.04146e-06
6.27851e-07
-3.07387e-06
5.70572e-07
-3.10174e-06
5.12609e-07
-3.12548e-06
4.54017e-07
-3.14513e-06
3.94731e-07
-3.16043e-06
3.34516e-07
-3.17172e-06
2.7388e-07
-3.17891e-06
2.12204e-07
-3.1822e-06
1.49657e-07
-3.18171e-06
8.5981e-08
-3.17752e-06
2.0832e-08
-3.16982e-06
-4.55713e-08
-3.15856e-06
-1.13844e-07
-3.14363e-06
-1.84425e-07
-3.12486e-06
-2.57632e-07
-3.10199e-06
-3.33842e-07
-3.07465e-06
-4.13346e-07
-3.04248e-06
-4.96292e-07
-3.00519e-06
-5.82857e-07
-2.96219e-06
-6.73158e-07
-2.91273e-06
-7.66723e-07
-2.8559e-06
-8.62972e-07
-2.79038e-06
-9.61035e-07
-2.71276e-06
-1.06011e-06
-2.6186e-06
-1.15785e-06
-2.50457e-06
-1.25049e-06
-2.36984e-06
-1.33143e-06
-2.21566e-06
-1.3957e-06
-2.04438e-06
-1.43811e-06
-1.85698e-06
-1.45623e-06
-1.65694e-06
-1.445e-06
-1.4476e-06
-1.40262e-06
-1.2338e-06
-1.3259e-06
-1.02175e-06
-1.21522e-06
-8.19369e-07
-1.07348e-06
-6.32987e-07
-9.07653e-07
-4.67214e-07
-7.25508e-07
-3.25746e-07
-5.35017e-07
-2.10607e-07
-3.45061e-07
-1.21835e-07
-1.64334e-07
-5.80329e-08
1.69177e-10
-1.54689e-08
1.41322e-07
8.64526e-09
2.56001e-07
1.68461e-08
3.39016e-07
1.26443e-08
3.81273e-07
2.31163e-09
3.61867e-07
1.99624e-07
2.31457e-08
-2.1199e-07
2.5351e-08
-2.84118e-07
8.41249e-09
-2.29225e-07
-2.09802e-08
-1.47346e-07
-6.0557e-08
-5.85054e-08
-1.10223e-07
3.1499e-08
-1.70744e-07
1.2037e-07
-2.43294e-07
2.07205e-07
-3.29157e-07
2.92125e-07
-4.29502e-07
3.76117e-07
-5.4516e-07
4.60679e-07
-6.76354e-07
5.47241e-07
-8.2253e-07
6.36613e-07
-9.82153e-07
7.28459e-07
-1.15217e-06
8.20604e-07
-1.32823e-06
9.09491e-07
-1.5052e-06
9.90906e-07
-1.67694e-06
1.05997e-06
-1.83858e-06
1.11335e-06
-1.98753e-06
1.14988e-06
-2.12305e-06
1.16984e-06
-2.24551e-06
1.17504e-06
-2.35592e-06
1.16727e-06
-2.45537e-06
1.14866e-06
-2.54493e-06
1.12089e-06
-2.62554e-06
1.08561e-06
-2.69791e-06
1.0441e-06
-2.76265e-06
9.97522e-07
-2.82026e-06
9.46811e-07
-2.87117e-06
8.92809e-07
-2.91581e-06
8.36205e-07
-2.95459e-06
7.7762e-07
-2.98812e-06
7.17682e-07
-3.01703e-06
6.56757e-07
-3.04137e-06
5.94913e-07
-3.0612e-06
5.3244e-07
-3.07656e-06
4.69379e-07
-3.08767e-06
4.05838e-07
-3.09513e-06
3.41974e-07
-3.0992e-06
2.77952e-07
-3.10037e-06
2.13376e-07
-3.09892e-06
1.482e-07
-3.09508e-06
8.21436e-08
-3.0891e-06
1.48548e-08
-3.081e-06
-5.36772e-08
-3.07074e-06
-1.24099e-07
-3.05838e-06
-1.96782e-07
-3.04391e-06
-2.72103e-07
-3.02727e-06
-3.50481e-07
-3.00833e-06
-4.32288e-07
-2.98678e-06
-5.17843e-07
-2.96217e-06
-6.07465e-07
-2.93394e-06
-7.01395e-07
-2.9011e-06
-7.99559e-07
-2.8625e-06
-9.01574e-07
-2.81711e-06
-1.00642e-06
-2.76373e-06
-1.11349e-06
-2.70078e-06
-1.2208e-06
-2.62542e-06
-1.32584e-06
-2.53056e-06
-1.4263e-06
-2.41015e-06
-1.51611e-06
-2.26337e-06
-1.58489e-06
-2.09318e-06
-1.62641e-06
-1.90386e-06
-1.63432e-06
-1.69778e-06
-1.6087e-06
-1.47988e-06
-1.5438e-06
-1.25597e-06
-1.43912e-06
-1.03391e-06
-1.29554e-06
-8.23324e-07
-1.11824e-06
-6.31572e-07
-9.1726e-07
-4.63752e-07
-7.02837e-07
-3.23637e-07
-4.85176e-07
-2.12862e-07
-2.75109e-07
-1.30251e-07
-8.2442e-08
-7.33819e-08
8.4453e-08
-3.72727e-08
2.19891e-07
-1.75818e-08
3.19325e-07
-8.80787e-09
3.72499e-07
-5.61677e-09
3.58676e-07
1.94007e-07
1.19134e-08
-2.23903e-07
-3.0049e-09
-2.692e-07
-3.51284e-08
-1.97102e-07
-7.85825e-08
-1.03892e-07
-1.31818e-07
-5.26963e-09
-1.95186e-07
9.48669e-08
-2.6979e-07
1.94974e-07
-3.56859e-07
2.94274e-07
-4.57501e-07
3.92767e-07
-5.72504e-07
4.9112e-07
-7.02112e-07
5.90287e-07
-8.45876e-07
6.91005e-07
-1.00243e-06
7.93162e-07
-1.16877e-06
8.94805e-07
-1.34052e-06
9.92349e-07
-1.51241e-06
1.08138e-06
-1.67862e-06
1.15712e-06
-1.83459e-06
1.21594e-06
-1.97801e-06
1.25677e-06
-2.10804e-06
1.27991e-06
-2.22517e-06
1.28697e-06
-2.33031e-06
1.28018e-06
-2.4246e-06
1.26157e-06
-2.50901e-06
1.23307e-06
-2.5844e-06
1.19628e-06
-2.65143e-06
1.15265e-06
-2.71068e-06
1.10335e-06
-2.76263e-06
1.04947e-06
-2.80776e-06
9.91945e-07
-2.84655e-06
9.316e-07
-2.87949e-06
8.69141e-07
-2.90704e-06
8.05172e-07
-2.92945e-06
7.40095e-07
-2.94705e-06
6.74357e-07
-2.96028e-06
6.08147e-07
-2.96964e-06
5.41799e-07
-2.97572e-06
4.75458e-07
-2.97905e-06
4.09166e-07
-2.97997e-06
3.42897e-07
-2.97863e-06
2.76609e-07
-2.97535e-06
2.10094e-07
-2.97034e-06
1.43193e-07
-2.96382e-06
7.56179e-08
-2.95597e-06
7.00703e-09
-2.94689e-06
-6.27574e-08
-2.93672e-06
-1.34265e-07
-2.92564e-06
-2.07868e-07
-2.91375e-06
-2.83991e-07
-2.90115e-06
-3.6308e-07
-2.88787e-06
-4.45569e-07
-2.87382e-06
-5.31892e-07
-2.85881e-06
-6.22472e-07
-2.84254e-06
-7.17665e-07
-2.82445e-06
-8.17652e-07
-2.80365e-06
-9.22368e-07
-2.77864e-06
-1.03144e-06
-2.74782e-06
-1.14431e-06
-2.70906e-06
-1.25955e-06
-2.66049e-06
-1.37441e-06
-2.59964e-06
-1.48715e-06
-2.52279e-06
-1.59296e-06
-2.41997e-06
-1.68771e-06
-2.28456e-06
-1.76182e-06
-2.1176e-06
-1.80129e-06
-1.92612e-06
-1.80018e-06
-1.71323e-06
-1.75669e-06
-1.48546e-06
-1.66689e-06
-1.24988e-06
-1.53113e-06
-1.01678e-06
-1.35134e-06
-7.97765e-07
-1.13628e-06
-6.01319e-07
-8.99284e-07
-4.32935e-07
-6.5356e-07
-2.96185e-07
-4.11858e-07
-1.91723e-07
-1.86904e-07
-1.17652e-07
1.03813e-08
-6.88006e-08
1.7104e-07
-3.90731e-08
2.89598e-07
-2.05688e-08
3.53994e-07
-8.81074e-09
3.46918e-07
1.85196e-07
-1.38732e-09
-2.22516e-07
-3.26801e-08
-2.37907e-07
-7.99861e-08
-1.49796e-07
-1.37298e-07
-4.65807e-08
-2.03878e-07
6.13108e-08
-2.80589e-07
1.71578e-07
-3.68626e-07
2.83011e-07
-4.69113e-07
3.9476e-07
-5.82832e-07
5.06486e-07
-7.10058e-07
6.18346e-07
-8.50444e-07
7.30673e-07
-1.00284e-06
8.43402e-07
-1.16452e-06
9.54846e-07
-1.3312e-06
1.06148e-06
-1.49769e-06
1.15884e-06
-1.65865e-06
1.24234e-06
-1.80967e-06
1.30814e-06
-1.94835e-06
1.35463e-06
-2.0738e-06
1.38222e-06
-2.18628e-06
1.39238e-06
-2.28678e-06
1.38747e-06
-2.37629e-06
1.36969e-06
-2.45575e-06
1.34103e-06
-2.52591e-06
1.30323e-06
-2.58739e-06
1.25776e-06
-2.64075e-06
1.206e-06
-2.68649e-06
1.14909e-06
-2.72514e-06
1.08812e-06
-2.75725e-06
1.02405e-06
-2.78337e-06
9.5772e-07
-2.80406e-06
8.89829e-07
-2.81985e-06
8.2096e-07
-2.8313e-06
7.51554e-07
-2.83897e-06
6.8202e-07
-2.84342e-06
6.12601e-07
-2.84515e-06
5.43526e-07
-2.84456e-06
4.74867e-07
-2.84199e-06
4.06603e-07
-2.83776e-06
3.38662e-07
-2.83208e-06
2.70927e-07
-2.82518e-06
2.03196e-07
-2.81724e-06
1.35258e-07
-2.80846e-06
6.683e-08
-2.79902e-06
-2.42353e-09
-2.78905e-06
-7.27277e-08
-2.77875e-06
-1.44571e-07
-2.76829e-06
-2.18322e-07
-2.75787e-06
-2.94411e-07
-2.74767e-06
-3.73288e-07
-2.73782e-06
-4.55417e-07
-2.72843e-06
-5.41276e-07
-2.71956e-06
-6.31343e-07
-2.71117e-06
-7.26058e-07
-2.70305e-06
-8.25769e-07
-2.69472e-06
-9.30696e-07
-2.68527e-06
-1.04089e-06
-2.67348e-06
-1.15611e-06
-2.65751e-06
-1.27552e-06
-2.63427e-06
-1.39765e-06
-2.60106e-06
-1.52035e-06
-2.55463e-06
-1.63939e-06
-2.49113e-06
-1.75121e-06
-2.40422e-06
-1.84872e-06
-2.2805e-06
-1.92502e-06
-2.1183e-06
-1.96238e-06
-1.92352e-06
-1.95147e-06
-1.70265e-06
-1.88776e-06
-1.46312e-06
-1.77065e-06
-1.21473e-06
-1.59973e-06
-9.70284e-07
-1.38073e-06
-7.43598e-07
-1.12597e-06
-5.44272e-07
-8.52886e-07
-3.77919e-07
-5.78211e-07
-2.47433e-07
-3.1739e-07
-1.52132e-07
-8.49198e-08
-8.80761e-08
1.06985e-07
-4.79849e-08
2.49506e-07
-2.29471e-08
3.28957e-07
-7.45505e-09
3.31426e-07
1.77741e-07
-1.551e-08
-2.07006e-07
-6.31663e-08
-1.90251e-07
-1.24668e-07
-8.82935e-08
-1.95144e-07
2.38948e-08
-2.74445e-07
1.40612e-07
-3.63656e-07
2.60789e-07
-4.63956e-07
3.83311e-07
-5.76215e-07
5.07019e-07
-7.00791e-07
6.31062e-07
-8.37438e-07
7.54993e-07
-9.8522e-07
8.78455e-07
-1.14177e-06
9.99953e-07
-1.3031e-06
1.11617e-06
-1.46429e-06
1.22267e-06
-1.6204e-06
1.31495e-06
-1.76717e-06
1.38911e-06
-1.90188e-06
1.44284e-06
-2.02347e-06
1.47622e-06
-2.13206e-06
1.4908e-06
-2.22848e-06
1.4888e-06
-2.31369e-06
1.47268e-06
-2.38853e-06
1.44453e-06
-2.45369e-06
1.4062e-06
-2.50978e-06
1.35932e-06
-2.55738e-06
1.30536e-06
-2.59704e-06
1.24567e-06
-2.62942e-06
1.18146e-06
-2.65516e-06
1.11387e-06
-2.67498e-06
1.04387e-06
-2.68955e-06
9.72297e-07
-2.69958e-06
8.99853e-07
-2.7057e-06
8.27083e-07
-2.70856e-06
7.54409e-07
-2.70869e-06
6.82156e-07
-2.70661e-06
6.10516e-07
-2.70268e-06
5.39605e-07
-2.69724e-06
4.69424e-07
-2.69054e-06
3.99905e-07
-2.68282e-06
3.30934e-07
-2.67424e-06
2.62351e-07
-2.66498e-06
1.93939e-07
-2.65519e-06
1.25465e-07
-2.64501e-06
5.66481e-08
-2.63462e-06
-1.2811e-08
-2.62412e-06
-8.32239e-08
-2.61372e-06
-1.54971e-07
-2.60361e-06
-2.28435e-07
-2.594e-06
-3.04027e-07
-2.5851e-06
-3.82185e-07
-2.57715e-06
-4.63368e-07
-2.57036e-06
-5.48062e-07
-2.56494e-06
-6.36765e-07
-2.56103e-06
-7.29965e-07
-2.55869e-06
-8.28114e-07
-2.55778e-06
-9.31604e-07
-2.55795e-06
-1.04072e-06
-2.55851e-06
-1.15554e-06
-2.55824e-06
-1.2758e-06
-2.5551e-06
-1.40079e-06
-2.54641e-06
-1.52904e-06
-2.52784e-06
-1.65796e-06
-2.49523e-06
-1.78382e-06
-2.44381e-06
-1.90015e-06
-2.36741e-06
-2.00142e-06
-2.25354e-06
-2.07624e-06
-2.09484e-06
-2.11017e-06
-1.89605e-06
-2.08655e-06
-1.66528e-06
-2.00143e-06
-1.41259e-06
-1.85241e-06
-1.15082e-06
-1.64249e-06
-8.95724e-07
-1.38107e-06
-6.63518e-07
-1.08509e-06
-4.6467e-07
-7.77059e-07
-3.04195e-07
-4.77865e-07
-1.83724e-07
-2.05391e-07
-1.00689e-07
2.39493e-08
-4.84117e-08
1.9723e-07
-1.82482e-08
2.98793e-07
-2.90509e-09
3.16083e-07
1.74836e-07
-2.99758e-08
-1.7703e-07
-9.2764e-08
-1.27463e-07
-1.6756e-07
-1.34971e-08
-2.50294e-07
1.06628e-07
-3.41342e-07
2.3166e-07
-4.41843e-07
3.6129e-07
-5.52838e-07
4.94306e-07
-6.74867e-07
6.29048e-07
-8.07838e-07
7.64033e-07
-9.51e-07
8.98155e-07
-1.10235e-06
1.0298e-06
-1.25835e-06
1.15596e-06
-1.41451e-06
1.27233e-06
-1.56621e-06
1.37437e-06
-1.70937e-06
1.45811e-06
-1.84093e-06
1.52067e-06
-1.95946e-06
1.56138e-06
-2.06493e-06
1.58169e-06
-2.15797e-06
1.58384e-06
-2.23948e-06
1.57031e-06
-2.31025e-06
1.54345e-06
-2.37094e-06
1.50522e-06
-2.42216e-06
1.45742e-06
-2.46454e-06
1.4017e-06
-2.49876e-06
1.33957e-06
-2.52555e-06
1.27246e-06
-2.54573e-06
1.20164e-06
-2.56012e-06
1.12826e-06
-2.56955e-06
1.0533e-06
-2.5748e-06
9.77546e-07
-2.57659e-06
9.01644e-07
-2.57557e-06
8.26065e-07
-2.57231e-06
7.51148e-07
-2.56727e-06
6.77117e-07
-2.56084e-06
6.04081e-07
-2.5533e-06
5.32064e-07
-2.54488e-06
4.61005e-07
-2.53576e-06
3.90791e-07
-2.5261e-06
3.21272e-07
-2.51601e-06
2.5226e-07
-2.50559e-06
1.83523e-07
-2.49495e-06
1.14821e-07
-2.48419e-06
4.58851e-08
-2.47342e-06
-2.35749e-08
-2.46278e-06
-9.38705e-08
-2.45241e-06
-1.65338e-07
-2.44251e-06
-2.38334e-07
-2.4333e-06
-3.13241e-07
-2.42501e-06
-3.90467e-07
-2.41793e-06
-4.70448e-07
-2.41235e-06
-5.53651e-07
-2.40854e-06
-6.40567e-07
-2.4068e-06
-7.31704e-07
-2.40735e-06
-8.27573e-07
-2.41028e-06
-9.28667e-07
-2.41558e-06
-1.03542e-06
-2.42297e-06
-1.14816e-06
-2.43179e-06
-1.26698e-06
-2.4409e-06
-1.39168e-06
-2.44842e-06
-1.52152e-06
-2.45136e-06
-1.65502e-06
-2.44566e-06
-1.78953e-06
-2.42507e-06
-1.92074e-06
-2.38413e-06
-2.04235e-06
-2.31517e-06
-2.1452e-06
-2.20674e-06
-2.21861e-06
-2.04844e-06
-2.24485e-06
-1.84367e-06
-2.2062e-06
-1.60104e-06
-2.09504e-06
-1.33416e-06
-1.90937e-06
-1.05933e-06
-1.6559e-06
-7.95825e-07
-1.3486e-06
-5.62264e-07
-1.01062e-06
-3.68948e-07
-6.71182e-07
-2.19738e-07
-3.546e-07
-1.14209e-07
-8.15792e-08
-4.71814e-08
1.30202e-07
-1.09977e-08
2.62609e-07
3.02268e-09
3.02062e-07
1.77859e-07
-4.38651e-08
-1.33165e-07
-1.20435e-07
-5.08931e-08
-2.0727e-07
7.33387e-08
-3.01191e-07
2.00549e-07
-4.02716e-07
3.33184e-07
-5.12995e-07
4.7157e-07
-6.32855e-07
6.14165e-07
-7.62463e-07
7.58656e-07
-9.01306e-07
9.02876e-07
-1.04768e-06
1.04453e-06
-1.19857e-06
1.18069e-06
-1.35006e-06
1.30744e-06
-1.49783e-06
1.4201e-06
-1.63795e-06
1.51449e-06
-1.76716e-06
1.58731e-06
-1.88352e-06
1.63703e-06
-1.98671e-06
1.66457e-06
-2.07721e-06
1.6722e-06
-2.1558e-06
1.66243e-06
-2.22325e-06
1.63777e-06
-2.28024e-06
1.60043e-06
-2.32739e-06
1.55237e-06
-2.3654e-06
1.49543e-06
-2.39505e-06
1.43135e-06
-2.41721e-06
1.36173e-06
-2.43281e-06
1.28806e-06
-2.44281e-06
1.21164e-06
-2.44813e-06
1.13358e-06
-2.44962e-06
1.05479e-06
-2.44807e-06
9.75995e-07
-2.44414e-06
8.97713e-07
-2.4384e-06
8.20317e-07
-2.43129e-06
7.4404e-07
-2.42317e-06
6.69002e-07
-2.41432e-06
5.95227e-07
-2.40492e-06
5.22664e-07
-2.39511e-06
4.51201e-07
-2.38501e-06
3.80684e-07
-2.37467e-06
3.10935e-07
-2.36416e-06
2.41751e-07
-2.35352e-06
1.72886e-07
-2.3428e-06
1.04102e-07
-2.33207e-06
3.51519e-08
-2.3214e-06
-3.42468e-08
-2.31089e-06
-1.04379e-07
-2.30068e-06
-1.75547e-07
-2.29094e-06
-2.48071e-07
-2.28189e-06
-3.22295e-07
-2.27377e-06
-3.98585e-07
-2.26688e-06
-4.77337e-07
-2.26155e-06
-5.58983e-07
-2.25813e-06
-6.43987e-07
-2.25699e-06
-7.32848e-07
-2.25846e-06
-8.26098e-07
-2.26285e-06
-9.24284e-07
-2.27032e-06
-1.02795e-06
-2.2809e-06
-1.13758e-06
-2.29431e-06
-1.25356e-06
-2.30993e-06
-1.37606e-06
-2.32657e-06
-1.50488e-06
-2.34231e-06
-1.63927e-06
-2.35419e-06
-1.77765e-06
-2.35773e-06
-1.91719e-06
-2.34686e-06
-2.05323e-06
-2.31354e-06
-2.17851e-06
-2.24973e-06
-2.28242e-06
-2.14206e-06
-2.35252e-06
-1.98078e-06
-2.36749e-06
-1.7666e-06
-2.30922e-06
-1.51014e-06
-2.16582e-06
-1.22866e-06
-1.93739e-06
-9.42484e-07
-1.63477e-06
-6.7506e-07
-1.27804e-06
-4.46636e-07
-8.99606e-07
-2.66029e-07
-5.35207e-07
-1.35137e-07
-2.12472e-07
-5.05916e-08
4.56564e-08
-6.10869e-09
2.18126e-07
7.83909e-09
2.88115e-07
1.85698e-07
-5.65989e-08
-7.6566e-08
-1.45292e-07
3.77997e-08
-2.42885e-07
1.70932e-07
-3.46602e-07
3.04266e-07
-4.571e-07
4.43682e-07
-5.75439e-07
5.89908e-07
-7.02184e-07
7.40911e-07
-8.37134e-07
8.93607e-07
-9.78933e-07
1.04467e-06
-1.12506e-06
1.19066e-06
-1.27229e-06
1.32792e-06
-1.41662e-06
1.45177e-06
-1.55424e-06
1.55772e-06
-1.68178e-06
1.64204e-06
-1.79688e-06
1.7024e-06
-1.89873e-06
1.73889e-06
-1.98764e-06
1.75347e-06
-2.06424e-06
1.7488e-06
-2.12931e-06
1.72749e-06
-2.18352e-06
1.69199e-06
-2.22757e-06
1.64448e-06
-2.26221e-06
1.58701e-06
-2.28832e-06
1.52155e-06
-2.30689e-06
1.44992e-06
-2.31896e-06
1.3738e-06
-2.3256e-06
1.29469e-06
-2.32781e-06
1.21385e-06
-2.32651e-06
1.13228e-06
-2.32253e-06
1.05081e-06
-2.31654e-06
9.7001e-07
-2.30912e-06
8.9029e-07
-2.3007e-06
8.119e-07
-2.29163e-06
7.34965e-07
-2.28213e-06
6.59509e-07
-2.27239e-06
5.8548e-07
-2.26249e-06
5.12766e-07
-2.2525e-06
4.4121e-07
-2.24244e-06
3.70632e-07
-2.23234e-06
3.00827e-07
-2.22218e-06
2.31591e-07
-2.21197e-06
1.62676e-07
-2.20171e-06
9.3843e-08
-2.19143e-06
2.48725e-08
-2.18118e-06
-4.44998e-08
-2.17103e-06
-1.1453e-07
-2.16109e-06
-1.85482e-07
-2.15152e-06
-2.57641e-07
-2.14251e-06
-3.31302e-07
-2.13431e-06
-4.06786e-07
-2.12721e-06
-4.8444e-07
-2.12155e-06
-5.64645e-07
-2.11771e-06
-6.47825e-07
-2.11611e-06
-7.34446e-07
-2.11718e-06
-8.25026e-07
-2.12134e-06
-9.20129e-07
-2.12893e-06
-1.02036e-06
-2.1402e-06
-1.12631e-06
-2.15518e-06
-1.23858e-06