/*--------------------------------*- C++ -*----------------------------------*\
  =========                 |
  \\      /  F ield         | OpenFOAM: The Open Source CFD Toolbox
   \\    /   O peration     | Website:  https://openfoam.org
    \\  /    A nd           | Version:  13
     \\/     M anipulation  |
\*---------------------------------------------------------------------------*/
FoamFile
{
    format      ascii;
    class       volScalarField;
    location    "5.9";
    object      epsilon;
}
// * * * * * * * * * * * * * * * * * * * * * * * * * * * * * * * * * * * * * //

dimensions      [0 2 -3 0 0 0 0];

internalField   nonuniform List<scalar> 
6400
(
2.52725e-05
0.000129771
0.000314484
0.000507586
0.000654457
0.000737716
0.000768431
0.000771437
0.000775283
0.000802737
0.000870775
0.00100638
0.00122302
0.00152576
0.00190044
0.00232686
0.00278392
0.00326141
0.00373983
0.00420445
0.00466767
0.00516675
0.00575353
0.00646678
0.00728847
0.00813839
0.00898049
0.00981473
0.0106636
0.0115498
0.0124682
0.013381
0.0142788
0.0151554
0.0160379
0.0169307
0.0178548
0.0188166
0.0198294
0.0208977
0.0220291
0.0232319
0.0245136
0.0258903
0.0273696
0.028993
0.0308381
0.0330733
0.0355866
0.0380244
0.0405111
0.0429011
0.0451925
0.0472833
0.0491174
0.0505981
0.0514826
0.0518751
0.051959
0.0511813
0.0496041
0.047243
0.0441289
0.04034
0.0360079
0.0313061
0.0264956
0.0217693
0.0173112
0.0132805
0.010039
0.00731503
0.00510779
0.0034137
0.00219218
0.00135883
0.000815037
0.000465412
0.000218998
4.65054e-05
0.000122483
0.000121968
0.000199549
0.000289981
0.000358504
0.00040035
0.000421063
0.000430328
0.000440297
0.000463351
0.000512586
0.000607004
0.000762033
0.000989786
0.00129438
0.00167731
0.00214062
0.0026904
0.00333236
0.00407465
0.00492493
0.00591463
0.00709334
0.00849113
0.0101038
0.0119437
0.0138862
0.0157824
0.0175297
0.0190373
0.0201927
0.0210927
0.0217161
0.0221441
0.0224199
0.0225962
0.0227163
0.0228128
0.0229117
0.0230309
0.0231927
0.0234055
0.0236815
0.0239873
0.0243415
0.0247672
0.0252824
0.0258674
0.0265386
0.027245
0.0279975
0.0287522
0.0294911
0.0301718
0.0307527
0.0311221
0.0312649
0.031233
0.0309135
0.0302262
0.0291579
0.0277103
0.0258558
0.0236674
0.0212226
0.01862
0.015977
0.0134128
0.0110181
0.00887437
0.00707188
0.00552951
0.0042094
0.00308856
0.00216365
0.0014196
0.000865749
0.000485174
0.000251156
0.000246019
0.000268511
0.000222061
0.000297671
0.000375987
0.000423649
0.000447671
0.000460293
0.000474186
0.000502909
0.000562835
0.000676441
0.000870019
0.00116966
0.00159463
0.00215693
0.00286909
0.00374324
0.0047938
0.00603082
0.00746079
0.00908939
0.0108913
0.0127906
0.0146527
0.0163074
0.017537
0.0182836
0.0187097
0.0189226
0.0190592
0.0191577
0.0191274
0.0188484
0.01857
0.0182744
0.0180108
0.0177931
0.017649
0.0175845
0.0175707
0.0176542
0.0178231
0.0180746
0.0184442
0.0189214
0.0194939
0.0201457
0.0208747
0.0216775
0.0225404
0.0234535
0.0243969
0.0253491
0.0262782
0.0271457
0.0279044
0.028511
0.0288223
0.0289032
0.0286659
0.028006
0.0269062
0.0253213
0.0233606
0.0210964
0.018629
0.0160819
0.0135689
0.0111988
0.00905755
0.00720502
0.00564517
0.00435674
0.00330115
0.00244053
0.00174958
0.00118774
0.000742459
0.000459322
0.0006561
0.000467165
0.000384406
0.000472211
0.000548887
0.000588653
0.000608519
0.000627244
0.000664043
0.000739853
0.000883852
0.00113306
0.0015277
0.00210194
0.0028774
0.00386495
0.00506939
0.00649248
0.00811746
0.0098963
0.0117434
0.0135344
0.0151296
0.0163866
0.0171043
0.0174141
0.0174962
0.0174941
0.0171869
0.0166891
0.0161267
0.0154799
0.0149725
0.0145711
0.0142424
0.0139855
0.0138184
0.0137403
0.013719
0.013781
0.0139303
0.0141588
0.014467
0.0148556
0.0153269
0.0158772
0.0165068
0.0172161
0.0180048
0.0188721
0.0198146
0.0208253
0.021893
0.0230011
0.0241246
0.0252296
0.0262716
0.0271926
0.0279279
0.0283169
0.0284323
0.0281629
0.0274523
0.0263291
0.0246257
0.0224653
0.0199866
0.0173213
0.014615
0.0120155
0.00964817
0.00759624
0.00589123
0.0045195
0.00343678
0.0025889
0.00192487
0.0013922
0.000960099
0.000685337
0.00108673
0.000750381
0.000611369
0.000700405
0.000775762
0.00081787
0.000849483
0.000896109
0.000986673
0.00115684
0.00145235
0.00192538
0.00262307
0.00357432
0.00478491
0.00624098
0.00790996
0.00973229
0.0116068
0.0133843
0.0149028
0.015964
0.0164541
0.0166064
0.0165891
0.0162255
0.0155757
0.0147378
0.0139519
0.0132999
0.012709
0.0122069
0.0118197
0.0115138
0.0112863
0.011137
0.011066
0.0110433
0.0110692
0.0111743
0.01133
0.0115456
0.0118177
0.0121494
0.0125423
0.0129994
0.0135252
0.0141243
0.0148018
0.0155624
0.0164107
0.017349
0.0183765
0.0194872
0.0206697
0.0219047
0.0231643
0.0243973
0.0255443
0.0265316
0.0271971
0.0274678
0.0274315
0.0267849
0.0257224
0.0239395
0.0216257
0.0189421
0.0160601
0.0131737
0.0104771
0.00811569
0.00616622
0.00463298
0.00346681
0.00259084
0.00193325
0.00143304
0.00104924
0.000832744
0.00137968
0.00115537
0.000911277
0.000986569
0.00106438
0.00112235
0.00118582
0.00128924
0.00147545
0.00179765
0.00231735
0.00309286
0.00416101
0.00552339
0.00714391
0.00895162
0.0108395
0.0126616
0.0142415
0.0153468
0.015845
0.0159754
0.0158874
0.0153946
0.0145072
0.0135389
0.0126654
0.0118777
0.0112078
0.0106473
0.0101731
0.0097908
0.00948772
0.00924848
0.00906811
0.00893914
0.00886016
0.00882368
0.00881422
0.00884774
0.00891875
0.00902546
0.00917012
0.009353
0.00957859
0.00985045
0.0101754
0.0105606
0.011016
0.0115528
0.0121829
0.01292
0.0137766
0.0147626
0.0158837
0.0171365
0.0185081
0.0199787
0.0214975
0.0230088
0.0244145
0.0256019
0.0262936
0.0265286
0.0262101
0.0253678
0.0235346
0.0210732
0.018143
0.0149731
0.0118525
0.00903202
0.00667859
0.00485092
0.00351236
0.00255925
0.00188586
0.00140074
0.00104631
0.000889889
0.00148264
0.00171873
0.00129021
0.00134182
0.00143165
0.00152272
0.00164249
0.00183754
0.00216703
0.00269932
0.00350119
0.00461766
0.00605105
0.00775032
0.00961259
0.0114899
0.0131986
0.01455
0.0152355
0.0154502
0.0154173
0.0149355
0.0139807
0.0128984
0.0119128
0.0110154
0.0102507
0.00959293
0.00904245
0.00857897
0.0081908
0.00786927
0.00760169
0.00737964
0.00719729
0.00704916
0.00693167
0.00684078
0.00677453
0.00673972
0.00672566
0.00672468
0.00675801
0.00681328
0.00689974
0.00701656
0.00717075
0.00736692
0.00761361
0.00792161
0.00830441
0.00877866
0.00936672
0.010094
0.0109865
0.0120647
0.0133459
0.0148497
0.0165558
0.0184142
0.0203692
0.0223128
0.0241001
0.0254623
0.0260855
0.0261789
0.0255467
0.023707
0.0210283
0.0177114
0.0141428
0.0107104
0.00773483
0.00539646
0.00371229
0.00258019
0.00182644
0.00132965
0.00100925
0.000881771
0.00143822
0.00247474
0.00175268
0.00177894
0.00189419
0.00203895
0.00224223
0.00256496
0.00308039
0.00386195
0.00496281
0.00639104
0.00809188
0.00994505
0.0117764
0.0133805
0.0144675
0.0149267
0.0150156
0.0147066
0.0138751
0.0127155
0.0115997
0.0105838
0.00970543
0.00894693
0.00830646
0.00775928
0.00729605
0.00689994
0.00656205
0.00627279
0.00602437
0.00581143
0.00562972
0.00547587
0.00534666
0.00523952
0.00515348
0.00508766
0.00503983
0.00501591
0.00500751
0.00501381
0.00504895
0.00510401
0.00518626
0.00529732
0.00544293
0.00562723
0.00585741
0.00614272
0.00649598
0.00693492
0.00748619
0.00819338
0.00910664
0.010277
0.0117619
0.0135637
0.015681
0.0180457
0.0205259
0.0229669
0.0250847
0.0262944
0.0267013
0.0263593
0.0244807
0.0214042
0.0175709
0.0134926
0.0096908
0.00656232
0.00427194
0.00276585
0.00184456
0.00127764
0.000949936
0.000847093
0.00133651
0.00344829
0.00230198
0.00230726
0.0024679
0.00268573
0.00299786
0.00347695
0.00420199
0.00523504
0.00659416
0.00823062
0.0100209
0.0117775
0.0132778
0.0141741
0.0144975
0.0145237
0.0139839
0.0129019
0.0116831
0.010536
0.00952153
0.00864547
0.00790113
0.00726617
0.00672625
0.0062631
0.0058669
0.0055261
0.005234
0.0049836
0.00477004
0.00458919
0.00443719
0.00431096
0.00420813
0.0041265
0.00406437
0.0040199
0.00399568
0.00398597
0.00398498
0.00400583
0.00404161
0.00409475
0.00416616
0.0042574
0.00437075
0.00450903
0.00467623
0.00487738
0.00511909
0.00541047
0.00576378
0.0061971
0.00673751
0.00742548
0.0083301
0.00957929
0.0112773
0.0134752
0.0161184
0.0190992
0.0221899
0.025074
0.0269616
0.0276985
0.0276395
0.0256191
0.0220272
0.0175438
0.0128698
0.00869651
0.00547103
0.00329699
0.00200508
0.00129233
0.000908973
0.000794514
0.00122584
0.00465051
0.00294493
0.00293862
0.003159
0.00346736
0.00390602
0.00455333
0.00548107
0.0067218
0.00824137
0.00992574
0.011589
0.0130028
0.013802
0.014068
0.013991
0.0132802
0.0120851
0.0108554
0.00968393
0.00866612
0.00779529
0.00705638
0.0064299
0.00589619
0.00544163
0.00505394
0.00472505
0.00444693
0.00421393
0.0040203
0.00386149
0.00373303
0.00363117
0.00355232
0.00349352
0.00345205
0.00342813
0.00341771
0.0034156
0.00342736
0.00345052
0.00348632
0.00353328
0.00359299
0.0036656
0.00375259
0.00385533
0.00397579
0.00411632
0.00427994
0.00447054
0.00469338
0.00495566
0.00526598
0.00563598
0.00608564
0.00664694
0.00737355
0.00835374
0.0097526
0.0118221
0.0146014
0.0179865
0.0217187
0.0254149
0.0280235
0.0291102
0.0292013
0.0269378
0.0226765
0.0174072
0.0121156
0.00764261
0.00443119
0.00246074
0.00141442
0.00091717
0.000752274
0.00114169
0.00609556
0.0036945
0.00367813
0.0039665
0.00437534
0.00494432
0.00574796
0.00683659
0.00819886
0.0097414
0.011292
0.0126269
0.0133839
0.0136345
0.0134838
0.0126901
0.0114625
0.0101921
0.00901698
0.00798537
0.00711609
0.00638089
0.00576109
0.00523753
0.00479577
0.00442511
0.00411641
0.00386223
0.00365534
0.00348951
0.0033586
0.00325728
0.00318058
0.00312429
0.00308487
0.00306055
0.0030491
0.00304558
0.00305013
0.00306528
0.00308888
0.00312134
0.00316307
0.0032145
0.00327679
0.00335082
0.00343806
0.00353987
0.0036579
0.00379379
0.00394936
0.00412657
0.00432764
0.00455531
0.00481348
0.00510825
0.00544958
0.00585434
0.00634687
0.00696675
0.00779212
0.00896225
0.0107411
0.0134943
0.0171844
0.0215476
0.0260976
0.0294195
0.0307957
0.0309239
0.0282271
0.023072
0.0169405
0.0110949
0.00647896
0.00343831
0.00176502
0.000997507
0.000752667
0.00112932
0.00786815
0.00457931
0.00452349
0.00487892
0.00538705
0.00607277
0.00699565
0.00817298
0.0095432
0.0109595
0.0122126
0.0129518
0.0132019
0.0130329
0.0121986
0.0109952
0.00969702
0.00850052
0.00745986
0.0065809
0.00584799
0.00523328
0.00472052
0.00429414
0.00394305
0.00365751
0.0034286
0.003248
0.00310776
0.00300072
0.00292036
0.00286118
0.00281861
0.00278901
0.0027701
0.0027609
0.00275762
0.00275809
0.00276777
0.00278343
0.00280625
0.00283669
0.00287573
0.00292437
0.00298389
0.00305563
0.0031412
0.00324218
0.00336034
0.00349745
0.00365528
0.00383554
0.00403971
0.004269
0.00452437
0.00480684
0.00511835
0.00546359
0.0058535
0.00631056
0.00687589
0.00760795
0.00863784
0.0102054
0.0127941
0.0167114
0.0216777
0.0271233
0.0310997
0.0326622
0.0327025
0.0291611
0.0229324
0.0159422
0.00971564
0.00520622
0.00252356
0.00123663
0.000799293
0.0011868
0.00984846
0.00556232
0.00545548
0.0058732
0.00646804
0.00723971
0.00822375
0.00939876
0.0106565
0.0118133
0.0125387
0.0127906
0.0126323
0.0118248
0.010656
0.00935397
0.00812665
0.00706584
0.00617424
0.00543512
0.00482413
0.00431957
0.00390752
0.00357457
0.00330994
0.00310298
0.00294373
0.00282292
0.00273224
0.00266458
0.00261411
0.00257631
0.00254781
0.00252631
0.00251042
0.00249925
0.00249334
0.00249123
0.00249357
0.00250286
0.00251876
0.0025424
0.00257484
0.00261733
0.00267119
0.0027379
0.00281914
0.00291667
0.00303248
0.00316864
0.00332734
0.00351075
0.00372084
0.00395917
0.00422664
0.00452321
0.00484786
0.00519905
0.00557627
0.00598362
0.00643664
0.00697371
0.00765973
0.00860816
0.0100631
0.0125062
0.0165937
0.0221434
0.0285047
0.0330142
0.0346684
0.0342627
0.0294174
0.0219891
0.0142444
0.00797764
0.00388599
0.00176397
0.000958534
0.00139502
0.0119778
0.00662109
0.00645038
0.00691848
0.00757642
0.00838945
0.00936394
0.0104413
0.0114788
0.0121793
0.0124286
0.0123119
0.0115717
0.0104405
0.00914524
0.00788861
0.006793
0.00587983
0.00512798
0.00451366
0.00401391
0.00361145
0.00329261
0.00304391
0.00285334
0.00270916
0.00260092
0.00251949
0.00245741
0.00240884
0.00236949
0.00233646
0.00230791
0.00228291
0.00226114
0.00224274
0.00222815
0.00221892
0.00221511
0.0022148
0.00222339
0.00223997
0.00226556
0.00230146
0.00234884
0.00240917
0.00248407
0.00257536
0.00268517
0.00281586
0.00297005
0.00315053
0.00336017
0.0036016
0.00387695
0.00418731
0.00453223
0.00490924
0.00531395
0.00574115
0.00618836
0.00666341
0.00719851
0.00786778
0.00877895
0.0101833
0.0125924
0.0168814
0.023051
0.0303345
0.035092
0.0366237
0.0352789
0.0287058
0.0199519
0.0118418
0.00599896
0.00270496
0.00132125
0.00186188
0.0141871
0.00772877
0.00747935
0.00797886
0.00866737
0.0094686
0.0103587
0.0112489
0.0118985
0.0121386
0.0120772
0.0114218
0.0103481
0.00906306
0.00777903
0.00663781
0.00568817
0.00491442
0.00428841
0.00378633
0.00338785
0.00307681
0.00283834
0.00265806
0.00252303
0.00242154
0.00234395
0.00228256
0.00223171
0.00218746
0.00214739
0.00211016
0.00207529
0.00204287
0.00201333
0.00198728
0.00196548
0.0019487
0.00193895
0.00193517
0.0019359
0.00194753
0.00196752
0.00199765
0.00203883
0.00209238
0.00215979
0.00224285
0.00234369
0.0024648
0.00260908
0.00277985
0.00298074
0.00321557
0.00348802
0.00380118
0.0041568
0.00455446
0.00499062
0.00545826
0.00594764
0.00644982
0.00696512
0.00751976
0.00819293
0.00910202
0.0105148
0.0130156
0.0176345
0.024537
0.0327175
0.0371777
0.0383105
0.0352076
0.0265298
0.0167996
0.00894308
0.00411892
0.00193192
0.00255633
0.0164066
0.00885567
0.00851062
0.00901664
0.00969737
0.0104304
0.0111632
0.0117353
0.0119619
0.0119211
0.0113717
0.0103689
0.00910675
0.00779469
0.00659956
0.00559684
0.00478679
0.00413899
0.00362538
0.00322335
0.0029135
0.00267889
0.00250342
0.00237243
0.00227338
0.00219595
0.00213239
0.00207717
0.00202675
0.00197912
0.0019334
0.00188949
0.00184775
0.00180881
0.00177339
0.00174222
0.001716
0.00169538
0.00168155
0.00167508
0.00167341
0.00168045
0.00169675
0.00172214
0.00175784
0.00180482
0.00186448
0.00193844
0.00202872
0.00213778
0.00226857
0.00242464
0.00261009
0.00282959
0.00308817
0.00339087
0.00374211
0.00414473
0.00459868
0.0050996
0.00563777
0.00619851
0.00676594
0.00733258
0.00792018
0.00861721
0.00955159
0.0110356
0.0137777
0.0189699
0.0268756
0.0354134
0.0391826
0.0395749
0.0334043
0.0227949
0.0127967
0.00605271
0.00279183
0.00342444
0.01859
0.00997201
0.00951219
0.00999545
0.0106281
0.0112393
0.0117267
0.0119325
0.01187
0.0114272
0.0104976
0.00927224
0.00793825
0.00668096
0.00560878
0.00474372
0.00406017
0.00352435
0.00310961
0.00279365
0.00255669
0.00238082
0.00224982
0.00214999
0.00207049
0.00200328
0.001943
0.00188636
0.00183171
0.00177854
0.00172703
0.00167776
0.00163144
0.00158884
0.00155065
0.00151746
0.00148976
0.001468
0.00145272
0.00144524
0.00144282
0.0014471
0.00146083
0.00148253
0.00151353
0.00155457
0.00160686
0.00167184
0.00175136
0.00184767
0.00196362
0.00210267
0.00226904
0.00246777
0.00270468
0.00298624
0.00331914
0.00370953
0.00416168
0.00467622
0.00524797
0.00586416
0.00650434
0.00714451
0.00776899
0.00839773
0.00913346
0.0101181
0.0117444
0.0148891
0.0209151
0.0301644
0.038424
0.0412359
0.0395584
0.0296182
0.0176701
0.00859194
0.00392801
0.00441289
0.020698
0.0110495
0.0104535
0.0108834
0.0114307
0.011853
0.0120286
0.0119512
0.0115828
0.0107355
0.00955596
0.0082118
0.00688983
0.00573153
0.00479015
0.00405202
0.00348057
0.00304263
0.00271219
0.0024665
0.0022853
0.00215073
0.00204775
0.00196473
0.00189329
0.00182796
0.00176566
0.00170497
0.00164562
0.00158802
0.00153287
0.00148097
0.00143305
0.00138974
0.00135153
0.00131877
0.00129174
0.00127063
0.00125568
0.00124827
0.00124573
0.00124868
0.0012605
0.00127932
0.00130635
0.00134219
0.00138788
0.00144465
0.00151413
0.00159833
0.00169983
0.00182183
0.00196836
0.00214439
0.00235595
0.0026102
0.00291527
0.00327981
0.00371203
0.00421801
0.00479919
0.00544933
0.0061517
0.00687868
0.00759667
0.00828206
0.00895846
0.00974018
0.0108088
0.0126896
0.0165061
0.0236544
0.0344295
0.0413878
0.0428457
0.0367062
0.0236482
0.0118882
0.00538954
0.00547708
0.0226473
0.0120596
0.0113087
0.0116579
0.0120752
0.0122586
0.0122044
0.0118303
0.0110792
0.0099582
0.0086163
0.00723517
0.0059782
0.00493694
0.00412085
0.00349582
0.00302203
0.00266742
0.00240584
0.00221422
0.00207261
0.00196443
0.0018769
0.001801
0.00173101
0.00166379
0.00159807
0.00153374
0.00147134
0.00141166
0.00135554
0.00130368
0.00125664
0.0012148
0.0011784
0.00114757
0.00112238
0.00110286
0.00108907
0.00108222
0.00107985
0.0010822
0.00109251
0.00110901
0.00113269
0.00116407
0.00120402
0.00125361
0.00131423
0.00138764
0.00147609
0.00158244
0.00171032
0.00186436
0.00205034
0.00227543
0.00254831
0.00287904
0.0032786
0.00375767
0.00432441
0.00498104
0.00571953
0.00651748
0.00733736
0.00813373
0.00887725
0.00960491
0.0104395
0.0116502
0.0139623
0.0189062
0.027791
0.0391111
0.0438697
0.0428364
0.0305893
0.016109
0.00721221
0.00657703
0.0243651
0.012976
0.0120573
0.0123006
0.0125275
0.0125309
0.0121898
0.0115356
0.0104755
0.00915338
0.00772444
0.00636485
0.00520158
0.00427953
0.00357744
0.00305115
0.0026607
0.00237467
0.00216675
0.0020143
0.00189872
0.00180571
0.00172523
0.00165098
0.00157959
0.00150974
0.0014414
0.00137519
0.00131197
0.00125258
0.00119771
0.00114784
0.00110327
0.00106415
0.00103048
0.00100224
0.000979329
0.000961682
0.000949265
0.000943096
0.000940974
0.000943012
0.000952051
0.000966596
0.000987418
0.00101499
0.00105005
0.0010935
0.00114654
0.00121068
0.00128785
0.00138054
0.00149195
0.00162618
0.00178851
0.00198567
0.00222615
0.0025204
0.00288079
0.00332105
0.00385476
0.00449242
0.00523673
0.00607654
0.006981
0.00789845
0.00876807
0.00955764
0.0103355
0.0112373
0.0126949
0.0157511
0.0223012
0.0336593
0.0435383
0.0458825
0.0379906
0.0213976
0.00944579
0.00773556
0.0258102
0.0137783
0.0126795
0.0127842
0.0128632
0.0126549
0.0120736
0.0111048
0.00981976
0.00836317
0.00690669
0.0056065
0.00454863
0.00373943
0.00313812
0.00269651
0.0023754
0.00214378
0.00197575
0.00185002
0.00175024
0.00166487
0.00158665
0.00151168
0.00143843
0.00136683
0.00129753
0.00123143
0.00116938
0.00111206
0.0010599
0.00101314
0.00097182
0.000935894
0.000905224
0.00087965
0.000859006
0.000843155
0.00083201
0.000826463
0.000824558
0.000826327
0.000834248
0.000847097
0.000865468
0.000889791
0.00092069
0.000958956
0.0010056
0.00106192
0.00112958
0.0012107
0.00130804
0.00142517
0.00156676
0.00173886
0.00194933
0.00220825
0.0025282
0.00292434
0.00341372
0.00401329
0.00473597
0.00558413
0.00654109
0.00756321
0.00857909
0.00950932
0.0103266
0.0111318
0.0121615
0.0140657
0.0184177
0.0272616
0.0406735
0.0468164
0.0447112
0.0278196
0.0121651
0.00892227
0.0269618
0.0144605
0.0131699
0.0131285
0.0130618
0.0126332
0.0118179
0.0106061
0.00914994
0.00761551
0.00617501
0.00495571
0.00400416
0.00329744
0.00278349
0.00241316
0.00214818
0.0019582
0.00181852
0.00171
0.00161901
0.00153683
0.00145868
0.00138258
0.00130826
0.00123635
0.00116778
0.00110342
0.00104394
0.000989762
0.000941061
0.000897835
0.000859958
0.00082723
0.000799423
0.000776309
0.000757687
0.000743394
0.000733302
0.000728237
0.000726483
0.000727946
0.000734858
0.000746206
0.000762455
0.000783995
0.000811365
0.000845251
0.000886528
0.000936308
0.00099601
0.00106746
0.00115301
0.00125574
0.00137968
0.00153016
0.00171419
0.00194104
0.00222272
0.00257449
0.00301497
0.00356521
0.00424605
0.00507261
0.0060452
0.00713747
0.00828575
0.00939049
0.0103499
0.0111679
0.0120138
0.0132852
0.0160405
0.0225812
0.0349143
0.0465022
0.0488131
0.0353475
0.0155787
0.0102783
0.0278134
0.0150264
0.0135261
0.0133446
0.0131239
0.0125273
0.01147
0.01007
0.00849351
0.00692667
0.00553159
0.00440284
0.00355226
0.00293621
0.00249679
0.00218531
0.00196459
0.00180542
0.00168508
0.00158704
0.00150051
0.00141931
0.00134071
0.00126405
0.00118986
0.00111905
0.00105253
0.000990999
0.000934874
0.000884311
0.000839269
0.00079957
0.000764964
0.000735169
0.000709907
0.000688925
0.000672008
0.000658992
0.00064975
0.000645002
0.000643329
0.000644439
0.000650428
0.000660441
0.000674841
0.000693985
0.000718346
0.000748525
0.000785284
0.000829585
0.000882651
0.000946047
0.00102179
0.00111252
0.0012217
0.00135393
0.00151537
0.00171426
0.00196161
0.00227194
0.00266391
0.00316046
0.0037875
0.00457011
0.00552463
0.006646
0.00789195
0.00917079
0.0103506
0.0113158
0.0120575
0.0130177
0.0147782
0.0191608
0.0289736
0.0441102
0.0504693
0.0434777
0.0199974
0.0120666
0.028379
0.0154728
0.0137607
0.01344
0.0130827
0.0123064
0.0110675
0.00952252
0.00786921
0.00630436
0.00497272
0.00393616
0.00317802
0.00264075
0.00226398
0.00200016
0.00181349
0.0016765
0.00156888
0.00147692
0.00139246
0.0013115
0.00123275
0.00115648
0.00108355
0.00101491
0.00095131
0.000893186
0.000840707
0.000793812
0.000752295
0.000715863
0.000684192
0.000656962
0.000633876
0.000614678
0.000599162
0.00058717
0.000578585
0.000574027
0.000572377
0.000573108
0.000578252
0.000587072
0.000599854
0.000616924
0.000638704
0.000665725
0.000698658
0.000738346
0.000785854
0.000842534
0.000910126
0.00099089
0.0010878
0.00120481
0.00134726
0.00152235
0.00173992
0.00201327
0.00236017
0.00280371
0.00337234
0.00409784
0.00500951
0.00612236
0.00741885
0.00882765
0.0102137
0.0114076
0.0123181
0.0129913
0.014238
0.0170559
0.0243947
0.0392224
0.05072
0.0507492
0.0256921
0.0144528
0.0286593
0.015805
0.0138851
0.0134264
0.0129582
0.0120146
0.0106325
0.0089826
0.00728859
0.0057503
0.00449147
0.00354374
0.00286814
0.00239838
0.00207357
0.00184772
0.00168672
0.00156531
0.00146585
0.00137732
0.00129386
0.00121314
0.00113492
0.00105993
0.000989144
0.000923361
0.000863099
0.000808556
0.000759681
0.000716254
0.000677953
0.000644421
0.000615299
0.000590254
0.000568992
0.00055127
0.000536892
0.000525713
0.00051763
0.000513171
0.000511504
0.000511858
0.000516231
0.000523984
0.000535345
0.000550609
0.000570156
0.000594464
0.00062413
0.000659902
0.000702717
0.00075376
0.00081454
0.00088701
0.000973731
0.00107811
0.00120473
0.00135985
0.0015521
0.00179337
0.00210001
0.00249412
0.0030046
0.00366689
0.00451964
0.00559558
0.00690392
0.00840439
0.00997989
0.0114338
0.012586
0.0133133
0.0140937
0.0159734
0.0210729
0.0331849
0.0501005
0.0549945
0.0332649
0.0173766
0.0286421
0.0160208
0.0139095
0.0133485
0.0127391
0.0116741
0.0101836
0.00846392
0.00675776
0.00526241
0.00407955
0.00321439
0.00261124
0.00219865
0.00191643
0.00172039
0.00157845
0.00146781
0.00137351
0.00128697
0.00120419
0.0011241
0.0010471
0.000974096
0.000905995
0.000843399
0.000786581
0.000735528
0.000690025
0.000649738
0.00061428
0.000583261
0.000556313
0.00053311
0.00051337
0.000496865
0.000483415
0.000472887
0.00046519
0.000460763
0.000459048
0.000459069
0.000462734
0.000469535
0.000479642
0.000493323
0.000510924
0.000532878
0.000559726
0.000592139
0.000630953
0.000677218
0.000732261
0.000797788
0.000876017
0.000969889
0.00108336
0.00122184
0.00139283
0.00160681
0.00187848
0.00222829
0.0026842
0.00328272
0.00406805
0.00508601
0.00636933
0.00791111
0.00962931
0.0113396
0.0127779
0.0136916
0.0142582
0.0155173
0.0189007
0.0282129
0.0468537
0.056792
0.0425811
0.0207294
0.0284865
0.0161583
0.0138732
0.0131808
0.0124623
0.0113019
0.00973478
0.00797544
0.00627892
0.00483642
0.00372842
0.00293814
0.00239774
0.00203313
0.00178547
0.00161257
0.00148463
0.00138138
0.0012904
0.00120516
0.00112316
0.00104416
0.000968906
0.000898342
0.000833195
0.000773849
0.000720365
0.00067256
0.000630101
0.000592587
0.000559596
0.000530729
0.000505625
0.000483971
0.000465504
0.000450013
0.000437331
0.000427339
0.000419959
0.000415502
0.000413652
0.000413486
0.000416485
0.000422433
0.00043143
0.000443717
0.000459608
0.000479503
0.000503894
0.000533392
0.000568756
0.000610927
0.000661089
0.000720749
0.000791852
0.000876956
0.000979487
0.00110412
0.00125737
0.00144838
0.00169017
0.00200128
0.00240782
0.00294567
0.00366143
0.00460985
0.00584289
0.00738562
0.00919639
0.0111194
0.0128655
0.0141159
0.0147111
0.0154141
0.0177213
0.0248608
0.0416194
0.0571115
0.0521013
0.0240703
0.0281425
0.0162368
0.0137752
0.012951
0.0121428
0.0109118
0.00929656
0.00752255
0.0058516
0.00446693
0.00343
0.00270637
0.00221976
0.0018951
0.00167524
0.00152018
0.00140247
0.00130434
0.00121558
0.0011314
0.00105041
0.000972897
0.000899764
0.000831858
0.000769713
0.000713503
0.000663116
0.000618243
0.000578477
0.000543374
0.000512505
0.000485474
0.000461934
0.00044159
0.000424198
0.000409561
0.000397527
0.000387984
0.000380863
0.000376358
0.000374374
0.000374055
0.000376464
0.000381651
0.000389663
0.000400714
0.000415094
0.00043317
0.000455398
0.000482342
0.000514696
0.000553317
0.000599278
0.000653927
0.000718991
0.000796721
0.000890108
0.00100322
0.00114168
0.00131348
0.00153005
0.00180791
0.00217095
0.00265316
0.0033012
0.00417466
0.00533975
0.00684983
0.00870668
0.0108042
0.0128786
0.0144839
0.0152441
0.0157022
0.0171721
0.0221072
0.0363558
0.0563374
0.059731
0.0266247
0.0276105
0.0162354
0.0136107
0.0126772
0.0117945
0.0105155
0.00887648
0.00710792
0.00547363
0.0041482
0.00317693
0.0025118
0.00207091
0.00177926
0.00158166
0.00144029
0.00133007
0.00123553
0.00114841
0.00106528
0.000985527
0.000909784
0.000838958
0.000773751
0.000714503
0.00066121
0.000613624
0.00057135
0.000533933
0.000500914
0.000471864
0.000446401
0.000424195
0.000404969
0.000388495
0.00037459
0.000363111
0.000353956
0.000347054
0.000342507
0.000340399
0.000339943
0.000341841
0.000346351
0.000353488
0.00036344
0.000376476
0.000392936
0.000413246
0.000437928
0.000467627
0.000503135
0.000545435
0.000595753
0.000655645
0.000727115
0.000812803
0.000916264
0.00104241
0.00119818
0.00139358
0.00164321
0.00196859
0.00240118
0.00298601
0.00378428
0.00487132
0.00632265
0.00817914
0.0103869
0.0127261
0.0147797
0.0158137
0.0162396
0.0170227
0.0204164
0.0314978
0.0540603
0.0635391
0.027747
0.0269185
0.0162052
0.0134113
0.0123732
0.0114294
0.0101217
0.00847954
0.00673222
0.00514187
0.00387459
0.00296275
0.00234835
0.00194601
0.0016815
0.00150163
0.00137077
0.00126608
0.00117415
0.00108836
0.00100633
0.000928015
0.000854195
0.000785717
0.000723123
0.000666577
0.00061593
0.000570833
0.000530835
0.000495455
0.000464231
0.000436743
0.000412625
0.000391564
0.000373301
0.000357621
0.000344352
0.00033336
0.000324546
0.000317841
0.000313266
0.000311047
0.000310467
0.000311929
0.00031584
0.000322198
0.000331171
0.000343008
0.000358025
0.000376621
0.000399285
0.000426622
0.000459371
0.000498444
0.000544975
0.000600383
0.00066648
0.000745624
0.000840961
0.000956798
0.0010992
0.00127689
0.00150274
0.00179591
0.00218506
0.00271258
0.00343895
0.00444456
0.00582185
0.00764697
0.00992031
0.0124782
0.0149146
0.0163839
0.0169061
0.0172574
0.0195581
0.0282987
0.0499871
0.064895
0.0279253
0.0261051
0.0161329
0.0131867
0.0120505
0.0110574
0.00973745
0.00810877
0.00639479
0.00485269
0.00364083
0.00278189
0.002211
0.00184093
0.00159862
0.00143283
0.00131005
0.00120949
0.00111956
0.00103495
0.000954106
0.000877329
0.000805472
0.000739278
0.00067913
0.000625041
0.000576752
0.000533842
0.000495822
0.000462201
0.000432523
0.00040638
0.000383423
0.000363355
0.000345929
0.000330944
0.000318236
0.000307676
0.000299168
0.000292644
0.00028807
0.000285748
0.000285053
0.000286147
0.000289529
0.000295195
0.000303296
0.000314061
0.000327785
0.000344843
0.000365698
0.000390917
0.0004212
0.000457402
0.000500583
0.000552057
0.000613488
0.000687012
0.000775446
0.000882604
0.00101381
0.00117672
0.00138261
0.00164847
0.0020001
0.00247663
0.00313616
0.00406046
0.00535296
0.00711827
0.00940861
0.0121326
0.0149523
0.0169444
0.0176394
0.0178377
0.0191848
0.025792
0.0455419
0.0649226
0.0273854
0.025205
0.0160321
0.0129472
0.0117189
0.0106865
0.00936761
0.00776573
0.00609404
0.00460227
0.00344215
0.00262961
0.00209565
0.00175238
0.00152811
0.0013735
0.00125696
0.00115956
0.00107123
0.000987722
0.000908107
0.000832905
0.000762966
0.000698918
0.000641002
0.00058911
0.000542896
0.00050189
0.000465582
0.00043348
0.000405135
0.000380155
0.000358204
0.000339001
0.00032231
0.000307938
0.000295729
0.000285557
0.000277325
0.000270967
0.00026644
0.000264012
0.000263213
0.000263996
0.000266913
0.000271967
0.000279291
0.000289096
0.000301661
0.000317337
0.000336562
0.000359875
0.000387939
0.000421566
0.000461755
0.000509742
0.000567073
0.000635715
0.000718224
0.000818018
0.000939817
0.00109035
0.00127955
0.00152239
0.00184193
0.00227389
0.00287294
0.00371978
0.00492425
0.00661279
0.00888198
0.0117061
0.0148267
0.0174152
0.0184159
0.0185554
0.0191046
0.0239982
0.0414122
0.0628553
0.026519
0.024246
0.0159173
0.0127013
0.0113866
0.010323
0.00901572
0.00745087
0.00582789
0.00438687
0.0032743
0.00250198
0.00199896
0.00167773
0.00146805
0.00132229
0.00121061
0.00111566
0.00102866
0.000946227
0.000867848
0.00079419
0.000726062
0.000663981
0.000608063
0.000558106
0.000513699
0.000474341
0.00043951
0.000408717
0.000381525
0.000357553
0.000336479
0.000318034
0.000301991
0.000288164
0.000276401
0.000266579
0.000258602
0.000252401
0.000247932
0.000245413
0.000244518
0.000245042
0.000247554
0.000252065
0.000258697
0.000267646
0.000279172
0.000293605
0.000311362
0.000332954
0.000359014
0.000390317
0.000427814
0.00047268
0.000526371
0.000590722
0.00066809
0.00076158
0.000875419
0.00101558
0.0011908
0.0014143
0.0017066
0.00209996
0.00264504
0.00341959
0.00453587
0.00613661
0.0083582
0.0112369
0.0145656
0.0177333
0.0192234
0.0194439
0.0194816
0.0227644
0.0377243
0.059931
0.0254333
0.0232357
0.0158058
0.0124591
0.0110606
0.00997204
0.00868416
0.00716394
0.00559379
0.00420303
0.00313362
0.00239567
0.00191822
0.00161491
0.00141691
0.00127814
0.00117025
0.00107726
0.000991433
0.000910026
0.000832857
0.000760663
0.000694201
0.000633881
0.000579725
0.000531451
0.000488606
0.000450665
0.000417104
0.00038744
0.000361243
0.000338146
0.000317839
0.000300059
0.000284589
0.000271247
0.000259885
0.00025038
0.000242637
0.000236585
0.000232178
0.00022958
0.000228598
0.000228905
0.000231066
0.000235098
0.000241117
0.000249301
0.000259896
0.000273214
0.000289648
0.000309686
0.000333934
0.000363133
0.000398197
0.000440248
0.000490677
0.000551219
0.000624077
0.000712113
0.000819164
0.000950574
0.00111409
0.00132141
0.00159071
0.00195097
0.00244863
0.00315724
0.00418827
0.0056948
0.00784711
0.0107478
0.0142689
0.0178764
0.0199876