/*--------------------------------*- C++ -*----------------------------------*\
  =========                 |
  \\      /  F ield         | OpenFOAM: The Open Source CFD Toolbox
   \\    /   O peration     | Website:  https://openfoam.org
    \\  /    A nd           | Version:  13
     \\/     M anipulation  |
\*---------------------------------------------------------------------------*/
FoamFile
{
    format      ascii;
    class       volScalarField;
    location    "5.9";
    object      p;
}
// * * * * * * * * * * * * * * * * * * * * * * * * * * * * * * * * * * * * * //

dimensions      [0 2 -2 0 0 0 0];

internalField   nonuniform List<scalar> 
6400
(
1.07688e-08
1.88987e-05
2.74422e-05
1.31465e-05
-2.91298e-05
-9.47057e-05
-0.000174347
-0.000259341
-0.000343572
-0.00042408
-0.000501416
-0.000579476
-0.000662792
-0.000756393
-0.000865197
-0.000993149
-0.00114317
-0.00131707
-0.00151605
-0.00174091
-0.00199217
-0.0022708
-0.00257933
-0.00292195
-0.00330469
-0.00373234
-0.00420211
-0.00470551
-0.00522415
-0.00572411
-0.00619612
-0.00664587
-0.00707206
-0.0074719
-0.00784068
-0.0081708
-0.00845203
-0.00867229
-0.00881859
-0.00887788
-0.00883757
-0.00868639
-0.00841536
-0.00801887
-0.00749396
-0.00683672
-0.00603926
-0.00510794
-0.00405985
-0.00290623
-0.00166226
-0.000349134
0.00100713
0.00237531
0.00371818
0.00499099
0.00614895
0.00715044
0.00795445
0.00852689
0.00884603
0.0089054
0.00871435
0.00829553
0.00769616
0.00697277
0.00618936
0.00540937
0.00469156
0.00406825
0.00357525
0.00322988
0.00300311
0.00286765
0.00280667
0.00279592
0.00281565
0.00285025
0.00288859
0.00291563
-1.42708e-05
5.02882e-06
9.29992e-06
-9.70121e-06
-5.47258e-05
-0.000120326
-0.000196399
-0.000274698
-0.00035042
-0.000422207
-0.000491829
-0.000563112
-0.000640816
-0.00072943
-0.000832682
-0.000953939
-0.0010965
-0.0012629
-0.00145396
-0.00167006
-0.00191047
-0.00217515
-0.00246664
-0.00278783
-0.00314156
-0.00353391
-0.00397271
-0.00445819
-0.00497887
-0.00551307
-0.00603281
-0.00652557
-0.00699198
-0.00742934
-0.00783242
-0.00819345
-0.00850228
-0.00874733
-0.00891625
-0.00899706
-0.00897824
-0.00884962
-0.00860308
-0.00823229
-0.00773234
-0.00709959
-0.00633724
-0.00545147
-0.00444744
-0.00333409
-0.00213153
-0.000859647
0.000454857
0.00178093
0.00308172
0.00431799
0.00544819
0.00642968
0.00722472
0.00780121
0.00813683
0.00822458
0.00807307
0.00770691
0.00716717
0.00650576
0.00578703
0.0050693
0.00440754
0.00384494
0.00340492
0.0030954
0.00290618
0.00281339
0.00279241
0.00281828
0.00285937
0.00289719
0.00292929
0.00295511
-2.95978e-05
-8.04379e-06
-9.01056e-06
-3.66176e-05
-8.92987e-05
-0.000157545
-0.000230275
-0.000299462
-0.000362255
-0.000420247
-0.000476869
-0.000536848
-0.00060511
-0.000685381
-0.000780045
-0.000890819
-0.00101921
-0.00116741
-0.00133767
-0.00153256
-0.00175543
-0.0020096
-0.00229893
-0.00262803
-0.00300128
-0.00342106
-0.00388798
-0.00439933
-0.0049459
-0.00551148
-0.00607672
-0.00662517
-0.00714652
-0.00763391
-0.00808072
-0.00847867
-0.00881823
-0.00908917
-0.00928059
-0.00938164
-0.00938237
-0.009274
-0.00904921
-0.00870243
-0.00823062
-0.00763245
-0.00690255
-0.00605092
-0.00508561
-0.00401514
-0.00285538
-0.00162575
-0.000351185
0.00093893
0.00221053
0.00342648
0.00454579
0.00552674
0.00633254
0.006932
0.00730262
0.00743508
0.00733725
0.00703242
0.006559
0.00596756
0.00531443
0.00466152
0.00405928
0.003547
0.00314962
0.00288532
0.00274344
0.00269778
0.00271439
0.00277086
0.00283803
0.00289532
0.00294225
0.00297893
-3.79763e-05
-1.69551e-05
-2.50117e-05
-6.33477e-05
-0.000125909
-0.000197549
-0.000267065
-0.000328012
-0.000378886
-0.000421593
-0.000462077
-0.000506802
-0.000561131
-0.00062872
-0.000711375
-0.00080982
-0.000925255
-0.00106032
-0.00121871
-0.00140566
-0.00162782
-0.00189258
-0.00220744
-0.00257511
-0.00299804
-0.00347767
-0.00401092
-0.00458861
-0.00519608
-0.00581711
-0.00643563
-0.00703667
-0.0076074
-0.00813851
-0.00862191
-0.00904892
-0.00941116
-0.0096996
-0.00990468
-0.0100169
-0.0100281
-0.00993056
-0.00971783
-0.00938517
-0.0089301
-0.0083513
-0.0076482
-0.00682509
-0.00588836
-0.00484673
-0.00371438
-0.00250994
-0.00125653
1.8906e-05
0.0012852
0.00250621
0.00364097
0.00464934
0.00549312
0.00613971
0.00656566
0.00675787
0.00672087
0.00647712
0.00606308
0.00552585
0.00492168
0.00431041
0.00374395
0.0032636
0.00289461
0.00265063
0.00252501
0.0025038
0.00255977
0.00265132
0.00274983
0.00283707
0.00290773
0.00295661
-3.29584e-05
-1.85027e-05
-3.62471e-05
-8.57985e-05
-0.000157862
-0.000232607
-0.000298869
-0.000351561
-0.000390621
-0.000419955
-0.000446478
-0.000477553
-0.000518952
-0.000574264
-0.000645552
-0.000734539
-0.000844081
-0.000979549
-0.00114761
-0.00135602
-0.0016145
-0.00192836
-0.00230239
-0.00274115
-0.00324455
-0.00380755
-0.00442097
-0.00507122
-0.00574143
-0.0064158
-0.00707897
-0.00771859
-0.00832403
-0.00888497
-0.00939257
-0.00983848
-0.010215
-0.0105138
-0.0107266
-0.0108452
-0.010863
-0.0107739
-0.0105722
-0.0102534
-0.00981535
-0.00925747
-0.00857992
-0.00778508
-0.00687693
-0.00586285
-0.00475596
-0.00357418
-0.00233837
-0.0010717
0.000198616
0.00143682
0.00260082
0.00365316
0.00455585
0.00527338
0.00577997
0.00605897
0.00610835
0.00594482
0.00560506
0.00513406
0.00458552
0.00401666
0.00348208
0.00302487
0.00267337
0.00244033
0.00232524
0.00231204
0.00237738
0.00248822
0.00261134
0.00272533
0.00281797
0.00287576
-6.18879e-06
-4.61365e-06
-3.42845e-05
-9.71733e-05
-0.000177517
-0.000253629
-0.000316218
-0.000361657
-0.000390926
-0.000409836
-0.000426336
-0.000448249
-0.000481485
-0.000530213
-0.000597999
-0.000688986
-0.000809349
-0.000967386
-0.00117355
-0.00143526
-0.00175975
-0.00215414
-0.0026205
-0.00315661
-0.00375428
-0.00440238
-0.0050889
-0.00580068
-0.00652299
-0.00724106
-0.00794096
-0.00861111
-0.00924153
-0.00982291
-0.0103469
-0.0108053
-0.0111909
-0.0114964
-0.0117147
-0.0118383
-0.0118637
-0.0117856
-0.0115992
-0.0113006
-0.0108883
-0.010361
-0.00971805
-0.00896143
-0.00809381
-0.00712099
-0.00605268
-0.00490462
-0.00369407
-0.00243946
-0.00116513
9.01019e-05
0.00128699
0.00239357
0.00337199
0.0041812
0.00479438
0.00519104
0.00536328
0.00531885
0.00508714
0.00471315
0.00424777
0.00374468
0.00325817
0.00283406
0.00250369
0.00228272
0.00217192
0.00215881
0.00222194
0.00233324
0.0024625
0.00258583
0.00268742
0.00274806
5.22655e-05
3.72291e-05
-7.79295e-06
-8.71366e-05
-0.000172847
-0.000249436
-0.000308968
-0.000349117
-0.000372763
-0.000386892
-0.000400077
-0.000420353
-0.000454252
-0.000507566
-0.000586617
-0.000698573
-0.000853342
-0.00106248
-0.00133413
-0.00167696
-0.00209729
-0.00259723
-0.00316895
-0.00380222
-0.00448721
-0.00521245
-0.00596464
-0.00673051
-0.00749686
-0.00825071
-0.0089799
-0.00967381
-0.010323
-0.010919
-0.0114538
-0.0119189
-0.0123081
-0.012616
-0.0128369
-0.0129691
-0.0130067
-0.0129448
-0.0127794
-0.012508
-0.0121286
-0.0116384
-0.0110373
-0.0103265
-0.00951028
-0.00859513
-0.00758784
-0.00649504
-0.00532856
-0.00410693
-0.00285628
-0.00160259
-0.000374447
0.000794968
0.00186012
0.00277836
0.00352405
0.0040703
0.00440305
0.00452249
0.00444614
0.00421128
0.00386716
0.0034643
0.00305408
0.00268382
0.00238768
0.0021846
0.00207847
0.00206114
0.00211421
0.00221343
0.00233237
0.00244747
0.00254279
0.00259786
0.0001523
0.000117457
5.18754e-05
-4.11271e-05
-0.00013219
-0.000210025
-0.000268494
-0.000307385
-0.000331353
-0.000348389
-0.000367512
-0.000397162
-0.00044516
-0.000519941
-0.000630657
-0.000788245
-0.00100479
-0.00129145
-0.00165635
-0.00210624
-0.00263851
-0.00324542
-0.00391707
-0.00464203
-0.00540782
-0.00620173
-0.00701098
-0.00782318
-0.0086263
-0.00940884
-0.0101602
-0.0108709
-0.0115317
-0.0121339
-0.0126702
-0.0131353
-0.0135258
-0.0138373
-0.0140663
-0.0142105
-0.0142618
-0.0142168
-0.014072
-0.0138255
-0.0134773
-0.0130253
-0.0124696
-0.0118118
-0.011056
-0.0102074
-0.00927103
-0.00824888
-0.00714931
-0.00598882
-0.00478703
-0.00356094
-0.00232994
-0.00113203
-6.69855e-07
0.00103464
0.00193274
0.00265348
0.00318098
0.00350454
0.00363238
0.00358548
0.0034067
0.00314395
0.00284479
0.0025557
0.00231355
0.00214076
0.00204522
0.00202257
0.00206029
0.00213902
0.00223577
0.00233036
0.00240504
0.00244527
0.00029909
0.000244347
0.000154954
4.91049e-05
-4.833e-05
-0.000129016
-0.000189927
-0.000233171
-0.000265179
-0.000294885
-0.000331787
-0.000385176
-0.000464857
-0.00058207
-0.000749288
-0.000978599
-0.00128292
-0.00167292
-0.00215182
-0.00271634
-0.00335966
-0.00407059
-0.00483652
-0.0056442
-0.00648087
-0.00733386
-0.00819124
-0.00904146
-0.00987351
-0.010677
-0.0114426
-0.0121613
-0.012824
-0.0134243
-0.013959
-0.0144266
-0.0148228
-0.0151415
-0.015378
-0.0155261
-0.0155849
-0.0155522
-0.0154263
-0.0152056
-0.0148895
-0.014478
-0.0139711
-0.0133694
-0.0126752
-0.0118907
-0.0110195
-0.0100677
-0.0090435
-0.00795798
-0.00682452
-0.00565481
-0.00446026
-0.00326659
-0.00209879
-0.000982179
3.86721e-05
0.000938667
0.00168147
0.00223803
0.00260811
0.0027971
0.00283093
0.00275082
0.00260015
0.00242286
0.00225807
0.00213224
0.00205779
0.00203522
0.00205604
0.00210804
0.00217438
0.00223963
0.00228369
0.00230507
0.000499579
0.000423115
0.000307307
0.000187255
8.1365e-05
-5.04281e-06
-7.3128e-05
-0.000127801
-0.000177282
-0.000231419
-0.000300378
-0.000394688
-0.000526548
-0.000709961
-0.000958291
-0.00128406
-0.00169906
-0.00220733
-0.00280519
-0.00348506
-0.00423573
-0.0050429
-0.00589336
-0.00677362
-0.00767118
-0.00857382
-0.00947028
-0.0103498
-0.0112022
-0.0120183
-0.0127896
-0.0135087
-0.0141703
-0.0147706
-0.0153048
-0.0157683
-0.0161562
-0.0164655
-0.0166952
-0.0168425
-0.0169057
-0.0168834
-0.0167748
-0.0165787
-0.0162954
-0.015924
-0.0154651
-0.0149199
-0.0142897
-0.0135759
-0.0127809
-0.0119087
-0.0109646
-0.00995488
-0.00888658
-0.00776935
-0.00662173
-0.00546053
-0.00429959
-0.00315295
-0.00204709
-0.00100817
-7.91801e-05
0.000720538
0.00135206
0.00181066
0.00210109
0.00224848
0.00228676
0.00225534
0.00219306
0.0021324
0.00209158
0.00207654
0.00208427
0.00210866
0.00214094
0.00216969
0.00218071
0.00218357
0.000757032
0.000652564
0.000510157
0.000370742
0.000254104
0.000157967
7.66876e-05
2.12629e-06
-7.57727e-05
-0.000167777
-0.00028483
-0.000439242
-0.000645303
-0.000917715
-0.00126939
-0.00171126
-0.0022489
-0.00288048
-0.00359743
-0.00438751
-0.00523677
-0.00613059
-0.00705541
-0.00799803
-0.00894623
-0.00988835
-0.0108138
-0.0117125
-0.0125758
-0.0133954
-0.0141645
-0.0148772
-0.0155294
-0.0161171
-0.016637
-0.0170858
-0.0174605
-0.0177595
-0.0179818
-0.0181262
-0.0181916
-0.0181772
-0.018083
-0.0179091
-0.0176529
-0.0173166
-0.0169008
-0.0164064
-0.0158346
-0.0151868
-0.014465
-0.0136717
-0.0128104
-0.0118846
-0.0108979
-0.00985577
-0.00876695
-0.00764081
-0.00649022
-0.00533918
-0.00419911
-0.00308223
-0.0020123
-0.00101674
-0.00013493
0.0006033
0.00117916
0.00159532
0.0018656
0.00201926
0.00209021
0.0021142
0.00211978
0.00212091
0.00212185
0.00212121
0.00211926
0.00210963
0.00208976
0.00207652
0.00106006
0.000927651
0.000752166
0.000590675
0.000460367
0.000350187
0.000248772
0.0001448
2.64948e-05
-0.000117685
-0.00029987
-0.000533678
-0.000834121
-0.00121495
-0.0016867
-0.00225551
-0.00292093
-0.003675
-0.00450491
-0.00539646
-0.00633444
-0.00730436
-0.00829261
-0.0092863
-0.0102736
-0.0112435
-0.0121861
-0.0130928
-0.0139558
-0.0147686
-0.0155259
-0.0162233
-0.0168576
-0.0174259
-0.0179264
-0.0183569
-0.018716
-0.0190026
-0.0192162
-0.019356
-0.0194215
-0.0194125
-0.0193293
-0.0191721
-0.0189404
-0.018635
-0.0182569
-0.0178071
-0.017287
-0.0166978
-0.0160412
-0.0153192
-0.0145338
-0.0136873
-0.012782
-0.0118205
-0.0108066
-0.00974345
-0.00863648
-0.00749506
-0.00633189
-0.00517079
-0.00402
-0.00289116
-0.00181058
-0.000821244
4.23524e-05
0.000750683
0.00129196
0.0016729
0.00191662
0.00205312
0.00211933
0.00214462
0.00214329
0.00212276
0.00209007
0.00204625
0.00200093
0.00197404
0.00139518
0.00123357
0.00102071
0.000834394
0.000686786
0.000556991
0.000427635
0.000284116
0.000113178
-9.76341e-05
-0.000360985
-0.000691421
-0.00110286
-0.00160617
-0.0022077
-0.00290772
-0.00369928
-0.00456958
-0.00550376
-0.00648641
-0.00750204
-0.00853631
-0.00957574
-0.0106079
-0.0116215
-0.0126066
-0.0135544
-0.0144578
-0.0153105
-0.0161078
-0.0168457
-0.0175215
-0.018133
-0.0186787
-0.0191573
-0.019568
-0.0199099
-0.0201828
-0.0203864
-0.0205203
-0.0205847
-0.0205795
-0.0205053
-0.0203622
-0.0201508
-0.0198719
-0.0195263
-0.0191152
-0.01864
-0.0181018
-0.0175023
-0.0168428
-0.0161249
-0.0153497
-0.0145185
-0.0136324
-0.0126923
-0.0116991
-0.0106539
-0.00955825
-0.0084153
-0.00723262
-0.00602268
-0.00481087
-0.00360135
-0.00241762
-0.00130218
-0.000309544
0.000523388
0.00117
0.00162955
0.00191941
0.00207149
0.00213128
0.0021324
0.00209557
0.00203733
0.00196625
0.00190269
0.00186733
0.00174566
0.00155202
0.00129917
0.00108424
0.000915205
0.000759768
0.00059437
0.000401311
0.000166003
-0.000124196
-0.000482972
-0.000923992
-0.00145822
-0.00209238
-0.00282683
-0.00365552
-0.00456633
-0.00554362
-0.00657128
-0.00763325
-0.00871411
-0.00979973
-0.010877
-0.0119343
-0.0129614
-0.0139496
-0.0148918
-0.0157824
-0.016617
-0.0173924
-0.0181062
-0.0187568
-0.0193432
-0.0198647
-0.0203208
-0.0207114
-0.0210362
-0.0212952
-0.0214887
-0.0216167
-0.0216794
-0.021677
-0.0216102
-0.0214794
-0.0212853
-0.0210289
-0.0207111
-0.0203331
-0.0198962
-0.0194018
-0.0188511
-0.0182455
-0.0175859
-0.0168732
-0.0161078
-0.0152896
-0.014418
-0.013492
-0.0125101
-0.0114707
-0.0103722
-0.00921353
-0.00799624
-0.00672988
-0.00543268
-0.00412123
-0.00281963
-0.00158164
-0.000465914
0.000468949
0.00118367
0.00167209
0.00195217
0.00206876
0.00208115
0.00203115
0.00195111
0.0018588
0.00178368
0.00174325
0.00208801
0.00186087
0.00156514
0.00131941
0.00112485
0.00093773
0.000728423
0.000476766
0.000167295
-0.000213571
-0.000679274
-0.0012405
-0.00190429
-0.00267093
-0.00353489
-0.00448478
-0.00550477
-0.00657752
-0.00768612
-0.00881427
-0.00994679
-0.01107
-0.0121716
-0.0132412
-0.0142699
-0.0152509
-0.0161789
-0.0170498
-0.017861
-0.0186108
-0.0192979
-0.019922
-0.0204828
-0.0209803
-0.0214147
-0.0217861
-0.0220949
-0.0223411
-0.0225253
-0.0226477
-0.0227088
-0.0227088
-0.0226485
-0.0225284
-0.0223493
-0.0221121
-0.0218181
-0.0214682
-0.0210639
-0.0206064
-0.020097
-0.0195369
-0.0189269
-0.0182676
-0.017559
-0.0168004
-0.0159903
-0.0151265
-0.0142058
-0.0132242
-0.0121773
-0.0110604
-0.0098701
-0.00860507
-0.00726876
-0.00587453
-0.00445154
-0.00302866
-0.00167132
-0.000455407
0.00054104
0.00127002
0.00172777
0.00194263
0.00198405
0.00192855
0.00182868
0.00171787
0.00163512
0.00159003
0.00239653
0.00213592
0.0017966
0.0015181
0.00129397
0.00106901
0.000808822
0.00049127
9.94798e-05
-0.000381164
-0.000961007
-0.0016471
-0.00244032
-0.00333512
-0.00432061
-0.00538091
-0.00649769
-0.00765263
-0.00882835
-0.0100086
-0.0111788
-0.012326
-0.0134392
-0.0145096
-0.0155303
-0.0164961
-0.0174036
-0.0182504
-0.0190354
-0.0197579
-0.020418
-0.0210159
-0.021552
-0.022027
-0.0224413
-0.0227954
-0.0230897
-0.0233248
-0.0235009
-0.0236187
-0.0236786
-0.023681
-0.0236266
-0.0235159
-0.0233499
-0.0231295
-0.0228557
-0.0225298
-0.022153
-0.0217265
-0.0212517
-0.0207297
-0.0201612
-0.0195467
-0.018886
-0.0181783
-0.0174217
-0.0166134
-0.0157492
-0.0148238
-0.0138309
-0.0127633
-0.0116137
-0.0103761
-0.00904695
-0.00762833
-0.00613368
-0.004593
-0.0030552
-0.00159884
-0.000322055
0.000681567
0.00136268
0.0017286
0.00183649
0.0017883
0.00167223
0.00154402
0.00145236
0.00139924
0.00264915
0.00235325
0.00197128
0.00165854
0.00140069
0.00113263
0.000816598
0.000427892
-5.32459e-05
-0.000638714
-0.00133502
-0.00214442
-0.00306169
-0.0040761
-0.00517171
-0.00632928
-0.00752887
-0.00875157
-0.00997988
-0.011198
-0.0123922
-0.0135508
-0.0146646
-0.0157266
-0.0167317
-0.0176768
-0.01856
-0.0193805
-0.0201382
-0.0208337
-0.0214676
-0.0220409
-0.0225544
-0.0230089
-0.0234053
-0.0237441
-0.0240261
-0.0242517
-0.0244214
-0.0245356
-0.024595
-0.0245999
-0.024551
-0.024449
-0.0242946
-0.0240887
-0.0238325
-0.023527
-0.0231735
-0.0227731
-0.0223272
-0.0218367
-0.0213026
-0.0207252
-0.0201045
-0.0194395
-0.0187283
-0.017968
-0.0171541
-0.0162808
-0.0153408
-0.0143253
-0.0132247
-0.0120292
-0.0107305
-0.00932402
-0.00781216
-0.00621095
-0.00455933
-0.00292396
-0.00140408
-0.000118868
0.000829182
0.00139736
0.00162201
0.00160892
0.00148576
0.00133922
0.0012312
0.00116445
0.0028164
0.00249035
0.00206842
0.00172084
0.00142598
0.00111171
0.00073636
0.000271407
-0.000301563
-0.000991631
-0.00180224
-0.00272884
-0.00376123
-0.00488346
-0.00607544
-0.0073156
-0.00858303
-0.00985856
-0.011125
-0.0123672
-0.0135729
-0.0147322
-0.0158376
-0.0168841
-0.0178686
-0.0187896
-0.0196467
-0.0204403
-0.0211714
-0.0218411
-0.0224507
-0.0230015
-0.0234947
-0.0239313
-0.0243121
-0.0246381
-0.0249097
-0.0251276
-0.0252922
-0.025404
-0.0254635
-0.0254712
-0.0254277
-0.0253336
-0.0251896
-0.0249966
-0.0247556
-0.0244677
-0.024134
-0.0237557
-0.0233339
-0.0228698
-0.0223641
-0.0218173
-0.0212294
-0.0205997
-0.0199265
-0.0192068
-0.0184365
-0.0176096
-0.0167186
-0.0157541
-0.0147054
-0.0135605
-0.0123074
-0.0109364
-0.00944226
-0.00782955
-0.00612192
-0.00437286
-0.00267027
-0.00113395
9.74526e-05
0.000918178
0.00131893
0.00138414
0.00126712
0.00110216
0.000966906
0.000882812
0.00288259
0.00252973
0.00207115
0.00168887
0.0013555
0.000993327
0.000555915
1.34523e-05
-0.000650068
-0.00144167
-0.00235959
-0.00339417
-0.00452975
-0.00574572
-0.0070189
-0.00832619
-0.00964619
-0.0109598
-0.0122505
-0.0135045
-0.014711
-0.015862
-0.0169522
-0.0179784
-0.0189392
-0.0198345
-0.0206653
-0.0214327
-0.0221386
-0.0227845
-0.0233722
-0.023903
-0.0243784
-0.0247995
-0.0251673
-0.0254824
-0.0257456
-0.0259574
-0.0261182
-0.0262286
-0.0262889
-0.0262996
-0.0262613
-0.0261745
-0.02604
-0.0258586
-0.025631
-0.0253584
-0.0250417
-0.0246822
-0.0242808
-0.0238386
-0.0233564
-0.0228349
-0.022274
-0.0216733
-0.0210313
-0.0203456
-0.0196122
-0.0188258
-0.0179788
-0.017062
-0.0160643
-0.0149725
-0.013773
-0.012452
-0.0109992
-0.00940966
-0.00769282
-0.00588566
-0.00406515
-0.00233659
-0.000838916
0.000267079
0.00089508
0.00109158
0.0010107
0.000828833
0.000655406
0.000553187
0.00283331
0.00245812
0.00196749
0.00155201
0.00118003
0.000768364
0.000268013
-0.000349131
-0.00109892
-0.00198541
-0.00300127
-0.00413186
-0.00535653
-0.00665084
-0.00798944
-0.00934831
-0.010706
-0.0120438
-0.0133463
-0.0146013
-0.0157998
-0.0169359
-0.018006
-0.0190088
-0.0199444
-0.0208139
-0.021619
-0.0223619
-0.0230445
-0.023669
-0.0242371
-0.0247505
-0.0252107
-0.0256187
-0.0259754
-0.0262817
-0.0265381
-0.0267452
-0.0269034
-0.0270131
-0.0270747
-0.0270887
-0.0270554
-0.0269756
-0.0268498
-0.0266786
-0.026463
-0.0262038
-0.025902
-0.0255586
-0.0251746
-0.0247509
-0.0242885
-0.0237879
-0.0232493
-0.0226724
-0.0220561
-0.0213984
-0.020696
-0.019944
-0.0191356
-0.0182621
-0.0173124
-0.0162733
-0.01513
-0.0138667
-0.0124692
-0.0109266
-0.00923595
-0.00741575
-0.00552932
-0.00367404
-0.00196418
-0.000577903
0.000323339
0.000710302
0.000703079
0.000509855
0.000293189
0.000175036
0.00265994
0.00226772
0.00175063
0.00130452
0.000894012
0.000433265
-0.000126917
-0.000814544
-0.00164451
-0.00261642
-0.00371856
-0.00493136
-0.00622982
-0.00758663
-0.00897495
-0.0103704
-0.0117517
-0.0131012
-0.0144047
-0.0156519
-0.0168356
-0.0179519
-0.0189989
-0.0199768
-0.0208869
-0.0217313
-0.0225122
-0.0232323
-0.0238939
-0.0244993
-0.0250503
-0.0255487
-0.0259958
-0.0263928
-0.0267404
-0.0270395
-0.0272906
-0.0274942
-0.0276506
-0.0277603
-0.0278236
-0.0278409
-0.0278127
-0.0277393
-0.0276215
-0.0274597
-0.0272548
-0.0270076
-0.0267188
-0.0263895
-0.0260205
-0.0256127
-0.025167
-0.024684
-0.024164
-0.0236068
-0.0230117
-0.0223772
-0.0217005
-0.0209775
-0.0202024
-0.019367
-0.0184612
-0.0174721
-0.0163847
-0.0151821
-0.0138475
-0.0123666
-0.0107284
-0.00893237
-0.00701567
-0.00509001
-0.00323475
-0.00160675
-0.000417953
0.000207643
0.000322167
0.000138471
-0.000117944
-0.000251453
0.00235995
0.00195643
0.0014191
0.00094549
0.000497944
-9.53166e-06
-0.000625141
-0.00137702
-0.00227848
-0.00332501
-0.00450044
-0.00578073
-0.00713742
-0.00854113
-0.0099642
-0.0113822
-0.0127747
-0.0141249
-0.0154205
-0.0166529
-0.0178168
-0.0189101
-0.0199323
-0.0208849
-0.0217701
-0.0225905
-0.023349
-0.0240485
-0.0246913
-0.0252799
-0.0258161
-0.0263015
-0.0267376
-0.0271253
-0.0274654
-0.0277586
-0.0280055
-0.0282065
-0.028362
-0.0284721
-0.0285374
-0.0285581
-0.0285346
-0.0284674
-0.0283569
-0.0282037
-0.0280085
-0.027772
-0.0274949
-0.027178
-0.0268222
-0.0264283
-0.025997
-0.025529
-0.0250247
-0.0244841
-0.0239068
-0.0232915
-0.0226363
-0.0219377
-0.0211908
-0.0203887
-0.019522
-0.018579
-0.0175448
-0.0164025
-0.0151337
-0.0137214
-0.0121514
-0.0104113
-0.00850537
-0.00653129
-0.00459807
-0.00279414
-0.00134019
-0.000442738
-0.000150728
-0.000296631
-0.000577186
-0.000727497
0.00193633
0.00152752
0.000976293
0.000478754
-3.08305e-06
-0.000552878
-0.00121833
-0.00202739
-0.00299036
-0.00409949
-0.00533444
-0.00666737
-0.00806715
-0.00950301
-0.010947
-0.0123751
-0.0137677
-0.0151097
-0.0163903
-0.0176027
-0.0187435
-0.0198118
-0.0208087
-0.0217363
-0.0225976
-0.0233957
-0.0241337
-0.0248145
-0.0254406
-0.0260145
-0.0265378
-0.0270121
-0.0274388
-0.0278187
-0.0281526
-0.0284411
-0.0286847
-0.0288838
-0.0290388
-0.0291498
-0.0292171
-0.0292412
-0.0292223
-0.0291608
-0.0290572
-0.0289119
-0.0287256
-0.0284987
-0.0282321
-0.0279263
-0.0275822
-0.0272006
-0.026782
-0.0263271
-0.0258364
-0.02531
-0.0247477
-0.0241488
-0.0235117
-0.0228337
-0.0221109
-0.0213374
-0.0205052
-0.0196036
-0.0186189
-0.0175344
-0.0163311
-0.01499
-0.0134943
-0.0118276
-0.00997849
-0.00797766
-0.0060043
-0.00409425
-0.0024221
-0.00124852
-0.00073798
-0.00080883
-0.00108456
-0.00125849
0.00139695
0.000988905
0.000429717
-8.73336e-05
-0.000599479
-0.00118671
-0.00189569
-0.00275332
-0.00376732
-0.00492664
-0.00620737
-0.00757858
-0.00900722
-0.0104618
-0.0119144
-0.0133417
-0.0147254
-0.0160519
-0.0173121
-0.0185009
-0.0196164
-0.020659
-0.0216306
-0.0225342
-0.023373
-0.0241504
-0.0248697
-0.0255338
-0.0261452
-0.0267061
-0.0272182
-0.027683
-0.0281016
-0.0284749
-0.0288036
-0.0290883
-0.0293294
-0.0295271
-0.0296819
-0.029794
-0.0298635
-0.0298909
-0.0298763
-0.0298203
-0.029723
-0.029585
-0.0294067
-0.0291887
-0.0289316
-0.028636
-0.0283024
-0.0279317
-0.0275245
-0.0270812
-0.0266025
-0.0260886
-0.0255394
-0.0249546
-0.024333
-0.0236727
-0.0229705
-0.0222218
-0.0214197
-0.020555
-0.0196152
-0.0185849
-0.0174451
-0.0161752
-0.0147562
-0.0131702
-0.0113961
-0.00942965
-0.00741676
-0.00546041
-0.00363768
-0.00221689
-0.00146001
-0.00139619
-0.00164572
-0.00185543
0.000753636
0.000352461
-0.000208714
-0.000740623
-0.00127832
-0.00189768
-0.00264364
-0.00354101
-0.00459528
-0.00579254
-0.00710587
-0.008502
-0.0099466
-0.0114079
-0.0128585
-0.0142761
-0.0156437
-0.0169491
-0.0181851
-0.0193481
-0.0204372
-0.021454
-0.022401
-0.0232816
-0.0240994
-0.0248579
-0.0255602
-0.0262093
-0.0268076
-0.0273571
-0.0278594
-0.0283159
-0.0287276
-0.0290953
-0.0294197
-0.0297012
-0.0299402
-0.030137
-0.0302919
-0.0304051
-0.0304768
-0.0305074
-0.030497
-0.0304459
-0.0303546
-0.0302233
-0.0300525
-0.0298426
-0.0295942
-0.0293078
-0.0289839
-0.0286232
-0.0282262
-0.0277935
-0.0273256
-0.0268228
-0.0262853
-0.0257129
-0.0251049
-0.02446
-0.0237757
-0.0230485
-0.0222728
-0.0214408
-0.0205415
-0.0195609
-0.0184809
-0.0172807
-0.0159387
-0.0144358
-0.0127505
-0.0108647
-0.00882206
-0.00685029
-0.00495126
-0.00333777
-0.0023323
-0.0020794
-0.00227895
-0.00253573
2.27527e-05
-0.000367578
-0.000924532
-0.00146665
-0.00202555
-0.00267168
-0.00344726
-0.00437551
-0.00545959
-0.00668316
-0.00801693
-0.00942595
-0.0108752
-0.0123331
-0.013773
-0.0151736
-0.0165194
-0.0177999
-0.0190092
-0.020145
-0.0212075
-0.0221989
-0.0231223
-0.0239813
-0.0247796
-0.0255207
-0.0262077
-0.0268433
-0.0274299
-0.0279693
-0.028463
-0.0289122
-0.0293179
-0.0296808
-0.0300014
-0.0302802
-0.0305175
-0.0307137
-0.0308689
-0.0309833
-0.0310571
-0.0310907
-0.0310842
-0.0310378
-0.0309519
-0.0308269
-0.030663
-0.0304606
-0.0302202
-0.0299423
-0.0296273
-0.0292758
-0.0288883
-0.0284653
-0.0280073
-0.0275147
-0.0269878
-0.0264266
-0.0258308
-0.0251996
-0.0245312
-0.0238229
-0.0230705
-0.0222673
-0.0214043
-0.0204688
-0.0194443
-0.0183106
-0.0170448
-0.0156269
-0.0140372
-0.0122442
-0.0102284
-0.0082335
-0.00631973
-0.00458138
-0.00335384
-0.00288932
-0.00300169
-0.00332072
-0.000777441
-0.00115461
-0.00170255
-0.00225066
-0.00282595
-0.00349306
-0.00429108
-0.00524159
-0.00634565
-0.00758487
-0.00892822
-0.0103397
-0.011784
-0.0132301
-0.0146521
-0.0160303
-0.0173504
-0.0186034
-0.0197846
-0.0208927
-0.0219289
-0.0228958
-0.0237967
-0.0246355
-0.0254158
-0.026141
-0.0268141
-0.0274376
-0.0280136
-0.028544
-0.02903
-0.0294728
-0.0298732
-0.0302318
-0.0305492
-0.0308257
-0.0310617
-0.0312573
-0.0314129
-0.0315285
-0.0316044
-0.0316408
-0.0316379
-0.0315959
-0.0315151
-0.0313957
-0.0312382
-0.0310428
-0.0308098
-0.0305398
-0.0302331
-0.0298901
-0.0295114
-0.0290975
-0.0286487
-0.0281656
-0.0276486
-0.0270977
-0.0265131
-0.0258942
-0.0252401
-0.0245488
-0.023817
-0.0230395
-0.0222089
-0.0213141
-0.0203405
-0.0192689
-0.0180768
-0.0167419
-0.0152439
-0.0135526
-0.0116362
-0.00960931
-0.00770824
-0.00591973
-0.00451927
-0.00384004
-0.00383034
-0.00423767
-0.00162944
-0.00199127
-0.00252639
-0.00307627
-0.00366309
-0.00434549
-0.00515932
-0.00612422
-0.00723936
-0.00848482
-0.00982838
-0.0112335
-0.012665
-0.0140926
-0.0154916
-0.0168434
-0.0181351
-0.019359
-0.0205116
-0.0215923
-0.0226029
-0.0235464
-0.0244262
-0.0252462
-0.0260098
-0.0267205
-0.0273808
-0.0279933
-0.0285599
-0.0290821
-0.0295613
-0.0299983
-0.030394
-0.0307488
-0.0310633
-0.0313378
-0.0315726
-0.0317679
-0.0319238
-0.0320406
-0.0321184
-0.0321574
-0.0321578
-0.0321199
-0.0320438
-0.0319297
-0.0317781
-0.031589
-0.031363
-0.0311003
-0.0308013
-0.0304663
-0.0300959
-0.0296905
-0.0292504
-0.0287763
-0.0282685
-0.0277274
-0.0271532
-0.0265458
-0.0259047
-0.0252287
-0.0245155
-0.0237612
-0.0229596
-0.0221016
-0.0211743
-0.0201605
-0.0190384
-0.017784
-0.0163764
-0.0147912
-0.0129927
-0.0109773
-0.00909239
-0.00731589
-0.00580735
-0.00492977
-0.00479036
-0.00529281
-0.00251551
-0.00286014
-0.00337913
-0.0039266
-0.00452048
-0.00521303
-0.0060367
-0.007009
-0.00812748
-0.00937114
-0.0107071
-0.0120987
-0.0135114
-0.0149155
-0.0162877
-0.0176104
-0.0188723
-0.0200666
-0.0211907
-0.0222448
-0.0232309
-0.0241521
-0.0250122
-0.0258147
-0.026563
-0.0272602
-0.027909
-0.0285115
-0.0290695
-0.0295843
-0.0300573
-0.0304891
-0.0308805
-0.0312319
-0.0315439
-0.0318166
-0.0320503
-0.0322452
-0.0324015
-0.0325194
-0.0325989
-0.0326404
-0.0326439
-0.0326096
-0.0325378
-0.0324287
-0.0322824
-0.0320993
-0.0318797
-0.0316238
-0.031332
-0.0310045
-0.0306419
-0.0302445
-0.0298127
-0.0293471
-0.0288481
-0.0283163
-0.0277519
-0.0271553
-0.0265264
-0.0258645
-0.0251682
-0.0244348
-0.0236593
-0.0228345
-0.0219494
-0.0209884
-0.0199314
-0.0187547
-0.0174367
-0.0159563
-0.014273
-0.0123446
-0.0104525
-0.00871946
-0.00716977
-0.00613798
-0.0058968
-0.00646634
-0.00341842
-0.00374387
-0.00424391
-0.00478568
-0.00538262
-0.00608066
-0.00690889
-0.00788259
-0.00899793
-0.0102332
-0.0115553
-0.012928
-0.0143172
-0.0156944
-0.0170373
-0.0183297
-0.0195612
-0.0207261
-0.0218224
-0.0228509
-0.0238137
-0.0247141
-0.0255557
-0.026342
-0.0270762
-0.0277612
-0.0283994
-0.0289927
-0.0295428
-0.030051
-0.0305182
-0.0309453
-0.0313328
-0.0316811
-0.0319907
-0.0322618
-0.0324945
-0.0326892
-0.0328458
-0.0329647
-0.0330458
-0.0330895
-0.0330957
-0.0330649
-0.032997
-0.0328923
-0.0327511
-0.0325735
-0.0323597
-0.0321102
-0.031825
-0.0315047
-0.0311494
-0.0307596
-0.0303357
-0.0298783
-0.0293877
-0.0288647
-0.0283098
-0.0277234
-0.0271059
-0.0264572
-0.0257765
-0.025062
-0.0243103
-0.0235155
-0.0226685
-0.0217558
-0.0207591
-0.0196558
-0.0184223
-0.0170381
-0.015469
-0.0136774
-0.0117854
-0.0101043
-0.00856024
-0.00742997
-0.00712996
-0.00772651
-0.00432142
-0.004626
-0.00510486
-0.0056383
-0.00623493
-0.00693448
-0.00776277
-0.00873292
-0.00983993
-0.0110615
-0.0123651
-0.0137148
-0.0150774
-0.0164256
-0.017738
-0.0189996
-0.020201
-0.0213373
-0.022407
-0.0234111
-0.0243521
-0.0252331
-0.0260576
-0.026829
-0.0275502
-0.0282239
-0.0288523
-0.0294372
-0.0299802
-0.0304822
-0.0309442
-0.031367
-0.0317509
-0.0320964
-0.0324038
-0.0326734
-0.0329052
-0.0330996
-0.0332565
-0.0333762
-0.0334588
-0.0335044
-0.0335133
-0.0334854
-0.0334211
-0.0333205
-0.0331838
-0.0330112
-0.032803
-0.0325593
-0.0322804
-0.0319666
-0.0316182
-0.0312357
-0.0308193
-0.0303696
-0.0298872
-0.0293727
-0.0288268
-0.0282502
-0.0276435
-0.0270071
-0.0263408
-0.0256438
-0.0249137
-0.0241461
-0.0233336
-0.0224649
-0.0215236
-0.0204887
-0.0193359
-0.0180449
-0.0165908
-0.0149381
-0.0130798
-0.01144
-0.00993917
-0.00876446
-0.0084261
-0.00899279
-0.00520901
-0.00549155
-0.00594769
-0.00647059
-0.00706409
-0.00776187
-0.00858657
-0.0095492
-0.0106441
-0.0118479
-0.0131294
-0.0144536
-0.015788
-0.0171061
-0.0183878
-0.019619
-0.0207912
-0.0219
-0.0229445
-0.0239259
-0.0248465
-0.0257095
-0.0265183
-0.0272759
-0.0279852
-0.0286486
-0.0292681
-0.0298453
-0.0303817
-0.0308781
-0.0313354
-0.0317541
-0.0321348
-0.0324777
-0.0327831
-0.0330512
-0.0332823
-0.0334763
-0.0336335
-0.0337539
-0.0338378
-0.0338852
-0.0338963
-0.0338712
-0.0338101
-0.0337132
-0.0335806
-0.0334126
-0.0332093
-0.032971
-0.0326978
-0.0323902
-0.0320483
-0.0316725
-0.0312632
-0.030821
-0.0303463
-0.02984
-0.0293028
-0.0287355
-0.0281391
-0.0275143
-0.0268615
-0.0261805
-0.0254702
-0.0247272
-0.023946
-0.023117
-0.0222261
-0.0212537
-0.020177
-0.0189757
-0.0176295
-0.0160982
-0.0143456
-0.0127213
-0.0112657
-0.0100876
-0.0097007
-0.0101606
-0.00606639
-0.00632696
-0.00675949
-0.00727014
-0.00785827
-0.00855169
-0.00937003
-0.0103222
-0.0114018
-0.0125857
-0.0138428
-0.0151401
-0.0164455
-0.0177335
-0.0189849
-0.0201868
-0.0213312
-0.0224142
-0.0234351
-0.0243953
-0.0252971
-0.0261437
-0.026938
-0.027683
-0.0283814
-0.0290354
-0.0296467
-0.030217