/*--------------------------------*- C++ -*----------------------------------*\
  =========                 |
  \\      /  F ield         | OpenFOAM: The Open Source CFD Toolbox
   \\    /   O peration     | Website:  https://openfoam.org
    \\  /    A nd           | Version:  13
     \\/     M anipulation  |
\*---------------------------------------------------------------------------*/
FoamFile
{
    format      ascii;
    class       volScalarField;
    location    "1.9";
    object      epsilon;
}
// * * * * * * * * * * * * * * * * * * * * * * * * * * * * * * * * * * * * * //

dimensions      [0 2 -3 0 0 0 0];

internalField   nonuniform List<scalar> 
6400
(
1.0454e-05
5.18585e-05
0.000112249
0.0001778
0.000243057
0.000307298
0.000371942
0.000436739
0.000501777
0.000566964
0.000632362
0.000698475
0.000766455
0.00083814
0.000916013
0.00100312
0.00110297
0.00121932
0.00135594
0.00151625
0.00170315
0.00191858
0.00216318
0.00243625
0.00273591
0.00305952
0.00340429
0.00376804
0.00414973
0.00454971
0.00496957
0.00541154
0.00587772
0.00636923
0.00688579
0.00742654
0.00799544
0.00859292
0.00921929
0.00987456
0.010557
0.011264
0.0119912
0.0127325
0.0134796
0.0142216
0.0149481
0.0156547
0.0163597
0.0171564
0.0179608
0.0186821
0.0192945
0.019747
0.0200454
0.0201776
0.0201254
0.0197885
0.019219
0.018376
0.0172624
0.0158951
0.0143071
0.0125527
0.0107025
0.00883663
0.0070395
0.00540119
0.00398667
0.00283902
0.00198441
0.00135033
0.000902713
0.000599807
0.000400012
0.000267467
0.000174948
0.00010454
4.82831e-05
9.90627e-06
5.21797e-05
4.38422e-05
6.45243e-05
9.3264e-05
0.000124536
0.000157203
0.000191216
0.000226157
0.000261861
0.00029827
0.000335509
0.000374006
0.000414609
0.00045861
0.000507824
0.000564609
0.000631896
0.000713188
0.000812548
0.000934465
0.00108355
0.00126431
0.00148078
0.00173613
0.00203236
0.00237023
0.00274928
0.00316802
0.00362405
0.00411395
0.00463302
0.00517488
0.00573124
0.00629235
0.00684889
0.00739486
0.00791277
0.00840083
0.00885287
0.00926159
0.00962919
0.00995776
0.0102501
0.0105095
0.0107395
0.0109434
0.011126
0.0112954
0.0114554
0.0116147
0.0117676
0.0118842
0.011954
0.0119804
0.0119457
0.0118348
0.0116257
0.0112995
0.0108477
0.0102667
0.00956381
0.00874895
0.00784082
0.00686699
0.00586196
0.00486464
0.00391589
0.0030532
0.00230443
0.00168694
0.00120894
0.000846345
0.000580185
0.00039226
0.00026359
0.000176185
0.000115211
7.12267e-05
4.32213e-05
4.99008e-05
0.000118458
7.08981e-05
7.64858e-05
9.60679e-05
0.000122084
0.000151842
0.000184319
0.000218833
0.000255
0.000292769
0.000332493
0.000374962
0.000421392
0.000473788
0.00053475
0.000607517
0.000695985
0.000804675
0.000938771
0.00110373
0.00130429
0.00154461
0.00182752
0.00215388
0.00252218
0.00292831
0.00336577
0.00382613
0.00429968
0.00477619
0.00524553
0.00569825
0.00612586
0.00652061
0.00687821
0.00720716
0.00749683
0.00775671
0.00799181
0.0082124
0.00842224
0.0086264
0.00882975
0.00903648
0.00925001
0.00947302
0.00970767
0.00995517
0.0102136
0.010473
0.010725
0.0109574
0.0111607
0.0113226
0.0114123
0.0114425
0.0113857
0.0112166
0.0109257
0.0105019
0.00993953
0.00924198
0.0084227
0.00750336
0.0065161
0.0055006
0.0045008
0.00356041
0.00271768
0.00200044
0.00142303
0.000981413
0.000662581
0.000442407
0.00029504
0.000197135
0.000130749
8.60535e-05
6.69294e-05
0.000115281
0.000205798
0.000111413
0.000105627
0.000122092
0.000147774
0.000178911
0.000213903
0.000251799
0.000292143
0.00033501
0.000381089
0.000431753
0.000489147
0.000556017
0.000635891
0.000733013
0.000852218
0.00099869
0.00117748
0.00139315
0.00164952
0.00194842
0.00228919
0.00266814
0.0030784
0.00351027
0.00395207
0.00439143
0.00481672
0.00521833
0.00558963
0.00592719
0.00623073
0.00650277
0.00674784
0.00696413
0.00717211
0.00737227
0.00757169
0.00777641
0.00799092
0.00821922
0.00846444
0.00872789
0.00901104
0.00931458
0.00963863
0.00998287
0.0103416
0.0107079
0.0110746
0.0114321
0.0117694
0.0120725
0.0123242
0.0124945
0.012566
0.012549
0.0123883
0.0120767
0.0116006
0.0109509
0.0101426
0.00918698
0.00811666
0.00697216
0.00580358
0.00466577
0.00361141
0.0026849
0.00191607
0.00131518
0.000874133
0.000569975
0.0003705
0.000243196
0.0001621
0.000112275
9.9444e-05
0.000190605
0.000313455
0.000160427
0.000143
0.000157672
0.000184616
0.000218459
0.000257118
0.000299555
0.000345415
0.000395054
0.00044963
0.000511155
0.000582511
0.000667373
0.000770134
0.000895736
0.00104937
0.00123603
0.00145997
0.0017241
0.0020294
0.00237415
0.00275346
0.00315922
0.00358051
0.00400465
0.00441875
0.00481138
0.00517409
0.00550228
0.00579532
0.00605613
0.00629037
0.0065056
0.00670619
0.00689699
0.00708949
0.00728782
0.00749664
0.00771976
0.00796014
0.00822009
0.00850226
0.00880757
0.00913587
0.00948633
0.00985692
0.0102441
0.0106473
0.0110627
0.0114857
0.0119106
0.0123291
0.0127303
0.0131003
0.013422
0.0136789
0.0138205
0.0138604
0.013709
0.013385
0.0128372
0.0121073
0.011172
0.0100677
0.00882428
0.00749435
0.0061431
0.00483983
0.0036509
0.00262991
0.00180872
0.00119278
0.000762666
0.000481391
0.000306316
0.000200591
0.000141279
0.000132796
0.000264368
0.00044265
0.000216902
0.000186311
0.000199034
0.000227344
0.000264004
0.000306507
0.000353839
0.000405876
0.00046338
0.000528072
0.000602673
0.000690851
0.00079707
0.000926348
0.00108387
0.00127451
0.00150221
0.00176936
0.00207622
0.00242038
0.00279642
0.00319585
0.00360759
0.00401902
0.00441754
0.0047922
0.00513526
0.00544302
0.00571581
0.00595731
0.00617337
0.0063707
0.00655551
0.00673778
0.0069223
0.00711244
0.00731183
0.00752346
0.00775037
0.00799418
0.00825612
0.00853659
0.00883682
0.00915742
0.00949813
0.00985797
0.0102354
0.0106335
0.01105
0.0114828
0.0119278
0.0123794
0.0128293
0.0132667
0.0136778
0.0140471
0.014356
0.0145926
0.0147064
0.0147159
0.0144741
0.0139647
0.0131705
0.0121572
0.0109161
0.00949847
0.00797445
0.0064265
0.00494588
0.00361881
0.00251058
0.00165348
0.0010422
0.000639663
0.000392329
0.0002485
0.000172932
0.000165143
0.000331017
0.000593096
0.000280305
0.000234584
0.00024477
0.000274262
0.000313705
0.000360176
0.000412765
0.000471689
0.000538219
0.000614721
0.000704644
0.000812385
0.000942992
0.00110171
0.00129341
0.00152188
0.00178921
0.00209522
0.0024371
0.00280914
0.00320286
0.00360745
0.00401073
0.00440052
0.00476629
0.00510047
0.0053994
0.00566331
0.00589564
0.00610188
0.00628837
0.00646141
0.0066268
0.00678934
0.00695298
0.00712108
0.00729752
0.00748553
0.0076836
0.00789098
0.00810823
0.0083368
0.0085781
0.00883323
0.00910441
0.00939514
0.00971057
0.0100507
0.0104179
0.0108135
0.0112383
0.0116919
0.0121717
0.0126726
0.0131853
0.0136956
0.0141828
0.0146186
0.0149682
0.015215
0.0153226
0.0152976
0.0149301
0.0141915
0.0131071
0.0117372
0.0101433
0.00840728
0.00664117
0.00496955
0.00350508
0.0023252
0.00145659
0.000873996
0.00051617
0.000312742
0.000209913
0.000197026
0.000391069
0.000762201
0.000349713
0.00028709
0.000294069
0.000324521
0.00036674
0.00041738
0.000475699
0.000542345
0.000619173
0.000709234
0.00081668
0.000946492
0.001104
0.00129419
0.00152098
0.00178641
0.00209015
0.00242914
0.00279755
0.00318697
0.00358686
0.00398548
0.00437104
0.00473314
0.00506404
0.00535953
0.005619
0.00584492
0.00604175
0.00621471
0.00636892
0.00650809
0.00663913
0.00676984
0.00690204
0.00703139
0.00715833
0.00728418
0.00740965
0.00753347
0.00765787
0.00778862
0.00792917
0.00808366
0.00825659
0.0084519
0.00867352
0.00892449
0.00921017
0.0095352
0.00990413
0.010321
0.0107883
0.011307
0.0118753
0.012487
0.0131312
0.0137899
0.0144316
0.0150153
0.015481
0.015783
0.015911
0.0157974
0.015168
0.0140418
0.012556
0.0107652
0.00878314
0.00676962
0.00489501
0.00330308
0.00207873
0.00123112
0.000703176
0.000405254
0.000257323
0.000230791
0.000449089
0.000947271
0.000424344
0.000343154
0.000346304
0.00037754
0.00042261
0.000477735
0.000542386
0.0006177
0.000706169
0.000811527
0.000938539
0.00109255
0.00127878
0.00150146
0.00176293
0.00206301
0.00239863
0.00276389
0.00315039
0.00354774
0.00394442
0.00432882
0.00469045
0.00502111
0.00531567
0.00557234
0.00579217
0.00597822
0.00613437
0.00626416
0.00637518
0.00647698
0.00656824
0.00664705
0.00671237
0.00676246
0.00679769
0.00682425
0.00684622
0.00686976
0.00689887
0.00693481
0.00698135
0.00704286
0.00712535
0.00723042
0.00736244
0.00752597
0.00772634
0.00796937
0.00826166
0.00861013
0.0090221
0.00950437
0.010063
0.0107015
0.0114188
0.0122075
0.0130536
0.0139294
0.0147891
0.015562
0.0161503
0.0164726
0.0165864
0.0161267
0.0149974
0.0133801
0.0113447
0.00906894
0.00677831
0.00469966
0.00300767
0.00178149
0.000994325
0.000545939
0.000323648
0.000270536
0.000512701
0.00114557
0.000503457
0.000402001
0.000400916
0.000432828
0.000480917
0.000540949
0.000612634
0.000697639
0.000799101
0.000921394
0.00106974
0.00124958
0.00146558
0.00172071
0.00201527
0.00234651
0.00270863
0.00309316
0.00348969
0.00388664
0.0042723
0.00463584
0.00496836
0.00526368
0.00551859
0.00573264
0.0059074
0.00604538
0.00615053
0.00623696
0.00630787
0.00634501
0.00635589
0.00634866
0.00631547
0.00626848
0.00621489
0.00615598
0.00609764
0.00604564
0.00600404
0.00597693
0.00596493
0.00596305
0.00599232
0.00604518
0.00612459
0.00623392
0.00637624
0.00655579
0.00677768
0.00704829
0.00737547
0.00776952
0.00824231
0.00880674
0.00947536
0.0102575
0.0111583
0.0121684
0.0132673
0.0144116
0.0155242
0.016486
0.0171011
0.01737
0.0171186
0.0159957
0.0141777
0.0118319
0.00921047
0.00662291
0.00436171
0.00262215
0.00145231
0.000767289
0.000423038
0.000322754
0.000592429
0.00135384
0.000586274
0.000462867
0.000457386
0.000489915
0.000541269
0.000606711
0.000686199
0.000781935
0.000897683
0.00103836
0.00120945
0.00141613
0.00166214
0.00194867
0.0022737
0.00263179
0.00301453
0.00341133
0.0038103
0.00419934
0.004567
0.00490353
0.00520151
0.0054563
0.00566593
0.00583047
0.00595108
0.00603711
0.00609653
0.00611634
0.00610995
0.0060555
0.00597296
0.00587774
0.00576465
0.00564353
0.00552335
0.00540836
0.00530426
0.00521579
0.00514593
0.00509629
0.00506979
0.00505977
0.00507281
0.00511538
0.00518085
0.00527248
0.00539095
0.00553857
0.0057181
0.00593356
0.00619049
0.0064964
0.00686129
0.00729887
0.00782711
0.00846817
0.00924824
0.01019
0.0113043
0.0125824
0.0139886
0.0154426
0.0167979
0.0177609
0.0181879
0.0181175
0.0169809
0.0148879
0.0121548
0.00913872
0.00625798
0.00387146
0.00216514
0.00111971
0.000578774
0.000397638
0.000702335
0.0015688
0.000671864
0.000525246
0.000515121
0.00054831
0.000603242
0.000674646
0.000762722
0.00087019
0.00100138
0.00116162
0.00135641
0.00159033
0.00186574
0.00218178
0.00253384
0.00291386
0.00331111
0.00371326
0.0041075
0.00448155
0.00482455
0.00512779
0.00538512
0.00559303
0.00575031
0.00585807
0.00592503
0.00595014
0.00593813
0.00586719
0.00576514
0.005632
0.00547614
0.00531213
0.00514395
0.00498101
0.00483183
0.00470078
0.0045916
0.00450649
0.00444584
0.00441269
0.00440005
0.0044001
0.00443236
0.00448545
0.00455891
0.0046536
0.00476953
0.00490784
0.00507
0.00525824
0.0054756
0.00572627
0.00601628
0.00635421
0.00675255
0.00722976
0.0078112
0.00853472
0.00944463
0.0105852
0.0119786
0.0136008
0.0153791
0.0171346
0.0184743
0.019084
0.0191416
0.0178963
0.0154298
0.0122199
0.00877727
0.00565185
0.00324308
0.00167468
0.000828073
0.000511053
0.00086108
0.00178729
0.000759387
0.00058856
0.00057357
0.000607511
0.000666366
0.000744295
0.00084171
0.000961809
0.0011094
0.00129004
0.001509
0.00176989
0.00207337
0.00241625
0.0027913
0.00318797
0.00359351
0.00399426
0.00437685
0.00472912
0.00504088
0.00530444
0.00551478
0.00566924
0.00576744
0.00581384
0.00581942
0.00576089
0.00565474
0.00550731
0.00532944
0.00513202
0.00492575
0.0047245
0.00453591
0.00436769
0.00422547
0.00411118
0.00402547
0.00396747
0.0039388
0.00392865
0.00393461
0.00396679
0.00401832
0.00408738
0.00417353
0.00427694
0.0043978
0.00453691
0.0046953
0.0048744
0.00507598
0.00530232
0.00555652
0.00584294
0.00616805
0.00654161
0.00697845
0.00749968
0.00814623
0.00898407
0.0100929
0.0115375
0.0133273
0.0154031
0.0175644
0.0192938
0.0200768
0.0201691
0.0186731
0.0156896
0.0119161
0.0080601
0.00480586
0.00252547
0.00122256
0.000686291
0.00109298
0.00200636
0.000848053
0.000652238
0.000632198
0.000667002
0.000730125
0.000815107
0.000922531
0.00105601
0.0012207
0.00142221
0.00166527
0.00195224
0.0022818
0.00264826
0.00304182
0.00344964
0.00385729
0.0042501
0.00461442
0.0049384
0.00521271
0.00543091
0.00558931
0.005678
0.00571339
0.00569802
0.00561137
0.0054737
0.00529165
0.00507799
0.00484591
0.0046104
0.00438416
0.00417898
0.00400148
0.00385563
0.00374272
0.00366137
0.00361098
0.00358785
0.00358133
0.00359282
0.00362582
0.00367593
0.00374113
0.00382086
0.00391517
0.00402449
0.00414957
0.00429145
0.00445131
0.00463047
0.00483027
0.0050521
0.00529741
0.00556797
0.00586636
0.00619679
0.00656657
0.00698834
0.00747884
0.00806802
0.00881786
0.00985025
0.0113023
0.0132239
0.0155847
0.0181617
0.0202489
0.0211499
0.0211944
0.0191822
0.0155309
0.0111264
0.00696049
0.00377749
0.00182701
0.000956517
0.00142606
0.00222332
0.000937134
0.000715741
0.000690485
0.000726258
0.000793956
0.000886447
0.00100443
0.00115183
0.00133403
0.00155646
0.00182306
0.00213465
0.00248773
0.00287406
0.00328139
0.00369483
0.00409855
0.00447719
0.00481706
0.00510692
0.00533844
0.00550576
0.00559385
0.00562529
0.00559379
0.00549162
0.00532999
0.00512146
0.00487926
0.00462017
0.00436059
0.00411608
0.00389812
0.00371434
0.00356736
0.00345667
0.00337957
0.00333441
0.00331449
0.00330946
0.00332158
0.00335224
0.00339728
0.00345513
0.00352532
0.00360803
0.00370393
0.00381403
0.00393963
0.00408223
0.00424345
0.00442491
0.00462813
0.0048544
0.00510458
0.00537921
0.00567857
0.00600314
0.00635464
0.00673772
0.00716286
0.00764396
0.00820565
0.00890775
0.00986669
0.0112911
0.013333
0.0159724
0.0189651
0.0213523
0.022321
0.022097
0.0192882
0.014766
0.00977324
0.00553528
0.00271526
0.00136283
0.00188693
0.00243576
0.00102596
0.000778563
0.000747932
0.000784744
0.000857259
0.000957609
0.00108653
0.00124816
0.00144795
0.00169094
0.00198002
0.00231428
0.00268789
0.00309011
0.00350637
0.00392002
0.00431408
0.00467281
0.0049828
0.00523361
0.00541722
0.00551392
0.00554674
0.00551152
0.00540071
0.00522478
0.00499681
0.00473293
0.0044515
0.00417177
0.00391067
0.00368118
0.00349056
0.003341
0.0032306
0.00315491
0.00311073
0.00309083
0.00308504
0.0030927
0.00311724
0.00315374
0.00320088
0.00325833
0.00332645
0.00340603
0.00349826
0.00360463
0.00372688
0.00386694
0.00402689
0.00420887
0.00441494
0.00464692
0.00490615
0.0051932
0.00550762
0.00584801
0.00621247
0.0065996
0.00701078
0.00745396
0.00794224
0.00849526
0.00917628
0.0101077
0.0115066
0.0136879
0.0166308
0.0200616
0.0225935
0.0235055
0.0226483
0.0187261
0.0132326
0.00788606
0.00396737
0.00195031
0.00249218
0.00264131
0.00111389
0.000840255
0.000804065
0.000841929
0.000919407
0.00102783
0.00116788
0.0013438
0.00156093
0.00182371
0.0021338
0.00248836
0.00287921
0.00329319
0.00371362
0.00412232
0.00450149
0.00483533
0.00511108
0.00531875
0.00543472
0.00547513
0.00544685
0.00533702
0.00515568
0.00491613
0.00463623
0.00433651
0.00403828
0.00376073
0.0035181
0.00331832
0.00316307
0.00304949
0.00297176
0.00292427
0.00290166
0.0028937
0.00289352
0.00290881
0.0029348
0.00296937
0.00301249
0.00306453
0.00312637
0.00319922
0.00328458
0.0033842
0.00350009
0.00363448
0.00378985
0.00396883
0.00417412
0.00440836
0.00467383
0.00497217
0.00530383
0.00566763
0.0060603
0.00647699
0.00691255
0.00736441
0.00783746
0.00834384
0.00890309
0.00958042
0.0105098
0.0119436
0.0143162
0.0176307
0.0215248
0.0239176
0.0245826
0.0225438
0.0171959
0.0108748
0.00566489
0.00276318
0.00323921
0.00283775
0.00120039
0.000900399
0.000858435
0.000897285
0.000979763
0.00109632
0.00124749
0.00143748
0.00167136
0.0019528
0.00228205
0.00265425
0.00305888
0.00348051
0.00390058
0.00429962
0.00465933
0.00496427
0.00520293
0.00535036
0.0054054
0.00539389
0.00529562
0.00511836
0.00487557
0.00458582
0.00427142
0.00395588
0.00366073
0.00340228
0.00318964
0.00302477
0.0029042
0.00282117
0.00276765
0.00273811
0.00272473
0.00272034
0.00272311
0.00273779
0.00275958
0.00278831
0.00282449
0.00286893
0.00292278
0.00298742
0.00306446
0.00315574
0.00326337
0.00338974
0.00353757
0.00370987
0.00390995
0.00414127
0.00440725
0.0047109
0.00505433
0.00543807
0.0058602
0.0063155
0.00679541
0.00728986
0.00779128
0.00830187
0.00883159
0.00940196
0.0100925
0.0110551
0.012598
0.0152677
0.019089
0.0233004
0.0252462
0.0254024
0.0213264
0.0144773
0.00786714
0.00383403
0.00409547
0.00302332
0.00128498
0.000958613
0.000910621
0.000950308
0.00103769
0.00116227
0.00132433
0.00152791
0.00177765
0.0020763
0.00242257
0.00280955
0.00322449
0.00364982
0.00406534
0.00445058
0.00478692
0.0050596
0.00525042
0.00533384
0.00534381
0.00526886
0.00510632
0.00486956
0.00457721
0.00425261
0.00392127
0.00360735
0.00332989
0.00310015
0.00292118
0.00278951
0.00269773
0.00263675
0.00259837
0.00257673
0.00256621
0.00256212
0.00256266
0.00257245
0.00258784
0.00260941
0.00263794
0.00267446
0.00272018
0.0027765
0.00284497
0.00292742
0.00302591
0.00314285
0.00328106
0.00344379
0.00363474
0.00385808
0.00411824
0.0044197
0.00476649
0.00516145
0.00560524
0.00609507
0.00662332
0.00717669
0.00773809
0.00829171
0.00883381
0.00937648
0.00997732
0.0106991
0.0117393
0.013485
0.0165927
0.0210961
0.0252452
0.0266972
0.0250997
0.0185529
0.0106196
0.00517901
0.00503715
0.00319659
0.00136723
0.00101456
0.000960244
0.00100052
0.00109259
0.0012249
0.0013974
0.00161384
0.00187828
0.00219242
0.00255336
0.0029522
0.00337403
0.0037994
0.00420672
0.00457482
0.00488491
0.00512127
0.00525036
0.00529013
0.00524712
0.00511069
0.00489062
0.00460453
0.00427588
0.00393166
0.00359871
0.00329939
0.00304815
0.00285024
0.00270302
0.00259894
0.00252804
0.00248084
0.00245014
0.00243067
0.00241843
0.00241186
0.0024094
0.00241223
0.00242088
0.00243545
0.00245685
0.00248609
0.00252434
0.00257291
0.00263327
0.00270709
0.00279633
0.00290333
0.00303085
0.00318221
0.00336133
0.0035728
0.00382182
0.0041141
0.00445546
0.00485123
0.00530522
0.00581831
0.00638661
0.00699944
0.00763787
0.00827645
0.00889029
0.00946283
0.0100027
0.0106171
0.0114032
0.0125801
0.0146955
0.0184293
0.0236971
0.0270495
0.0276506
0.0227903
0.01396
0.00679321
0.00600745
0.00335633
0.00144677
0.00106795
0.00100697
0.00104749
0.00114388
0.00128348
0.00146576
0.00169409
0.00197182
0.00229954
0.00267271
0.00308048
0.00350599
0.00392811
0.0043241
0.00467245
0.00495521
0.00514539
0.0052225
0.00521905
0.00512039
0.00492896
0.00465993
0.00433573
0.00398391
0.00363356
0.00331071
0.00303398
0.00281211
0.00264451
0.00252414
0.00244064
0.00238329
0.00234359
0.00231558
0.00229514
0.00227981
0.00226869
0.00226212
0.00225961
0.00226152
0.00226984
0.00228502
0.00230794
0.00233966
0.00238135
0.00243432
0.00250011
0.00258053
0.00267774
0.00279439
0.00293372
0.00309965
0.00329694
0.00353124
0.00380907
0.00413768
0.00452458
0.00497673
0.00549907
0.00609252
0.00675138
0.00746037
0.00819244
0.00891127
0.00959673
0.0101861
0.0107212
0.0113353
0.0122113
0.0136286
0.0163793
0.0210726
0.0265668
0.0287731
0.0267335
0.0178866
0.00873089
0.00700855
0.00350157
0.00152331
0.00111856
0.00105051
0.00109085
0.00119106
0.00133732
0.00152856
0.0017676
0.00205705
0.00239628
0.00277918
0.00319309
0.00361936
0.00403541
0.00441756
0.00474376
0.00499514
0.00513262
0.00516962
0.00512197
0.00497227
0.00473304
0.00442447
0.00407337
0.00371018
0.00336436
0.00305932
0.00280869
0.00261544
0.00247414
0.00237462
0.00230522
0.00225588
0.00221949
0.0021913
0.00216838
0.00214932
0.00213383
0.00212217
0.00211526
0.00211267
0.00211513
0.00212495
0.00214249
0.00216858
0.00220424
0.00225064
0.00230917
0.00238145
0.00246949
0.00257573
0.00270324
0.00285578
0.00303808
0.00325588
0.00351615
0.00382704
0.00419773
0.00463781
0.00515616
0.00575897
0.00644681
0.00721096
0.00802922
0.00886275
0.00965976
0.0103974
0.0109892
0.0115078
0.0121339
0.0131559
0.0149938
0.0187155
0.0246825
0.0290742
0.0297261
0.022295
0.0111019
0.00813037
0.00363154
0.00159659
0.0011662
0.00109065
0.00113027
0.0012337
0.00138586
0.00158504
0.00183346
0.0021329
0.00248152
0.00287171
0.00328912
0.00371355
0.00412119
0.00448769
0.00479112
0.00500461
0.00509725
0.00510068
0.00500589
0.00481063
0.00453139
0.00419275
0.003825
0.00346011
0.0031263
0.00284311
0.00261878
0.0024511
0.00233112
0.00224675
0.0021864
0.00214129
0.00210566
0.00207586
0.00204995
0.00202722
0.00200774
0.00199196
0.00198048
0.0019746
0.00197294
0.00197777
0.00199066
0.00201187
0.00204225
0.00208285
0.0021349
0.00219987
0.00227957
0.00237624
0.00249269
0.00263248
0.00280008
0.00300112
0.00324264
0.0035332
0.00388299
0.00430359
0.00480713
0.00540471
0.00610359
0.00690308
0.00778931
0.0087297
0.00967013
0.0105515
0.01129
0.0118594
0.0123423
0.0130345
0.0143318
0.0169687
0.0221102
0.0286831
0.0312341
0.0269127
0.0140626
0.00952311
0.0037457
0.00166641
0.00121076
0.00112722
0.00116553
0.00127145
0.00142861
0.00163459
0.00189094
0.00219855
0.00255444
0.00294955
0.00336807
0.00378847
0.00418595
0.00453574
0.00481603
0.00498843
0.00504364
0.00501398
0.00487684
0.00464245
0.00433117
0.0039713
0.00359559
0.00323621
0.00291892
0.00265872
0.00245873
0.00231263
0.00220903
0.00213516
0.00208027
0.00203701
0.00200075
0.00196881
0.00193996
0.00191393
0.00189102
0.00187176
0.00185677
0.00184718
0.00184308
0.0018436
0.00185231
0.00186921
0.00189492
0.00193038
0.00197668
0.00203516
0.00210744
0.00219554
0.00230204
0.00243016
0.00258408
0.00276913
0.00299213
0.00326167
0.00358839
0.00398505
0.0044662
0.00504704
0.00574111
0.00655616
0.00748823
0.00851427
0.00958419
0.0106185
0.0115585
0.012266
0.0127608
0.013204
0.0141058
0.0159051
0.0199519
0.0270254
0.03183
0.0311249
0.0177141
0.0112345
0.00384375
0.00173262
0.00125216
0.00116012
0.00119644
0.00130405
0.00146522
0.00167675
0.00193949
0.00225342
0.00261447
0.0030123
0.00342982
0.00384435
0.00423026
0.0045619
0.0048151
0.00495094
0.00497912
0.00491411
0.00474044
0.0044737
0.00413801
0.00376467
0.00338785
0.00303881
0.00274006
0.002502
0.00232329
0.00219461
0.00210313
0.00203627
0.00198448
0.00194168
0.00190418
0.00187004
0.00183854
0.0018097
0.00178392
0.00176178
0.0017439
0.00173093
0.00172412
0.00172208
0.00172673
0.00173971
0.00176124
0.00179211
0.00183331
0.00188606
0.00195182
0.0020324
0.00213012
0.0022479
0.00238954
0.00255998
0.00276564
0.00301483
0.00331817
0.00368895
0.00414322
0.00469925
0.00537588
0.00618898
0.00714554
0.00823513
0.00942012
0.0106271
0.0117569
0.0126657
0.0132815
0.0136474
0.0141159
0.015422
0.0183455
0.02454
0.0319573
0.0339951
0.0222313
0.0131133
0.0039256
0.00179511
0.00129039
0.00118931
0.00122294
0.00133136
0.00149546
0.00171122
0.00197874
0.00229715
0.00266132
0.00305983
0.00347446
0.00388157
0.00425471
0.00456804
0.00479871
0.00489783
0.0049041
0.00480613
0.00460172
0.00430925
0.00395606
0.00357566
0.00320273
0.00286677
0.00258674
0.00236876
0.00220791
0.00209284
0.00201009
0.00194779
0.00189763
0.00185455
0.00181562
0.00177947
0.00174569
0.00171449
0.00168631
0.00166171
0.00164128
0.0016256
0.00161582
0.00161184
0.00161298
0.00162234
0.00164006
0.0016668
0.00170346
0.00175115
0.0018112
0.00188526
0.00197537
0.00208417
0.00221507
0.00237256
0.00256256
0.00279291
0.00307388
0.00341873
0.00384422
0.00437061
0.00502078
0.00581759
0.00677844
0.00790644
0.00917821
0.0105303
0.011852
0.0130168
0.0138338
0.0142571
0.0145592
0.0152861
0.0173559
0.0223784
0.0311182
0.0354968
0.0273701
0.0151173
0.00399137
0.00185382
0.0013255
0.00121482
0.00124501
0.00135331
0.00151921
0.00173783
0.00200851
0.00232956
0.00269492
0.00309217
0.00350211
0.00390005
0.00425915
0.00456
0.00476192
0.00483522
0.00482044
0.00469428
0.00446483
0.00415284
0.00378813
0.0034057
0.00303993
0.00271815
0.00245577
0.00225522
0.00210891
0.0020042
0.00192762
0.00186824
0.00181883
0.00177514
0.00173483
0.00169692
0.00166124
0.00162805
0.00159783
0.00157112
0.00154848
0.00153047
0.00151781
0.00151164
0.00151027
0.00151611
0.0015303
0.00155329
0.00158588
0.0016291
0.00168416
0.00175257
0.00183616
0.00193727
0.00205895
0.00220523
0.00238149
0.00259495
0.00285531
0.00317545
0.00357219
0.00406682
0.00468501
0.0054552
0.00640425
0.00754904
0.0088833
0.0103608
0.0118784
0.0132974
0.0143729
0.0149182
0.0151584
0.0154993
0.0169043
0.0208362
0.0292361
0.036125
0.0325957
0.0171907
0.00404135
0.0019087
0.00135755
0.00123673
0.00126272
0.00136993
0.00153645
0.00175651
0.00202865
0.00235042
0.00271496
0.00310846
0.00351067
0.00389963
0.00425129
0.00453707
0.004711
0.00476651
0.00473076
0.00458198
0.00433308
0.00400714
0.0036359
0.00325513
0.00289841
0.00259068
0.00234413
0.00215819
0.0020234
0.00192641
0.00185415
0.0017966
0.00174744
0.00170304
0.00166152
0.00162214
0.00158486
0.00155
0.00151802
0.00148945
0.00146481
0.00144465
0.00142955
0.00142075
0.00141755
0.00142016
0.00143108
0.00145062
0.00147954
0.00151877
0.00156946
0.00163299
0.00171101
0.00180561
0.0019195
0.00205624
0.00222068
0.00241937
0.00266131
0.00295871
0.00332799
0.00379071
0.00437418
0.00511089
0.00603555
0.00717782
0.00854921
0.0101243
0.0118189
0.0134775
0.0148702
0.015634
0.0159175
0.0160456
0.0167687
0.0195913
0.0271732
0.0362939
0.037139
0.0191371
0.00407604
0.00195973
0.00138668
0.00125516
0.00127617
0.00138126
0.00154707
0.00176693
0.0020379
0.00235776
0.00271906
0.00310819
0.00350679
0.00389003
0.00422988
0.00449758
0.00465069
0.00469237
0.0046383
0.00447204
0.00420891
0.00387394
0.00350016
0.0031236
0.00277668
0.00248205
0.00224914
0.00207508
0.00194917
0.00185784
0.00178855
0.00173214
0.00168298
0.0016379
0.00159535
0.00155475
0.00151616
0.00147989
0.00144639
0.00141616
0.00138973
0.00136761
0.00135036
0.00133897
0.00133404
0.00133387
0.00134172
0.00135809
0.00138364
0.0014193
0.00146613
0.00152542
0.00159869
0.00168781
0.00179517
0.00192393
0.00207838
0.00226441
0.00249024
0.00276726
0.00311117
0.0035432
0.00409135
0.00479078
0.00568231
0.00680674
0.00819259
0.00983576
0.0116729
0.0135561
0.0152844
0.0163664
0.0167376
0.0167827
0.0170143
0.0189717
0.0250608
0.0361701
0.0404331
0.0207642
0.00409617
0.00200694
0.00141303
0.00127027
0.00128544
0.00138712
0.00155005
0.00176791
0.00203753
0.00235585
0.00271487
0.00310058
0.003493
0.00386649
0.00419308
0.00444655
0.00458331
0.0046142
0.00454552
0.0043666
0.00409404
0.00375426
0.00338106
0.00301031
0.00267316
0.00239016
0.00216855
0.00200384
0.00188459
0.00179728
0.00173001
0.00167428
0.00162499
0.00157933
0.00153594
0.00149438
0.00145471
0.00141725
0.00138244
0.00135077
0.00132274
0.00129887
0.00127972
0.0012659
0.00125869
0.00125675
0.00126171
0.00127514
0.00129763
0.00133004
0.00137342
0.001429
0.0014982
0.00158271
0.00168465
0.00180682
0.00195296
0.00212833
0.00234034
0.00259947
0.00292049
0.00332391
0.00383765
0.00449834
0.00535125
0.00644651
0.0078287
0.00951662
0.0114733
0.0135716
0.0155922
0.0170721
0.017646
0.0176839
0.0176062
0.0187409
0.0236089
0.0348963
0.0422707
0.0218765
0.00410096
0.00205017
0.00143673
0.00128218
0.00129062
0.0013875
0.00154854
0.00176473
0.00203239
0.00234757
0.00270215
0.00308145
0.00346506
0.00382862
0.00414456
0.00438593
0.00451058
0.00453346
0.00445426
0.0042672
0.00398956
0.00364853
0.0032783
0.00291425
0.00258627
0.00231317
0.00210056
0.00194289
0.00182842
0.00174386
0.00167788
0.00162253
0.00157309
0.00152696
0.00148293
0.00144061
0.00140007
0.00136164
0.00132574
0.00129283
0.0012634
0.00123798
0.00121709
0.00120129
0.00119179
0.00118829
0.00119068
0.00120142
0.00122108
0.00125053
0.0012908
0.0013431
0.00140877
0.00148939
0.00158687
0.00170363
0.00184299
0.00200953
0.00220989
0.00245359
0.00275435
0.0031317
0.00361292
0.00423514
0.00504649
0.00610445
0.00746772
0.00917723
0.011224
0.0135082
0.0158063
0.0177121
0.0185823
0.0186837
0.0183691
0.0187297
0.0225537
0.033357
0.0430357
0.0224223
0.00409384
0.00208946
0.00145794
0.00129111
0.00129207
0.0013854
0.00154328
0.00175606
0.00201976
0.00232974
0.00267768
0.00304957
0.00342505
0.00377949
0.00408586
0.00431735
0.00443385
0.00445144
0.00436583
0.00417485
0.00389602
0.0035567
0.0031913
0.00283435
0.00251459
0.00224954
0.00204373
0.00189107
0.00177976
0.00169691
0.00163166
0.00157648
0.00152687
0.0014804
0.0014359
0.00139303
0.00135185
0.00131266
0.00127588
0.00124195
0.00121136
0.00118461
0.00116222
0.00114475
0.00113315
0.00112814
0.00112835
0.00113664
0.00115371
0.00118043
0.00121787
0.00126722
0.00132981
0.00140713
0.00150092
0.00161333
0.00174721
0.00190658
0.00209728
0.0023279
0.00261104
0.00296505
0.00341622
0.0040014
0.00477029
0.00578582
0.00711863
0.00883051
0.0109415
0.0133824
0.0159484
0.0182606
0.0195397
0.0198061
0.019327
0.0192048
0.0218315
0.0318005
0.0432063
0.0226573
0.00407595
0.00212522
0.00147721
0.00129752
0.00129134
0.00137975
0.00153264
0.00174059
0.00199902
0.00230294
0.0026438
0.00300763
0.00337459
0.00372036
0.00401833
0.00424218
0.00435418
0.00436912
0.00428106
0.00409007
0.00381352
0.00347844
0.00311928
0.00276958
0.00245692
0.00219808
0.00199702
0.0018475
0.00173796
0.00165592
0.00159094
0.00153575
0.00148599
0.00143928
0.00139449
0.00135126
0.00130965
0.00126992
0.00123248
0.00119777
0.00116625
0.00113842
0.00111481
0.00109597
0.00108252
0.0010758
0.00107449
0.00108055
0.00109526
0.00111949
0.00115432
0.001201
0.00126085
0.00133535
0.0014261
0.00153503
0.00166459
0.00181825
0.0020011
0.00222079
0.00248882
0.00282226
0.00324614
0.00379648
0.00452349
0.00549379
0.0067878
0.00848636
0.0106388
0.0132099
0.0160175
0.0187108
0.0204662
0.0209677
0.0204145
0.0198665
0.0214925
0.0302426
0.0428072
0.0227287
0.00404397
0.00215671
0.0014946
0.00130204
0.00128864
0.0013703
0.00151759
0.00171979
0.00197187
0.00226863
0.00260147
0.00295665
0.00331489
0.00365242
0.00394321
0.00416152
0.00427231
0.00428723
0.00420041
0.00401301
0.00374178
0.00341324
0.00306145
0.00271896
0.00241224
0.00215786
0.00195964
0.00181161
0.00170258
0.00162054
0.00155539
0.00150002
0.00145011
0.00140326
0.00135834
0.00131494
0.00127309
0.00123305
0.00119518
0.00115992
0.00112773
0.0010991
0.00107452
0.00105453
0.00103971
0.00103129
0.00102873
0.00103287
0.00104546
0.00106742
0.00109987
0.00114411
0.00120152
0.00127357
0.00136182
0.001468
0.00159423
0.00174346
0.00192008
0.00213082
0.00238607
0.0027016
0.00310103
0.00361915
0.00430586
0.00522996
0.00647947
0.00815205