/*--------------------------------*- C++ -*----------------------------------*\
  =========                 |
  \\      /  F ield         | OpenFOAM: The Open Source CFD Toolbox
   \\    /   O peration     | Website:  https://openfoam.org
    \\  /    A nd           | Version:  13
     \\/     M anipulation  |
\*---------------------------------------------------------------------------*/
FoamFile
{
    format      ascii;
    class       volScalarField;
    location    "1.9";
    object      k;
}
// * * * * * * * * * * * * * * * * * * * * * * * * * * * * * * * * * * * * * //

dimensions      [0 2 -2 0 0 0 0];

internalField   nonuniform List<scalar> 
6400
(
2.04197e-07
1.01299e-06
2.19283e-06
3.47362e-06
4.74872e-06
6.00394e-06
7.2672e-06
8.53352e-06
9.80466e-06
1.10789e-05
1.23577e-05
1.36509e-05
1.49815e-05
1.63854e-05
1.79117e-05
1.962e-05
2.1579e-05
2.38627e-05
2.65444e-05
2.96911e-05
3.33587e-05
3.75845e-05
4.23803e-05
4.77313e-05
5.36001e-05
5.99344e-05
6.66796e-05
7.37932e-05
8.12559e-05
8.90755e-05
9.72837e-05
0.000105925
0.00011504
0.000124651
0.00013475
0.000145323
0.000156447
0.000168129
0.000180375
0.000193188
0.000206532
0.000220356
0.000234576
0.000249074
0.000263684
0.000278199
0.00029241
0.000306236
0.000320036
0.000335633
0.000351389
0.000365524
0.000377532
0.000386428
0.000392304
0.000394909
0.000393945
0.00038738
0.000376274
0.000359821
0.000338071
0.000311349
0.000280299
0.000245981
0.000209773
0.000173241
0.000138041
0.000105937
7.82042e-05
5.5692e-05
3.89248e-05
2.64804e-05
1.76939e-05
1.17483e-05
7.82823e-06
5.2299e-06
3.41855e-06
2.0419e-06
9.42892e-07
1.93444e-07
1.01925e-06
8.58862e-06
1.9015e-05
3.00211e-05
4.0778e-05
5.11564e-05
6.12386e-05
7.11721e-05
8.09999e-05
9.07294e-05
0.000100397
0.00011011
0.000120067
0.000130556
0.000141946
0.000154666
0.000169184
0.000185974
0.000205471
0.000228029
0.000253894
0.000283155
0.000315723
0.000351346
0.000389652
0.000430221
0.000472643
0.000516604
0.000561918
0.000608525
0.000656446
0.000705704
0.00075624
0.00080785
0.000860196
0.000912938
0.000966168
0.0010196
0.00107314
0.0011267
0.00118014
0.00123334
0.00128618
0.00133844
0.00138983
0.00143993
0.00148816
0.00153386
0.0015758
0.00161283
0.00164655
0.00167658
0.00170158
0.00171847
0.00172616
0.00172752
0.00171663
0.00169017
0.00164735
0.00158754
0.00151024
0.0014158
0.00130514
0.00118059
0.00104538
0.000903822
0.000761109
0.000622839
0.000494265
0.000379548
0.000280485
0.000200496
0.000139653
9.56816e-05
6.51507e-05
4.41755e-05
2.92089e-05
1.75901e-05
7.99616e-06
9.74534e-07
2.31409e-06
1.98749e-05
4.28286e-05
6.55281e-05
8.68159e-05
0.000106946
0.000126252
0.000144925
0.000163057
0.000180744
0.000198181
0.0002157
0.000233792
0.000253091
0.000274342
0.000298353
0.000325932
0.000357819
0.000394593
0.0004366
0.000483894
0.000536193
0.000592893
0.000653118
0.000715818
0.000779875
0.000844243
0.000908053
0.000970676
0.00103174
0.00109113
0.0011489
0.00120524
0.00126041
0.00131467
0.00136819
0.00142139
0.00147449
0.00152783
0.00158158
0.00163596
0.00169106
0.00174694
0.00180356
0.00186079
0.00191841
0.00197612
0.00203352
0.00208986
0.0021445
0.00219681
0.00224525
0.00228806
0.00232322
0.00234658
0.00235633
0.00235692
0.00233807
0.00229849
0.00223647
0.00215088
0.00204213
0.00191006
0.00175683
0.00158541
0.00140057
0.00120837
0.00101566
0.000829788
0.000657752
0.000505417
0.000377035
0.000274395
0.000196257
0.000139045
9.76324e-05
6.65425e-05
4.10884e-05
1.88743e-05
2.25193e-06
4.02068e-06
3.4243e-05
7.06264e-05
0.000103906
0.000133857
0.000161638
0.000187952
0.000213143
0.000237422
0.00026104
0.000284396
0.00030808
0.000332874
0.000359723
0.000389661
0.000423732
0.000462881
0.000507848
0.000559062
0.000616557
0.00067991
0.000748277
0.000820439
0.000894913
0.000970108
0.00104449
0.00111677
0.00118601
0.00125167
0.00131368
0.0013723
0.00142803
0.00148154
0.00153352
0.00158465
0.00163554
0.00168656
0.00173824
0.00179092
0.00184486
0.00190024
0.00195715
0.00201563
0.00207566
0.00213713
0.00219986
0.0022636
0.00232812
0.00239245
0.00245561
0.00251639
0.00257348
0.00262535
0.00267012
0.0027056
0.0027268
0.00273438
0.00272686
0.00269677
0.0026418
0.00255941
0.00245175
0.00231673
0.00215605
0.00197142
0.0017673
0.00154958
0.0013254
0.00110302
0.0008912
0.00069822
0.000530816
0.000393106
0.000285701
0.000205572
0.00014688
0.000102474
6.532e-05
3.09064e-05
3.72383e-06
6.12465e-06
5.13226e-05
0.000101232
0.000143874
0.000180984
0.000214874
0.000246713
0.000277076
0.000306347
0.000334963
0.000363542
0.000392934
0.000424193
0.000458517
0.000497136
0.000541181
0.000591538
0.000648716
0.000712745
0.000783131
0.000858866
0.000938509
0.0010203
0.00110235
0.0011828
0.00126008
0.00133303
0.00140105
0.00146403
0.00152238
0.0015768
0.0016282
0.0016775
0.00172555
0.00177314
0.00182087
0.00186919
0.00191847
0.00196898
0.00202091
0.00207437
0.0021294
0.00218597
0.00224406
0.00230357
0.00236423
0.00242569
0.00248741
0.00254886
0.00260954
0.00266871
0.0027255
0.00277878
0.00282712
0.00286871
0.00290143
0.0029204
0.0029267
0.0029177
0.00288734
0.00282994
0.00274086
0.00261908
0.00246853
0.00228835
0.00208206
0.00185444
0.00161189
0.0013632
0.00111859
0.000888754
0.000683468
0.000510047
0.000371896
0.000267603
0.000191298
0.000134344
8.72327e-05
4.24025e-05
5.16513e-06
8.64976e-06
7.06436e-05
0.00013405
0.000185235
0.0002286
0.00026768
0.000304163
0.000338926
0.000372581
0.000405785
0.00043939
0.000474487
0.000512362
0.000554386
0.00060186
0.000655832
0.000716928
0.000785226
0.000860203
0.000940755
0.00102529
0.00111189
0.00119846
0.00128296
0.00136362
0.00143911
0.0015087
0.00157225
0.00163014
0.00168316
0.00173229
0.00177857
0.00182292
0.00186614
0.00190882
0.00195144
0.00199437
0.00203784
0.00208201
0.0021271
0.00217321
0.00222037
0.00226853
0.00231774
0.00236815
0.0024196
0.00247184
0.00252449
0.00257815
0.00263239
0.00268679
0.00274072
0.00279333
0.00284345
0.00288957
0.00292977
0.00296176
0.00298091
0.00298778
0.0029807
0.00295736
0.00290961
0.00283107
0.00271169
0.00255406
0.00236368
0.00214277
0.00189566
0.00163098
0.00136003
0.00109585
0.000851696
0.000639064
0.000465438
0.000332395
0.000235096
0.000163858
0.000106699
5.27102e-05
6.46722e-06
1.15908e-05
9.17969e-05
0.000168555
0.000227691
0.000276724
0.000320407
0.000360983
0.000399678
0.000437384
0.000475007
0.00051364
0.00055459
0.000599314
0.000649254
0.000705637
0.000769255
0.000840301
0.000918288
0.00100207
0.00108998
0.00117995
0.00126975
0.00135722
0.00144042
0.00151789
0.00158872
0.00165265
0.00170997
0.00176141
0.00180793
0.00185055
0.00189018
0.00192762
0.00196347
0.00199812
0.00203189
0.00206512
0.00209791
0.00213009
0.00216237
0.002195
0.00222827
0.00226259
0.00229797
0.0023337
0.00237003
0.00240742
0.00244655
0.00248768
0.00253092
0.00257633
0.00262384
0.00267323
0.00272402
0.00277542
0.00282614
0.00287441
0.00291789
0.00295398
0.00297373
0.00297962
0.00296513
0.00293057
0.0028698
0.00276632
0.00261145
0.00241614
0.00218112
0.00191397
0.00162599
0.00133196
0.0010487
0.000792659
0.000576909
0.000407911
0.000283583
0.000194093
0.000125048
6.20462e-05
7.64029e-06
1.48971e-05
0.000114421
0.000204225
0.000270859
0.000325174
0.000373093
0.000417427
0.000459791
0.000501389
0.000543398
0.000587146
0.000634123
0.000685878
0.00074381
0.000808921
0.000881595
0.000961468
0.00104743
0.00113775
0.00123027
0.00132264
0.00141253
0.00149789
0.00157707
0.001649
0.00171324
0.0017699
0.00181958
0.00186313
0.00190149
0.00193552
0.00196596
0.00199339
0.00201824
0.0020406
0.00206056
0.00207929
0.00209757
0.00211686
0.00213499
0.00215204
0.0021682
0.0021833
0.00219804
0.00221428
0.00223243
0.00225319
0.00227704
0.00230402
0.00233475
0.00236963
0.00240903
0.00245323
0.00250227
0.00255593
0.00261368
0.0026745
0.00273687
0.00279862
0.0028561
0.00290552
0.00293491
0.00294494
0.00292818
0.00288833
0.00280586
0.00266099
0.0024582
0.00220718
0.001917
0.00160264
0.00128369
0.000981863
0.000717149
0.000503154
0.000343145
0.000228993
0.000144393
7.11782e-05
8.77389e-06
1.85161e-05
0.000138114
0.000240563
0.000314338
0.000373682
0.000425621
0.000473534
0.000519444
0.00056489
0.000611327
0.000660302
0.000713439
0.000772291
0.000838093
0.000911488
0.000992335
0.00107965
0.00117172
0.00126629
0.00136089
0.00145303
0.00154045
0.00162135
0.00169443
0.00175903
0.00181506
0.00186291
0.00190326
0.00193697
0.00196486
0.00198747
0.00200537
0.00201877
0.00202904
0.00203756
0.00204555
0.0020502
0.00205191
0.00205144
0.00204835
0.00204467
0.00204129
0.00203953
0.00203904
0.00204098
0.00204563
0.00205355
0.00206524
0.00208083
0.002101
0.00212619
0.002157
0.00219404
0.00223788
0.00228894
0.00234751
0.00241351
0.00248628
0.00256442
0.00264637
0.00272882
0.00280674
0.00287335
0.00291011
0.00292069
0.00289672
0.00283802
0.00270379
0.00249269
0.002222
0.00190414
0.00155955
0.0012144
0.000896255
0.000628009
0.000421521
0.000273572
0.000167508
8.1261e-05
1.00175e-05
2.2394e-05
0.000162505
0.000277111
0.000357733
0.000421946
0.000477796
0.000529216
0.000578648
0.000627969
0.000678909
0.000733205
0.000792554
0.000858422
0.000931763
0.00101275
0.00110066
0.00119387
0.00129012
0.00138678
0.00148117
0.00157081
0.00165365
0.00172815
0.00179339
0.00184903
0.00189523
0.00193249
0.00196145
0.00198292
0.00199787
0.00200555
0.00200858
0.00200947
0.00200742
0.00200053
0.00198827
0.00197182
0.00195341
0.00193512
0.00191765
0.00190126
0.00188704
0.00187561
0.00186726
0.00186313
0.00186178
0.00186373
0.00187053
0.00188111
0.00189606
0.00191544
0.00193952
0.0019689
0.00200424
0.00204645
0.00209662
0.00215594
0.00222529
0.00230428
0.0023938
0.00249225
0.0025967
0.00270163
0.0028005
0.00287541
0.00290799
0.00290869
0.00286661
0.00274167
0.00251804
0.00222165
0.00187021
0.00149196
0.00112139
0.000792063
0.000527632
0.000334174
0.000198013
9.38462e-05
1.15773e-05
2.64676e-05
0.000187252
0.000313465
0.000400678
0.000469656
0.000529374
0.000584304
0.000637296
0.000690559
0.000746078
0.000805742
0.000871254
0.000943901
0.00102426
0.00111196
0.00120565
0.00130314
0.00140169
0.00149841
0.00159055
0.00167574
0.00175216
0.00181857
0.00187436
0.00191945
0.00195414
0.00197915
0.00199397
0.00199953
0.00199994
0.00199605
0.00198624
0.00197005
0.00194718
0.00191955
0.00188945
0.00185921
0.00182953
0.00180215
0.00177787
0.00175713
0.00174063
0.00172856
0.00172127
0.00171829
0.00171791
0.00172203
0.00173029
0.00174182
0.00175692
0.0017755
0.00179773
0.00182352
0.00185303
0.00188664
0.001925
0.00196915
0.00202089
0.00208354
0.00215911
0.00225023
0.00235756
0.00247526
0.0026026
0.00273027
0.00284438
0.00290728
0.00292426
0.0028942
0.00277256
0.00252908
0.00219884
0.00180754
0.00139398
0.00100233
0.000670431
0.000418365
0.000240596
0.000110983
1.37291e-05
3.06726e-05
0.000212042
0.000349267
0.000442836
0.000516503
0.000580089
0.000638574
0.000695196
0.000752478
0.000812632
0.000877647
0.000949164
0.00102821
0.0011149
0.00120828
0.0013064
0.00140653
0.0015056
0.00160053
0.0016886
0.00176761
0.00183597
0.00189275
0.0019376
0.00197068
0.00199142
0.00199979
0.0020004
0.00199382
0.0019814
0.00196031
0.00192992
0.00189369
0.00185504
0.0018147
0.00177495
0.00173792
0.00170472
0.00167656
0.00165391
0.00163686
0.0016254
0.00161999
0.00161843
0.00162038
0.00162691
0.0016369
0.00165013
0.00166612
0.00168475
0.0017058
0.00172917
0.00175478
0.00178264
0.00181274
0.00184533
0.00188082
0.00191998
0.00196405
0.00201478
0.00207538
0.00215146
0.00225308
0.0023774
0.00251947
0.00267118
0.00281601
0.00290981
0.00294196
0.00291899
0.00279127
0.00251766
0.00214382
0.00170722
0.00126055
0.000856798
0.000533998
0.000300906
0.000135296
1.68382e-05
3.49472e-05
0.000236605
0.000384212
0.000483902
0.000562188
0.000629658
0.000691761
0.000752093
0.000813462
0.000878266
0.000948543
0.0010258
0.00111073
0.00120294
0.0013009
0.00140206
0.00150326
0.00160116
0.00169262
0.001775
0.00184627
0.00190512
0.00195086
0.00198337
0.00200034
0.00200529
0.00200088
0.00198889
0.00196733
0.00193458
0.00189339
0.0018476
0.00179892
0.00175037
0.00170399
0.00166191
0.00162586
0.00159659
0.00157452
0.00155926
0.00155169
0.00154916
0.00155014
0.00155653
0.00156623
0.00157931
0.00159501
0.00161306
0.00163309
0.00165491
0.00167837
0.00170339
0.00172991
0.00175791
0.00178721
0.00181782
0.00184972
0.00188316
0.00191857
0.00195672
0.00199922
0.00204911
0.00211142
0.00219261
0.00230686
0.00245565
0.00262481
0.00279703
0.00291686
0.00296073
0.00293806
0.00279012
0.002473
0.00204472
0.00156102
0.00108902
0.000687319
0.00038491
0.000169954
2.13807e-05
3.92336e-05
0.000260711
0.000418035
0.000523596
0.000606425
0.000677795
0.000743577
0.000807689
0.000873186
0.000942605
0.00101798
0.00110061
0.00119081
0.00128766
0.00138903
0.00149187
0.00159265
0.00168785
0.00177432
0.00184954
0.00191169
0.00195972
0.00199282
0.0020082
0.00201122
0.00200293
0.00198601
0.00195599
0.00191411
0.00186459
0.00180997
0.00175344
0.00169791
0.00164636
0.00160098
0.00156335
0.0015343
0.0015137
0.00150217
0.00149765
0.00149727
0.0015025
0.00151178
0.0015246
0.00154001
0.00155767
0.00157717
0.00159829
0.00162086
0.00164482
0.00167012
0.00169675
0.00172458
0.00175344
0.00178322
0.00181389
0.00184512
0.00187688
0.00190927
0.00194269
0.0019777
0.00201483
0.00205622
0.00210709
0.00217479
0.00227012
0.00241311
0.00259568
0.00279008
0.00292877
0.00297891
0.00294593
0.00275882
0.00238057
0.00188954
0.00136303
0.000880924
0.000497519
0.000218204
2.79043e-05
4.3479e-05
0.000284161
0.000450509
0.000561669
0.000648945
0.000724213
0.000793719
0.000861658
0.000931285
0.00100523
0.00108546
0.00117303
0.00126782
0.00136836
0.00147199
0.0015752
0.00167418
0.00176529
0.00184541
0.00191219
0.00196409
0.00199951
0.00201549
0.002018
0.00200758
0.00198627
0.00194995
0.00190122
0.00184447
0.00178247
0.00171894
0.00165748
0.00160137
0.00155317
0.00151439
0.00148557
0.00146689
0.00145813
0.00145555
0.00145763
0.00146546
0.00147708
0.00149166
0.00150852
0.00152717
0.00154731
0.00156877
0.00159149
0.00161546
0.00164074
0.00166742
0.00169556
0.0017252
0.00175643
0.00178923
0.00182285
0.00185654
0.00188971
0.00192172
0.00195249
0.0019821
0.00201228
0.00204507
0.00208228
0.00212522
0.00218221
0.00226549
0.00239329
0.00258462
0.00279729
0.00294466
0.00299234
0.00293511
0.00268133
0.00222356
0.00166805
0.00111262
0.000641165
0.000282628
3.6927e-05
4.76365e-05
0.000306789
0.00048144
0.000597902
0.000689498
0.000768637
0.000841882
0.000913659
0.000987376
0.0010657
0.00115048
0.00124248
0.00134112
0.00144441
0.00154918
0.00165154
0.00174746
0.00183325
0.00190586
0.00196311
0.0020032
0.00202196
0.00202546
0.00201457
0.00199085
0.00195032
0.00189662
0.00183383
0.00176552
0.00169568
0.00162859
0.00156796
0.00151663
0.00147622
0.00144709
0.00142981
0.0014224
0.00142084
0.00142477
0.00143387
0.00144672
0.00146208
0.00147935
0.00149808
0.00151801
0.00153904
0.00156117
0.00158447
0.00160907
0.00163514
0.00166284
0.00169235
0.00172375
0.00175709
0.00179236
0.00182963
0.00186896
0.00190893
0.00194745
0.00198284
0.00201422
0.00204147
0.00206524
0.00208832
0.00211717
0.00215609
0.00220549
0.00227881
0.00239614
0.00259152
0.00282031
0.00296188
0.00299526
0.0028948
0.00253349
0.00198716
0.00137561
0.000815093
0.000364276
4.87702e-05
5.16594e-05
0.000328449
0.000510672
0.000632099
0.000727856
0.000810803
0.000887766
0.000963353
0.00104107
0.00112357
0.00121255
0.00130842
0.00141016
0.00151527
0.00162013
0.00172053
0.00181229
0.0018917
0.00195584
0.00200256
0.00202665
0.00203279
0.00202349
0.00199965
0.00195719
0.00190042
0.00183304
0.00175926
0.00168362
0.00161084
0.00154525
0.00149005
0.00144703
0.00141653
0.00139926
0.0013922
0.00139094
0.00139545
0.00140503
0.00141809
0.00143343
0.00145034
0.00146843
0.00148749
0.00150744
0.00152834
0.0015503
0.0015735
0.00159815
0.00162448
0.00165274
0.00168316
0.00171597
0.00175132
0.00178929
0.00182975
0.00187234
0.001917
0.00196374
0.00200993
0.00205186
0.00208627
0.00211372
0.00213297
0.00214657
0.00216308
0.002193
0.00223896
0.0023042
0.00241884
0.00261669
0.00285642
0.0029756
0.00298274
0.00278816
0.00229811
0.00165874
0.00101511
0.000461824
6.33784e-05
5.55042e-05
0.000349025
0.000538071
0.000664095
0.000763814
0.000850466
0.000931086
0.00101041
0.00109199
0.00117842
0.00127119
0.00137036
0.00147445
0.0015805
0.00168448
0.00178194
0.0018686
0.00194084
0.00199589
0.00202819
0.00203884
0.00203378
0.00201193
0.00197015
0.00191216
0.00184185
0.00176367
0.00168265
0.00160407
0.00153281
0.00147266
0.00142575
0.00139253
0.00137369
0.00136593
0.00136438
0.00136842
0.00137765
0.00139026
0.00140499
0.00142104
0.00143805
0.00145581
0.00147429
0.00149357
0.00151378
0.00153511
0.0015578
0.00158208
0.00160824
0.00163656
0.00166734
0.00170088
0.00173746
0.00177731
0.00182053
0.00186705
0.00191648
0.0019679
0.00202108
0.0020753
0.00212548
0.00216497
0.00219322
0.00220779
0.00221439
0.00222009
0.00223585
0.00227534
0.00233813
0.00245306
0.00266125
0.00289148
0.00298899
0.00292467
0.00257339
0.00194667
0.00123395
0.000571135
8.01132e-05
5.91366e-05
0.000368419
0.000563526
0.000693746
0.000797192
0.000887407
0.000971578
0.00105452
0.00113978
0.00122985
0.00132598
0.00142786
0.00153359
0.00163976
0.00174202
0.0018357
0.00191649
0.00198091
0.00202447
0.00204262
0.00204351
0.00202607
0.00198789
0.00193092
0.0018596
0.00177839
0.00169268
0.00160826
0.00153067
0.00146437
0.00141208
0.00137458
0.00135246
0.00134289
0.00134048
0.00134322
0.00135143
0.00136308
0.00137681
0.00139176
0.00140743
0.00142369
0.00144052
0.00145799
0.00147626
0.00149553
0.00151602
0.00153798
0.00156167
0.00158737
0.00161539
0.00164605
0.00167973
0.00171679
0.0017576
0.00180247
0.00185157
0.00190485
0.00196189
0.0020217
0.00208274
0.0021448
0.00220299
0.00224894
0.00227567
0.0022857
0.00228678
0.00228202
0.00228103
0.00231465
0.00237703
0.00249826
0.00272483
0.00291519
0.00296521
0.00278353
0.00222142
0.00146249
0.000685652
9.85067e-05
6.25281e-05
0.000386554
0.00058695
0.00072094
0.00082784
0.000921433
0.00100901
0.0010954
0.00118413
0.00127752
0.00137656
0.00148059
0.00158727
0.00169283
0.00179265
0.00188189
0.00195619
0.00201194
0.00204199
0.00204997
0.00203956
0.00200813
0.00195507
0.00188509
0.0018027
0.00171343
0.00162351
0.00153915
0.00146561
0.00140644
0.00136296
0.00133558
0.00132295
0.0013191
0.00131987
0.00132647
0.00133681
0.00134928
0.00136294
0.00137723
0.00139194
0.00140706
0.00142268
0.00143896
0.00145611
0.00147435
0.00149392
0.00151506
0.00153804
0.00156314
0.00159065
0.00162093
0.00165436
0.00169136
0.00173239
0.00177792
0.00182837
0.001884
0.00194482
0.00201034
0.00207937
0.00214972
0.00222011
0.00228644
0.00233662
0.00236123
0.00236812
0.00236111
0.00234022
0.00232984
0.00235512
0.00242036
0.00255626
0.00280178
0.00292693
0.00288241
0.00246363
0.00169289
0.000801572
0.000117453
6.56549e-05
0.000403371
0.000608281
0.00074559
0.000855638
0.000952386
0.00104317
0.00113282
0.00122475
0.00132112
0.00142263
0.00152825
0.00163528
0.00173962
0.0018364
0.00192072
0.00198834
0.00203342
0.00205114
0.00205028
0.00202828
0.00198222
0.00191649
0.00183533
0.00174427
0.00164979
0.00155868
0.00147711
0.00140967
0.00135866
0.00132406
0.0013064
0.00129981
0.00129887
0.00130307
0.00131172
0.00132279
0.00133509
0.00134798
0.00136118
0.00137464
0.00138844
0.00140275
0.00141779
0.00143377
0.00145095
0.00146956
0.00148986
0.0015121
0.00153654
0.00156348
0.00159327
0.00162626
0.00166292
0.00170374
0.00174927
0.00180012
0.0018568
0.00191972
0.00198892
0.00206384
0.00214301
0.00222371
0.00230334
0.00237747
0.00242779
0.00244886
0.00245153
0.00243122
0.0023925
0.0023733
0.00239619
0.00246969
0.00263696
0.00284436
0.00290668
0.00266134
0.00192155
0.000921102
0.000137005
6.84977e-05
0.000418827
0.000627481
0.000767638
0.000880499
0.000980143
0.00107392
0.00116658
0.00126144
0.00136043
0.00146396
0.00157068
0.00167753
0.00178012
0.0018734
0.00195239
0.00201271
0.00204626
0.00205545
0.00204496
0.0020094
0.0019512
0.00187431
0.00178397
0.00168666
0.00158957
0.00149971
0.00142284
0.00136247
0.00131953
0.00129426
0.00128329
0.00128027
0.00128171
0.0012882
0.00129765
0.00130857
0.00132011
0.00133187
0.00134375
0.00135582
0.00136822
0.00138118
0.00139493
0.00140971
0.00142579
0.00144342
0.00146285
0.00148433
0.00150813
0.00153451
0.00156381
0.00159637
0.00163262
0.00167306
0.00171829
0.00176898
0.00182586
0.00188962
0.00196077
0.00203939
0.0021248
0.00221513
0.00230685
0.00239632
0.00247665
0.00252337
0.00253901
0.00253216
0.00249305
0.00243498
0.00240841
0.00243758
0.00252821
0.002736
0.00285915
0.00277205
0.00214294
0.00105433
0.000158931
7.10414e-05
0.000432895
0.000644534
0.000787054
0.00090237
0.00100462
0.00110112
0.00119654
0.00129401
0.00139526
0.00150041
0.00160777
0.00171398
0.00181442
0.0019039
0.00197744
0.00202951
0.00205245
0.00205418
0.00203306
0.00198586
0.0019168
0.00183045
0.00173297
0.00163166
0.00153415
0.00144736
0.0013763
0.00132331
0.00128809
0.00127053
0.00126399
0.00126299
0.00126663
0.00127417
0.00128362
0.00129386
0.00130431
0.00131476
0.00132521
0.0013358
0.00134674
0.00135829
0.00137068
0.0013842
0.00139912
0.00141571
0.00143423
0.00145494
0.0014781
0.00150397
0.00153285
0.00156506
0.001601
0.00164113
0.00168602
0.00173638
0.00179303
0.00185684
0.0019287
0.00200924
0.00209855
0.00219571
0.00229818
0.00240125
0.00250063
0.00258207
0.00262112
0.00262958
0.00260516
0.00254017
0.00246486
0.00243613
0.00247922
0.00260967
0.00278353
0.00281143
0.00235569
0.00121497
0.000186164
7.32755e-05
0.000445559
0.000659445
0.000803839
0.000921229
0.00102577
0.00112471
0.00122259
0.00132236
0.00142552
0.00153189
0.0016395
0.00174471
0.00184272
0.00192826
0.00199634
0.00203924
0.00205412
0.00204883
0.00201641
0.00195909
0.00188065
0.00178657
0.00168388
0.00158049
0.00148426
0.00140168
0.0013368
0.00129067
0.00126308
0.00125079
0.00124712
0.00124756
0.00125264
0.00126043
0.00126937
0.00127863
0.00128781
0.00129683
0.00130578
0.00131482
0.00132423
0.00133426
0.00134521
0.00135737
0.00137103
0.00138649
0.00140404
0.00142394
0.00144646
0.00147186
0.00150042
0.00153242
0.00156822
0.00160822
0.00165295
0.00170306
0.0017594
0.00182293
0.00189477
0.00197598
0.00206733
0.00216887
0.0022792
0.00239479
0.00250905
0.00261749
0.00269168
0.00271945
0.00271565
0.00266281
0.00256456
0.00248336
0.00246633
0.0025335
0.00271792
0.00280882
0.00254009
0.00140349
0.000219615
7.5194e-05
0.000456819
0.000672242
0.000818018
0.00093709
0.00104359
0.00114465
0.00124468
0.00134643
0.00145115
0.00155839
0.00166591
0.00176985
0.00186525
0.00194672
0.00200914
0.00204353
0.0020523
0.00203841
0.00199671
0.00193048
0.00184415
0.00174402
0.00163782
0.00153392
0.00144013
0.00136233
0.00130356
0.00126378
0.00124243
0.00123375
0.00123168
0.00123351
0.0012392
0.00124673
0.00125486
0.00126296
0.00127077
0.00127828
0.00128564
0.00129307
0.00130083
0.00130925
0.00131864
0.0013293
0.00134158
0.00135581
0.00137228
0.00139131
0.00141317
0.00143813
0.00146645
0.00149839
0.00153424
0.00157437
0.0016192
0.00166933
0.00172553
0.00178879
0.00186032
0.00194148
0.00203357
0.00213748
0.00225302
0.00237812
0.00250779
0.00263323
0.00274396
0.00280288
0.00281752
0.0027871
0.00269567
0.00255991
0.00249116
0.00250185
0.00261614
0.00274065
0.00265354
0.00160414
0.000256309
7.67951e-05
0.000466686
0.000682972
0.000829645
0.00095
0.0010581
0.00116097
0.00126283
0.00136623
0.00147218
0.00157998
0.00168714
0.00178961
0.0018823
0.00195975
0.00201646
0.0020433
0.00204721
0.00202483
0.00197507
0.00190125
0.0018085
0.00170383
0.00159556
0.0014923
0.00140164
0.00132875
0.00127563
0.00124144
0.00122474
0.00121853
0.0012175
0.00122029
0.00122605
0.001233
0.00124013
0.00124695
0.00125331
0.00125926
0.00126496
0.00127069
0.00127672
0.0012834
0.00129109
0.00130014
0.00131091
0.00132376
0.00133906
0.00135713
0.00137828
0.0014028
0.00143093
0.00146292
0.00149903
0.00153952
0.00158477
0.00163525
0.00169165
0.00175487
0.00182615
0.00190698
0.00199903
0.00210385
0.00222231
0.00235373
0.00249465
0.00263765
0.00277352
0.00287241
0.002911
0.00290544
0.00283101
0.00268893
0.00254288
0.00249683
0.00255503
0.00269194
0.00270007
0.00181349
0.000295455
7.80811e-05
0.000475181
0.000691701
0.000838796
0.000960034
0.00106938
0.00117371
0.00127708
0.00138181
0.00148869
0.00159676
0.00170335
0.00180426
0.0018943
0.00196808
0.00201906
0.00204035
0.0020387
0.00200916
0.00195252
0.00187242
0.00177462
0.00166674
0.00155752
0.00145569
0.00136845
0.0013002
0.00125199
0.00122272
0.00120919
0.00120464
0.00120429
0.00120757
0.00121304
0.00121921
0.00122523
0.00123071
0.00123558
0.00123991
0.0012439
0.00124785
0.00125206
0.00125691
0.00126279
0.00127009
0.00127922
0.00129058
0.00130458
0.00132159
0.00134196
0.00136599
0.00139396
0.00142609
0.0014626
0.0015037
0.00154966
0.00160085
0.00165783
0.00172139
0.00179268
0.00187323
0.00196491
0.00206977
0.00218958
0.00232499
0.0024743
0.0026319
0.00278682
0.00292372
0.00299818
0.00301475
0.00296682
0.00283305
0.00263784
0.00252605
0.00252313
0.00264862
0.00270787
0.00202121
0.00033594
7.90581e-05
0.000482335
0.000698507
0.000845569
0.000967291
0.00107752
0.00118298
0.00128752
0.00139328
0.00150079
0.00160891
0.00171477
0.00181406
0.0019015
0.00197173
0.00201753
0.00203433
0.00202769
0.00199223
0.00192991
0.00184481
0.00174321
0.00163323
0.00152391
0.00142394
0.00134009
0.00127603
0.00123199
0.00120654
0.00119521
0.00119174
0.0011918
0.00119518
0.00120014
0.0012054
0.00121024
0.00121435
0.00121769
0.00122038
0.00122264
0.00122476
0.00122709
0.00123004
0.00123401
0.00123947
0.00124685
0.0012566
0.00126918
0.00128502
0.00130452
0.00132801
0.00135579
0.00138809
0.00142511
0.001467
0.00151394
0.00156618
0.00162413
0.00168844
0.00176013
0.00184066
0.00193197
0.00203642
0.00215647
0.00229394
0.00244882
0.00261749
0.00279075
0.00295544
0.0030724
0.00311516
0.00309627
0.0029805
0.00277584
0.00257451
0.00251604
0.00258318
0.00267473
0.00220625
0.000373933
7.97353e-05
0.000488187
0.000703484
0.000850073
0.000971881
0.00108263
0.00118887
0.00129427
0.00140074
0.00150862
0.00161655
0.00172152
0.00181912
0.00190403
0.00197118
0.00201307
0.00202616
0.00201499
0.00197477
0.00190796
0.00181905
0.00171477
0.0016036
0.00149476
0.00139682
0.0013161
0.00125561
0.00121496
0.00119229
0.00118242
0.00117954
0.00117986
0.00118303
0.00118733
0.00119161
0.00119526
0.00119798
0.0011998
0.00120085
0.00120136
0.00120165
0.00120209
0.00120312
0.00120514
0.00120868
0.00121423
0.00122228
0.00123334
0.0012479
0.00126641
0.00128927
0.00131681
0.00134929
0.00138687
0.00142968
0.00147781
0.00153139
0.00159067
0.00165615
0.00172866
0.00180954
0.00190068
0.00200461
0.00212425
0.00226242
0.00242066
0.00259749
0.00278605
0.00297207
0.00313085
0.00320862
0.00321734
0.0031288
0.00292813
0.00266466
0.00253478
0.00255039
0.00263883
0.00235341
0.000405669
8.01276e-05
0.000492781
0.000706719
0.000852388
0.000973839
0.00108473
0.0011914
0.00129731
0.00140417
0.00151209
0.00161956
0.0017235
0.00181954
0.00190285
0.00196789
0.00200561
0.00201607
0.00200121
0.00195735
0.00188722
0.00179563
0.00168964
0.00157798
0.00146999
0.00137403
0.00129601
0.00123842
0.00120036
0.00117954
0.00117054
0.00116796
0.00116831
0.00117108
0.00117464
0.00117794
0.00118041
0.0011817
0.00118202
0.00118151
0.00118031
0.00117878
0.00117732
0.00117653
0.0011766
0.0011782
0.00118186
0.00118815
0.00119761
0.00121079
0.00122822
0.00125035
0.00127756
0.00131015
0.0013483
0.00139209
0.00144156
0.00149671
0.00155765
0.00162468
0.00169844
0.00178008
0.00187138
0.00197489
0.00209382
0.00223173
0.00239151
0.00257368
0.00277369
0.00297905
0.00317026
0.00329351
0.00332862
0.00327176
0.00308263
0.00279535
0.00257146
0.00253346
0.00261107
0.00245099
0.00042735
8.02189e-05
0.000496133
0.000708244
0.000852495
0.000973429
0.00108416
0.00119085
0.00129685
0.00140375
0.00151155
0.00161869
0.00172204
0.00181715
0.00189872
0.00196102
0.001996
0.00200449
0.00198687
0.00194047
0.00186811
0.00177487
0.001668
0.00155641
0.00144944
0.00135527
0.00127944
0.00122401
0.00118776
0.00116801
0.00115941
0.00115688
0.00115707
0.00115932
0.0011621
0.00116442
0.00116558
0.00116567
0.00116462
0.00116256
0.00115973
0.00115648
0.00115324
0.00115046
0.00114882
0.00114855
0.00115032
0.00115481
0.00116262
0.00117435
0.00119059
0.00121187
0.00123865
0.00127127
0.00130994
0.00135473
0.00140562
0.00146252
0.00152536
0.00159426
0.00166966
0.00175247
0.00184431
0.00194763
0.0020658
0.00220289
0.00236294
0.00254837
0.00275728
0.00298006
0.00319714
0.00336551
0.00343256
0.00340942
0.00324201
0.002944
0.0026338
0.00252816
0.0025769
0.00249951
0.000437986
8.00781e-05
0.000498244
0.000708216
0.000851385
0.000971475
0.00108174
0.00118826
0.0012942
0.00140099
0.0015085
0.00161507
0.00171746
0.00181113
0.0018908
0.00195127
0.00198454
0.00199175
0.00197234
0.00192445
0.00185094
0.00175698
0.00164994
0.00153886
0.00143297
0.00134027
0.00126605
0.00121207
0.0011769
0.00115755
0.00114892
0.0011462
0.00114611
0.00114775
0.00114974
0.00115095
0.00115111
0.00115003
0.00114767
0.00114419
0.00113986
0.00113502
0.00113011
0.0011256
0.00112202
0.0011202
0.00112015
0.00112287
0.00112901
0.00113924
0.00115421
0.00117454
0.00120076
0.0012333
0.0012724
0.00131815
0.00137049
0.00142922
0.00149416
0.0015652
0.00164257
0.00172693
0.00181968
0.00192313
0.00204064
0.00217661
0.00233596
0.00252276
0.0027376
0.00297381
0.0032135
0.00342308
0.00352959
0.00353811
0.00339986
0.00310417
0.00272793
0.00253892
0.00254996
0.00252113
0.000442563
7.97256e-05
0.000499435
0.000707341
0.000848614
0.000967351
0.00107679
0.00118283
0.00128845
0.00139488
0.00150184
0.00160758
0.0017089
0.00180142
0.00187992
0.00193913
0.00197153
0.00197813
0.00195793
0.00190955
0.00183587
0.00174207
0.00163547
0.00152524
0.00142043
0.00132884
0.00125561
0.00120238
0.0011676
0.00114806
0.00113903
0.00113586
0.0011354
0.00113637
0.00113748
0.00113781
0.00113702
0.00113486
0.00113133
0.00112659
0.00112091
0.00111465
0.00110824
0.00110217
0.00109696
0.00109334
0.00109187
0.00109287
0.00109738
0.0011061
0.00111975
0.00113904
0.00116459
0.0011969
0.00123631
0.00128294
0.0013367
0.00139732
0.00146446
0.00153785
0.00161746
0.00170371
0.00179773
0.00190161
0.00201865
0.0021534
0.00231142
0.00249819
0.00271662
0.00296305
0.00322228
0.00346431
0.00361977
0.00365808
0.00355359
0.00326314
0.00285752
0.00256698
0.002527
0.00252779
0.000443952