/*--------------------------------*- C++ -*----------------------------------*\
  =========                 |
  \\      /  F ield         | OpenFOAM: The Open Source CFD Toolbox
   \\    /   O peration     | Website:  https://openfoam.org
    \\  /    A nd           | Version:  13
     \\/     M anipulation  |
\*---------------------------------------------------------------------------*/
FoamFile
{
    format      ascii;
    class       volScalarField;
    location    "1.9";
    object      nut;
}
// * * * * * * * * * * * * * * * * * * * * * * * * * * * * * * * * * * * * * //

dimensions      [0 2 -1 0 0 0 0];

internalField   nonuniform List<scalar> 
6400
(
3.58972e-10
1.78088e-09
3.8554e-09
6.10764e-09
8.35002e-09
1.05574e-08
1.27791e-08
1.50064e-08
1.72424e-08
1.94843e-08
2.17346e-08
2.40114e-08
2.63551e-08
2.88298e-08
3.15219e-08
3.4537e-08
3.79965e-08
4.20304e-08
4.67681e-08
5.23266e-08
5.88041e-08
6.62644e-08
7.47271e-08
8.41645e-08
9.45088e-08
1.05667e-07
1.17544e-07
1.30065e-07
1.43197e-07
1.56955e-07
1.71397e-07
1.86602e-07
2.02643e-07
2.19556e-07
2.37328e-07
2.55931e-07
2.75508e-07
2.96064e-07
3.17614e-07
3.40161e-07
3.63644e-07
3.87971e-07
4.12999e-07
4.38516e-07
4.64231e-07
4.89782e-07
5.14803e-07
5.39152e-07
5.63462e-07
5.90943e-07
6.18719e-07
6.43646e-07
6.64839e-07
6.80578e-07
6.90992e-07
6.95614e-07
6.94017e-07
6.82502e-07
6.63009e-07
6.34112e-07
5.95875e-07
5.48877e-07
4.94237e-07
4.33819e-07
3.70044e-07
3.05674e-07
2.43624e-07
1.87002e-07
1.38068e-07
9.8324e-08
6.87169e-08
4.67359e-08
3.12132e-08
2.071e-08
1.37878e-08
9.20365e-09
6.01199e-09
3.58947e-09
1.65718e-09
3.39971e-10
1.79187e-09
1.51425e-07
5.04328e-07
8.69726e-07
1.20172e-06
1.49824e-06
1.7651e-06
2.01583e-06
2.25497e-06
2.48387e-06
2.70386e-06
2.91755e-06
3.12932e-06
3.34497e-06
3.57088e-06
3.81313e-06
4.07675e-06
4.36458e-06
4.67624e-06
5.00795e-06
5.35426e-06
5.70739e-06
6.05849e-06
6.39925e-06
6.72351e-06
7.02806e-06
7.31293e-06
7.58176e-06
7.8414e-06
8.10102e-06
8.37098e-06
8.66138e-06
8.98075e-06
9.3345e-06
9.72338e-06
1.01437e-05
1.06174e-05
1.11373e-05
1.17077e-05
1.23359e-05
1.30172e-05
1.37483e-05
1.4525e-05
1.5341e-05
1.61877e-05
1.7052e-05
1.79143e-05
1.8746e-05
1.95089e-05
2.01562e-05
2.07349e-05
2.12873e-05
2.17987e-05
2.21849e-05
2.24488e-05
2.2695e-05
2.28127e-05
2.27534e-05
2.25154e-05
2.20933e-05
2.14635e-05
2.06202e-05
1.95521e-05
1.82673e-05
1.67784e-05
1.51132e-05
1.33139e-05
1.14351e-05
9.54109e-06
7.68561e-06
5.85674e-06
4.27472e-06
3.02534e-06
2.10051e-06
1.44928e-06
9.96864e-07
6.66467e-07
3.90964e-07
1.3314e-07
1.71289e-09
4.06853e-09
5.01439e-07
2.15839e-06
4.02271e-06
5.55625e-06
6.77922e-06
7.783e-06
8.63809e-06
9.38384e-06
1.00426e-05
1.06312e-05
1.11675e-05
1.16739e-05
1.21678e-05
1.26671e-05
1.3187e-05
1.37372e-05
1.43202e-05
1.49273e-05
1.55435e-05
1.61573e-05
1.67519e-05
1.73114e-05
1.7824e-05
1.8284e-05
1.86929e-05
1.90587e-05
1.93957e-05
1.97222e-05
2.00588e-05
2.0427e-05
2.08479e-05
2.13414e-05
2.19271e-05
2.26151e-05
2.33761e-05
2.42543e-05
2.52261e-05
2.62873e-05
2.74129e-05
2.85995e-05
2.98354e-05
3.11065e-05
3.2397e-05
3.36897e-05
3.49654e-05
3.62039e-05
3.73846e-05
3.84858e-05
3.95207e-05
4.04978e-05
4.1406e-05
4.2217e-05
4.2902e-05
4.34252e-05
4.36713e-05
4.39107e-05
4.38627e-05
4.35188e-05
4.28652e-05
4.18898e-05
4.06112e-05
3.8984e-05
3.70209e-05
3.47167e-05
3.20956e-05
2.91978e-05
2.60756e-05
2.28023e-05
1.94645e-05
1.61558e-05
1.30363e-05
1.02272e-05
7.8356e-06
5.89757e-06
4.35179e-06
3.04791e-06
1.76568e-06
4.79037e-07
3.95907e-09
7.0697e-09
9.47221e-07
4.25011e-06
7.95859e-06
1.09126e-05
1.31429e-05
1.48635e-05
1.6238e-05
1.73655e-05
1.83062e-05
1.91013e-05
1.97849e-05
2.03875e-05
2.09455e-05
2.14899e-05
2.20452e-05
2.26272e-05
2.32423e-05
2.38897e-05
2.45579e-05
2.52226e-05
2.58633e-05
2.64638e-05
2.70145e-05
2.75143e-05
2.79714e-05
2.84019e-05
2.88277e-05
2.92735e-05
2.97641e-05
3.03219e-05
3.09648e-05
3.17051e-05
3.25479e-05
3.34921e-05
3.45699e-05
3.56944e-05
3.68861e-05
3.81244e-05
3.93905e-05
4.06688e-05
4.19429e-05
4.31981e-05
4.44267e-05
4.56172e-05
4.67593e-05
4.78439e-05
4.88649e-05
4.98127e-05
5.06821e-05
5.146e-05
5.21385e-05
5.27062e-05
5.31503e-05
5.3458e-05
5.35587e-05
5.35505e-05
5.33283e-05
5.28346e-05
5.20108e-05
5.08205e-05
4.9402e-05
4.76259e-05
4.55394e-05
4.30947e-05
4.03178e-05
3.72371e-05
3.38853e-05
3.03202e-05
2.66235e-05
2.2899e-05
1.92817e-05
1.59105e-05
1.28888e-05
1.02656e-05
7.98378e-06
5.83027e-06
3.42021e-06
8.64493e-07
6.54766e-09
1.07704e-08
1.47769e-06
6.44974e-06
1.18155e-05
1.59681e-05
1.90213e-05
2.13057e-05
2.30655e-05
2.44528e-05
2.5561e-05
2.64544e-05
2.7185e-05
2.78013e-05
2.83521e-05
2.88819e-05
2.94271e-05
3.0011e-05
3.06424e-05
3.1316e-05
3.20147e-05
3.27135e-05
3.33897e-05
3.40268e-05
3.46176e-05
3.51656e-05
3.56839e-05
3.61931e-05
3.67178e-05
3.72828e-05
3.79092e-05
3.86118e-05
3.9397e-05
4.02614e-05
4.11919e-05
4.21941e-05
4.32656e-05
4.43542e-05
4.54522e-05
4.65433e-05
4.76138e-05
4.86513e-05
4.96455e-05
5.05822e-05
5.14583e-05
5.2275e-05
5.30304e-05
5.37245e-05
5.43578e-05
5.49158e-05
5.54e-05
5.58067e-05
5.61307e-05
5.63666e-05
5.65058e-05
5.65375e-05
5.6448e-05
5.61143e-05
5.57794e-05
5.52773e-05
5.47309e-05
5.3849e-05
5.2668e-05
5.09911e-05
4.90896e-05
4.68119e-05
4.42128e-05
4.12984e-05
3.80652e-05
3.45565e-05
3.0845e-05
2.70311e-05
2.32438e-05
1.96291e-05
1.63211e-05
1.33883e-05
1.07522e-05
8.09778e-06
4.84755e-06
1.21855e-06
9.08232e-09
1.52121e-08
2.07074e-06
8.68035e-06
1.55153e-05
2.06877e-05
2.44266e-05
2.71654e-05
2.92177e-05
3.07815e-05
3.19814e-05
3.29041e-05
3.3621e-05
3.4199e-05
3.47033e-05
3.51933e-05
3.57148e-05
3.62952e-05
3.69403e-05
3.7638e-05
3.83638e-05
3.90891e-05
3.97893e-05
4.04487e-05
4.10632e-05
4.16397e-05
4.21942e-05
4.27479e-05
4.33232e-05
4.39391e-05
4.46082e-05
4.53352e-05
4.6117e-05
4.69453e-05
4.78109e-05
4.86696e-05
4.95109e-05
5.03308e-05
5.11159e-05
5.18552e-05
5.25408e-05
5.31706e-05
5.37422e-05
5.42557e-05
5.47109e-05
5.5117e-05
5.54741e-05
5.57821e-05
5.60384e-05
5.62579e-05
5.64391e-05
5.65797e-05
5.66774e-05
5.67266e-05
5.67192e-05
5.6643e-05
5.64797e-05
5.62027e-05
5.57064e-05
5.5056e-05
5.43716e-05
5.34889e-05
5.26406e-05
5.16551e-05
5.02481e-05
4.82916e-05
4.6063e-05
4.35052e-05
4.05569e-05
3.72534e-05
3.36586e-05
2.98662e-05
2.60039e-05
2.22296e-05
1.87076e-05
1.55453e-05
1.2679e-05
9.7242e-06
5.92501e-06
1.51416e-06
1.13718e-08
2.03867e-08
2.70562e-06
1.09e-05
1.90623e-05
2.51288e-05
2.94527e-05
3.25612e-05
3.48306e-05
3.65016e-05
3.77297e-05
3.86262e-05
3.92842e-05
3.97914e-05
4.02313e-05
4.06758e-05
4.11763e-05
4.17573e-05
4.2417e-05
4.31332e-05
4.38738e-05
4.4606e-05
4.53047e-05
4.5956e-05
4.65585e-05
4.71212e-05
4.76602e-05
4.81939e-05
4.87386e-05
4.93053e-05
4.98972e-05
5.05102e-05
5.11342e-05
5.17559e-05
5.23584e-05
5.29245e-05
5.34404e-05
5.38999e-05
5.42801e-05
5.45529e-05
5.47693e-05
5.49515e-05
5.51126e-05
5.52656e-05
5.5404e-05
5.54896e-05
5.55262e-05
5.55191e-05
5.54759e-05
5.54158e-05
5.53376e-05
5.52432e-05
5.51336e-05
5.50087e-05
5.48672e-05
5.47057e-05
5.45178e-05
5.42951e-05
5.40278e-05
5.3722e-05
5.31713e-05
5.25159e-05
5.16413e-05
5.05268e-05
4.9646e-05
4.85309e-05
4.68274e-05
4.47632e-05
4.22107e-05
3.92154e-05
3.58289e-05
3.213e-05
2.82387e-05
2.43196e-05
2.05646e-05
1.71342e-05
1.40221e-05
1.08411e-05
6.70432e-06
1.75853e-06
1.34341e-08
2.62046e-08
3.36931e-06
1.3075e-05
2.24533e-05
2.93246e-05
3.41601e-05
3.75726e-05
3.99972e-05
4.17172e-05
4.29207e-05
4.37467e-05
4.43137e-05
4.47322e-05
4.51023e-05
4.55046e-05
4.59894e-05
4.65727e-05
4.72407e-05
4.79605e-05
4.86927e-05
4.94021e-05
5.00639e-05
5.06665e-05
5.12105e-05
5.17054e-05
5.21651e-05
5.26035e-05
5.30306e-05
5.34503e-05
5.38602e-05
5.42522e-05
5.46168e-05
5.49507e-05
5.52175e-05
5.53581e-05
5.53653e-05
5.53393e-05
5.53177e-05
5.53666e-05
5.5365e-05
5.53282e-05
5.52502e-05
5.50817e-05
5.48387e-05
5.45883e-05
5.43249e-05
5.40611e-05
5.38009e-05
5.35343e-05
5.32666e-05
5.29996e-05
5.27365e-05
5.24807e-05
5.22345e-05
5.19987e-05
5.17731e-05
5.15548e-05
5.13389e-05
5.11176e-05
5.08715e-05
5.06007e-05
5.00763e-05
4.94543e-05
4.84999e-05
4.75281e-05
4.67138e-05
4.53843e-05
4.33138e-05
4.07281e-05
3.76564e-05
3.41466e-05
3.02975e-05
2.62679e-05
2.22671e-05
1.85073e-05
1.50707e-05
1.16455e-05
7.29222e-06
1.97568e-06
1.54274e-08
3.25736e-08
4.04574e-06
1.51779e-05
2.56791e-05
3.32877e-05
3.85789e-05
4.22432e-05
4.47725e-05
4.64935e-05
4.76301e-05
4.83531e-05
4.88094e-05
4.91319e-05
4.94345e-05
4.98001e-05
5.02716e-05
5.0852e-05
5.15139e-05
5.22143e-05
5.29083e-05
5.35596e-05
5.41448e-05
5.46544e-05
5.50903e-05
5.54612e-05
5.57784e-05
5.60515e-05
5.62859e-05
5.64831e-05
5.66414e-05
5.67518e-05
5.67727e-05
5.66299e-05
5.64123e-05
5.62125e-05
5.61029e-05
5.59408e-05
5.5744e-05
5.55014e-05
5.51571e-05
5.47705e-05
5.43594e-05
5.39846e-05
5.35989e-05
5.32316e-05
5.28557e-05
5.24916e-05
5.21387e-05
5.17788e-05
5.14185e-05
5.10531e-05
5.06847e-05
5.03179e-05
4.99584e-05
4.9612e-05
4.92866e-05
4.89886e-05
4.87216e-05
4.84838e-05
4.82849e-05
4.81127e-05
4.79407e-05
4.7748e-05
4.71934e-05
4.66071e-05
4.55307e-05
4.49498e-05
4.38707e-05
4.17945e-05
3.91687e-05
3.59818e-05
3.22938e-05
2.82423e-05
2.40367e-05
1.99247e-05
1.60825e-05
1.23379e-05
7.80264e-06
2.19676e-06
1.76154e-08
3.93992e-08
4.72079e-06
1.71919e-05
2.87282e-05
3.70203e-05
4.27225e-05
4.65964e-05
4.91893e-05
5.08731e-05
5.19116e-05
5.25107e-05
5.2847e-05
5.3074e-05
5.33142e-05
5.36468e-05
5.41023e-05
5.46682e-05
5.53036e-05
5.5957e-05
5.65801e-05
5.71369e-05
5.76058e-05
5.79796e-05
5.82608e-05
5.84574e-05
5.85784e-05
5.86305e-05
5.86139e-05
5.8537e-05
5.84068e-05
5.80412e-05
5.75623e-05
5.72763e-05
5.70614e-05
5.67349e-05
5.63362e-05
5.58234e-05
5.52582e-05
5.47469e-05
5.42775e-05
5.38126e-05
5.33778e-05
5.29722e-05
5.26074e-05
5.23916e-05
5.20598e-05
5.17132e-05
5.14154e-05
5.10872e-05
5.07438e-05
5.0368e-05
4.99515e-05
4.95001e-05
4.90174e-05
4.8512e-05
4.79993e-05
4.75006e-05
4.70348e-05
4.65874e-05
4.62192e-05
4.59403e-05
4.57408e-05
4.5581e-05
4.54679e-05
4.51363e-05
4.45044e-05
4.38366e-05
4.32027e-05
4.22932e-05
4.02497e-05
3.75439e-05
3.41777e-05
3.02488e-05
2.59479e-05
2.1533e-05
1.72523e-05
1.30987e-05
8.34165e-06
2.45586e-06
2.03621e-08
4.65701e-08
5.38262e-06
1.91057e-05
3.15901e-05
4.05211e-05
4.65966e-05
5.06453e-05
5.32691e-05
5.48875e-05
5.5807e-05
5.62714e-05
5.64864e-05
5.66228e-05
5.68061e-05
5.71062e-05
5.75378e-05
5.80726e-05
5.86577e-05
5.92353e-05
5.97555e-05
6.01834e-05
6.05002e-05
6.07006e-05
6.07882e-05
6.07711e-05
6.06572e-05
6.04638e-05
6.01293e-05
5.96033e-05
5.90463e-05
5.86266e-05
5.81121e-05
5.76828e-05
5.71301e-05
5.64198e-05
5.57364e-05
5.51249e-05
5.45405e-05
5.40454e-05
5.36312e-05
5.32759e-05
5.29897e-05
5.27661e-05
5.25958e-05
5.25176e-05
5.23594e-05
5.21731e-05
5.20092e-05
5.17888e-05
5.15328e-05
5.12256e-05
5.08676e-05
5.04367e-05
4.99207e-05
4.93117e-05
4.86069e-05
4.78128e-05
4.69599e-05
4.61379e-05
4.53661e-05
4.4722e-05
4.42511e-05
4.38251e-05
4.35798e-05
4.34443e-05
4.33473e-05
4.28302e-05
4.23148e-05
4.16105e-05
4.07421e-05
3.86665e-05
3.57999e-05
3.21761e-05
2.79462e-05
2.33555e-05
1.86838e-05
1.40685e-05
9.00142e-06
2.78786e-06
2.41536e-08
5.39731e-08
6.02288e-06
2.09023e-05
3.42626e-05
4.37887e-05
5.02042e-05
5.43987e-05
5.70284e-05
5.8562e-05
5.93514e-05
5.96787e-05
5.9777e-05
5.98297e-05
5.99597e-05
6.02239e-05
6.06201e-05
6.11046e-05
6.16149e-05
6.2089e-05
6.24768e-05
6.2746e-05
6.28807e-05
6.28781e-05
6.27445e-05
6.24922e-05
6.20693e-05
6.14411e-05
6.07835e-05
6.01292e-05
5.95027e-05
5.89471e-05
5.81447e-05
5.73055e-05
5.65555e-05
5.57936e-05
5.51212e-05
5.45741e-05
5.41302e-05
5.38162e-05
5.3617e-05
5.35093e-05
5.34822e-05
5.35257e-05
5.35767e-05
5.37046e-05
5.37446e-05
5.37627e-05
5.37545e-05
5.36864e-05
5.35598e-05
5.3359e-05
5.30773e-05
5.27047e-05
5.2232e-05
5.16466e-05
5.09404e-05
5.01046e-05
4.91324e-05
4.80202e-05
4.67713e-05
4.54202e-05
4.41087e-05
4.31614e-05
4.2466e-05
4.20047e-05
4.17557e-05
4.16522e-05
4.12481e-05
4.08177e-05
4.00618e-05
3.91817e-05
3.69722e-05
3.38494e-05
2.98855e-05
2.53029e-05
2.03724e-05
1.53246e-05
9.84092e-06
3.22366e-06
2.9634e-08
6.14995e-08
6.63482e-06
2.25732e-05
3.67426e-05
4.68222e-05
5.35475e-05
5.78641e-05
6.04816e-05
6.19196e-05
6.25758e-05
6.277e-05
6.27596e-05
6.27353e-05
6.28135e-05
6.30356e-05
6.33823e-05
6.37967e-05
6.42089e-05
6.45545e-05
6.4785e-05
6.48711e-05
6.48007e-05
6.45738e-05
6.41983e-05
6.35223e-05
6.27498e-05
6.19755e-05
6.11765e-05
6.04656e-05
5.95667e-05
5.85847e-05
5.76473e-05
5.67518e-05
5.59798e-05
5.53119e-05
5.48018e-05
5.447e-05
5.42945e-05
5.42715e-05
5.43581e-05
5.46182e-05
5.48366e-05
5.50476e-05
5.54184e-05
5.56566e-05
5.58642e-05
5.60175e-05
5.61101e-05
5.61216e-05
5.60478e-05
5.58805e-05
5.56166e-05
5.52546e-05
5.47918e-05
5.4216e-05
5.35229e-05
5.27017e-05
5.1745e-05
5.06421e-05
4.93791e-05
4.79645e-05
4.63891e-05
4.46598e-05
4.28694e-05
4.15117e-05
4.07223e-05
4.02561e-05
4.0087e-05
3.96878e-05
3.92958e-05
3.85192e-05
3.75207e-05
3.50814e-05
3.15774e-05
2.72096e-05
2.22097e-05
1.68352e-05
1.09066e-05
3.78787e-06
3.76423e-08
6.90476e-08
7.21335e-06
2.41136e-05
3.90285e-05
4.96214e-05
5.66294e-05
6.10491e-05
6.36429e-05
6.49813e-05
6.55078e-05
6.55776e-05
6.54679e-05
6.53728e-05
6.53984e-05
6.55699e-05
6.58522e-05
6.61775e-05
6.64707e-05
6.66666e-05
6.67192e-05
6.66025e-05
6.63082e-05
6.58121e-05
6.49378e-05
6.41162e-05
6.31947e-05
6.22988e-05
6.13633e-05
6.02418e-05
5.91316e-05
5.80625e-05
5.71016e-05
5.62774e-05
5.56425e-05
5.52006e-05
5.4971e-05
5.495e-05
5.50981e-05
5.54673e-05
5.59034e-05
5.6235e-05
5.6732e-05
5.72515e-05
5.76961e-05
5.80657e-05
5.83702e-05
5.85921e-05
5.87225e-05
5.87519e-05
5.86777e-05
5.84974e-05
5.8209e-05
5.78078e-05
5.72863e-05
5.66474e-05
5.58987e-05
5.50295e-05
5.40439e-05
5.29434e-05
5.1726e-05
5.03718e-05
4.88521e-05
4.71646e-05
4.53154e-05
4.32144e-05
4.10369e-05
3.96312e-05
3.89088e-05
3.8576e-05
3.81252e-05
3.77615e-05
3.68525e-05
3.571e-05
3.28404e-05
2.88801e-05
2.40222e-05
1.84891e-05
1.21933e-05
4.47995e-06
4.91414e-08
7.65244e-08
7.75478e-06
2.55208e-05
4.11197e-05
5.21876e-05
5.94537e-05
6.39621e-05
6.65264e-05
6.77674e-05
6.81726e-05
6.81292e-05
6.79302e-05
6.77688e-05
6.77393e-05
6.78508e-05
6.80542e-05
6.82733e-05
6.84294e-05
6.8458e-05
6.8316e-05
6.79837e-05
6.74026e-05
6.64028e-05
6.55201e-05
6.44829e-05
6.34767e-05
6.23145e-05
6.10353e-05
5.9785e-05
5.86046e-05
5.75579e-05
5.67014e-05
5.60716e-05
5.56958e-05
5.55692e-05
5.5678e-05
5.60248e-05
5.66204e-05
5.71845e-05
5.76927e-05
5.84028e-05
5.9116e-05
5.97376e-05
6.02856e-05
6.07506e-05
6.11223e-05
6.13895e-05
6.15441e-05
6.15813e-05
6.1499e-05
6.12965e-05
6.09749e-05
6.05368e-05
5.99928e-05
5.93526e-05
5.85849e-05
5.7668e-05
5.65969e-05
5.5366e-05
5.39919e-05
5.24786e-05
5.08785e-05
4.92425e-05
4.75564e-05
4.56333e-05
4.34375e-05
4.091e-05
3.86638e-05
3.76415e-05
3.71333e-05
3.65483e-05
3.61035e-05
3.5088e-05
3.35468e-05
3.01356e-05
2.56225e-05
2.01278e-05
1.36261e-05
5.2751e-06
6.50393e-08
8.3847e-08
8.25645e-06
2.67938e-05
4.3017e-05
5.4523e-05
6.20259e-05
6.66126e-05
6.91466e-05
7.02969e-05
7.05927e-05
7.04491e-05
7.01702e-05
6.99459e-05
6.98575e-05
6.98992e-05
7.00105e-05
7.01083e-05
7.01126e-05
6.99596e-05
6.96082e-05
6.90068e-05
6.7922e-05
6.69621e-05
6.58519e-05
6.47212e-05
6.33876e-05
6.19636e-05
6.05714e-05
5.92734e-05
5.81333e-05
5.72196e-05
5.65794e-05
5.62363e-05
5.61891e-05
5.64104e-05
5.69527e-05
5.77161e-05
5.84074e-05
5.91095e-05
5.9979e-05
6.09081e-05
6.17183e-05
6.2454e-05
6.31019e-05
6.36499e-05
6.4086e-05
6.44012e-05
6.45886e-05
6.46442e-05
6.45662e-05
6.43544e-05
6.40104e-05
6.3537e-05
6.29373e-05
6.22198e-05
6.14082e-05
6.05349e-05
5.95467e-05
5.83667e-05
5.69581e-05
5.5327e-05
5.3501e-05
5.14989e-05
4.9419e-05
4.74873e-05
4.55943e-05
4.3311e-05
4.06174e-05
3.77511e-05
3.63445e-05
3.56836e-05
3.49456e-05
3.43512e-05
3.33e-05
3.08485e-05
2.68574e-05
2.15959e-05
1.50714e-05
6.12351e-06
8.5896e-08
9.0933e-08
8.7164e-06
2.79329e-05
4.47221e-05
5.66315e-05
6.43524e-05
6.90109e-05
7.15178e-05
7.25881e-05
7.27885e-05
7.25579e-05
7.2208e-05
7.19228e-05
7.17711e-05
7.17339e-05
7.17413e-05
7.17059e-05
7.15472e-05
7.12008e-05
7.06156e-05
6.95012e-05
6.84307e-05
6.73055e-05
6.60704e-05
6.45968e-05
6.30454e-05
6.15125e-05
6.00812e-05
5.8829e-05
5.783e-05
5.71435e-05
5.6798e-05
5.67913e-05
5.70936e-05
5.77848e-05
5.8699e-05
5.95448e-05
6.03985e-05
6.13989e-05
6.25491e-05
6.35742e-05
6.45066e-05
6.53562e-05
6.61036e-05
6.67361e-05
6.72423e-05
6.76131e-05
6.78418e-05
6.79238e-05
6.78567e-05
6.76407e-05
6.72778e-05
6.67728e-05
6.61317e-05
6.5362e-05
6.44693e-05
6.34552e-05
6.23587e-05
6.12365e-05
5.99942e-05
5.85014e-05
5.66689e-05
5.4601e-05
5.22438e-05
4.97013e-05
4.72987e-05
4.51788e-05
4.29281e-05
4.00081e-05
3.67814e-05
3.49524e-05
3.4115e-05
3.33175e-05
3.2572e-05
3.1035e-05
2.76413e-05
2.27708e-05
1.63711e-05
6.94683e-06
1.11606e-07
9.77059e-08
9.13338e-06
2.89392e-05
4.62376e-05
5.85177e-05
6.64409e-05
7.1168e-05
7.36545e-05
7.46579e-05
7.47782e-05
7.44737e-05
7.40605e-05
7.37158e-05
7.34964e-05
7.33722e-05
7.32659e-05
7.30882e-05
7.27609e-05
7.22203e-05
7.1156e-05
6.9924e-05
6.88687e-05
6.75408e-05
6.59669e-05
6.42925e-05
6.26221e-05
6.10464e-05
5.96566e-05
5.85389e-05
5.77634e-05
5.73689e-05
5.73572e-05
5.76977e-05
5.8478e-05
5.95205e-05
6.05343e-05
6.15502e-05
6.26898e-05
6.39453e-05
6.52412e-05
6.6383e-05
6.74441e-05
6.84084e-05
6.92579e-05
6.99796e-05
7.05618e-05
7.09947e-05
7.12707e-05
7.1384e-05
7.13311e-05
7.11114e-05
7.07269e-05
7.01825e-05
6.94865e-05
6.86491e-05
6.7682e-05
6.65966e-05
6.54013e-05
6.40923e-05
6.27331e-05
6.13759e-05
5.98328e-05
5.78667e-05
5.55644e-05
5.28426e-05
4.99701e-05
4.71808e-05
4.45786e-05
4.21475e-05
3.90552e-05
3.54721e-05
3.33912e-05
3.22937e-05
3.1849e-05
3.03055e-05
2.79471e-05
2.35581e-05
1.74189e-05
7.65711e-06
1.41042e-07
1.04105e-07
9.50669e-06
2.98144e-05
4.75671e-05
6.01872e-05
6.82998e-05
7.30954e-05
7.55707e-05
7.65219e-05
7.65779e-05
7.62122e-05
7.57427e-05
7.53393e-05
7.50482e-05
7.48299e-05
7.4602e-05
7.42743e-05
7.37758e-05
7.29039e-05
7.15195e-05
7.04625e-05
6.91353e-05
6.7501e-05
6.5715e-05
6.39131e-05
6.21864e-05
6.06369e-05
5.93647e-05
5.84542e-05
5.7958e-05
5.78868e-05
5.82135e-05
5.90155e-05
6.01625e-05
6.13329e-05
6.24933e-05
6.37909e-05
6.51621e-05
6.65876e-05
6.80263e-05
6.93028e-05
7.04918e-05
7.15713e-05
7.25247e-05
7.33386e-05
7.40006e-05
7.45002e-05
7.48285e-05
7.49783e-05
7.49449e-05
7.47258e-05
7.43218e-05
7.37372e-05
7.29803e-05
7.20631e-05
7.10011e-05
6.98117e-05
6.85118e-05
6.71148e-05
6.56272e-05
6.40519e-05
6.25087e-05
6.08618e-05
5.88254e-05
5.62106e-05
5.3227e-05
5.01939e-05
4.69752e-05
4.37682e-05
4.10744e-05
3.77103e-05
3.38533e-05
3.16752e-05
3.0297e-05
2.96406e-05
2.77821e-05
2.39382e-05
1.81268e-05
8.16964e-06
1.73376e-07
1.10079e-07
9.83608e-06
3.0561e-05
4.87146e-05
6.16466e-05
6.99381e-05
7.48047e-05
7.728e-05
7.81948e-05
7.82021e-05
7.77871e-05
7.72676e-05
7.68063e-05
7.64402e-05
7.61231e-05
7.57682e-05
7.52816e-05
7.45792e-05
7.32778e-05
7.20357e-05
7.077e-05
6.91677e-05
6.73113e-05
6.53947e-05
6.35188e-05
6.17946e-05
6.03363e-05
5.92455e-05
5.85932e-05
5.84047e-05
5.86583e-05
5.93931e-05
6.06086e-05
6.19458e-05
6.3198e-05
6.46315e-05
6.61687e-05
6.77512e-05
6.93173e-05
7.08512e-05
7.22879e-05
7.36029e-05
7.47958e-05
7.58515e-05
7.67568e-05
7.74992e-05
7.80678e-05
7.84528e-05
7.86459e-05
7.86406e-05
7.84326e-05
7.80202e-05
7.74057e-05
7.65955e-05
7.56009e-05
7.44386e-05
7.31299e-05
7.16988e-05
7.01694e-05
6.85609e-05
6.68819e-05
6.51234e-05
6.33765e-05
6.16011e-05
5.93712e-05
5.64421e-05
5.33371e-05
5.01603e-05
4.64246e-05
4.28415e-05
3.96811e-05
3.58771e-05
3.19112e-05
2.98136e-05
2.85041e-05
2.70428e-05
2.39686e-05
1.84763e-05
8.5124e-06
2.06671e-07
1.15588e-07
1.01217e-05
3.11817e-05
4.96851e-05
6.29031e-05
7.13656e-05
7.63075e-05
7.87955e-05
7.96898e-05
7.96638e-05
7.92107e-05
7.8647e-05
7.81287e-05
7.76856e-05
7.72666e-05
7.67845e-05
7.61518e-05
7.5099e-05
7.35893e-05
7.2442e-05
7.09428e-05
6.90629e-05
6.70658e-05
6.50566e-05
6.31552e-05
6.14882e-05
6.01758e-05
5.93123e-05
5.89473e-05
5.90786e-05
5.96641e-05
6.0853e-05
6.23016e-05
6.37085e-05
6.52074e-05
6.68755e-05
6.86144e-05
7.03664e-05
7.20835e-05
7.37152e-05
7.52634e-05
7.67179e-05
7.80205e-05
7.91725e-05
8.01638e-05
8.09832e-05
8.16201e-05
8.20646e-05
8.23079e-05
8.23419e-05
8.21602e-05
8.17583e-05
8.11347e-05
8.0292e-05
7.92385e-05
7.79887e-05
7.6564e-05
7.49925e-05
7.33062e-05
7.15371e-05
6.97113e-05
6.78413e-05
6.59183e-05
6.4003e-05
6.20953e-05
5.95285e-05
5.62401e-05
5.31017e-05
4.96191e-05
4.54478e-05
4.15132e-05
3.7917e-05
3.35146e-05
2.96983e-05
2.74076e-05
2.64271e-05
2.38445e-05
1.85788e-05
8.7458e-06
2.41039e-07
1.20596e-07
1.0364e-05
3.168e-05
5.04839e-05
6.39641e-05
7.25919e-05
7.76154e-05
8.01294e-05
8.10194e-05
8.09747e-05
8.04941e-05
7.98917e-05
7.9318e-05
7.8797e-05
7.8274e-05
7.76594e-05
7.68569e-05
7.54424e-05
7.40827e-05
7.28038e-05
7.09475e-05
6.89112e-05
6.68012e-05
6.47376e-05
6.28558e-05
6.12927e-05
6.0167e-05
5.95565e-05
5.94832e-05
5.99153e-05
6.09347e-05
6.24162e-05
6.39929e-05
6.55403e-05
6.72907e-05
6.91605e-05
7.10723e-05
7.29723e-05
7.48182e-05
7.65775e-05
7.82133e-05
7.97492e-05
8.11723e-05
8.24131e-05
8.34802e-05
8.43685e-05
8.50692e-05
8.55732e-05
8.58717e-05
8.59561e-05
8.58178e-05
8.54492e-05
8.48446e-05
8.40012e-05
8.29214e-05
8.16145e-05
8.00983e-05
7.84001e-05
7.65559e-05
7.46076e-05
7.25966e-05
7.0556e-05
6.85007e-05
6.64181e-05
6.43665e-05
6.22877e-05
5.93249e-05
5.58013e-05
5.2512e-05
4.86087e-05
4.39777e-05
3.9681e-05
3.56656e-05
3.07375e-05
2.72952e-05
2.53051e-05
2.32652e-05
1.85377e-05
9.01151e-06
2.79608e-07
1.25076e-07
1.05637e-05
3.20597e-05
5.1117e-05
6.48378e-05
7.36271e-05
7.87396e-05
8.12934e-05
8.2195e-05
8.21456e-05
8.16474e-05
8.10121e-05
8.0385e-05
7.97864e-05
7.91599e-05
7.84196e-05
7.73728e-05
7.57559e-05
7.45045e-05
7.29311e-05
7.09021e-05
6.87376e-05
6.65467e-05
6.44654e-05
6.26423e-05
6.12193e-05
6.03069e-05
5.99621e-05
6.01826e-05
6.09215e-05
6.23227e-05
6.3999e-05
6.56621e-05
6.74323e-05
6.93915e-05
7.14357e-05
7.34972e-05
7.55267e-05
7.74863e-05
7.93472e-05
8.10876e-05
8.26674e-05
8.41613e-05
8.54946e-05
8.66247e-05
8.75695e-05
8.83248e-05
8.88841e-05
8.92396e-05
8.93827e-05
8.93037e-05
8.89921e-05
8.84376e-05
8.76312e-05
8.65677e-05
8.52482e-05
8.36828e-05
8.18933e-05
7.99146e-05
7.77929e-05
7.55821e-05
7.33345e-05
7.10895e-05
6.88602e-05
6.66223e-05
6.44678e-05
6.20508e-05
5.86007e-05
5.51219e-05
5.15047e-05
4.70514e-05
4.195e-05
3.72685e-05
3.26005e-05
2.77219e-05
2.43113e-05
2.27755e-05
1.85576e-05
9.44733e-06
3.27533e-07
1.29011e-07
1.07219e-05
3.23253e-05
5.15906e-05
6.55323e-05
7.44809e-05
7.96909e-05
8.22986e-05
8.32269e-05
8.31862e-05
8.26801e-05
8.20176e-05
8.13408e-05
8.06676e-05
7.99426e-05
7.90791e-05
7.77125e-05
7.61252e-05
7.49052e-05
7.29823e-05
7.08291e-05
6.85662e-05
6.63252e-05
6.42587e-05
6.25254e-05
6.12667e-05
6.05785e-05
6.04925e-05
6.09769e-05
6.20864e-05
6.37398e-05
6.55582e-05
6.73357e-05
6.9327e-05
7.14633e-05
7.36572e-05
7.5847e-05
7.79867e-05
8.00413e-05
8.19841e-05
8.37953e-05
8.54392e-05
8.69319e-05
8.834e-05
8.95204e-05
9.05061e-05
9.13031e-05
9.19089e-05
9.23185e-05
9.25245e-05
9.2517e-05
9.22835e-05
9.18094e-05
9.10794e-05
9.00796e-05
8.88007e-05
8.72417e-05
8.54142e-05
8.33457e-05
8.10811e-05
7.86806e-05
7.62126e-05
7.37415e-05
7.13115e-05
6.89283e-05
6.65448e-05
6.43367e-05
6.14085e-05
5.75841e-05
5.41109e-05
5.00086e-05
4.48293e-05
3.93481e-05
3.44197e-05
2.89536e-05
2.46004e-05
2.23076e-05
1.86566e-05
1.00079e-05
3.86376e-07
1.32389e-07
1.084e-05
3.24814e-05
5.19116e-05
6.60561e-05
7.51633e-05
8.04799e-05
8.31553e-05
8.41252e-05
8.41058e-05
8.36013e-05
8.2918e-05
8.21953e-05
8.14504e-05
8.06273e-05
7.96375e-05
7.80546e-05
7.65664e-05
7.51054e-05
7.30176e-05
7.07545e-05
6.8418e-05
6.61539e-05
6.41283e-05
6.25065e-05
6.14244e-05
6.09608e-05
6.11248e-05
6.18701e-05
6.33037e-05
6.51371e-05
6.70509e-05
6.90055e-05
7.11787e-05
7.3465e-05
7.57852e-05
7.80812e-05
8.03095e-05
8.24364e-05
8.44365e-05
8.62906e-05
8.79844e-05
8.94789e-05
9.0874e-05
9.21014e-05
9.31111e-05
9.39332e-05
9.45727e-05
9.50287e-05
9.52966e-05
9.53676e-05
9.52283e-05
9.48609e-05
9.42442e-05
9.33553e-05
9.21734e-05
9.0684e-05
8.88842e-05
8.67886e-05
8.44335e-05
8.18783e-05
7.92012e-05
7.64884e-05
7.38166e-05
7.12321e-05
6.87311e-05
6.62468e-05
6.37655e-05
6.01392e-05
5.64088e-05
5.2638e-05
4.79209e-05
4.17814e-05
3.62161e-05
3.07069e-05
2.51009e-05
2.11534e-05
1.86414e-05
1.04175e-05
4.50874e-07
1.35208e-07
1.09194e-05
3.25332e-05
5.20871e-05
6.64177e-05
7.56837e-05
8.11166e-05
8.38736e-05
8.48993e-05
8.49136e-05
8.44201e-05
8.37231e-05
8.29608e-05
8.21512e-05
8.12411e-05
8.0111e-05
7.83035e-05
7.7013e-05
7.52424e-05
7.30488e-05
7.06971e-05
6.83091e-05
6.60439e-05
6.40782e-05
6.258e-05
6.16771e-05
6.14299e-05
6.18265e-05
6.28223e-05
6.45054e-05
6.64812e-05
6.84923e-05
7.06248e-05
7.29489e-05
7.53599e-05
7.7783e-05
8.01626e-05
8.24564e-05
8.46319e-05
8.66651e-05
8.85392e-05
9.02443e-05
9.17435e-05
9.3075e-05
9.43177e-05
9.53336e-05
9.61623e-05
9.68191e-05
9.73094e-05
9.76328e-05
9.77832e-05
9.77479e-05
9.75072e-05
9.70352e-05
9.63006e-05
9.52707e-05
9.39157e-05
9.22156e-05
9.01671e-05
8.77912e-05
8.51383e-05
8.2288e-05
7.93413e-05
7.64031e-05
7.35574e-05
7.08406e-05
6.82211e-05
6.57453e-05
6.26531e-05
5.85898e-05
5.49195e-05
5.05932e-05
4.46955e-05
3.80711e-05
3.23276e-05
2.62547e-05
2.09585e-05
1.84842e-05
1.08142e-05
5.19695e-07
1.37472e-07
1.09621e-05
3.24863e-05
5.21245e-05
6.66257e-05
7.60519e-05
8.16111e-05
8.44635e-05
8.55592e-05
8.562e-05
8.51482e-05
8.44477e-05
8.36583e-05
8.28075e-05
8.18473e-05
8.0459e-05
7.86809e-05
7.73631e-05
7.53674e-05
7.30909e-05
7.06714e-05
6.8251e-05
6.60012e-05
6.41068e-05
6.27358e-05
6.20048e-05
6.19552e-05
6.25539e-05
6.38024e-05
6.56587e-05
6.77541e-05
6.98676e-05
7.21566e-05
7.46043e-05
7.71154e-05
7.96182e-05
8.20583e-05
8.43941e-05
8.65942e-05
8.86355e-05
9.05025e-05
9.21868e-05
9.36778e-05
9.49412e-05
9.61298e-05
9.71412e-05
9.79575e-05
9.86128e-05
9.91214e-05
9.94889e-05
9.97136e-05
9.97852e-05
9.96841e-05
9.93806e-05
9.88367e-05
9.80081e-05
9.68496e-05
9.53218e-05
9.33999e-05
9.10839e-05
8.84073e-05
8.54422e-05
8.22956e-05
7.90958e-05
7.59657e-05
7.29888e-05
7.01788e-05
6.74628e-05
6.47677e-05
6.08401e-05
5.69118e-05
5.31016e-05
4.76537e-05
4.04045e-05
3.39727e-05
2.74982e-05
2.15955e-05
1.8268e-05
1.12799e-05
5.90847e-07
1.3919e-07
1.09699e-05
3.23465e-05
5.20314e-05
6.66884e-05
7.62772e-05
8.19743e-05
8.49377e-05
8.61212e-05
8.62452e-05
8.58104e-05
8.51353e-05
8.43635e-05
8.34472e-05
8.23031e-05
8.07434e-05
7.90632e-05
7.7633e-05
7.55078e-05
7.31582e-05
7.06883e-05
6.82508e-05
6.60275e-05
6.4209e-05
6.29607e-05
6.23878e-05
6.25147e-05
6.32946e-05
6.47509e-05
6.67391e-05
6.8938e-05
7.11541e-05
7.3571e-05
7.61167e-05
7.87042e-05
8.12638e-05
8.37415e-05
8.60967e-05
8.82989e-05
9.03258e-05
9.21637e-05
9.38065e-05
9.5254e-05
9.64643e-05
9.75385e-05
9.85216e-05
9.93055e-05
9.99394e-05
0.000100448
0.000100844
0.000101133
0.000101308
0.000101351
0.000101231
0.000100906
0.00010032
9.94128e-05
9.81256e-05
9.64095e-05
9.42388e-05
9.16232e-05
8.86178e-05
8.53258e-05
8.18901e-05
7.84675e-05
7.51908e-05
7.2125e-05
6.92344e-05
6.65135e-05
6.30359e-05
5.87336e-05
5.51887e-05
5.02279e-05
4.32191e-05
3.55741e-05
2.90813e-05
2.2101e-05
1.77406e-05
1.17956e-05
6.57588e-07
1.4038e-07
1.09451e-05
3.21199e-05
5.18149e-05
6.66132e-05
7.63702e-05
8.22237e-05
8.53239e-05
8.66516e-05
8.68762e-05
8.64968e-05
8.58146e-05
8.49289e-05
8.38757e-05
8.2674e-05
8.10923e-05
7.94458e-05
7.78746e-05
7.56686e-05
7.32612e-05
7.07558e-05
6.83128e-05
6.61219e-05
6.43774e-05
6.3241e-05
6.28072e-05
6.30868e-05
6.40227e-05
6.56379e-05
6.77293e-05
7.00116e-05
7.23299e-05
7.48439e-05
7.74635e-05
8.01049e-05
8.26994e-05
8.51921e-05
8.75453e-05
8.97301e-05
9.17229e-05
9.35117e-05
9.50933e-05
9.64735e-05
9.76217e-05
9.85588e-05
9.94784e-05
0.000100212
0.000100804
0.000101293
0.0001017
0.000102037
0.000102306
0.000102491
0.000102563
0.000102474
0.000102161
0.000101552
0.000100565
9.91291e-05
9.71882e-05
9.47229e-05
9.17627e-05
8.83967e-05
8.47713e-05
8.10707e-05
7.7477e-05
7.41189e-05
7.10253e-05
6.81056e-05
6.50779e-05
6.06218e-05
5.69224e-05
5.26387e-05
4.59792e-05
3.75589e-05
3.04801e-05
2.33594e-05
1.73267e-05
1.23282e-05
7.133e-07
1.41068e-07
1.08897e-05
3.18115e-05
5.14779e-05
6.63997e-05
7.6343e-05
8.24158e-05
8.5678e-05
8.70915e-05
8.73468e-05
8.69539e-05
8.62232e-05
8.53041e-05
8.42817e-05
8.31209e-05
8.14162e-05
7.98134e-05
7.81146e-05
7.58574e-05
7.3408e-05
7.08797e-05
6.8439e-05
6.62817e-05
6.46039e-05
6.35637e-05
6.32462e-05
6.36514e-05
6.47145e-05
6.6443e-05
6.8612e-05
7.09662e-05
7.33715e-05
7.59566e-05
7.86277e-05
8.13036e-05
8.39163e-05
8.63943e-05
8.87253e-05
9.088e-05
9.28223e-05
9.45446e-05
9.60424e-05
9.73497e-05
9.84239e-05
9.92571e-05
0.00010003
0.000100699
0.000101231
0.000101679
0.000102078
0.000102447
0.000102795
0.000103113
0.000103375
0.000103531
0.000103513
0.000103235
0.000102599
0.000101508
9.98752e-05
9.76483e-05
9.48239e-05
9.14664e-05
8.77139e-05
8.37662e-05
7.98477e-05
7.61483e-05
7.27574e-05
6.96158e-05
6.665e-05
6.26111e-05
5.84096e-05
5.45957e-05
4.83622e-05
3.99439e-05
3.17549e-05
2.44678e-05
1.75833e-05
1.27905e-05
7.51334e-07
1.41225e-07
1.08056e-05
3.14219e-05
5.10126e-05
6.60772e-05
7.62424e-05
8.24205e-05
8.57717e-05
8.72596e-05
8.7593e-05
8.72693e-05
8.66107e-05
8.57653e-05
8.47467e-05
8.35081e-05
8.17527e-05
8.01711e-05
7.83701e-05
7.60814e-05
7.36047e-05
7.1064e-05
6.86302e-05
6.65036e-05
6.48811e-05
6.39173e-05
6.36902e-05
6.41919e-05
6.53513e-05
6.71523e-05
6.93751e-05
7.17891e-05
7.42619e-05
7.68949e-05
7.95974e-05
8.22893e-05
8.48749e-05
8.73468e-05
8.96489e-05
9.17513e-05
9.36297e-05
9.52748e-05
9.66863e-05
9.78734e-05
9.88786e-05
9.96194e-05
0.000100222
0.000100802
0.000101256
0.000101647
0.000102017
0.000102399
0.00010281
0.000103247
0.00010369
0.00010409
0.000104377
0.000104453
0.000104206
0.000103512
0.000102258
0.000100351
9.77528e-05
9.44925e-05
9.06886e-05
8.65446e-05