/*--------------------------------*- C++ -*----------------------------------*\
  =========                 |
  \\      /  F ield         | OpenFOAM: The Open Source CFD Toolbox
   \\    /   O peration     | Website:  https://openfoam.org
    \\  /    A nd           | Version:  13
     \\/     M anipulation  |
\*---------------------------------------------------------------------------*/
FoamFile
{
    format      ascii;
    class       volScalarField;
    location    "1.9";
    object      p;
}
// * * * * * * * * * * * * * * * * * * * * * * * * * * * * * * * * * * * * * //

dimensions      [0 2 -2 0 0 0 0];

internalField   nonuniform List<scalar> 
6400
(
1.43109e-08
-7.09161e-07
-9.26719e-06
-2.5163e-05
-4.67958e-05
-7.27229e-05
-0.000101972
-0.000134147
-0.000169275
-0.000207627
-0.000249569
-0.000295514
-0.000345886
-0.000401089
-0.000461414
-0.000527233
-0.00059869
-0.000675903
-0.000758909
-0.000847671
-0.000942118
-0.00104217
-0.00114771
-0.00125859
-0.00137469
-0.001496
-0.00162233
-0.00175319
-0.0018878
-0.00202491
-0.00216278
-0.00229909
-0.00243097
-0.00255495
-0.00266703
-0.00276273
-0.00283756
-0.00288707
-0.00290674
-0.00289228
-0.00283953
-0.00274446
-0.00260318
-0.00241211
-0.00216843
-0.0018709
-0.00152005
-0.0011146
-0.000651436
-0.000138437
0.000414131
0.0010004
0.00160808
0.00222488
0.00283612
0.0034248
0.00397228
0.00446096
0.00487529
0.00520216
0.00543255
0.00556271
0.00559476
0.00553707
0.00540309
0.00521162
0.00498557
0.00474584
0.00451162
0.00429654
0.00411024
0.00396031
0.00384469
0.00375976
0.0037013
0.00366389
0.00364258
0.00363349
0.00363327
0.00363845
4.3818e-07
-4.49969e-07
-8.53991e-06
-2.3394e-05
-4.34689e-05
-6.75739e-05
-9.52045e-05
-0.000126033
-0.000160015
-0.000197427
-0.000238624
-0.000283948
-0.000333743
-0.000388325
-0.000447939
-0.000512784
-0.000582945
-0.000658422
-0.000739143
-0.000824987
-0.000915829
-0.00101158
-0.00111222
-0.0012178
-0.00132833
-0.00144373
-0.00156389
-0.0016886
-0.00181734
-0.0019492
-0.0020828
-0.00221622
-0.00234693
-0.00247182
-0.00258719
-0.00268877
-0.00277195
-0.00283202
-0.00286421
-0.00286379
-0.00282621
-0.0027472
-0.00262275
-0.00244927
-0.00222405
-0.00194548
-0.00161264
-0.00122406
-0.000781845
-0.000293024
0.000238078
0.000802959
0.00139067
0.0019884
0.00258132
0.00315397
0.00368967
0.00417153
0.00458439
0.00491562
0.00515634
0.00530244
0.00535521
0.00532194
0.00521529
0.00505269
0.00485262
0.00463813
0.00442617
0.00423156
0.00406649
0.00393165
0.00382859
0.00375392
0.00370274
0.00366956
0.00364987
0.00364068
0.00363991
0.00364499
8.58044e-06
6.53798e-06
-2.02639e-06
-1.63939e-05
-3.49796e-05
-5.70996e-05
-8.23986e-05
-0.000110997
-0.0001431
-0.000178917
-0.000218695
-0.000262729
-0.000311283
-0.000364564
-0.000422708
-0.00048577
-0.000553709
-0.000626402
-0.00070368
-0.000785378
-0.000871368
-0.000961609
-0.00105618
-0.00115531
-0.00125932
-0.00136852
-0.00148324
-0.00160366
-0.00172971
-0.00186087
-0.0019961
-0.00213371
-0.0022713
-0.0024057
-0.00253314
-0.00264951
-0.00275007
-0.0028297
-0.00288334
-0.00290589
-0.00289242
-0.00283826
-0.00273908
-0.00259101
-0.00239106
-0.00213742
-0.0018295
-0.00146743
-0.00105069
-0.000585824
-7.8852e-05
0.000462866
0.00102956
0.00160897
0.0021867
0.00274842
0.00327878
0.00376172
0.00418205
0.00452734
0.00478854
0.00496084
0.00504448
0.00504534
0.00497442
0.00484744
0.00468242
0.00449864
0.00431376
0.00414227
0.00399463
0.00387793
0.00378928
0.00372554
0.0036827
0.00365601
0.00364066
0.00363422
0.00363529
0.0036416
2.47869e-05
2.07652e-05
1.04589e-05
-4.42342e-06
-2.21715e-05
-4.23737e-05
-6.52381e-05
-9.12455e-05
-0.000120822
-0.000154297
-0.00019192
-0.00023392
-0.000280478
-0.000331711
-0.000387657
-0.000448274
-0.000513437
-0.000582964
-0.000656669
-0.00073442
-0.000816187
-0.000902098
-0.000992488
-0.0010879
-0.00118907
-0.00129679
-0.00141187
-0.00153496
-0.00166637
-0.00180586
-0.00195253
-0.00210469
-0.00225974
-0.00241419
-0.0025638
-0.00270396
-0.00282952
-0.00293496
-0.00301479
-0.00306357
-0.00307606
-0.00304731
-0.00297276
-0.0028484
-0.00267106
-0.0024387
-0.0021505
-0.00180638
-0.00140792
-0.00095946
-0.000466477
6.38255e-05
0.000622142
0.00119688
0.0017744
0.00234
0.00287915
0.00337647
0.00381635
0.00418529
0.00447343
0.00467529
0.00479016
0.00482223
0.00478117
0.00468154
0.00454065
0.00437701
0.00420878
0.00405035
0.00391431
0.00380625
0.00372749
0.00367492
0.00364147
0.00362183
0.00361232
0.00361074
0.00361542
0.00362372
4.87045e-05
4.19069e-05
2.84658e-05
1.17504e-05
-6.39949e-06
-2.558e-05
-4.66361e-05
-7.04753e-05
-9.77383e-05
-0.000128856
-0.000164127
-0.000203775
-0.000247968
-0.000296809
-0.000350332
-0.000408506
-0.00047124
-0.000538421
-0.000609956
-0.000685841
-0.000766237
-0.000851539
-0.000942411
-0.00103978
-0.00114476
-0.00125859
-0.00138241
-0.00151713
-0.00166315
-0.00182019
-0.00198716
-0.00216201
-0.00234178
-0.0025226
-0.0026998
-0.002868
-0.00302162
-0.00315491
-0.003262
-0.00333713
-0.0033748
-0.00336989
-0.00331775
-0.00321438
-0.00305656
-0.00284209
-0.00256997
-0.00223976
-0.0018537
-0.00141527
-0.000929479
-0.0004032
0.000154723
0.00073337
0.00131979
0.00189939
0.00245737
0.00297844
0.00344731
0.00384948
0.00417391
0.00441306
0.00456449
0.00463108
0.00462137
0.00454839
0.00442861
0.00428024
0.004122
0.0039704
0.00383833
0.00373341
0.00365804
0.00360951
0.00358215
0.00356916
0.00356591
0.00356999
0.00357875
0.00358875
7.91666e-05
6.88016e-05
5.1568e-05
3.09956e-05
1.09714e-05
-8.37798e-06
-2.85846e-05
-5.09738e-05
-7.64093e-05
-0.000105455
-0.0001385
-0.000175833
-0.000217684
-0.000264233
-0.000315612
-0.0003719
-0.000433141
-0.000499376
-0.000570707
-0.000647367
-0.000729802
-0.00081874
-0.00091521
-0.00102051
-0.00113609
-0.00126345
-0.00140389
-0.00155827
-0.00172685
-0.00190902
-0.00210322
-0.0023069
-0.00251659
-0.00272796
-0.00293591
-0.00313471
-0.00331841
-0.00348101
-0.00361639
-0.00371853
-0.00378179
-0.00380099
-0.0037715
-0.0036894
-0.00355148
-0.00335522
-0.00309918
-0.00278417
-0.00241118
-0.00198337
-0.00150537
-0.000983523
-0.000425882
0.00015759
0.000754824
0.00135185
0.00193366
0.00248476
0.00298953
0.00343346
0.0038042
0.00409244
0.00429387
0.00440808
0.00444085
0.00440417
0.00431373
0.00418686
0.00404257
0.00389874
0.00376975
0.00366517
0.00358911
0.00354087
0.00351521
0.00350555
0.0035065
0.00351483
0.00352652
0.00353751
0.000114017
9.99349e-05
7.73393e-05
5.16883e-05
2.86091e-05
8.04842e-06
-1.21995e-05
-3.38653e-05
-5.80433e-05
-8.54588e-05
-0.000116635
-0.000151989
-0.000191891
-0.000236684
-0.000286679
-0.000342152
-0.000403358
-0.000470574
-0.000544173
-0.000624702
-0.000712961
-0.000810047
-0.000917344
-0.00103645
-0.00116904
-0.00131668
-0.00148059
-0.00166142
-0.00185902
-0.00207232
-0.00229917
-0.0025365
-0.00278034
-0.00302593
-0.00326776
-0.00349983
-0.00371585
-0.00390961
-0.0040751
-0.0042063
-0.00429745
-0.00434332
-0.00433919
-0.00428109
-0.00416589
-0.00399094
-0.00375457
-0.00345778
-0.00310153
-0.00268831
-0.00222222
-0.00170879
-0.00115485
-0.000568836
3.7781e-05
0.000651211
0.00125773
0.00184294
0.00239121
0.00288668
0.00331522
0.00366559
0.0039309
0.00410918
0.00420257
0.00421877
0.00417218
0.00407939
0.00395888
0.0038295
0.0037073
0.00360403
0.00352623
0.00347548
0.00344789
0.00343786
0.00343978
0.00344932
0.00346205
0.00347317
0.000150911
0.000133026
0.000104005
7.20192e-05
4.48776e-05
2.2228e-05
1.1554e-06
-2.04785e-05
-4.40111e-05
-7.0357e-05
-0.000100217
-0.000134197
-0.000172879
-0.000216839
-0.000266635
-0.000322804
-0.000385874
-0.000456421
-0.000535151
-0.000622979
-0.000721083
-0.000830921
-0.000954178
-0.00109266
-0.0012481
-0.00142198
-0.00161526
-0.00182819
-0.00206014
-0.00230952
-0.00257362
-0.00284885
-0.00313086
-0.00341423
-0.00369303
-0.00396135
-0.00421285
-0.00444108
-0.00463988
-0.00480317
-0.00492518
-0.00500065
-0.00502491
-0.00499416
-0.00490543
-0.00475572
-0.00454287
-0.00426982
-0.00393608
-0.0035436
-0.0030957
-0.00259665
-0.00205133
-0.0014663
-0.000853999
-0.000227636
0.000401607
0.00102187
0.001618
0.00217168
0.00266908
0.00309681
0.00344288
0.00370239
0.00387471
0.00396523
0.00398312
0.00394176
0.00385936
0.00375529
0.0036472
0.00354926
0.00347091
0.00341626
0.00338435
0.00337063
0.00336993
0.0033776
0.0033892
0.00339902
0.000187166
0.000165174
0.000129034
8.9816e-05
5.78214e-05
3.23553e-05
9.77713e-06
-1.24692e-05
-3.59841e-05
-6.19053e-05
-9.11577e-05
-0.000124594
-0.000163064
-0.000207432
-0.000258554
-0.00031727
-0.000384429
-0.000460953
-0.00054792
-0.00064663
-0.000758638
-0.000885718
-0.00102978
-0.00119272
-0.00137622
-0.00158153
-0.00180924
-0.00205913
-0.00233008
-0.00262006
-0.00292575
-0.00324263
-0.00356615
-0.00389082
-0.00421047
-0.00451882
-0.00480932
-0.00507525
-0.00531024
-0.00550831
-0.00566396
-0.00577194
-0.00582735
-0.00582666
-0.00576738
-0.00564704
-0.00546462
-0.00522052
-0.00491522
-0.0045497
-0.00412621
-0.00364767
-0.00311786
-0.00254416
-0.00193541
-0.00130075
-0.000649715
7.57616e-06
0.00065179
0.00126575
0.00183791
0.00235332
0.00279657
0.00315831
0.00343133
0.00361736
0.00372234
0.00375536
0.00372994
0.00366601
0.00358294
0.00349731
0.00342182
0.00336409
0.00332628
0.00330626
0.00329975
0.00330269
0.00331061
0.00331789
0.000219734
0.000193622
0.000149814
0.000102761
6.53275e-05
3.64537e-05
1.17836e-05
-1.1669e-05
-3.5796e-05
-6.19977e-05
-9.14715e-05
-0.000125365
-0.000164846
-0.000211101
-0.000265316
-0.000328663
-0.000402341
-0.000487646
-0.000586044
-0.000699218
-0.000829063
-0.000977617
-0.00114693
-0.0013389
-0.00155504
-0.0017963
-0.00206291
-0.00235424
-0.00266857
-0.00300301
-0.00335372
-0.00371606
-0.00408521
-0.00445521
-0.0048191
-0.00517018
-0.0055019
-0.00580759
-0.00608078
-0.00631553
-0.00650653
-0.00664837
-0.00673544
-0.00676492
-0.00673524
-0.00664556
-0.0064959
-0.00628318
-0.00600765
-0.00567078
-0.0052741
-0.00482028
-0.00431433
-0.003762
-0.0031669
-0.00253355
-0.00187101
-0.00119323
-0.000512085
0.000161987
0.000811885
0.00141915
0.00196819
0.00244679
0.00284254
0.0031478
0.00336354
0.00349528
0.00355148
0.0035478
0.00350481
0.00344192
0.00337542
0.00331712
0.0032734
0.00324517
0.00323025
0.00322589
0.00322772
0.00323154
0.000245691
0.000215519
0.000163761
0.000108542
6.52659e-05
3.2513e-05
5.2473e-06
-1.99617e-05
-4.53303e-05
-7.25643e-05
-0.000103179
-0.00013866
-0.000180521
-0.000230298
-0.000289518
-0.000359706
-0.000442424
-0.000539352
-0.000652341
-0.000783433
-0.000934825
-0.00110875
-0.00130734
-0.00153239
-0.00178525
-0.00206665
-0.00237634
-0.00271294
-0.00307415
-0.00345669
-0.00385632
-0.00426811
-0.00468608
-0.00510365
-0.00551373
-0.00590942
-0.00628368
-0.00662965
-0.00694078
-0.00721102
-0.00743476
-0.00760601
-0.00772155
-0.00777993
-0.00777926
-0.00771858
-0.00759677
-0.00741207
-0.00716411
-0.00685447
-0.00648509
-0.00605903
-0.00558069
-0.0050542
-0.00448071
-0.00386165
-0.00320498
-0.00252124
-0.0018181
-0.00110421
-0.000395218
0.000296052
0.000951761
0.00155166
0.00208175
0.00252667
0.00287871
0.00313507
0.00329946
0.00338175
0.00339935
0.0033739
0.00332582
0.00327172
0.00322329
0.00318605
0.00316067
0.00314708
0.00314076
0.00314022
0.000262355
0.000228192
0.000168434
0.000104952
5.5587e-05
1.85905e-05
-1.17071e-05
-3.91902e-05
-6.64334e-05
-9.54886e-05
-0.00012823
-0.00016651
-0.000212209
-0.00026722
-0.00033342
-0.000412689
-0.00050696
-0.00061829
-0.000748899
-0.000901161
-0.00107752
-0.00128036
-0.00151183
-0.00177368
-0.00206714
-0.00239231
-0.00274845
-0.0031337
-0.00354531
-0.00397956
-0.00443114
-0.00489442
-0.0053631
-0.0058298
-0.00628687
-0.00672686
-0.00714224
-0.0075259
-0.00787128
-0.00817207
-0.0084224
-0.00861932
-0.00876281
-0.00884979
-0.00887592
-0.00883943
-0.00874024
-0.00857873
-0.00835665
-0.00807462
-0.00773389
-0.00733638
-0.00688429
-0.00637964
-0.00582504
-0.00522508
-0.00458498
-0.00391069
-0.00320622
-0.00247382
-0.00172391
-0.000972809
-0.000232644
0.000480494
0.00114256
0.00173496
0.00224111
0.00264748
0.00294788
0.00314465
0.00324896
0.00328084
0.00326469
0.0032226
0.00317246
0.00312643
0.00308964
0.00306393
0.00304804
0.0030425
0.000267219
0.000229206
0.000161612
8.99698e-05
3.44024e-05
-7.11262e-06
-4.08247e-05
-7.10781e-05
-0.000100834
-0.000132528
-0.000168421
-0.000210754
-0.000261782
-0.000323753
-0.000398894
-0.000489439
-0.000597687
-0.00072606
-0.000877123
-0.00105354
-0.00125798
-0.00149292
-0.0017606
-0.0020627
-0.00239988
-0.00277194
-0.00317761
-0.0036146
-0.00407937
-0.00456742
-0.00507283
-0.005589
-0.00610877
-0.00662382
-0.00712589
-0.00760703
-0.00805945
-0.00847595
-0.00885014
-0.00917648
-0.00945098
-0.00967129
-0.0098342
-0.00993717
-0.00997944
-0.00996086
-0.00988133
-0.00974139
-0.00954247
-0.00928562
-0.00897214
-0.00860351
-0.00818116
-0.00770637
-0.00718088
-0.00660709
-0.00598747
-0.00532405
-0.00461933
-0.00388133
-0.00311701
-0.00233156
-0.00152998
-0.000732456
4.19111e-05
0.000773479
0.00143666
0.00200804
0.00246923
0.00281
0.00303137
0.00314686
0.00318109
0.00316276
0.00311641
0.00306265
0.0030135
0.00297386
0.00294752
0.00293604
0.000258079
0.000216436
0.000141355
6.18194e-05
4.60761e-08
-4.61888e-05
-8.36571e-05
-0.000117162
-0.000150076
-0.000185241
-0.000225328
-0.000272973
-0.000330804
-0.000401419
-0.000487389
-0.000591297
-0.000715795
-0.000863656
-0.00103776
-0.00124104
-0.00147633
-0.00174629
-0.00205318
-0.00239827
-0.00278188
-0.0032034
-0.00366105
-0.00415194
-0.00467168
-0.00521475
-0.00577439
-0.00634267
-0.00691133
-0.00747142
-0.00801401
-0.00853072
-0.00901371
-0.00945606
-0.00985194
-0.0101967
-0.010487
-0.0107205
-0.0108952
-0.0110097
-0.011064
-0.0110586
-0.0109939
-0.0108709
-0.010691
-0.0104553
-0.0101653
-0.00982246
-0.00942786
-0.00898257
-0.00848764
-0.00794419
-0.00735306
-0.00671461
-0.0060296
-0.00530082
-0.00453087
-0.00372347
-0.00288989
-0.00203814
-0.00117746
-0.000332941
0.000470785
0.00120564
0.00184043
0.00234998
0.00271976
0.00295083
0.00306125
0.00308311
0.00304967
0.002991
0.00292877
0.00287406
0.00283686
0.00281728
0.000233078
0.000188119
0.000106045
1.90128e-05
-4.88792e-05
-9.99763e-05
-0.000141511
-0.00017874
-0.000215458
-0.00025493
-0.000300244
-0.00035443
-0.00042048
-0.000501335
-0.000599901
-0.000719099
-0.000861926
-0.00103148
-0.00123093
-0.00146343
-0.00173202
-0.00203959
-0.00238809
-0.00277834
-0.00321047
-0.00368339
-0.0041948
-0.00474081
-0.00531605
-0.00591364
-0.0065256
-0.00714295
-0.00775623
-0.00835579
-0.00893226
-0.0094771
-0.00998281
-0.0104431
-0.0108529
-0.0112085
-0.0115072
-0.0117476
-0.0119285
-0.0120497
-0.0121115
-0.0121148
-0.0120608
-0.0119503
-0.0117851
-0.0115667
-0.0112965
-0.0109758
-0.0106059
-0.0101876
-0.00972147
-0.00920795
-0.00864691
-0.00803782
-0.00738024
-0.00667406
-0.00591908
-0.00511616
-0.00426923
-0.00338382
-0.00247115
-0.00154493
-0.000628299
0.000249374
0.00105271
0.00174256
0.0022859
0.00266552
0.00288544
0.0029716
0.00296512
0.00290715
0.00283204
0.00276139
0.00271136
0.00268125
0.00019072
0.000142902
5.44262e-05
-3.9612e-05
-0.000113468
-0.000169524
-0.000215412
-0.000256826
-0.000297987
-0.000342589
-0.000394131
-0.000456028
-0.000531623
-0.000624188
-0.000736955
-0.000873173
-0.00103617
-0.00122935
-0.00145611
-0.00171981
-0.00202391
-0.00237117
-0.00276287
-0.0031999
-0.00368207
-0.00420773
-0.00477358
-0.00537457
-0.00600398
-0.00665366
-0.00731427
-0.00797565
-0.00862737
-0.00925922
-0.00986174
-0.0104267
-0.0109472
-0.0114179
-0.0118348
-0.0121949
-0.0124966
-0.012739
-0.0129219
-0.0130458
-0.0131113
-0.0131197
-0.0130724
-0.0129709
-0.0128169
-0.012612
-0.0123578
-0.0120558
-0.0117071
-0.0113125
-0.0108724
-0.010387
-0.0098555
-0.00927682
-0.0086494
-0.00797147
-0.00724115
-0.00645712
-0.00561921
-0.00472888
-0.00379114
-0.00281549
-0.00181937
-0.000829951
0.000117864
0.000980398
0.00170884
0.00226338
0.00262762
0.00281095
0.00285216
0.00280585
0.00272032
0.00263208
0.00256536
0.00252283
0.00013003
7.97253e-05
-1.44153e-05
-0.000114893
-0.0001945
-0.000255573
-0.000306075
-0.00035212
-0.000398348
-0.00044887
-0.000507585
-0.000578275
-0.00066462
-0.000770209
-0.000898587
-0.00105332
-0.00123806
-0.00145647
-0.00171213
-0.00200877
-0.00235018
-0.00273817
-0.00317424
-0.00365924
-0.00419231
-0.0047709
-0.00539047
-0.00604468
-0.00672543
-0.00742312
-0.00812703
-0.00882594
-0.00950873
-0.010165
-0.0107857
-0.0113631
-0.0118916
-0.0123665
-0.0127849
-0.0131448
-0.0134453
-0.0136864
-0.0138683
-0.0139919
-0.0140583
-0.0140692
-0.014026
-0.0139305
-0.0137846
-0.01359
-0.0133484
-0.0130614
-0.0127302
-0.0123557
-0.0119383
-0.0114779
-0.0109738
-0.0104244
-0.00982759
-0.0091806
-0.00848018
-0.00772313
-0.0069067
-0.00602931
-0.00509149
-0.0040973
-0.00305741
-0.001992
-0.000932953
7.65005e-05
0.00098206
0.00172513
0.00226199
0.00257819
0.00269763
0.00267913
0.00258963
0.00248222
0.00239342
0.00233753
5.044e-05
-2.09358e-06
-0.000101085
-0.00020735
-0.000292432
-0.000358536
-0.00041389
-0.000464989
-0.000516876
-0.000574059
-0.000640815
-0.000721271
-0.000819424
-0.000939168
-0.00108435
-0.00125884
-0.00146658
-0.00171145
-0.00199723
-0.00232832
-0.00270765
-0.00313708
-0.00361844
-0.00415181
-0.00473557
-0.00536596
-0.00603722
-0.0067416
-0.00746946
-0.0082097
-0.0089504
-0.00967955
-0.0103858
-0.0110589
-0.0116906
-0.0122742
-0.012805
-0.0132794
-0.0136954
-0.0140519
-0.0143487
-0.0145861
-0.0147651
-0.0148866
-0.0149523
-0.0149637
-0.0149226
-0.014831
-0.0146906
-0.0145035
-0.0142715
-0.0139962
-0.0136789
-0.0133207
-0.0129222
-0.0124834
-0.0120033
-0.0114806
-0.0109128
-0.0102967
-0.00962828
-0.00890295
-0.00811608
-0.00726356
-0.00634258
-0.00535287
-0.00429907
-0.00319377
-0.00206105
-0.00093955
0.00011722
0.00104275
0.00176964
0.00225021
0.00248189
0.00251694
0.00243465
0.00230739
0.00219072
0.00212141
-4.83602e-05
-0.000102778
-0.000205791
-0.000317145
-0.000407379
-0.000478496
-0.000538906
-0.000595451
-0.000653545
-0.000718063
-0.00079363
-0.000884692
-0.000995546
-0.00113038
-0.00129332
-0.00148853
-0.00172017
-0.00199227
-0.00230928
-0.00267536
-0.00309278
-0.00356425
-0.00409093
-0.00467212
-0.00530513
-0.00598513
-0.00670496
-0.00745528
-0.0082249
-0.00900135
-0.00977181
-0.0105239
-0.0112463
-0.0119297
-0.0125666
-0.0131515
-0.0136805
-0.0141512
-0.0145624
-0.0149136
-0.0152053
-0.015438
-0.015613
-0.0157316
-0.0157954
-0.0158062
-0.0157659
-0.0156764
-0.0155397
-0.0153578
-0.0151326
-0.0148659
-0.0145592
-0.0142138
-0.0138304
-0.0134092
-0.0129496
-0.0124501
-0.0119086
-0.0113215
-0.0106845
-0.00999236
-0.00923919
-0.00841897
-0.00752639
-0.00655767
-0.00551227
-0.00439638
-0.0032259
-0.00203077
-0.000858827
0.000224332
0.00113746
0.0018046
0.0021855
0.00230553
0.00224735
0.00210353
0.00195384
0.00187175
-0.000166296
-0.00022218
-0.000328375
-0.000444088
-0.000539119
-0.000615197
-0.000680838
-0.000743178
-0.000807965
-0.000880406
-0.000965439
-0.0010678
-0.00119206
-0.00134269
-0.00152409
-0.00174068
-0.00199675
-0.00229664
-0.00264549
-0.00304633
-0.00350197
-0.00401527
-0.00458638
-0.00521374
-0.00589374
-0.00662021
-0.0073845
-0.00817564
-0.00898097
-0.00978699
-0.0105803
-0.0113486
-0.0120811
-0.0127694
-0.0134071
-0.0139897
-0.0145144
-0.0149796
-0.0153847
-0.01573
-0.0160159
-0.0162437
-0.0164145
-0.0165298
-0.0165913
-0.0166009
-0.0165604
-0.0164718
-0.0163372
-0.0161585
-0.0159379
-0.0156772
-0.0153782
-0.0150422
-0.0146703
-0.014263
-0.0138199
-0.0133399
-0.012821
-0.01226
-0.0116524
-0.0109928
-0.0102745
-0.00949038
-0.00863311
-0.00769646
-0.00667584
-0.00557144
-0.00439224
-0.00315905
-0.00191056
-0.000706984
0.00037081
0.00122799
0.00178495
0.00202517
0.00201761
0.00186555
0.00168281
0.00158696
-0.0003029
-0.000359805
-0.000468338
-0.000587662
-0.000687104
-0.00076806
-0.000839065
-0.000907496
-0.000979391
-0.00106024
-0.00115527
-0.00126946
-0.00140764
-0.00157454
-0.00177482
-0.00201312
-0.00229381
-0.00262186
-0.00300211
-0.00343724
-0.00393091
-0.00448487
-0.00509862
-0.00576988
-0.00649382
-0.00726287
-0.00806678
-0.0088931
-0.00972793
-0.0105571
-0.011367
-0.0121457
-0.0128834
-0.0135726
-0.0142081
-0.0147863
-0.0153053
-0.0157643
-0.0161631
-0.0165023
-0.0167828
-0.0170058
-0.0171726
-0.0172848
-0.017344
-0.0173521
-0.0173108
-0.0172223
-0.0170885
-0.0169116
-0.0166936
-0.0164367
-0.0161426
-0.0158131
-0.0154495
-0.0150524
-0.0146221
-0.0141578
-0.0136578
-0.0131192
-0.012538
-0.0119087
-0.0112246
-0.0104775
-0.00965905
-0.00876097
-0.00777616
-0.00669975
-0.00553406
-0.00429221
-0.00300233
-0.00171598
-0.000510428
0.00051801
0.00126467
0.00166003
0.00173032
0.00158504
0.0013795
0.00126573
-0.000457361
-0.000514834
-0.000624864
-0.00074704
-0.000850484
-0.000936197
-0.00101265
-0.00108741
-0.00116674
-0.00125638
-0.00136177
-0.00148815
-0.00164056
-0.00182396
-0.00204326
-0.0023032
-0.0026084
-0.00296442
-0.00337523
-0.00384407
-0.00437455
-0.00496731
-0.00562142
-0.00633363
-0.00709782
-0.00790495
-0.00874327
-0.00959899
-0.0104573
-0.0113038
-0.0121249
-0.0129095
-0.0136487
-0.0143361
-0.0149675
-0.0155404
-0.0160534
-0.0165061
-0.016899
-0.0172328
-0.0175085
-0.0177273
-0.0178907
-0.0180001
-0.0180572
-0.0180637
-0.0180214
-0.0179323
-0.0177984
-0.017622
-0.0174051
-0.01715
-0.0168587
-0.0165331
-0.0161747
-0.0157848
-0.0153638
-0.0149114
-0.0144265
-0.0139067
-0.0133483
-0.0127463
-0.0120939
-0.0113831
-0.0106045
-0.00974835
-0.00880569
-0.00776861
-0.00663314
-0.00540543
-0.00410452
-0.00277026
-0.00147489
-0.000307485
0.000618061
0.00118845
0.0013699
0.00125661
0.00104198
0.000904436
-0.000628556
-0.000686146
-0.000796846
-0.000921115
-0.00102813
-0.00111844
-0.00120038
-0.00128162
-0.00136861
-0.00146729
-0.00158329
-0.00172203
-0.00188876
-0.00208867
-0.00232682
-0.00260805
-0.00293744
-0.00332055
-0.0037608
-0.00426236
-0.00482773
-0.00545693
-0.00614853
-0.00689817
-0.00769843
-0.00853882
-0.00940624
-0.0102858
-0.0111623
-0.0120209
-0.012849
-0.0136361
-0.0143743
-0.0150583
-0.0156849
-0.0162521
-0.0167593
-0.0172065
-0.0175943
-0.0179235
-0.0181953
-0.0184109
-0.0185716
-0.0186788
-0.0187341
-0.0187391
-0.0186956
-0.0186055
-0.0184709
-0.0182939
-0.0180768
-0.0178219
-0.0175315
-0.0172075
-0.016852
-0.0164664
-0.0160516
-0.0156078
-0.0151345
-0.0146297
-0.0140904
-0.0135121
-0.0128885
-0.0122117
-0.0114722
-0.0106591
-0.00976176
-0.0087707
-0.00767749
-0.00648097
-0.00519257
-0.00384103
-0.00249115
-0.00122436
-0.000148737
0.000600654
0.000925049
0.000871091
0.000662186
0.000496106
-0.000815088
-0.000872352
-0.000982917
-0.00110852
-0.00121865
-0.00131336
-0.00140076
-0.00148856
-0.00158335
-0.00169118
-0.00181786
-0.00196895
-0.00214989
-0.00236605
-0.00262264
-0.00292454
-0.00327734
-0.00368622
-0.00415477
-0.00468724
-0.00528501
-0.00594795
-0.00667374
-0.00745692
-0.0082888
-0.00915756
-0.0100489
-0.0109473
-0.0118371
-0.0127039
-0.0135357
-0.0143228
-0.0150585
-0.0157385
-0.0163601
-0.0169221
-0.0174243
-0.0178669
-0.0182506
-0.0185764
-0.0188454
-0.0190586
-0.0192174
-0.0193231
-0.019377
-0.0193807
-0.019336
-0.0192447
-0.0191088
-0.0189305
-0.0187122
-0.0184562
-0.018165
-0.0178409
-0.0174861
-0.0171023
-0.0166911
-0.0162529
-0.0157879
-0.0152947
-0.014771
-0.0142128
-0.0136145
-0.0129687
-0.012266
-0.0114954
-0.0106448
-0.00970291
-0.00865962
-0.00750757
-0.00625033
-0.00490578
-0.00352854
-0.00220101
-0.00100949
-9.73892e-05
0.00038492
0.000419751
0.000234283
3.09316e-05
-0.00101532
-0.00107183
-0.00118148
-0.00130769
-0.00142045
-0.00151932
-0.00161209
-0.00170644
-0.00180903
-0.00192601
-0.00206328
-0.00222654
-0.00242137
-0.00265325
-0.00292755
-0.00324924
-0.00362435
-0.00405743
-0.00455267
-0.00511373
-0.00574121
-0.00643475
-0.00719109
-0.0080037
-0.00886268
-0.00975508
-0.0106657
-0.0115784
-0.0124776
-0.0133494
-0.0141825
-0.0149683
-0.0157008
-0.0163766
-0.0169937
-0.0175513
-0.0180495
-0.0184886
-0.0188694
-0.0191929
-0.0194602
-0.0196721
-0.0198299
-0.0199346
-0.0199876
-0.0199904
-0.0199445
-0.0198518
-0.0197142
-0.019534
-0.0193136
-0.0190554
-0.0187621
-0.0184363
-0.0180804
-0.0176965
-0.0172865
-0.0168515
-0.0163919
-0.0159073
-0.0153958
-0.0148543
-0.0142778
-0.0136596
-0.0129908
-0.0122606
-0.0114562
-0.0105649
-0.00957534
-0.00847675
-0.00726537
-0.00594975
-0.00456302
-0.00320851
-0.0019421
-0.000900429
-0.00025789
-0.00010288
-0.000249858
-0.000501661
-0.00122742
-0.00128276
-0.00139077
-0.00151685
-0.00163175
-0.00173449
-0.00183247
-0.00193327
-0.00204357
-0.00216955
-0.00231718
-0.00249224
-0.00270041
-0.00294728
-0.00323825
-0.00357869
-0.00397463
-0.00443025
-0.00495013
-0.00553698
-0.00619124
-0.00691198
-0.00769504
-0.00853288
-0.00941456
-0.0103261
-0.0112517
-0.012175
-0.0130805
-0.013955
-0.0147879
-0.0155714
-0.0163007
-0.0169727
-0.0175861
-0.0181404
-0.0186356
-0.0190725
-0.0194517
-0.0197741
-0.0200406
-0.0202522
-0.0204097
-0.0205142
-0.0205669
-0.020569
-0.0205221
-0.0204279
-0.0202884
-0.0201058
-0.0198825
-0.0196213
-0.0193249
-0.0189961
-0.0186376
-0.0182519
-0.0178411
-0.0174071
-0.0169506
-0.0164719
-0.0159697
-0.0154416
-0.0148836
-0.0142896
-0.0136514
-0.0129586
-0.0121988
-0.0113579
-0.0104231
-0.00938261
-0.00822685
-0.00695721
-0.00558749
-0.00422131
-0.00292297
-0.00178924
-0.00100363
-0.00071457
-0.000808899
-0.00110946
-0.00144939
-0.00150319
-0.00160886
-0.00173411
-0.00185063
-0.00195691
-0.00205987
-0.00216693
-0.00228472
-0.00241941
-0.00257698
-0.00276327
-0.00298399
-0.00324487
-0.00355149
-0.00390954
-0.00432441
-0.00480064
-0.00534268
-0.00595241
-0.00663029
-0.00737465
-0.00818051
-0.00903946
-0.00993962
-0.0108663
-0.0118032
-0.0127339
-0.0136433
-0.0145189
-0.0153507
-0.0161318
-0.0168581
-0.0175271
-0.0181377
-0.0186896
-0.0191832
-0.019619
-0.0199978
-0.0203202
-0.0205871
-0.0207991
-0.0209572
-0.0210622
-0.0211149
-0.0211167
-0.0210689
-0.0209733
-0.0208316
-0.0206463
-0.0204198
-0.0201548
-0.0198543
-0.0195214
-0.0191591
-0.0187702
-0.0183572
-0.0179223
-0.0174669
-0.0169917
-0.0164963
-0.0159789
-0.0154362
-0.0148631
-0.0142522
-0.0135937
-0.0128756
-0.0120837
-0.0112036
-0.0102229
-0.00912873
-0.00791643
-0.00659355
-0.00521795
-0.00391949
-0.0027348
-0.00183795
-0.00142284
-0.0014537
-0.00179196
-0.00167912
-0.00173102
-0.0018337
-0.00195746
-0.00207508
-0.0021845
-0.00229214
-0.00240516
-0.00253007
-0.00267298
-0.00283987
-0.00303664
-0.00326914
-0.00354322
-0.00386441
-0.00423824
-0.00467
-0.0051647
-0.00572612
-0.00635574
-0.00705389
-0.00781819
-0.00864296
-0.00951902
-0.0104338
-0.011372
-0.012317
-0.0132526
-0.0141642
-0.0150397
-0.01587
-0.016649
-0.0173728
-0.0180396
-0.0186485
-0.0191993
-0.0196923
-0.0201282
-0.0205076
-0.0208311
-0.0210992
-0.0213126
-0.0214719
-0.0215779
-0.0216313
-0.0216331
-0.0215846
-0.0214876
-0.0213437
-0.0211554
-0.0209252
-0.0206559
-0.0203507
-0.0200129
-0.0196457
-0.0192524
-0.0188359
-0.0183986
-0.0179427
-0.0174692
-0.0169783
-0.0164691
-0.015939
-0.0153837
-0.0147968
-0.0141692
-0.0134896
-0.0127443
-0.0119179
-0.0109967
-0.00996805
-0.00882186
-0.00755782
-0.00619234
-0.00490909
-0.00371397
-0.00274081
-0.00221302
-0.00217719
-0.00254142
-0.00191444
-0.00196411
-0.00206323
-0.00218485
-0.00230302
-0.00241514
-0.00252698
-0.00264547
-0.00277701
-0.00292765
-0.00310334
-0.00330998
-0.00355351
-0.00383968
-0.00417371
-0.00456125
-0.00500786
-0.00551855
-0.00609649
-0.00674293
-0.00745795
-0.00823855
-0.00907841
-0.00996778
-0.0108935
-0.0118401
-0.0127906
-0.0137292
-0.0146417
-0.0155165
-0.0163453
-0.0171224
-0.0178446
-0.0185101
-0.0191182
-0.0196689
-0.0201626
-0.0205996
-0.0209806
-0.021306
-0.0215762
-0.0217917
-0.0219529
-0.0220605
-0.0221149
-0.022117
-0.0220682
-0.0219698
-0.0218237
-0.0216323
-0.0213981
-0.0211241
-0.0208136
-0.0204702
-0.0200974
-0.0196988
-0.0192777
-0.018837
-0.0183791
-0.0179057
-0.0174177
-0.0169146
-0.0163946
-0.0158544
-0.0152883
-0.0146884
-0.014044
-0.0133421
-0.012567
-0.0117041
-0.0107407
-0.00966352
-0.00846645
-0.0071492
-0.00586788
-0.00469469
-0.00368436
-0.00306166
-0.00296286
-0.00333625
-0.00215313
-0.0022003
-0.00229533
-0.00241424
-0.00253237
-0.00264661
-0.0027622
-0.00288576
-0.00302353
-0.00318147
-0.00336538
-0.00358111
-0.0038344
-0.00413089
-0.00447589
-0.00487529
-0.00533465
-0.0058587
-0.00645022
-0.00711036
-0.00783886
-0.00863217
-0.0094834
-0.0103825
-0.011316
-0.0122681
-0.0132221
-0.0141621
-0.0150745
-0.0159484
-0.0167759
-0.0175516
-0.0182729
-0.018938
-0.0195464
-0.020098
-0.0205932
-0.0210323
-0.0214158
-0.0217438
-0.0220169
-0.0222351
-0.0223988
-0.0225083
-0.0225642
-0.0225671
-0.022518
-0.0224185
-0.0222702
-0.0220756
-0.0218372
-0.0215582
-0.0212421
-0.0208926
-0.0205136
-0.020109
-0.0196824
-0.0192373
-0.0187764
-0.018302
-0.0178153
-0.0173165
-0.0168047
-0.0162772
-0.0157292
-0.0151538
-0.0145413
-0.0138792
-0.0131527
-0.0123459
-0.0114458
-0.0104378
-0.00931247
-0.00807094
-0.00678549
-0.00564724
-0.00463256
-0.00393915
-0.00378399
-0.00413003
-0.00239303
-0.00243744
-0.00252794
-0.00264354
-0.00276101
-0.0028769
-0.00299586
-0.00312411
-0.00326764
-0.00343217
-0.00362335
-0.00384686
-0.00410838
-0.00441361
-0.00476807
-0.00517748
-0.00564726
-0.00618196
-0.0067841
-0.00745478
-0.00819346
-0.00899611
-0.00985496
-0.0107605
-0.0116989
-0.0126541
-0.0136096
-0.0145499
-0.0154616
-0.0163345
-0.0171609
-0.017936
-0.018657
-0.0193226
-0.0199321
-0.0204855
-0.0209831
-0.021425
-0.0218117
-0.0221431
-0.0224195
-0.022641
-0.0228076
-0.0229196
-0.0229772
-0.0229811
-0.0229321
-0.0228316
-0.0226813
-0.0224835
-0.0222409
-0.0219567
-0.0216347
-0.0212788
-0.0208931
-0.020482
-0.0200494
-0.0195992
-0.0191345
-0.018658
-0.0181715
-0.0176758
-0.0171704
-0.0166534
-0.016121
-0.0155672
-0.0149833
-0.0143578
-0.0136764
-0.0129231
-0.012084
-0.0111456
-0.0100965
-0.00893178
-0.00766164
-0.00655535
-0.00556006
-0.00481773
-0.00460457
-0.00489357
-0.00263202
-0.00267338
-0.00275892
-0.00287065
-0.00298694
-0.00310406
-0.00322594
-0.00335828
-0.00350676
-0.00367693
-0.00387427
-0.00410437
-0.00437291
-0.00468559
-0.00504782
-0.00546511
-0.00594286
-0.00648549
-0.0070953
-0.00777334
-0.00851901
-0.00932798
-0.0101908
-0.0110994
-0.0120401
-0.0129964
-0.0139519
-0.0148914
-0.0158021
-0.0166739
-0.0174996
-0.0182745
-0.0189961
-0.0196629
-0.0202743
-0.0208302
-0.0213308
-0.0217762
-0.0221666
-0.0225019
-0.0227822
-0.0230073
-0.0231772
-0.0232919