/*--------------------------------*- C++ -*----------------------------------*\
  =========                 |
  \\      /  F ield         | OpenFOAM: The Open Source CFD Toolbox
   \\    /   O peration     | Website:  https://openfoam.org
    \\  /    A nd           | Version:  13
     \\/     M anipulation  |
\*---------------------------------------------------------------------------*/
FoamFile
{
    format      ascii;
    class       surfaceScalarField;
    location    "1.9";
    object      phi;
}
// * * * * * * * * * * * * * * * * * * * * * * * * * * * * * * * * * * * * * //

dimensions      [0 3 -1 0 0 0 0];

internalField   nonuniform List<scalar> 
12640
(
3.03298e-09
-3.03326e-09
8.09732e-09
-5.06435e-09
1.27887e-08
-4.69136e-09
1.59316e-08
-3.14301e-09
1.73117e-08
-1.38009e-09
1.72045e-08
1.07168e-10
1.60371e-08
1.16742e-09
1.42003e-08
1.83684e-09
1.19982e-08
2.20206e-09
9.63134e-09
2.36684e-09
7.22915e-09
2.40219e-09
4.86077e-09
2.36837e-09
2.54269e-09
2.31807e-09
2.41868e-10
2.30082e-09
-2.12441e-09
2.36628e-09
-4.6709e-09
2.54648e-09
-7.55566e-09
2.88475e-09
-1.09618e-08
3.40614e-09
-1.50876e-08
4.12577e-09
-2.01335e-08
5.04591e-09
-2.62933e-08
6.15982e-09
-3.37509e-08
7.45761e-09
-4.26837e-08
8.93277e-09
-5.32696e-08
1.05859e-08
-6.56728e-08
1.24032e-08
-8.00406e-08
1.43678e-08
-9.6535e-08
1.64944e-08
-1.15349e-07
1.88139e-08
-1.36704e-07
2.13552e-08
-1.60843e-07
2.4139e-08
-1.8801e-07
2.71671e-08
-2.18423e-07
3.04131e-08
-2.52238e-07
3.38147e-08
-2.89511e-07
3.72726e-08
-3.30162e-07
4.06518e-08
-3.73923e-07
4.37606e-08
-4.20325e-07
4.64024e-08
-4.68699e-07
4.83739e-08
-5.18183e-07
4.9484e-08
-5.67764e-07
4.95809e-08
-6.16329e-07
4.85648e-08
-6.6272e-07
4.6391e-08
-7.05788e-07
4.30675e-08
-7.44433e-07
3.86456e-08
-7.77634e-07
3.3201e-08
-8.04439e-07
2.68044e-08
-8.23966e-07
1.95275e-08
-8.3565e-07
1.16843e-08
-8.39489e-07
3.83826e-09
-8.34353e-07
-5.13514e-09
-8.20245e-07
-1.41081e-08
-7.9691e-07
-2.33355e-08
-7.6445e-07
-3.24601e-08
-7.23143e-07
-4.13063e-08
-6.73433e-07
-4.97107e-08
-6.15944e-07
-5.74891e-08
-5.51485e-07
-6.4459e-08
-4.81195e-07
-7.02892e-08
-4.06467e-07
-7.47289e-08
-3.2898e-07
-7.74863e-08
-2.50698e-07
-7.82823e-08
-1.73812e-07
-7.68856e-08
-1.00696e-07
-7.31166e-08
-3.37451e-08
-6.69507e-08
2.48183e-08
-5.85634e-08
7.30212e-08
-4.82029e-08
1.09066e-07
-3.60452e-08
1.32285e-07
-2.3219e-08
1.42862e-07
-1.05764e-08
1.42304e-07
5.57302e-10
1.32295e-07
1.00097e-08
1.1589e-07
1.64044e-08
9.61951e-08
1.96953e-08
7.57066e-08
2.04884e-08
5.61143e-08
1.95923e-08
3.83799e-08
1.77344e-08
2.30872e-08
1.52927e-08
1.09328e-08
1.21544e-08
2.90478e-09
8.02806e-09
2.90478e-09
5.17773e-09
-8.211e-09
1.2854e-08
-1.27407e-08
1.86128e-08
-1.04502e-08
2.07663e-08
-5.29651e-09
1.92101e-08
1.76075e-10
1.46132e-08
4.70402e-09
7.77254e-09
8.00812e-09
-5.97104e-10
1.02065e-08
-9.96097e-09
1.15659e-08
-1.99232e-08
1.23291e-08
-3.02233e-08
1.27022e-08
-4.07331e-08
1.28782e-08
-5.14417e-08
1.30267e-08
-6.24463e-08
1.33054e-08
-7.39425e-08
1.38624e-08
-8.6227e-08
1.4831e-08
-9.96692e-08
1.6327e-08
-1.14696e-07
1.84328e-08
-1.31763e-07
2.11926e-08
-1.51326e-07
2.46092e-08
-1.73815e-07
2.86488e-08
-1.99611e-07
3.32539e-08
-2.29034e-07
3.83558e-08
-2.62332e-07
4.38842e-08
-2.99709e-07
4.97794e-08
-3.41341e-07
5.59999e-08
-3.87352e-07
6.25057e-08
-4.37787e-07
6.92487e-08
-4.9259e-07
7.61585e-08
-5.51576e-07
8.31245e-08
-6.14393e-07
8.99846e-08
-6.80505e-07
9.65249e-08
-7.4918e-07
1.0249e-07
-8.19508e-07
1.076e-07
-8.90434e-07
1.11579e-07
-9.60807e-07
1.14133e-07
-1.02941e-06
1.15009e-07
-1.09508e-06
1.14038e-07
-1.15669e-06
1.11094e-07
-1.21323e-06
1.06128e-07
-1.26382e-06
9.91516e-08
-1.30767e-06
9.02362e-08
-1.3441e-06
7.94984e-08
-1.37254e-06
6.70883e-08
-1.39251e-06
5.31753e-08
-1.40363e-06
3.79248e-08
-1.40566e-06
2.15518e-08
-1.3981e-06
4.12284e-09
-1.38064e-06
-1.36237e-08
-1.35356e-06
-3.22156e-08
-1.31653e-06
-5.11319e-08
-1.26977e-06
-7.00962e-08
-1.21339e-06
-8.88372e-08
-1.14764e-06
-1.07064e-07
-1.07289e-06
-1.24452e-07
-9.89829e-07
-1.40555e-07
-8.99324e-07
-1.54964e-07
-8.02483e-07
-1.6713e-07
-7.00652e-07
-1.76559e-07
-5.95425e-07
-1.82713e-07
-4.88641e-07
-1.85066e-07
-3.82336e-07
-1.83191e-07
-2.78744e-07
-1.76708e-07
-1.80211e-07
-1.65484e-07
-8.92245e-08
-1.4955e-07
-8.1833e-09
-1.29244e-07
6.11176e-08
-1.05346e-07
1.16584e-07
-7.86854e-08
1.56858e-07
-5.08502e-08
1.81093e-07
-2.36781e-08
1.90325e-07
7.78078e-10
1.85295e-07
2.14343e-08
1.68881e-07
3.61091e-08
1.44083e-07
4.52868e-08
1.14644e-07
4.90312e-08
8.37442e-08
4.86341e-08
5.40693e-08
4.49677e-08
2.82136e-08
3.801e-08
8.96801e-09
2.72737e-08
1.18728e-08
5.08186e-09
-1.32928e-08
1.09353e-08
-1.85941e-08
1.28681e-08
-1.2383e-08
1.00338e-08
-2.46216e-09
3.11898e-09
7.09087e-09
-7.01669e-09
1.48397e-08
-1.95445e-08
2.05359e-08
-3.37609e-08
2.44228e-08
-4.91047e-08
2.69097e-08
-6.51884e-08
2.84128e-08
-8.1801e-08
2.93149e-08
-9.88711e-08
2.99483e-08
-1.1646e-07
3.06155e-08
-1.34757e-07
3.16027e-08
-1.54072e-07
3.31776e-08
-1.74819e-07
3.55773e-08
-1.97482e-07
3.89902e-08
-2.22588e-07
4.35387e-08
-2.50666e-07
4.92708e-08
-2.82216e-07
5.61593e-08
-3.17678e-07
6.41104e-08
-3.57413e-07
7.29888e-08
-4.01695e-07
8.26376e-08
-4.50704e-07
9.2893e-08
-5.04518e-07
1.03594e-07
-5.63095e-07
1.14577e-07
-6.26253e-07
1.25664e-07
-6.93652e-07
1.36647e-07
-7.64773e-07
1.4728e-07
-8.38917e-07
1.57268e-07
-9.15207e-07
1.66275e-07
-9.92625e-07
1.73943e-07
-1.07005e-06
1.79916e-07
-1.14632e-06
1.83871e-07
-1.22029e-06
1.85546e-07
-1.29089e-06
1.84734e-07
-1.35715e-06
1.81273e-07
-1.41823e-06
1.75116e-07
-1.47341e-06
1.66273e-07
-1.52209e-06
1.5481e-07
-1.56378e-06
1.40844e-07
-1.59808e-06
1.24529e-07
-1.62463e-06
1.06048e-07
-1.64314e-06
8.55979e-08
-1.65335e-06
6.33855e-08
-1.65504e-06
3.96198e-08
-1.64801e-06
1.4519e-08
-1.63219e-06
-1.16957e-08
-1.60708e-06
-3.87354e-08
-1.57278e-06
-6.65128e-08
-1.52925e-06
-9.4663e-08
-1.47649e-06
-1.2286e-07
-1.41458e-06
-1.50741e-07
-1.34375e-06
-1.77901e-07
-1.26436e-06
-2.03842e-07
-1.17693e-06
-2.27981e-07
-1.08224e-06
-2.49655e-07
-9.81152e-07
-2.68217e-07
-8.74778e-07
-2.82934e-07
-7.64478e-07
-2.93013e-07
-6.51882e-07
-2.97662e-07
-5.38827e-07
-2.96247e-07
-4.27325e-07
-2.8821e-07
-3.19522e-07
-2.73286e-07
-2.17665e-07
-2.51407e-07
-1.23932e-07
-2.22977e-07
-4.04851e-08
-1.88793e-07
3.08895e-08
-1.5006e-07
8.85829e-08
-1.08544e-07
1.31336e-07
-6.64315e-08
1.58437e-07
-2.63229e-08
1.70429e-07
9.4428e-09
1.68074e-07
3.84642e-08
1.53988e-07
5.93722e-08
1.30851e-07
7.21687e-08
1.0171e-07
7.7775e-08
6.99439e-08
7.67335e-08
3.90548e-08
6.88992e-08
1.33717e-08
5.29568e-08
2.52445e-08
3.53131e-09
-1.68242e-08
5.22913e-09
-2.0292e-08
1.58299e-09
-8.73684e-09
-6.76485e-09
5.88567e-09
-1.87362e-08
1.90622e-08
-3.34547e-08
2.95582e-08
-5.02494e-08
3.73306e-08
-6.86016e-08
4.2775e-08
-8.81195e-08
4.64277e-08
-1.08544e-07
4.88376e-08
-1.2975e-07
5.05201e-08
-1.51748e-07
5.19464e-08
-1.74689e-07
5.35566e-08
-1.98853e-07
5.57663e-08
-2.24632e-07
5.89571e-08
-2.52508e-07
6.34534e-08
-2.83012e-07
6.94937e-08
-3.16681e-07
7.72078e-08
-3.54019e-07
8.66095e-08
-3.95465e-07
9.76051e-08
-4.41368e-07
1.10014e-07
-4.91974e-07
1.23595e-07
-5.4741e-07
1.38073e-07
-6.07671e-07
1.53155e-07
-6.72609e-07
1.68532e-07
-7.41909e-07
1.83877e-07
-8.1508e-07
1.98835e-07
-8.91454e-07
2.13021e-07
-9.70195e-07
2.26021e-07
-1.05033e-06
2.37403e-07
-1.1308e-06
2.46742e-07
-1.2105e-06
2.53643e-07
-1.28836e-06
2.57775e-07
-1.36337e-06
2.58885e-07
-1.43463e-06
2.56805e-07
-1.50136e-06
2.51463e-07
-1.56293e-06
2.42848e-07
-1.61882e-06
2.31004e-07
-1.66859e-06
2.16041e-07
-1.71188e-06
1.98102e-07
-1.7484e-06
1.7736e-07
-1.77788e-06
1.54011e-07
-1.80009e-06
1.28261e-07
-1.81482e-06
1.00321e-07
-1.82183e-06
7.04011e-08
-1.82093e-06
3.87166e-08
-1.81193e-06
5.5155e-09
-1.79459e-06
-2.90346e-08
-1.76868e-06
-6.4645e-08
-1.7341e-06
-1.01093e-07
-1.69073e-06
-1.38031e-07
-1.63849e-06
-1.75098e-07
-1.57737e-06
-2.11863e-07
-1.50746e-06
-2.47814e-07
-1.42897e-06
-2.82329e-07
-1.34227e-06
-3.14683e-07
-1.2479e-06
-3.44023e-07
-1.1466e-06
-3.69519e-07
-1.03928e-06
-3.90248e-07
-9.27114e-07
-4.05182e-07
-8.1149e-07
-4.13286e-07
-6.94097e-07
-4.1364e-07
-5.76817e-07
-4.0549e-07
-4.61769e-07
-3.88334e-07
-3.51177e-07
-3.62e-07
-2.47276e-07
-3.26878e-07
-1.52255e-07
-2.83814e-07
-6.81961e-08
-2.34119e-07
3.06759e-09
-1.79807e-07
6.01593e-08
-1.23523e-07
1.02009e-07
-6.81728e-08
1.28431e-07
-1.69789e-08
1.39803e-07
2.70921e-08
1.37414e-07
6.17615e-08
1.23498e-07
8.60842e-08
1.01154e-07
1.0012e-07
7.33309e-08
1.04556e-07
4.31629e-08
9.90671e-08
1.54525e-08
8.06672e-08
4.0697e-08
1.15778e-09
-1.79819e-08
-2.31635e-09
-1.68178e-08
-1.15684e-08
5.15209e-10
-2.49417e-08
1.9259e-08
-4.12385e-08
3.5359e-08
-5.97574e-08
4.8077e-08
-8.00458e-08
5.7619e-08
-1.01775e-07
6.4504e-08
-1.24711e-07
6.93634e-08
-1.48721e-07
7.28478e-08
-1.73788e-07
7.55873e-08
-2.00022e-07
7.81807e-08
-2.27663e-07
8.11978e-08
-2.5707e-07
8.51724e-08
-2.88692e-07
9.05798e-08
-3.2304e-07
9.78014e-08
-3.60634e-07
1.07087e-07
-4.01958e-07
1.18532e-07
-4.47427e-07
1.32079e-07
-4.97355e-07
1.47533e-07
-5.5194e-07
1.64599e-07
-6.11253e-07
1.82908e-07
-6.75228e-07
2.02048e-07
-7.43646e-07
2.21572e-07
-8.16126e-07
2.41012e-07
-8.92121e-07
2.59872e-07
-9.70923e-07
2.77637e-07
-1.05168e-06
2.93783e-07
-1.13345e-06
3.07791e-07
-1.21523e-06
3.19177e-07
-1.296e-06
3.27518e-07
-1.37484e-06
3.32474e-07
-1.45087e-06
3.33805e-07
-1.52335e-06
3.31369e-07
-1.59165e-06
3.25104e-07
-1.65523e-06
3.15042e-07
-1.71367e-06
3.01288e-07
-1.76663e-06
2.83964e-07
-1.81382e-06
2.63229e-07
-1.85498e-06
2.39265e-07
-1.88989e-06
2.12269e-07
-1.91833e-06
1.8245e-07
-1.94009e-06
1.5002e-07
-1.95495e-06
1.15185e-07
-1.9627e-06
7.81496e-08
-1.96309e-06
3.91116e-08
-1.95595e-06
-1.62702e-09
-1.94096e-06
-4.40289e-08
-1.91793e-06
-8.76761e-08
-1.88665e-06
-1.32368e-07
-1.84692e-06
-1.77761e-07
-1.79855e-06
-2.2347e-07
-1.74139e-06
-2.69023e-07
-1.67537e-06
-3.13836e-07
-1.6005e-06
-3.57199e-07
-1.5169e-06
-3.98278e-07
-1.42483e-06
-4.36099e-07
-1.32479e-06
-4.69553e-07
-1.21757e-06
-4.97472e-07
-1.10422e-06
-5.18528e-07
-9.85976e-07
-5.31532e-07
-8.64352e-07
-5.35264e-07
-7.41087e-07
-5.28754e-07
-6.18261e-07
-5.1116e-07
-4.9813e-07
-4.82131e-07
-3.83126e-07
-4.41882e-07
-2.75684e-07
-3.91256e-07
-1.78187e-07
-3.31616e-07
-9.27972e-08
-2.65197e-07
-2.13802e-08
-1.9494e-07
3.47515e-08
-1.24305e-07
7.48435e-08
-5.7071e-08
9.89892e-08
2.94648e-09
1.08115e-07
5.2636e-08
1.04254e-07
8.99454e-08
9.00122e-08
1.14361e-07
6.82234e-08
1.26345e-07
4.17712e-08
1.25519e-07
1.53705e-08
1.07068e-07
5.60675e-08
-1.68939e-09
-1.62925e-08
-1.04378e-08
-8.06938e-09
-2.48496e-08
1.4927e-08
-4.26741e-08
3.70835e-08
-6.2781e-08
5.54659e-08
-8.46738e-08
6.99698e-08
-1.08081e-07
8.10264e-08
-1.32833e-07
8.92564e-08
-1.58836e-07
9.53656e-08
-1.86077e-07
1.00089e-07
-2.14649e-07
1.04159e-07
-2.44759e-07
1.0829e-07
-2.76727e-07
1.13166e-07
-3.10971e-07
1.19417e-07
-3.47973e-07
1.27582e-07
-3.88231e-07
1.38059e-07
-4.32208e-07
1.51065e-07
-4.80297e-07
1.66621e-07
-5.3278e-07
1.84562e-07
-5.89819e-07
2.04571e-07
-6.51439e-07
2.26219e-07
-7.17531e-07
2.49e-07
-7.87839e-07
2.72356e-07
-8.6196e-07
2.95693e-07
-9.39342e-07
3.18394e-07
-1.0193e-06
3.39826e-07
-1.10102e-06
3.59359e-07
-1.18363e-06
3.76391e-07
-1.26621e-06
3.90375e-07
-1.34788e-06
4.00845e-07
-1.42779e-06
4.07436e-07
-1.50522e-06
4.09899e-07
-1.57951e-06
4.08097e-07
-1.65013e-06
4.01991e-07
-1.71664e-06
3.91612e-07
-1.77866e-06
3.77059e-07
-1.83586e-06
3.58493e-07
-1.88799e-06
3.36093e-07
-1.93481e-06
3.10052e-07
-1.97611e-06
2.80561e-07
-2.01167e-06
2.47828e-07
-2.04129e-06
2.12066e-07
-2.06475e-06
1.73481e-07
-2.08184e-06
1.32276e-07
-2.09234e-06
8.86491e-08
-2.09601e-06
4.27881e-08
-2.09257e-06
-5.07615e-09
-2.08183e-06
-5.4766e-08
-2.06348e-06
-1.0602e-07
-2.03727e-06
-1.58578e-07
-2.00292e-06
-2.12113e-07
-1.96016e-06
-2.66235e-07
-1.90872e-06
-3.20464e-07
-1.84836e-06
-3.7419e-07
-1.77892e-06
-4.26637e-07
-1.70032e-06
-4.76883e-07
-1.61252e-06
-5.23898e-07
-1.51563e-06
-5.66441e-07
-1.41006e-06
-6.03048e-07
-1.29653e-06
-6.32056e-07
-1.1761e-06
-6.51958e-07
-1.05031e-06
-6.61057e-07
-9.20964e-07
-6.581e-07
-7.90075e-07
-6.42049e-07
-6.59847e-07
-6.12359e-07
-5.3288e-07
-5.68849e-07
-4.11926e-07
-5.1221e-07
-2.99737e-07
-4.43805e-07
-1.98923e-07
-3.66011e-07
-1.11804e-07
-2.82059e-07
-4.02323e-08
-1.95876e-07
1.45786e-08
-1.11882e-07
5.21946e-08
-3.46696e-08
7.328e-08
3.15506e-08
7.95331e-08
8.36923e-08
7.35588e-08
1.20335e-07
5.83337e-08
1.4157e-07
3.68964e-08
1.46957e-07
1.38057e-08
1.30159e-07
6.98732e-08
-4.68502e-09
-1.16075e-08
-1.84286e-08
5.67418e-09
-3.74614e-08
3.39598e-08
-5.92126e-08
5.88347e-08
-8.27434e-08
7.89967e-08
-1.07719e-07
9.49452e-08
-1.34009e-07
1.07317e-07
-1.61574e-07
1.16821e-07
-1.90436e-07
1.24228e-07
-2.20698e-07
1.3035e-07
-2.52549e-07
1.36011e-07
-2.86285e-07
1.42026e-07
-3.22291e-07
1.49172e-07
-3.61023e-07
1.58149e-07
-4.0296e-07
1.69519e-07
-4.48556e-07
1.83654e-07
-4.9819e-07
2.00699e-07
-5.52131e-07
2.20562e-07
-6.1052e-07
2.42951e-07
-6.73363e-07
2.67413e-07
-7.40525e-07
2.93381e-07
-8.11739e-07
3.20214e-07
-8.86604e-07
3.4722e-07
-9.64588e-07
3.73677e-07
-1.04504e-06
3.98851e-07
-1.12723e-06
4.22014e-07
-1.21035e-06
4.4248e-07
-1.29359e-06
4.59626e-07
-1.37614e-06
4.72928e-07
-1.45728e-06
4.81982e-07
-1.53634e-06
4.86497e-07
-1.61275e-06
4.86309e-07
-1.68603e-06
4.81378e-07
-1.75578e-06
4.71739e-07
-1.82165e-06
4.5748e-07
-1.88334e-06
4.38749e-07
-1.94057e-06
4.15728e-07
-1.99311e-06
3.88629e-07
-2.04072e-06
3.57666e-07
-2.08319e-06
3.2303e-07
-2.12029e-06
2.84927e-07
-2.15181e-06
2.43585e-07
-2.17755e-06
1.99226e-07
-2.19735e-06
1.52068e-07
-2.21101e-06
1.02317e-07
-2.21835e-06
5.01259e-08
-2.21907e-06
-4.362e-09
-2.213e-06
-6.08296e-08
-2.19984e-06
-1.19185e-07
-2.17926e-06
-1.79153e-07
-2.15097e-06
-2.40411e-07
-2.11462e-06
-3.02578e-07
-2.06988e-06
-3.65204e-07
-2.01637e-06
-4.27706e-07
-1.95372e-06
-4.89286e-07
-1.88167e-06
-5.4893e-07
-1.79999e-06
-6.05581e-07
-1.70848e-06
-6.57949e-07
-1.60711e-06
-7.0442e-07
-1.49612e-06
-7.43038e-07
-1.3761e-06
-7.71987e-07
-1.24799e-06
-7.89165e-07
-1.11348e-06
-7.92602e-07
-9.74888e-07
-7.80646e-07
-8.34736e-07
-7.5251e-07
-6.95731e-07
-7.07855e-07
-5.60783e-07
-6.47158e-07
-4.32995e-07
-5.71593e-07
-3.15505e-07
-4.83501e-07
-2.11229e-07
-3.86335e-07
-1.22647e-07
-2.84459e-07
-5.15927e-08
-1.82936e-07
9.44434e-10
-8.72067e-08
3.50527e-08
-2.55761e-09
5.21409e-08
6.6604e-08
5.47953e-08
1.17681e-07
4.6346e-08
1.50019e-07
3.04136e-08
1.62889e-07
1.16036e-08
1.48969e-07
8.14768e-08
-7.66242e-09
-3.94511e-09
-2.59163e-08
2.3928e-08
-4.90066e-08
5.70501e-08
-7.42507e-08
8.40788e-08
-1.00883e-07
1.05629e-07
-1.287e-07
1.22762e-07
-1.57682e-07
1.36299e-07
-1.87893e-07
1.47032e-07
-2.19459e-07
1.55794e-07
-2.52576e-07
1.63467e-07
-2.87523e-07
1.70959e-07
-3.24665e-07
1.79168e-07
-3.64435e-07
1.88942e-07
-4.07299e-07
2.01013e-07
-4.53707e-07
2.15928e-07
-5.04045e-07
2.33992e-07
-5.58586e-07
2.5524e-07
-6.17476e-07
2.79452e-07
-6.80718e-07
3.06193e-07
-7.48179e-07
3.34874e-07
-8.19597e-07
3.64799e-07
-8.94586e-07
3.95204e-07
-9.72649e-07
4.25284e-07
-1.05319e-06
4.54218e-07
-1.13553e-06
4.81193e-07
-1.21895e-06
5.05436e-07
-1.30272e-06
5.26242e-07
-1.3861e-06
5.43011e-07
-1.46844e-06
5.5527e-07
-1.54915e-06
5.62685e-07
-1.62768e-06
5.65031e-07
-1.70358e-06
5.62207e-07
-1.77646e-06
5.54258e-07
-1.84599e-06
5.41268e-07
-1.91185e-06
5.23343e-07
-1.97375e-06
5.00652e-07
-2.03139e-06
4.73367e-07
-2.08447e-06
4.41707e-07
-2.13274e-06
4.05932e-07
-2.17599e-06
3.66284e-07
-2.21405e-06
3.22988e-07
-2.24676e-06
2.76292e-07
-2.27397e-06
2.2644e-07
-2.29558e-06
1.73674e-07
-2.31149e-06
1.18229e-07
-2.32163e-06
6.02671e-08
-2.32568e-06
-3.15966e-10
-2.32376e-06
-6.27434e-08
-2.31544e-06
-1.2751e-07
-2.3004e-06
-1.94194e-07
-2.27828e-06
-2.62527e-07
-2.24872e-06
-3.32144e-07
-2.21131e-06
-4.02611e-07
-2.16565e-06
-4.73361e-07
-2.1113e-06
-5.43641e-07
-2.04765e-06
-6.12579e-07
-1.97422e-06
-6.79008e-07
-1.89053e-06
-7.41639e-07
-1.79608e-06
-7.98878e-07
-1.69084e-06
-8.48275e-07
-1.57483e-06
-8.87996e-07
-1.44837e-06
-9.1563e-07
-1.31247e-06
-9.28496e-07
-1.16876e-06
-9.24359e-07
-1.02005e-06
-9.01223e-07
-8.69669e-07
-8.58232e-07
-7.21035e-07
-7.95793e-07
-5.77475e-07
-7.15153e-07
-4.42565e-07
-6.18411e-07
-3.19952e-07
-5.08948e-07
-2.1287e-07
-3.9154e-07
-1.23911e-07
-2.71895e-07
-5.47848e-08
-1.56333e-07
-6.03635e-09
-5.13061e-08
2.31705e-08
3.73971e-08
3.53092e-08
1.05542e-07
3.40638e-08
1.51265e-07
2.36897e-08
1.73263e-07
9.29131e-09
1.63367e-07
9.07681e-08
-1.04469e-08
6.50183e-09
-3.27168e-08
4.61979e-08
-5.93438e-08
8.36771e-08
-8.76911e-08
1.12426e-07
-1.17132e-07
1.35071e-07
-1.47564e-07
1.53194e-07
-1.79055e-07
1.6779e-07
-2.11754e-07
1.7973e-07
-2.45871e-07
1.89911e-07
-2.81685e-07
1.99281e-07
-3.19546e-07
2.08819e-07
-3.59869e-07
2.19491e-07
-4.03111e-07
2.32184e-07
-4.49727e-07
2.47628e-07
-5.00117e-07
2.66318e-07
-5.54582e-07
2.88457e-07
-6.1329e-07
3.13948e-07
-6.76267e-07
3.42429e-07
-7.43401e-07
3.73327e-07
-8.1445e-07
4.05923e-07
-8.89057e-07
4.39406e-07
-9.66763e-07
4.7291e-07
-1.04702e-06
5.05543e-07
-1.12922e-06
5.36415e-07
-1.2127e-06
5.64672e-07
-1.29679e-06
5.89523e-07
-1.38083e-06
6.10282e-07
-1.4642e-06
6.26385e-07
-1.54634e-06
6.37407e-07
-1.62673e-06
6.43083e-07
-1.70496e-06
6.43254e-07
-1.78059e-06
6.37846e-07
-1.8533e-06
6.26963e-07
-1.9227e-06
6.1067e-07
-1.98838e-06
5.8902e-07
-2.04995e-06
5.62222e-07
-2.10712e-06
5.30534e-07
-2.15961e-06
4.942e-07
-2.20721e-06
4.5353e-07
-2.24975e-06
4.08825e-07
-2.28711e-06
3.60347e-07
-2.31919e-06
3.08376e-07
-2.34591e-06
2.53163e-07
-2.36723e-06
1.94991e-07
-2.38319e-06
1.34183e-07
-2.39382e-06
7.09042e-08
-2.39922e-06
5.07947e-09
-2.39929e-06
-6.2669e-08
-2.39407e-06
-1.32734e-07
-2.38345e-06
-2.04808e-07
-2.36723e-06
-2.7875e-07
-2.34504e-06
-3.54338e-07
-2.31636e-06
-4.31288e-07
-2.28034e-06
-5.0938e-07
-2.2362e-06
-5.87782e-07
-2.18317e-06
-6.65608e-07
-2.12047e-06
-7.41712e-07
-2.04756e-06
-8.1455e-07
-1.96373e-06
-8.82704e-07
-1.8682e-06
-9.43802e-07
-1.76045e-06
-9.95754e-07
-1.64021e-06
-1.03586e-06
-1.50791e-06
-1.0608e-06
-1.3643e-06
-1.06797e-06
-1.21129e-06
-1.05423e-06
-1.05195e-06
-1.01757e-06
-8.90767e-07
-9.56977e-07
-7.32025e-07
-8.73896e-07
-5.79752e-07
-7.70684e-07
-4.38159e-07
-6.50541e-07
-3.11408e-07
-5.18291e-07
-2.03004e-07
-3.80299e-07
-1.1553e-07
-2.43806e-07
-5.03629e-08
-1.16474e-07
-7.30764e-09
-5.65813e-09
1.56312e-08
8.26034e-08
2.23182e-08
1.44578e-07
1.76442e-08
1.77937e-07
7.33126e-09
1.7368e-07
9.80994e-08
-1.30256e-08
1.95274e-08
-3.87575e-08
7.19299e-08
-6.84463e-08
1.13366e-07
-9.95363e-08
1.43516e-07
-1.31506e-07
1.67041e-07
-1.64328e-07
1.86016e-07
-1.98139e-07
2.016e-07
-2.33157e-07
2.14748e-07
-2.69663e-07
2.26418e-07
-3.08002e-07
2.3762e-07
-3.48574e-07
2.49392e-07
-3.9183e-07
2.62746e-07
-4.38227e-07
2.78581e-07
-4.88189e-07
2.9759e-07
-5.42053e-07
3.20182e-07
-6.00032e-07
3.46435e-07
-6.62193e-07
3.7611e-07
-7.28463e-07
4.087e-07
-7.98638e-07
4.43501e-07
-8.72397e-07
4.79682e-07
-9.49325e-07
5.16334e-07
-1.02893e-06
5.5251e-07
-1.11064e-06
5.87255e-07
-1.19386e-06
6.19638e-07
-1.27798e-06
6.48785e-07
-1.36237e-06
6.73915e-07
-1.44645e-06
6.94363e-07
-1.52968e-06
7.09614e-07
-1.61155e-06
7.19282e-07
-1.69162e-06
7.23147e-07
-1.76948e-06
7.21115e-07
-1.84468e-06
7.13044e-07
-1.91667e-06
6.98957e-07
-1.98498e-06
6.78984e-07
-2.04923e-06
6.53263e-07
-2.10905e-06
6.22041e-07
-2.16414e-06
5.85628e-07
-2.21425e-06
5.44307e-07
-2.25915e-06
4.98431e-07
-2.29871e-06
4.48391e-07
-2.33292e-06
3.94556e-07
-2.36184e-06
3.37293e-07
-2.38549e-06
2.76809e-07
-2.40392e-06
2.13422e-07
-2.41731e-06
1.47576e-07
-2.42583e-06
7.94249e-08
-2.42976e-06
9.0116e-09
-2.42914e-06
-6.32944e-08
-2.42429e-06
-1.37576e-07
-2.41536e-06
-2.13743e-07
-2.4024e-06
-2.91707e-07
-2.38533e-06
-3.71411e-07
-2.36387e-06
-4.52744e-07
-2.33774e-06
-5.35514e-07
-2.30606e-06
-6.19457e-07
-2.26763e-06
-7.04044e-07
-2.22093e-06
-7.88409e-07
-2.16405e-06
-8.71425e-07
-2.09544e-06
-9.51317e-07
-2.01417e-06
-1.02507e-06
-1.91974e-06
-1.09019e-06
-1.81134e-06
-1.14427e-06
-1.68842e-06
-1.18372e-06
-1.55106e-06
-1.20532e-06
-1.40007e-06
-1.20523e-06
-1.2376e-06
-1.18004e-06
-1.06749e-06
-1.12708e-06
-8.95186e-07
-1.0462e-06
-7.26279e-07
-9.39591e-07
-5.65821e-07
-8.10999e-07
-4.18719e-07
-6.65393e-07
-2.89605e-07
-5.09413e-07
-1.82133e-07
-3.51279e-07
-9.86723e-08
-1.99934e-07
-3.99047e-08
-6.44258e-08
-4.47717e-09
4.71759e-08
1.12255e-08
1.28875e-07
1.26531e-08
1.76509e-07
5.99915e-09
1.80334e-07
1.04099e-07
-1.53392e-08
3.48666e-08
-4.40158e-08
1.00606e-07
-7.63355e-08
1.45686e-07
-1.09832e-07
1.77013e-07
-1.44059e-07
2.01267e-07
-1.79042e-07
2.20999e-07
-2.14973e-07
2.37531e-07
-2.52127e-07
2.51903e-07
-2.90842e-07
2.65133e-07
-3.31508e-07
2.78286e-07
-3.74566e-07
2.9245e-07
-4.20476e-07
3.08656e-07
-4.69683e-07
3.27787e-07
-5.22563e-07
3.50471e-07
-5.79386e-07
3.77004e-07
-6.40278e-07
4.07327e-07
-7.05221e-07
4.41054e-07
-7.74063e-07
4.77541e-07
-8.46532e-07
5.1597e-07
-9.22259e-07
5.55409e-07
-1.0008e-06
5.94872e-07
-1.08163e-06
6.33349e-07
-1.16422e-06
6.69842e-07
-1.24798e-06
7.03395e-07
-1.33232e-06
7.3313e-07
-1.41669e-06
7.58284e-07
-1.50055e-06
7.78227e-07
-1.58342e-06
7.92481e-07
-1.66483e-06
8.00689e-07
-1.74423e-06
8.0255e-07
-1.82103e-06
7.97916e-07
-1.8947e-06
7.86706e-07
-1.96467e-06
7.68928e-07
-2.03048e-06
7.44796e-07
-2.09173e-06
7.14515e-07
-2.14801e-06
6.78325e-07
-2.19899e-06
6.366e-07
-2.24443e-06
5.89745e-07
-2.2842e-06
5.38208e-07
-2.3183e-06
4.82485e-07
-2.34679e-06
4.23047e-07
-2.3699e-06
3.60404e-07
-2.3882e-06
2.95116e-07
-2.40219e-06
2.2741e-07
-2.41201e-06
1.57389e-07
-2.41779e-06
8.52089e-08
-2.41982e-06
1.10377e-08
-2.41843e-06
-6.46801e-08
-2.41392e-06
-1.42087e-07
-2.40646e-06
-2.21199e-07
-2.3961e-06
-3.02065e-07
-2.38276e-06
-3.84752e-07
-2.36624e-06
-4.69263e-07
-2.34633e-06
-5.55425e-07
-2.3226e-06
-6.43189e-07
-2.29442e-06
-7.3223e-07
-2.26088e-06
-8.21948e-07
-2.22087e-06
-9.11436e-07
-2.17267e-06
-9.99509e-07
-2.11284e-06
-1.08491e-06
-2.03853e-06
-1.16449e-06
-1.9481e-06
-1.2347e-06
-1.84105e-06
-1.29077e-06
-1.71697e-06
-1.32941e-06
-1.57541e-06
-1.34678e-06
-1.41745e-06
-1.338e-06
-1.24553e-06
-1.299e-06
-1.06449e-06
-1.22724e-06
-8.81102e-07
-1.12298e-06
-7.02532e-07
-9.89569e-07
-5.35083e-07
-8.32842e-07
-3.84412e-07
-6.60085e-07
-2.55499e-07
-4.80191e-07
-1.51958e-07
-3.03475e-07
-7.55422e-08
-1.40841e-07
-2.58049e-08
-2.56144e-09
3.92959e-10
1.02677e-07
8.57254e-09
1.6833e-07
5.32249e-09
1.83584e-07
1.09421e-07
-1.73516e-08
5.22182e-08
-4.8501e-08
1.31756e-07
-8.30598e-08
1.80244e-07
-1.18645e-07
2.12598e-07
-1.54859e-07
2.37481e-07
-1.91769e-07
2.57909e-07
-2.2961e-07
2.75372e-07
-2.68701e-07
2.90993e-07
-3.0942e-07
3.05852e-07
-3.52194e-07
3.21061e-07
-3.97482e-07
3.37738e-07
-4.45742e-07
3.56915e-07
-4.97387e-07
3.79433e-07
-5.52744e-07
4.05828e-07
-6.1201e-07
4.3627e-07
-6.75237e-07
4.70554e-07
-7.42337e-07
5.08154e-07
-8.13097e-07
5.48301e-07
-8.87202e-07
5.90075e-07
-9.64255e-07
6.32462e-07
-1.04379e-06
6.74411e-07
-1.12531e-06
7.14866e-07
-1.20827e-06
7.52796e-07
-1.2921e-06
7.87229e-07
-1.37628e-06
8.17307e-07
-1.46029e-06
8.42297e-07
-1.54364e-06
8.61573e-07
-1.62574e-06
8.74585e-07
-1.70597e-06
8.80918e-07
-1.78367e-06
8.80254e-07
-1.8582e-06
8.72446e-07
-1.92901e-06
8.57516e-07
-1.99554e-06
8.35456e-07
-2.05721e-06
8.0647e-07
-2.11356e-06
7.70862e-07
-2.16421e-06
7.28973e-07
-2.20892e-06
6.81307e-07
-2.24762e-06
6.28444e-07
-2.2804e-06
5.70992e-07
-2.30751e-06
5.09598e-07
-2.32938e-06
4.44913e-07
-2.34638e-06
3.77404e-07
-2.35876e-06
3.07495e-07
-2.36688e-06
2.3553e-07
-2.37125e-06
1.61764e-07
-2.37254e-06
8.64923e-08
-2.37131e-06
9.80953e-09
-2.36787e-06
-6.81152e-08
-2.36248e-06
-1.47481e-07
-2.35534e-06
-2.28339e-07
-2.34661e-06
-3.10797e-07
-2.33636e-06
-3.94997e-07
-2.32458e-06
-4.81048e-07
-2.311e-06
-5.69005e-07
-2.29525e-06
-6.58935e-07
-2.27672e-06
-7.50756e-07
-2.25449e-06
-8.4418e-07
-2.22733e-06
-9.38596e-07
-2.19404e-06
-1.0328e-06
-2.1529e-06
-1.12606e-06
-2.10142e-06
-1.21597e-06
-2.03614e-06
-1.29997e-06
-1.95261e-06
-1.3743e-06
-1.8489e-06
-1.43312e-06
-1.72491e-06
-1.47077e-06
-1.57986e-06
-1.48306e-06
-1.41493e-06
-1.46393e-06
-1.23346e-06
-1.40871e-06
-1.04148e-06
-1.31495e-06
-8.4743e-07
-1.18362e-06
-6.60343e-07
-1.01993e-06
-4.8793e-07
-8.32498e-07
-3.36495e-07
-6.31626e-07
-2.11234e-07
-4.28736e-07
-1.15324e-07
-2.36752e-07
-4.9321e-08
-6.8564e-08
-1.10855e-08
6.44419e-08
4.83757e-09
1.52407e-07
5.09157e-09
1.8333e-07
1.14513e-07
-1.90557e-08
7.12739e-08
-5.2242e-08
1.64942e-07
-8.86774e-08
2.1668e-07
-1.26045e-07
2.49966e-07
-1.63981e-07
2.75416e-07
-2.0258e-07
2.96508e-07
-2.42108e-07
3.149e-07
-2.82917e-07
3.31802e-07
-3.25417e-07
3.48351e-07
-3.70054e-07
3.65698e-07
-4.1729e-07
3.84975e-07
-4.67569e-07
4.07194e-07
-5.21265e-07
4.33129e-07
-5.78647e-07
4.63211e-07
-6.39848e-07
4.97471e-07
-7.04856e-07
5.35562e-07
-7.73528e-07
5.76826e-07
-8.4561e-07
6.20383e-07
-9.20759e-07
6.65223e-07
-9.98562e-07
7.10265e-07
-1.07855e-06
7.54403e-07
-1.16023e-06
7.96541e-07
-1.24306e-06
8.35624e-07
-1.32654e-06
8.70711e-07
-1.41019e-06
9.00954e-07
-1.49343e-06
9.25541e-07
-1.57562e-06
9.43758e-07
-1.65605e-06
9.5502e-07
-1.73401e-06
9.58881e-07
-1.80885e-06
9.55089e-07
-1.87989e-06
9.43485e-07
-1.94642e-06
9.24049e-07
-2.00781e-06
8.96847e-07
-2.06349e-06
8.62145e-07
-2.11303e-06
8.20401e-07
-2.1562e-06
7.72153e-07
-2.19299e-06
7.18096e-07
-2.22356e-06
6.59009e-07
-2.24823e-06
5.95665e-07
-2.26745e-06
5.28818e-07
-2.28165e-06
4.59114e-07
-2.29135e-06
3.87102e-07
-2.29712e-06
3.1326e-07
-2.29959e-06
2.38001e-07
-2.29937e-06
1.61546e-07
-2.29694e-06
8.40651e-08
-2.29273e-06
5.59461e-09
-2.28707e-06
-7.37711e-08
-2.28031e-06
-1.54237e-07
-2.27275e-06
-2.35903e-07
-2.26461e-06
-3.18939e-07
-2.25606e-06
-4.03549e-07
-2.24716e-06
-4.8994e-07
-2.23786e-06
-5.78314e-07
-2.22793e-06
-6.68859e-07
-2.21701e-06
-7.6168e-07
-2.20445e-06
-8.56733e-07
-2.18932e-06
-9.53733e-07
-2.17002e-06
-1.05209e-06
-2.14502e-06
-1.15106e-06
-2.11198e-06
-1.24901e-06
-2.06863e-06
-1.34332e-06
-2.01126e-06
-1.43167e-06
-1.93502e-06
-1.50936e-06
-1.83595e-06
-1.56984e-06
-1.71251e-06
-1.60649e-06
-1.564e-06
-1.61244e-06
-1.39193e-06
-1.58079e-06
-1.20058e-06
-1.5063e-06
-9.97679e-07
-1.38653e-06
-7.93827e-07
-1.22378e-06
-6.00195e-07
-1.02613e-06
-4.25801e-07
-8.0602e-07
-2.77439e-07
-5.77098e-07
-1.60222e-07
-3.53969e-07
-7.61482e-08
-1.52637e-07
-2.39683e-08
1.22621e-08
8.53496e-10
1.27585e-07
5.15417e-09
1.79029e-07
1.19667e-07
-2.04563e-08
9.17303e-08
-5.52756e-08
1.99761e-07
-9.32469e-08
2.54651e-07
-1.32102e-07
2.88822e-07
-1.71495e-07
3.1481e-07
-2.1154e-07
3.36553e-07
-2.52523e-07
3.55883e-07
-2.94818e-07
3.74098e-07
-3.38854e-07
3.92386e-07
-3.85085e-07
4.11929e-07
-4.33966e-07
4.33856e-07
-4.85913e-07
4.59141e-07
-5.41258e-07
4.88474e-07
-6.00212e-07
5.22165e-07
-6.6285e-07
5.60109e-07
-7.29109e-07
6.0182e-07
-7.98803e-07
6.4652e-07
-8.71651e-07
6.93231e-07
-9.47292e-07
7.40865e-07
-1.02531e-06
7.88279e-07
-1.10522e-06
8.3432e-07
-1.18654e-06
8.77862e-07
-1.26881e-06
9.17891e-07
-1.35155e-06
9.53445e-07
-1.43412e-06
9.83528e-07
-1.51583e-06
1.00725e-06
-1.59592e-06
1.02385e-06
-1.67366e-06
1.03276e-06
-1.74833e-06
1.03354e-06
-1.81912e-06
1.02589e-06
-1.88526e-06
1.00962e-06
-1.94595e-06
9.84745e-07
-2.00058e-06
9.51477e-07
-2.04869e-06
9.10256e-07
-2.09004e-06
8.61752e-07
-2.12465e-06
8.06762e-07
-2.15276e-06
7.46199e-07
-2.17476e-06
6.81014e-07
-2.1912e-06
6.12107e-07
-2.20268e-06
5.40299e-07
-2.20983e-06
4.66259e-07
-2.21327e-06
3.90548e-07
-2.21364e-06
3.13631e-07
-2.21149e-06
2.3585e-07
-2.20734e-06
1.57389e-07
-2.20163e-06
7.83563e-08
-2.19474e-06
-1.29492e-09
-2.18707e-06
-8.14381e-08
-2.17894e-06
-1.6237e-07
-2.17066e-06
-2.44186e-07
-2.16249e-06
-3.27104e-07
-2.15467e-06
-4.11372e-07
-2.14734e-06
-4.97267e-07
-2.14057e-06
-5.85082e-07
-2.13433e-06
-6.75107e-07
-2.12841e-06
-7.67594e-07
-2.12244e-06
-8.62702e-07
-2.11574e-06
-9.60438e-07
-2.10721e-06
-1.06061e-06
-2.09552e-06
-1.16275e-06
-2.07874e-06
-1.26579e-06
-2.05403e-06
-1.36803e-06
-2.01855e-06
-1.46716e-06
-1.96862e-06
-1.55928e-06
-1.8986e-06
-1.63987e-06
-1.80376e-06
-1.70133e-06
-1.68067e-06
-1.73553e-06
-1.52815e-06
-1.73331e-06
-1.3482e-06
-1.68624e-06
-1.14646e-06
-1.58827e-06
-9.32884e-07
-1.43735e-06
-7.20793e-07
-1.23822e-06
-5.23644e-07
-1.00317e-06
-3.51368e-07
-7.49374e-07
-2.11184e-07
-4.94154e-07
-1.07187e-07
-2.56634e-07
-3.93617e-08
-5.55631e-08
-4.26271e-09
9.24859e-08
5.22011e-09
1.69546e-07
1.24887e-07
-2.1569e-08
1.13299e-07
-5.76405e-08
2.35833e-07
-9.68244e-08
2.93835e-07
-1.36881e-07
3.28878e-07
-1.77469e-07
3.55398e-07
-2.18712e-07
3.77795e-07
-2.60908e-07
3.98079e-07
-3.04443e-07
4.17633e-07
-3.49754e-07
4.37697e-07
-3.97292e-07
4.59467e-07
-4.47495e-07
4.8406e-07
-5.00746e-07
5.12391e-07
-5.57328e-07
5.45056e-07
-6.17402e-07
5.82239e-07
-6.8099e-07
6.23697e-07
-7.47988e-07
6.68818e-07
-8.18181e-07
7.16712e-07
-8.91267e-07
7.66317e-07
-9.66875e-07
8.16473e-07
-1.04458e-06
8.65979e-07
-1.1239e-06
9.13647e-07
-1.20443e-06
9.58395e-07
-1.28572e-06
9.99172e-07
-1.36708e-06
1.03481e-06
-1.44779e-06
1.06424e-06
-1.52708e-06
1.08654e-06
-1.60419e-06
1.10096e-06
-1.6783e-06
1.10688e-06
-1.74856e-06
1.1038e-06
-1.81406e-06
1.09138e-06
-1.87394e-06
1.0695e-06
-1.92749e-06
1.03829e-06
-1.97421e-06
9.98197e-07
-2.01387e-06
9.49917e-07
-2.04651e-06
8.94397e-07
-2.07244e-06
8.32691e-07
-2.09215e-06
7.65908e-07
-2.10627e-06
6.95129e-07
-2.11549e-06
6.21325e-07
-2.12049e-06
5.45301e-07
-2.12194e-06
4.67707e-07
-2.12046e-06
3.89072e-07
-2.11662e-06
3.09792e-07
-2.1109e-06
2.30127e-07
-2.10373e-06
1.50218e-07
-2.09549e-06
7.01191e-08
-2.0866e-06
-1.0188e-08
-2.07729e-06
-9.07417e-08
-2.06795e-06
-1.71712e-07
-2.05887e-06
-2.53271e-07
-2.05032e-06
-3.35648e-07
-2.04258e-06
-4.19116e-07
-2.03586e-06
-5.03989e-07
-2.03032e-06
-5.90614e-07
-2.02607e-06
-6.79359e-07
-2.02308e-06
-7.70588e-07
-2.02116e-06
-8.64623e-07
-2.0199e-06
-9.61701e-07
-2.01859e-06
-1.06192e-06