/*--------------------------------*- C++ -*----------------------------------*\
  =========                 |
  \\      /  F ield         | OpenFOAM: The Open Source CFD Toolbox
   \\    /   O peration     | Website:  https://openfoam.org
    \\  /    A nd           | Version:  13
     \\/     M anipulation  |
\*---------------------------------------------------------------------------*/
FoamFile
{
    format      ascii;
    class       volScalarField;
    location    "4";
    object      epsilon;
}
// * * * * * * * * * * * * * * * * * * * * * * * * * * * * * * * * * * * * * //

dimensions      [0 2 -3 0 0 0 0];

internalField   nonuniform List<scalar> 
1600
(
1.72354e-05
6.95395e-05
0.000144371
0.000170488
0.000173311
0.000188026
0.000232276
0.000316259
0.000401694
0.000481067
0.000649621
0.000949233
0.0011727
0.00135131
0.00159659
0.00190569
0.00223945
0.00257303
0.00293651
0.00330979
0.00372381
0.00416754
0.00467162
0.0052418
0.00592346
0.00660722
0.00724852
0.00782316
0.00828619
0.00852516
0.00860986
0.00828105
0.00747153
0.00609072
0.00423354
0.00236605
0.00108531
0.000429727
0.000131804
2.65743e-05
8.15313e-05
0.000101139
0.000136427
0.000148693
0.000162727
0.000208216
0.000325208
0.000563371
0.000899733
0.00131708
0.00213757
0.00325434
0.003676
0.00373727
0.00369222
0.00363023
0.00360973
0.00360036
0.00364032
0.00371441
0.00384422
0.00401113
0.00421251
0.00444409
0.00472401
0.00506256
0.00543872
0.00586032
0.00627319
0.00657972
0.00671095
0.00668046
0.00614413
0.00525656
0.00372279
0.00205223
0.000844781
0.000355909
0.0001244
5.64789e-05
0.000229853
0.00024484
0.000275222
0.000298919
0.000374882
0.000592095
0.00108105
0.00195803
0.00319497
0.00402668
0.00424959
0.00398146
0.00362477
0.00342951
0.00321294
0.00302579
0.00288973
0.00279581
0.00275191
0.00273712
0.0027509
0.00280472
0.00289986
0.00303726
0.0032072
0.00341089
0.00365215
0.00393461
0.00426167
0.00464026
0.0050309
0.00532228
0.00542842
0.00512966
0.00438026
0.00275694
0.000860285
0.000243685
8.83115e-05
4.95924e-05
0.000518741
0.000479372
0.000523545
0.000628599
0.00092285
0.00159498
0.00273481
0.00381857
0.0042163
0.00415542
0.00383347
0.00331685
0.00287503
0.00253905
0.00232527
0.00220304
0.00212473
0.00209009
0.00207974
0.00209343
0.00213915
0.00220254
0.00228685
0.00238914
0.0025124
0.0026557
0.00282511
0.00302288
0.00325135
0.00350955
0.00379512
0.00411927
0.00451141
0.00478413
0.00483004
0.00431604
0.00191045
0.000343825
7.71018e-05
3.74361e-05
0.000992412
0.000823187
0.00094794
0.0012396
0.00187587
0.00291446
0.00380885
0.00410305
0.00401009
0.00353344
0.00278928
0.00238825
0.00209228
0.00191428
0.00181884
0.00177405
0.0017586
0.00176149
0.00179844
0.00184465
0.00190624
0.0019739
0.00205203
0.00214015
0.00224318
0.00236417
0.00250909
0.00268153
0.00288356
0.00311276
0.00336231
0.00363082
0.0039244
0.00429024
0.00472045
0.00486412
0.00415901
0.00107861
0.000144357
4.42643e-05
0.00170273
0.00131326
0.00155318
0.00204542
0.00286307
0.00361525
0.00387285
0.00382556
0.00322361
0.00247415
0.00206165
0.00181279
0.00166305
0.00159491
0.00156998
0.0015664
0.00159582
0.00163585
0.00168917
0.00174373
0.00180464
0.0018684
0.00194025
0.00202181
0.00211827
0.00223403
0.00237512
0.00254575
0.00274898
0.00298463
0.00324891
0.0035175
0.00377831
0.00405455
0.00439633
0.00474424
0.00482568
0.0028719
0.000428185
8.20139e-05
0.00263102
0.00193191
0.00225444
0.00281315
0.00341285
0.00364661
0.00363406
0.00306401
0.00229625
0.0018597
0.00162516
0.00150037
0.00144568
0.00143007
0.0014338
0.00146501
0.00150299
0.00154353
0.00158583
0.00162783
0.00167311
0.00172309
0.00178315
0.0018574
0.00195192
0.0020728
0.00222661
0.00241862
0.00265174
0.00292301
0.00322111
0.00352923
0.00380746
0.00404025
0.00430381
0.00463716
0.00480953
0.00443111
0.00113135
0.000186128
0.00364371
0.00260549
0.00291366
0.00333307
0.00352079
0.00348749
0.00302128
0.00224537
0.00174756
0.00150352
0.00138395
0.00133277
0.00131829
0.0013203
0.0013435
0.00136985
0.00139347
0.00141422
0.0014328
0.00145132
0.00147381
0.00150447
0.00154869
0.0016117
0.00170005
0.00182106
0.00198319
0.0021951
0.0024641
0.00279224
0.00317011
0.00356968
0.00397225
0.00427609
0.00445239
0.00464379
0.00481264
0.00484332
0.00242843
0.000433477
0.00455461
0.00322689
0.00342346
0.00355259
0.00344948
0.00306699
0.00232395
0.00172447
0.00143513
0.00130034
0.00124236
0.00122327
0.00122052
0.00123086
0.00124276
0.00124767
0.00124845
0.00124389
0.00123791
0.00123526
0.00123716
0.0012512
0.00128115
0.00133161
0.00140906
0.00152114
0.00167774
0.00189097
0.00217432
0.00253949
0.00298927
0.00350496
0.0040317
0.00453907
0.0047998
0.00495346
0.00504932
0.00507826
0.00414907
0.00118855
0.00526711
0.00371246
0.00371944
0.003601
0.00322321
0.00252675
0.00181062
0.00142339
0.00124819
0.00117169
0.00114203
0.001133
0.00113105
0.00113049
0.00112209
0.00110477
0.00108249
0.00105716
0.00103337
0.00101679
0.00100987
0.00100989
0.00102981
0.00106879
0.00113322
0.0012302
0.00137007
0.00156699
0.00183946
0.00220899
0.00269483
0.00330108
0.00399369
0.0046703
0.00513779
0.00532396
0.00538251
0.00534649
0.00493114
0.00234759
0.00573495
0.00402415
0.00387056
0.00352664
0.00285438
0.00205793
0.00149408
0.00123751
0.00112482
0.00107674
0.00105664
0.00104736
0.00103665
0.00101874
0.000990701
0.0009556
0.000917992
0.000881193
0.000849299
0.000825338
0.000813333
0.000809658
0.000821071
0.000851037
0.000902736
0.000982736
0.00110077
0.00127135
0.0015154
0.00186113
0.00234182
0.0029862
0.0037956
0.00470705
0.00548532
0.00579743
0.0058758
0.00573493
0.00530282
0.00349903
0.00601494
0.00418516
0.00386062
0.00334794
0.00248459
0.00170402
0.00129258
0.00111093
0.00103139
0.000995732
0.000978307
0.000961904
0.000937865
0.000904183
0.000862133
0.000816532
0.0007718
0.000731159
0.000697357
0.000671998
0.000658484
0.000653682
0.000659699
0.000682395
0.000722926
0.000786972
0.000883135
0.001025
0.00123362
0.00154032
0.00198811
0.00262664
0.0034917
0.00455869
0.00567797
0.00627703
0.00642045
0.0062448
0.00587132
0.00452165
0.0060081
0.00418965
0.00378596
0.0030974
0.00215103
0.0014676
0.00115289
0.00101508
0.000953474
0.000923906
0.000903204
0.000876885
0.000840929
0.000796261
0.000746585
0.000696922
0.000650973
0.000611103
0.000578787
0.000554717
0.000541169
0.000535999
0.000538489
0.000555184
0.00058643
0.000636865
0.000713788
0.000829148
0.00100246
0.00126512
0.0016653
0.00226953
0.00315029
0.00434026
0.0057373
0.0067643
0.00704373
0.00681509
0.00619257
0.00540843
0.00592576
0.00414235
0.0036245
0.00283657
0.00187991
0.00130259
0.00104866
0.000937414
0.000886114
0.000858208
0.000831466
0.000796224
0.000751795
0.000701116
0.000648857
0.000599403
0.000555455
0.00051838
0.000488716
0.000466566
0.000453222
0.000447779
0.000447774
0.000459532
0.000483335
0.000522836
0.000584076
0.000677148
0.000819147
0.00103914
0.00138553
0.00193379
0.00278494
0.00403285
0.0056721
0.00718621
0.00771363
0.00752733
0.00678343
0.00629145
0.00573082
0.00402551
0.00341817
0.00258774
0.00167091
0.00118045
0.000966661
0.000872254
0.000827233
0.000797939
0.000765181
0.000723377
0.000674008
0.000621174
0.000569514
0.000522464
0.000481739
0.000447889
0.000420875
0.000400507
0.000387152
0.000380895
0.00037962
0.000387278
0.000405287
0.000436351
0.000485412
0.00056084
0.000677157
0.000860117
0.00115549
0.00164162
0.00243839
0.00368636
0.00545024
0.00746797
0.00839626
0.00826596
0.00732808
0.00710609
0.00540732
0.00385771
0.00319861
0.00236536
0.00151317
0.00108668
0.000900183
0.0008168
0.000775466
0.000743662
0.00070617
0.000660236
0.000608742
0.000556215
0.000506761
0.000462875
0.000425469
0.000394538
0.000369721
0.000350668
0.000337186
0.000330092
0.000327938
0.000332504
0.000346101
0.000370807
0.000410657
0.000472545
0.000568579
0.000720844
0.000970602
0.00139426
0.00212341
0.00334434
0.00520823
0.00758564
0.00909187
0.00915363
0.00800178
0.00794291
0.00502193
0.00366646
0.00298188
0.00217407
0.00139605
0.0010134
0.00084552
0.000769897
0.000730229
0.000696002
0.000655304
0.000607258
0.000555543
0.00050463
0.000457944
0.000417192
0.000382715
0.000354168
0.000331028
0.000312874
0.000299483
0.00029157
0.00028866
0.000291027
0.000301331
0.000321308
0.00035431
0.000406053
0.00048661
0.000614627
0.000826181
0.00119225
0.00184713
0.00301066
0.00492945
0.00761004
0.00976154
0.0100723
0.00868841
0.00874128
0.00458027
0.00348448
0.00278182
0.00201521
0.00130729
0.000955885
0.00080066
0.000730339
0.000691189
0.000655132
0.000612605
0.000563927
0.000513118
0.00046435
0.000420415
0.000382433
0.000350374
0.000323711
0.000301861
0.000284406
0.00027116
0.000262596
0.000259012
0.00025987
0.000267747
0.000284217
0.000312149
0.00035637
0.000425323
0.000534676
0.000715369
0.00103116
0.0016125
0.00269966
0.00462107
0.00753179
0.0103631
0.0110814
0.00951483
0.0095675
0.00412315
0.00330632
0.00260221
0.0018861
0.00124151
0.000911471
0.000764181
0.000697092
0.000657936
0.000620762
0.000577524
0.000529214
0.000479893
0.000433365
0.00039191
0.000356253
0.000326145
0.000300977
0.00028016
0.000263301
0.000250255
0.000241254
0.000237024
0.000236883
0.000242971
0.000256824
0.000280989
0.000319655
0.000380032
0.000475364
0.000631976
0.000905867
0.00141907
0.00242039
0.00430805
0.00738478
0.0108826
0.0121106
0.0104014
0.0103668
0.00363844
0.00314687
0.00244905
0.00178293
0.00119359
0.000877722
0.000734964
0.000669412
0.000629969
0.000592308
0.000549206
0.000501912
0.00045434
0.000409943
0.000370632
0.00033689
0.000308359
0.000284406
0.000264456
0.000248142
0.000235343
0.000226179
0.000221267
0.000220486
0.000225236
0.000237101
0.000258445
0.000293002
0.00034709
0.000432073
0.000570349
0.00081043
0.00126343
0.00217624
0.00400151
0.00720009
0.0113186
0.013195
0.0114191
0.0111901
0.00325173
0.00300777
0.00232075
0.00170306
0.00116172
0.000855077
0.000712241
0.000646531
0.000606648
0.000569022
0.000526693
0.000480837
0.000435115
0.000392678
0.000355201
0.000323041
0.000295807
0.000272872
0.000253681
0.000237885
0.000225365
0.00021623
0.000210816
0.000209502
0.000213218
0.000223528
0.000242748
0.000274257
0.000323767
0.000401254
0.000525912
0.00073947
0.00114127
0.00196877
0.0037124
0.00700207
0.0116514
0.0142909
0.0125391
0.011991
0.00292384
0.00288093
0.00222541
0.00164254
0.0011407
0.000840019
0.000696158
0.000628266
0.000587453
0.000550141
0.00050903
0.000464907
0.000421082
0.000380456
0.00034457
0.000313744
0.000287604
0.000265553
0.000247058
0.000231768
0.000219551
0.000210502
0.000204942
0.000203412
0.000206345
0.000215298
0.000232757
0.000261861
0.000308055
0.000380247
0.000495081
0.00068834
0.00104769
0.00179564
0.00344122
0.00677883
0.0119088
0.0154091
0.0138059
0.0128068
0.00263331
0.00277019
0.00216001
0.00160351
0.00113519
0.000838726
0.000685459
0.000614145
0.000571901
0.00053499
0.000495383
0.000453196
0.000411306
0.000372397
0.000337936
0.000308274
0.000283107
0.000261874
0.000244063
0.00022928
0.000217363
0.000208413
0.000202813
0.000201239
0.000203754
0.000211749
0.000227969
0.000255425
0.000299215
0.000367662
0.000475383
0.000653402
0.000978687
0.00165584
0.00319367
0.00653031
0.0120992
0.0165342
0.0151949
0.0135999
0.0023687
0.00267919
0.00211888
0.00157951
0.00113902
0.00084333
0.000684907
0.000604644
0.000559821
0.000523006
0.000484957
0.00044485
0.000404982
0.000367751
0.000334657
0.000306278
0.000282137
0.00026169
0.000244378
0.000229913
0.000218219
0.000209382
0.000203736
0.000201985
0.000204028
0.000211214
0.000226569
0.00025312
0.00029554
0.000361901
0.000465722
0.00063297
0.00092994
0.00154596
0.00297328
0.00626356
0.0122068
0.0176776
0.0167079
0.0143949
0.00212149
0.00260254
0.00209913
0.00158006
0.0011511
0.000855497
0.0006887
0.000601668
0.000551319
0.00051402
0.00047742
0.000439393
0.000401502
0.000366205
0.000334745
0.000307079
0.000283458
0.000263478
0.000246691
0.000232741
0.000221483
0.000212956
0.000207464
0.000205737
0.000207549
0.000214064
0.000228355
0.000253723
0.000295042
0.000360362
0.000462431
0.000623951
0.000899216
0.0014617
0.00278158
0.00598611
0.0122491
0.0188208
0.0183466
0.0151603
0.00188951
0.00254137
0.0021012
0.00158913
0.00117606
0.000879435
0.000699366
0.000603948
0.000548182
0.000507784
0.000471857
0.00043581
0.000400514
0.000366898
0.000336358
0.000309715
0.000287
0.000267808
0.00025172
0.000238379
0.000227567
0.000219322
0.000213948
0.000212358
0.000214105
0.000220298
0.000234036
0.000258851
0.000299477
0.000363896
0.000464314
0.000622062
0.000885072
0.00140009
0.00261665
0.00570554
0.0122486
0.0199518
0.0201111
0.0159104
0.00166693
0.00248164
0.00211092
0.00161144
0.00121254
0.000913976
0.000721217
0.000611936
0.000550011
0.000507205
0.000470423
0.000435651
0.000401469
0.000369188
0.000340148
0.00031484
0.00029309
0.000274674
0.000259231
0.000246442
0.000236114
0.000228245
0.000223105
0.000221815
0.000223627
0.000229771
0.000243345
0.000268023
0.000308595
0.000373217
0.000473958
0.000629789
0.000881847
0.00136002
0.00248007
0.00542798
0.0121284
0.0210288
0.0219916
0.0166209
0.00145748
0.00242527
0.00213334
0.00164669
0.00125841
0.000959192
0.000754572
0.000629519
0.000557053
0.000509843
0.000471921
0.000437236
0.000404206
0.000373711
0.000346119
0.000321941
0.000301179
0.000283614
0.000268919
0.000256797
0.000247064
0.000239706
0.00023495
0.000234173
0.000236178
0.000242535
0.000256363
0.000281315
0.000322316
0.000387729
0.000489787
0.000646518
0.000892226
0.00134199
0.00237049
0.00516157
0.0119679
0.0220156
0.0239689
0.0172997
0.00125554
0.002343
0.00214887
0.0016964
0.00131387
0.00101503
0.000800193
0.000660183
0.000573229
0.000518232
0.000477243
0.000441852
0.000409748
0.000380404
0.000354059
0.000331009
0.000311263
0.000294612
0.000280759
0.000269422
0.000260427
0.000253744
0.000249592
0.000249542
0.000251895
0.000258774
0.000273353
0.000299044
0.000341002
0.00040781
0.000512008
0.000671462
0.000915806
0.00133818
0.00228511
0.00490399
0.0117193
0.0229247
0.0259933
0.0179309
0.00107847
0.00224532
0.0021415
0.00175586
0.0013772
0.00108133
0.000859413
0.000705408
0.000604094
0.00053688
0.000489611
0.000451712
0.000419157
0.000390219
0.00036467
0.000342518
0.000323674
0.000307913
0.00029494
0.000284474
0.000276355
0.000270486
0.00026737
0.000267884
0.000271008
0.000278847
0.000294734
0.000321678
0.000365215
0.000434123
0.00054129
0.000705055
0.000952286
0.00135621
0.00223933
0.00466544
0.011368
0.0236899
0.0279997
0.0185225
0.000926798
0.00209409
0.00211269
0.00182589
0.00144763
0.00115608
0.000931943
0.000767579
0.000652315
0.000572316
0.000515018
0.000471438
0.000435821
0.000405603
0.000379753
0.000357811
0.000339448
0.000324331
0.000312114
0.000302489
0.000295312
0.000290308
0.000288613
0.000289785
0.000293967
0.000303359
0.000320985
0.000349918
0.000395886
0.000467871
0.000579093
0.000748916
0.00100345
0.00139785
0.00222436
0.00445576
0.0109568
0.0243013
0.0298891
0.0190706
0.000801403
0.00186242
0.00207871
0.00187661
0.00152378
0.0012409
0.00101948
0.00084915
0.000722107
0.000628744
0.000559508
0.000506797
0.000465077
0.000431088
0.00040305
0.000379946
0.000361089
0.000345932
0.000333998
0.000324921
0.000318513
0.000314332
0.000314253
0.000316208
0.000321769
0.0003334
0.000353445
0.000385402
0.000435058
0.000511702
0.000628806
0.000807375
0.00107446
0.00147247
0.00225632
0.0043516
0.0105532
0.0247176
0.0315419
0.0195915
0.000696894
0.0015557
0.00200786
0.00187373
0.00158469
0.00132766
0.0011208
0.000954048
0.000820935
0.000716129
0.000633902
0.000569074
0.000517443
0.000475974
0.000442555
0.000415713
0.000394344
0.000377601
0.000364759
0.000355379
0.000349002
0.0003458
0.000346499
0.000349761
0.000357392
0.000372145
0.000395845
0.00043259
0.000488143
0.000572506
0.000699153
0.00089191
0.00117872
0.00160509
0.00237089
0.00433344
0.01035
0.025034
0.0327813
0.0201032
0.000627672
0.00123866
0.00185794
0.00182886
0.00164751
0.0014234
0.00123768
0.00108248
0.000951142
0.000839984
0.000746889
0.000669589
0.000605899
0.000553779
0.000511465
0.000477461
0.00045046
0.000429439
0.000413489
0.000402193
0.0003946
0.000392169
0.000393673
0.000398768
0.000409889
0.00042957
0.000459697
0.000505106
0.000571318
0.000670359
0.000814737
0.00103475
0.00135675
0.00184534
0.00264545
0.00457983
0.0103254
0.0253556
0.0334485
0.0206695
0.000633715
0.000991382
0.00161209
0.00172848
0.00166291
0.00152396
0.00138536
0.00125719
0.00113742
0.00102676
0.000925768
0.00083568
0.000757056
0.000689842
0.000633549
0.00058725
0.000550195
0.000522023
0.000501296
0.000487127
0.000478426
0.000478319
0.000481789
0.000491284
0.000510428
0.000540468
0.000584102
0.000648251
0.00073739
0.000869523
0.00105275
0.00133444
0.00172951
0.0023584
0.00330045
0.00540523
0.0110825
0.0261483
0.0337215
0.0209463
0.000784269
0.000819017
0.00129308
0.00153691
0.00166234
0.00163643
0.00156867
0.00148066
0.00138363
0.00128117
0.00117998
0.00108379
0.000995797
0.000918064
0.000851595
0.000796527
0.000752498
0.000718707
0.000695956
0.000681527
0.000680458
0.000686333
0.000701592
0.000731383
0.000774319
0.000836713
0.000918105
0.00103253
0.00118308
0.00140388
0.00168836
0.00213035
0.00270597
0.00366723
0.00497738
0.00763287
0.0134709
0.0279418
0.0337628
0.0210443
0.00104256
0.000826184
0.00119801
0.00156036
0.00179101
0.00192083
0.00196391
0.00194887
0.00189959
0.00181654
0.00172324
0.00162777
0.00153664
0.00145608
0.00138883
0.00133663
0.00130132
0.00128413
0.00128727
0.00130262
0.00133848
0.00139983
0.00148124
0.00159323
0.00173309
0.00191819
0.00214243
0.00244101
0.002794
0.00327752
0.00386394
0.00474565
0.00580146
0.00753769
0.00967941
0.0135604
0.01935
0.0316915
0.0338412
0.0207998
0.00161533
0.0011215
0.00167301
0.00226528
0.00273817
0.00310523
0.00333764
0.0034632
0.0035147
0.00350797
0.003481
0.00344412
0.00341371
0.00341055
0.00342566
0.00346882
0.00355643
0.00368681
0.00385885
0.00408114
0.00435008
0.00468654
0.0050802
0.0055607
0.0061133
0.00678394
0.00755161
0.00848445
0.00955395
0.0108684
0.0123514
0.0142475
0.0165292
0.0198191
0.0235692
0.0290894
0.03395
0.0391432
0.0356487
0.0197816
0.00297917
0.00276132
0.00526598
0.00755187
0.00901037
0.0100353
0.0107384
0.0112256
0.0115703
0.0118366
0.0120732
0.0123279
0.0126242
0.0129992
0.0134527
0.0140094
0.0146632
0.0154509
0.0163451
0.017396
0.0185599
0.0199066
0.0213778
0.0230628
0.0248907
0.0269591
0.0292106
0.031703
0.0344773
0.0374002
0.0408729
0.0441163
0.0484926
0.0515485
0.0562962
0.0566284
0.054262
0.0465962
0.0365217
0.0176485
0.00201985
0.00332473
0.00459795
0.00603501
0.00733664
0.00847736
0.0094398
0.0102396
0.0108759
0.0113745
0.0117433
0.012009
0.0122021
0.0123354
0.012434
0.0125038
0.0125692
0.0126242
0.0127006
0.0127698
0.0128845
0.0129861
0.0131608
0.0133053
0.0135587
0.0137521
0.0141027
0.0143475
0.0148111
0.0151056
0.0156778
0.0160173
0.0166357
0.0170544
0.0179318
0.0184797
0.0192791
0.0192298
0.018515
0.0154329
)
;

boundaryField
{
    movingWall
    {
        type            epsilonWallFunction;
        value           nonuniform List<scalar> 
40
(
0.00201985
0.00332473
0.00459795
0.00603501
0.00733664
0.00847736
0.0094398
0.0102396
0.0108759
0.0113745
0.0117433
0.012009
0.0122021
0.0123354
0.012434
0.0125038
0.0125692
0.0126242
0.0127006
0.0127698
0.0128845
0.0129861
0.0131608
0.0133053
0.0135587
0.0137521
0.0141027
0.0143475
0.0148111
0.0151056
0.0156778
0.0160173
0.0166357
0.0170544
0.0179318
0.0184797
0.0192791
0.0192298
0.018515
0.0154329
)
;
    }
    fixedWalls
    {
        type            epsilonWallFunction;
        value           nonuniform List<scalar> 
120
(
1.72354e-05
8.15313e-05
0.000229853
0.000518741
0.000992412
0.00170273
0.00263102
0.00364371
0.00455461
0.00526711
0.00573495
0.00601494
0.0060081
0.00592576
0.00573082
0.00540732
0.00502193
0.00458027
0.00412315
0.00363844
0.00325173
0.00292384
0.00263331
0.0023687
0.00212149
0.00188951
0.00166693
0.00145748
0.00125554
0.00107847
0.000926798
0.000801403
0.000696894
0.000627672
0.000633715
0.000784269
0.00104256
0.00161533
0.00297917
0.00201985
2.65743e-05
5.64789e-05
4.95924e-05
3.74361e-05
4.42643e-05
8.20139e-05
0.000186128
0.000433477
0.00118855
0.00234759
0.00349903
0.00452165
0.00540843
0.00629145
0.00710609
0.00794291
0.00874128
0.0095675
0.0103668
0.0111901
0.011991
0.0128068
0.0135999
0.0143949
0.0151603
0.0159104
0.0166209
0.0172997
0.0179309
0.0185225
0.0190706
0.0195915
0.0201032
0.0206695
0.0209463
0.0210443
0.0207998
0.0197816
0.0176485
0.0154329
1.72354e-05
6.95395e-05
0.000144371
0.000170488
0.000173311
0.000188026
0.000232276
0.000316259
0.000401694
0.000481067
0.000649621
0.000949233
0.0011727
0.00135131
0.00159659
0.00190569
0.00223945
0.00257303
0.00293651
0.00330979
0.00372381
0.00416754
0.00467162
0.0052418
0.00592346
0.00660722
0.00724852
0.00782316
0.00828619
0.00852516
0.00860986
0.00828105
0.00747153
0.00609072
0.00423354
0.00236605
0.00108531
0.000429727
0.000131804
2.65743e-05
)
;
    }
    frontAndBack
    {
        type            empty;
    }
}


// ************************************************************************* //
