/*--------------------------------*- C++ -*----------------------------------*\
  =========                 |
  \\      /  F ield         | OpenFOAM: The Open Source CFD Toolbox
   \\    /   O peration     | Website:  https://openfoam.org
    \\  /    A nd           | Version:  13
     \\/     M anipulation  |
\*---------------------------------------------------------------------------*/
FoamFile
{
    format      ascii;
    class       volScalarField;
    location    "4";
    object      k;
}
// * * * * * * * * * * * * * * * * * * * * * * * * * * * * * * * * * * * * * //

dimensions      [0 2 -2 0 0 0 0];

internalField   nonuniform List<scalar> 
400
(
2.06837e-06
5.14406e-06
1.84741e-05
7.34714e-05
0.00015665
0.000211361
0.000253879
0.000288837
0.000322378
0.000351737
0.00038191
0.000410401
0.000440906
0.000462961
0.000473462
0.000475448
0.000443963
0.000347757
0.000212136
0.000150754
9.83074e-06
3.99489e-05
9.49744e-05
0.000210153
0.000338992
0.000400681
0.000478681
0.000527749
0.000593317
0.000646259
0.000706673
0.000762171
0.000816717
0.000866689
0.000910756
0.000932139
0.000937423
0.000837659
0.000564473
0.000349126
4.02547e-05
0.000155233
0.000291022
0.000432597
0.000507376
0.000574373
0.000633993
0.000682392
0.000736856
0.00078641
0.000836004
0.000881435
0.000924747
0.000968982
0.00101218
0.00103597
0.00104321
0.000988003
0.000730228
0.000492083
0.000101022
0.000336879
0.000448367
0.000545339
0.000595714
0.000656959
0.000700553
0.000742354
0.000784978
0.000824969
0.000864373
0.000901733
0.000940177
0.000985671
0.00104019
0.00109316
0.00111287
0.00110177
0.000878111
0.000587565
0.000165832
0.000454482
0.000540349
0.000598601
0.000636168
0.000680188
0.000709383
0.000741714
0.000774544
0.000801991
0.000827837
0.000856173
0.000895069
0.000949432
0.00102608
0.00112208
0.00118938
0.00120214
0.00101524
0.00066263
0.000211271
0.000525876
0.000588133
0.000617594
0.000644318
0.000677543
0.000700679
0.00072152
0.000733441
0.000741574
0.000753197
0.000774457
0.000811718
0.000875013
0.00097715
0.00112408
0.00126522
0.00131022
0.00115918
0.000724131
0.000235826
0.000547163
0.000594774
0.000616106
0.000640729
0.000666067
0.000676105
0.000678561
0.000675206
0.000671957
0.000672438
0.000684778
0.000716867
0.000781655
0.000897323
0.0010786
0.00130549
0.00141627
0.00130268
0.000775039
0.000234194
0.000541843
0.000588899
0.000608814
0.000629819
0.000642766
0.000644408
0.00063687
0.00062331
0.000609574
0.000603131
0.000606267
0.000631383
0.000692888
0.000814769
0.00102389
0.00131657
0.00151505
0.00145742
0.000817121
0.000226185
0.000525931
0.000573857
0.000593062
0.00061055
0.000618469
0.000615603
0.000602305
0.000582876
0.000562698
0.000549327
0.000546073
0.000563486
0.00061783
0.000736832
0.000958891
0.001303
0.00159879
0.00160233
0.000849292
0.000206198
0.000502771
0.000550836
0.00057214
0.000588727
0.000595359
0.000590602
0.000575363
0.0005538
0.000530808
0.00051221
0.000504128
0.000515006
0.000561405
0.000672726
0.000893903
0.00126284
0.00166745
0.00174515
0.000874017
0.000184912
0.00047033
0.000525571
0.000549252
0.000565896
0.000572757
0.000568416
0.000554301
0.000533157
0.000509901
0.000489538
0.000478891
0.000486243
0.000525646
0.000627413
0.00084235
0.00122048
0.00170133
0.00187729
0.000888743
0.000164614
0.000433242
0.0004999
0.000526333
0.000543296
0.0005506
0.000547491
0.000536268
0.000517213
0.000495554
0.000475905
0.000466307
0.000473567
0.000509639
0.00060206
0.000802801
0.00117791
0.00171479
0.00199728
0.000895637
0.000144251
0.000392743
0.000472657
0.000504707
0.000522631
0.000530198
0.000527881
0.000519246
0.000502905
0.000483789
0.000466382
0.000460536
0.00046968
0.000505453
0.000591939
0.00077461
0.00113309
0.00171664
0.00207739
0.000897595
0.000123356
0.000354397
0.000447562
0.000486194
0.000506234
0.000513225
0.000510863
0.000503298
0.000489148
0.00047271
0.000458411
0.000457996
0.000469667
0.000507223
0.00059048
0.000759887
0.00108464
0.00169557
0.00211038
0.000895198
0.000100153
0.00030582
0.000417377
0.000470132
0.000495984
0.000506738
0.000504521
0.000496844
0.000482449
0.000466534
0.000455296
0.000457632
0.00047315
0.00051423
0.000597288
0.000756301
0.00105321
0.0016592
0.00210798
0.000890291
7.80571e-05
0.000266488
0.000393124
0.000457603
0.000498217
0.000513198
0.000511006
0.00050286
0.000487488
0.000470924
0.000461849
0.000466151
0.000485104
0.000531537
0.000617915
0.000776297
0.00104529
0.00163313
0.00197747
0.000876908
5.29704e-05
0.000206353
0.000353572
0.000456062
0.000511811
0.000536757
0.000536122
0.000529168
0.000514431
0.000499007
0.000496512
0.000505652
0.000534342
0.000596777
0.000701583
0.000886732
0.00112607
0.00163053
0.00181145
0.000855652
5.31033e-05
0.000215558
0.00038418
0.000502371
0.00057675
0.000616561
0.000626059
0.000625257
0.000623012
0.000626351
0.000642564
0.000679854
0.000753122
0.000864596
0.00101797
0.00127111
0.00149698
0.00178393
0.00164731
0.000818558
7.56609e-05
0.000280303
0.000515922
0.000672617
0.000782838
0.000863745
0.000924539
0.000979582
0.00104164
0.00111954
0.00122467
0.00135312
0.00153224
0.00173453
0.00199213
0.00225981
0.00224436
0.00204745
0.00157671
0.000756373
5.68931e-05
9.41606e-05
0.000178036
0.000262416
0.00033519
0.000389486
0.000435977
0.000465398
0.000497173
0.000515424
0.000545494
0.000563499
0.000600246
0.000625616
0.00067113
0.000707755
0.000743483
0.000768224
0.000756412
0.00067693
)
;

boundaryField
{
    movingWall
    {
        type            kqRWallFunction;
        value           nonuniform List<scalar> 
20
(
5.68931e-05
9.41606e-05
0.000178036
0.000262416
0.00033519
0.000389486
0.000435977
0.000465398
0.000497173
0.000515424
0.000545494
0.000563499
0.000600246
0.000625616
0.00067113
0.000707755
0.000743483
0.000768224
0.000756412
0.00067693
)
;
    }
    fixedWalls
    {
        type            kqRWallFunction;
        value           nonuniform List<scalar> 
60
(
2.06837e-06
9.83074e-06
4.02547e-05
0.000101022
0.000165832
0.000211271
0.000235826
0.000234194
0.000226185
0.000206198
0.000184912
0.000164614
0.000144251
0.000123356
0.000100153
7.80571e-05
5.29704e-05
5.31033e-05
7.56609e-05
5.68931e-05
0.000150754
0.000349126
0.000492083
0.000587565
0.00066263
0.000724131
0.000775039
0.000817121
0.000849292
0.000874017
0.000888743
0.000895637
0.000897595
0.000895198
0.000890291
0.000876908
0.000855652
0.000818558
0.000756373
0.00067693
2.06837e-06
5.14406e-06
1.84741e-05
7.34714e-05
0.00015665
0.000211361
0.000253879
0.000288837
0.000322378
0.000351737
0.00038191
0.000410401
0.000440906
0.000462961
0.000473462
0.000475448
0.000443963
0.000347757
0.000212136
0.000150754
)
;
    }
    frontAndBack
    {
        type            empty;
    }
}


// ************************************************************************* //
