/*--------------------------------*- C++ -*----------------------------------*\
  =========                 |
  \\      /  F ield         | OpenFOAM: The Open Source CFD Toolbox
   \\    /   O peration     | Website:  https://openfoam.org
    \\  /    A nd           | Version:  13
     \\/     M anipulation  |
\*---------------------------------------------------------------------------*/
FoamFile
{
    format      ascii;
    class       volScalarField;
    location    "4";
    object      nut;
}
// * * * * * * * * * * * * * * * * * * * * * * * * * * * * * * * * * * * * * //

dimensions      [0 2 -1 0 0 0 0];

internalField   nonuniform List<scalar> 
400
(
5.81093e-08
1.44848e-07
5.22906e-07
2.07428e-06
4.40827e-06
5.94169e-06
7.13622e-06
8.11809e-06
9.06107e-06
9.88628e-06
1.07351e-05
1.1536e-05
1.23945e-05
1.30153e-05
1.33112e-05
1.33673e-05
1.24832e-05
9.77846e-06
5.96425e-06
4.23847e-06
2.76559e-07
2.06491e-06
3.66795e-06
7.10536e-06
1.40104e-05
1.81578e-05
2.46798e-05
2.92508e-05
3.50827e-05
3.92731e-05
4.32193e-05
4.57717e-05
4.72256e-05
4.75265e-05
4.67763e-05
4.39766e-05
4.22441e-05
3.34524e-05
1.84013e-05
9.81562e-06
1.13358e-06
7.70927e-06
1.28467e-05
2.30199e-05
3.02225e-05
3.79654e-05
4.55982e-05
5.17722e-05
5.64682e-05
5.98474e-05
6.20131e-05
6.29745e-05
6.30217e-05
6.23459e-05
6.07248e-05
5.63879e-05
5.16358e-05
4.44988e-05
2.54222e-05
1.38337e-05
2.84584e-06
1.74969e-05
2.52207e-05
3.61718e-05
4.30886e-05
5.27989e-05
6.00923e-05
6.50727e-05
6.88078e-05
7.1511e-05
7.33429e-05
7.4084e-05
7.35004e-05
7.23408e-05
7.03451e-05
6.63486e-05
5.86222e-05
5.3538e-05
3.38201e-05
1.65171e-05
4.67262e-06
2.57406e-05
3.51148e-05
4.49367e-05
5.33154e-05
6.23485e-05
6.82549e-05
7.33186e-05
7.76381e-05
8.03588e-05
8.1538e-05
8.14354e-05
8.06451e-05
7.9125e-05
7.7021e-05
7.3867e-05
6.58824e-05
5.90677e-05
4.10553e-05
1.86264e-05
5.95261e-06
3.20381e-05
4.23368e-05
5.13946e-05
6.02429e-05
6.91647e-05
7.5783e-05
8.13072e-05
8.44575e-05
8.6312e-05
8.69253e-05
8.66976e-05
8.54168e-05
8.35207e-05
8.16908e-05
8.00901e-05
7.40112e-05
6.427e-05
4.77811e-05
2.03543e-05
6.64299e-06
3.50718e-05
4.55654e-05
5.58427e-05
6.57577e-05
7.48553e-05
8.0955e-05
8.5432e-05
8.86534e-05
9.04454e-05
9.12768e-05
9.11309e-05
8.92414e-05
8.63726e-05
8.36618e-05
8.18467e-05
7.91189e-05
6.86568e-05
5.35448e-05
2.17844e-05
6.59708e-06
3.57731e-05
4.84471e-05
5.94445e-05
6.97318e-05
7.75895e-05
8.36817e-05
8.82784e-05
9.17037e-05
9.38506e-05
9.48109e-05
9.50578e-05
9.30662e-05
8.94369e-05
8.58212e-05
8.40433e-05
8.31769e-05
7.25685e-05
5.88535e-05
2.29664e-05
6.37185e-06
3.64473e-05
5.00495e-05
6.11841e-05
7.12861e-05
7.89086e-05
8.51178e-05
8.97517e-05
9.31912e-05
9.555e-05
9.67874e-05
9.72341e-05
9.59154e-05
9.21629e-05
8.75586e-05
8.50129e-05
8.53532e-05
7.63952e-05
6.3005e-05
2.38698e-05
5.81023e-06
3.61084e-05
5.01139e-05
6.13488e-05
7.13432e-05
7.90447e-05
8.51696e-05
8.96863e-05
9.28627e-05
9.4846e-05
9.57552e-05
9.59099e-05
9.51105e-05
9.31153e-05
8.90405e-05
8.53479e-05
8.46051e-05
8.00948e-05
6.65204e-05
2.4564e-05
5.21087e-06
3.42216e-05
4.90319e-05
6.03578e-05
7.01857e-05
7.78864e-05
8.38525e-05
8.82207e-05
9.08882e-05
9.221e-05
9.24925e-05
9.21005e-05
9.16366e-05
9.12244e-05
8.95577e-05
8.63457e-05
8.44259e-05
8.19582e-05
6.93507e-05
2.49771e-05
4.6399e-06
3.12395e-05
4.67915e-05
5.83003e-05
6.78756e-05
7.54163e-05
8.11497e-05
8.54851e-05
8.77078e-05
8.84815e-05
8.83547e-05
8.81543e-05
8.83725e-05
8.90882e-05
8.89973e-05
8.68488e-05
8.45269e-05
8.27715e-05
7.17089e-05
2.51705e-05
4.06651e-06
2.75435e-05
4.38286e-05
5.56376e-05
6.50779e-05
7.23526e-05
7.76528e-05
8.17269e-05
8.35813e-05
8.40676e-05
8.39441e-05
8.42466e-05
8.51979e-05
8.73826e-05
8.83124e-05
8.60923e-05
8.35309e-05
8.29967e-05
7.28832e-05
2.52254e-05
3.47927e-06
2.36466e-05
4.00577e-05
5.20318e-05
6.09571e-05
6.76036e-05
7.249e-05
7.64074e-05
7.84348e-05
7.91644e-05
7.94278e-05
8.0374e-05
8.16696e-05
8.44546e-05
8.67776e-05
8.49155e-05
8.06517e-05
8.2241e-05
7.32196e-05
2.51576e-05
2.82566e-06
1.93936e-05
3.64072e-05
4.83024e-05
5.73584e-05
6.42628e-05
6.88892e-05
7.25373e-05
7.42536e-05
7.48152e-05
7.57266e-05
7.64149e-05
7.81871e-05
8.10541e-05
8.34973e-05
8.24345e-05
7.76079e-05
7.94619e-05
7.27247e-05
2.50196e-05
2.20423e-06
1.63249e-05
3.31402e-05
4.49198e-05
5.47178e-05
6.16085e-05
6.59058e-05
6.94044e-05
7.09409e-05
7.13809e-05
7.21687e-05
7.26976e-05
7.39182e-05
7.58072e-05
7.69181e-05
7.63501e-05
7.31047e-05
7.70042e-05
6.82759e-05
2.46412e-05
1.49368e-06
1.30751e-05
2.92122e-05
4.30028e-05
5.29512e-05
5.95624e-05
6.29123e-05
6.61308e-05
6.72456e-05
6.73138e-05
6.69571e-05
6.67182e-05
6.65063e-05
6.68969e-05
6.75035e-05
6.87719e-05
6.73106e-05
7.08863e-05
6.32986e-05
2.40421e-05
1.49548e-06
1.53226e-05
3.11301e-05
4.35527e-05
5.24978e-05
5.85374e-05
6.09166e-05
6.20689e-05
6.1654e-05
6.09407e-05
5.97862e-05
5.84448e-05
5.87623e-05
5.92757e-05
6.29828e-05
6.60265e-05
6.83383e-05
6.68445e-05
5.53879e-05
2.2995e-05
2.12837e-06
2.07129e-05
3.50378e-05
4.40515e-05
5.02559e-05
5.46943e-05
5.74318e-05
5.87885e-05
5.96949e-05
6.08206e-05
6.23584e-05
6.39888e-05
6.70945e-05
6.95455e-05
7.42768e-05
7.67344e-05
7.40748e-05
6.68071e-05
4.93412e-05
2.12438e-05
1.59948e-06
2.64718e-06
5.00543e-06
7.37796e-06
9.42229e-06
1.09462e-05
1.22503e-05
1.30744e-05
1.39636e-05
1.44738e-05
1.53151e-05
1.58192e-05
1.68475e-05
1.75604e-05
1.88353e-05
1.98668e-05
2.08704e-05
2.15685e-05
2.12377e-05
1.9007e-05
)
;

boundaryField
{
    movingWall
    {
        type            nutkWallFunction;
        Cmu             0.09;
        kappa           0.41;
        E               9.8;
        value           uniform 0;
    }
    fixedWalls
    {
        type            nutkWallFunction;
        Cmu             0.09;
        kappa           0.41;
        E               9.8;
        value           uniform 0;
    }
    frontAndBack
    {
        type            empty;
    }
}


// ************************************************************************* //
