/*--------------------------------*- C++ -*----------------------------------*\
  =========                 |
  \\      /  F ield         | OpenFOAM: The Open Source CFD Toolbox
   \\    /   O peration     | Website:  https://openfoam.org
    \\  /    A nd           | Version:  13
     \\/     M anipulation  |
\*---------------------------------------------------------------------------*/
FoamFile
{
    format      ascii;
    class       surfaceScalarField;
    location    "4";
    object      phi;
}
// * * * * * * * * * * * * * * * * * * * * * * * * * * * * * * * * * * * * * //

dimensions      [0 3 -1 0 0 0 0];

internalField   nonuniform List<scalar> 
3120
(
6.7254e-08
-6.72563e-08
1.72557e-07
-1.05303e-07
2.59182e-07
-8.66248e-08
3.00947e-07
-4.17654e-08
3.07896e-07
-6.94949e-09
2.99968e-07
7.92828e-09
2.91175e-07
8.79239e-09
2.8274e-07
8.43516e-09
2.60967e-07
2.17734e-08
2.15957e-07
4.50097e-08
1.38823e-07
7.71344e-08
-5.96235e-09
1.44785e-07
-2.35218e-07
2.29256e-07
-5.81654e-07
3.46436e-07
-1.03735e-06
4.55693e-07
-1.53e-06
4.92655e-07
-1.99702e-06
4.67019e-07
-2.41414e-06
4.17114e-07
-2.76972e-06
3.5558e-07
-3.06232e-06
2.92603e-07
-3.29147e-06
2.29147e-07
-3.45762e-06
1.66152e-07
-3.55953e-06
1.01915e-07
-3.59651e-06
3.69727e-08
-3.56118e-06
-3.5325e-08
-3.45622e-06
-1.04964e-07
-3.27183e-06
-1.84389e-07
-3.00395e-06
-2.67879e-07
-2.64847e-06
-3.55481e-07
-2.20302e-06
-4.45447e-07
-1.6713e-06
-5.31719e-07
-1.07567e-06
-5.95635e-07
-4.63721e-07
-6.11945e-07
9.50869e-08
-5.58808e-07
5.24703e-07
-4.29617e-07
6.84266e-07
-1.59562e-07
5.71496e-07
1.12769e-07
3.62152e-07
2.09344e-07
1.47884e-07
2.14268e-07
1.47884e-07
1.21142e-07
-1.88399e-07
2.65678e-07
-2.49839e-07
3.62388e-07
-1.83336e-07
3.98391e-07
-7.77685e-08
3.85801e-07
5.64136e-09
3.32928e-07
6.08011e-08
2.50478e-07
9.12416e-08
1.26646e-07
1.32267e-07
-6.55484e-08
2.13968e-07
-3.64104e-07
3.43565e-07
-7.98305e-07
5.11336e-07
-1.34864e-06
6.95122e-07
-1.96007e-06
8.4068e-07
-2.53886e-06
9.25232e-07
-3.01621e-06
9.3304e-07
-3.40964e-06
8.86087e-07
-3.74883e-06
8.0621e-07
-4.0351e-06
7.03383e-07
-4.26982e-06
5.90298e-07
-4.45221e-06
4.74992e-07
-4.58315e-06
3.6009e-07
-4.66217e-06
2.45168e-07
-4.69156e-06
1.31312e-07
-4.66249e-06
7.89678e-09
-4.58586e-06
-1.1195e-07
-4.44695e-06
-2.43883e-07
-4.24397e-06
-3.87361e-07
-3.9683e-06
-5.43552e-07
-3.61118e-06
-7.12604e-07
-3.17073e-06
-8.85892e-07
-2.64871e-06
-1.05374e-06
-2.0524e-06
-1.19195e-06
-1.40704e-06
-1.25731e-06
-7.51799e-07
-1.21405e-06
-1.83544e-07
-9.97872e-07
2.26626e-07
-5.69732e-07
3.51818e-07
-1.24231e-08
2.84949e-07
2.76213e-07
1.30289e-07
3.68928e-07
2.78173e-07
1.46116e-07
-3.34515e-07
2.56467e-07
-3.60189e-07
2.99024e-07
-2.25893e-07
2.80072e-07
-5.88159e-08
2.04967e-07
8.07455e-08
7.22973e-08
1.93471e-07
-1.45758e-07
3.09297e-07
-4.77101e-07
4.6361e-07
-9.32824e-07
6.69691e-07
-1.49257e-06
9.03313e-07
-2.09372e-06
1.11248e-06
-2.65255e-06
1.25396e-06
-3.13763e-06
1.32576e-06
-3.53788e-06
1.32549e-06
-3.86562e-06
1.26077e-06
-4.13433e-06
1.1548e-06
-4.35375e-06
1.02563e-06
-4.53292e-06
8.82553e-07
-4.67501e-06
7.3239e-07
-4.78385e-06
5.8383e-07
-4.85901e-06
4.3525e-07
-4.90158e-06
2.87743e-07
-4.90703e-06
1.36762e-07
-4.87728e-06
-2.18578e-08
-4.80855e-06
-1.80679e-07
-4.69996e-06
-3.5247e-07
-4.54732e-06
-5.40005e-07
-4.34545e-06
-7.45421e-07
-4.08694e-06
-9.71109e-07
-3.7597e-06
-1.21313e-06
-3.3533e-06
-1.46015e-06
-2.86037e-06
-1.68488e-06
-2.28487e-06
-1.8328e-06
-1.65354e-06
-1.84538e-06
-9.9922e-07
-1.65219e-06
-4.08034e-07
-1.16092e-06
-4.40069e-08
-3.7645e-07
4.79724e-08
1.84234e-07
3.15421e-08
3.85358e-07
3.09715e-07
1.19951e-07
-4.54466e-07
1.61124e-07
-4.01362e-07
1.21812e-07
-1.86581e-07
1.99369e-08
4.3059e-08
-1.53119e-07
2.53801e-07
-4.18868e-07
4.59221e-07
-7.96622e-07
6.8705e-07
-1.28308e-06
9.50072e-07
-1.84091e-06
1.22751e-06
-2.40796e-06
1.47037e-06
-2.91951e-06
1.62403e-06
-3.34569e-06
1.68013e-06
-3.68424e-06
1.66431e-06
-3.94906e-06
1.59032e-06
-4.16127e-06
1.47298e-06
-4.33294e-06
1.32646e-06
-4.47118e-06
1.16387e-06
-4.5849e-06
9.96277e-07
-4.6798e-06
8.27289e-07
-4.75343e-06
6.57464e-07
-4.80296e-06
4.84776e-07
-4.82845e-06
3.13236e-07
-4.82827e-06
1.36576e-07
-4.80409e-06
-4.60309e-08
-4.7534e-06
-2.31375e-07
-4.67383e-06
-4.32041e-07
-4.56297e-06
-6.50859e-07
-4.41785e-06
-8.90539e-07
-4.23596e-06
-1.15301e-06
-4.01324e-06
-1.43585e-06
-3.7432e-06
-1.73018e-06
-3.40748e-06
-2.0206e-06
-2.96784e-06
-2.27244e-06
-2.41526e-06
-2.39796e-06
-1.762e-06
-2.30545e-06
-1.03935e-06
-1.88357e-06
-3.86821e-07
-1.02898e-06
-1.02773e-07
-9.98132e-08
-1.63139e-08
2.98899e-07
2.93401e-07
5.3027e-08
-5.07493e-07
-1.29775e-09
-3.47037e-07
-1.27944e-07
-5.99345e-08
-3.22146e-07
2.37261e-07
-6.00866e-07
5.32521e-07
-9.78458e-07
8.36813e-07
-1.44944e-06
1.15803e-06
-1.97864e-06
1.47927e-06
-2.50647e-06
1.75534e-06
-2.96758e-06
1.93148e-06
-3.33781e-06
1.99426e-06
-3.63061e-06
1.97293e-06
-3.85772e-06
1.89141e-06
-4.03318e-06
1.76578e-06
-4.17138e-06
1.61118e-06
-4.28402e-06
1.4391e-06
-4.37692e-06
1.25677e-06
-4.44759e-06
1.06694e-06
-4.49714e-06
8.76843e-07
-4.52635e-06
6.86672e-07
-4.54069e-06
4.99119e-07
-4.54052e-06
3.13065e-07
-4.52829e-06
1.24338e-07
-4.50484e-06
-6.94722e-08
-4.46583e-06
-2.7039e-07
-4.41154e-06
-4.86332e-07
-4.34106e-06
-7.21338e-07
-4.252e-06
-9.79601e-07
-4.14074e-06
-1.26426e-06
-4.00139e-06
-1.5752e-06
-3.82576e-06
-1.90581e-06
-3.60559e-06
-2.24077e-06
-3.32405e-06
-2.55398e-06
-2.93163e-06
-2.79038e-06
-2.38451e-06
-2.85257e-06
-1.67006e-06
-2.59803e-06
-8.08453e-07
-1.89058e-06
-1.86707e-07
-7.21559e-07
-8.92301e-09
1.21115e-07
2.84478e-07
-4.55401e-08
-4.61953e-07
-1.90571e-07
-2.02007e-07
-4.02164e-07
1.51658e-07
-6.83037e-07
5.18135e-07
-1.04567e-06
8.95154e-07
-1.48546e-06
1.27661e-06
-1.97413e-06
1.6467e-06
-2.46102e-06
1.96616e-06
-2.88589e-06
2.18021e-06
-3.21935e-06
2.26495e-06
-3.47571e-06
2.25062e-06
-3.67268e-06
2.1699e-06
-3.82147e-06
2.04021e-06
-3.93291e-06
1.87722e-06
-4.01452e-06
1.69279e-06
-4.07072e-06
1.4953e-06
-4.1059e-06
1.29195e-06
-4.12575e-06
1.08679e-06
-4.13439e-06
8.85488e-07
-4.13512e-06
6.87396e-07
-4.12855e-06
4.9255e-07
-4.11445e-06
2.98972e-07
-4.09396e-06
1.03841e-07
-4.06764e-06
-9.57873e-08
-4.03422e-06
-3.03808e-07
-3.99502e-06
-5.2554e-07
-3.95049e-06
-7.6586e-07
-3.90033e-06
-1.02976e-06
-3.84313e-06
-1.32147e-06
-3.77516e-06
-1.64317e-06
-3.68829e-06
-1.99267e-06
-3.56875e-06
-2.36031e-06
-3.40004e-06
-2.72269e-06
-3.15346e-06
-3.03697e-06
-2.77299e-06
-3.23304e-06
-2.18591e-06
-3.18511e-06
-1.34583e-06
-2.73066e-06
-4.19373e-07
-1.64802e-06
-2.07679e-08
-2.7749e-07
2.6371e-07
-1.43804e-07
-3.18149e-07
-3.7726e-07
3.14496e-08
-6.59583e-07
4.33981e-07
-1.0058e-06
8.64354e-07
-1.41427e-06
1.30362e-06
-1.86365e-06
1.72599e-06
-2.31437e-06
2.09741e-06
-2.71264e-06
2.36443e-06
-3.02277e-06
2.49034e-06
-3.25348e-06
2.49566e-06
-3.42523e-06
2.42237e-06
-3.54899e-06
2.29366e-06
-3.63404e-06
2.12526e-06
-3.68857e-06
1.93175e-06
-3.71919e-06
1.72341e-06
-3.7321e-06
1.50822e-06
-3.73247e-06
1.29232e-06
-3.7251e-06
1.07942e-06
-3.71168e-06
8.72073e-07
-3.69379e-06
6.69499e-07
-3.67215e-06
4.70918e-07
-3.64734e-06
2.7416e-07
-3.62007e-06
7.657e-08
-3.59086e-06
-1.24996e-07
-3.56019e-06
-3.34478e-07
-3.52925e-06
-5.56479e-07
-3.49921e-06
-7.95907e-07
-3.47097e-06
-1.05799e-06
-3.44473e-06
-1.34772e-06
-3.41894e-06
-1.66896e-06
-3.38875e-06
-2.02286e-06
-3.34428e-06
-2.40477e-06
-3.26755e-06
-2.79942e-06
-3.12949e-06
-3.17503e-06
-2.88869e-06
-3.47384e-06
-2.47489e-06
-3.5989e-06
-1.81351e-06
-3.39204e-06
-8.27372e-07
-2.63416e-06
-9.5158e-08
-1.0097e-06
1.68552e-07
-2.2938e-07
-8.87694e-08
-5.26752e-07
3.28822e-07
-8.66103e-07
7.73332e-07
-1.25014e-06
1.24839e-06
-1.66686e-06
1.72034e-06
-2.08834e-06
2.14748e-06
-2.46947e-06
2.47854e-06
-2.77026e-06
2.66522e-06
-2.98752e-06
2.70761e-06
-3.14319e-06
2.65132e-06
-3.25095e-06
2.53013e-06
-3.31897e-06
2.36167e-06
-3.35598e-06
2.16227e-06
-3.36971e-06
1.94548e-06
-3.3668e-06
1.7205e-06
-3.35296e-06
1.49438e-06
-3.33244e-06
1.2718e-06
-3.30821e-06
1.05518e-06
-3.28145e-06
8.4531e-07
-3.25311e-06
6.41165e-07
-3.22368e-06
4.41487e-07
-3.19357e-06
2.44045e-07
-3.1633e-06
4.63085e-08
-3.1333e-06
-1.55e-07
-3.10445e-06
-3.63327e-07
-3.0781e-06
-5.82835e-07
-3.05586e-06
-8.18148e-07
-3.03944e-06
-1.07442e-06
-3.03006e-06
-1.35709e-06
-3.02762e-06
-1.6714e-06
-3.02939e-06
-2.02109e-06
-3.02815e-06
-2.40601e-06
-3.00924e-06
-2.81833e-06
-2.94752e-06
-3.23676e-06
-2.80483e-06
-3.61652e-06
-2.52835e-06
-3.87539e-06
-2.04838e-06
-3.87201e-06
-1.26254e-06
-3.42e-06
-2.78222e-07
-1.99402e-06
-1.0967e-07
-2.85945e-07
1.97175e-07
-6.33747e-07
6.76624e-07
-1.00552e-06
1.1451e-06
-1.39893e-06
1.64181e-06
-1.79703e-06
2.11843e-06
-2.16764e-06
2.51809e-06
-2.47111e-06
2.78201e-06
-2.68942e-06
2.88353e-06
-2.83964e-06
2.85783e-06
-2.94048e-06
2.75216e-06
-3.00074e-06
2.59039e-06
-3.02872e-06
2.38966e-06
-3.03312e-06
2.16666e-06
-3.02107e-06
1.93343e-06
-2.99859e-06
1.69802e-06
-2.97029e-06
1.46608e-06
-2.9392e-06
1.2407e-06
-2.90712e-06
1.02311e-06
-2.8749e-06
8.13088e-07
-2.84304e-06
6.0931e-07
-2.81167e-06
4.10115e-07
-2.78078e-06
2.13159e-07
-2.75061e-06
1.61315e-08
-2.72117e-06
-1.84438e-07
-2.69337e-06
-3.91129e-07
-2.66854e-06
-6.07663e-07
-2.64856e-06
-8.38126e-07
-2.63569e-06
-1.08728e-06
-2.63213e-06
-1.36065e-06
-2.63921e-06
-1.66432e-06
-2.65617e-06
-2.00413e-06
-2.67832e-06
-2.38387e-06
-2.69443e-06
-2.80222e-06
-2.68324e-06
-3.24795e-06
-2.60987e-06
-3.68989e-06
-2.42666e-06
-4.0586e-06
-2.0949e-06
-4.20377e-06
-1.53354e-06
-3.98135e-06
-5.38669e-07
-2.98889e-06
-6.48338e-07
-3.21049e-07
5.18224e-07
-6.93305e-07
1.04888e-06
-1.0731e-06
1.5249e-06
-1.45324e-06
2.02194e-06
-1.81608e-06
2.48128e-06
-2.1301e-06
2.83211e-06
-2.36223e-06
3.01413e-06
-2.51894e-06
3.04025e-06
-2.62191e-06
2.96079e-06
-2.68289e-06
2.81314e-06
-2.70989e-06
2.61738e-06
-2.7118e-06
2.39157e-06
-2.69671e-06
2.15158e-06
-2.67089e-06
1.90761e-06
-2.63928e-06
1.66641e-06
-2.60534e-06
1.43214e-06
-2.57125e-06
1.20661e-06
-2.53821e-06
9.90063e-07
-2.50666e-06
7.81538e-07
-2.47661e-06
5.79261e-07
-2.44769e-06
3.81202e-07
-2.41945e-06
1.84912e-07
-2.39158e-06
-1.17339e-08
-2.36392e-06
-2.12101e-07
-2.33708e-06
-4.1797e-07
-2.31221e-06
-6.32535e-07
-2.29118e-06
-8.59149e-07
-2.27653e-06
-1.10194e-06
-2.27105e-06
-1.36613e-06
-2.27718e-06
-1.65819e-06
-2.29584e-06
-1.98547e-06
-2.32469e-06
-2.35502e-06
-2.35596e-06
-2.77094e-06
-2.37362e-06
-3.23029e-06
-2.3482e-06
-3.71532e-06
-2.23321e-06
-4.17359e-06
-1.98744e-06
-4.44954e-06
-1.55573e-06
-4.41306e-06
-7.98133e-07
-3.74649e-06
-1.44647e-06
-3.32209e-07
8.50433e-07
-7.07056e-07
1.42373e-06
-1.07658e-06
1.89442e-06
-1.43081e-06
2.37618e-06
-1.75271e-06
2.80317e-06
-2.00657e-06
3.08598e-06
-2.18036e-06
3.18792e-06
-2.29507e-06
3.15496e-06
-2.3644e-06
3.03012e-06
-2.39776e-06
2.8465e-06
-2.40357e-06
2.6232e-06
-2.39068e-06
2.37867e-06
-2.36604e-06
2.12694e-06
-2.33493e-06
1.87651e-06
-2.30137e-06
1.63285e-06
-2.26803e-06
1.3988e-06
-2.23647e-06
1.17505e-06
-2.20734e-06
9.6093e-07
-2.18057e-06
7.54775e-07
-2.15566e-06
5.54353e-07
-2.1318e-06
3.57333e-07
-2.10819e-06
1.61309e-07
-2.08393e-06
-3.59946e-08
-2.05907e-06
-2.36957e-07
-2.03362e-06
-4.43429e-07
-2.00847e-06
-6.57682e-07
-1.98533e-06
-8.82292e-07
-1.96667e-06
-1.12059e-06
-1.95563e-06
-1.37718e-06
-1.95539e-06
-1.65843e-06
-1.96819e-06
-1.97267e-06
-1.99363e-06
-2.32958e-06
-2.02668e-06
-2.73789e-06
-2.05563e-06
-3.20133e-06
-2.05783e-06
-3.71312e-06
-1.99071e-06
-4.24071e-06
-1.7903e-06
-4.64995e-06
-1.44559e-06
-4.75777e-06
-8.82302e-07
-4.30978e-06
-2.32877e-06
-3.23407e-07
1.17384e-06
-6.84014e-07
1.78433e-06
-1.0303e-06
2.24071e-06
-1.35038e-06
2.69626e-06
-1.62575e-06
3.07854e-06
-1.82371e-06
3.28393e-06
-1.95826e-06
3.32247e-06
-2.04291e-06
3.23961e-06
-2.08862e-06
3.07583e-06
-2.1042e-06
2.86208e-06
-2.09823e-06
2.61723e-06
-2.07862e-06
2.35907e-06
-2.05125e-06
2.09957e-06
-2.02063e-06
1.84589e-06
-1.99001e-06
1.60223e-06
-1.96138e-06
1.37017e-06
-1.93571e-06
1.14938e-06
-1.9131e-06
9.38321e-07
-1.89303e-06
7.34708e-07
-1.87461e-06
5.35933e-07
-1.85674e-06
3.3946e-07
-1.83837e-06
1.42943e-07
-1.81859e-06
-5.57787e-08
-1.79698e-06
-2.58561e-07
-1.77346e-06
-4.6695e-07
-1.74858e-06
-6.82559e-07
-1.72368e-06
-9.072e-07
-1.70093e-06
-1.14334e-06
-1.68337e-06
-1.39473e-06
-1.6746e-06
-1.6672e-06
-1.67792e-06
-1.96935e-06
-1.69476e-06
-2.31273e-06
-1.72247e-06
-2.71018e-06
-1.75217e-06
-3.17164e-06
-1.76674e-06
-3.69854e-06
-1.73459e-06
-4.27287e-06
-1.57818e-06
-4.80636e-06
-1.29777e-06
-5.03817e-06
-7.97204e-07
-4.81035e-06
-3.12598e-06
-2.98567e-07
1.47241e-06
-6.32358e-07
2.11813e-06
-9.46624e-07
2.55498e-06
-1.22846e-06
2.9781e-06
-1.45515e-06
3.30523e-06
-1.61194e-06
3.44072e-06
-1.71749e-06
3.42803e-06
-1.7796e-06
3.30171e-06
-1.80929e-06
3.10551e-06
-1.8145e-06
2.8673e-06
-1.80329e-06
2.60602e-06
-1.78239e-06
2.33816e-06
-1.7568e-06
2.07398e-06
-1.73032e-06
1.8194e-06
-1.70545e-06
1.57737e-06
-1.68359e-06
1.3483e-06
-1.66513e-06
1.13092e-06
-1.64974e-06
9.22936e-07
-1.63659e-06
7.21555e-07
-1.62457e-06
5.23909e-07
-1.61247e-06
3.27367e-07
-1.5992e-06
1.29665e-07
-1.58382e-06
-7.11563e-08
-1.56575e-06
-2.76636e-07
-1.54473e-06
-4.8796e-07
-1.52107e-06
-7.06223e-07
-1.49568e-06
-9.3259e-07
-1.47029e-06
-1.16873e-06
-1.44754e-06
-1.41748e-06
-1.43097e-06
-1.68377e-06
-1.42444e-06
-1.97588e-06
-1.43086e-06
-2.30631e-06
-1.44984e-06
-2.6912e-06
-1.475e-06
-3.14648e-06
-1.49266e-06
-3.68088e-06
-1.4779e-06
-4.28763e-06
-1.36855e-06
-4.91572e-06
-1.12044e-06
-5.28628e-06
-6.98491e-07
-5.2323e-06
-3.82447e-06
-2.62801e-07
1.73521e-06
-5.61358e-07
2.41668e-06
-8.38525e-07
2.83214e-06
-1.08036e-06
3.21993e-06
-1.26147e-06
3.48634e-06
-1.38763e-06
3.56689e-06
-1.46977e-06
3.51017e-06
-1.51607e-06
3.34801e-06
-1.53555e-06
3.12499e-06
-1.53561e-06
2.86736e-06
-1.52342e-06
2.59383e-06
-1.50462e-06
2.31936e-06
-1.48343e-06
2.05279e-06
-1.46289e-06
1.79887e-06
-1.44487e-06
1.55934e-06
-1.43017e-06
1.3336e-06
-1.41877e-06
1.11953e-06
-1.41005e-06
9.14209e-07
-1.403e-06
7.14507e-07
-1.39649e-06
5.17401e-07
-1.38937e-06
3.20245e-07
-1.38057e-06
1.20862e-07
-1.36921e-06
-8.25076e-08
-1.35468e-06
-2.91166e-07
-1.33664e-06
-5.06007e-07
-1.31514e-06
-7.27722e-07
-1.29076e-06
-9.56969e-07
-1.26474e-06
-1.19475e-06
-1.23918e-06
-1.44304e-06
-1.21719e-06
-1.70576e-06
-1.20275e-06
-1.99032e-06
-1.19979e-06
-2.30927e-06
-1.21001e-06
-2.68098e-06
-1.22962e-06
-3.12687e-06
-1.2474e-06
-3.6631e-06
-1.24211e-06
-4.29291e-06
-1.17373e-06
-4.9841e-06
-9.5422e-07
-5.50578e-06
-5.94966e-07
-5.59156e-06
-4.41943e-06
-2.20962e-07
1.95617e-06
-4.78979e-07
2.6747e-06
-7.16476e-07
3.06964e-06
-9.16811e-07
3.42027e-06
-1.05907e-06
3.62859e-06
-1.16034e-06
3.66816e-06
-1.22429e-06
3.57412e-06
-1.25917e-06
3.38289e-06
-1.27246e-06
3.13828e-06
-1.27074e-06
2.86563e-06
-1.26011e-06
2.5832e-06
-1.24522e-06
2.30448e-06
-1.22953e-06
2.0371e-06
-1.21537e-06
1.78471e-06
-1.20401e-06
1.54798e-06
-1.1958e-06
1.3254e-06
-1.19044e-06
1.11416e-06
-1.18716e-06
9.10927e-07
-1.18497e-06
7.12316e-07
-1.18281e-06
5.15246e-07
-1.17967e-06
3.17104e-07
-1.17461e-06
1.15797e-07
-1.16684e-06
-9.02763e-08
-1.15577e-06
-3.02233e-07
-1.14103e-06
-5.20751e-07
-1.12251e-06
-7.46232e-07
-1.10053e-06
-9.78954e-07
-1.07589e-06
-1.21939e-06
-1.05014e-06
-1.46879e-06
-1.0258e-06
-1.7301e-06
-1.00654e-06
-2.00959e-06
-9.96693e-07
-2.31912e-06
-9.99596e-07
-2.67808e-06
-1.01405e-06
-3.11242e-06
-1.03075e-06
-3.6464e-06
-1.0316e-06
-4.29206e-06
-9.86627e-07
-5.02907e-06
-8.09525e-07
-5.68288e-06
-5.10197e-07
-5.89088e-06
-4.92963e-06
-1.74817e-07
2.13099e-06
-3.89831e-07
2.88971e-06
-5.86272e-07
3.26608e-06
-7.46195e-07
3.58019e-06
-8.57436e-07
3.73983e-06
-9.372e-07
3.74792e-06
-9.86348e-07
3.62327e-06
-1.01268e-06
3.40922e-06
-1.02228e-06
3.14789e-06
-1.02068e-06
2.86403e-06
-1.01284e-06
2.57536e-06
-1.0025e-06
2.29413e-06
-9.92325e-07
2.02693e-06
-9.84028e-07
1.77641e-06
-9.78382e-07
1.54233e-06
-9.75432e-07
1.32245e-06
-9.74715e-07
1.11345e-06
-9.75474e-07
9.11687e-07
-9.76828e-07
7.1367e-07
-9.77884e-07
5.16302e-07
-9.77796e-07
3.17015e-07
-9.75793e-07
1.13794e-07
-9.71214e-07
-9.48556e-08
-9.6353e-07
-3.09916e-07
-9.52362e-07
-5.31919e-07
-9.37523e-07
-7.61071e-07
-9.19103e-07
-9.97374e-07
-8.97588e-07
-1.24091e-06
-8.74054e-07
-1.49232e-06
-8.50445e-07
-1.7537e-06
-8.29881e-07
-2.03016e-06
-8.16671e-07
-2.33233e-06
-8.15217e-07
-2.67954e-06
-8.26759e-07
-3.10087e-06
-8.44583e-07
-3.62857e-06
-8.53571e-07
-4.28308e-06
-8.29029e-07
-5.05362e-06
-6.88819e-07
-5.82309e-06
-4.29219e-07
-6.15048e-06
-5.35885e-06
-1.27989e-07
2.25898e-06
-2.97529e-07
3.05925e-06
-4.53793e-07
3.42234e-06
-5.76336e-07
3.70273e-06
-6.61389e-07
3.82489e-06
-7.21566e-07
3.8081e-06
-7.58303e-07
3.66001e-06
-7.77977e-07
3.42889e-06
-7.85312e-07
3.15522e-06
-7.84681e-07
2.8634e-06
-7.79944e-07
2.57063e-06
-7.73934e-07
2.28813e-06
-7.68624e-07
2.02162e-06
-7.65156e-07
1.77294e-06
-7.63934e-07
1.54111e-06
-7.64819e-07
1.32333e-06
-7.67325e-07
1.11595e-06
-7.70794e-07
9.15155e-07
-7.74515e-07
7.1739e-07
-7.77792e-07
5.1958e-07
-7.79978e-07
3.19201e-07
-7.80483e-07
1.143e-07
-7.78786e-07
-9.65528e-08
-7.74439e-07
-3.14263e-07
-7.67087e-07
-5.39272e-07
-7.56491e-07
-7.71667e-07
-7.42595e-07
-1.01127e-06
-7.25636e-07
-1.25787e-06
-7.06313e-07
-1.51164e-06
-6.86062e-07
-1.77395e-06
-6.67434e-07
-2.04878e-06
-6.54396e-07
-2.34536e-06
-6.51839e-07
-2.68209e-06
-6.62861e-07
-3.08985e-06
-6.83489e-07
-3.60795e-06
-7.00227e-07
-4.26634e-06
-6.88278e-07
-5.06557e-06
-5.91078e-07
-5.92029e-06
-3.74311e-07
-6.36725e-06
-5.73316e-06
-7.91078e-08
2.33808e-06
-2.05082e-07
3.18523e-06
-3.22879e-07
3.54014e-06
-4.10763e-07
3.79062e-06
-4.72353e-07
3.88648e-06
-5.14709e-07
3.85046e-06
-5.40744e-07
3.68604e-06
-5.54935e-07
3.44308e-06
-5.60649e-07
3.16094e-06
-5.61132e-07
2.86388e-06
-5.59182e-07
2.56868e-06
-5.56807e-07
2.28575e-06
-5.55333e-07
2.02014e-06
-5.55445e-07
1.77305e-06
-5.57289e-07
1.54295e-06
-5.60647e-07
1.32669e-06
-5.65095e-07
1.1204e-06
-5.70127e-07
9.20188e-07
-5.75233e-07
7.22496e-07
-5.7993e-07
5.24276e-07
-5.83774e-07
3.23046e-07
-5.86362e-07
1.16887e-07
-5.87318e-07
-9.55967e-08
-5.86293e-07
-3.15288e-07
-5.82974e-07
-5.42591e-07
-5.77103e-07
-7.77538e-07
-5.68529e-07
-1.01984e-06
-5.57297e-07
-1.2691e-06
-5.43807e-07
-1.52513e-06
-5.29066e-07
-1.7887e-06
-5.15074e-07
-2.06278e-06
-5.05292e-07
-2.35515e-06
-5.04678e-07
-2.68271e-06
-5.17775e-07
-3.07675e-06
-5.43402e-07
-3.58232e-06
-5.69727e-07
-4.24001e-06
-5.71733e-07
-5.06356e-06
-5.05927e-07
-5.9861e-06
-3.24202e-07
-6.54898e-06
-6.05736e-06
-3.39316e-08
2.37202e-06
-1.15189e-07
3.26649e-06
-1.94878e-07
3.61983e-06
-2.51404e-07
3.84714e-06
-2.91391e-07
3.92646e-06
-3.17262e-07
3.87633e-06
-3.3344e-07
3.70222e-06
-3.42598e-07
3.45224e-06
-3.46743e-07
3.16508e-06
-3.47998e-07
2.86514e-06
-3.48158e-07
2.56884e-06
-3.48463e-07
2.28605e-06
-3.49676e-07
2.02136e-06
-3.52117e-07
1.77549e-06
-3.55769e-07
1.54661e-06
-3.6041e-07
1.33133e-06
-3.65728e-07
1.12572e-06
-3.71397e-07
9.25857e-07
-3.77114e-07
7.28213e-07
-3.82611e-07
5.29773e-07
-3.87646e-07
3.28082e-07
-3.91995e-07
1.21237e-07
-3.95438e-07
-9.21535e-08
-3.97738e-07
-3.12988e-07
-3.9864e-07
-5.41689e-07
-3.97898e-07
-7.7828e-07
-3.95304e-07
-1.02244e-06
-3.90763e-07
-1.27364e-06
-3.8444e-07
-1.53146e-06
-3.76987e-07
-1.79615e-06
-3.69916e-07
-2.06985e-06
-3.66126e-07
-2.35894e-06
-3.7029e-07
-2.67854e-06
-3.87787e-07
-3.05926e-06
-4.19854e-07
-3.55025e-06
-4.56453e-07
-4.20341e-06
-4.7491e-07
-5.0451e-06
-4.37675e-07
-6.02333e-06
-2.88142e-07
-6.69851e-06
-6.3455e-06
1.52719e-08
2.35674e-06
-2.61182e-08
3.30788e-06
-7.05127e-08
3.66422e-06
-9.93278e-08
3.87596e-06
-1.18478e-07
3.94561e-06
-1.29025e-07
3.88687e-06
-1.35653e-07
3.70885e-06
-1.3962e-07
3.45621e-06
-1.418e-07
3.16726e-06
-1.4317e-07
2.86651e-06
-1.44559e-07
2.57023e-06
-1.46501e-07
2.288e-06
-1.49269e-07
2.02412e-06
-1.529e-07
1.77912e-06
-1.57277e-07
1.55098e-06
-1.62224e-07
1.33628e-06
-1.67564e-07
1.13106e-06
-1.73156e-07
9.31449e-07
-1.78901e-07
7.33959e-07
-1.84737e-07
5.35608e-07
-1.90618e-07
3.33963e-07
-1.96499e-07
1.27117e-07
-2.0231e-07
-8.6342e-08
-2.07939e-07
-3.0736e-07
-2.13213e-07
-5.36415e-07
-2.17921e-07
-7.73572e-07
-2.21832e-07
-1.01853e-06
-2.24756e-07
-1.27072e-06
-2.26671e-07
-1.52954e-06
-2.2793e-07
-1.79489e-06
-2.29619e-07
-2.06816e-06
-2.34102e-07
-2.35445e-06
-2.45612e-07
-2.66703e-06
-2.69869e-07
-3.035e-06
-3.10038e-07
-3.51008e-06
-3.5806e-07
-4.15539e-06
-3.92891e-07
-5.01027e-06
-3.79291e-07
-6.03693e-06
-2.5621e-07
-6.82159e-06
-6.60171e-06
5.88404e-08
2.2979e-06
5.97413e-08
3.30698e-06
4.88446e-08
3.67512e-06
4.55213e-08
3.87928e-06
4.71206e-08
3.94401e-06
5.11967e-08
3.8828e-06
5.39272e-08
3.70612e-06
5.55369e-08
3.4546e-06
5.59844e-08
3.16681e-06
5.53545e-08
2.86714e-06
5.37152e-08
2.57187e-06
5.1179e-08
2.29053e-06
4.78999e-08
2.0274e-06
4.40653e-08
1.78296e-06
3.98486e-08
1.5552e-06
3.53636e-08
1.34076e-06
3.06462e-08
1.13578e-06
2.56575e-08
9.36438e-07
2.03013e-08
7.39315e-07
1.44474e-08
5.41463e-07
7.95628e-09
3.40454e-07
7.07224e-10
1.34366e-07
-7.38644e-09
-7.82483e-08
-1.63465e-08
-2.984e-07
-2.61e-08
-5.26661e-07
-3.64959e-08
-7.63176e-07
-4.73151e-08
-1.00771e-06
-5.83088e-08
-1.25972e-06
-6.93098e-08
-1.51854e-06
-8.04195e-08
-1.78378e-06
-9.23381e-08
-2.05624e-06
-1.06922e-07
-2.33987e-06
-1.27891e-07
-2.64606e-06
-1.60949e-07
-3.00194e-06
-2.10659e-07
-3.46037e-06
-2.71242e-07
-4.09481e-06
-3.22908e-07
-4.95861e-06
-3.32741e-07
-6.0271e-06
-2.32398e-07
-6.92193e-06
-6.83411e-06
1.02369e-07
2.19553e-06
1.42966e-07
3.26638e-06
1.63825e-07
3.65426e-06
1.8535e-07
3.85776e-06
2.07302e-07
3.92206e-06
2.25674e-07
3.86443e-06
2.37197e-07
3.6946e-06
2.44576e-07
3.44722e-06
2.48333e-07
3.16306e-06
2.49366e-07
2.86611e-06
2.48481e-07
2.57275e-06
2.46351e-07
2.29266e-06
2.43501e-07
2.03025e-06
2.40304e-07
1.78615e-06
2.3697e-07
1.55854e-06
2.33541e-07
1.34419e-06
2.29922e-07
1.13939e-06
2.25908e-07
9.40452e-07
2.21226e-07
7.43997e-07
2.15567e-07
5.47121e-07
2.0862e-07
3.47401e-07
2.00097e-07
1.4289e-07
1.89764e-07
-6.79151e-08
1.77466e-07
-2.86101e-07
1.63158e-07
-5.12353e-07
1.4691e-07
-7.46928e-07
1.28898e-07
-9.89696e-07
1.09387e-07
-1.24021e-06
8.86413e-08
-1.4978e-06
6.67713e-08
-1.76191e-06
4.34389e-08
-2.03291e-06
1.72827e-08
-2.31371e-06
-1.49044e-08
-2.61388e-06
-5.85532e-08
-2.95829e-06
-1.19108e-07
-3.39982e-06
-1.92961e-07
-4.02096e-06
-2.60862e-07
-4.89071e-06
-2.92453e-07
-5.99551e-06
-2.11787e-07
-7.0026e-06
-7.0459e-06
1.44678e-07
2.05086e-06
2.2348e-07
3.18758e-06
2.7393e-07
3.60381e-06
3.18179e-07
3.81351e-06
3.59368e-07
3.88087e-06
3.92645e-07
3.83115e-06
4.14167e-07
3.67308e-06
4.28332e-07
3.43305e-06
4.36501e-07
3.15489e-06
4.40316e-07
2.86229e-06
4.41268e-07
2.5718e-06
4.40541e-07
2.29339e-06
4.38991e-07
2.0318e-06
4.37161e-07
1.78799e-06
4.35293e-07
1.5604e-06
4.33377e-07
1.34611e-06
4.31199e-07
1.14157e-06
4.2841e-07
9.43241e-07
4.24577e-07
7.4783e-07
4.19231e-07
5.52467e-07
4.11901e-07
3.54731e-07
4.02148e-07
1.52643e-07
3.89592e-07
-5.53587e-08
3.73943e-07
-2.70452e-07
3.5503e-07
-4.93441e-07
3.32823e-07
-7.24721e-07
3.07426e-07
-9.64299e-07
2.79082e-07
-1.21187e-06
2.48109e-07
-1.46682e-06
2.14776e-07
-1.72858e-06
1.79057e-07
-1.99719e-06
1.40084e-07
-2.27474e-06
9.52155e-08
-2.56901e-06
3.93488e-08
-2.90243e-06
-3.35141e-08
-3.32696e-06
-1.21627e-07
-3.93284e-06
-2.05927e-07
-4.80641e-06
-2.56394e-07
-5.94504e-06
-1.9739e-07
-7.0616e-06
-7.24329e-06
1.84489e-07
1.86637e-06
3.00583e-07
3.07148e-06
3.79565e-07
3.52483e-06
4.46382e-07
3.74669e-06
5.04068e-07
3.82319e-06
5.51798e-07
3.78342e-06
5.85125e-07
3.63975e-06
6.07448e-07
3.41073e-06
6.21352e-07
3.14098e-06
6.29253e-07
2.85439e-06
6.33241e-07
2.56781e-06
6.34961e-07
2.29167e-06
6.35579e-07
2.03118e-06
6.35802e-07
1.78776e-06
6.35924e-07
1.56028e-06
6.35898e-07
1.34613e-06
6.35425e-07
1.14205e-06
6.34034e-07
9.44632e-07
6.31157e-07
7.50707e-07
6.26181e-07
5.57443e-07
6.18494e-07
3.62419e-07
6.07513e-07
1.63624e-07
5.92724e-07
-4.05698e-08
5.73712e-07
-2.5144e-07
5.50168e-07
-4.69897e-07
5.21937e-07
-6.9649e-07
4.8903e-07
-9.31392e-07
4.51637e-07
-1.17447e-06
4.10088e-07
-1.42528e-06
3.64747e-07
-1.68324e-06
3.15826e-07
-1.94827e-06
2.62953e-07
-2.22187e-06
2.04137e-07
-2.51019e-06
1.34663e-07
-2.83295e-06
4.81422e-08
-3.24043e-06
-5.52264e-08
-3.82948e-06
-1.5661e-07
-4.70502e-06
-2.22728e-07
-5.87892e-06
-1.86756e-07
-7.09757e-06
-7.43005e-06
2.20965e-07
1.6454e-06
3.72813e-07
2.91963e-06
4.78951e-07
3.41869e-06
5.66582e-07
3.65906e-06
6.41429e-07
3.74834e-06
7.04605e-07
3.72024e-06
7.50702e-07
3.59365e-06
7.82344e-07
3.37909e-06
8.0338e-07
3.11995e-06
8.16818e-07
2.84095e-06
8.25197e-07
2.55943e-06
8.30535e-07
2.28633e-06
8.34269e-07
2.02745e-06
8.37272e-07
1.78476e-06
8.39914e-07
1.55764e-06
8.42146e-07
1.3439e-06
8.43615e-07
1.14058e-06
8.43763e-07
9.44485e-07
8.41911e-07
7.52559e-07
8.3733e-07
5.62024e-07
8.29284e-07
3.70465e-07
8.17066e-07
1.75842e-07
8.00026e-07
-2.35304e-08
7.7764e-07
-2.29054e-07
7.49441e-07
-4.41698e-07
7.15132e-07
-6.62181e-07
6.74622e-07
-8.90882e-07
6.28012e-07
-1.12786e-06
5.75584e-07
-1.37285e-06
5.17753e-07
-1.6254e-06
4.54946e-07
-1.88546e-06
3.87235e-07
-2.15416e-06
3.1331e-07
-2.43627e-06
2.28976e-07
-2.74862e-06
1.27449e-07
-3.13891e-06
7.19327e-09
-3.70922e-06
-1.12294e-07
-4.58554e-06
-1.94923e-07
-5.7963e-06
-1.77209e-07
-7.11529e-06
-7.60725e-06
2.52124e-07
1.39328e-06
4.37881e-07
2.73388e-06
5.70414e-07
3.28616e-06
6.78304e-07
3.55117e-06
7.70675e-07
3.65597e-06
8.48297e-07
3.64262e-06
9.09006e-07
3.53294e-06
9.52207e-07
3.33589e-06
9.82376e-07
3.08978e-06
1.00315e-06
2.82018e-06
1.01753e-06
2.54505e-06
1.02787e-06
2.276e-06
1.03584e-06
2.01948e-06
1.04248e-06
1.77811e-06
1.04826e-06
1.55186e-06
1.05318e-06
1.33899e-06
1.05686e-06
1.1369e-06
1.0587e-06
9.42645e-07
1.05795e-06
7.53312e-07
1.05378e-06
5.6619e-07
1.04536e-06
3.78881e-07
1.03189e-06
1.89319e-07
1.01256e-06
-4.20361e-09
9.8678e-07
-2.03274e-07
9.53902e-07
-4.0882e-07
9.13479e-07
-6.21758e-07
8.65279e-07
-8.42682e-07
8.09271e-07
-1.07186e-06
7.45666e-07
-1.30924e-06
6.74937e-07
-1.55468e-06
5.97704e-07
-1.80823e-06
5.14362e-07
-2.07081e-06
4.24201e-07
-2.34611e-06
3.23824e-07
-2.64824e-06
2.06417e-07
-3.0215e-06
6.90975e-08
-3.5719e-06
-6.98932e-08
-4.44654e-06
-1.70165e-07
-5.69602e-06
-1.68041e-07
-7.11741e-06
-7.7753e-06
2.75013e-07
1.11826e-06
4.92115e-07
2.51678e-06
6.50767e-07
3.12751e-06
7.79045e-07
3.42289e-06
8.88841e-07
3.54618e-06
9.8211e-07
3.54935e-06
1.05844e-06
3.45661e-06
1.11541e-06
3.27892e-06
1.15721e-06
3.04799e-06
1.18767e-06
2.78971e-06
1.21011e-06
2.52261e-06
1.22717e-06
2.25894e-06
1.24078e-06
2.00587e-06
1.25214e-06
1.76675e-06
1.26187e-06
1.54213e-06
1.27003e-06
1.33083e-06
1.2763e-06
1.13063e-06
1.28006e-06
9.38886e-07
1.28053e-06
7.52843e-07
1.27682e-06
5.69891e-07
1.26804e-06
3.87667e-07
1.25325e-06
2.04103e-07
1.23167e-06
1.73842e-08
1.20242e-06
-1.7403e-07
1.16481e-06
-3.71204e-07
1.11821e-06
-5.75159e-07
1.06223e-06
-7.86709e-07
9.96696e-07
-1.00632e-06
9.21696e-07
-1.23424e-06
8.37681e-07
-1.47066e-06
7.45383e-07
-1.71593e-06
6.45572e-07
-1.971e-06
5.38171e-07
-2.23871e-06
4.20482e-07
-2.53055e-06
2.86086e-07
-2.8871e-06
1.31208e-07
-3.41702e-06
-2.5424e-08
-4.28991e-06
-1.41428e-07
-5.58002e-06
-1.62866e-07
-7.09597e-06
-7.93816e-06
2.83986e-07
8.34278e-07
5.30003e-07
2.27076e-06
7.15829e-07
2.94168e-06
8.65416e-07
3.2733e-06
9.92995e-07
3.4186e-06
1.10336e-06
3.43898e-06
1.19639e-06
3.36359e-06
1.26959e-06
3.20571e-06
1.32581e-06
2.99176e-06
1.3688e-06
2.74672e-06
1.40193e-06
2.48948e-06
1.42798e-06
2.23289e-06
1.44907e-06
1.98479e-06
1.46662e-06
1.7492e-06
1.4814e-06
1.52735e-06
1.49361e-06
1.31862e-06
1.50301e-06
1.12123e-06
1.50906e-06
9.32842e-07
1.51097e-06
7.50933e-07
1.50785e-06
5.7301e-07
1.49874e-06
3.96774e-07
1.48267e-06
2.20166e-07
1.45874e-06
4.13148e-08
1.426e-06
-1.41284e-07
1.38357e-06
-3.28772e-07
1.33071e-06
-5.22302e-07
1.26686e-06
-7.22856e-07
1.19163e-06
-9.31093e-07
1.10499e-06
-1.1476e-06
1.00732e-06
-1.37299e-06
8.99405e-07
-1.60801e-06
7.8227e-07
-1.85387e-06
6.56449e-07
-2.11288e-06
5.20042e-07
-2.39415e-06
3.67379e-07
-2.73444e-06
1.94164e-07
-3.24381e-06
1.86057e-08
-4.11435e-06
-1.19838e-07
-5.44158e-06
-1.57089e-07
-7.05872e-06
-8.09525e-06
2.7169e-07
5.62588e-07
5.45146e-07
1.9973e-06
7.60281e-07
2.72655e-06
9.32711e-07
3.10087e-06
1.07925e-06
3.27206e-06
1.20799e-06
3.31024e-06
1.31964e-06
3.25193e-06
1.41176e-06
3.11359e-06
1.48561e-06
2.91792e-06
1.54433e-06
2.688e-06
1.5912e-06
2.44262e-06
1.62901e-06
2.19507e-06
1.65997e-06
1.95382e-06
1.68566e-06
1.72351e-06
1.70701e-06
1.50599e-06
1.72442e-06
1.30121e-06
1.7378e-06
1.10785e-06
1.74671e-06
9.23939e-07
1.75044e-06
7.47203e-07
1.74813e-06
5.75315e-07
1.73883e-06
4.06077e-07
1.72153e-06
2.3746e-07
1.69526e-06
6.75876e-08
1.65894e-06
-1.04965e-07
1.61161e-06
-2.81435e-07
1.55239e-06
-4.63085e-07
1.48052e-06
-6.50988e-07
1.39543e-06
-8.46002e-07
1.29691e-06
-1.04908e-06
1.18524e-06
-1.26133e-06
1.06119e-06
-1.48396e-06
9.25914e-07
-1.71859e-06
7.80455e-07
-1.96742e-06
6.2397e-07
-2.23766e-06
4.51552e-07
-2.56202e-06
2.58459e-07
-3.05071e-06
6.01633e-08
-3.91606e-06
-9.69925e-08
-5.28442e-06
-1.51397e-07
-7.00432e-06
-8.24665e-06
2.29019e-07
3.33569e-07
5.34884e-07
1.69144e-06
7.78607e-07
2.48283e-06
9.75148e-07
2.90433e-06
1.14254e-06
3.10467e-06
1.29135e-06
3.16144e-06
1.4239e-06
3.11938e-06
1.53784e-06
2.99964e-06
1.63297e-06
2.82279e-06
1.71123e-06
2.60975e-06
1.77541e-06
2.37844e-06
1.82823e-06
2.14225e-06
1.87192e-06
1.91013e-06
1.90818e-06
1.68725e-06
1.93811e-06
1.47606e-06
1.96229e-06
1.27702e-06
1.98084e-06
1.0893e-06
1.99348e-06
9.11298e-07
1.99965e-06
7.41036e-07
1.99857e-06
5.76397e-07
1.98932e-06
4.15322e-07
1.97094e-06
2.55842e-07
1.94236e-06
9.61712e-08
1.90242e-06
-6.503e-08
1.85012e-06
-2.29127e-07
1.78443e-06
-3.97397e-07
1.7044e-06
-5.70957e-07
1.60929e-06
-7.50889e-07
1.49871e-06
-9.38503e-07
1.3728e-06
-1.13542e-06
1.23221e-06
-1.34338e-06
1.07815e-06
-1.56453e-06
9.11887e-07
-1.80116e-06