/*--------------------------------*- C++ -*----------------------------------*\
  =========                 |
  \\      /  F ield         | OpenFOAM: The Open Source CFD Toolbox
   \\    /   O peration     | Website:  https://openfoam.org
    \\  /    A nd           | Version:  13
     \\/     M anipulation  |
\*---------------------------------------------------------------------------*/
FoamFile
{
    format      ascii;
    class       volScalarField;
    location    "10";
    object      epsilon;
}
// * * * * * * * * * * * * * * * * * * * * * * * * * * * * * * * * * * * * * //

dimensions      [0 2 -3 0 0 0 0];

internalField   nonuniform List<scalar> 
400
(
2.622e-05
9.0905e-05
0.000345196
0.000673365
0.000886866
0.00105219
0.00118693
0.00131603
0.0014297
0.001546
0.0016552
0.0017704
0.00188635
0.00195906
0.00199153
0.00199214
0.00183528
0.001441
0.000891339
0.000643115
0.000114825
0.00032298
0.000812175
0.00107692
0.00113557
0.00115555
0.00116155
0.00120206
0.00125242
0.00134309
0.00145697
0.00160559
0.00178155
0.00198902
0.00221581
0.00243317
0.0025324
0.00253443
0.00198276
0.0012987
0.00036292
0.000926588
0.0011348
0.0011556
0.00111985
0.00109805
0.00108649
0.00111784
0.00117904
0.00125614
0.00134745
0.00145055
0.00157456
0.00172748
0.00191616
0.00214351
0.00233742
0.00241312
0.00221243
0.00166193
0.000796294
0.00121076
0.0012126
0.00111627
0.0010369
0.000991005
0.000979316
0.000989407
0.00101469
0.00104178
0.00108261
0.00114699
0.0012479
0.00139624
0.00161228
0.00190272
0.00222242
0.0023694
0.00231642
0.00189787
0.00111342
0.00136191
0.00118145
0.00101822
0.000908337
0.000852121
0.000815552
0.000786932
0.000764271
0.000754444
0.000754451
0.000796698
0.000883229
0.00103685
0.0012859
0.00165751
0.00214609
0.00244086
0.00248118
0.00207441
0.00127446
0.00135223
0.00110096
0.000898957
0.000786851
0.000713264
0.000646932
0.000583109
0.000526147
0.000491703
0.000478861
0.000492728
0.000566358
0.000709322
0.000966129
0.00139062
0.00202353
0.0025779
0.00272151
0.00221768
0.00129799
0.00129995
0.000993507
0.000795541
0.000681135
0.000591396
0.000503597
0.000420069
0.000349845
0.000306551
0.000288736
0.00028788
0.000340801
0.000458227
0.000690579
0.00112255
0.00185314
0.0027067
0.00299871
0.00232916
0.0012784
0.00119331
0.000896454
0.000710957
0.000596585
0.000497088
0.000398881
0.000309941
0.000240386
0.000198835
0.000181045
0.000178402
0.000211697
0.000295666
0.000484947
0.000882998
0.00164313
0.00277342
0.00334215
0.0024213
0.00122966
0.00107668
0.000813402
0.000645725
0.000534269
0.000431435
0.000331496
0.000244936
0.000181058
0.000144944
0.000130135
0.000128437
0.000151032
0.000209842
0.000352639
0.000703058
0.00148087
0.00279092
0.00368192
0.00248622
0.00113622
0.000977412
0.000746508
0.00059684
0.00049093
0.000390574
0.000293411
0.000211801
0.000154492
0.000122532
0.000109693
0.000109731
0.000126458
0.000170471
0.000279309
0.000569577
0.00131704
0.00278742
0.0040459
0.00253767
0.00103879
0.000893199
0.000694597
0.000562617
0.000464095
0.000368102
0.000278305
0.000205006
0.000152846
0.000121461
0.000106487
0.000106473
0.000119727
0.000156487
0.000246432
0.000494939
0.0011891
0.00275995
0.00437109
0.00256332
0.000952954
0.000839341
0.000658442
0.000539481
0.000447592
0.000362473
0.000280576
0.000210763
0.000160459
0.000129611
0.000114679
0.00011496
0.00012472
0.000154994
0.000236447
0.000461276
0.00110419
0.00274796
0.00465723
0.00257566
0.000861144
0.000797383
0.000640326
0.000530901
0.000447759
0.000366783
0.000290371
0.00022636
0.00017939
0.00014941
0.000133577
0.000133998
0.000143049
0.000171043
0.000243695
0.000452017
0.00106696
0.00274542
0.00480877
0.00257907
0.000774548
0.00077727
0.000649269
0.000537929
0.000455902
0.000379852
0.000311453
0.000253911
0.000210037
0.000180908
0.00016334
0.00016361
0.000172419
0.000200628
0.000273601
0.000474642
0.00105929
0.00277085
0.00486873
0.00257908
0.000677979
0.000752218
0.000668175
0.000560211
0.000478847
0.000406538
0.000342555
0.000289469
0.000248569
0.000221278
0.000203252
0.000203818
0.000213476
0.000244324
0.000322982
0.000534462
0.00111247
0.00284204
0.0048624
0.00252456
0.000576092
0.000744027
0.000709305
0.000618826
0.00053331
0.000460838
0.000396756
0.000343703
0.000302126
0.000274506
0.000255566
0.000256895
0.00026918
0.000307201
0.000401411
0.000645979
0.00124829
0.00298045
0.00460472
0.0024401
0.00046627
0.000699482
0.000727674
0.000694948
0.000627042
0.000555773
0.000488333
0.000430409
0.000384891
0.000353281
0.000336083
0.00034048
0.000361437
0.000420259
0.000556324
0.00089101
0.00157113
0.00325229
0.0041732
0.00229149
0.000313621
0.000620029
0.000809974
0.00086365
0.000841901
0.000781096
0.000704434
0.000634717
0.000582887
0.000545253
0.000545693
0.000566033
0.000622453
0.000755994
0.00102954
0.0016599
0.0024768
0.00376481
0.00387927
0.00210164
0.000323378
0.000622167
0.00104735
0.00123915
0.00129955
0.00129169
0.00126261
0.00123808
0.00124889
0.00129251
0.00138957
0.00158464
0.00186338
0.00230992
0.00289795
0.0037866
0.00449137
0.00436723
0.00383403
0.0018293
0.000233909
0.000360843
0.000655059
0.000945161
0.00115776
0.00129284
0.00136631
0.00141031
0.00143105
0.00144298
0.00144712
0.00145494
0.0014638
0.00148338
0.00150015
0.00154831
0.00161315
0.00168702
0.0016694
0.00149188
)
;

boundaryField
{
    movingWall
    {
        type            epsilonWallFunction;
        value           nonuniform List<scalar> 
20
(
0.000233909
0.000360843
0.000655059
0.000945161
0.00115776
0.00129284
0.00136631
0.00141031
0.00143105
0.00144298
0.00144712
0.00145494
0.0014638
0.00148338
0.00150015
0.00154831
0.00161315
0.00168702
0.0016694
0.00149188
)
;
    }
    fixedWalls
    {
        type            epsilonWallFunction;
        value           nonuniform List<scalar> 
60
(
2.622e-05
0.000114825
0.00036292
0.000796294
0.00111342
0.00127446
0.00129799
0.0012784
0.00122966
0.00113622
0.00103879
0.000952954
0.000861144
0.000774548
0.000677979
0.000576092
0.00046627
0.000313621
0.000323378
0.000233909
0.000643115
0.0012987
0.00166193
0.00189787
0.00207441
0.00221768
0.00232916
0.0024213
0.00248622
0.00253767
0.00256332
0.00257566
0.00257907
0.00257908
0.00252456
0.0024401
0.00229149
0.00210164
0.0018293
0.00149188
2.622e-05
9.0905e-05
0.000345196
0.000673365
0.000886866
0.00105219
0.00118693
0.00131603
0.0014297
0.001546
0.0016552
0.0017704
0.00188635
0.00195906
0.00199153
0.00199214
0.00183528
0.001441
0.000891339
0.000643115
)
;
    }
    frontAndBack
    {
        type            empty;
    }
}


// ************************************************************************* //
