/*--------------------------------*- C++ -*----------------------------------*\
  =========                 |
  \\      /  F ield         | OpenFOAM: The Open Source CFD Toolbox
   \\    /   O peration     | Website:  https://openfoam.org
    \\  /    A nd           | Version:  13
     \\/     M anipulation  |
\*---------------------------------------------------------------------------*/
FoamFile
{
    format      ascii;
    class       volScalarField;
    location    "10";
    object      epsilon;
}
// * * * * * * * * * * * * * * * * * * * * * * * * * * * * * * * * * * * * * //

dimensions      [0 2 -3 0 0 0 0];

internalField   nonuniform List<scalar> 
1600
(
3.18808e-05
0.000105784
0.000203328
0.00020089
0.000182179
0.000186152
0.000240928
0.000411588
0.000620853
0.000931223
0.00139795
0.00170576
0.00185863
0.0020724
0.00240445
0.00282285
0.00320063
0.00363834
0.00405472
0.00453685
0.00502448
0.00558738
0.00619188
0.0069021
0.00771586
0.00842736
0.00915858
0.00977346
0.0103078
0.0105908
0.0107021
0.0104709
0.00964136
0.00822711
0.0062171
0.00373342
0.001841
0.000784362
0.000253755
5.33423e-05
0.000153376
0.000191606
0.000231666
0.000219793
0.000210896
0.000252189
0.000445604
0.000963953
0.00172579
0.00289416
0.00492942
0.00578902
0.00582082
0.00540199
0.00506423
0.00491775
0.00478125
0.00473994
0.00473249
0.00483765
0.00497736
0.00519578
0.00543191
0.00573551
0.00610404
0.00655142
0.00705228
0.00762571
0.00819005
0.00865793
0.00887435
0.00890965
0.00831066
0.00721639
0.00539301
0.00315417
0.00134996
0.000599634
0.000220285
9.04683e-05
0.000461244
0.000484561
0.000484636
0.0004575
0.000514934
0.000858938
0.0018801
0.0038594
0.00609752
0.00697983
0.00671363
0.00572748
0.00523506
0.00459712
0.00420036
0.0038733
0.00362267
0.00345525
0.00335417
0.00331011
0.00329698
0.00333747
0.00344809
0.00360241
0.0037994
0.00404111
0.00433123
0.00468115
0.00509563
0.00560048
0.0061608
0.00668323
0.00692004
0.00684254
0.00597258
0.00405746
0.00131702
0.00037271
0.000138689
7.40695e-05
0.00104914
0.000936153
0.000917994
0.000977487
0.0014275
0.00277969
0.0052255
0.00687849
0.00723938
0.00654478
0.00556242
0.00436285
0.00367529
0.00315445
0.00288176
0.00262614
0.00249438
0.00240777
0.00237079
0.0023609
0.00238562
0.00244448
0.00252437
0.00263081
0.00275916
0.0029169
0.00310635
0.00333532
0.00360927
0.0039369
0.00432345
0.00478934
0.00542044
0.00602876
0.0062613
0.00578055
0.00293712
0.000505856
0.000108671
5.02931e-05
0.00195971
0.00158
0.00166128
0.00208179
0.00330689
0.00544257
0.00678168
0.00702422
0.00640725
0.00479631
0.00363188
0.00299172
0.00255999
0.00227816
0.00211137
0.00200024
0.00195157
0.00193359
0.00193264
0.00196565
0.00200749
0.00206592
0.00213444
0.00221999
0.00232187
0.00244745
0.00260173
0.00279156
0.0030199
0.0032906
0.00360666
0.00397099
0.00440696
0.0049915
0.00585303
0.00623623
0.00556653
0.00156808
0.000198078
5.64694e-05
0.00325048
0.00248984
0.00279075
0.00363822
0.00524302
0.00642632
0.00669731
0.00617618
0.00437835
0.00316861
0.00256622
0.00217808
0.0019358
0.00179544
0.00172508
0.00169353
0.00168501
0.00169129
0.00171619
0.00174903
0.00179048
0.00184209
0.00190568
0.00198491
0.00208229
0.00220328
0.00235224
0.00253443
0.00275438
0.00301503
0.00331731
0.00366629
0.00404711
0.00448136
0.00504888
0.00581582
0.00613308
0.00423933
0.000598521
0.000102827
0.00485531
0.00365126
0.00413163
0.00510787
0.0060661
0.00634248
0.00596258
0.004279
0.00292983
0.00229007
0.00194436
0.00171531
0.00159728
0.00153555
0.00150684
0.00149491
0.0014915
0.00149403
0.00150614
0.0015225
0.00154867
0.00158646
0.00163978
0.00171231
0.00180876
0.00193467
0.00209556
0.00229727
0.00254428
0.00283793
0.00317364
0.00353967
0.00393131
0.00434672
0.00477909
0.00532079
0.00573388
0.00563474
0.00152716
0.000230669
0.00656601
0.00491461
0.00535087
0.00590442
0.00610108
0.00581587
0.00440516
0.00288134
0.00214571
0.00178723
0.00157741
0.00145348
0.0013926
0.00135511
0.0013301
0.00130857
0.00128953
0.00127377
0.00126541
0.0012624
0.00126861
0.00129137
0.0013312
0.00139286
0.00148134
0.00160265
0.00176443
0.00197537
0.00224454
0.00257844
0.00297594
0.00342135
0.00388189
0.00433014
0.00474225
0.005181
0.00561279
0.00577239
0.0033648
0.00057543
0.00801566
0.00606321
0.00622156
0.00626363
0.00582331
0.0046959
0.00306206
0.00212839
0.00169753
0.00148371
0.00135206
0.00127921
0.00123386
0.00119324
0.00115495
0.00111545
0.00107786
0.00104426
0.00101775
0.00100362
0.000998774
0.00100658
0.00103646
0.00108588
0.00116218
0.00127046
0.00141975
0.00162112
0.00188865
0.00223742
0.00267844
0.00320786
0.00379153
0.00435812
0.0048583
0.00519679
0.00559908
0.00580921
0.00514313
0.00157129
0.00908085
0.0068978
0.00674703
0.00619103
0.0051559
0.00354113
0.00227062
0.00169441
0.00142422
0.00128567
0.00119487
0.00113859
0.00108754
0.00103444
0.000980389
0.000926106
0.00087593
0.000832202
0.000797669
0.000776635
0.000767775
0.00076693
0.000788359
0.000827259
0.000889949
0.000981474
0.00111054
0.00128921
0.00153434
0.00186776
0.00231399
0.00289118
0.00359058
0.00434685
0.00502517
0.00546884
0.0057307
0.00590971
0.00573861
0.00280981
0.00984283
0.00743421
0.00696473
0.00592732
0.00430174
0.00266303
0.00180865
0.00142538
0.00124272
0.00114198
0.00106816
0.00101023
0.000947719
0.000882728
0.000817697
0.000755689
0.000700504
0.000654006
0.000617923
0.000594398
0.000583515
0.000580831
0.000594554
0.00062538
0.000675575
0.000750675
0.000858226
0.00100992
0.001223
0.0015223
0.00194095
0.00251612
0.00327203
0.0041799
0.00509871
0.00574487
0.00604298
0.00617333
0.00608945
0.00400216
0.010251
0.00766449
0.00689737
0.00541601
0.00350525
0.00212878
0.00151852
0.00124384
0.0011103
0.00102666
0.000956343
0.000890537
0.000818293
0.000745805
0.000675935
0.000612304
0.00055749
0.000512559
0.000478173
0.000455112
0.000444069
0.000440755
0.000449427
0.00047373
0.000513718
0.000574575
0.000662745
0.000788746
0.000968835
0.00122816
0.00160419
0.00214791
0.00291476
0.00392987
0.00511308
0.00603454
0.00639298
0.00649654
0.00643404
0.00495876
0.0102367
0.00764065
0.00669813
0.00486114
0.00286313
0.00178555
0.00132223
0.0011113
0.00100605
0.000928053
0.000855432
0.000781906
0.000703897
0.000628509
0.000558529
0.000497054
0.000445449
0.000404016
0.000372644
0.000351281
0.000340843
0.000337414
0.000342931
0.00036212
0.00039419
0.000443536
0.000515628
0.000619487
0.000769517
0.000989059
0.00131559
0.00180636
0.00253823
0.00358488
0.00494635
0.00629131
0.00685482
0.00695894
0.00671417
0.00585137
0.010109
0.00751748
0.00634045
0.00430482
0.00241918
0.00155154
0.00118077
0.00101032
0.000919552
0.000842043
0.000765723
0.000686974
0.000606883
0.000531968
0.000464657
0.000407117
0.000359776
0.000322348
0.000294242
0.00027493
0.000265366
0.000262071
0.000265665
0.000280955
0.000307037
0.000347472
0.000406938
0.000493089
0.000618395
0.000803732
0.00108455
0.0015199
0.00220038
0.00323706
0.00468902
0.00640513
0.00733956
0.00750094
0.00715389
0.00667435
0.00980452
0.00725076
0.00592239
0.00381785
0.00211679
0.00138458
0.00107412
0.00093028
0.00084627
0.000767548
0.000688151
0.000606888
0.000527301
0.000454835
0.000391426
0.000338322
0.000295311
0.000261706
0.000236648
0.00021935
0.000210692
0.000207633
0.000210078
0.000222405
0.000243939
0.000277521
0.00032717
0.000399378
0.000504764
0.000661382
0.000901044
0.00128051
0.00189724
0.0028969
0.00442416
0.00642908
0.007839
0.00811549
0.00763472
0.00747664
0.00928344
0.00692976
0.00549908
0.00342509
0.00190149
0.0012619
0.000991807
0.000865441
0.000784249
0.00070425
0.000623032
0.000541358
0.000463771
0.000394641
0.000335398
0.000286549
0.00024747
0.000217225
0.000194813
0.000179368
0.000171509
0.000168708
0.000170484
0.000180559
0.000198613
0.000226935
0.000269036
0.000330536
0.000420594
0.000554803
0.000761129
0.00109166
0.00164287
0.00257793
0.00410821
0.00632876
0.00830514
0.00881172
0.00822111
0.00825404
0.00868817
0.00657906
0.0050966
0.00311956
0.00174598
0.00117024
0.000927494
0.000812516
0.000732414
0.000651738
0.000569936
0.000489212
0.00041431
0.000348705
0.00029337
0.000248282
0.000212566
0.000185139
0.000164934
0.00015105
0.000143857
0.00014129
0.000142687
0.000151046
0.000166399
0.000190636
0.000226851
0.000280005
0.000358116
0.000474732
0.000654247
0.00094342
0.00143456
0.00230075
0.0038057
0.00615742
0.00871911
0.00957415
0.00884806
0.00902507
0.00797626
0.00624739
0.0047392
0.00288854
0.00163405
0.00110231
0.000877485
0.000769584
0.00069001
0.000609349
0.000527936
0.000448943
0.000376902
0.000314601
0.000262667
0.000220728
0.000187762
0.000162608
0.00014417
0.000131533
0.000124837
0.000122446
0.000123628
0.00013069
0.000143946
0.00016501
0.000196639
0.000243302
0.000312191
0.000415318
0.000574086
0.000829791
0.00126749
0.00206086
0.00351406
0.00594883
0.00904716
0.0103789
0.00960635
0.00978872
0.00728249
0.00592577
0.00442979
0.00272043
0.00155821
0.00105244
0.00083888
0.00073514
0.000656054
0.000576168
0.000495921
0.00041898
0.00034964
0.000290241
0.000241146
0.000201747
0.000170941
0.000147544
0.00013046
0.000118774
0.000112386
0.000110081
0.000111111
0.000117199
0.000128837
0.000147451
0.000175497
0.000217063
0.000278733
0.000371406
0.000514224
0.000743739
0.00113714
0.00186313
0.00325363
0.00574401
0.00928937
0.0112159
0.0104368
0.0105457
0.00646385
0.00563853
0.00417797
0.00260386
0.00150899
0.00101969
0.000810619
0.000708344
0.000629963
0.000551319
0.000472626
0.000397951
0.000331181
0.000274228
0.000227319
0.000189788
0.000160563
0.000138458
0.000122365
0.000111366
0.000105122
0.00010282
0.000103871
0.000109307
0.000119669
0.000136245
0.00016142
0.000199012
0.00025504
0.00033962
0.000470299
0.000679684
0.0010369
0.00170125
0.00302022
0.00554372
0.00944711
0.0120856
0.0113853
0.0113006
0.00579481
0.0053963
0.00397594
0.0025292
0.00149227
0.000999149
0.000790798
0.000688185
0.000610311
0.000533599
0.000457216
0.000384665
0.000319773
0.000264632
0.000219459
0.000183584
0.000155698
0.000134548
0.000119078
0.000108446
0.000102138
9.96889e-05
0.000100906
0.000105877
0.000115426
0.000130745
0.000153843
0.00018808
0.000239201
0.000317487
0.000438998
0.000633401
0.000962546
0.00157396
0.0028186
0.00533721
0.0095654
0.012977
0.0124345
0.0120447
0.00522108
0.00517537
0.00384744
0.00249283
0.00150079
0.00100145
0.0007802
0.000674301
0.000597357
0.000522565
0.000447945
0.000377894
0.000315811
0.000262829
0.000219121
0.000183868
0.000156245
0.000135235
0.00011982
0.000109165
0.000102685
9.99744e-05
0.000100873
0.000105241
0.000114243
0.000128863
0.000150812
0.000183043
0.000231168
0.000304244
0.000418214
0.000601617
0.000909653
0.00147689
0.00264974
0.00513988
0.00962968
0.0138773
0.0136116
0.0127848
0.00471047
0.00498865
0.00376804
0.00249985
0.00152798
0.00101411
0.000781936
0.000666742
0.000588394
0.000516313
0.00044588
0.000378494
0.000317412
0.000265063
0.000221759
0.000186888
0.000159519
0.000138623
0.000123235
0.000112556
0.000106017
0.00010336
0.000104135
0.000107919
0.000116138
0.000129757
0.000150493
0.000181613
0.000228195
0.000298237
0.000407915
0.000584121
0.000876776
0.00140743
0.00251396
0.00495735
0.00966638
0.0148127
0.0148864
0.013508
0.00424371
0.00484311
0.00375637
0.00253059
0.00158484
0.00104366
0.000790695
0.000667937
0.000587346
0.000516748
0.000447805
0.000382094
0.000322522
0.000271199
0.000228555
0.000194113
0.000166945
0.000146059
0.000130555
0.000119681
0.000112887
0.000109982
0.00011067
0.00011413
0.000121915
0.000135139
0.000155124
0.000184644
0.000228633
0.000296691
0.000404179
0.000576714
0.000861288
0.00136521
0.00241196
0.00479329
0.00968251
0.0157507
0.016281
0.0142192
0.00380507
0.00473147
0.00377513
0.00260007
0.00167077
0.00109935
0.000811416
0.000674197
0.000589821
0.00051972
0.000453096
0.000390199
0.000332942
0.000282874
0.000240709
0.000206292
0.000178903
0.000157669
0.000141758
0.000130464
0.000123254
0.000120006
0.000120624
0.000123883
0.000131382
0.000144426
0.000164133
0.000193199
0.000236352
0.000302054
0.000405917
0.000575542
0.000856593
0.00134604
0.00234074
0.00465713
0.00969324
0.016689
0.0177971
0.014905
0.00338745
0.0046527
0.00382685
0.00270768
0.00178648
0.00118075
0.000852545
0.000689511
0.000597077
0.000526675
0.000462989
0.000402786
0.000347521
0.000298677
0.000257042
0.000222641
0.000194966
0.000173293
0.000156887
0.000145105
0.000137437
0.000133796
0.000134361
0.000137507
0.000144853
0.000157903
0.000177608
0.00020658
0.000249445
0.000314812
0.00041851
0.00058765
0.000865486
0.00134163
0.00230437
0.00454935
0.0097069
0.0176172
0.0194325
0.0155674
0.00297824
0.00458824
0.00391768
0.00285216
0.00193819
0.00129339
0.000916928
0.0007205
0.000612456
0.000538812
0.000476345
0.000418656
0.000365586
0.000318213
0.000277321
0.000243092
0.000215219
0.000193146
0.000176257
0.000164001
0.000155902
0.00015187
0.000152408
0.00015552
0.00016285
0.000176084
0.000196058
0.000225365
0.000268607
0.000334397
0.000438733
0.00060981
0.000891227
0.00136068
0.00229149
0.00446544
0.00971561
0.0185594
0.021174
0.0161947
0.00257534
0.00453268
0.00403863
0.00301441
0.00211992
0.00144196
0.00101219
0.00077279
0.000640937
0.000557911
0.00049391
0.000437737
0.000386747
0.000341066
0.000301234
0.000267484
0.000239666
0.000217389
0.000200166
0.000187553
0.000179134
0.000174812
0.000175367
0.000178537
0.000186003
0.000199597
0.000220099
0.000250151
0.000294426
0.000361741
0.000468362
0.00064328
0.000930549
0.0014025
0.00229903
0.00441475
0.00971137
0.0194969
0.0229905
0.0167886
0.00216358
0.00443305
0.00412924
0.00322677
0.00233364
0.00162781
0.00114391
0.000853196
0.000687718
0.000587859
0.000517793
0.000460899
0.000411167
0.000367084
0.000328545
0.000295625
0.000268225
0.000246074
0.000228799
0.000216072
0.000207528
0.000203154
0.000203799
0.000207147
0.000214941
0.000229086
0.000250388
0.000281628
0.000327642
0.000397624
0.000508098
0.000688969
0.000985086
0.00146551
0.00234278
0.00439509
0.00968974
0.0204048
0.0248322
0.0173406
0.00178772
0.00430693
0.00417725
0.00345955
0.002577
0.00185501
0.00132213
0.000973988
0.000763703
0.000636593
0.00055301
0.0004909
0.000440115
0.000396678
0.000359239
0.000327338
0.00030071
0.000279089
0.000262147
0.000249675
0.000241271
0.000237233
0.000238075
0.000241768
0.000250152
0.000265093
0.000287527
0.000320497
0.000369083
0.000443082
0.000559212
0.000748391
0.00105584
0.00155103
0.00241274
0.00439441
0.0096784
0.021232
0.0266134
0.0178568
0.00147963
0.00404478
0.00421944
0.00368351
0.00282642
0.00210998
0.00154615
0.00114473
0.000882285
0.000716787
0.000609648
0.000534979
0.000478401
0.000432845
0.000395065
0.000363572
0.000337585
0.000316635
0.000300277
0.000288407
0.000280388
0.000277149
0.000278326
0.000282594
0.000291928
0.000308017
0.000332051
0.000367512
0.000419747
0.000499453
0.0006233
0.000823609
0.00114496
0.00166163
0.00251854
0.00445049
0.00967592
0.0219775
0.0282729
0.0183381
0.00120128
0.00349465
0.00429576
0.0039055
0.00309139
0.00238958
0.00181611
0.00137554
0.00106061
0.00084694
0.00070396
0.000605932
0.000535471
0.000482274
0.000440629
0.00040743
0.000380902
0.000360062
0.000344049
0.000332853
0.000325245
0.0003232
0.000324858
0.000329955
0.000340675
0.000358468
0.000384839
0.000423973
0.000481363
0.000569086
0.000703209
0.000918487
0.00125706
0.00180377
0.00266768
0.00456687
0.00972061
0.0226424
0.0297191
0.0188037
0.000942862
0.00262802
0.00422518
0.00399979
0.00334692
0.00267591
0.00212039
0.00166781
0.00131553
0.00105378
0.000865418
0.000731161
0.000634579
0.000563705
0.000510597
0.000470213
0.000439289
0.000415967
0.000398517
0.000386947
0.000379027
0.000377895
0.000380063
0.00038616
0.000398671
0.000419046
0.000448943
0.00049368
0.000558498
0.000657778
0.000805888
0.0010424
0.00140412
0.00199448
0.00288707
0.00479308
0.00988813
0.0232933
0.0308655
0.0192797
0.000811049
0.00183351
0.00392499
0.00393336
0.00360002
0.00297841
0.00245955
0.00202112
0.00165472
0.00135794
0.0011249
0.000946323
0.000811349
0.000709955
0.0006338
0.000576681
0.000533829
0.000502311
0.000479148
0.000464002
0.000453733
0.000451584
0.000453977
0.000460994
0.000475524
0.00049989
0.000535289
0.000589008
0.000665206
0.000782521
0.000951614
0.00122192
0.00162027
0.00228167
0.00324551
0.00523126
0.0103162
0.024065
0.0315838
0.0195507
0.000843088
0.00142056
0.00321926
0.00372195
0.00361073
0.00327726
0.00284473
0.00245726
0.00210845
0.00179916
0.0015336
0.00131207
0.00113201
0.000988166
0.000875189
0.00078724
0.000719357
0.0006679
0.000629626
0.000603174
0.000585705
0.000577284
0.000579019
0.000586362
0.000602673
0.00063373
0.000678966
0.000749162
0.000846029
0.000996429
0.0012038
0.0015378
0.00200704
0.00280201
0.00393118
0.00615045
0.0113582
0.02521
0.0318744
0.0196495
0.00120535
0.00126427
0.00242369
0.00322926
0.00356386
0.0034971
0.00328767
0.00298965
0.00269059
0.00239974
0.00212427
0.00187339
0.00165195
0.00146278
0.00130264
0.00117444
0.00107304
0.000994076
0.000933526
0.000889359
0.000859845
0.000843247
0.000845013
0.000855348
0.000879191
0.000927004
0.000997203
0.00110642
0.001253
0.00147875
0.00177548
0.00225287
0.00288583
0.00396941
0.00545482
0.008199
0.0136645
0.0270612
0.0318761
0.0194942
0.00195609
0.00147892
0.00225553
0.00317217
0.00373942
0.00400276
0.00401537
0.00390351
0.00367216
0.00340028
0.0031183
0.00284118
0.00258295
0.00235097
0.00214934
0.0019768
0.00183482
0.00172264
0.00163773
0.00158176
0.00154526
0.0015461
0.00156235
0.00160319
0.00168138
0.00179728
0.00195368
0.00218135
0.00248161
0.00291374
0.00346862
0.0043147
0.00537669
0.00713029
0.00930071
0.0133252
0.0187945
0.0302624
0.031718
0.0188937
0.00322698
0.00224997
0.00313953
0.00425135
0.00511319
0.00573344
0.00601388
0.00604898
0.0059311
0.00567661
0.0053762
0.00506268
0.0047642
0.00449318
0.00426311
0.00407677
0.00393927
0.00384516
0.0038103
0.00382604
0.00387975
0.00399516
0.00417956
0.00441926
0.00474849
0.00515101
0.00568548
0.00631515
0.00712987
0.00817412
0.0095669
0.0113714
0.0136212
0.016737
0.0203605
0.0260511
0.030987
0.0360419
0.0326593
0.017751
0.00526547
0.00514247
0.0086175
0.011479
0.0131086
0.013965
0.0142445
0.0141762
0.0139499
0.0135523
0.0131322
0.0127339
0.0123999
0.0121523
0.0119893
0.0119817
0.0120444
0.0122041
0.0125149
0.0129402
0.013512
0.0141897
0.0150412
0.0160114
0.01723
0.0185607
0.020275
0.022054
0.0244601
0.0267332
0.029936
0.0327818
0.0369626
0.0403444
0.0453127
0.0481711
0.0471034
0.0419193
0.0330862
0.0154388
0.00357106
0.00546029
0.00710792
0.0087448
0.0102662
0.0116387
0.0128199
0.0137621
0.0144334
0.014852
0.0151145
0.0151877
0.015156
0.0150605
0.0148963
0.0146787
0.0144429
0.0142095
0.013972
0.0137473
0.0135411
0.0133526
0.0132
0.0130628
0.0129795
0.0129049
0.0129049
0.0129261
0.012995
0.0130857
0.0132798
0.0134681
0.013903
0.0142471
0.0150208
0.015518
0.0163644
0.0164315
0.0158761
0.0132526
)
;

boundaryField
{
    movingWall
    {
        type            epsilonWallFunction;
        value           nonuniform List<scalar> 
40
(
0.00357106
0.00546029
0.00710792
0.0087448
0.0102662
0.0116387
0.0128199
0.0137621
0.0144334
0.014852
0.0151145
0.0151877
0.015156
0.0150605
0.0148963
0.0146787
0.0144429
0.0142095
0.013972
0.0137473
0.0135411
0.0133526
0.0132
0.0130628
0.0129795
0.0129049
0.0129049
0.0129261
0.012995
0.0130857
0.0132798
0.0134681
0.013903
0.0142471
0.0150208
0.015518
0.0163644
0.0164315
0.0158761
0.0132526
)
;
    }
    fixedWalls
    {
        type            epsilonWallFunction;
        value           nonuniform List<scalar> 
120
(
3.18808e-05
0.000153376
0.000461244
0.00104914
0.00195971
0.00325048
0.00485531
0.00656601
0.00801566
0.00908085
0.00984283
0.010251
0.0102367
0.010109
0.00980452
0.00928344
0.00868817
0.00797626
0.00728249
0.00646385
0.00579481
0.00522108
0.00471047
0.00424371
0.00380507
0.00338745
0.00297824
0.00257534
0.00216358
0.00178772
0.00147963
0.00120128
0.000942862
0.000811049
0.000843088
0.00120535
0.00195609
0.00322698
0.00526547
0.00357106
5.33423e-05
9.04683e-05
7.40695e-05
5.02931e-05
5.64694e-05
0.000102827
0.000230669
0.00057543
0.00157129
0.00280981
0.00400216
0.00495876
0.00585137
0.00667435
0.00747664
0.00825404
0.00902507
0.00978872
0.0105457
0.0113006
0.0120447
0.0127848
0.013508
0.0142192
0.014905
0.0155674
0.0161947
0.0167886
0.0173406
0.0178568
0.0183381
0.0188037
0.0192797
0.0195507
0.0196495
0.0194942
0.0188937
0.017751
0.0154388
0.0132526
3.18808e-05
0.000105784
0.000203328
0.00020089
0.000182179
0.000186152
0.000240928
0.000411588
0.000620853
0.000931223
0.00139795
0.00170576
0.00185863
0.0020724
0.00240445
0.00282285
0.00320063
0.00363834
0.00405472
0.00453685
0.00502448
0.00558738
0.00619188
0.0069021
0.00771586
0.00842736
0.00915858
0.00977346
0.0103078
0.0105908
0.0107021
0.0104709
0.00964136
0.00822711
0.0062171
0.00373342
0.001841
0.000784362
0.000253755
5.33423e-05
)
;
    }
    frontAndBack
    {
        type            empty;
    }
}


// ************************************************************************* //
