/*--------------------------------*- C++ -*----------------------------------*\
  =========                 |
  \\      /  F ield         | OpenFOAM: The Open Source CFD Toolbox
   \\    /   O peration     | Website:  https://openfoam.org
    \\  /    A nd           | Version:  13
     \\/     M anipulation  |
\*---------------------------------------------------------------------------*/
FoamFile
{
    format      ascii;
    class       volScalarField;
    location    "10";
    object      k;
}
// * * * * * * * * * * * * * * * * * * * * * * * * * * * * * * * * * * * * * //

dimensions      [0 2 -2 0 0 0 0];

internalField   nonuniform List<scalar> 
400
(
8.19773e-06
2.84239e-05
0.00010792
0.000210492
0.000277217
0.000328886
0.000370999
0.000411346
0.000446876
0.000483224
0.000517352
0.000553356
0.000589592
0.000612311
0.000622455
0.000622646
0.000573607
0.000450371
0.000278586
0.000201007
3.58984e-05
0.000123655
0.000260855
0.00042117
0.000490698
0.000566023
0.000611935
0.000677597
0.000731721
0.000795804
0.000856935
0.000920892
0.000977582
0.0010401
0.00109441
0.00112156
0.00112724
0.00100819
0.000667264
0.000405896
0.000113451
0.000380324
0.000542211
0.000623043
0.000677241
0.000723463
0.000762181
0.000811585
0.000856755
0.000906241
0.000952102
0.000996943
0.00104068
0.00108926
0.00113592
0.00116899
0.00118144
0.00113241
0.00081844
0.000519405
0.000248912
0.000594505
0.000675814
0.000710058
0.000734597
0.000756114
0.000783303
0.00081567
0.000846757
0.00087556
0.00090042
0.00093175
0.000974951
0.00103146
0.00110251
0.00117028
0.00119975
0.00119974
0.000960685
0.000593139
0.00034803
0.000708195
0.000729031
0.000726204
0.000732871
0.000747157
0.000760983
0.000766822
0.000761954
0.000756298
0.000756175
0.00077946
0.000825103
0.000899423
0.00100804
0.00114465
0.00123813
0.00126142
0.00108318
0.000648308
0.000398357
0.000737757
0.000732665
0.000721038
0.000718553
0.000714671
0.000694298
0.00065837
0.000622785
0.00060138
0.000593635
0.00060414
0.00065064
0.000734924
0.00087038
0.00106118
0.001256
0.0013335
0.00121823
0.000693082
0.000405707
0.000729492
0.000725005
0.000704384
0.000685013
0.000654443
0.000607312
0.000550772
0.000501034
0.000469992
0.000457671
0.000459428
0.000500716
0.000583312
0.000727101
0.000952254
0.00125302
0.00140583
0.00134435
0.00072792
0.000399585
0.000708486
0.000705918
0.000675653
0.000645187
0.00059826
0.000535116
0.000468462
0.000413376
0.000379052
0.000364769
0.000363719
0.000396377
0.000468991
0.000603365
0.000835742
0.00118914
0.00146862
0.00148157
0.000756715
0.000384351
0.000668558
0.000674658
0.00064606
0.000610156
0.000554664
0.00048439
0.000414893
0.000359927
0.000326354
0.000312478
0.000311595
0.000336785
0.000395793
0.000514728
0.000736672
0.00111239
0.00151712
0.00160099
0.000777003
0.000355145
0.000634866
0.000645186
0.000620479
0.000583616
0.00052542
0.000454166
0.000385937
0.000333804
0.000301784
0.000288231
0.000288967
0.000309581
0.000358851
0.000460013
0.000665238
0.00104265
0.00154131
0.00172335
0.000793083
0.000324695
0.000591032
0.000612926
0.00059672
0.000562753
0.000508005
0.000440709
0.000378249
0.00032961
0.00029795
0.000282432
0.000283386
0.000300771
0.000343834
0.000433807
0.0006216
0.000990024
0.00155303
0.00182474
0.000801097
0.000297864
0.000554528
0.000588497
0.000579846
0.000550821
0.00050049
0.000441459
0.000382554
0.00033591
0.000305043
0.000289632
0.00029045
0.000303618
0.000341198
0.000425204
0.000601742
0.000953376
0.00156092
0.00190801
0.000804953
0.000269168
0.00050736
0.000560397
0.000560174
0.000542365
0.000501516
0.000447517
0.000394902
0.000352354
0.000323232
0.000308097
0.000309353
0.000321548
0.000355849
0.000432048
0.000597259
0.000936153
0.0015697
0.00194764
0.000806019
0.000242101
0.000477147
0.000545555
0.000549143
0.000538243
0.000507004
0.00046131
0.000416565
0.000378971
0.000352154
0.000337278
0.000338829
0.000350844
0.00038439
0.000458496
0.000617011
0.000932033
0.00157459
0.00195927
0.000806019
0.000211918
0.00042931
0.000521149
0.000542884
0.000539227
0.000519796
0.000481846
0.00044387
0.00041166
0.000388254
0.000374988
0.00037711
0.000389571
0.000423468
0.000497358
0.000657367
0.000948759
0.00157711
0.00192549
0.000788976
0.000180071
0.000400301
0.000509439
0.000547029
0.000548859
0.000539652
0.000515275
0.000483095
0.000454386
0.000432798
0.000419897
0.000422361
0.000435531
0.000471147
0.000547688
0.000717642
0.000989079
0.00158166
0.00183394
0.000762578
0.000145746
0.000338685
0.000478047
0.000554925
0.00057515
0.000572152
0.000558353
0.000530946
0.00050448
0.000483498
0.000472755
0.00047694
0.000493904
0.000536891
0.000624045
0.000821291
0.00107974
0.00159406
0.00167164
0.000716129
9.8032e-05
0.00028924
0.00048852
0.000596831
0.000658714
0.000661639
0.000653311
0.0006313
0.000603869
0.000581612
0.000579672
0.000589981
0.000619704
0.000689711
0.00081014
0.00107317
0.00134585
0.0016263
0.00149198
0.000656795
0.000101075
0.000306065
0.000536773
0.000668984
0.00074371
0.00077439
0.000787589
0.000801265
0.000817868
0.000845851
0.000892774
0.000970416
0.00107658
0.00123661
0.00143013
0.00171251
0.00182237
0.00171336
0.00137544
0.00057168
7.3111e-05
0.000112783
0.00020474
0.000295409
0.000361852
0.000404066
0.000427025
0.000440771
0.000447251
0.000450976
0.000452264
0.000454703
0.000457467
0.000463578
0.000468814
0.000483857
0.000504119
0.000527205
0.000521698
0.000466225
)
;

boundaryField
{
    movingWall
    {
        type            kqRWallFunction;
        value           nonuniform List<scalar> 
20
(
7.3111e-05
0.000112783
0.00020474
0.000295409
0.000361852
0.000404066
0.000427025
0.000440771
0.000447251
0.000450976
0.000452264
0.000454703
0.000457467
0.000463578
0.000468814
0.000483857
0.000504119
0.000527205
0.000521698
0.000466225
)
;
    }
    fixedWalls
    {
        type            kqRWallFunction;
        value           nonuniform List<scalar> 
60
(
8.19773e-06
3.58984e-05
0.000113451
0.000248912
0.00034803
0.000398357
0.000405707
0.000399585
0.000384351
0.000355145
0.000324695
0.000297864
0.000269168
0.000242101
0.000211918
0.000180071
0.000145746
9.8032e-05
0.000101075
7.3111e-05
0.000201007
0.000405896
0.000519405
0.000593139
0.000648308
0.000693082
0.00072792
0.000756715
0.000777003
0.000793083
0.000801097
0.000804953
0.000806019
0.000806019
0.000788976
0.000762578
0.000716129
0.000656795
0.00057168
0.000466225
8.19773e-06
2.84239e-05
0.00010792
0.000210492
0.000277217
0.000328886
0.000370999
0.000411346
0.000446876
0.000483224
0.000517352
0.000553356
0.000589592
0.000612311
0.000622455
0.000622646
0.000573607
0.000450371
0.000278586
0.000201007
)
;
    }
    frontAndBack
    {
        type            empty;
    }
}


// ************************************************************************* //
