/*--------------------------------*- C++ -*----------------------------------*\
  =========                 |
  \\      /  F ield         | OpenFOAM: The Open Source CFD Toolbox
   \\    /   O peration     | Website:  https://openfoam.org
    \\  /    A nd           | Version:  13
     \\/     M anipulation  |
\*---------------------------------------------------------------------------*/
FoamFile
{
    format      ascii;
    class       volScalarField;
    location    "10";
    object      nut;
}
// * * * * * * * * * * * * * * * * * * * * * * * * * * * * * * * * * * * * * //

dimensions      [0 2 -1 0 0 0 0];

internalField   nonuniform List<scalar> 
400
(
2.30673e-07
7.99877e-07
3.03652e-06
5.92191e-06
7.79876e-06
9.25211e-06
1.04367e-05
1.15716e-05
1.2571e-05
1.35935e-05
1.45534e-05
1.55661e-05
1.65853e-05
1.72242e-05
1.75094e-05
1.75147e-05
1.6135e-05
1.26683e-05
7.83645e-06
5.65425e-06
1.01008e-06
4.26077e-06
7.54034e-06
1.48242e-05
1.90835e-05
2.49529e-05
2.90146e-05
3.43763e-05
3.84753e-05
4.24375e-05
4.53614e-05
4.75365e-05
4.82782e-05
4.89503e-05
4.86483e-05
4.65281e-05
4.51591e-05
3.60947e-05
2.02101e-05
1.14173e-05
3.19191e-06
1.40496e-05
2.33164e-05
3.02324e-05
3.68612e-05
4.28995e-05
4.81208e-05
5.30312e-05
5.60307e-05
5.88427e-05
6.05477e-05
6.16668e-05
6.19041e-05
6.18148e-05
6.06041e-05
5.73775e-05
5.37436e-05
4.78264e-05
2.72487e-05
1.46097e-05
7.00262e-06
2.62721e-05
3.38983e-05
4.065e-05
4.68383e-05
5.19207e-05
5.6387e-05
6.05197e-05
6.35956e-05
6.62273e-05
6.73999e-05
6.81213e-05
6.85531e-05
6.85781e-05
6.78525e-05
6.47813e-05
5.82911e-05
5.46737e-05
3.58581e-05
1.66836e-05
9.79075e-06
3.31437e-05
4.04874e-05
4.66144e-05
5.3217e-05
5.89611e-05
6.39059e-05
6.72504e-05
6.8368e-05
6.8234e-05
6.82114e-05
6.86335e-05
6.93722e-05
7.02188e-05
7.11201e-05
7.11427e-05
6.42879e-05
5.86703e-05
4.25589e-05
1.82353e-05
1.12063e-05
3.62257e-05
4.38816e-05
5.20498e-05
5.90565e-05
6.44473e-05
6.70619e-05
6.6901e-05
6.63456e-05
6.61969e-05
6.62328e-05
6.66669e-05
6.72719e-05
6.85305e-05
7.05709e-05
7.28801e-05
7.01631e-05
6.20816e-05
4.90787e-05
1.94946e-05
1.1413e-05
3.68431e-05
4.7616e-05
5.61305e-05
6.20022e-05
6.5179e-05
6.59147e-05
6.49929e-05
6.45805e-05
6.48517e-05
6.52903e-05
6.59881e-05
6.62102e-05
6.68288e-05
6.89e-05
7.27017e-05
7.62516e-05
6.57156e-05
5.42421e-05
2.04744e-05
1.12407e-05
3.78573e-05
5.00291e-05
5.77892e-05
6.27975e-05
6.48021e-05
6.46093e-05
6.37252e-05
6.39769e-05
6.50348e-05
6.61443e-05
6.67381e-05
6.67949e-05
6.6953e-05
6.75628e-05
7.11914e-05
7.74525e-05
6.99919e-05
5.91098e-05
2.12843e-05
1.08122e-05
3.73622e-05
5.03621e-05
5.81755e-05
6.27139e-05
6.41781e-05
6.37024e-05
6.32503e-05
6.43951e-05
6.61331e-05
6.75285e-05
6.80354e-05
6.75896e-05
6.71872e-05
6.76189e-05
6.94704e-05
7.52031e-05
7.42226e-05
6.26538e-05
2.18549e-05
9.99064e-06
3.71133e-05
5.01854e-05
5.80549e-05
6.2442e-05
6.3614e-05
6.32698e-05
6.32919e-05
6.49113e-05
6.68935e-05
6.81624e-05
6.84871e-05
6.82097e-05
6.79861e-05
6.81862e-05
6.99269e-05
7.42887e-05
7.67042e-05
6.60655e-05
2.23071e-05
9.13406e-06
3.51979e-05
4.86772e-05
5.69602e-05
6.14145e-05
6.30974e-05
6.28095e-05
6.28104e-05
6.39717e-05
6.57794e-05
6.74176e-05
6.78832e-05
6.80023e-05
6.79928e-05
6.87288e-05
7.02607e-05
7.4185e-05
7.86508e-05
6.85577e-05
2.25325e-05
8.37928e-06
3.29725e-05
4.73384e-05
5.60908e-05
6.10072e-05
6.21953e-05
6.25134e-05
6.24935e-05
6.32884e-05
6.46134e-05
6.58344e-05
6.60443e-05
6.65213e-05
6.75992e-05
6.88182e-05
7.06483e-05
7.40842e-05
7.97987e-05
7.0352e-05
2.2641e-05
7.57205e-06
2.90542e-05
4.414e-05
5.31954e-05
5.91265e-05
6.17168e-05
6.20739e-05
6.20042e-05
6.22876e-05
6.2935e-05
6.39569e-05
6.4277e-05
6.505e-05
6.66298e-05
6.89381e-05
7.10253e-05
7.39245e-05
8.07727e-05
7.09947e-05
2.26709e-05
6.81065e-06
2.63619e-05
4.12567e-05
5.04532e-05
5.7191e-05
6.09048e-05
6.14946e-05
6.15072e-05
6.15401e-05
6.16951e-05
6.26795e-05
6.31531e-05
6.42519e-05
6.6282e-05
6.91506e-05
7.21875e-05
7.38058e-05
8.05309e-05
7.09606e-05
2.26709e-05
5.96159e-06
2.20516e-05
3.65827e-05
4.73483e-05
5.46499e-05
5.98145e-05
6.1e-05
6.12563e-05
6.13582e-05
6.13108e-05
6.22646e-05
6.27965e-05
6.39835e-05
6.6057e-05
6.89291e-05
7.27681e-05
7.28227e-05
7.87659e-05
6.86236e-05
2.21914e-05
5.06571e-06
1.93833e-05
3.29301e-05
4.35205e-05
5.08376e-05
5.68751e-05
6.0228e-05
6.11117e-05
6.15041e-05
6.14129e-05
6.20904e-05
6.24964e-05
6.34216e-05
6.5033e-05
6.72543e-05
7.17531e-05
7.05328e-05
7.5542e-05
6.57368e-05
2.14488e-05
4.10015e-06
1.47591e-05
2.82648e-05
3.98804e-05
4.74797e-05
5.30113e-05
5.7457e-05
5.8947e-05
5.95103e-05
5.95541e-05
5.98505e-05
6.01282e-05
6.07429e-05
6.17302e-05
6.30008e-05
6.81324e-05
6.67833e-05
7.03174e-05
6.02643e-05
2.01422e-05
2.75786e-06
1.21436e-05
2.65177e-05
3.712e-05
4.63848e-05
5.04406e-05
5.45308e-05
5.65112e-05
5.63047e-05
5.58357e-05
5.5419e-05
5.53448e-05
5.5527e-05
5.66316e-05
5.73748e-05
6.24451e-05
6.58176e-05
6.32265e-05
5.16438e-05
1.84732e-05
2.84329e-06
1.35508e-05
2.4759e-05
3.25049e-05
3.83049e-05
4.17833e-05
4.42154e-05
4.66709e-05
4.82043e-05
4.98191e-05
5.16233e-05
5.34843e-05
5.59797e-05
5.95818e-05
6.35192e-05
6.97045e-05
6.65481e-05
6.04971e-05
4.44091e-05
1.60792e-05
2.05665e-06
3.17258e-06
5.75927e-06
8.30966e-06
1.01785e-05
1.13659e-05
1.20115e-05
1.23981e-05
1.25803e-05
1.26849e-05
1.27211e-05
1.27895e-05
1.28671e-05
1.30387e-05
1.31859e-05
1.36088e-05
1.41786e-05
1.48279e-05
1.46731e-05
1.3113e-05
)
;

boundaryField
{
    movingWall
    {
        type            nutkWallFunction;
        Cmu             0.09;
        kappa           0.41;
        E               9.8;
        value           uniform 0;
    }
    fixedWalls
    {
        type            nutkWallFunction;
        Cmu             0.09;
        kappa           0.41;
        E               9.8;
        value           uniform 0;
    }
    frontAndBack
    {
        type            empty;
    }
}


// ************************************************************************* //
