/*--------------------------------*- C++ -*----------------------------------*\
  =========                 |
  \\      /  F ield         | OpenFOAM: The Open Source CFD Toolbox
   \\    /   O peration     | Website:  https://openfoam.org
    \\  /    A nd           | Version:  13
     \\/     M anipulation  |
\*---------------------------------------------------------------------------*/
FoamFile
{
    format      ascii;
    class       volScalarField;
    location    "10";
    object      p;
}
// * * * * * * * * * * * * * * * * * * * * * * * * * * * * * * * * * * * * * //

dimensions      [0 2 -2 0 0 0 0];

internalField   nonuniform List<scalar> 
1600
(
7.43587e-09
-2.61915e-05
-0.000116822
-0.000244158
-0.000358707
-0.000445766
-0.000524675
-0.00063341
-0.00078268
-0.000972016
-0.00121129
-0.0015684
-0.00200699
-0.00218089
-0.00244053
-0.003084
-0.00401968
-0.00507229
-0.00606721
-0.00686682
-0.0073722
-0.00751643
-0.00724304
-0.00650866
-0.00535052
-0.00378693
-0.00183013
0.000449972
0.0029256
0.00536895
0.00749256
0.00898147
0.00961553
0.00936778
0.00833507
0.00727141
0.00661046
0.00649896
0.0066088
0.0066612
-2.01448e-05
-7.32147e-05
-0.000174561
-0.000296724
-0.000379781
-0.000421181
-0.000462473
-0.000549775
-0.000689847
-0.000845906
-0.000992072
-0.00123903
-0.00169566
-0.00226273
-0.00291869
-0.00375942
-0.00475678
-0.00580551
-0.00677116
-0.00753925
-0.00802218
-0.00816298
-0.00791958
-0.00727487
-0.00620434
-0.00470781
-0.00282918
-0.000630378
0.0017583
0.00415485
0.00629661
0.00788096
0.00866657
0.00857704
0.00774719
0.0067102
0.00619372
0.00626746
0.00645503
0.00654532
-5.22178e-05
-0.000150955
-0.000283723
-0.000399502
-0.000441956
-0.000425036
-0.000413273
-0.000439852
-0.000532891
-0.000753677
-0.00113001
-0.00164352
-0.00231548
-0.003143
-0.00410433
-0.00514818
-0.00621922
-0.00724297
-0.00813848
-0.00883514
-0.00927007
-0.0093882
-0.00915689
-0.0085601
-0.00757486
-0.00620038
-0.00446829
-0.00243359
-0.00019098
0.00211643
0.00427371
0.0060305
0.00713841
0.00745429
0.00707517
0.00640819
0.00606434
0.00613203
0.00631378
0.00637413
-6.0814e-05
-0.000205809
-0.000382519
-0.000483937
-0.000480397
-0.000429114
-0.000408811
-0.000470438
-0.000672939
-0.00110455
-0.00179252
-0.00267031
-0.00366135
-0.00473586
-0.00587026
-0.00700819
-0.0080939
-0.00907505
-0.00990608
-0.0105414
-0.0109289
-0.0110197
-0.01079
-0.0102316
-0.00933196
-0.00809421
-0.00654042
-0.0047105
-0.00266749
-0.000506505
0.00162184
0.00352675
0.00499134
0.00586695
0.0061828
0.00614376
0.00613496
0.00616853
0.00625401
0.00625526
8.11355e-05
-0.000131805
-0.000332832
-0.000432193
-0.000442964
-0.000433605
-0.00050018
-0.000735697
-0.00121896
-0.00199106
-0.00301453
-0.00419042
-0.0054283
-0.00667758
-0.00790273
-0.00906957
-0.0101456
-0.0111011
-0.0118921
-0.0124701
-0.0127984
-0.0128604
-0.0126387
-0.0121256
-0.0113141
-0.0102099
-0.00882761
-0.00719298
-0.0053501
-0.0033682
-0.00134289
0.00060643
0.00235101
0.00378195
0.00485237
0.005592
0.00607106
0.00629089
0.00625118
0.0061817
0.000445664
0.000149967
-7.61552e-05
-0.000220012
-0.000318068
-0.000460315
-0.000760865
-0.00131869
-0.00217756
-0.00330526
-0.00461308
-0.0060013
-0.00739686
-0.00874832
-0.0100258
-0.0112068
-0.0122609
-0.0131572
-0.0138651
-0.0143664
-0.0146432
-0.0146847
-0.0144828
-0.0140151
-0.0132908
-0.0123154
-0.0110988
-0.00965705
-0.0080159
-0.00621447
-0.00430832
-0.00236904
-0.000470072
0.00134735
0.00303959
0.00451223
0.00560068
0.00620713
0.00618659
0.00606912
0.00100213
0.000644089
0.000356751
0.000113516
-0.000161211
-0.000577658
-0.00123962
-0.00220266
-0.00344238
-0.00487587
-0.00639968
-0.00793314
-0.00941902
-0.010816
-0.0120993
-0.013248
-0.0142437
-0.015069
-0.0157081
-0.0161507
-0.0163868
-0.0164095
-0.0162131
-0.0157895
-0.0151407
-0.0142733
-0.0131961
-0.0119211
-0.0104634
-0.0088427
-0.00708352
-0.00521387
-0.00325546
-0.00121867
0.000869453
0.00290628
0.00463101
0.00574485
0.00611229
0.00588882
0.00166929
0.00126682
0.000860409
0.000454469
-8.30956e-05
-0.000863557
-0.00194592
-0.00331253
-0.00488264
-0.00655009
-0.00822492
-0.00984602
-0.0113689
-0.0127655
-0.0140191
-0.0151173
-0.0160517
-0.0168143
-0.0173975
-0.0177949
-0.0180006
-0.0180106
-0.0178215
-0.0174319
-0.0168437
-0.0160623
-0.0150953
-0.0139522
-0.0126424
-0.0111746
-0.0095558
-0.00778723
-0.00585917
-0.00375017
-0.00145518
0.000942637
0.00319538
0.00492704
0.0058559
0.00553293
0.00226164
0.0017741
0.00124809
0.000645241
-0.000205154
-0.00137898
-0.00286104
-0.00457303
-0.00639517
-0.00822532
-0.00999421
-0.0116559
-0.0131798
-0.0145506
-0.0157607
-0.0168063
-0.0176855
-0.0183956
-0.0189337
-0.0192964
-0.0194807
-0.0194842
-0.0193054
-0.0189449
-0.0184055
-0.0176922
-0.0168118
-0.0157718
-0.0145787
-0.0132356
-0.0117392
-0.0100769
-0.00822337
-0.00613939
-0.00378761
-0.00119757
0.00143109
0.00371534
0.0051555
0.00523035
0.00259381
0.00203426
0.00137776
0.000557421
-0.000609542
-0.00214346
-0.00395524
-0.00592033
-0.00791376
-0.00984352
-0.0116584
-0.0133256
-0.0148284
-0.016162
-0.0173262
-0.0183235
-0.0191558
-0.0198238
-0.0203273
-0.020665
-0.0208354
-0.0208376
-0.0206708
-0.0203364
-0.0198373
-0.019178
-0.0183649
-0.0174044
-0.0163018
-0.0150582
-0.0136671
-0.0121103
-0.010356
-0.00835659
-0.0060518
-0.00341783
-0.000600892
0.00204165
0.00403827
0.00508637
0.00255407
0.00193746
0.0011563
0.000130373
-0.00131594
-0.00313215
-0.00518179
-0.00730692
-0.00939872
-0.0113734
-0.013196
-0.0148444
-0.0163135
-0.0176058
-0.0187267
-0.019682
-0.0204763
-0.021112
-0.0215904
-0.0219114
-0.0220743
-0.022079
-0.0219255
-0.021615
-0.0211503
-0.0205354
-0.0197759
-0.0188777
-0.0178458
-0.0166813
-0.0153781
-0.0139189
-0.0122724
-0.010391
-0.00820664
-0.00565295
-0.00280735
-1.98315e-05
0.0023713
0.0039896
0.00211316
0.00145233
0.0005648
-0.000631011
-0.00228625
-0.00429583
-0.00648269
-0.00869385
-0.010821
-0.0127975
-0.0145992
-0.0162132
-0.0176421
-0.0188932
-0.019975
-0.0208952
-0.0216594
-0.022271
-0.0227317
-0.0230422
-0.0232025
-0.0232124
-0.0230726
-0.0227842
-0.0223496
-0.0217724
-0.0210574
-0.0202101
-0.0192354
-0.0181357
-0.0169075
-0.0155373
-0.0139979
-0.0122468
-0.0102213
-0.00783708
-0.00508357
-0.0023162
0.000129572
0.0018372
0.00130002
0.000615545
-0.000346191
-0.00166691
-0.00345012
-0.0055662
-0.00780648
-0.0100407
-0.0121565
-0.0141041
-0.0158663
-0.0174368
-0.0188233
-0.0200352
-0.0210826
-0.0219737
-0.0227142
-0.0233077
-0.0237561
-0.0240605
-0.0242209
-0.0242376
-0.0241114
-0.0238434
-0.0234357
-0.0228913
-0.0222145
-0.0214104
-0.0204841
-0.0194397
-0.0182769
-0.0169877
-0.0155517
-0.0139339
-0.0120819
-0.00991475
-0.00736839
-0.00471571
-0.00244493
-0.000883571
0.000200336
-0.000484079
-0.0014851
-0.00288114
-0.0047264
-0.00686815
-0.00910389
-0.0113135
-0.013386
-0.0152851
-0.016997
-0.0185202
-0.0198646
-0.0210403
-0.0220577
-0.0229244
-0.0236459
-0.0242256
-0.0246654
-0.0249661
-0.0251284
-0.0251524
-0.0250392
-0.0247899
-0.0244063
-0.0238911
-0.023248
-0.0224819
-0.0215983
-0.0206026
-0.0194982
-0.0182828
-0.0169442
-0.0154563
-0.0137772
-0.0118429
-0.00957846
-0.00711134
-0.00511095
-0.00379032
-0.00106881
-0.00173778
-0.0027491
-0.00417071
-0.0060207
-0.00813258
-0.0103305
-0.0124834
-0.0144939
-0.0163338
-0.017991
-0.0194667
-0.020771
-0.0219139
-0.022905
-0.0237512
-0.0244572
-0.025026
-0.0254592
-0.0257579
-0.0259226
-0.0259539
-0.0258527
-0.0256201
-0.025258
-0.0247688
-0.0241558
-0.0234237
-0.0225784
-0.0216266
-0.0205747
-0.0194261
-0.0181765
-0.01681
-0.0152959
-0.0135875
-0.0116156
-0.00941233
-0.00767514
-0.00659052
-0.00239215
-0.00303136
-0.00403183
-0.00544027
-0.00725602
-0.00930806
-0.011445
-0.0135254
-0.0154665
-0.0172441
-0.0188469
-0.0202774
-0.021545
-0.0226587
-0.0236269
-0.0244555
-0.0251486
-0.0257085
-0.0261367
-0.0264341
-0.0266013
-0.0266391
-0.0265485
-0.0263307
-0.0259875
-0.0255211
-0.0249348
-0.0242331
-0.0234221
-0.0225097
-0.021505
-0.020416
-0.0192459
-0.0179881
-0.0166221
-0.0151119
-0.0134076
-0.0115334
-0.0100372
-0.00912264
-0.00366105
-0.00426358
-0.00523672
-0.00661231
-0.0083728
-0.010352
-0.0124162
-0.0144201
-0.0162924
-0.0180101
-0.0195625
-0.0209521
-0.022187
-0.0232752
-0.0242238
-0.0250376
-0.0257198
-0.0262724
-0.0266966
-0.0269931
-0.0271626
-0.0272059
-0.0271242
-0.0269189
-0.0265916
-0.0261447
-0.0255814
-0.0249062
-0.0241254
-0.0232478
-0.0222845
-0.0212477
-0.0201469
-0.0189836
-0.0177452
-0.0164031
-0.014929
-0.0133609
-0.0120883
-0.0113105
-0.0047939
-0.00535093
-0.00628702
-0.00762338
-0.00932432
-0.0112302
-0.013221
-0.0151528
-0.0169622
-0.0186262
-0.0201344
-0.0214888
-0.022696
-0.0237628
-0.0246951
-0.0254966
-0.0261701
-0.0267168
-0.0271378
-0.0274336
-0.027605
-0.0276527
-0.0275781
-0.0273826
-0.027068
-0.0266368
-0.0260924
-0.0254392
-0.0246839
-0.0238357
-0.0229075
-0.0219144
-0.0208713
-0.0197869
-0.0186555
-0.0174559
-0.0161772
-0.0148665
-0.0137899
-0.0131171
-0.00572413
-0.0062418
-0.0071344
-0.00842933
-0.010075
-0.0119178
-0.013843
-0.0157123
-0.0174681
-0.0190873
-0.0205593
-0.0218851
-0.0230702
-0.0241201
-0.0250396
-0.0258318
-0.0264985
-0.0270409
-0.0274596
-0.027755
-0.0279278
-0.0279788
-0.0279092
-0.0277207
-0.0274153
-0.0269956
-0.0264652
-0.0258288
-0.0250933
-0.0242683
-0.0233679
-0.0224094
-0.0214119
-0.0203899
-0.0193449
-0.0182641
-0.0171456
-0.0160283
-0.0151189
-0.0145353
-0.00642268
-0.00689081
-0.00774672
-0.00900644
-0.0106049
-0.012398
-0.0142706
-0.0160899
-0.0178037
-0.0193886
-0.0208334
-0.0221382
-0.0233072
-0.0243451
-0.0252558
-0.0260418
-0.0267043
-0.0272442
-0.0276616
-0.027957
-0.0281308
-0.0281838
-0.0281172
-0.0279328
-0.0276328
-0.02722
-0.0266983
-0.0260725
-0.02535
-0.024541
-0.0236601
-0.0227264
-0.0217618
-0.0207858
-0.0198069
-0.0188207
-0.0178292
-0.0168627
-0.0160847
-0.0155696
-0.00685953
-0.00728565
-0.00811727
-0.00934839
-0.010906
-0.0126638
-0.0144971
-0.0162798
-0.0179646
-0.0195263
-0.0209533
-0.0222449
-0.0234045
-0.0244358
-0.0253422
-0.0261255
-0.0267867
-0.0273261
-0.0277438
-0.0280397
-0.0282143
-0.0282682
-0.0282026
-0.0280192
-0.0277205
-0.0273096
-0.0267905
-0.0261688
-0.0254518
-0.0246503
-0.0237795
-0.0228598
-0.0219153
-0.0209694
-0.0200367
-0.0191208
-0.0182265
-0.0173723
-0.0166956
-0.016233
-0.00701503
-0.00742366
-0.00824745
-0.00946003
-0.0109831
-0.0127138
-0.0145187
-0.0162793
-0.0179474
-0.0194969
-0.0209158
-0.0222025
-0.0233595
-0.0243902
-0.0252971
-0.0260819
-0.026745
-0.0272865
-0.0277061
-0.0280036
-0.028179
-0.0282329
-0.0281663
-0.0279809
-0.0276793
-0.0272648
-0.026742
-0.0261167
-0.0253968
-0.0245937
-0.023723
-0.0228051
-0.0218677
-0.0209364
-0.0200309
-0.0191624
-0.018341
-0.0175718
-0.0169683
-0.0165385
-0.00692454
-0.00732221
-0.00814491
-0.00934899
-0.0108467
-0.0125529
-0.0143425
-0.0160912
-0.0177521
-0.0192987
-0.0207182
-0.022008
-0.0231696
-0.0242059
-0.025119
-0.0259098
-0.0265787
-0.0271254
-0.0275491
-0.0278495
-0.0280261
-0.0280792
-0.0280099
-0.0278196
-0.0275109
-0.0270873
-0.0265537
-0.0259164
-0.0251843
-0.0243692
-0.0234874
-0.0225607
-0.0216168
-0.0206842
-0.0197871
-0.0189444
-0.0181739
-0.0174645
-0.0169249
-0.0164994
-0.00663283
-0.00701762
-0.00783855
-0.00903947
-0.0105168
-0.0121926
-0.0139727
-0.0157172
-0.0173783
-0.0189297
-0.0203578
-0.0216584
-0.022832
-0.0238807
-0.0248058
-0.0256081
-0.0262873
-0.0268427
-0.0272734
-0.0275783
-0.0277569
-0.027809
-0.0277353
-0.0275372
-0.0272173
-0.0267791
-0.0262277
-0.0255701
-0.0248157
-0.0239773
-0.0230723
-0.022124
-0.0211602
-0.0202113
-0.0193055
-0.0184697
-0.0177309
-0.0170492
-0.0165694
-0.016132
-0.00618937
-0.0065591
-0.00737058
-0.00856077
-0.0100194
-0.0116597
-0.0134164
-0.0151594
-0.0168259
-0.0183882
-0.0198315
-0.0211503
-0.0223434
-0.0234116
-0.0243556
-0.0251754
-0.0258702
-0.0264388
-0.0268797
-0.0271915
-0.0273732
-0.0274243
-0.027345
-0.0271365
-0.0268013
-0.0263429
-0.0257667
-0.0250801
-0.0242932
-0.0234199
-0.0224791
-0.0214952
-0.0204977
-0.019518
-0.0185883
-0.0177452
-0.0170212
-0.0163404
-0.0159069
-0.0154489
-0.00565989
-0.00600828
-0.00679297
-0.00795137
-0.00937587
-0.0109773
-0.0126932
-0.0144259
-0.0160964
-0.0176721
-0.019136
-0.0204797
-0.0217
-0.0227957
-0.0237662
-0.0246104
-0.0253269
-0.0259139
-0.0263692
-0.0266909
-0.0268775
-0.026928
-0.0268422
-0.0266211
-0.0262666
-0.0257825
-0.0251743
-0.0244498
-0.02362
-0.0227001
-0.0217105
-0.0206772
-0.0196314
-0.0186061
-0.017638
-0.0167735
-0.016049
-0.0153449
-0.0149744
-0.0144807
-0.00512588
-0.00543689
-0.00616222
-0.0072548
-0.0086148
-0.0101588
-0.0118208
-0.0135257
-0.0151921
-0.01678
-0.0182676
-0.0196425
-0.0208978
-0.0220295
-0.0230349
-0.0239116
-0.0246571
-0.0252685
-0.0257433
-0.0260787
-0.0262727
-0.0263237
-0.026231
-0.0259952
-0.0256182
-0.0251033
-0.0244561
-0.0236849
-0.0228018
-0.0218232
-0.0207716
-0.0196749
-0.018566
-0.0174799
-0.0164585
-0.0155563
-0.0148102
-0.0140809
-0.0137884
-0.0132426
-0.00467168
-0.00491183
-0.00552864
-0.00651212
-0.00777076
-0.0092243
-0.0108117
-0.0124673
-0.0141157
-0.0157105
-0.0172229
-0.0186342
-0.0199323
-0.0211091
-0.0221591
-0.0230775
-0.0238603
-0.0245036
-0.0250039
-0.0253577
-0.0255623
-0.0256156
-0.0255163
-0.0252647
-0.0248621
-0.0243118
-0.0236193
-0.0227934
-0.0218469
-0.0207981
-0.0196714
-0.018497
-0.0173104
-0.0161485
-0.015058
-0.0141006
-0.0133148
-0.0125441
-0.012371
-0.011728
-0.00435838
-0.00447369
-0.00492705
-0.0057586
-0.00687754
-0.00820082
-0.00967927
-0.0112585
-0.0128705
-0.014463
-0.0159989
-0.0174509
-0.0187996
-0.0200314
-0.0211364
-0.022107
-0.0229368
-0.0236206
-0.0241536
-0.0245316
-0.0247512
-0.0248096
-0.0247049
-0.0244369
-0.0240067
-0.0234173
-0.0226741
-0.0217863
-0.0207677
-0.0196379
-0.0184239
-0.0171583
-0.0158793
-0.0146264
-0.013451
-0.0124201
-0.0115741
-0.0107417
-0.0107106
-0.00988989
-0.00417268
-0.00410362
-0.00437542
-0.00502545
-0.00596293
-0.0071119
-0.00844032
-0.00991041
-0.0114625
-0.0130398
-0.0145951
-0.0160907
-0.0174977
-0.0187947
-0.0199662
-0.0210004
-0.0218883
-0.0226224
-0.0231966
-0.0236058
-0.0238457
-0.0239131
-0.0238055
-0.0235217
-0.0230632
-0.0224324
-0.0216347
-0.0206796
-0.0195817
-0.0183622
-0.0170503
-0.015681
-0.0142955
-0.0129365
-0.0116605
-0.0105374
-0.00961198
-0.00871023
-0.008771
-0.00764665
-0.0039534
-0.00374877
-0.00388789
-0.00433671
-0.0050469
-0.00597528
-0.00711217
-0.00843833
-0.00990394
-0.0114494
-0.0130172
-0.0145573
-0.0160291
-0.0174014
-0.0186512
-0.0197614
-0.0207192
-0.0215145
-0.0221396
-0.0225881
-0.0228551
-0.0229366
-0.0228301
-0.022533
-0.022047
-0.0213745
-0.0205209
-0.0194957
-0.0183143
-0.0169992
-0.0155813
-0.0140979
-0.0125931
-0.0111128
-0.00971962
-0.00848456
-0.00746125
-0.00647705
-0.00652641
-0.00493732
-0.00363112
-0.00344083
-0.00348186
-0.00370389
-0.00414325
-0.00480648
-0.00571207
-0.00686064
-0.00821352
-0.00970933
-0.0112806
-0.0128639
-0.0144051
-0.0158616
-0.0172011
-0.0183995
-0.0194393
-0.0203073
-0.0209937
-0.0214908
-0.0217926
-0.0218947
-0.0217938
-0.0214891
-0.0209794
-0.0202679
-0.0193603
-0.0182661
-0.0170012
-0.0155887
-0.0140605
-0.0124553
-0.0108199
-0.00920338
-0.00767515
-0.00630563
-0.00515679
-0.00404724
-0.00398049
-0.00178805
-0.00335796
-0.00323258
-0.00316423
-0.00313474
-0.00326466
-0.00362109
-0.00425954
-0.00520221
-0.00642057
-0.00785102
-0.00941621
-0.0110392
-0.012652
-0.014199
-0.0156372
-0.0169345
-0.0180677
-0.0190196
-0.0197778
-0.020333
-0.0206788
-0.0208101
-0.0207236
-0.0204174
-0.0198899
-0.019146
-0.0181911
-0.0170343
-0.0156913
-0.014185
-0.0125473
-0.0108163
-0.00904093
-0.00727239
-0.00558689
-0.00405112
-0.00273242
-0.00142802
-0.00111964
0.00169008
-0.00315945
-0.00310039
-0.0029156
-0.00262867
-0.00241973
-0.00243388
-0.00277667
-0.00349495
-0.00456674
-0.00592286
-0.0074751
-0.0091337
-0.0108171
-0.012457
-0.0139992
-0.0154029
-0.016638
-0.017683
-0.0185224
-0.0191452
-0.019544
-0.0197136
-0.0196507
-0.0193544
-0.0188198
-0.0180548
-0.0170646
-0.0158576
-0.0144487
-0.0128588
-0.0111179
-0.00926101
-0.0073371
-0.00539587
-0.00351824
-0.00176069
-0.000196813
0.00140416
0.00207875
0.00547952
-0.00295655
-0.0029812
-0.00268557
-0.00215293
-0.00159519
-0.00125465
-0.00129433
-0.00178492
-0.0027095
-0.00399174
-0.00553022
-0.00722195
-0.00897322
-0.0107042
-0.0123506
-0.0138627
-0.0152037
-0.0163471
-0.0172742
-0.0179722
-0.0184324
-0.0186493
-0.0186192
-0.018341
-0.0178194
-0.0170507
-0.0160427
-0.0148042
-0.0133482
-0.011691
-0.00985835
-0.00787769
-0.00579395
-0.00364703
-0.00151577
0.00056584
0.00251628
0.00459088
0.00582375
0.0099801
-0.00269077
-0.00277984
-0.00241127
-0.00165204
-0.00076485
-9.48958e-05
0.000144942
-0.000137837
-0.000929543
-0.0021466
-0.00367591
-0.00540162
-0.00721804
-0.00903544
-0.0107807
-0.0123969
-0.0138412
-0.0150825
-0.0160989
-0.016876
-0.0174038
-0.0176766
-0.0176913
-0.0174475
-0.0169474
-0.0161913
-0.0151853
-0.0139366
-0.0124554
-0.0107504
-0.00884002
-0.00673742
-0.00447618
-0.00207102
0.000416885
0.0030026
0.0056083
0.00852552
0.0108404
0.0165805
-0.00236607
-0.00246573
-0.00202015
-0.00107867
8.26245e-05
0.00100981
0.00146866
0.00135069
0.000664747
-0.000500404
-0.00202304
-0.00377836
-0.00565183
-0.00754532
-0.0093784
-0.0110885
-0.012628
-0.0139614
-0.0150643
-0.01592
-0.0165182
-0.0168521
-0.0169188
-0.0167177
-0.0162506
-0.0155193
-0.0145289
-0.013285
-0.0117952
-0.0100599
-0.00808597
-0.00586377
-0.0034053
-0.000673502
0.00231237
0.00567903
0.00938676
0.0139171
0.0186822
0.0280982
-0.00213203
-0.0021852
-0.00158695
-0.000450378
0.00088595
0.00201126
0.00260451
0.00259118
0.00197558
0.000844404
-0.000679246
-0.0024666
-0.00439449
-0.00635659
-0.00826583
-0.0100551
-0.0116747
-0.0130857
-0.0142617
-0.0151853
-0.0158452
-0.0162343
-0.0163494
-0.01619
-0.0157581
-0.015055
-0.0140834
-0.0128439
-0.0113479
-0.00959158
-0.00756693
-0.00523468
-0.00257801
0.000528442
0.00413747
0.00860614
0.0140234
0.0215289
0.031285
0.047625
-0.00309663
-0.00255047
-0.00145784
1.62342e-05
0.00156642
0.00280583
0.00348032
0.00351919
0.00293955
0.0018314
0.000315486
-0.0014834
-0.0034428
-0.00545275
-0.00742095
-0.00927523
-0.010961
-0.012437
-0.0136743
-0.0146548
-0.0153654
-0.0158
-0.0159549
-0.0158298
-0.0154257
-0.0147453
-0.0137912
-0.0125649
-0.011067
-0.00928704
-0.00722926
-0.00482096
-0.00201998
0.00139196
0.00560685
0.011343
0.0192146
0.0314206
0.0492793
0.0754948
-0.00521434
-0.00165896
-3.7193e-06
0.00143605
0.00285513
0.00398875
0.0045847
0.00454862
0.00390755
0.00275682
0.00121155
-0.000612568
-0.00260331
-0.00465497
-0.00667531
-0.00858793
-0.0103322
-0.0118652
-0.0131572
-0.0141867
-0.0149412
-0.0154127
-0.0155993
-0.0154998
-0.0151164
-0.0144498
-0.0135022
-0.0122729
-0.0107651
-0.00896852
-0.00691937
-0.00449461
-0.00171611
0.00185873
0.00641376
0.0132724
0.0243429
0.0422546
0.0697922
0.104473
)
;

boundaryField
{
    movingWall
    {
        type            zeroGradient;
    }
    fixedWalls
    {
        type            zeroGradient;
    }
    frontAndBack
    {
        type            empty;
    }
}


// ************************************************************************* //
