/*--------------------------------*- C++ -*----------------------------------*\
  =========                 |
  \\      /  F ield         | OpenFOAM: The Open Source CFD Toolbox
   \\    /   O peration     | Website:  https://openfoam.org
    \\  /    A nd           | Version:  13
     \\/     M anipulation  |
\*---------------------------------------------------------------------------*/
FoamFile
{
    format      ascii;
    class       volScalarField;
    location    "10";
    object      p;
}
// * * * * * * * * * * * * * * * * * * * * * * * * * * * * * * * * * * * * * //

dimensions      [0 2 -2 0 0 0 0];

internalField   nonuniform List<scalar> 
400
(
2.65159e-08
-9.3936e-05
-0.000161237
-0.000440833
-0.00137471
-0.00292033
-0.00470481
-0.00639789
-0.00775545
-0.00864926
-0.00896755
-0.00862078
-0.00760217
-0.00589705
-0.00351179
-0.000590766
0.00255151
0.00531243
0.00701843
0.0073708
9.3257e-05
-1.92961e-05
-0.000266352
-0.000939055
-0.00214482
-0.00377547
-0.00553283
-0.00715898
-0.00847526
-0.00935546
-0.00970082
-0.00946439
-0.00859547
-0.00705216
-0.00486177
-0.00210827
0.00095109
0.00382958
0.00586851
0.00666796
0.000265234
-0.000101668
-0.000783756
-0.00191709
-0.00346393
-0.00521819
-0.00696038
-0.0085249
-0.00978656
-0.0106098
-0.0109307
-0.0107185
-0.0099541
-0.00862618
-0.00673671
-0.00433484
-0.00157165
0.00124372
0.00358761
0.00475382
-1.86589e-05
-0.000632963
-0.00176101
-0.00333151
-0.00514816
-0.00699674
-0.00870957
-0.0101674
-0.0112742
-0.0119783
-0.0122509
-0.0120715
-0.0114207
-0.0102952
-0.0087002
-0.00666923
-0.00428757
-0.00173404
0.000615745
0.00185751
-0.000922067
-0.00174432
-0.00317802
-0.00498672
-0.00690853
-0.0087435
-0.0103599
-0.011679
-0.0126529
-0.0132613
-0.0134914
-0.0133344
-0.0127844
-0.0118437
-0.0105203
-0.00883911
-0.00685175
-0.00465697
-0.00251275
-0.00133521
-0.0023964
-0.00330183
-0.00483093
-0.00667409
-0.00856119
-0.0103022
-0.0117909
-0.0129769
-0.0138387
-0.0143686
-0.0145636
-0.0144247
-0.0139562
-0.0131672
-0.0120707
-0.0106886
-0.00905763
-0.00723989
-0.00548471
-0.0043682
-0.00408853
-0.00499272
-0.00646436
-0.00822277
-0.00999727
-0.0116076
-0.0129644
-0.014032
-0.014801
-0.0152703
-0.0154422
-0.0153219
-0.0149184
-0.0142463
-0.0133249
-0.0121776
-0.0108391
-0.00935779
-0.00797881
-0.00698057
-0.0056552
-0.00650912
-0.00786511
-0.00950085
-0.0111417
-0.0126216
-0.0138617
-0.0148339
-0.0155328
-0.0159599
-0.0161191
-0.0160168
-0.0156631
-0.0150759
-0.0142808
-0.0133066
-0.0121923
-0.0109805
-0.0099146
-0.00902563
-0.00686791
-0.00766708
-0.00890075
-0.0104223
-0.0119456
-0.0133204
-0.014474
-0.0153795
-0.0160321
-0.0164333
-0.0165868
-0.0164984
-0.0161783
-0.015646
-0.0149324
-0.0140742
-0.0131237
-0.0120994
-0.0112576
-0.0104689
-0.00764098
-0.00835438
-0.00949731
-0.010941
-0.0123816
-0.0136909
-0.0147953
-0.0156658
-0.0162954
-0.0166846
-0.0168363
-0.0167554
-0.0164521
-0.0159464
-0.0152739
-0.014477
-0.0136394
-0.0127091
-0.0120533
-0.0112879
-0.00793016
-0.00855954
-0.00964778
-0.0110415
-0.0124416
-0.0137277
-0.0148215
-0.0156883
-0.0163173
-0.0167071
-0.0168597
-0.0167792
-0.0164757
-0.0159696
-0.0153008
-0.0145106
-0.0137475
-0.0128
-0.0123377
-0.0114778
-0.00772601
-0.00830831
-0.00936035
-0.0107318
-0.0121309
-0.0134309
-0.014549
-0.015442
-0.0160927
-0.0164964
-0.0166532
-0.0165661
-0.0162457
-0.0157133
-0.0150129
-0.0142044
-0.0134117
-0.0124185
-0.0121533
-0.0110244
-0.00710692
-0.00767011
-0.00869694
-0.0100441
-0.0114666
-0.0128086
-0.0139804
-0.0149271
-0.0156217
-0.0160534
-0.0162192
-0.0161203
-0.015768
-0.0151853
-0.0144229
-0.0135465
-0.0126717
-0.0116404
-0.0114495
-0.0099619
-0.00620854
-0.00673816
-0.00772303
-0.00902845
-0.0104693
-0.01187
-0.0131206
-0.0141477
-0.0149096
-0.0153859
-0.0155688
-0.0154566
-0.015061
-0.0144071
-0.0135532
-0.0125656
-0.0115767
-0.0104725
-0.0102246
-0.00837726
-0.00520886
-0.00566037
-0.0065373
-0.007758
-0.00918992
-0.0106516
-0.0119987
-0.0131293
-0.0139811
-0.0145203
-0.0147325
-0.0146115
-0.0141674
-0.0134271
-0.0124574
-0.0113208
-0.0101766
-0.0089198
-0.00851872
-0.00630064
-0.00431225
-0.00457451
-0.0052226
-0.00628737
-0.00767902
-0.00919804
-0.0106551
-0.0119104
-0.0128758
-0.0134999
-0.0137601
-0.0136466
-0.0131644
-0.0123362
-0.0112348
-0.00991127
-0.00854486
-0.00701421
-0.00631771
-0.00352101
-0.0037066
-0.00362187
-0.00390849
-0.00474407
-0.006064
-0.0076295
-0.00920053
-0.0105942
-0.0116935
-0.0124251
-0.0127557
-0.0126684
-0.0121778
-0.0112761
-0.010035
-0.00847728
-0.00677454
-0.00476836
-0.0033998
0.000791513
-0.00341079
-0.00280069
-0.00264862
-0.00323176
-0.0044672
-0.00606374
-0.00773906
-0.00927772
-0.0105296
-0.0113943
-0.0118239
-0.0117913
-0.0113116
-0.010374
-0.00900778
-0.00716963
-0.00497356
-0.0021155
0.000816173
0.00841089
-0.00335233
-0.00213696
-0.00166575
-0.00205527
-0.00321094
-0.00482725
-0.00659253
-0.00826138
-0.00965443
-0.0106557
-0.0112021
-0.011262
-0.0108194
-0.0098507
-0.00834667
-0.00619811
-0.00332495
0.00113919
0.00742869
0.020491
-0.00383405
-0.00072361
-0.000134872
-0.000699442
-0.00190028
-0.0035726
-0.00545497
-0.00726198
-0.0087907
-0.00991047
-0.0105514
-0.0106738
-0.0102534
-0.00926434
-0.00766214
-0.00528537
-0.00126457
0.0057872
0.017789
0.0356238
)
;

boundaryField
{
    movingWall
    {
        type            zeroGradient;
    }
    fixedWalls
    {
        type            zeroGradient;
    }
    frontAndBack
    {
        type            empty;
    }
}


// ************************************************************************* //
