/*--------------------------------*- C++ -*----------------------------------*\
  =========                 |
  \\      /  F ield         | OpenFOAM: The Open Source CFD Toolbox
   \\    /   O peration     | Website:  https://openfoam.org
    \\  /    A nd           | Version:  13
     \\/     M anipulation  |
\*---------------------------------------------------------------------------*/
FoamFile
{
    format      ascii;
    class       surfaceScalarField;
    location    "10";
    object      phi;
}
// * * * * * * * * * * * * * * * * * * * * * * * * * * * * * * * * * * * * * //

dimensions      [0 3 -1 0 0 0 0];

internalField   nonuniform List<scalar> 
3120
(
9.82775e-08
-9.82782e-08
2.41631e-07
-1.43353e-07
3.46872e-07
-1.05242e-07
3.80866e-07
-3.39934e-08
3.67795e-07
1.30705e-08
3.45305e-07
2.24899e-08
3.36604e-07
8.70132e-09
3.3226e-07
4.3439e-09
3.08356e-07
2.39041e-08
2.46033e-07
6.23227e-08
1.24165e-07
1.21869e-07
-1.0187e-07
2.26034e-07
-4.55681e-07
3.53811e-07
-9.75276e-07
5.19595e-07
-1.58493e-06
6.09657e-07
-2.17402e-06
5.89086e-07
-2.70462e-06
5.30603e-07
-3.15738e-06
4.52757e-07
-3.53171e-06
3.74326e-07
-3.82805e-06
2.96342e-07
-4.04896e-06
2.20913e-07
-4.19546e-06
1.46503e-07
-4.26974e-06
7.42787e-08
-4.26703e-06
-2.70685e-09
-4.18834e-06
-7.86994e-08
-4.03416e-06
-1.54172e-07
-3.79026e-06
-2.43905e-07
-3.45856e-06
-3.31701e-07
-3.0312e-06
-4.27356e-07
-2.50991e-06
-5.21291e-07
-1.89646e-06
-6.13456e-07
-1.21703e-06
-6.79426e-07
-5.23647e-07
-6.93382e-07
1.07189e-07
-6.30836e-07
6.01636e-07
-4.94447e-07
8.02812e-07
-2.01176e-07
6.87094e-07
1.15717e-07
4.45954e-07
2.4114e-07
1.88264e-07
2.5769e-07
1.88264e-07
1.76827e-07
-2.75105e-07
3.68151e-07
-3.34678e-07
4.84675e-07
-2.21766e-07
5.15531e-07
-6.48501e-08
4.786e-07
5.00016e-08
3.99533e-07
1.01557e-07
2.88682e-07
1.19552e-07
1.20098e-07
1.72928e-07
-1.49748e-07
2.9375e-07
-5.67138e-07
4.79713e-07
-1.15954e-06
7.14275e-07
-1.88532e-06
9.51806e-07
-2.64246e-06
1.11095e-06
-3.28612e-06
1.16325e-06
-3.78937e-06
1.11291e-06
-4.22359e-06
1.02331e-06
-4.59051e-06
8.97527e-07
-4.89592e-06
7.58159e-07
-5.13669e-06
6.15096e-07
-5.31561e-06
4.75265e-07
-5.43232e-06
3.37629e-07
-5.49177e-06
2.05952e-07
-5.48987e-06
7.23773e-08
-5.43113e-06
-6.14452e-08
-5.31057e-06
-1.99262e-07
-5.12102e-06
-3.4372e-07
-4.86382e-06
-5.01112e-07
-4.52561e-06
-6.69911e-07
-4.09942e-06
-8.53544e-07
-3.58312e-06
-1.03759e-06
-2.98217e-06
-1.21441e-06
-2.30379e-06
-1.3578e-06
-1.57743e-06
-1.41975e-06
-8.44629e-07
-1.36364e-06
-2.17943e-07
-1.12113e-06
2.43876e-07
-6.62995e-07
3.95983e-07
-3.63903e-08
3.27446e-07
3.09677e-07
1.53619e-07
4.31517e-07
3.41884e-07
2.12614e-07
-4.87719e-07
3.59791e-07
-4.81855e-07
4.08807e-07
-2.70781e-07
3.77156e-07
-3.31986e-08
2.76097e-07
1.5106e-07
9.84281e-08
2.79226e-07
-1.95668e-07
4.13648e-07
-6.42303e-07
6.19563e-07
-1.25441e-06
9.05854e-07
-1.98808e-06
1.21339e-06
-2.7359e-06
1.46209e-06
-3.38636e-06
1.60226e-06
-3.91944e-06
1.64403e-06
-4.34645e-06
1.59027e-06
-4.69852e-06
1.46497e-06
-4.98264e-06
1.30743e-06
-5.21445e-06
1.12933e-06
-5.40097e-06
9.44685e-07
-5.54544e-06
7.5956e-07
-5.64935e-06
5.79176e-07
-5.71563e-06
4.03908e-07
-5.74043e-06
2.30756e-07
-5.72143e-06
5.33773e-08
-5.66235e-06
-1.20522e-07
-5.5606e-06
-3.01011e-07
-5.41181e-06
-4.92515e-07
-5.21396e-06
-6.98965e-07
-4.9614e-06
-9.22466e-07
-4.64851e-06
-1.16644e-06
-4.26022e-06
-1.42588e-06
-3.78712e-06
-1.68751e-06
-3.22029e-06
-1.92463e-06
-2.56676e-06
-2.07328e-06
-1.85519e-06
-2.0752e-06
-1.13115e-06
-1.84517e-06
-4.83261e-07
-1.31088e-06
-7.40196e-08
-4.45632e-07
3.51435e-08
2.00514e-07
2.41178e-08
4.42542e-07
3.66002e-07
1.74661e-07
-6.62379e-07
2.31042e-07
-5.38237e-07
1.82473e-07
-2.22213e-07
5.23666e-08
9.69078e-08
-1.68615e-07
3.72042e-07
-5.1818e-07
6.2879e-07
-1.02483e-06
9.20299e-07
-1.673e-06
1.26773e-06
-2.39192e-06
1.62477e-06
-3.08406e-06
1.90553e-06
-3.66993e-06
2.04796e-06
-4.13361e-06
2.06594e-06
-4.4897e-06
2.00013e-06
-4.76586e-06
1.86643e-06
-4.99043e-06
1.68954e-06
-5.17001e-06
1.48701e-06
-5.31612e-06
1.27544e-06
-5.43577e-06
1.06434e-06
-5.53183e-06
8.55626e-07
-5.59943e-06
6.46769e-07
-5.63887e-06
4.43352e-07
-5.64735e-06
2.3923e-07
-5.62505e-06
3.10822e-08
-5.57491e-06
-1.70664e-07
-5.49408e-06
-3.81835e-07
-5.38005e-06
-6.06546e-07
-5.23113e-06
-8.47887e-07
-5.04405e-06
-1.10955e-06
-4.81773e-06
-1.39275e-06
-4.54737e-06
-1.69624e-06
-4.22623e-06
-2.00864e-06
-3.83687e-06
-2.314e-06
-3.3361e-06
-2.57404e-06
-2.71111e-06
-2.70019e-06
-1.97432e-06
-2.58197e-06
-1.1816e-06
-2.1036e-06
-4.58194e-07
-1.16904e-06
-1.37727e-07
-1.19953e-07
-3.11233e-08
3.35939e-07
3.34878e-07
7.92518e-08
-7.41631e-07
1.62753e-08
-4.7526e-07
-1.41958e-07
-6.39793e-08
-3.88178e-07
3.43128e-07
-7.47355e-07
7.3122e-07
-1.24197e-06
1.12341e-06
-1.86051e-06
1.53884e-06
-2.53769e-06
1.9449e-06
-3.17693e-06
2.26402e-06
-3.70194e-06
2.43054e-06
-4.10537e-06
2.45139e-06
-4.41676e-06
2.37734e-06
-4.65237e-06
2.23574e-06
-4.83406e-06
2.04812e-06
-4.97923e-06
1.83471e-06
-5.09832e-06
1.6061e-06
-5.1937e-06
1.37082e-06
-5.2622e-06
1.13284e-06
-5.30467e-06
8.98093e-07
-5.32625e-06
6.68349e-07
-5.32865e-06
4.4575e-07
-5.31481e-06
2.25398e-07
-5.28476e-06
1.02797e-09
-5.23743e-06
-2.17991e-07
-5.17059e-06
-4.48677e-07
-5.08495e-06
-6.92191e-07
-4.98011e-06
-9.52721e-07
-4.85483e-06
-1.23483e-06
-4.70605e-06
-1.54153e-06
-4.52901e-06
-1.87329e-06
-4.31422e-06
-2.22344e-06
-4.05378e-06
-2.57443e-06
-3.72808e-06
-2.89974e-06
-3.28834e-06
-3.13993e-06
-2.67506e-06
-3.19525e-06
-1.87732e-06
-2.90134e-06
-9.26326e-07
-2.12003e-06
-2.22618e-07
-8.23661e-07
-1.66599e-08
1.29982e-07
3.18218e-07
-5.79777e-08
-6.83653e-07
-2.37089e-07
-2.96149e-07
-5.00647e-07
1.99579e-07
-8.57606e-07
7.00087e-07
-1.32509e-06
1.1987e-06
-1.89523e-06
1.69355e-06
-2.51708e-06
2.16069e-06
-3.10849e-06
2.53631e-06
-3.59524e-06
2.75077e-06
-3.95902e-06
2.79431e-06
-4.23259e-06
2.72496e-06
-4.43797e-06
2.58272e-06
-4.59009e-06
2.38786e-06
-4.70359e-06
2.16162e-06
-4.78498e-06
1.9161e-06
-4.8404e-06
1.66151e-06
-4.87479e-06
1.40521e-06
-4.89422e-06
1.15226e-06
-4.90247e-06
9.06348e-07
-4.90058e-06
6.66457e-07
-4.88664e-06
4.31809e-07
-4.86076e-06
1.99518e-07
-4.82669e-06
-3.30499e-08
-4.77766e-06
-2.67021e-07
-4.71779e-06
-5.0854e-07
-4.64808e-06
-7.61899e-07
-4.5694e-06
-1.03141e-06
-4.48262e-06
-1.3216e-06
-4.38763e-06
-1.63653e-06
-4.28241e-06
-1.9785e-06
-4.16019e-06
-2.34566e-06
-4.00641e-06
-2.72821e-06
-3.80386e-06
-3.10229e-06
-3.52225e-06
-3.42153e-06
-3.10199e-06
-3.61552e-06
-2.45197e-06
-3.55135e-06
-1.5255e-06
-3.0465e-06
-4.91021e-07
-1.85815e-06
-3.11734e-08
-3.29866e-07
2.87045e-07
-1.87406e-07
-4.96248e-07
-4.84179e-07
6.24777e-10
-8.39357e-07
5.54756e-07
-1.28206e-06
1.14279e-06
-1.80683e-06
1.72347e-06
-2.37661e-06
2.26332e-06
-2.92728e-06
2.71136e-06
-3.38892e-06
2.99795e-06
-3.72893e-06
3.09079e-06
-3.97429e-06
3.03967e-06
-4.15312e-06
2.90378e-06
-4.27806e-06
2.70766e-06
-4.3632e-06
2.47301e-06
-4.41807e-06
2.21649e-06
-4.45042e-06
1.94845e-06
-4.46726e-06
1.67835e-06
-4.47346e-06
1.41141e-06
-4.47198e-06
1.15079e-06
-4.46306e-06
8.97425e-07
-4.44676e-06
6.50162e-07
-4.42261e-06
4.07661e-07
-4.39059e-06
1.67499e-07
-4.35127e-06
-7.23702e-08
-4.30331e-06
-3.1498e-07
-4.24785e-06
-5.64002e-07
-4.18655e-06
-8.23199e-07
-4.12121e-06
-1.09675e-06
-4.05386e-06
-1.38895e-06
-3.98624e-06
-1.70415e-06
-3.91884e-06
-2.0459e-06
-3.84899e-06
-2.41551e-06
-3.76827e-06
-2.80893e-06
-3.65906e-06
-3.21151e-06
-3.4894e-06
-3.59119e-06
-3.21602e-06
-3.8889e-06
-2.76219e-06
-4.00518e-06
-2.03596e-06
-3.77273e-06
-9.50706e-07
-2.9434e-06
-1.15358e-07
-1.16521e-06
1.71687e-07
-3.02946e-07
-1.93302e-07
-6.7834e-07
3.76019e-07
-1.11325e-06
9.89669e-07
-1.60462e-06
1.63416e-06
-2.13306e-06
2.25192e-06
-2.65284e-06
2.7831e-06
-3.10296e-06
3.16148e-06
-3.43772e-06
3.33271e-06
-3.66879e-06
3.32185e-06
-3.83112e-06
3.20201e-06
-3.94025e-06
3.01291e-06
-4.00842e-06
2.77583e-06
-4.04764e-06
2.51223e-06
-4.0662e-06
2.23506e-06
-4.07164e-06
1.95388e-06
-4.06893e-06
1.67564e-06
-4.06089e-06
1.40337e-06
-4.04855e-06
1.13845e-06
-4.03164e-06
8.80515e-07
-4.00978e-06
6.28301e-07
-3.98235e-06
3.8023e-07
-3.94894e-06
1.34094e-07
-3.90918e-06
-1.12131e-07
-3.86299e-06
-3.61173e-07
-3.81104e-06
-6.15951e-07
-3.75476e-06
-8.79474e-07
-3.6963e-06
-1.15522e-06
-3.63829e-06
-1.44697e-06
-3.58349e-06
-1.75895e-06
-3.5339e-06
-2.09549e-06
-3.48933e-06
-2.46008e-06
-3.44511e-06
-2.85315e-06
-3.38852e-06
-3.26809e-06
-3.29431e-06
-3.68541e-06
-3.12086e-06
-4.06235e-06
-2.80983e-06
-4.31621e-06
-2.28039e-06
-4.30217e-06
-1.43175e-06
-3.79204e-06
-3.34476e-07
-2.26249e-06
-1.62789e-07
-3.78908e-07
1.85606e-07
-8.23547e-07
8.20658e-07
-1.29764e-06
1.46376e-06
-1.797e-06
2.13352e-06
-2.29531e-06
2.75023e-06
-2.74612e-06
3.23391e-06
-3.09206e-06
3.50742e-06
-3.32708e-06
3.56773e-06
-3.48476e-06
3.47953e-06
-3.58858e-06
3.30583e-06
-3.65022e-06
3.07454e-06
-3.68213e-06
2.80774e-06
-3.69417e-06
2.52427e-06
-3.69376e-06
2.23464e-06
-3.68663e-06
1.94676e-06
-3.67579e-06
1.6648e-06
-3.6626e-06
1.39017e-06
-3.64715e-06
1.123e-06
-3.62886e-06
8.62226e-07
-3.60693e-06
6.06373e-07
-3.58046e-06
3.53758e-07
-3.5487e-06
1.02338e-07
-3.51102e-06
-1.49816e-07
-3.46733e-06
-4.04856e-07
-3.41815e-06
-6.65131e-07
-3.36467e-06
-9.32961e-07
-3.30888e-06
-1.211e-06
-3.25359e-06
-1.50226e-06
-3.20211e-06
-1.81043e-06
-3.1577e-06
-2.1399e-06
-3.1222e-06
-2.49558e-06
-3.09385e-06
-2.8815e-06
-3.06399e-06
-3.29796e-06
-3.0132e-06
-3.73619e-06
-2.9069e-06
-4.16866e-06
-2.69507e-06
-4.52803e-06
-2.32469e-06
-4.67255e-06
-1.71155e-06
-4.40518e-06
-6.31901e-07
-3.34214e-06
-7.9469e-07
-4.23832e-07
6.09438e-07
-9.02801e-07
1.29963e-06
-1.38789e-06
1.94885e-06
-1.87012e-06
2.61575e-06
-2.32277e-06
3.20288e-06
-2.692e-06
3.60313e-06
-2.94769e-06
3.76311e-06
-3.11657e-06
3.73661e-06
-3.22505e-06
3.58801e-06
-3.28969e-06
3.37047e-06
-3.32201e-06
3.10685e-06
-3.33346e-06
2.81919e-06
-3.33219e-06
2.523e-06
-3.32424e-06
2.22669e-06
-3.31343e-06
1.93595e-06
-3.30142e-06
1.65279e-06
-3.28864e-06
1.37739e-06
-3.27461e-06
1.10898e-06
-3.25849e-06
8.46097e-07
-3.23921e-06
5.871e-07
-3.21576e-06
3.30301e-07
-3.18727e-06
7.38533e-08
-3.15305e-06
-1.84036e-07
-3.11288e-06
-4.45032e-07
-3.067e-06
-7.11007e-07
-3.01626e-06
-9.83705e-07
-2.96221e-06
-1.26504e-06
-2.90725e-06
-1.55722e-06
-2.85457e-06
-1.86311e-06
-2.80783e-06
-2.18664e-06
-2.77028e-06
-2.53313e-06
-2.74279e-06
-2.90899e-06
-2.7209e-06
-3.31985e-06
-2.69107e-06
-3.76602e-06
-2.62563e-06
-4.2341e-06
-2.47649e-06
-4.67718e-06
-2.1948e-06
-4.95425e-06
-1.71326e-06
-4.88672e-06
-9.09305e-07
-4.1461e-06
-1.70399e-06
-4.41004e-07
1.05044e-06
-9.23555e-07
1.78218e-06
-1.39545e-06
2.42074e-06
-1.84376e-06
3.06406e-06
-2.23923e-06
3.59835e-06
-2.52819e-06
3.8921e-06
-2.72294e-06
3.95787e-06
-2.84786e-06
3.86153e-06
-2.92359e-06
3.66374e-06
-2.96407e-06
3.41096e-06
-2.98037e-06
3.12315e-06
-2.98244e-06
2.82127e-06
-2.97684e-06
2.5174e-06
-2.96811e-06
2.21795e-06
-2.95858e-06
1.92643e-06
-2.94901e-06
1.64322e-06
-2.93924e-06
1.36762e-06
-2.92849e-06
1.09823e-06
-2.91575e-06
8.33359e-07
-2.89996e-06
5.71315e-07
-2.88012e-06
3.10459e-07
-2.85543e-06
4.91598e-08
-2.82525e-06
-2.1421e-07
-2.78925e-06
-4.81031e-07
-2.74748e-06
-7.52785e-07
-2.70037e-06
-1.03081e-06
-2.64896e-06
-1.31645e-06
-2.595e-06
-1.61119e-06
-2.54106e-06
-1.91705e-06
-2.49053e-06
-2.23717e-06
-2.44709e-06
-2.57658e-06
-2.41329e-06
-2.94278e-06
-2.38811e-06
-3.34504e-06
-2.36333e-06
-3.7908e-06
-2.31884e-06
-4.27858e-06
-2.21328e-06
-4.78274e-06
-1.98044e-06
-5.18709e-06
-1.58913e-06
-5.27803e-06
-9.67997e-07
-4.76723e-06
-2.67199e-06
-4.30102e-07
1.48054e-06
-8.94754e-07
2.24683e-06
-1.33653e-06
2.86252e-06
-1.74198e-06
3.4695e-06
-2.07277e-06
3.92915e-06
-2.30109e-06
4.12042e-06
-2.45468e-06
4.11146e-06
-2.54877e-06
3.95561e-06
-2.60365e-06
3.71862e-06
-2.63054e-06
3.43785e-06
-2.63971e-06
3.13232e-06
-2.63932e-06
2.82087e-06
-2.63446e-06
2.51254e-06
-2.62834e-06
2.21184e-06
-2.62227e-06
1.92036e-06
-2.61641e-06
1.63737e-06
-2.61028e-06
1.36148e-06
-2.60299e-06
1.09094e-06
-2.59358e-06
8.23954e-07
-2.58112e-06
5.58853e-07
-2.56476e-06
2.94095e-07
-2.54382e-06
2.82203e-08
-2.5178e-06
-2.40229e-07
-2.48632e-06
-5.12512e-07
-2.44925e-06
-7.89851e-07
-2.40672e-06
-1.07334e-06
-2.35923e-06
-1.36394e-06
-2.30782e-06
-1.6626e-06
-2.25428e-06
-1.97059e-06
-2.2013e-06
-2.29015e-06
-2.15234e-06
-2.62554e-06
-2.11085e-06
-2.98427e-06
-2.07819e-06
-3.37769e-06
-2.0503e-06
-3.81868e-06
-2.01366e-06
-4.31522e-06
-1.9378e-06
-4.85861e-06
-1.74713e-06
-5.37775e-06
-1.42451e-06
-5.60064e-06
-8.67778e-07
-5.32397e-06
-3.53977e-06
-3.98617e-07
1.87916e-06
-8.29502e-07
2.67771e-06
-1.23117e-06
3.26418e-06
-1.58776e-06
3.8261e-06
-1.85543e-06
4.19681e-06
-2.04139e-06
4.30637e-06
-2.16339e-06
4.23346e-06
-2.23755e-06
4.02977e-06
-2.27985e-06
3.76092e-06
-2.30011e-06
3.45811e-06
-2.30746e-06
3.13967e-06
-2.3083e-06
2.82171e-06
-2.30649e-06
2.51072e-06
-2.30415e-06
2.2095e-06
-2.30194e-06
1.91814e-06
-2.29969e-06
1.63512e-06
-2.29679e-06
1.35858e-06
-2.29243e-06
1.08658e-06
-2.28581e-06
8.17332e-07
-2.2762e-06
5.49237e-07
-2.26296e-06
2.80857e-07
-2.24558e-06
1.08405e-08
-2.22368e-06
-2.62133e-07
-2.19689e-06
-5.393e-07
-2.16498e-06
-8.2176e-07
-2.12783e-06
-1.1105e-06
-2.0855e-06
-1.40626e-06
-2.03842e-06
-1.70968e-06
-1.98758e-06
-2.02143e-06
-1.9348e-06
-2.34292e-06
-1.88292e-06
-2.67742e-06
-1.83545e-06
-3.03174e-06
-1.79523e-06
-3.41791e-06
-1.76113e-06
-3.85278e-06
-1.72413e-06
-4.35222e-06
-1.662e-06
-4.92074e-06
-1.5173e-06
-5.52245e-06
-1.23496e-06
-5.88298e-06
-7.6176e-07
-5.79717e-06
-4.30153e-06
-3.53121e-07
2.23228e-06
-7.40153e-07
3.06475e-06
-1.09472e-06
3.61875e-06
-1.39722e-06
4.1286e-06
-1.61205e-06
4.41165e-06
-1.76576e-06
4.46008e-06
-1.86502e-06
4.33272e-06
-1.92571e-06
4.09047e-06
-1.96067e-06
3.79588e-06
-1.9784e-06
3.47585e-06
-1.98662e-06
3.14789e-06
-1.9902e-06
2.82528e-06
-1.99196e-06
2.51249e-06
-1.99329e-06
2.21083e-06
-1.99442e-06
1.91928e-06
-1.99506e-06
1.63576e-06
-1.99465e-06
1.35816e-06
-1.99252e-06
1.08446e-06
-1.98811e-06
8.12918e-07
-1.9809e-06
5.42026e-07
-1.97047e-06
2.70432e-07
-1.95647e-06
-3.16073e-09
-1.93862e-06
-2.79987e-07
-1.9166e-06
-5.61315e-07
-1.89013e-06
-8.48237e-07
-1.8589e-06
-1.14173e-06
-1.82266e-06
-1.44249e-06
-1.78137e-06
-1.75097e-06
-1.73533e-06
-2.06747e-06
-1.68557e-06
-2.39268e-06
-1.63414e-06
-2.72884e-06
-1.58422e-06
-3.08166e-06
-1.5393e-06
-3.46284e-06
-1.50066e-06
-3.89143e-06
-1.46312e-06
-4.38975e-06
-1.41047e-06
-4.97338e-06
-1.30322e-06
-5.62971e-06
-1.05048e-06
-6.13572e-06
-6.48351e-07
-6.1993e-06
-4.94988e-06
-3.00081e-07
2.53236e-06
-6.34542e-07
3.39921e-06
-9.37743e-07
3.92195e-06
-1.18578e-06
4.37664e-06
-1.36126e-06
4.58712e-06
-1.48804e-06
4.58686e-06
-1.56903e-06
4.41371e-06
-1.61995e-06
4.14139e-06
-1.65045e-06
3.82638e-06
-1.66765e-06
3.49305e-06
-1.67768e-06
3.15792e-06
-1.68413e-06
2.83173e-06
-1.68904e-06
2.51741e-06
-1.69327e-06
2.21506e-06
-1.69688e-06
1.92288e-06
-1.69956e-06
1.63845e-06
-1.70088e-06
1.35948e-06
-1.70041e-06
1.08398e-06
-1.69776e-06
8.10273e-07
-1.69265e-06
5.36916e-07
-1.68483e-06
2.62614e-07
-1.67411e-06
-1.38883e-08
-1.66025e-06
-2.93841e-07
-1.64304e-06
-5.78525e-07
-1.62216e-06
-8.6912e-07
-1.59721e-06
-1.16667e-06
-1.56775e-06
-1.47196e-06
-1.53334e-06
-1.78538e-06
-1.4938e-06
-2.10701e-06
-1.44948e-06
-2.43701e-06
-1.4017e-06
-2.77663e-06
-1.35307e-06
-3.13029e-06
-1.30723e-06
-3.50868e-06
-1.26687e-06
-3.93179e-06
-1.22927e-06
-4.42735e-06
-1.18264e-06
-5.02001e-06
-1.10063e-06
-5.71172e-06
-8.92137e-07
-6.34421e-06
-5.57383e-07
-6.53405e-06
-5.50726e-06
-2.39766e-07
2.77213e-06
-5.19162e-07
3.6786e-06
-7.71417e-07
4.17421e-06
-9.69372e-07
4.57459e-06
-1.11126e-06
4.72901e-06
-1.21321e-06
4.6888e-06
-1.27992e-06
4.48042e-06
-1.32337e-06
4.18483e-06
-1.35084e-06
3.85385e-06
-1.3681e-06
3.51032e-06
-1.37982e-06
3.16964e-06
-1.38856e-06
2.84048e-06
-1.39576e-06
2.5246e-06
-1.40195e-06
2.22124e-06
-1.40711e-06
1.92805e-06
-1.41107e-06
1.6424e-06
-1.41353e-06
1.36195e-06
-1.41428e-06
1.08473e-06
-1.41313e-06
8.09119e-07
-1.40994e-06
5.33734e-07
-1.40464e-06
2.57306e-07
-1.39711e-06
-2.14178e-08
-1.38723e-06
-3.03716e-07
-1.37484e-06
-5.9092e-07
-1.35963e-06
-8.84328e-07
-1.34119e-06
-1.18512e-06
-1.31894e-06
-1.4942e-06
-1.29224e-06
-1.81208e-06
-1.2605e-06
-2.13875e-06
-1.22356e-06
-2.47395e-06
-1.18211e-06
-2.81807e-06
-1.13822e-06
-3.17418e-06
-1.09545e-06
-3.55146e-06
-1.05753e-06
-3.9697e-06
-1.02422e-06
-4.46065e-06
-9.87227e-07
-5.05701e-06
-9.26787e-07
-5.77216e-06
-7.57794e-07
-6.51321e-06
-4.67492e-07
-6.82435e-06
-5.97476e-06
-1.80071e-07
2.9522e-06
-4.01525e-07
3.90006e-06
-6.02342e-07
4.37503e-06
-7.54098e-07
4.72635e-06
-8.65168e-07
4.84008e-06
-9.45289e-07
4.76893e-06
-9.99754e-07
4.53489e-06
-1.03685e-06
4.22193e-06
-1.06176e-06
3.87875e-06
-1.07892e-06
3.52748e-06
-1.09168e-06
3.1824e-06
-1.10182e-06
2.85062e-06
-1.11032e-06
2.5331e-06
-1.11753e-06
2.22845e-06
-1.12347e-06
1.93399e-06
-1.12807e-06
1.64701e-06
-1.13125e-06
1.36513e-06
-1.13293e-06
1.08641e-06
-1.13311e-06
8.09292e-07
-1.13177e-06
5.324e-07
-1.12894e-06
2.54472e-07
-1.12459e-06
-2.57633e-08
-1.11869e-06
-3.09622e-07
-1.1111e-06
-5.98504e-07
-1.1016e-06
-8.93829e-07
-1.08978e-06
-1.19694e-06
-1.07505e-06
-1.50894e-06
-1.05663e-06
-1.83051e-06
-1.03369e-06
-2.16168e-06
-1.00568e-06
-2.50196e-06
-9.72745e-07
-2.85101e-06
-9.3635e-07
-3.21057e-06
-8.99694e-07
-3.58811e-06
-8.67122e-07
-4.00228e-06
-8.4075e-07
-4.48702e-06
-8.14458e-07
-5.0833e-06
-7.69089e-07
-5.81753e-06
-6.48718e-07
-6.63358e-06
-4.07274e-07
-7.0658e-06
-6.38203e-06
-1.15641e-07
3.06784e-06
-2.82432e-07
4.06685e-06
-4.32889e-07
4.52548e-06
-5.42866e-07
4.83633e-06
-6.25699e-07
4.92292e-06
-6.85908e-07
4.82914e-06
-7.28992e-07
4.57797e-06
-7.60013e-07
4.25295e-06
-7.8221e-07
3.90095e-06
-7.98685e-07
3.54395e-06
-8.11654e-07
3.19537e-06
-8.2225e-07
2.86121e-06
-8.31126e-07
2.54198e-06
-8.38546e-07
2.23587e-06
-8.44618e-07
1.94006e-06
-8.49403e-07
1.65179e-06
-8.52967e-07
1.36869e-06
-8.554e-07
1.08885e-06
-8.56803e-07
8.10695e-07
-8.5728e-07
5.32878e-07
-8.56917e-07
2.54109e-07
-8.55767e-07
-2.69133e-08
-8.53838e-07
-3.11551e-07
-8.51072e-07
-6.0127e-07
-8.47292e-07
-8.97608e-07
-8.4216e-07
-1.20207e-06
-8.35118e-07
-1.51598e-06
-8.25373e-07
-1.84025e-06
-8.11977e-07
-2.17508e-06
-7.94095e-07
-2.51984e-06
-7.71468e-07
-2.87364e-06
-7.45049e-07
-3.23699e-06
-7.17602e-07
-3.61556e-06
-6.93644e-07
-4.02623e-06
-6.76941e-07
-4.50373e-06
-6.63544e-07
-5.0967e-06
-6.35165e-07
-5.84591e-06
-5.50217e-07
-6.71853e-06
-3.49313e-07
-7.2667e-06
-6.73134e-06
-5.81532e-08
3.12599e-06
-1.66183e-07
4.17488e-06
-2.65992e-07
4.62529e-06
-3.37608e-07
4.90794e-06
-3.937e-07
4.97901e-06
-4.34932e-07
4.87037e-06
-4.66955e-07
4.60999e-06
-4.91722e-07
4.27772e-06
-5.10723e-07
3.91995e-06
-5.25773e-07
3.559e-06
-5.38087e-07
3.20768e-06
-5.48272e-07
2.8714e-06
-5.56737e-07
2.55044e-06
-5.63718e-07
2.24285e-06
-5.69409e-07
1.94575e-06
-5.74004e-07
1.65639e-06
-5.7771e-07
1.3724e-06
-5.80738e-07
1.09187e-06
-5.83291e-07
8.13249e-07
-5.8555e-07
5.35137e-07
-5.8766e-07
2.56219e-07
-5.89725e-07
-2.48483e-08
-5.91799e-07
-3.09477e-07
-5.93875e-07
-5.99194e-07
-5.95848e-07
-8.95635e-07
-5.97458e-07
-1.20046e-06
-5.9823e-07
-1.51521e-06
-5.9743e-07
-1.84105e-06
-5.94093e-07
-2.17842e-06
-5.8723e-07
-2.52671e-06
-5.76263e-07
-2.8846e-06
-5.61686e-07
-3.25157e-06
-5.45801e-07
-3.63144e-06
-5.33007e-07
-4.03903e-06
-5.2798e-07
-4.50876e-06
-5.28866e-07
-5.09581e-06
-5.20962e-07
-5.85381e-06
-4.69311e-07
-6.77018e-06
-3.07386e-07
-7.42862e-06
-7.03873e-06
5.60352e-09
3.12039e-06
-4.8867e-08
4.22935e-06
-1.02511e-07
4.67894e-06
-1.39389e-07
4.94482e-06
-1.68935e-07
5.00856e-06
-1.91919e-07
4.89335e-06
-2.12515e-07
4.63059e-06
-2.30445e-07
4.29565e-06
-2.45609e-07
3.93512e-06
-2.58477e-07
3.57187e-06
-2.69358e-07
3.21857e-06
-2.784e-07
2.88044e-06
-2.85817e-07
2.55786e-06
-2.91833e-07
2.24886e-06
-2.96728e-07
1.95065e-06
-3.00823e-07
1.66048e-06
-3.04448e-07
1.37602e-06
-3.07923e-07
1.09535e-06
-3.11536e-07
8.16862e-07
-3.1553e-07
5.39131e-07
-3.20102e-07
2.60791e-07
-3.25399e-07
-1.95513e-08
-3.31514e-07
-3.03363e-07
-3.38482e-07
-5.92225e-07
-3.46257e-07
-8.8786e-07
-3.54666e-07
-1.19205e-06
-3.63351e-07
-1.50652e-06
-3.71696e-07
-1.83271e-06
-3.78808e-07
-2.1713e-06
-3.83652e-07
-2.52186e-06
-3.85442e-07
-2.88281e-06
-3.84283e-07
-3.25273e-06
-3.81992e-07
-3.63373e-06
-3.82653e-07
-4.03836e-06
-3.91371e-07
-4.50004e-06
-4.08218e-07
-5.07897e-06
-4.20671e-07
-5.84136e-06
-3.96876e-07
-6.79397e-06
-2.67784e-07
-7.55772e-06
-7.30651e-06
6.50461e-08
3.05535e-06
6.59322e-08
4.22846e-06
5.60153e-08
4.68885e-06
5.21048e-08
4.94873e-06
4.9407e-08
5.01125e-06
4.40612e-08
4.8987e-06
3.56529e-08
4.639e-06
2.52976e-08
4.306e-06
1.47505e-08
3.94566e-06
4.8701e-09
3.58175e-06
-3.85587e-09
3.22729e-06
-1.11582e-08
2.88774e-06
-1.70136e-08
2.56372e-06
-2.16386e-08
2.25349e-06
-2.5397e-08
1.95441e-06
-2.87211e-08
1.66381e-06
-3.20546e-08
1.37936e-06
-3.58134e-08
1.09911e-06
-4.03633e-08
8.21411e-07
-4.60104e-08
5.44778e-07
-5.30013e-08
2.67782e-07
-6.15275e-08
-1.10251e-08
-7.17149e-08
-2.93175e-07
-8.36362e-08
-5.80304e-07
-9.72936e-08
-8.74203e-07
-1.12596e-07
-1.17675e-06
-1.29298e-07
-1.48982e-06
-1.46936e-07
-1.81507e-06
-1.64767e-07
-2.15347e-06
-1.81841e-07
-2.50479e-06
-1.97266e-07
-2.86739e-06
-2.10738e-07
-3.23926e-06
-2.23662e-07
-3.62081e-06
-2.39673e-07
-4.02235e-06
-2.6402e-07
-4.47569e-06
-2.98466e-07
-5.04452e-06
-3.32355e-07
-5.80747e-06
-3.3677e-07
-6.78956e-06
-2.37896e-07
-7.65659e-06
-7.54441e-06
1.24865e-07
2.93048e-06
1.79039e-07
4.17429e-06
2.12064e-07
4.65583e-06
2.4226e-07
4.91854e-06
2.67093e-07
4.98642e-06
2.79449e-07
4.88634e-06
2.81179e-07
4.63727e-06
2.78062e-07
4.30912e-06
2.7238e-07
3.95134e-06
2.65905e-07
3.58823e-06
2.59827e-07
3.23337e-06
2.548e-07
2.89277e-06
2.50955e-07
2.56756e-06
2.48091e-07
2.25635e-06
2.45782e-07
1.95672e-06
2.43499e-07
1.66609e-06
2.40695e-07
1.38216e-06
2.36861e-07
1.10294e-06
2.3155e-07
8.26723e-07
2.2439e-07
5.51938e-07
2.15081e-07
2.7709e-07
2.0338e-07
6.75884e-10
1.89137e-07
-2.78932e-07
1.7223e-07
-5.63397e-07
1.52602e-07
-8.54574e-07
1.30274e-07
-1.15442e-06
1.05397e-07
-1.46494e-06
7.82864e-08
-1.78796e-06
4.95037e-08
-2.12469e-06
1.98946e-08
-2.47518e-06
-9.7127e-09
-2.83778e-06
-3.90776e-08
-3.20989e-06
-6.87558e-08
-3.59113e-06
-1.01854e-07
-3.98926e-06
-1.43564e-07
-4.43398e-06
-1.96664e-07
-4.99142e-06
-2.51326e-07
-5.75281e-06
-2.8154e-07
-6.75934e-06
-2.10246e-07
-7.72788e-06
-7.75466e-06
1.84898e-07
2.74558e-06
2.91e-07
4.06819e-06
3.6391e-07
4.58292e-06
4.25194e-07
4.85725e-06
4.76573e-07
4.93504e-06
5.09189e-07
4.85373e-06
5.22799e-07
4.62366e-06
5.28146e-07
4.30377e-06
5.28309e-07
3.95118e-06
5.26036e-07
3.5905e-06
5.23219e-07
3.23619e-06
5.20909e-07
2.89508e-06
5.19449e-07
2.56902e-06
5.1868e-07
2.25712e-06
5.1813e-07
1.95727e-06
5.17179e-07
1.66704e-06
5.15177e-07
1.38416e-06
5.11519e-07
1.1066e-06
5.05675e-07
8.32567e-07
4.97199e-07
5.60413e-07
4.8573e-07
2.8856e-07
4.70988e-07
1.54175e-08
4.52745e-07
-2.6069e-07
4.30852e-07
-5.41504e-07
4.05196e-07
-8.28918e-07
3.75737e-07
-1.12496e-06
3.42511e-07
-1.43172e-06
3.05661e-07
-1.75111e-06
2.65546e-07
-2.08458e-06
2.22774e-07
-2.43241e-06
1.78101e-07
-2.79311e-06
1.32218e-07
-3.16401e-06
8.46804e-08
-3.54359e-06
3.30202e-08
-3.9376e-06
-2.78032e-08
-4.37316e-06
-1.01201e-07
-4.91802e-06
-1.77821e-07
-5.67619e-06
-2.31426e-07
-6.70574e-06
-1.88769e-07
-7.77054e-06
-7.94343e-06
2.43112e-07
2.50247e-06
4.009e-07
3.9104e-06
5.12801e-07
4.47102e-06
6.05567e-07
4.76449e-06
6.79575e-07
4.86103e-06
7.32969e-07
4.80033e-06
7.61047e-07
4.59558e-06
7.76315e-07
4.2885e-06
7.83464e-07
3.94403e-06
7.8631e-07
3.58765e-06
7.87478e-07
3.23502e-06
7.88469e-07
2.89409e-06
7.89861e-07
2.56763e-06
7.91572e-07
2.25541e-06
7.93116e-07
1.95572e-06
7.93809e-07
1.66635e-06
7.92912e-07
1.38506e-06
7.89724e-07
1.10979e-06
7.83621e-07
8.3867e-07
7.74079e-07
5.69956e-07
7.60665e-07
3.01974e-07
7.4303e-07
3.30523e-08
7.20902e-07
-2.38561e-07
6.94073e-07
-5.14675e-07
6.62375e-07
-7.9722e-07
6.25684e-07
-1.08827e-06
5.83917e-07
-1.38995e-06
5.37096e-07
-1.70429e-06
4.85379e-07
-2.03286e-06
4.29099e-07
-2.37613e-06
3.6885e-07
-2.73286e-06
3.05314e-07
-3.10047e-06
2.38554e-07
-3.47683e-06
1.66755e-07
-3.8658e-06
8.52384e-08
-4.29164e-06
-1.01325e-08
-4.82265e-06
-1.09607e-07
-5.57671e-06
-1.85737e-07
-6.62961e-06
-1.69468e-07
-7.78681e-06
-8.11289e-06
2.99278e-07
2.20319e-06
5.07308e-07
3.70237e-06
6.56674e-07
4.32165e-06
7.79035e-07
4.64213e-06
8.76666e-07
4.7634e-06
9.524e-07
4.7246e-06
9.97005e-07
4.55097e-06
1.02315e-06
4.26236e-06
1.03842e-06
3.92876e-06
1.04752e-06
3.57856e-06
1.05364e-06
3.2289e-06
1.05869e-06
2.88903e-06
1.06353e-06
2.56279e-06
1.06821e-06
2.25073e-06
1.07227e-06
1.95166e-06
1.075e-06
1.66362e-06
1.07557e-06
1.38448e-06
1.0732e-06
1.11216e-06
1.06717e-06
8.44699e-07
1.05687e-06
5.80258e-07
1.04178e-06
3.17064e-07
1.02147e-06
5.33563e-08
9.95617e-07
-2.12707e-07
9.63935e-07
-4.82992e-07
9.26186e-07
-7.59471e-07
8.82172e-07
-1.04426e-06
8.31718e-07
-1.33949e-06
7.74667e-07
-1.64724e-06
7.10906e-07
-1.9691e-06
6.40537e-07
-2.30576e-06
5.63981e-07
-2.6563e-06
4.81865e-07
-3.01836e-06
3.94619e-07
-3.38959e-06
3.01204e-07
-3.77238e-06
1.97585e-07
-4.18802e-06
7.97241e-08
-4.70479e-06
-4.35378e-08
-5.45345e-06
-1.41681e-07
-6.53146e-06
-1.52868e-07
-7.77562e-06
-8.26576e-06
3.51157e-07
1.85204e-06
6.0722e-07
3.44631e-06
7.92943e-07
4.13593e-06
9.43568e-07
4.4915e-06
1.06653e-06
4.64044e-06
1.1627e-06
4.62842e-06
1.22768e-06
4.486e-06
1.26762e-06
4.22243e-06
1.29301e-06
3.90337e-06
1.30995e-06
3.56161e-06
1.32236e-06
3.2165e-06
1.33257e-06
2.87882e-06
1.34174e-06
2.55362e-06
1.35008e-06
2.24238e-06
1.35724e-06
1.9445e-06
1.36249e-06
1.65837e-06
1.36498e-06
1.38199e-06
1.36385e-06
1.1133e-06
1.35828e-06
8.50262e-07
1.34759e-06
5.90955e-07
1.33115e-06
3.33502e-07
1.30846e-06
7.60449e-08
1.27911e-06
-1.83352e-07
1.24272e-06
-4.46606e-07
1.19898e-06
-7.15729e-07
1.14758e-06
-9.92857e-07
1.08822e-06
-1.28013e-06
1.02057e-06
-1.57959e-06
9.44309e-07
-1.89284e-06
8.59251e-07
-2.2207e-06
7.655e-07
-2.56255e-06
6.63675e-07
-2.91653e-06
5.54582e-07
-3.28049e-06
4.37941e-07
-3.65574e-06
3.10436e-07
-4.06052e-06
1.68545e-07
-4.5629e-06
2.19096e-08
-5.30682e-06
-1.00602e-07
-6.40895e-06
-1.36292e-07
-7.73993e-06
-8.40205e-06
3.93949e-07
1.45809e-06
6.94803e-07
3.14545e-06
9.16677e-07
3.91405e-06
1.09564e-06
4.31253e-06
1.24402e-06
4.49207e-06
1.36218e-06
4.51026e-06
1.44994e-06
4.39823e-06
1.50733e-06
4.16504e-06
1.54584e-06
3.86485e-06
1.57306e-06
3.53439e-06
1.59374e-06
3.19582e-06
1.61073e-06
2.86182e-06
1.62553e-06
2.53883e-06
1.63858e-06
2.22933e-06
1.64967e-06
1.93341e-06
1.65814e-06
1.6499e-06
1.66314e-06
1.377e-06
1.66376e-06
1.11268e-06
1.65913e-06
8.54892e-07
1.64846e-06
6.01619e-07
1.63106e-06
3.50903e-07
1.60633e-06
1.00783e-07
1.57374e-06
-1.5077e-07
1.53285e-06
-4.05708e-07
1.48319e-06
-6.66077e-07
1.42436e-06
-9.34025e-07
1.35588e-06
-1.21165e-06
1.27725e-06
-1.50095e-06
1.18788e-06
-1.80347e-06
1.0873e-06
-2.12013e-06
9.75383e-07
-2.45063e-06
8.5263e-07
-2.79378e-06
7.20043e-07
-3.14791e-06
5.78236e-07
-3.51393e-06
4.24767e-07
-3.90705e-06
2.56076e-07
-4.39421e-06
8.08595e-08
-5.1316e-06
-6.42923e-08
-6.2638e-06
-1.23493e-07
-7.68073e-06
-8.52555e-06
4.17959e-07
1.04013e-06
7.60661e-07
2.80275e-06
1.02165e-06
3.65306e-06
1.23019e-06
4.104e-06
1.40382e-06
4.31844e-06
1.54673e-06
4.36735e-06
1.65866e-06
4.28631e-06
1.73801e-06
4.08569e-06
1.79403e-06
3.80883e-06
1.83514e-06
3.49328e-06
1.86702e-06
3.16394e-06
1.89318e-06
2.83566e-06
1.91553e-06
2.51648e-06
1.93484e-06
2.21002e-06
1.95109e-06
1.91717e-06
1.96376e-06
1.63723e-06
1.97206e-06
1.36869e-06
1.97511e-06
1.10963e-06
1.97199e-06
8.58012e-07
1.96186e-06
6.11746e-07
1.94394e-06
3.68828e-07
1.91752e-06
1.27196e-07
1.88201e-06
-1.15257e-07
1.8368e-06
-3.605e-07
1.78132e-06
-6.10594e-07
1.71497e-06
-8.6768e-07
1.6371e-06
-1.13378e-06
1.54697e-06
-1.41082e-06
1.44375e-06
-1.70024e-06
1.32669e-06
-2.00307e-06
1.1954e-06
-2.31934e-06
1.05032e-06
-2.6487e-06
8.92583e-07
-2.99017e-06
7.23613e-07
-3.34496e-06
5.4205e-07
-3.72548e-06
3.44565e-07
-4.19672e-06
1.40186e-07
-4.92722e-06
-3.26077e-08
-6.09101e-06
-1.11843e-07
-7.6015e-06
-8.63739e-06
4.03797e-07
6.36331e-07
7.93479e-07
2.41307e-06
1.09881e-06
3.34773e-06
1.33955e-06
3.86327e-06
1.5392e-06
4.11878e-06
1.7088e-06
4.19775e-06
1.84802e-06
4.14709e-06
1.95394e-06
3.97977e-06
2.03283e-06
3.72993e-06
2.09276e-06
3.43335e-06
2.14004e-06
3.11667e-06
2.17882e-06
2.79688e-06
2.21153e-06
2.48377e-06
2.23935e-06
2.18221e-06
2.26255e-06
1.89396e-06
2.28085e-06
1.61894e-06
2.29359e-06
1.35595e-06
2.29996e-06
1.10326e-06
2.29909e-06
8.58887e-07
2.2901e-06
6.20731e-07
2.27215e-06
3.86777e-07
2.24447e-06
1.54881e-07
2.20631e-06
-7.71006e-08
2.15697e-06
-3.11163e-07
2.0957e-06
-5.49316e-07
2.02169e-06
-7.93677e-07
1.93407e-06
-1.04616e-06
1.83182e-06
-1.30857e-06
1.71386e-06
-1.58228e-06
1.5792e-06
-1.86842e-06
1.42723e-06
-2.16737e-06
1.25833e-06
-2.47979e-06
1.07374e-06
-2.80558e-06
8.75528e-07
-3.14675e-06
6.63577e-07
-3.51353e-06
4.3563e-07
-3.96878e-06
1.99874e-07
-4.69147e-06
-6.00769e-09
-5.88512e-06
-1.04531e-07
-7.50297e-06
-8.74192e-06
3.26037e-07
3.10294e-07
7.85573e-07
1.95353e-06
1.13714e-06
2.99615e-06
1.41356e-06
3.58685e-06
1.64219e-06
3.89015e-06
1.84018e-06
3.99976e-06
2.01005e-06
3.97721e-06
2.14765e-06
3.84217e-06
2.25569e-06
3.62189e-06
2.34067e-06
3.34838e-06
2.40887e-06
3.04846e-06
2.46496e-06
2.74079e-06
2.51193e-06
2.4368e-06
2.55143e-06
2.14271e-06
2.58413e-06
1.86126e-06
2.61008e-06
1.593e-06
2.62885e-06
1.33717e-06
2.6398e-06
1.0923e-06
2.64215e-06
8.56538e-07
2.63507e-06
6.27814e-07
2.61769e-06
4.04154e-07
2.58919e-06
1.83382e-07
2.54862e-06
-3.65288e-08
2.49529e-06
-2.57838e-07
2.42818e-06
-4.82203e-07
2.34627e-06
-7.11771e-07
2.24841e-06
-9.4829e-07
2.13331e-06
-1.19348e-06
1.99962e-06
-1.44858e-06
1.84615e-06
-1.71495e-06
1.67213e-06
-1.99335e-06
1.47791e-06
-2.28557e-06