/*--------------------------------*- C++ -*----------------------------------*\
  =========                 |
  \\      /  F ield         | OpenFOAM: The Open Source CFD Toolbox
   \\    /   O peration     | Website:  https://openfoam.org
    \\  /    A nd           | Version:  13
     \\/     M anipulation  |
\*---------------------------------------------------------------------------*/
FoamFile
{
    format      ascii;
    class       volScalarField;
    location    "6.2";
    object      epsilon;
}
// * * * * * * * * * * * * * * * * * * * * * * * * * * * * * * * * * * * * * //

dimensions      [0 2 -3 0 0 0 0];

internalField   nonuniform List<scalar> 
6400
(
2.58614e-05
0.000132804
0.000322026
0.000519558
0.000669426
0.000754011
0.000784788
0.000787262
0.000790763
0.000818239
0.000886926
0.00102456
0.00124474
0.00155265
0.00193374
0.00236741
0.00283221
0.00331777
0.00380415
0.00427652
0.00474814
0.00525714
0.00585642
0.00658426
0.00742001
0.00828018
0.00913216
0.0099758
0.0108348
0.0117332
0.0126641
0.0135905
0.0145017
0.0153932
0.0162921
0.0172026
0.0181458
0.0191279
0.0201621
0.0212526
0.0224071
0.0236344
0.0249419
0.0263476
0.0278581
0.02952
0.0314165
0.0337309
0.0362363
0.0387253
0.0412144
0.0436278
0.0459206
0.0480133
0.0498385
0.0513031
0.0521411
0.0524988
0.0525469
0.0516946
0.0500511
0.0476199
0.044435
0.0405856
0.0361952
0.0314498
0.0266009
0.0218431
0.0173584
0.013322
0.0100653
0.00733002
0.00511617
0.00341841
0.00219511
0.00136125
0.000817371
0.000467563
0.000220364
4.68529e-05
0.000125256
0.000124883
0.000204362
0.000296823
0.000366688
0.000409187
0.000430061
0.000439234
0.000449173
0.000472374
0.000522148
0.000618008
0.000775596
0.00100731
0.00131735
0.0017073
0.00217938
0.00273989
0.00339478
0.00415244
0.00502047
0.00603174
0.00723641
0.00866386
0.0103087
0.0121858
0.0141582
0.016077
0.0178382
0.0193504
0.0205029
0.0213993
0.0220151
0.0224375
0.0227078
0.0228809
0.0229995
0.0230967
0.0231976
0.023321
0.023489
0.023709
0.0239943
0.0243062
0.0246704
0.0251108
0.0256376
0.0262361
0.0269203
0.0276369
0.0284006
0.0291615
0.0299058
0.030586
0.0311626
0.031517
0.0316489
0.0315923
0.0312503
0.0305257
0.0294237
0.0279359
0.0260419
0.0238173
0.021341
0.0187134
0.0160504
0.0134707
0.0110645
0.00891698
0.00710798
0.00555878
0.00423219
0.00310543
0.00217544
0.00142664
0.000870135
0.000487972
0.000252913
0.000247855
0.000274326
0.000227278
0.000304635
0.00038441
0.000432754
0.000456979
0.000469617
0.000483601
0.000512678
0.000573506
0.000689015
0.000885988
0.00119101
0.00162376
0.00219653
0.00292214
0.00381306
0.00488403
0.00614529
0.00760336
0.00926384
0.0110993
0.013031
0.0149193
0.0165896
0.0178179
0.0185602
0.0189775
0.0191851
0.0193208
0.0194159
0.0193729
0.0190822
0.0188001
0.0185003
0.0182357
0.0180182
0.0178787
0.0178181
0.0178072
0.0179009
0.0180772
0.0183391
0.0187235
0.0192156
0.0198012
0.020467
0.0212099
0.0220273
0.0229032
0.0238295
0.0247836
0.0257448
0.0266791
0.027548
0.0283032
0.0288964
0.029188
0.0292535
0.0289826
0.0282831
0.0271407
0.0255128
0.0235131
0.0212145
0.0187175
0.0161475
0.0136185
0.0112381
0.00909145
0.00723533
0.00567267
0.00438136
0.00332227
0.00245775
0.00176351
0.00119785
0.000749163
0.000463676
0.000661873
0.000476849
0.000393025
0.000482501
0.000560234
0.000600324
0.000620223
0.000639044
0.000676338
0.000753323
0.000899788
0.0011534
0.00155514
0.00213982
0.00292947
0.00393516
0.00516181
0.0066111
0.00826564
0.0100759
0.0119537
0.0137714
0.0153867
0.0166535
0.0173666
0.0176722
0.0177512
0.0177354
0.0174152
0.0169023
0.0163298
0.0156757
0.0151653
0.0147662
0.0144351
0.0141795
0.0140161
0.0139411
0.0139223
0.0139925
0.0141479
0.0143858
0.0147033
0.0151031
0.0155866
0.0161499
0.0167932
0.0175171
0.0183213
0.0192046
0.020163
0.0211892
0.0222714
0.0233924
0.024526
0.0256374
0.0266805
0.0275965
0.02832
0.0286831
0.0287803
0.0284694
0.0277179
0.026554
0.0247938
0.022591
0.0200733
0.0173777
0.0146515
0.0120412
0.0096692
0.00761636
0.00591195
0.00454069
0.00345754
0.00260803
0.00194176
0.00140608
0.000970581
0.000693079
0.00109829
0.000765432
0.00062436
0.000714652
0.000790726
0.000833033
0.000864787
0.000911931
0.00100387
0.00117686
0.00147748
0.00195887
0.00266903
0.00363739
0.0048697
0.00635173
0.00805005
0.00990349
0.0118084
0.0136121
0.0151496
0.0162151
0.0167035
0.0168528
0.0168278
0.0164496
0.0157785
0.014929
0.0141347
0.0134789
0.0128822
0.012378
0.0119897
0.0116837
0.0114559
0.0113089
0.0112396
0.0112182
0.0112488
0.0113583
0.0115193
0.0117415
0.012021
0.0123613
0.012764
0.0132321
0.0137701
0.0143828
0.015075
0.0158517
0.0167169
0.017673
0.018718
0.0198462
0.021045
0.0222945
0.0235651
0.0248032
0.0259495
0.0269278
0.0275673
0.02782
0.0277311
0.0270429
0.0259329
0.0240881
0.0217194
0.018992
0.0160811
0.0131803
0.0104784
0.00811826
0.00617339
0.00464519
0.00348252
0.00260751
0.00194959
0.00144788
0.00106174
0.000843191
0.00139644
0.00117795
0.000929626
0.0010055
0.0010838
0.00114208
0.00120612
0.00131092
0.00150007
0.00182766
0.00235633
0.00314544
0.00423245
0.00561878
0.00726744
0.0091058
0.0110244
0.0128743
0.0144755
0.0155883
0.0160861
0.0162138
0.0161187
0.0156117
0.0147006
0.01372
0.0128381
0.0120424
0.0113672
0.0108025
0.0103243
0.00993948
0.00963405
0.00939297
0.00921107
0.00908114
0.0090016
0.00896504
0.00895582
0.00899061
0.00906329
0.0091726
0.00932065
0.00950806
0.00973927
0.0100182
0.0103517
0.0107473
0.0112151
0.0117664
0.0124132
0.0131695
0.014047
0.0150554
0.0161997
0.0174752
0.0188693
0.0203587
0.0218919
0.0234126
0.0248163
0.0259889
0.026639
0.026845
0.0264592
0.025565
0.0236582
0.02113
0.0181526
0.0149599
0.0118287
0.0090091
0.00666419
0.00484758
0.00351839
0.00257061
0.00190004
0.00141485
0.00105894
0.000901667
0.00150194
0.00175161
0.00131496
0.00136639
0.00145665
0.00154839
0.00166953
0.0018674
0.00220218
0.00274339
0.00355901
0.00469481
0.00615297
0.00788118
0.00977425
0.0116811
0.0134144
0.0147819
0.0154702
0.0156839
0.0156454
0.0151505
0.0141736
0.0130757
0.0120793
0.0111724
0.0104003
0.00973573
0.00917966
0.00871073
0.00831745
0.00799122
0.00771899
0.00749253
0.00730595
0.00715389
0.00703278
0.00693866
0.00686969
0.00683264
0.00681736
0.00681585
0.00684866
0.00690487
0.00699308
0.0071128
0.00727117
0.00747306
0.00772729
0.00804498
0.00844017
0.00892999
0.00953811
0.0102891
0.0112095
0.0123166
0.0136327
0.0151719
0.0169093
0.0187935
0.0207724
0.0227269
0.0245107
0.0258279
0.0264104
0.0264703
0.0257372
0.0238011
0.0210418
0.0176886
0.014095
0.0106563
0.00769009
0.00536875
0.00370211
0.00258308
0.00183484
0.00134127
0.0010212
0.00089347
0.00145695
0.00252128
0.001785
0.00181031
0.00192613
0.00207226
0.00227815
0.00260573
0.00312949
0.00392413
0.00504368
0.00649619
0.0082256
0.0101091
0.0119689
0.0135961
0.014694
0.0151552
0.0152427
0.0149233
0.0140723
0.0128946
0.011765
0.010737
0.00984926
0.00908197
0.00843369
0.00787888
0.00740837
0.00700496
0.00665998
0.00636381
0.00610864
0.00588926
0.00570145
0.00554193
0.00540765
0.00529595
0.00520591
0.0051367
0.00508615
0.00506027
0.00505097
0.00505579
0.00509135
0.00514709
0.00523105
0.00534467
0.00549394
0.00568313
0.00591969
0.0062133
0.00657749
0.00703083
0.00760194
0.00833798
0.00928434
0.0104983
0.012032
0.0138774
0.0160417
0.0184429
0.0209496
0.0233959
0.02549
0.0266408
0.0270161
0.0265443
0.0245271
0.0213992
0.0175146
0.01341
0.00960981
0.0065012
0.00423668
0.00275331
0.00184609
0.00128438
0.00095968
0.000858074
0.00135313
0.0035122
0.00234311
0.00234675
0.00250847
0.00272864
0.00304502
0.00353147
0.00426827
0.00531849
0.00670035
0.008364
0.0101833
0.0119673
0.0134889
0.0143939
0.0147183
0.0147427
0.0141887
0.013088
0.0118522
0.0106903
0.00966383
0.00877695
0.00802296
0.00737853
0.0068295
0.00635724
0.00595213
0.00560259
0.00530214
0.00504378
0.00482277
0.00463508
0.0044769
0.00434517
0.00423749
0.00415173
0.00408613
0.0040389
0.00401235
0.00400135
0.00399975
0.00401953
0.00405571
0.00410935
0.00418194
0.00427475
0.00439029
0.00453133
0.00470204
0.0049076
0.00515485
0.00545346
0.00581616
0.00626227
0.00681995
0.00753269
0.00847439
0.00978333
0.0115444
0.0138072
0.0165138
0.019539
0.022655
0.025522
0.0273449
0.0280439
0.0278357
0.025675
0.0219983
0.0174518
0.0127564
0.00859562
0.00540095
0.00326044
0.00199351
0.00129404
0.000915131
0.000803706
0.00123918
0.00473546
0.00299635
0.00298783
0.00320993
0.00352191
0.00396679
0.00462414
0.00556691
0.00682806
0.0083726
0.0100842
0.0117734
0.0132077
0.014016
0.0142841
0.0142019
0.0134768
0.0122629
0.0110158
0.0098293
0.00879846
0.00791606
0.00716612
0.00652904
0.00598478
0.00551995
0.00512222
0.00478378
0.00449667
0.0042554
0.00405427
0.00388878
0.00375448
0.00364758
0.0035645
0.0035022
0.00345794
0.0034316
0.0034198
0.003417
0.00342755
0.00345069
0.00348639
0.00353389
0.00359421
0.00366779
0.00375594
0.00386012
0.00398227
0.00412481
0.00429083
0.0044844
0.00471099
0.00497815
0.00529456
0.00567304
0.00613466
0.00671376
0.0074675
0.00848967
0.00996041
0.0121155
0.0149806
0.0184419
0.0222195
0.0259245
0.0284461
0.0294538
0.0294327
0.0269928
0.0226157
0.0172829
0.0119798
0.00753116
0.00436047
0.00242821
0.00140608
0.000919777
0.000758728
0.00114988
0.00620624
0.00375811
0.00373876
0.00402959
0.00444348
0.0050207
0.00583688
0.00694305
0.00832746
0.00989487
0.0114698
0.0128247
0.0135912
0.0138445
0.0136885
0.0128797
0.0116339
0.0103456
0.00915481
0.00810937
0.00722746
0.00648029
0.00584875
0.00531376
0.00486089
0.00447971
0.00416118
0.00389806
0.00368317
0.00351034
0.0033734
0.00326698
0.00318604
0.00312629
0.00308413
0.00305743
0.00304462
0.0030404
0.00304375
0.00305881
0.0030822
0.00311503
0.00315719
0.00320937
0.00327245
0.00334746
0.00343578
0.00353878
0.00365807
0.00379532
0.00395233
0.00413113
0.004334
0.00456385
0.00482484
0.00512349
0.00547045
0.00588371
0.00638879
0.00702851
0.0078865
0.00911032
0.0109852
0.013852
0.0176386
0.0220687
0.0266496
0.0298764
0.0311686
0.0311905
0.0282577
0.0229794
0.0167937
0.0109469
0.00636825
0.00337477
0.00174005
0.000992696
0.000754327
0.00113008
0.0080092
0.00465707
0.00459713
0.00495577
0.0054704
0.00616617
0.00710346
0.00829964
0.00969186
0.0111306
0.0124029
0.0131523
0.0134055
0.013232
0.0123825
0.0111618
0.00984532
0.00863233
0.00757702
0.00668452
0.00593874
0.00531154
0.00478669
0.00434884
0.00398706
0.00369185
0.00345436
0.00326634
0.00311978
0.00300747
0.00292278
0.00286012
0.00281478
0.00278307
0.00276244
0.00275228
0.00274853
0.00274844
0.00275802
0.00277393
0.00279712
0.00282818
0.00286792
0.00291743
0.00297787
0.00305062
0.00313722
0.00323927
0.00335849
0.00349664
0.00365551
0.00383678
0.00404196
0.00427231
0.00452886
0.00481281
0.00512644
0.00547502
0.00587048
0.00633689
0.00691745
0.00767553
0.00875075
0.0103961
0.0131242
0.0171633
0.022222
0.0277072
0.031586
0.0330817
0.0329657
0.0291596
0.0228201
0.0157798
0.00956933
0.00510735
0.00247363
0.00121962
0.000796622
0.00118243
0.0100222
0.00565562
0.00554344
0.00596507
0.00656768
0.00735074
0.00835013
0.00954383
0.0108216
0.0119964
0.0127325
0.0129879
0.0128257
0.0120048
0.0108191
0.00949875
0.00825406
0.00717772
0.00627179
0.00551905
0.00489499
0.00437796
0.00395427
0.00361074
0.00333675
0.00312173
0.00295569
0.00282927
0.00273401
0.00266271
0.00260938
0.0025694
0.00253929
0.00251667
0.00250006
0.00248859
0.00248268
0.0024806
0.00248337
0.00249321
0.00250985
0.00253427
0.0025676
0.00261102
0.00266583
0.00273353
0.00281572
0.00291419
0.00303087
0.00316785
0.0033273
0.00351136
0.00372202
0.00396084
0.00422873
0.00452573
0.00485093
0.00520305
0.00558203
0.00599284
0.00645253
0.00700195
0.00771011
0.00869898
0.0102283
0.0128087
0.0170464
0.0227202
0.0291294
0.0335224
0.0351037
0.0344918
0.0294035
0.0218524
0.0140809
0.00784797
0.00380863
0.0017286
0.000947295
0.00138034
0.0121859
0.006731
0.0065536
0.00702619
0.00769283
0.0085179
0.00950755
0.010602
0.0116559
0.0123673
0.0126204
0.0125012
0.0117496
0.0106016
0.00928802
0.00801336
0.00690124
0.00597298
0.00520689
0.00457904
0.00406658
0.00365244
0.00332321
0.00306552
0.00286739
0.002717
0.00260375
0.00251837
0.00245321
0.00240231
0.00236127
0.00232706
0.00229777
0.0022724
0.00225057
0.00223237
0.00221816
0.00220969
0.00220643
0.00220668
0.00221643
0.00223382
0.00226038
0.00229721
0.00234552
0.00240675
0.00248249
0.00257459
0.00268512
0.00281643
0.00297115
0.00315203
0.00336193
0.00360347
0.00387878
0.00418897
0.00453363
0.00491041
0.00531513
0.00574299
0.00619229
0.00667221
0.0072174
0.00790629
0.00885489
0.0103309
0.0128759
0.0173379
0.0236642
0.0310063
0.0356028
0.0370292
0.0354391
0.0286498
0.0198002
0.0116928
0.00589723
0.00265204
0.00129725
0.0018333
0.0144301
0.00785592
0.00759832
0.00810266
0.00880034
0.00961344
0.0105174
0.0114218
0.0120818
0.0123258
0.0122637
0.0115984
0.010509
0.00920542
0.00790279
0.00674414
0.00577858
0.00499002
0.00435009
0.00383509
0.00342492
0.00310367
0.00285653
0.00266912
0.00252836
0.00242237
0.00234131
0.00227732
0.00222458
0.00217904
0.00213815
0.00210052
0.00206558
0.00203336
0.00200423
0.00197878
0.0019577
0.00194175
0.00193289
0.0019296
0.00193161
0.0019441
0.00196499
0.00199599
0.00203801
0.00209235
0.0021605
0.00224424
0.00234568
0.00246729
0.00261197
0.00278299
0.00298397
0.0032187
0.00349085
0.00380347
0.00415835
0.00455506
0.00499022
0.00545699
0.00594605
0.00644925
0.00696828
0.00753181
0.00822299
0.00916832
0.0106526
0.0132912
0.0181018
0.0251904
0.0334247
0.0376619
0.0386842
0.0353025
0.0264294
0.0166463
0.00882241
0.0040509
0.00189874
0.00252203
0.0166841
0.00900025
0.00864536
0.00915625
0.00984603
0.01059
0.0113342
0.0119157
0.0121463
0.0121053
0.011548
0.0105309
0.00925048
0.00791919
0.00670576
0.0056862
0.00486072
0.00419859
0.00367184
0.00325806
0.00293808
0.00269503
0.00251274
0.0023764
0.00227324
0.00219274
0.00212695
0.0020702
0.00201882
0.00197068
0.00192483
0.00188109
0.00183975
0.00180139
0.00176667
0.00173629
0.00171091
0.00169114
0.00167842
0.00167269
0.00167152
0.00167974
0.00169672
0.00172289
0.00175929
0.00180695
0.00186723
0.00194177
0.00203256
0.00214205
0.00227319
0.00242947
0.00261498
0.00283435
0.00309255
0.0033946
0.00374489
0.00414623
0.00459862
0.00509779
0.00563425
0.00619379
0.00676133
0.00733091
0.00792683
0.00864146
0.00961289
0.0111706
0.0140588
0.0194701
0.0276053
0.0360551
0.0396495
0.0399183
0.033408
0.0226565
0.0126615
0.00597192
0.00275125
0.00338986
0.0189032
0.0101339
0.0096623
0.01015
0.010791
0.0114113
0.0119066
0.012116
0.0120533
0.0116046
0.0106619
0.00941895
0.00806539
0.00678884
0.00569886
0.00481757
0.00411921
0.00356993
0.00314329
0.00281717
0.00257185
0.00238936
0.00225325
0.00214959
0.0020673
0.00199816
0.00193663
0.00187928
0.00182438
0.00177129
0.00172013
0.00167141
0.00162578
0.00158396
0.00154659
0.00151424
0.00148738
0.00146642
0.00145211
0.00144525
0.00144321
0.00144848
0.00146275
0.00148507
0.00151662
0.0015582
0.001611
0.00167647
0.00175643
0.00185315
0.00196944
0.00210874
0.00227523
0.00247391
0.00271055
0.00299154
0.00332352
0.00371256
0.00416293
0.00467528
0.00524456
0.00585827
0.0064965
0.00713618
0.0077632
0.00840016
0.00915436
0.0101786
0.0118828
0.0151782
0.0214308
0.030929
0.0390647
0.0417287
0.0397455
0.0295312
0.0175272
0.00849733
0.00388092
0.0043826
0.0210436
0.0112279
0.010618
0.0110516
0.011606
0.0120348
0.0122135
0.0121357
0.0117625
0.0109035
0.00970718
0.00834343
0.00700135
0.00582412
0.00486557
0.00411195
0.0035266
0.00307645
0.00273567
0.00248157
0.00229377
0.00215421
0.00204757
0.00196196
0.00188879
0.00182242
0.00175962
0.00169884
0.00163974
0.00158263
0.00152812
0.00147697
0.00142986
0.00138736
0.00134995
0.00131796
0.00129164
0.0012712
0.00125698
0.00125004
0.00124778
0.00125144
0.00126365
0.00128291
0.00131035
0.00134659
0.00139267
0.00144985
0.00151972
0.0016043
0.00170615
0.00182846
0.00197522
0.00215135
0.00236283
0.00261672
0.00292108
0.00328445
0.00371497
0.00421865
0.00479696
0.00544382
0.00614288
0.0068672
0.0075843
0.00827228
0.00895746
0.00976059
0.0108736
0.0128447
0.0168369
0.024221
0.035201
0.0419418
0.0432684
0.0367311
0.0235152
0.0117806
0.00533662
0.00545449
0.0230225
0.0122534
0.0114863
0.011838
0.0122608
0.0124469
0.0123925
0.0120135
0.0112523
0.0101155
0.00875423
0.00735236
0.00607527
0.00501564
0.00418314
0.00354358
0.00305712
0.00269181
0.00242158
0.00222324
0.00207661
0.00196482
0.0018748
0.0017973
0.0017264
0.00165882
0.00159315
0.00152917
0.00146734
0.00140837
0.00135302
0.00130196
0.0012557
0.00121459
0.00117886
0.00114864
0.00112399
0.00110494
0.00109163
0.00108508
0.00108289
0.00108567
0.00109622
0.00111299
0.00113693
0.00116858
0.00120882
0.00125872
0.00131968
0.00139344
0.00148225
0.00158895
0.00171717
0.00187146
0.00205757
0.00228258
0.00255506
0.00288496
0.00328313
0.0037601
0.00432397
0.00497698
0.00571129
0.00650506
0.00732169
0.00811726
0.00886436
0.00960259
0.0104623
0.0117281
0.014154
0.0193096
0.0284741
0.0397897
0.0444023
0.04308
0.0305055
0.0159923
0.00715789
0.00656706
0.0247665
0.0131836
0.0122464
0.0124907
0.0127203
0.0127238
0.0123782
0.0117153
0.0106405
0.00929943
0.00784935
0.00646852
0.00528547
0.00434579
0.00362825
0.00308859
0.0026869
0.00239179
0.00217686
0.00201922
0.00189995
0.00180445
0.0017224
0.00164731
0.00157563
0.00150591
0.001438
0.00137241
0.00130993
0.00125132
0.00119722
0.00114808
0.00110418
0.00106563
0.00103246
0.00100463
0.000982064
0.00096469
0.000952516
0.000946489
0.000944441
0.00094666
0.00095581
0.000970473
0.000991428
0.00101916
0.0010544
0.00109808
0.00115138
0.00121583
0.00129335
0.00138642
0.00149822
0.00163282
0.00179546
0.00199279
0.00223321
0.00252702
0.00288645
0.00332503
0.00385618
0.00449028
0.00523006
0.00606464
0.00696392
0.00787763
0.00874712
0.00954267
0.0103344
0.0112713
0.0127917
0.0159876
0.0227684
0.0344322
0.0441487
0.0463409
0.0380134
0.0212823
0.00939244
0.00773465
0.0262337
0.013998
0.0128782
0.012982
0.0130617
0.0128503
0.012261
0.0112789
0.00997569
0.00849787
0.00701918
0.00569771
0.00462067
0.00379475
0.0031791
0.00272548
0.00239465
0.00215552
0.00198196
0.00185233
0.00174995
0.00166297
0.0015839
0.00150867
0.00143559
0.00136444
0.00129579
0.00123043
0.00116915
0.00111258
0.0010611
0.00101493
0.00097411
0.000938584
0.000908223
0.000882872
0.000862382
0.000846625
0.000835513
0.000829968
0.00082805
0.000829793
0.000837707
0.000850549
0.000868938
0.000893312
0.000924303
0.000962709
0.00100955
0.00106613
0.0011341
0.00121559
0.00131335
0.00143093
0.00157295
0.00174542
0.00195611
0.00221496
0.00253441
0.00292939
0.00341671
0.00401311
0.00473136
0.00557388
0.0065244
0.00754031
0.00855226
0.00948444
0.0103139
0.0111461
0.0122091
0.0141962
0.0187324
0.0278636
0.0413617
0.0473719
0.0449234
0.0277249
0.0121127
0.00893142
0.027403
0.0146906
0.013376
0.013332
0.0132637
0.0128288
0.0120025
0.0107735
0.00929641
0.00773911
0.00627587
0.00503561
0.00406567
0.00334329
0.00281627
0.00243535
0.00216216
0.00196611
0.00182216
0.00171081
0.00161808
0.00153498
0.00145653
0.00138058
0.00130673
0.00123547
0.00116764
0.00110403
0.00104527
0.00099173
0.000943565
0.000900768
0.00086321
0.000830701
0.000803023
0.000779961
0.000761327
0.000746972
0.000736778
0.000731574
0.000729733
0.000731006
0.000737809
0.000749049
0.00076522
0.000786721
0.000814098
0.000848046
0.000889447
0.00093942
0.000999389
0.00107118
0.00115714
0.00126035
0.0013848
0.00153578
0.00172024
0.00194733
0.00222891
0.00258004
0.00301904
0.00356669
0.00424353
0.00506453
0.0060301
0.00711444
0.00825525
0.00935589
0.0103205
0.0111466
0.0120391
0.0133523
0.0162266
0.0229827
0.0356564
0.047119
0.0492579
0.0353027
0.0155191
0.0102834
0.028268
0.0152648
0.0137377
0.0135517
0.0133273
0.0127221
0.01165
0.0102301
0.00863047
0.00703968
0.00562176
0.0044726
0.00360459
0.00297405
0.00252289
0.00220223
0.00197469
0.00181071
0.00168715
0.00158713
0.00149952
0.00141794
0.00133943
0.00126321
0.00118966
0.00111958
0.0010538
0.00099297
0.000937451
0.000887384
0.000842718
0.000803278
0.000768824
0.000739084
0.000713795
0.000692719
0.000675655
0.000662454
0.000652999
0.000648001
0.000646181
0.000646976
0.000652771
0.000662593
0.000676836
0.000695864
0.000720159
0.000750328
0.000787142
0.000831573
0.000884849
0.000948541
0.00102467
0.00111587
0.00122558
0.00135839
0.00152039
0.00171975
0.00196733
0.00227746
0.00266854
0.00316315
0.00378682
0.00456434
0.0055119
0.0066247
0.00786129
0.00913158
0.0103069
0.0112783
0.0120394
0.0130479
0.0148816
0.0194334
0.0295254
0.044795
0.0510388
0.0435516
0.0199282
0.0120561
0.0288428
0.0157177
0.0139759
0.0136489
0.0132859
0.0124987
0.0112421
0.00967479
0.00799684
0.00640743
0.00505316
0.00399695
0.00322243
0.00267191
0.00228473
0.00201308
0.00182082
0.00168007
0.0015701
0.00147682
0.00139181
0.00131085
0.00123248
0.00115681
0.0010846
0.00101669
0.000953772
0.000896238
0.000844229
0.000797678
0.00075638
0.000720052
0.000688384
0.00066107
0.000637829
0.000618421
0.000602651
0.000590376
0.00058149
0.000576594
0.000574748
0.000575083
0.000579956
0.00058852
0.000601082
0.000617972
0.00063962
0.000666566
0.00069949
0.000739244
0.000786901
0.000843821
0.00091175
0.00099295
0.00109039
0.00120801
0.0013511
0.00152681
0.00174486
0.00201837
0.00236487
0.00280711
0.00337307
0.0040941
0.00499914
0.00610322
0.00738943
0.0087879
0.0101661
0.0113583
0.0122888
0.0130034
0.0142938
0.0172249
0.0247758
0.0399227
0.051343
0.051022
0.0256204
0.0144334
0.0291278
0.0160546
0.0141022
0.0136352
0.0131601
0.012203
0.0108011
0.00912702
0.00740728
0.00584419
0.00456319
0.00359669
0.00290585
0.00242406
0.00209012
0.00185766
0.00169214
0.00156783
0.0014667
0.00137738
0.00129376
0.00121331
0.00113565
0.00106135
0.000991283
0.000926181
0.000866504
0.000812425
0.000763882
0.000720653
0.00068243
0.000648868
0.000619624
0.000594381
0.000572864
0.00055484
0.000540127
0.00052859
0.000520141
0.000515263
0.000513339
0.000513292
0.000517312
0.000524758
0.000535847
0.000550877
0.000570237
0.000594413
0.00062401
0.000659787
0.000702688
0.00075391
0.00081497
0.000887829
0.000975048
0.00108002
0.00120732
0.00136315
0.00155605
0.00179777
0.00210443
0.00249781
0.00300633
0.0036649
0.00451163
0.00557891
0.00687617
0.00836425
0.00992866
0.0113779
0.0125316
0.0132881
0.0141268
0.0160691
0.0213472
0.0337534
0.0507549
0.0554825
0.03318
0.0173697
0.0291104
0.0162729
0.0141267
0.0135564
0.0129381
0.0118579
0.0103458
0.00860059
0.00686803
0.00534794
0.00414351
0.00326056
0.00264331
0.00221992
0.00192975
0.00172815
0.00158258
0.00146975
0.00137432
0.00128739
0.00120475
0.00112512
0.00104876
0.000976468
0.000909049
0.000847048
0.000790704
0.000739987
0.000694682
0.000654464
0.000618963
0.000587802
0.000560632
0.000537143
0.000517068
0.000500194
0.00048635
0.000475416
0.000467315
0.000462376
0.000460281
0.000460023
0.000463237
0.000469689
0.000479482
0.000492886
0.000510254
0.000532025
0.00055875
0.000591108
0.000629948
0.000676328
0.00073159
0.000797447
0.000876126
0.000970567
0.00108471
0.00122395
0.0013957
0.00161033
0.00188235
0.00223192
0.00268653
0.00328213
0.00406222
0.00507207
0.00634421
0.00787231
0.00957583
0.0112736
0.0127092
0.0136502
0.0142433
0.0155705
0.019075
0.028615
0.04757
0.0573818
0.0425742
0.0207469
0.0289528
0.0164118
0.0140897
0.0133864
0.0126574
0.0114803
0.00989036
0.00810462
0.00638137
0.0049144
0.00378557
0.00297851
0.00242514
0.00205086
0.0017963
0.00161877
0.00148793
0.00138307
0.00129137
0.00120605
0.00112439
0.00104596
0.000971393
0.000901516
0.000836984
0.000778135
0.00072501
0.00067742
0.000635042
0.000597486
0.00056435
0.000535251
0.000509846
0.000487837
0.000468977
0.000453063
0.000439944
0.000429506
0.000421681
0.000416663
0.000414402
0.000413964
0.000416467
0.000422035
0.000430685
0.000442659
0.000458278
0.000477946
0.000502165
0.000531555
0.000566885
0.000609109
0.000659425
0.000719351
0.000790845
0.00087647
0.000979652
0.00110505
0.00125912
0.00145093
0.00169332
0.00200458
0.00241042
0.0029461
0.00365749
0.00459852
0.0058207
0.00734935
0.00914427
0.011052
0.0127867
0.0140632
0.0146859
0.0154457
0.0178266
0.0251684
0.0422286
0.0577372
0.0522661
0.0241422
0.0286044
0.0164903
0.0139899
0.0131532
0.0123332
0.0110845
0.00944557
0.00764461
0.00594687
0.00453817
0.00348122
0.00274183
0.00224332
0.00191002
0.0016842
0.00152528
0.00140528
0.00130598
0.00121683
0.0011328
0.00105227
0.000975401
0.000902951
0.000835682
0.000774069
0.000718257
0.00066812
0.000623356
0.000583568
0.000548333
0.000517237
0.000489903
0.000466001
0.00044525
0.000427418
0.000412322
0.000399816
0.000389799
0.000382203
0.000377112
0.000374699
0.000374097
0.000375988
0.00038077
0.00038841
0.000399121
0.000413195
0.000431008
0.000453022
0.000479809
0.000512073
0.000550687
0.000596735
0.000651584
0.000716974
0.000795168
0.000889162
0.00100301
0.00114233
0.00131502
0.00153238
0.00181072
0.00217355
0.00265431
0.00329884
0.00416579
0.00532052
0.00681619
0.00865566
0.0107355
0.0127951
0.0144079
0.0151931
0.015688
0.0172358
0.0223194
0.0368789
0.0569409
0.0601249
0.0267672
0.0280643
0.0164883
0.0138225
0.0128752
0.0119797
0.0106822
0.00901903
0.00722331
0.00556239
0.00421347
0.00322302
0.00254312
0.00209132
0.00179197
0.0015892
0.00144462
0.0013326
0.00123725
0.00114999
0.00106716
0.000987967
0.000912885
0.000842714
0.000778082
0.000719281
0.000666291
0.000618859
0.000576601
0.00053908
0.000505853
0.000476511
0.00045069
0.000428074
0.000408402
0.000391455
0.000377062
0.000365089
0.000355438
0.000348047
0.000342905
0.000340353
0.000339601
0.000340972
0.000345058
0.000351804
0.000361395
0.0003741
0.000390265
0.000410323
0.000434804
0.000464363
0.000499806
0.00054213
0.00059258
0.000652728
0.000724596
0.000810835
0.000915007
0.00104201
0.00119872
0.00139505
0.00164542
0.00197101
0.00240278
0.00298495
0.0037777
0.00485522
0.00629234
0.0081305
0.0103184
0.0126406
0.0146853
0.0157565
0.0162148
0.0170649
0.020556
0.0318726
0.0546753
0.0640566
0.0279325
0.0273613
0.0164566
0.0136196
0.0125664
0.011609
0.0102825
0.00861587
0.00684143
0.00522477
0.00393462
0.00300445
0.0023762
0.00196387
0.00169247
0.00150811
0.00137457
0.00126847
0.00117601
0.00109027
0.00100866
0.000930951
0.000857788
0.000789924
0.000727837
0.000671657
0.000621226
0.0005762
0.000536141
0.000500588
0.000469096
0.000441266
0.000416747
0.000395241
0.000376502
0.000360326
0.000346549
0.000335045
0.000325719
0.00031851
0.000313382
0.000310684
0.000309795
0.000310726
0.000314201
0.000320155
0.00032875
0.000340236
0.000354933
0.000373245
0.00039567
0.000422821
0.000455451
0.000494488
0.000541083
0.000596676
0.0006631
0.000742732
0.00083873
0.000955397
0.00109876
0.00127749
0.00150427
0.001798
0.00218688
0.00271253
0.00343438
0.00443147
0.00579509
0.00760126
0.00985227
0.0123888
0.0148108
0.0163048
0.0168562
0.0172511
0.0196431
0.0285565
0.0505566
0.0654587
0.0281195
0.0265347
0.0163818
0.0133909
0.0122384
0.0112312
0.00989219
0.00823917
0.00649833
0.00493037
0.00369631
0.00281984
0.00223596
0.00185671
0.00160821
0.00143852
0.00131349
0.00121184
0.0011216
0.00103718
0.000956826
0.000880676
0.000809457
0.000743828
0.00068412
0.000630323
0.000582176
0.000539266
0.000501122
0.000467274
0.000437281
0.000410757
0.000387366
0.000366827
0.000348904
0.000333405
0.000320176
0.000309093
0.000300064
0.000293027
0.000287946
0.000285113
0.0002841
0.000284665
0.000287603
0.000292857
0.000300568
0.000310966
0.00032435
0.000341099
0.000361681
0.000386674
0.000416789
0.000452898
0.000496078
0.000547668
0.000609353
0.000683294
0.000772328
0.000880278
0.00101245
0.00117645
0.00138343
0.00165014
0.00200197
0.00247736
0.00313334
0.00405025
0.00532998
0.00707638
0.009343
0.0120427
0.014844
0.0168526
0.0175837
0.0178228
0.0192391
0.0259935
0.0459941
0.0654875
0.0275629
0.0256197
0.0162781
0.0131469
0.0119013
0.0108544
0.00951647
0.00789055
0.00619244
0.00467537
0.0034937
0.0026644
0.00211821
0.00176648
0.00153664
0.00137859
0.00126016
0.00116191
0.00107343
0.000990225
0.000911152
0.000836581
0.000767252
0.00070372
0.000646182
0.000594517
0.000548381
0.000507317
0.000470835
0.000438461
0.000409766
0.000384375
0.000361967
0.000342273
0.000325071
0.000310175
0.000297437
0.000286737
0.000277984
0.000271114
0.000266089
0.000263143
0.000262018
0.000262282
0.000264753
0.000269388
0.000276314
0.000285742
0.000297951
0.000313297
0.000332222
0.000355274
0.000383127
0.000416609
0.000456737
0.000504771
0.000562282
0.000631267
0.000714308
0.000814842
0.000937588
0.00108925
0.00127964
0.00152356
0.00184372
0.00227518
0.00287161
0.00371223
0.00490502
0.00657503
0.00881926
0.0116156
0.0147114
0.0173085
0.0183367
0.0185172
0.0191421
0.0241404
0.0417772
0.0633673
0.0266685
0.0246445
0.0161601
0.0128964
0.0115634
0.010485
0.00915889
0.00757047
0.00592165
0.00445595
0.00332249
0.00253411
0.00201955
0.00169048
0.00147573
0.00132693
0.00121363
0.00111803
0.00103103
0.000948963
0.000871155
0.000798121
0.000730572
0.000668957
0.000613364
0.000563577
0.000519197
0.000479734
0.000444688
0.00041359
0.00038602
0.000361614
0.000340066
0.000321118
0.000304554
0.000290197
0.000277903
0.000267553
0.000259057
0.000252349
0.000247386
0.000244341
0.000243111
0.000243138
0.000245202
0.000249292
0.000255522
0.000264085
0.000275243
0.000289329
0.000306763
0.000328066
0.000353879
0.000384991
0.000422372
0.00046722
0.00052102
0.000585639
0.000663465
0.000757632
0.000872381
0.00101367
0.00119017
0.00141495
0.0017082
0.00210163
0.00264496
0.00341445
0.00452035
0.00610342
0.00829969
0.0111486
0.0144489
0.0176134
0.0191312
0.0193917
0.019478
0.0228588
0.0380118
0.0603852
0.0255584
0.0236163
0.0160454
0.0126495
0.0112319
0.0101283
0.00882187
0.0072787
0.00568346
0.00426864
0.00317898
0.0024256
0.00193721
0.00162657
0.00142393
0.00128243
0.00117315
0.00107968
0.000993932
0.000912949
0.000836365
0.000764783
0.000698867
0.000638971
0.000585091
0.000536942
0.00049408
0.000455998
0.000422191
0.000392195
0.0003656
0.000342054
0.00032126
0.000302969
0.000286973
0.000273099
0.000261205
0.000251175
0.000242918
0.000236365
0.000231473
0.000228342
0.000226979
0.000226853
0.000228559
0.000232167
0.00023778
0.000245575
0.000255793
0.000268752
0.000284846
0.000304571
0.00032854
0.000357509
0.000392408
0.000434384
0.000484854
0.000545588
0.000618828
0.00070747
0.00081538
0.000947905
0.00111275
0.00132148
0.00159204
0.00195288
0.00244958
0.00315426
0.00417626
0.00566619
0.00779302
0.0106622
0.0141551
0.0177469
0.019888
0.0203222
0.0201408
0.0222181