/*--------------------------------*- C++ -*----------------------------------*\
  =========                 |
  \\      /  F ield         | OpenFOAM: The Open Source CFD Toolbox
   \\    /   O peration     | Website:  https://openfoam.org
    \\  /    A nd           | Version:  13
     \\/     M anipulation  |
\*---------------------------------------------------------------------------*/
FoamFile
{
    format      ascii;
    class       volScalarField;
    location    "6.2";
    object      nut;
}
// * * * * * * * * * * * * * * * * * * * * * * * * * * * * * * * * * * * * * //

dimensions      [0 2 -1 0 0 0 0];

internalField   nonuniform List<scalar> 
6400
(
8.88002e-10
4.5601e-09
1.10574e-08
1.78401e-08
2.2986e-08
2.58903e-08
2.6947e-08
2.70319e-08
2.71522e-08
2.80956e-08
3.04542e-08
3.51804e-08
4.27405e-08
5.33134e-08
6.63992e-08
8.12903e-08
9.725e-08
1.13923e-07
1.30623e-07
1.46843e-07
1.63036e-07
1.80514e-07
2.01091e-07
2.26083e-07
2.54779e-07
2.84313e-07
3.13565e-07
3.42531e-07
3.72025e-07
4.0287e-07
4.34833e-07
4.66642e-07
4.97928e-07
5.28539e-07
5.59403e-07
5.90667e-07
6.23054e-07
6.56774e-07
6.92284e-07
7.29728e-07
7.69372e-07
8.11511e-07
8.56405e-07
9.04672e-07
9.56538e-07
1.0136e-06
1.07872e-06
1.1582e-06
1.24421e-06
1.32967e-06
1.41513e-06
1.49799e-06
1.5767e-06
1.64855e-06
1.71121e-06
1.76149e-06
1.79025e-06
1.80252e-06
1.80416e-06
1.77488e-06
1.71844e-06
1.63496e-06
1.5256e-06
1.39343e-06
1.24269e-06
1.07976e-06
9.1328e-07
7.49929e-07
5.95956e-07
4.57378e-07
3.45567e-07
2.51656e-07
1.7565e-07
1.17361e-07
7.5363e-08
4.6735e-08
2.80625e-08
1.60528e-08
7.56584e-09
1.60864e-09
4.3009e-09
3.05999e-07
1.10146e-06
1.86566e-06
2.43495e-06
2.77134e-06
2.92521e-06
2.97723e-06
3.00993e-06
3.08025e-06
3.26038e-06
3.62049e-06
4.1324e-06
4.73559e-06
5.36901e-06
5.96896e-06
6.49096e-06
6.89026e-06
7.14808e-06
7.27487e-06
7.33911e-06
7.41164e-06
7.55716e-06
7.81185e-06
8.12842e-06
8.3671e-06
8.57226e-06
8.7989e-06
9.09222e-06
9.49047e-06
1.00135e-05
1.05858e-05
1.12112e-05
1.18529e-05
1.25326e-05
1.32347e-05
1.39691e-05
1.47304e-05
1.55245e-05
1.6349e-05
1.71986e-05
1.80767e-05
1.89747e-05
1.99281e-05
2.0904e-05
2.1878e-05
2.28159e-05
2.36743e-05
2.45119e-05
2.53897e-05
2.62668e-05
2.71452e-05
2.80034e-05
2.88238e-05
2.95829e-05
3.03177e-05
3.083e-05
3.11206e-05
3.13724e-05
3.13946e-05
3.11004e-05
3.04914e-05
2.95656e-05
2.82892e-05
2.66753e-05
2.4758e-05
2.26463e-05
2.03635e-05
1.79385e-05
1.53579e-05
1.24838e-05
9.68901e-06
7.2139e-06
5.16485e-06
3.57629e-06
2.42411e-06
1.61396e-06
1.03774e-06
4.67798e-07
8.50975e-09
9.41945e-09
7.96782e-07
3.23839e-06
5.65853e-06
7.52269e-06
8.73649e-06
9.41745e-06
9.75626e-06
9.95943e-06
1.02037e-05
1.06096e-05
1.12647e-05
1.21455e-05
1.31553e-05
1.41688e-05
1.50679e-05
1.58026e-05
1.63474e-05
1.6699e-05
1.68704e-05
1.68814e-05
1.68144e-05
1.67523e-05
1.67379e-05
1.68048e-05
1.70326e-05
1.73551e-05
1.76677e-05
1.80032e-05
1.83584e-05
1.87922e-05
1.94029e-05
2.03422e-05
2.13031e-05
2.23994e-05
2.35534e-05
2.4789e-05
2.60568e-05
2.7369e-05
2.87669e-05
3.01527e-05
3.15622e-05
3.29747e-05
3.43121e-05
3.55941e-05
3.68386e-05
3.80482e-05
3.92618e-05
4.0481e-05
4.17078e-05
4.29256e-05
4.41287e-05
4.52997e-05
4.64209e-05
4.7467e-05
4.84066e-05
4.91908e-05
4.97928e-05
5.00739e-05
5.02877e-05
5.0171e-05
4.9737e-05
4.89713e-05
4.77245e-05
4.59383e-05
4.35769e-05
4.0859e-05
3.77798e-05
3.43501e-05
3.06156e-05
2.66151e-05
2.24828e-05
1.84159e-05
1.4618e-05
1.12685e-05
8.43393e-06
6.17685e-06
4.23952e-06
1.76088e-06
2.27246e-08
1.63734e-08
1.30867e-06
5.10484e-06
8.76931e-06
1.16161e-05
1.35752e-05
1.47913e-05
1.54776e-05
1.58959e-05
1.62551e-05
1.67539e-05
1.75157e-05
1.85211e-05
1.96301e-05
2.06774e-05
2.15495e-05
2.21825e-05
2.25701e-05
2.27386e-05
2.27429e-05
2.26458e-05
2.25514e-05
2.25289e-05
2.26222e-05
2.26759e-05
2.26873e-05
2.26008e-05
2.29211e-05
2.35854e-05
2.44866e-05
2.57403e-05
2.69221e-05
2.81119e-05
2.9356e-05
3.06533e-05
3.1936e-05
3.32145e-05
3.45486e-05
3.58478e-05
3.71135e-05
3.83474e-05
3.95555e-05
4.07268e-05
4.18542e-05
4.29413e-05
4.39878e-05
4.5038e-05
4.60878e-05
4.71363e-05
4.81795e-05
4.92088e-05
5.0216e-05
5.11884e-05
5.21102e-05
5.29618e-05
5.372e-05
5.43576e-05
5.48476e-05
5.51477e-05
5.52476e-05
5.51383e-05
5.47304e-05
5.39435e-05
5.31698e-05
5.19773e-05
5.01238e-05
4.7816e-05
4.50029e-05
4.17742e-05
3.81825e-05
3.42675e-05
3.00899e-05
2.57511e-05
2.14119e-05
1.72738e-05
1.35118e-05
1.02339e-05
7.15448e-06
2.95451e-06
3.77089e-08
2.62823e-08
1.96754e-06
7.11226e-06
1.18419e-05
1.53863e-05
1.77791e-05
1.92478e-05
2.00682e-05
2.05451e-05
2.0989e-05
2.16511e-05
2.26191e-05
2.37918e-05
2.49706e-05
2.59753e-05
2.67035e-05
2.71312e-05
2.72931e-05
2.72398e-05
2.70898e-05
2.68445e-05
2.66772e-05
2.65225e-05
2.59005e-05
2.57643e-05
2.61812e-05
2.70977e-05
2.81916e-05
2.93395e-05
3.06106e-05
3.18602e-05
3.30766e-05
3.42796e-05
3.54466e-05
3.65481e-05
3.75622e-05
3.85731e-05
3.95463e-05
4.03754e-05
4.11572e-05
4.18578e-05
4.25029e-05
4.31145e-05
4.37113e-05
4.4319e-05
4.49501e-05
4.55734e-05
4.62046e-05
4.68437e-05
4.7495e-05
4.81606e-05
4.8841e-05
4.95351e-05
5.02389e-05
5.09454e-05
5.16445e-05
5.23191e-05
5.29431e-05
5.34832e-05
5.38882e-05
5.4062e-05
5.40282e-05
5.36014e-05
5.25675e-05
5.17278e-05
5.06737e-05
4.8908e-05
4.66373e-05
4.3938e-05
4.08652e-05
3.74508e-05
3.37165e-05
2.96925e-05
2.54596e-05
2.12132e-05
1.71334e-05
1.32964e-05
9.32796e-06
3.78198e-06
4.79459e-08
4.04468e-08
2.8575e-06
9.48985e-06
1.5214e-05
1.92591e-05
2.18402e-05
2.33285e-05
2.412e-05
2.46236e-05
2.52074e-05
2.60813e-05
2.7228e-05
2.84636e-05
2.95679e-05
3.03822e-05
3.08413e-05
3.09598e-05
3.08596e-05
3.0458e-05
3.0133e-05
2.96919e-05
2.87484e-05
2.85488e-05
2.91557e-05
3.00783e-05
3.10806e-05
3.22117e-05
3.33409e-05
3.44389e-05
3.54897e-05
3.64057e-05
3.72882e-05
3.81055e-05
3.88093e-05
3.93904e-05
3.99023e-05
4.03178e-05
4.07226e-05
4.10372e-05
4.13056e-05
4.15455e-05
4.17718e-05
4.1974e-05
4.21643e-05
4.23475e-05
4.25244e-05
4.26981e-05
4.28784e-05
4.30737e-05
4.32936e-05
4.35506e-05
4.38565e-05
4.4224e-05
4.46642e-05
4.51817e-05
4.5767e-05
4.64302e-05
4.71549e-05
4.79111e-05
4.86446e-05
4.93265e-05
4.98514e-05
5.00654e-05
5.00255e-05
4.91854e-05
4.87419e-05
4.75779e-05
4.58513e-05
4.36397e-05
4.1036e-05
3.81026e-05
3.4872e-05
3.13322e-05
2.74466e-05
2.33432e-05
1.91704e-05
1.50564e-05
1.05877e-05
4.17089e-06
5.15686e-08
6.01443e-08
4.02334e-06
1.22746e-05
1.889e-05
2.32509e-05
2.58353e-05
2.72051e-05
2.79094e-05
2.84505e-05
2.91819e-05
3.02084e-05
3.14056e-05
3.25451e-05
3.34236e-05
3.39321e-05
3.40586e-05
3.36328e-05
3.31961e-05
3.27895e-05
3.16233e-05
3.12392e-05
3.16039e-05
3.24318e-05
3.31487e-05
3.40218e-05
3.48992e-05
3.57816e-05
3.65629e-05
3.72606e-05
3.78915e-05
3.84428e-05
3.89053e-05
3.92716e-05
3.95448e-05
3.97445e-05
3.98902e-05
3.99855e-05
4.00502e-05
4.00596e-05
4.0059e-05
4.00518e-05
4.00013e-05
3.99463e-05
3.98665e-05
3.97825e-05
3.96788e-05
3.95679e-05
3.94456e-05
3.93239e-05
3.92056e-05
3.91026e-05
3.9032e-05
3.90178e-05
3.90962e-05
3.93217e-05
3.96583e-05
4.01557e-05
4.08494e-05
4.17136e-05
4.26659e-05
4.37144e-05
4.47412e-05
4.57197e-05
4.62568e-05
4.64168e-05
4.58371e-05
4.57497e-05
4.45756e-05
4.27631e-05
4.04584e-05
3.77753e-05
3.48248e-05
3.16542e-05
2.8203e-05
2.43343e-05
2.03039e-05
1.59616e-05
1.08871e-05
4.15819e-06
5.00238e-08
8.65722e-08
5.48653e-06
1.54024e-05
2.27682e-05
2.72705e-05
2.97302e-05
3.09186e-05
3.15303e-05
3.2108e-05
3.29296e-05
3.39822e-05
3.50667e-05
3.59464e-05
3.64516e-05
3.65446e-05
3.60464e-05
3.55857e-05
3.46349e-05
3.3842e-05
3.37051e-05
3.41941e-05
3.45743e-05
3.51694e-05
3.57715e-05
3.65125e-05
3.71445e-05
3.77189e-05
3.81755e-05
3.85525e-05
3.88447e-05
3.90586e-05
3.92018e-05
3.92853e-05
3.9324e-05
3.93324e-05
3.93182e-05
3.92841e-05
3.9235e-05
3.91698e-05
3.90999e-05
3.89833e-05
3.89052e-05
3.88228e-05
3.86501e-05
3.852e-05
3.83506e-05
3.818e-05
3.79918e-05
3.77882e-05
3.75662e-05
3.73264e-05
3.70668e-05
3.67842e-05
3.64751e-05
3.61316e-05
3.58995e-05
3.58364e-05
3.603e-05
3.66528e-05
3.74501e-05
3.85553e-05
3.98607e-05
4.12077e-05
4.25169e-05
4.34353e-05
4.37489e-05
4.34487e-05
4.35114e-05
4.21767e-05
4.01614e-05
3.75869e-05
3.46413e-05
3.15108e-05
2.82829e-05
2.47756e-05
2.07821e-05
1.64368e-05
1.10423e-05
4.04735e-06
4.64594e-08
1.20597e-07
7.23332e-06
1.87858e-05
2.6698e-05
3.12234e-05
3.34853e-05
3.44713e-05
3.49881e-05
3.55627e-05
3.63716e-05
3.73066e-05
3.81353e-05
3.8647e-05
3.86128e-05
3.81345e-05
3.76362e-05
3.63741e-05
3.58374e-05
3.58388e-05
3.58671e-05
3.61041e-05
3.65319e-05
3.70361e-05
3.75184e-05
3.79916e-05
3.83389e-05
3.86189e-05
3.88054e-05
3.8939e-05
3.90191e-05
3.90661e-05
3.90903e-05
3.91037e-05
3.91131e-05
3.91214e-05
3.91288e-05
3.91335e-05
3.91336e-05
3.91231e-05
3.90849e-05
3.90561e-05
3.90346e-05
3.894e-05
3.88557e-05
3.87537e-05
3.86274e-05
3.84835e-05
3.8316e-05
3.81254e-05
3.7906e-05
3.76558e-05
3.73704e-05
3.70429e-05
3.66666e-05
3.62291e-05
3.57272e-05
3.51662e-05
3.45553e-05
3.39241e-05
3.38962e-05
3.44202e-05
3.55229e-05
3.68965e-05
3.85242e-05
4.01401e-05
4.1333e-05
4.17568e-05
4.17165e-05
4.18125e-05
4.03078e-05
3.79795e-05
3.50052e-05
3.16625e-05
2.82287e-05
2.47797e-05
2.09798e-05
1.64809e-05
1.07894e-05
3.76013e-06
4.25467e-08
1.626e-07
9.19612e-06
2.22654e-05
3.05923e-05
3.50483e-05
3.70709e-05
3.78434e-05
3.82405e-05
3.87375e-05
3.94134e-05
4.00989e-05
4.05636e-05
4.04232e-05
3.99083e-05
3.9359e-05
3.82402e-05
3.76783e-05
3.74243e-05
3.71401e-05
3.72832e-05
3.75288e-05
3.78712e-05
3.81989e-05
3.84738e-05
3.86912e-05
3.88219e-05
3.89163e-05
3.89716e-05
3.90221e-05
3.90703e-05
3.91316e-05
3.92069e-05
3.92976e-05
3.93993e-05
3.95062e-05
3.96096e-05
3.97019e-05
3.97892e-05
3.98398e-05
3.98646e-05
3.98984e-05
3.98764e-05
3.98315e-05
3.97652e-05
3.9671e-05
3.95529e-05
3.94122e-05
3.92505e-05
3.90702e-05
3.88735e-05
3.86541e-05
3.84033e-05
3.81113e-05
3.77609e-05
3.73419e-05
3.68309e-05
3.62109e-05
3.5469e-05
3.46158e-05
3.37259e-05
3.28469e-05
3.24685e-05
3.32248e-05
3.46242e-05
3.64064e-05
3.8257e-05
3.97661e-05
4.03296e-05
4.0396e-05
4.04551e-05
3.87171e-05
3.599e-05
3.2527e-05
2.8707e-05
2.48744e-05
2.09787e-05
1.64639e-05
1.05981e-05
3.51539e-06
3.94796e-08
2.13102e-07
1.1222e-05
2.56978e-05
3.43661e-05
3.86982e-05
4.04574e-05
4.09973e-05
4.12249e-05
4.15507e-05
4.19767e-05
4.23052e-05
4.20783e-05
4.14804e-05
4.08622e-05
3.99169e-05
3.92149e-05
3.86404e-05
3.82826e-05
3.81546e-05
3.82904e-05
3.84501e-05
3.86415e-05
3.87847e-05
3.88863e-05
3.89533e-05
3.89985e-05
3.90579e-05
3.91353e-05
3.92486e-05
3.93927e-05
3.95683e-05
3.97643e-05
3.99724e-05
4.018e-05
4.03943e-05
4.05906e-05
4.07143e-05
4.08322e-05
4.09703e-05
4.10266e-05
4.10735e-05
4.10727e-05
4.10466e-05
4.0987e-05
4.08967e-05
4.07768e-05
4.06287e-05
4.04535e-05
4.0252e-05
4.00245e-05
3.97709e-05
3.94915e-05
3.91859e-05
3.88533e-05
3.84911e-05
3.80897e-05
3.75841e-05
3.69321e-05
3.61038e-05
3.50986e-05
3.3956e-05
3.27875e-05
3.17325e-05
3.15603e-05
3.28926e-05
3.46052e-05
3.67311e-05
3.84871e-05
3.91678e-05
3.92286e-05
3.92195e-05
3.7155e-05
3.39505e-05
2.9949e-05
2.56083e-05
2.1273e-05
1.65083e-05
1.05881e-05
3.47832e-06
3.87986e-08
2.7501e-07
1.30846e-05
2.89842e-05
3.79576e-05
4.21353e-05
4.3612e-05
4.38868e-05
4.38778e-05
4.3935e-05
4.40081e-05
4.36751e-05
4.29681e-05
4.22953e-05
4.14119e-05
4.06277e-05
3.97157e-05
3.92202e-05
3.8928e-05
3.88479e-05
3.88995e-05
3.89438e-05
3.90001e-05
3.90287e-05
3.90624e-05
3.91148e-05
3.92063e-05
3.93517e-05
3.95468e-05
3.97898e-05
4.00656e-05
4.03633e-05
4.06672e-05
4.09832e-05
4.12915e-05
4.15499e-05
4.17337e-05
4.19291e-05
4.21341e-05
4.22626e-05
4.2358e-05
4.24198e-05
4.24417e-05
4.24304e-05
4.23826e-05
4.23006e-05
4.2185e-05
4.20371e-05
4.18577e-05
4.16478e-05
4.14078e-05
4.11375e-05
4.08363e-05
4.05021e-05
4.01319e-05
3.97223e-05
3.927e-05
3.87733e-05
3.82287e-05
3.7586e-05
3.67379e-05
3.56361e-05
3.43466e-05
3.29312e-05
3.15843e-05
3.05512e-05
3.14101e-05
3.31381e-05
3.54411e-05
3.73424e-05
3.80611e-05
3.81147e-05
3.78935e-05
3.53952e-05
3.16492e-05
2.70966e-05
2.21819e-05
1.70381e-05
1.08911e-05
3.64924e-06
4.05949e-08
3.4413e-07
1.49345e-05
3.2115e-05
4.13328e-05
4.53294e-05
4.65013e-05
4.64673e-05
4.61472e-05
4.58441e-05
4.53369e-05
4.44879e-05
4.37769e-05
4.28755e-05
4.19814e-05
4.08209e-05
4.00516e-05
3.96096e-05
3.93463e-05
3.92409e-05
3.9198e-05
3.91619e-05
3.91586e-05
3.91792e-05
3.9259e-05
3.94036e-05
3.96207e-05
3.99036e-05
4.02373e-05
4.06072e-05
4.09949e-05
4.13868e-05
4.17827e-05
4.21624e-05
4.25021e-05
4.27833e-05
4.30551e-05
4.32799e-05
4.34883e-05
4.36698e-05
4.37938e-05
4.38815e-05
4.39299e-05
4.39395e-05
4.39097e-05
4.38411e-05
4.37341e-05
4.35896e-05
4.34086e-05
4.31925e-05
4.29422e-05
4.26586e-05
4.23416e-05
4.19898e-05
4.15998e-05
4.11658e-05
4.06805e-05
4.01357e-05
3.95256e-05
3.88514e-05
3.81177e-05
3.72363e-05
3.60941e-05
3.46798e-05
3.3081e-05
3.14805e-05
3.0199e-05
3.02124e-05
3.194e-05
3.43101e-05
3.62773e-05
3.69792e-05
3.6885e-05
3.62925e-05
3.32324e-05
2.89384e-05
2.37805e-05
1.81766e-05
1.17889e-05
4.15024e-06
4.73878e-08
4.18423e-07
1.67345e-05
3.50469e-05
4.44589e-05
4.82547e-05
4.90981e-05
4.87062e-05
4.80008e-05
4.72047e-05
4.61484e-05
4.53915e-05
4.43162e-05
4.33e-05
4.19703e-05
4.09187e-05
4.02453e-05
3.98269e-05
3.95612e-05
3.94151e-05
3.93223e-05
3.92794e-05
3.93098e-05
3.9416e-05
3.96168e-05
3.9902e-05
4.02627e-05
4.06787e-05
4.11303e-05
4.15997e-05
4.20711e-05
4.25334e-05
4.29776e-05
4.33912e-05
4.37687e-05
4.41187e-05
4.44457e-05
4.47237e-05
4.49475e-05
4.51366e-05
4.53449e-05
4.54616e-05
4.55457e-05
4.55847e-05
4.55785e-05
4.55269e-05
4.54294e-05
4.52864e-05
4.50989e-05
4.48686e-05
4.45979e-05
4.42893e-05
4.39452e-05
4.35672e-05
4.31548e-05
4.27045e-05
4.22086e-05
4.16546e-05
4.10264e-05
4.0308e-05
3.94918e-05
3.85894e-05
3.75789e-05
3.6375e-05
3.48412e-05
3.31166e-05
3.13736e-05
2.98502e-05
2.92791e-05
3.09178e-05
3.33125e-05
3.52224e-05
3.57878e-05
3.55079e-05
3.42005e-05
3.05795e-05
2.56391e-05
1.98189e-05
1.31104e-05
5.05569e-06
6.29364e-08
4.95482e-07
1.84442e-05
3.77402e-05
4.73109e-05
5.08943e-05
5.1392e-05
5.0604e-05
4.94598e-05
4.81177e-05
4.7258e-05
4.58374e-05
4.46884e-05
4.31856e-05
4.18853e-05
4.0934e-05
4.03169e-05
3.99061e-05
3.96378e-05
3.94832e-05
3.94111e-05
3.94378e-05
3.95742e-05
3.98169e-05
4.01623e-05
4.05876e-05
4.10733e-05
4.15956e-05
4.21359e-05
4.26786e-05
4.32118e-05
4.37273e-05
4.42188e-05
4.46818e-05
4.51157e-05
4.55212e-05
4.5894e-05
4.62426e-05
4.65609e-05
4.67681e-05
4.69827e-05
4.72043e-05
4.73188e-05
4.73992e-05
4.74225e-05
4.73921e-05
4.73055e-05
4.71625e-05
4.69636e-05
4.67105e-05
4.64061e-05
4.60545e-05
4.56609e-05
4.52307e-05
4.47686e-05
4.42772e-05
4.3755e-05
4.31939e-05
4.25773e-05
4.18799e-05
4.10704e-05
4.01218e-05
3.90311e-05
3.77983e-05
3.636e-05
3.47822e-05
3.29951e-05
3.11536e-05
2.93905e-05
2.84879e-05
3.00132e-05
3.24482e-05
3.41203e-05
3.43902e-05
3.4057e-05
3.16181e-05
2.72498e-05
2.15641e-05
1.46787e-05
6.05865e-06
8.65813e-08
5.72876e-07
2.00282e-05
4.01687e-05
4.98787e-05
5.32423e-05
5.33979e-05
5.21564e-05
5.0544e-05
4.94062e-05
4.76324e-05
4.62286e-05
4.45412e-05
4.29892e-05
4.17522e-05
4.08802e-05
4.02978e-05
3.99026e-05
3.96604e-05
3.95517e-05
3.9566e-05
3.97146e-05
3.99906e-05
4.03783e-05
4.08574e-05
4.13999e-05
4.19839e-05
4.25881e-05
4.31976e-05
4.38011e-05
4.43912e-05
4.49631e-05
4.55136e-05
4.60406e-05
4.65431e-05
4.70188e-05
4.74639e-05
4.78756e-05
4.82738e-05
4.85808e-05
4.88039e-05
4.9097e-05
4.92799e-05
4.94011e-05
4.94624e-05
4.9458e-05
4.93866e-05
4.92462e-05
4.90364e-05
4.87581e-05
4.84137e-05
4.80077e-05
4.75466e-05
4.70386e-05
4.64932e-05
4.592e-05
4.53263e-05
4.47149e-05
4.40797e-05
4.34025e-05
4.26495e-05
4.17723e-05
4.07165e-05
3.94871e-05
3.81058e-05
3.62224e-05
3.44812e-05
3.27387e-05
3.07842e-05
2.87739e-05
2.77131e-05
2.92064e-05
3.16493e-05
3.2941e-05
3.28029e-05
3.19388e-05
2.83254e-05
2.30544e-05
1.62424e-05
7.07048e-06
1.16376e-07
6.49073e-07
2.14395e-05
4.23251e-05
5.21933e-05
5.52748e-05
5.4927e-05
5.33569e-05
5.17684e-05
4.97606e-05
4.80058e-05
4.61132e-05
4.42954e-05
4.27526e-05
4.15879e-05
4.07781e-05
4.02315e-05
3.98798e-05
3.97056e-05
3.96931e-05
3.98349e-05
4.01254e-05
4.0542e-05
4.1059e-05
4.16488e-05
4.22848e-05
4.29472e-05
4.36198e-05
4.42923e-05
4.49579e-05
4.56125e-05
4.62533e-05
4.6878e-05
4.74844e-05
4.80692e-05
4.86285e-05
4.91571e-05
4.96502e-05
5.01346e-05
5.05414e-05
5.08014e-05
5.11459e-05
5.14136e-05
5.15771e-05
5.16819e-05
5.17086e-05
5.16584e-05
5.15271e-05
5.13132e-05
5.10158e-05
5.06362e-05
5.01775e-05
4.96456e-05
4.90493e-05
4.84004e-05
4.77131e-05
4.70028e-05
4.62833e-05
4.55634e-05
4.48415e-05
4.40999e-05
4.32986e-05
4.23725e-05
4.12361e-05
3.99017e-05
3.8281e-05
3.60595e-05
3.40639e-05
3.23379e-05
3.02548e-05
2.80386e-05
2.69933e-05
2.84683e-05
3.07001e-05
3.17247e-05
3.09153e-05
2.87696e-05
2.41262e-05
1.76024e-05
7.96548e-06
1.50459e-07
7.22566e-07
2.26965e-05
4.42193e-05
5.41104e-05
5.68144e-05
5.62597e-05
5.47674e-05
5.25605e-05
5.0124e-05
4.79816e-05
4.58787e-05
4.40017e-05
4.25012e-05
4.14079e-05
4.06562e-05
4.01648e-05
3.98919e-05
3.9823e-05
3.99381e-05
4.02208e-05
4.06487e-05
4.11898e-05
4.18143e-05
4.24945e-05
4.32081e-05
4.39398e-05
4.46788e-05
4.5419e-05
4.61566e-05
4.68889e-05
4.76135e-05
4.8327e-05
4.90253e-05
4.97033e-05
5.0355e-05
5.09739e-05
5.15539e-05
5.21257e-05
5.26162e-05
5.29277e-05
5.33247e-05
5.36698e-05
5.38783e-05
5.4027e-05
5.40887e-05
5.40653e-05
5.39513e-05
5.37437e-05
5.344e-05
5.30392e-05
5.25421e-05
5.19523e-05
5.12766e-05
5.05263e-05
4.97165e-05
4.88669e-05
4.79992e-05
4.71351e-05
4.62909e-05
4.54711e-05
4.46599e-05
4.38127e-05
4.28482e-05
4.16459e-05
4.02112e-05
3.81839e-05
3.57513e-05
3.35304e-05
3.17754e-05
2.94913e-05
2.70308e-05
2.64107e-05
2.79041e-05
2.94863e-05
2.9792e-05
2.87353e-05
2.47627e-05
1.86424e-05
8.67775e-06
1.87261e-07
7.90513e-07
2.3771e-05
4.57445e-05
5.55855e-05
5.80256e-05
5.76751e-05
5.55827e-05
5.28497e-05
5.03346e-05
4.78206e-05
4.55788e-05
4.36927e-05
4.22521e-05
4.12299e-05
4.05456e-05
4.01364e-05
3.99725e-05
4.00314e-05
4.02837e-05
4.07013e-05
4.12507e-05
4.18971e-05
4.26112e-05
4.33691e-05
4.4154e-05
4.49555e-05
4.57672e-05
4.65857e-05
4.74082e-05
4.82317e-05
4.90521e-05
4.9864e-05
5.06609e-05
5.14354e-05
5.218e-05
5.28869e-05
5.35491e-05
5.42005e-05
5.47592e-05
5.51255e-05
5.55706e-05
5.59799e-05
5.62322e-05
5.64216e-05
5.65191e-05
5.6526e-05
5.64365e-05
5.62462e-05
5.59511e-05
5.55477e-05
5.5034e-05
5.44102e-05
5.36796e-05
5.28499e-05
5.1934e-05
5.09511e-05
4.9926e-05
4.88882e-05
4.7868e-05
4.68903e-05
4.59665e-05
4.5084e-05
4.4195e-05
4.32056e-05
4.19665e-05
4.02997e-05
3.78708e-05
3.52742e-05
3.28831e-05
3.10194e-05
2.84267e-05
2.57448e-05
2.57615e-05
2.74588e-05
2.85027e-05
2.75554e-05
2.49205e-05
1.93157e-05
9.20973e-06
2.2546e-07
8.50394e-07
2.46344e-05
4.68966e-05
5.66915e-05
5.92383e-05
5.86903e-05
5.62706e-05
5.32212e-05
5.028e-05
4.75721e-05
4.52506e-05
4.33892e-05
4.20179e-05
4.10718e-05
4.0472e-05
4.01695e-05
4.01325e-05
4.03257e-05
4.07096e-05
4.12474e-05
4.19011e-05
4.26372e-05
4.34301e-05
4.42611e-05
4.51188e-05
4.59969e-05
4.68916e-05
4.78001e-05
4.87187e-05
4.96425e-05
5.05647e-05
5.14772e-05
5.23712e-05
5.32376e-05
5.40674e-05
5.48523e-05
5.55849e-05
5.6302e-05
5.69169e-05
5.73289e-05
5.78121e-05
5.82716e-05
5.85619e-05
5.87858e-05
5.89165e-05
5.89542e-05
5.88934e-05
5.87291e-05
5.84559e-05
5.80683e-05
5.75614e-05
5.69319e-05
5.61784e-05
5.53037e-05
5.43156e-05
5.3229e-05
5.20667e-05
5.08601e-05
4.96468e-05
4.84667e-05
4.73537e-05
4.63251e-05
4.53687e-05
4.44291e-05
4.33974e-05
4.21031e-05
4.01326e-05
3.73651e-05
3.46301e-05
3.21214e-05
3.00184e-05
2.70628e-05
2.46782e-05
2.50749e-05
2.62923e-05
2.65904e-05
2.48015e-05
1.96453e-05
9.51721e-06
2.65548e-07
9.00772e-07
2.52905e-05
4.77212e-05
5.75591e-05
6.01467e-05
5.94075e-05
5.65554e-05
5.33229e-05
5.01257e-05
4.72746e-05
4.49185e-05
4.3104e-05
4.18093e-05
4.09489e-05
4.04514e-05
4.02714e-05
4.03664e-05
4.06885e-05
4.11913e-05
4.18337e-05
4.25779e-05
4.33942e-05
4.42619e-05
4.51677e-05
4.61046e-05
4.70684e-05
4.80561e-05
4.90635e-05
5.00846e-05
5.11113e-05
5.21339e-05
5.3142e-05
5.41246e-05
5.50714e-05
5.5973e-05
5.6821e-05
5.76085e-05
5.83738e-05
5.90363e-05
5.9478e-05
5.99844e-05
6.04812e-05
6.08005e-05
6.10506e-05
6.12088e-05
6.12747e-05
6.12434e-05
6.11098e-05
6.08677e-05
6.05104e-05
6.00308e-05
5.9422e-05
5.86783e-05
5.77966e-05
5.67784e-05
5.56316e-05
5.43729e-05
5.30296e-05
5.16404e-05
5.02528e-05
4.89177e-05
4.76793e-05
4.65598e-05
4.55426e-05
4.45535e-05
4.34432e-05
4.19546e-05
3.95243e-05
3.66406e-05
3.38656e-05
3.11956e-05
2.86794e-05
2.53524e-05
2.38753e-05
2.46333e-05
2.53104e-05
2.40015e-05
1.96372e-05
9.65032e-06
3.06638e-07
9.40924e-07
2.57465e-05
4.8265e-05
5.81548e-05
6.08163e-05
5.99289e-05
5.69188e-05
5.33215e-05
4.99068e-05
4.69556e-05
4.45981e-05
4.28454e-05
4.16344e-05
4.0871e-05
4.04889e-05
4.0437e-05
4.06595e-05
4.10995e-05
4.17076e-05
4.24419e-05
4.32676e-05
4.416e-05
4.51036e-05
4.60896e-05
4.71133e-05
4.81712e-05
4.92587e-05
5.03689e-05
5.14925e-05
5.26183e-05
5.37339e-05
5.48267e-05
5.58846e-05
5.68969e-05
5.78542e-05
5.87488e-05
5.95745e-05
6.03699e-05
6.10703e-05
6.15268e-05
6.2039e-05
6.25613e-05
6.28991e-05
6.31658e-05
6.33437e-05
6.34322e-05
6.34275e-05
6.3325e-05
6.31185e-05
6.28006e-05
6.23628e-05
6.17956e-05
6.10895e-05
6.02362e-05
5.923e-05
5.80708e-05
5.67662e-05
5.53355e-05
5.38113e-05
5.2241e-05
5.06839e-05
4.9204e-05
4.78564e-05
4.66694e-05
4.56254e-05
4.46425e-05
4.35576e-05
4.15566e-05
3.86631e-05
3.58406e-05
3.28766e-05
3.00243e-05
2.69047e-05
2.34945e-05
2.29855e-05
2.32756e-05
2.30552e-05
1.95266e-05
9.81091e-06
3.53054e-07
9.70626e-07
2.60106e-05
4.85749e-05
5.84932e-05
6.13157e-05
6.01702e-05
5.7033e-05
5.32293e-05
4.96485e-05
4.66339e-05
4.42992e-05
4.26185e-05
4.14984e-05
4.08415e-05
4.05811e-05
4.06548e-05
4.09952e-05
4.15412e-05
4.22428e-05
4.306e-05
4.39627e-05
4.49313e-05
4.59547e-05
4.7027e-05
4.81441e-05
4.9301e-05
5.04903e-05
5.17018e-05
5.29226e-05
5.41385e-05
5.53352e-05
5.64987e-05
5.76167e-05
5.86787e-05
5.96759e-05
6.06017e-05
6.14512e-05
6.22558e-05
6.29801e-05
6.34502e-05
6.39459e-05
6.44831e-05
6.4829e-05
6.51022e-05
6.52906e-05
6.53941e-05
6.54101e-05
6.53351e-05
6.51636e-05
6.48883e-05
6.45002e-05
6.39881e-05
6.33399e-05
6.25427e-05
6.15849e-05
6.04579e-05
5.91595e-05
5.76977e-05
5.60948e-05
5.43904e-05
5.26429e-05
5.09254e-05
4.93145e-05
4.78721e-05
4.66211e-05
4.55213e-05
4.44494e-05
4.31821e-05
4.06992e-05
3.76281e-05
3.47293e-05
3.15157e-05
2.85207e-05
2.45854e-05
2.22975e-05
2.22225e-05
2.23597e-05
1.94115e-05
1.02105e-05
4.13914e-07
9.9036e-07
2.61102e-05
4.86346e-05
5.85473e-05
6.1483e-05
6.04347e-05
5.70566e-05
5.30756e-05
4.93707e-05
4.63221e-05
4.40273e-05
4.2426e-05
4.14029e-05
4.08584e-05
4.07195e-05
4.09113e-05
4.13589e-05
4.19999e-05
4.27861e-05
4.36811e-05
4.46595e-05
4.57065e-05
4.68142e-05
4.79776e-05
4.91915e-05
5.04483e-05
5.17369e-05
5.30433e-05
5.43518e-05
5.56458e-05
5.69098e-05
5.81294e-05
5.92927e-05
6.03896e-05
6.14128e-05
6.23568e-05
6.32181e-05
6.40114e-05
6.47434e-05
6.52365e-05
6.56936e-05
6.62348e-05
6.65797e-05
6.68496e-05
6.70389e-05
6.71484e-05
6.71772e-05
6.71229e-05
6.69815e-05
6.67466e-05
6.64094e-05
6.59584e-05
6.53796e-05
6.46574e-05
6.37749e-05
6.27165e-05
6.14704e-05
6.00324e-05
5.84114e-05
5.66345e-05
5.47511e-05
5.28344e-05
5.09749e-05
4.92658e-05
4.77778e-05
4.65303e-05
4.54645e-05
4.4424e-05
4.25274e-05
3.94959e-05
3.65304e-05
3.32117e-05
2.96915e-05
2.6158e-05
2.21843e-05
2.09769e-05
2.07148e-05
1.90525e-05
1.08717e-05
4.95529e-07
1.00015e-06
2.60424e-05
4.84383e-05
5.84789e-05
6.16143e-05
6.04657e-05
5.69905e-05
5.28803e-05
4.90879e-05
4.60285e-05
4.37854e-05
4.22686e-05
4.13467e-05
4.09161e-05
4.0894e-05
4.11945e-05
4.1739e-05
4.24661e-05
4.33309e-05
4.43008e-05
4.53554e-05
4.64836e-05
4.76788e-05
4.89356e-05
5.02464e-05
5.15998e-05
5.2981e-05
5.4373e-05
5.57574e-05
5.71165e-05
5.84341e-05
5.96962e-05
6.08914e-05
6.2011e-05
6.30485e-05
6.39996e-05
6.4862e-05
6.5635e-05
6.63628e-05
6.68814e-05
6.72889e-05
6.78169e-05
6.81555e-05
6.84133e-05
6.85941e-05
6.87002e-05
6.87323e-05
6.86899e-05
6.85706e-05
6.83694e-05
6.80788e-05
6.76876e-05
6.71818e-05
6.65438e-05
6.57535e-05
6.47895e-05
6.36317e-05
6.22645e-05
6.06824e-05
5.88964e-05
5.69406e-05
5.48781e-05
5.27995e-05
5.08142e-05
4.90267e-05
4.75044e-05
4.62419e-05
4.51368e-05
4.39744e-05
4.14002e-05
3.81462e-05
3.5069e-05
3.15215e-05
2.75772e-05
2.32412e-05
2.07327e-05
1.94277e-05
1.86119e-05
1.15305e-05
5.96339e-07
9.9955e-07
2.58755e-05
4.81886e-05
5.82618e-05
6.1613e-05
6.03956e-05
5.68566e-05
5.26596e-05
4.88108e-05
4.57583e-05
4.35745e-05
4.21453e-05
4.13265e-05
4.10077e-05
4.1095e-05
4.14947e-05
4.2127e-05
4.29335e-05
4.38726e-05
4.49162e-05
4.6048e-05
4.7259e-05
4.8543e-05
4.98925e-05
5.12965e-05
5.274e-05
5.42048e-05
5.56712e-05
5.71194e-05
5.8531e-05
5.98899e-05
6.1183e-05
6.23997e-05
6.35323e-05
6.45751e-05
6.55247e-05
6.63789e-05
6.71365e-05
6.78426e-05
6.83908e-05
6.87553e-05
6.92388e-05
6.9571e-05
6.98092e-05
6.9973e-05
7.00663e-05
7.00919e-05
7.00513e-05
6.99439e-05
6.97668e-05
6.95141e-05
6.91762e-05
6.87397e-05
6.81867e-05
6.74954e-05
6.66406e-05
6.55956e-05
6.4335e-05
6.28399e-05
6.11042e-05
5.91435e-05
5.70037e-05
5.47665e-05
5.25471e-05
5.04772e-05
4.86723e-05
4.71888e-05
4.59871e-05
4.49174e-05
4.3e-05
3.97699e-05
3.68531e-05
3.29951e-05
2.89992e-05
2.46973e-05
2.06235e-05
1.89535e-05
1.82171e-05
1.21636e-05
7.12292e-07
9.94139e-07
2.56121e-05
4.77709e-05
5.78537e-05
6.14004e-05
6.02246e-05
5.66698e-05
5.24253e-05
4.85469e-05
4.55146e-05
4.33948e-05
4.20544e-05
4.13378e-05
4.11259e-05
4.13143e-05
4.18042e-05
4.2517e-05
4.33975e-05
4.44078e-05
4.55243e-05
4.67335e-05
4.80275e-05
4.93989e-05
5.08374e-05
5.23284e-05
5.38534e-05
5.53915e-05
5.69211e-05
5.84216e-05
5.98748e-05
6.12652e-05
6.25804e-05
6.38111e-05
6.49504e-05
6.59936e-05
6.69379e-05
6.7782e-05
6.8526e-05
6.91983e-05
6.97623e-05
7.01053e-05
7.05264e-05
7.08465e-05
7.10597e-05
7.1199e-05
7.1271e-05
7.12806e-05
7.12312e-05
7.11244e-05
7.09598e-05
7.07336e-05
7.04384e-05
7.00622e-05
6.95881e-05
6.89942e-05
6.82532e-05
6.7334e-05
6.62038e-05
6.48317e-05
6.31956e-05
6.12909e-05
5.91413e-05
5.68099e-05
5.44035e-05
5.20649e-05
4.9945e-05
4.8156e-05
4.67168e-05
4.55151e-05
4.43012e-05
4.15231e-05
3.8265e-05
3.49778e-05
3.05543e-05
2.60292e-05
2.09562e-05
1.84726e-05
1.71468e-05
1.27937e-05
8.28869e-07
9.82176e-07
2.52942e-05
4.7099e-05
5.73267e-05
6.10595e-05
5.99684e-05
5.64423e-05
5.21867e-05
4.83016e-05
4.52992e-05
4.32453e-05
4.1993e-05
4.13758e-05
4.12643e-05
4.15453e-05
4.21175e-05
4.29044e-05
4.38544e-05
4.49336e-05
4.61217e-05
4.74073e-05
4.87823e-05
5.02373e-05
5.17588e-05
5.33288e-05
5.49257e-05
5.65266e-05
5.8109e-05
5.9652e-05
6.11381e-05
6.25526e-05
6.38842e-05
6.51245e-05
6.62674e-05
6.73091e-05
6.82474e-05
6.90818e-05
6.98137e-05
7.04465e-05
7.10094e-05
7.13544e-05
7.17033e-05
7.20051e-05
7.21891e-05
7.22979e-05
7.23412e-05
7.2326e-05
7.22576e-05
7.21402e-05
7.19758e-05
7.17631e-05
7.14973e-05
7.11689e-05
7.07628e-05
7.0258e-05
6.96271e-05
6.88367e-05
6.78486e-05
6.6623e-05
6.51238e-05
6.33269e-05
6.12324e-05
5.88788e-05
5.63545e-05
5.38004e-05
5.13921e-05
4.92957e-05
4.7606e-05
4.62903e-05
4.51658e-05
4.29302e-05
3.95724e-05
3.6783e-05
3.19912e-05
2.73583e-05
2.22937e-05
1.84844e-05
1.60954e-05
1.32492e-05
9.19003e-07
9.63633e-07
2.48855e-05
4.63582e-05
5.6712e-05
6.06021e-05
5.96398e-05
5.6184e-05
5.19506e-05
4.80784e-05
4.51127e-05
4.3125e-05
4.19584e-05
4.14357e-05
4.14174e-05
4.17829e-05
4.24302e-05
4.32857e-05
4.43012e-05
4.54465e-05
4.6704e-05
4.80634e-05
4.95156e-05
5.10485e-05
5.26455e-05
5.42854e-05
5.59445e-05
5.75986e-05
5.92246e-05
6.08024e-05
6.23149e-05
6.37487e-05
6.50934e-05
6.63415e-05
6.74874e-05
6.85278e-05
6.94607e-05
7.02854e-05
7.1002e-05
7.16115e-05
7.21623e-05
7.25128e-05
7.27903e-05
7.30687e-05
7.32206e-05
7.32944e-05
7.3303e-05
7.32552e-05
7.31588e-05
7.30202e-05
7.28438e-05
7.26314e-05
7.2381e-05
7.20858e-05
7.17334e-05
7.1305e-05
7.07743e-05
7.01073e-05
6.92632e-05
6.81957e-05
6.68575e-05
6.52075e-05
6.32225e-05
6.09126e-05
5.83393e-05
5.56267e-05
5.29566e-05
5.05326e-05
4.85138e-05
4.6937e-05
4.56677e-05
4.41145e-05
4.08235e-05
3.81957e-05
3.39654e-05
2.87506e-05
2.35774e-05
1.88599e-05
1.55537e-05
1.34271e-05
9.59017e-07
9.39493e-07
2.43722e-05
4.55068e-05
5.6004e-05
6.00506e-05
5.92509e-05
5.5903e-05
5.17221e-05
4.78797e-05
4.49555e-05
4.30322e-05
4.19473e-05
4.15134e-05
4.15806e-05
4.20229e-05
4.27388e-05
4.36577e-05
4.47346e-05
4.59427e-05
4.72664e-05
4.86954e-05
5.02192e-05
5.18228e-05
5.34868e-05
5.51875e-05
5.68997e-05
5.85983e-05
6.02607e-05
6.18672e-05
6.3402e-05
6.48525e-05
6.62093e-05
6.74652e-05
6.86156e-05
6.96568e-05
7.05869e-05
7.14048e-05
7.21105e-05
7.27046e-05
7.32286e-05
7.35888e-05
7.38051e-05
7.4056e-05
7.41739e-05
7.42096e-05
7.41788e-05
7.40924e-05
7.39602e-05
7.37908e-05
7.35915e-05
7.33667e-05
7.31176e-05
7.28406e-05
7.25265e-05
7.21592e-05
7.17146e-05
7.116e-05
7.04537e-05
6.95458e-05
6.8381e-05
6.69043e-05
6.50714e-05
6.28644e-05
6.03128e-05
5.75136e-05
5.46399e-05
5.19199e-05
4.95754e-05
4.77305e-05
4.63305e-05
4.51137e-05
4.22801e-05
3.93504e-05
3.58744e-05
2.9934e-05
2.45543e-05
1.88814e-05
1.56878e-05
1.3415e-05
9.65438e-07
9.11113e-07
2.38242e-05
4.45697e-05
5.52091e-05
5.94211e-05
5.88123e-05
5.56057e-05
5.15047e-05
4.7707e-05
4.48273e-05
4.29654e-05
4.1957e-05
4.1605e-05
4.175e-05
4.22618e-05
4.30401e-05
4.40172e-05
4.51513e-05
4.64181e-05
4.78034e-05
4.92966e-05
5.0885e-05
5.25514e-05
5.42736e-05
5.60263e-05
5.77831e-05
5.95191e-05
6.12121e-05
6.28433e-05
6.43978e-05
6.58641e-05
6.72333e-05
6.84989e-05
6.96562e-05
7.07017e-05
7.1633e-05
7.2449e-05
7.31495e-05
7.3736e-05
7.42255e-05
7.45744e-05
7.47651e-05
7.49808e-05
7.50633e-05
7.50592e-05
7.4986e-05
7.48564e-05
7.46822e-05
7.44743e-05
7.42425e-05
7.39941e-05
7.37334e-05
7.34603e-05
7.31688e-05
7.28462e-05
7.24717e-05
7.20147e-05
7.14345e-05
7.06799e-05
6.96907e-05
6.84016e-05
6.67505e-05
6.46934e-05
6.22259e-05
5.94097e-05
5.63935e-05
5.34095e-05