/*--------------------------------*- C++ -*----------------------------------*\
  =========                 |
  \\      /  F ield         | OpenFOAM: The Open Source CFD Toolbox
   \\    /   O peration     | Website:  https://openfoam.org
    \\  /    A nd           | Version:  13
     \\/     M anipulation  |
\*---------------------------------------------------------------------------*/
FoamFile
{
    format      ascii;
    class       surfaceScalarField;
    location    "6.2";
    object      phi;
}
// * * * * * * * * * * * * * * * * * * * * * * * * * * * * * * * * * * * * * //

dimensions      [0 3 -1 0 0 0 0];

internalField   nonuniform List<scalar> 
12640
(
1.59238e-09
-1.59233e-09
1.47714e-08
-1.31791e-08
3.80204e-08
-2.3249e-08
6.49455e-08
-2.6925e-08
8.93453e-08
-2.43999e-08
1.07674e-07
-1.83286e-08
1.18584e-07
-1.09106e-08
1.22902e-07
-4.31794e-09
1.22865e-07
3.77781e-11
1.20763e-07
2.10159e-09
1.18538e-07
2.22457e-09
1.17467e-07
1.07164e-09
1.17967e-07
-4.99732e-10
1.1974e-07
-1.77326e-09
1.21973e-07
-2.23278e-09
1.23748e-07
-1.7758e-09
1.2421e-07
-4.61834e-10
1.22833e-07
1.3771e-09
1.18848e-07
3.98524e-09
1.11358e-07
7.48956e-09
9.97543e-08
1.1604e-08
8.34887e-08
1.62656e-08
6.21036e-08
2.13851e-08
3.54129e-08
2.66908e-08
3.39107e-09
3.20218e-08
-3.41282e-08
3.75193e-08
-7.83125e-08
4.41842e-08
-1.31423e-07
5.31103e-08
-1.96281e-07
6.48583e-08
-2.75288e-07
7.90066e-08
-3.67822e-07
9.25345e-08
-4.70578e-07
1.02755e-07
-5.80161e-07
1.09584e-07
-6.93203e-07
1.13041e-07
-8.06732e-07
1.1353e-07
-9.18134e-07
1.11402e-07
-1.02525e-06
1.07114e-07
-1.12631e-06
1.01066e-07
-1.21993e-06
9.36146e-08
-1.305e-06
8.50715e-08
-1.38064e-06
7.56365e-08
-1.44612e-06
6.54862e-08
-1.50083e-06
5.47088e-08
-1.54419e-06
4.3361e-08
-1.57561e-06
3.14168e-08
-1.59461e-06
1.89992e-08
-1.60151e-06
6.90316e-09
-1.5945e-06
-7.01054e-09
-1.57396e-06
-2.05463e-08
-1.53922e-06
-3.47368e-08
-1.49001e-06
-4.92104e-08
-1.42627e-06
-6.37397e-08
-1.34814e-06
-7.8126e-08
-1.25609e-06
-9.20535e-08
-1.15073e-06
-1.05356e-07
-1.03291e-06
-1.17823e-07
-9.03939e-07
-1.28971e-07
-7.65549e-07
-1.3839e-07
-6.2002e-07
-1.45529e-07
-4.70184e-07
-1.49836e-07
-3.19451e-07
-1.50733e-07
-1.71629e-07
-1.47822e-07
-3.07292e-08
-1.409e-07
9.94759e-08
-1.30205e-07
2.14647e-07
-1.15171e-07
3.10675e-07
-9.60277e-08
3.84197e-07
-7.35217e-08
4.32609e-07
-4.84122e-08
4.54467e-07
-2.18582e-08
4.48751e-07
5.71621e-09
4.18234e-07
3.05174e-08
3.65349e-07
5.2885e-08
2.9614e-07
6.92084e-08
2.19676e-07
7.64643e-08
1.47395e-07
7.22805e-08
8.66441e-08
6.07513e-08
4.13818e-08
4.52623e-08
1.23622e-08
2.90196e-08
-2.88405e-10
1.26506e-08
-2.88406e-10
1.01812e-08
-1.17735e-08
4.2034e-08
-4.5032e-08
8.64437e-08
-6.76586e-08
1.32055e-07
-7.25363e-08
1.71321e-07
-6.36655e-08
2.00416e-07
-4.74239e-08
2.18645e-07
-2.91396e-08
2.26967e-07
-1.26396e-08
2.27156e-07
-1.51524e-10
2.21537e-07
7.72088e-09
2.12364e-07
1.13976e-08
2.01171e-07
1.22642e-08
1.88432e-07
1.22392e-08
1.73598e-07
1.30609e-08
1.55605e-07
1.57603e-08
1.33288e-07
2.05407e-08
1.05736e-07
2.70905e-08
7.1787e-08
3.53261e-08
3.02141e-08
4.55581e-08
-2.04258e-08
5.81295e-08
-8.20653e-08
7.32434e-08
-1.5655e-07
9.07499e-08
-2.45137e-07
1.09972e-07
-3.48663e-07
1.30217e-07
-4.67699e-07
1.51057e-07
-6.02062e-07
1.71882e-07
-7.49574e-07
1.91697e-07
-9.06231e-07
2.09767e-07
-1.06682e-06
2.25446e-07
-1.22552e-06
2.37704e-07
-1.37864e-06
2.45656e-07
-1.52501e-06
2.49131e-07
-1.66326e-06
2.47832e-07
-1.7921e-06
2.41883e-07
-1.91051e-06
2.31936e-07
-2.01781e-06
2.187e-07
-2.1135e-06
2.02805e-07
-2.19728e-06
1.84847e-07
-2.26892e-06
1.65258e-07
-2.32829e-06
1.4444e-07
-2.37527e-06
1.22614e-07
-2.40974e-06
9.99593e-08
-2.4316e-06
7.65704e-08
-2.44078e-06
5.25332e-08
-2.43728e-06
2.7921e-08
-2.42028e-06
1.9991e-09
-2.39015e-06
-2.32232e-08
-2.34709e-06
-5.00736e-08
-2.29019e-06
-7.74461e-08
-2.21963e-06
-1.05293e-07
-2.13532e-06
-1.33525e-07
-2.03716e-06
-1.61895e-07
-1.92515e-06
-1.9014e-07
-1.79938e-06
-2.17825e-07
-1.66029e-06
-2.44442e-07
-1.50896e-06
-2.69161e-07
-1.34664e-06
-2.91289e-07
-1.17506e-06
-3.09964e-07
-9.96555e-07
-3.24037e-07
-8.13741e-07
-3.32649e-07
-6.29611e-07
-3.34864e-07
-4.47574e-07
-3.29858e-07
-2.71303e-07
-3.1717e-07
-1.04747e-07
-2.96762e-07
4.86249e-08
-2.68543e-07
1.85511e-07
-2.32914e-07
3.02273e-07
-1.90284e-07
3.96242e-07
-1.4238e-07
4.64927e-07
-9.05442e-08
5.07537e-07
-3.68937e-08
5.22679e-07
1.53763e-08
5.10527e-07
6.50368e-08
4.73111e-07
1.06624e-07
4.12046e-07
1.37529e-07
3.30275e-07
1.54052e-07
2.37964e-07
1.53062e-07
1.47556e-07
1.35671e-07
7.15699e-08
1.05005e-07
2.0291e-08
6.39295e-08
2.00026e-08
1.92766e-08
-3.10501e-08
6.44291e-08
-9.01845e-08
1.15695e-07
-1.18924e-07
1.61251e-07
-1.18092e-07
1.96494e-07
-9.89087e-08
2.20354e-07
-7.12843e-08
2.33442e-07
-4.22272e-08
2.36722e-07
-1.59194e-08
2.31338e-07
5.23237e-09
2.18721e-07
2.03373e-08
2.00311e-07
2.98081e-08
1.76696e-07
3.58788e-08
1.4769e-07
4.12454e-08
1.12501e-07
4.82499e-08
6.9963e-08
5.82983e-08
1.86786e-08
7.1825e-08
-4.30481e-08
8.88172e-08
-1.17026e-07
1.09304e-07
-2.04787e-07
1.33319e-07
-3.07582e-07
1.60924e-07
-4.25968e-07
1.91629e-07
-5.59638e-07
2.2442e-07
-7.07563e-07
2.57897e-07
-8.67444e-07
2.90098e-07
-1.036e-06
3.1961e-07
-1.20906e-06
3.44942e-07
-1.38237e-06
3.65012e-07
-1.55199e-06
3.7939e-07
-1.7143e-06
3.87752e-07
-1.86662e-06
3.90026e-07
-2.00738e-06
3.86417e-07
-2.13553e-06
3.77277e-07
-2.25098e-06
3.63282e-07
-2.35415e-06
3.45059e-07
-2.44537e-06
3.23147e-07
-2.52498e-06
2.98317e-07
-2.59332e-06
2.71138e-07
-2.65063e-06
2.42164e-07
-2.69711e-06
2.11737e-07
-2.73288e-06
1.80212e-07
-2.75803e-06
1.4776e-07
-2.77254e-06
1.1447e-07
-2.77638e-06
8.04048e-08
-2.76939e-06
4.5547e-08
-2.75129e-06
9.82284e-09
-2.72246e-06
-2.68316e-08
-2.68149e-06
-6.41891e-08
-2.62891e-06
-1.02661e-07
-2.56426e-06
-1.42092e-07
-2.48718e-06
-1.82378e-07
-2.39744e-06
-2.23263e-07
-2.29488e-06
-2.64454e-07
-2.17943e-06
-3.05585e-07
-2.05119e-06
-3.46071e-07
-1.9105e-06
-3.85126e-07
-1.758e-06
-4.21666e-07
-1.59469e-06
-4.54604e-07
-1.42193e-06
-4.82716e-07
-1.24157e-06
-5.04402e-07
-1.05605e-06
-5.18171e-07
-8.68118e-07
-5.22792e-07
-6.81053e-07
-5.16924e-07
-4.98478e-07
-4.99745e-07
-3.24109e-07
-4.71131e-07
-1.61282e-07
-4.3137e-07
-1.32068e-08
-3.80989e-07
1.17546e-07
-3.21037e-07
2.28202e-07
-2.53037e-07
3.17151e-07
-1.79493e-07
3.83528e-07
-1.0327e-07
4.26286e-07
-2.73822e-08
4.45375e-07
4.59487e-08
4.39388e-07
1.1261e-07
4.09803e-07
1.67114e-07
3.57728e-07
2.06127e-07
2.86357e-07
2.24434e-07
2.02176e-07
2.19851e-07
1.15725e-07
1.91457e-07
4.07526e-08
1.38901e-07
6.07552e-08
2.68666e-08
-5.79167e-08
7.86146e-08
-1.41933e-07
1.27956e-07
-1.68265e-07
1.66105e-07
-1.56242e-07
1.91588e-07
-1.24392e-07
2.05505e-07
-8.52017e-08
2.09031e-07
-4.57527e-08
2.03274e-07
-1.01626e-08
1.89027e-07
1.94791e-08
1.66801e-07
4.25638e-08
1.3636e-07
6.02492e-08
9.72146e-08
7.50241e-08
4.86011e-08
8.98589e-08
-1.04166e-08
1.07268e-07
-8.09142e-08
1.28796e-07
-1.64203e-07
1.55114e-07
-2.61751e-07
1.86365e-07
-3.74857e-07
2.2241e-07
-5.04139e-07
2.62602e-07
-6.49212e-07
3.05997e-07
-8.08409e-07
3.50826e-07
-9.78632e-07
3.94644e-07
-1.15616e-06
4.35427e-07
-1.33674e-06
4.70673e-07
-1.51625e-06
4.99119e-07
-1.6908e-06
5.19492e-07
-1.85685e-06
5.31066e-07
-2.01161e-06
5.34149e-07
-2.15365e-06
5.2979e-07
-2.28249e-06
5.18867e-07
-2.39831e-06
5.02234e-07
-2.5017e-06
4.80666e-07
-2.59327e-06
4.5486e-07
-2.67377e-06
4.25553e-07
-2.74389e-06
3.93274e-07
-2.80423e-06
3.5865e-07
-2.85521e-06
3.22121e-07
-2.89717e-06
2.8412e-07
-2.93031e-06
2.44881e-07
-2.95472e-06
2.04623e-07
-2.97043e-06
1.63474e-07
-2.97739e-06
1.21423e-07
-2.97544e-06
7.8455e-08
-2.96434e-06
3.44541e-08
-2.94386e-06
-1.06664e-08
-2.91373e-06
-5.69616e-08
-2.8734e-06
-1.0451e-07
-2.82263e-06
-1.53434e-07
-2.761e-06
-2.03721e-07
-2.68803e-06
-2.55351e-07
-2.60332e-06
-3.07971e-07
-2.50658e-06
-3.61192e-07
-2.39756e-06
-4.14606e-07
-2.27611e-06
-4.67526e-07
-2.1422e-06
-5.19035e-07
-1.99605e-06
-5.67811e-07
-1.83845e-06
-6.12206e-07
-1.67037e-06
-6.508e-07
-1.49321e-06
-6.81558e-07
-1.30903e-06
-7.02346e-07
-1.12027e-06
-7.11554e-07
-9.29928e-07
-7.07268e-07
-7.41544e-07
-6.8813e-07
-5.59281e-07
-6.53394e-07
-3.87028e-07
-6.03623e-07
-2.28009e-07
-5.40007e-07
-8.52765e-08
-4.6377e-07
3.88622e-08
-3.77175e-07
1.42644e-07
-2.83275e-07
2.24926e-07
-1.85553e-07
2.85234e-07
-8.76907e-08
3.24317e-07
6.866e-09
3.422e-07
9.47269e-08
3.38193e-07
1.71122e-07
3.12469e-07
2.31851e-07
2.65564e-07
2.71339e-07
2.01296e-07
2.84119e-07
1.2546e-07
2.67292e-07
4.85831e-08
2.15779e-07
1.09338e-07
3.27899e-08
-9.07065e-08
8.43306e-08
-1.93473e-07
1.25437e-07
-2.09372e-07
1.52443e-07
-1.83248e-07
1.65947e-07
-1.37896e-07
1.68115e-07
-8.73697e-08
1.60309e-07
-3.79468e-08
1.43286e-07
6.8604e-09
1.17208e-07
4.5557e-08
8.16616e-08
7.81106e-08
3.56931e-08
1.06218e-07
-2.18677e-08
1.32585e-07
-9.21695e-08
1.60161e-07
-1.76271e-07
1.91369e-07
-2.75168e-07
2.27694e-07
-3.89722e-07
2.69668e-07
-5.20407e-07
3.1705e-07
-6.67062e-07
3.69065e-07
-8.2834e-07
4.23879e-07
-1.00129e-06
4.78943e-07
-1.18219e-06
5.3173e-07
-1.36652e-06
5.78973e-07
-1.55e-06
6.18914e-07
-1.72842e-06
6.49094e-07
-1.89739e-06
6.68084e-07
-2.05418e-06
6.76279e-07
-2.19777e-06
6.74663e-07
-2.32818e-06
6.64557e-07
-2.44583e-06
6.47438e-07
-2.55143e-06
6.24467e-07
-2.64584e-06
5.9664e-07
-2.72989e-06
5.6472e-07
-2.80434e-06
5.2931e-07
-2.86984e-06
4.91051e-07
-2.927e-06
4.50441e-07
-2.97629e-06
4.07935e-07
-3.01805e-06
3.63882e-07
-3.05254e-06
3.18607e-07
-3.0799e-06
2.72247e-07
-3.1001e-06
2.24815e-07
-3.11315e-06
1.76528e-07
-3.11896e-06
1.27237e-07
-3.11738e-06
7.68716e-08
-3.10814e-06
2.52134e-08
-3.09096e-06
-2.78482e-08
-3.06542e-06
-8.24983e-08
-3.03105e-06
-1.38881e-07
-2.98744e-06
-1.9705e-07
-2.93417e-06
-2.56988e-07
-2.87067e-06
-3.18853e-07
-2.79619e-06
-3.82447e-07
-2.71031e-06
-4.47075e-07
-2.61254e-06
-5.12373e-07
-2.50249e-06
-5.77582e-07
-2.37974e-06
-6.4178e-07
-2.244e-06
-7.03549e-07
-2.0958e-06
-7.60407e-07
-1.93565e-06
-8.10954e-07
-1.76439e-06
-8.5282e-07
-1.58378e-06
-8.82948e-07
-1.39587e-06
-8.99468e-07
-1.20338e-06
-8.99755e-07
-1.00943e-06
-8.82085e-07
-8.17924e-07
-8.44898e-07
-6.33546e-07
-7.88002e-07
-4.60799e-07
-7.12753e-07
-3.02884e-07
-6.21685e-07
-1.62685e-07
-5.17374e-07
-4.25298e-08
-4.0343e-07
5.62086e-08
-2.84291e-07
1.33042e-07
-1.64524e-07
1.88373e-07
-4.84647e-08
2.23237e-07
5.98622e-08
2.38023e-07
1.56335e-07
2.33202e-07
2.36672e-07
2.09083e-07
2.95458e-07
1.66611e-07
3.26591e-07
1.08865e-07
3.25039e-07
4.35938e-08
2.8105e-07
1.52932e-07
3.63628e-08
-1.27069e-07
8.12855e-08
-2.38396e-07
1.1011e-07
-2.38196e-07
1.23458e-07
-1.96596e-07
1.23982e-07
-1.3842e-07
1.13668e-07
-7.70553e-08
9.35097e-08
-1.77885e-08
6.36533e-08
3.67168e-08
2.36704e-08
8.55398e-08
-2.75538e-08
1.29335e-07
-9.13929e-08
1.70057e-07
-1.69226e-07
2.10418e-07
-2.62223e-07
2.53158e-07
-3.71232e-07
3.00378e-07
-4.9671e-07
3.53172e-07
-6.38479e-07
4.11436e-07
-7.95552e-07
4.74123e-07
-9.65739e-07
5.39252e-07
-1.14569e-06
6.03833e-07
-1.33087e-06
6.64124e-07
-1.51679e-06
7.17646e-07
-1.69861e-06
7.60793e-07
-1.87104e-06
7.91344e-07
-2.03091e-06
8.08964e-07
-2.17723e-06
8.14405e-07
-2.31018e-06
8.09222e-07
-2.43052e-06
7.95004e-07
-2.53929e-06
7.73333e-07
-2.63739e-06
7.45538e-07
-2.72566e-06
7.12737e-07
-2.80486e-06
6.75832e-07
-2.87562e-06
6.35489e-07
-2.93863e-06
5.92317e-07
-2.99441e-06
5.46834e-07
-3.04342e-06
4.99445e-07
-3.08594e-06
4.50454e-07
-3.12222e-06
4.00161e-07
-3.15245e-06
3.48837e-07
-3.1768e-06
2.96603e-07
-3.19507e-06
2.43084e-07
-3.20745e-06
1.88906e-07
-3.21385e-06
1.33639e-07
-3.21421e-06
7.72309e-08
-3.20835e-06
1.93486e-08
-3.19619e-06
-4.00003e-08
-3.1774e-06
-1.01289e-07
-3.15152e-06
-1.64761e-07
-3.11799e-06
-2.30586e-07
-3.07615e-06
-2.98823e-07
-3.02544e-06
-3.69565e-07
-2.96483e-06
-4.43056e-07
-2.89352e-06
-5.18387e-07
-2.81061e-06
-5.95284e-07
-2.7154e-06
-6.72785e-07
-2.60757e-06
-7.49612e-07
-2.48647e-06
-8.24647e-07
-2.35164e-06
-8.95245e-07
-2.20317e-06
-9.59421e-07
-2.04109e-06
-1.01489e-06
-1.86697e-06
-1.05707e-06
-1.68233e-06
-1.08411e-06
-1.48955e-06
-1.09254e-06
-1.29159e-06
-1.08005e-06
-1.09208e-06
-1.0444e-06
-8.95293e-07
-9.84793e-07
-7.06753e-07
-9.01294e-07
-5.31174e-07
-7.97263e-07
-3.7208e-07
-6.76468e-07
-2.32615e-07
-5.42895e-07
-1.14973e-07
-4.01933e-07
-2.015e-08
-2.59347e-07
5.20817e-08
-1.20696e-07
1.02922e-07
9.02153e-09
1.33863e-07
1.25395e-07
1.46113e-07
2.24421e-07
1.40346e-07
3.01226e-07
1.17066e-07
3.4987e-07
7.85874e-08
3.63517e-07
3.12197e-08
3.28418e-07
1.84152e-07
3.65829e-08
-1.63652e-07
6.93908e-08
-2.71204e-07
8.37329e-08
-2.52538e-07
8.25637e-08
-1.95427e-07
6.95674e-08
-1.25424e-07
4.61814e-08
-5.36693e-08
1.27418e-08
1.56511e-08
-3.11873e-08
8.0646e-08
-8.66198e-08
1.40972e-07
-1.54936e-07
1.97651e-07
-2.37607e-07
2.52727e-07
-3.35902e-07
3.08713e-07
-4.50659e-07
3.67914e-07
-5.82108e-07
4.31828e-07
-7.29723e-07
5.00786e-07
-8.92067e-07
5.73781e-07
-1.06642e-06
6.48475e-07
-1.24874e-06
7.21574e-07
-1.43437e-06
7.89464e-07
-1.61832e-06
8.48076e-07
-1.79459e-06
8.93907e-07
-1.95901e-06
9.25217e-07
-2.10979e-06
9.42129e-07
-2.24696e-06
9.46128e-07
-2.37132e-06
9.38768e-07
-2.48393e-06
9.21833e-07
-2.58587e-06
8.96944e-07
-2.67813e-06
8.65593e-07
-2.76153e-06
8.28934e-07
-2.83675e-06
7.87955e-07
-2.90437e-06
7.43452e-07
-2.96492e-06
6.96045e-07
-3.01889e-06
6.46289e-07
-3.06667e-06
5.94608e-07
-3.10861e-06
5.41391e-07
-3.14488e-06
4.8672e-07
-3.17562e-06
4.30898e-07
-3.20106e-06
3.74278e-07
-3.22137e-06
3.16912e-07
-3.23701e-06
2.58731e-07
-3.24768e-06
1.99579e-07
-3.25335e-06
1.39302e-07
-3.25383e-06
7.7717e-08
-3.24897e-06
1.44863e-08
-3.23893e-06
-5.00452e-08
-3.22367e-06
-1.16544e-07
-3.20317e-06
-1.85265e-07
-3.17731e-06
-2.56447e-07
-3.14576e-06
-3.30372e-07
-3.10816e-06
-4.07161e-07
-3.06406e-06
-4.87154e-07
-3.01204e-06
-5.70415e-07
-2.95083e-06
-6.56486e-07
-2.87878e-06
-7.44836e-07
-2.79374e-06
-8.34657e-07
-2.69388e-06
-9.24509e-07
-2.57833e-06
-1.0108e-06
-2.44717e-06
-1.09058e-06
-2.30065e-06
-1.16142e-06
-2.13877e-06
-1.21895e-06
-1.9624e-06
-1.26047e-06
-1.77372e-06
-1.28123e-06
-1.57522e-06
-1.27855e-06
-1.3705e-06
-1.24912e-06
-1.16344e-06
-1.19185e-06
-9.59353e-07
-1.10538e-06
-7.64857e-07
-9.9176e-07
-5.85037e-07
-8.56288e-07
-4.23769e-07
-7.04163e-07
-2.84406e-07
-5.41296e-07
-1.6898e-07
-3.74772e-07
-7.79865e-08
-2.1169e-07
-1.04141e-08
-5.85509e-08
3.57017e-08
7.9279e-08
6.27042e-08
1.97419e-07
7.22749e-08
2.91655e-07
6.5469e-08
3.56676e-07
4.46149e-08
3.84372e-07
1.61469e-08
3.56886e-07
2.00299e-07
3.22101e-08
-1.95862e-07
5.01946e-08
-2.89188e-07
4.88677e-08
-2.51211e-07
3.28723e-08
-1.79432e-07
6.07689e-09
-9.86285e-08
-3.08681e-08
-1.67244e-08
-7.83171e-08
6.31e-08
-1.37189e-07
1.39518e-07
-2.08774e-07
2.12556e-07
-2.94478e-07
2.83355e-07
-3.9557e-07
3.5382e-07
-5.12913e-07
4.26056e-07
-6.46697e-07
5.01699e-07
-7.96296e-07
5.81427e-07
-9.60059e-07
6.64549e-07
-1.1349e-06
7.48621e-07
-1.31648e-06
8.3006e-07
-1.49987e-06
9.04956e-07
-1.67905e-06
9.6865e-07
-1.84869e-06
1.01771e-06
-2.00544e-06
1.05066e-06
-2.14854e-06
1.06832e-06
-2.27839e-06
1.07198e-06
-2.39591e-06
1.06365e-06
-2.5022e-06
1.04506e-06
-2.5984e-06
1.01804e-06
-2.68547e-06
9.84013e-07
-2.76416e-06
9.44286e-07
-2.8351e-06
8.99866e-07
-2.89878e-06
8.51642e-07
-2.95566e-06
8.00332e-07
-3.00615e-06
7.46528e-07
-3.05055e-06
6.90695e-07
-3.08909e-06
6.33142e-07
-3.12219e-06
5.74494e-07
-3.15058e-06
5.15113e-07
-3.17475e-06
4.55063e-07
-3.19474e-06
3.94269e-07
-3.21033e-06
3.32498e-07
-3.22183e-06
2.70232e-07
-3.22909e-06
2.06847e-07
-3.23232e-06
1.42527e-07
-3.23162e-06
7.70129e-08
-3.22692e-06
9.79256e-09
-3.21862e-06
-5.83435e-08
-3.20656e-06
-1.28605e-07
-3.19063e-06
-2.01198e-07
-3.17064e-06
-2.7644e-07
-3.14631e-06
-3.54699e-07
-3.11726e-06
-4.36213e-07
-3.08339e-06
-5.21017e-07
-3.04417e-06
-6.09642e-07
-2.99902e-06
-7.01638e-07
-2.94709e-06
-7.96758e-07
-2.88749e-06
-8.94256e-07
-2.81863e-06
-9.93373e-07
-2.73627e-06
-1.09316e-06
-2.63619e-06
-1.19065e-06
-2.51588e-06
-1.28174e-06
-2.3751e-06
-1.35973e-06
-2.21539e-06
-1.42017e-06
-2.03875e-06
-1.45787e-06
-1.84636e-06
-1.47093e-06
-1.64207e-06
-1.45341e-06
-1.42949e-06
-1.40443e-06
-1.21337e-06
-1.3215e-06
-1.00058e-06
-1.20455e-06
-7.98887e-07
-1.05798e-06
-6.14102e-07
-8.88948e-07
-4.50514e-07
-7.04885e-07
-3.11583e-07
-5.13703e-07
-1.99076e-07
-3.24197e-07
-1.12845e-07
-1.44782e-07
-5.09471e-08
1.73814e-08
-1.00967e-08
1.56568e-07
1.26308e-08
2.68928e-07
1.96522e-08
3.49655e-07
1.42512e-08
3.89773e-07
2.83038e-09
3.68306e-07
2.03129e-07
2.36206e-08
-2.19483e-07
2.52882e-08
-2.90856e-07
7.49899e-09
-2.33422e-07
-2.28202e-08
-1.49112e-07
-6.34437e-08
-5.8005e-08
-1.14282e-07
3.41137e-08
-1.76127e-07
1.24946e-07
-2.50184e-07
2.13575e-07
-3.37763e-07
3.00136e-07
-4.40059e-07
3.85651e-07
-5.57913e-07
4.71674e-07
-6.91532e-07
5.59675e-07
-8.4035e-07
6.50517e-07
-1.00276e-06
7.43838e-07
-1.17551e-06
8.37303e-07
-1.35412e-06
9.27229e-07
-1.53335e-06
1.00929e-06
-1.707e-06
1.0786e-06
-1.87018e-06
1.13183e-06
-2.02046e-06
1.16799e-06
-2.15722e-06
1.18742e-06
-2.28094e-06
1.19204e-06
-2.39264e-06
1.18367e-06
-2.49343e-06
1.16444e-06
-2.58438e-06
1.13601e-06
-2.66639e-06
1.10005e-06
-2.74017e-06
1.05779e-06
-2.80627e-06
1.01039e-06
-2.86517e-06
9.5877e-07
-2.9173e-06
9.03771e-07
-2.96305e-06
8.46075e-07
-3.00282e-06
7.86305e-07
-3.03722e-06
7.25094e-07
-3.06691e-06
6.6283e-07
-3.09202e-06
5.99609e-07
-3.11256e-06
5.35652e-07
-3.12857e-06
4.71073e-07
-3.14018e-06
4.05879e-07
-3.14796e-06
3.40276e-07
-3.1522e-06
2.74472e-07
-3.15342e-06
2.08062e-07
-3.15189e-06
1.41001e-07
-3.14789e-06
7.30148e-08
-3.14166e-06
3.56584e-09
-3.13318e-06
-6.6833e-08
-3.1224e-06
-1.39378e-07
-3.10939e-06
-2.14212e-07
-3.09411e-06
-2.91714e-07
-3.07653e-06
-3.72286e-07
-3.05648e-06
-4.56265e-07
-3.03354e-06
-5.43952e-07
-3.00743e-06
-6.35754e-07
-2.97735e-06
-7.3172e-07
-2.94233e-06
-8.31774e-07
-2.90118e-06
-9.35403e-07
-2.85317e-06
-1.04139e-06
-2.79677e-06
-1.14956e-06
-2.7303e-06
-1.25712e-06
-2.65015e-06
-1.36189e-06
-2.54855e-06
-1.46133e-06
-2.42079e-06
-1.54794e-06
-2.26699e-06
-1.61168e-06
-2.09087e-06
-1.64704e-06
-1.89574e-06
-1.64855e-06
-1.68509e-06
-1.61508e-06
-1.4633e-06
-1.54329e-06
-1.23677e-06
-1.43108e-06
-1.01399e-06
-1.28076e-06
-8.04369e-07
-1.09857e-06
-6.14584e-07
-8.94669e-07
-4.49304e-07
-6.78983e-07
-3.12007e-07
-4.61495e-07
-2.03978e-07
-2.5281e-07
-1.24089e-07
-6.25071e-08
-6.91292e-08
1.01608e-07
-3.44368e-08
2.34236e-07
-1.58295e-08
3.31047e-07
-8.04519e-09
3.81988e-07
-5.53635e-09
3.65798e-07
1.97593e-07
1.18724e-08
-2.31355e-07
-3.92651e-09
-2.75057e-07
-3.71521e-08
-2.00196e-07
-8.17657e-08
-1.04499e-07
-1.36257e-07
-3.51349e-09
-2.00997e-07
9.88537e-08
-2.7713e-07
2.01078e-07
-3.65911e-07
3.02356e-07
-4.68467e-07
4.02692e-07
-5.85594e-07
5.02778e-07
-7.17524e-07
6.03604e-07
-8.63808e-07
7.05959e-07
-1.02303e-06
8.09738e-07
-1.19203e-06
9.12842e-07
-1.36624e-06
1.01151e-06
-1.54029e-06
1.10127e-06
-1.70836e-06
1.17737e-06
-1.86593e-06
1.23616e-06
-2.01075e-06
1.27666e-06
-2.14212e-06
1.29936e-06
-2.26061e-06
1.30591e-06
-2.36718e-06
1.29861e-06
-2.46295e-06
1.27945e-06
-2.54888e-06
1.25037e-06
-2.62581e-06
1.21294e-06
-2.69435e-06
1.16859e-06
-2.75505e-06
1.11849e-06
-2.80838e-06
1.06371e-06
-2.8548e-06
1.00519e-06
-2.89477e-06
9.43746e-07
-2.92879e-06
8.80097e-07
-2.95734e-06
8.14851e-07
-2.98066e-06
7.48415e-07
-2.99907e-06
6.81243e-07
-3.01299e-06
6.1353e-07
-3.02292e-06
5.45574e-07
-3.02941e-06
4.77566e-07
-3.03309e-06
4.09555e-07
-3.03433e-06
3.41516e-07
-3.03324e-06
2.73383e-07
-3.03013e-06
2.04959e-07
-3.02522e-06
1.36086e-07
-3.01867e-06
6.64709e-08
-3.01083e-06
-4.27959e-09
-3.00152e-06
-7.61448e-08
-2.99104e-06
-1.49854e-07
-2.97954e-06
-2.25708e-07
-2.96714e-06
-3.04123e-07
-2.9539e-06
-3.8552e-07
-2.93985e-06
-4.70319e-07
-2.92485e-06
-5.58949e-07
-2.90878e-06
-6.51828e-07
-2.89125e-06
-7.49246e-07
-2.87168e-06
-8.51343e-07
-2.84912e-06
-9.57966e-07
-2.82182e-06
-1.06869e-06
-2.78841e-06
-1.18297e-06
-2.74651e-06
-1.29902e-06
-2.69447e-06
-1.41393e-06
-2.62963e-06
-1.52617e-06
-2.54724e-06
-1.63033e-06
-2.43643e-06
-1.72248e-06
-2.29274e-06
-1.79073e-06
-2.11818e-06
-1.82311e-06
-1.92035e-06
-1.81291e-06
-1.7021e-06
-1.76154e-06
-1.46991e-06
-1.66327e-06
-1.23157e-06
-1.51911e-06
-9.97881e-07
-1.33225e-06
-7.80161e-07
-1.11239e-06
-5.86089e-07
-8.73055e-07
-4.20628e-07
-6.26956e-07
-2.86989e-07
-3.86449e-07
-1.85568e-07
-1.63928e-07
-1.13957e-07
2.99966e-08
-6.69334e-08
1.87212e-07
-3.84166e-08
3.02531e-07
-2.06158e-08
3.64188e-07
-9.13347e-09
3.54315e-07
1.88459e-07
-1.86659e-09
-2.29489e-07
-3.44254e-08
-2.42498e-07
-8.30504e-08
-1.51571e-07
-1.4173e-07
-4.58188e-08
-2.09753e-07
6.45089e-08
-2.88033e-07
1.77134e-07
-3.77788e-07
2.90833e-07
-4.80163e-07
4.0473e-07
-5.95947e-07
5.18476e-07
-7.25406e-07
6.32237e-07
-8.68204e-07
7.46402e-07
-1.02317e-06
8.60928e-07
-1.18744e-06
9.74007e-07
-1.35652e-06
1.08192e-06
-1.52515e-06
1.18014e-06
-1.68797e-06
1.2641e-06
-1.84062e-06
1.33002e-06
-1.98077e-06
1.3763e-06
-2.10764e-06
1.40353e-06
-2.22157e-06
1.41329e-06
-2.32359e-06
1.40794e-06
-2.41468e-06
1.3897e-06
-2.49575e-06
1.36051e-06
-2.5675e-06
1.32212e-06
-2.63053e-06
1.27597e-06
-2.68536e-06
1.22342e-06
-2.73247e-06
1.1656e-06
-2.77239e-06
1.10363e-06
-2.80565e-06
1.03845e-06
-2.83283e-06
9.70917e-07
-2.85447e-06
9.01741e-07
-2.87113e-06
8.31509e-07
-2.88338e-06
7.60667e-07
-2.89176e-06
6.89628e-07
-2.89687e-06
6.18633e-07
-2.8992e-06
5.47907e-07
-2.89917e-06
4.77542e-07
-2.89714e-06
4.07515e-07
-2.89336e-06
3.37744e-07
-2.88808e-06
2.68102e-07
-2.88152e-06
1.98393e-07
-2.87383e-06
1.28402e-07
-2.8652e-06
5.78416e-08
-2.8559e-06
-1.35868e-08
-2.84589e-06
-8.61509e-08
-2.83545e-06
-1.60297e-07
-2.82476e-06
-2.36401e-07
-2.81399e-06
-3.14886e-07
-2.80333e-06
-3.96182e-07
-2.79291e-06
-4.8074e-07
-2.78283e-06
-5.69028e-07
-2.77316e-06
-6.615e-07
-2.76384e-06
-7.58561e-07
-2.75466e-06
-8.60525e-07
-2.74506e-06
-9.67563e-07
-2.73406e-06
-1.07969e-06
-2.72042e-06
-1.1966e-06
-2.70214e-06
-1.31731e-06
-2.67586e-06
-1.44021e-06
-2.63904e-06
-1.56298e-06
-2.58842e-06
-1.68096e-06
-2.51988e-06
-1.79102e-06
-2.4255e-06
-1.88512e-06
-2.29251e-06
-1.95609e-06
-2.12107e-06
-1.98434e-06
-1.91946e-06
-1.96316e-06
-1.69245e-06
-1.89027e-06
-1.44824e-06
-1.76332e-06
-1.19702e-06
-1.58347e-06
-9.52186e-07
-1.35722e-06
-7.2721e-07
-1.09803e-06
-5.3071e-07
-8.23456e-07
-3.67629e-07
-5.49531e-07
-2.40482e-07
-2.91075e-07
-1.48271e-07
-6.22143e-08
-8.65767e-08
1.25518e-07
-4.80538e-08
2.64008e-07
-2.36428e-08
3.39777e-07
-8.09194e-09
3.38764e-07
1.80367e-07
-1.64846e-08
-2.13004e-07
-6.56396e-08
-1.93343e-07
-1.28665e-07
-8.85458e-08
-2.00696e-07
2.62121e-08
-2.81627e-07
1.4544e-07
-3.72581e-07
2.68089e-07
-4.74762e-07
3.93014e-07
-5.8905e-07
5.19018e-07
-7.15796e-07
6.45222e-07
-8.54771e-07
7.71212e-07
-1.00504e-06
8.96673e-07
-1.16412e-06
1.02001e-06
-1.32783e-06
1.13771e-06
-1.49114e-06
1.24524e-06
-1.64912e-06
1.33812e-06
-1.79758e-06
1.41255e-06
-1.93381e-06
1.46625e-06
-2.05688e-06
1.49937e-06
-2.16699e-06
1.51364e-06
-2.265e-06
1.51129e-06
-2.35184e-06
1.49478e-06
-2.42832e-06
1.46617e-06
-2.49509e-06
1.42729e-06
-2.55272e-06
1.37975e-06
-2.60175e-06
1.325e-06
-2.64275e-06
1.26441e-06
-2.67633e-06
1.19919e-06
-2.70319e-06
1.13049e-06
-2.72402e-06
1.05928e-06
-2.73954e-06
9.86441e-07
-2.75046e-06
9.12656e-07
-2.75743e-06
8.38482e-07
-2.76111e-06
7.64343e-07
-2.76204e-06
6.90559e-07
-2.76073e-06
6.17322e-07
-2.75756e-06
5.44744e-07
-2.75285e-06
4.72832e-07
-2.74685e-06
4.01509e-07
-2.73976e-06
3.30653e-07
-2.73175e-06
2.601e-07
-2.723e-06
1.89637e-07
-2.71362e-06
1.19027e-07
-2.70378e-06
4.79941e-08
-2.69361e-06
-2.37481e-08
-2.68325e-06
-9.65188e-08
-2.67286e-06
-1.70686e-07
-2.66264e-06
-2.4662e-07
-2.6528e-06
-3.24724e-07
-2.64356e-06
-4.05419e-07
-2.63515e-06
-4.8915e-07
-2.6278e-06
-5.76385e-07
-2.6217e-06
-6.676e-07
-2.61701e-06
-7.63251e-07
-2.61377e-06
-8.63762e-07
-2.61184e-06
-9.6949e-07
-2.61085e-06
-1.08069e-06
-2.61007e-06
-1.19738e-06
-2.60817e-06
-1.31921e-06
-2.60299e-06
-1.44538e-06
-2.59169e-06
-1.57429e-06
-2.56952e-06
-1.70313e-06
-2.53262e-06
-1.82791e-06
-2.47605e-06
-1.94169e-06
-2.39316e-06
-2.03899e-06
-2.26906e-06
-2.10843e-06
-2.10014e-06
-2.13208e-06
-1.89315e-06
-2.09726e-06
-1.65557e-06
-2.0009e-06
-1.39795e-06
-1.8411e-06
-1.13343e-06
-1.62174e-06
-8.78324e-07
-1.35313e-06
-6.48338e-07
-1.05344e-06
-4.52697e-07
-7.45172e-07
-2.95772e-07
-4.47999e-07
-1.7876e-07
-1.79227e-07
-9.8645e-08
4.5403e-08
-4.83989e-08
2.13762e-07
-1.91124e-08
3.1049e-07
-3.63624e-09
3.23288e-07
1.76731e-07
-3.13237e-08
-1.81681e-07
-9.58453e-08
-1.28822e-07
-1.72361e-07
-1.20306e-08
-2.56828e-07
1.1068e-07
-3.49675e-07
2.38287e-07
-4.52074e-07
3.70488e-07
-5.65087e-07
5.06026e-07
-6.89255e-07
6.43186e-07
-8.24498e-07
7.80465e-07
-9.70085e-07
9.16799e-07
-1.12391e-06
1.0505e-06
-1.28227e-06
1.17836e-06
-1.44054e-06
1.29598e-06
-1.59414e-06
1.39884e-06
-1.73904e-06
1.48301e-06
-1.8722e-06
1.54571e-06
-1.99226e-06
1.58631e-06
-2.09929e-06
1.60641e-06
-2.19395e-06
1.6083e-06
-2.27711e-06
1.59445e-06
-2.34952e-06
1.56719e-06
-2.4118e-06
1.52845e-06
-2.46453e-06
1.48001e-06
-2.50829e-06
1.42352e-06
-2.54378e-06
1.36049e-06
-2.57173e-06
1.29236e-06
-2.59298e-06
1.22044e-06
-2.60838e-06
1.14589e-06
-2.61878e-06
1.06968e-06
-2.62498e-06
9.92639e-07
-2.62771e-06
9.1539e-07
-2.62764e-06
8.38411e-07
-2.62533e-06
7.62034e-07
-2.62125e-06
6.86475e-07
-2.61576e-06
6.11837e-07
-2.60916e-06
5.38141e-07
-2.60165e-06
4.65322e-07
-2.5934e-06
3.93259e-07
-2.58455e-06
3.21799e-07
-2.5752e-06
2.50747e-07
-2.56544e-06
1.79878e-07
-2.55536e-06
1.08952e-07
-2.54507e-06
3.77019e-08
-2.53466e-06
-3.4154e-08
-2.52426e-06
-1.06921e-07
-2.51402e-06
-1.80928e-07
-2.50412e-06
-2.5652e-07
-2.49478e-06
-3.34066e-07
-2.48624e-06
-4.13958e-07
-2.47877e-06
-4.96613e-07
-2.47268e-06
-5.82479e-07
-2.46826e-06
-6.72023e-07
-2.46578e-06
-7.65724e-07
-2.46548e-06
-8.64062e-07
-2.46747e-06
-9.67501e-07
-2.47172e-06
-1.07644e-06
-2.47794e-06
-1.19116e-06
-2.48544e-06
-1.3117e-06
-2.49302e-06
-1.43781e-06
-2.49865e-06
-1.56865e-06
-2.49917e-06
-1.70261e-06
-2.49026e-06
-1.83682e-06
-2.46531e-06
-1.96664e-06
-2.41903e-06
-2.08527e-06
-2.34324e-06
-2.18423e-06
-2.22476e-06
-2.25056e-06
-2.05559e-06
-2.26644e-06
-1.84139e-06
-2.2151e-06
-1.59134e-06
-2.09115e-06
-1.31941e-06
-1.89367e-06
-1.0421e-06
-1.63044e-06
-7.79143e-07
-1.3164e-06
-5.48325e-07
-9.7599e-07
-3.58527e-07
-6.37797e-07
-2.13003e-07
-3.24751e-07
-1.10774e-07
-5.68261e-08
-4.62384e-08
1.49226e-07
-1.13794e-08
2.75631e-07
2.47577e-09
3.09433e-07
1.79207e-07
-4.55234e-08
-1.36157e-07
-1.24024e-07
-5.0321e-08
-2.12742e-07
7.66877e-08
-3.0856e-07
2.06498e-07
-4.12031e-07
3.41758e-07
-5.24343e-07
4.828e-07
-6.46337e-07
6.2802e-07
-7.78197e-07
7.75046e-07
-9.19409e-07
9.21678e-07
-1.06822e-06
1.06561e-06
-1.22145e-06
1.20373e-06
-1.37508e-06
1.33199e-06
-1.5248e-06
1.4457e-06
-1.6667e-06
1.54074e-06
-1.79756e-06
1.61388e-06
-1.9155e-06
1.66366e-06
-2.02028e-06
1.69109e-06
-2.11241e-06
1.69854e-06
-2.19265e-06
1.68854e-06
-2.26173e-06
1.66354e-06
-2.32027e-06
1.62573e-06
-2.36888e-06
1.57705e-06
-2.40822e-06
1.51936e-06
-2.43908e-06
1.45438e-06
-2.46236e-06
1.38377e-06
-2.47902e-06
1.30902e-06
-2.49004e-06
1.23146e-06
-2.49637e-06
1.15222e-06
-2.49889e-06
1.0722e-06
-2.49839e-06
9.92137e-07
-2.49553e-06
9.12539e-07
-2.49089e-06
8.33769e-07
-2.48491e-06
7.5605e-07
-2.47793e-06
6.79492e-07
-2.4702e-06
6.0411e-07
-2.4619e-06
5.29847e-07
-2.45317e-06
4.56584e-07
-2.44407e-06
3.84164e-07
-2.43468e-06
3.1241e-07
-2.42504e-06
2.41107e-07
-2.41518e-06
1.70018e-07
-2.40515e-06
9.89159e-08
-2.39499e-06
2.7546e-08
-2.38478e-06
-4.43639e-08
-2.37461e-06
-1.17088e-07
-2.36462e-06
-1.90921e-07
-2.35497e-06
-2.66171e-07
-2.34587e-06
-3.43166e-07
-2.33757e-06
-4.22256e-07
-2.33037e-06
-5.03818e-07
-2.32459e-06
-5.8826e-07
-2.32059e-06
-6.7602e-07
-2.31874e-06
-7.6757e-07
-2.3194e-06
-8.63408e-07
-2.32285e-06
-9.6405e-07
-2.32929e-06
-1.07e-06
-2.33873e-06
-1.18172e-06
-2.35089e-06
-1.29954e-06
-2.36513e-06
-1.42357e-06
-2.38021e-06
-1.55357e-06
-2.39411e-06
-1.68871e-06
-2.40369e-06
-1.82724e-06
-2.40417e-06
-1.96617e-06
-2.38887e-06
-2.10056e-06
-2.35027e-06
-2.22283e-06
-2.27921e-06
-2.32162e-06
-2.16161e-06
-2.38404e-06
-1.98888e-06
-2.38783e-06
-1.76437e-06
-2.31567e-06
-1.50003e-06
-2.15801e-06
-1.21353e-06
-1.91694e-06
-9.25425e-07
-1.60451e-06
-6.59346e-07
-1.24207e-06
-4.34141e-07
-8.63001e-07
-2.57273e-07
-5.01619e-07
-1.29915e-07
-1.84184e-07
-4.82046e-08
6.75154e-08
-5.52601e-09
2.32952e-07
7.68802e-09
2.96219e-07
1.86895e-07
-5.8505e-08
-7.76522e-08
-1.49281e-07
4.04555e-08
-2.48911e-07
1.76317e-07
-3.54662e-07
3.12249e-07
-4.67231e-07
4.54327e-07
-5.87717e-07
6.03287e-07
-7.16711e-07
7.57013e-07
-8.54002e-07
9.12338e-07
-9.98204e-07
1.06588e-06
-1.14668e-06
1.21409e-06
-1.2961e-06
1.35315e-06
-1.44242e-06
1.47831e-06
-1.58187e-06
1.58515e-06
-1.71113e-06
1.67e-06
-1.82785e-06
1.7306e-06
-1.93132e-06
1.76712e-06
-2.02184e-06
1.78162e-06
-2.10009e-06
1.77678e-06
-2.16675e-06
1.7552e-06
-2.22249e-06
1.71927e-06
-2.26794e-06
1.67118e-06
-2.30387e-06
1.61298e-06
-2.33115e-06
1.54664e-06
-2.35081e-06
1.47404e-06
-2.36393e-06
1.39689e-06
-2.3716e-06
1.31669e-06
-2.37486e-06
1.23472e-06
-2.37467e-06
1.15202e-06
-2.37183e-06
1.06937e-06
-2.36705e-06
9.87352e-07
-2.36087e-06
9.06359e-07
-2.35373e-06
8.26626e-07
-2.34594e-06
7.48263e-07
-2.33773e-06
6.71285e-07
-2.32925e-06
5.9563e-07
-2.32058e-06
5.21178e-07
-2.31177e-06
4.47772e-07
-2.30283e-06
3.75224e-07
-2.29376e-06
3.03338e-07
-2.28456e-06
2.31901e-07
-2.2752e-06
1.60664e-07
-2.2657e-06
8.94119e-08
-2.25607e-06
1.79172e-08
-2.24635e-06
-5.40807e-08
-2.23662e-06
-1.2682e-07
-2.22698e-06
-2.00562e-07
-2.21758e-06
-2.75573e-07
-2.2086e-06
-3.52138e-07
-2.2003e-06
-4.30557e-07
-2.19296e-06
-5.11159e-07
-2.18692e-06
-5.943e-07
-2.18257e-06
-6.80376e-07
-2.18031e-06
-7.69823e-07
-2.1806e-06
-8.63125e-07
-2.18384e-06
-9.60811e-07
-2.19039e-06
-1.06344e-06
-2.20052e-06
-1.1716e-06
-2.21425e-06
-1.2858e-06