/*--------------------------------*- C++ -*----------------------------------*\
  =========                 |
  \\      /  F ield         | OpenFOAM: The Open Source CFD Toolbox
   \\    /   O peration     | Website:  https://openfoam.org
    \\  /    A nd           | Version:  13
     \\/     M anipulation  |
\*---------------------------------------------------------------------------*/
FoamFile
{
    format      ascii;
    class       volScalarField;
    location    "1400";
    object      k;
}
// * * * * * * * * * * * * * * * * * * * * * * * * * * * * * * * * * * * * * //

dimensions      [0 2 -2 0 0 0 0];

internalField   nonuniform List<scalar> 
12225
(
0.677505
1.31644
1.55397
1.642
1.63489
1.59597
2.16479
2.71741
2.96686
2.43557
1.7316
1.6651
1.43893
1.64859
1.41277
1.58803
1.22354
2.12251
0.40354
0.43696
0.520105
0.537958
0.569976
0.592469
0.615163
0.679905
0.709992
0.726078
0.711129
0.673474
0.672973
0.677046
0.670235
0.659999
0.662484
0.720648
0.378488
0.381789
0.384409
0.321059
0.281985
0.272259
0.250785
0.214348
0.182176
0.156733
0.142355
0.146535
0.150448
0.142106
0.140565
0.144826
0.148393
0.160744
0.37513
0.372788
0.367102
0.328359
0.270928
0.223651
0.189255
0.157111
0.136069
0.118541
0.103402
0.0910533
0.0804709
0.0720056
0.065142
0.0589602
0.0547422
0.0529075
0.374625
0.37142
0.364725
0.33683
0.299935
0.257289
0.222849
0.190908
0.164942
0.145166
0.124269
0.11034
0.0980327
0.0907024
0.0850137
0.0805522
0.0787365
0.0760002
0.374427
0.371095
0.36585
0.351838
0.335194
0.315898
0.295821
0.275899
0.256398
0.238016
0.222211
0.20726
0.196081
0.186904
0.180494
0.174737
0.172022
0.167167
0.37425
0.371292
0.367996
0.360626
0.352322
0.342758
0.332821
0.321732
0.311249
0.300421
0.291453
0.282302
0.275506
0.268003
0.2633
0.256764
0.253939
0.248158
0.374099
0.371362
0.368943
0.364806
0.360159
0.354907
0.349524
0.34341
0.337602
0.33131
0.326106
0.320409
0.316085
0.310905
0.307498
0.302737
0.300371
0.295888
0.373953
0.37151
0.369299
0.366509
0.363505
0.360128
0.356759
0.352955
0.349404
0.34554
0.342218
0.338558
0.335584
0.332093
0.329493
0.326171
0.3241
0.320991
0.373872
0.371559
0.36942
0.367148
0.364867
0.362395
0.359972
0.357322
0.354828
0.352171
0.349788
0.347231
0.345002
0.342526
0.340478
0.338105
0.336366
0.334134
0.373844
0.37156
0.369434
0.367337
0.365331
0.363278
0.3613
0.359237
0.357279
0.355259
0.353384
0.351441
0.349662
0.347783
0.346115
0.344319
0.342847
0.341158
0.373835
0.371558
0.369426
0.367372
0.365437
0.363532
0.36172
0.359906
0.358186
0.356463
0.354838
0.353203
0.35167
0.350109
0.348674
0.347191
0.345897
0.344503
0.373831
0.371557
0.369416
0.367374
0.36545
0.363597
0.361844
0.360139
0.358523
0.356945
0.35545
0.353982
0.352592
0.351216
0.349926
0.348636
0.347459
0.346256
0.373829
0.371555
0.369408
0.367366
0.365438
0.363598
0.361857
0.36019
0.358609
0.35709
0.355649
0.35426
0.352939
0.351661
0.350448
0.349269
0.348159
0.347073
0.373827
0.371553
0.3694
0.367358
0.365423
0.363585
0.36184
0.36018
0.358602
0.357098
0.355668
0.354302
0.353001
0.351757
0.35057
0.349434
0.348351
0.347313
0.373826
0.371551
0.369396
0.367351
0.365412
0.36357
0.361822
0.360159
0.358579
0.357075
0.355643
0.354279
0.352979
0.351739
0.350556
0.349428
0.34835
0.347322
0.373825
0.37155
0.369392
0.367346
0.365404
0.36356
0.361808
0.360143
0.358559
0.357052
0.355617
0.35425
0.352947
0.351706
0.350521
0.349391
0.348312
0.347283
0.373825
0.371549
0.36939
0.367343
0.365399
0.363554
0.3618
0.360133
0.358547
0.357037
0.3556
0.35423
0.352925
0.351681
0.350494
0.349362
0.348281
0.34725
0.373825
0.371549
0.36939
0.367342
0.365398
0.363552
0.361798
0.36013
0.358542
0.357032
0.355593
0.354222
0.352916
0.35167
0.350482
0.349349
0.348267
0.347234
0.373825
0.371551
0.369392
0.367346
0.365402
0.363557
0.361803
0.360136
0.358549
0.35704
0.355601
0.354231
0.352925
0.35168
0.350491
0.349358
0.348276
0.347244
0.373826
0.371552
0.369396
0.367351
0.36541
0.363566
0.361815
0.360149
0.358565
0.357057
0.35562
0.354252
0.352947
0.351703
0.350516
0.349384
0.348304
0.347272
0.373826
0.371556
0.369401
0.36736
0.365421
0.363582
0.361832
0.360171
0.35859
0.357085
0.355652
0.354287
0.352984
0.351744
0.350558
0.34943
0.34835
0.347321
0.373826
0.371562
0.369408
0.367376
0.365438
0.363605
0.361859
0.360204
0.358626
0.357128
0.355696
0.354337
0.353035
0.3518
0.350609
0.349484
0.348395
0.34736
0.373823
0.371571
0.369422
0.367407
0.365466
0.363644
0.361897
0.360249
0.358669
0.357172
0.355735
0.354375
0.353056
0.351812
0.350588
0.349445
0.348303
0.347224
0.373803
0.37158
0.369469
0.367494
0.365544
0.363736
0.361968
0.360315
0.358696
0.357178
0.355683
0.35429
0.35288
0.35158
0.350223
0.348995
0.347686
0.346468
0.373671
0.371628
0.369729
0.36788
0.365938
0.364155
0.362284
0.360563
0.358767
0.357143
0.355442
0.353914
0.352224
0.350733
0.349022
0.347556
0.345854
0.344331
0.373062
0.372225
0.371285
0.369922
0.368166
0.366287
0.364106
0.362071
0.359694
0.357732
0.355472
0.353604
0.351275
0.349341
0.346945
0.344981
0.342639
0.340625
0.371065
0.376914
0.380383
0.381319
0.380962
0.378629
0.37607
0.373012
0.369536
0.367054
0.36459
0.362864
0.360654
0.35897
0.357303
0.355884
0.354765
0.353727
0.3706
0.417839
0.448035
0.468682
0.484963
0.496458
0.507381
0.516285
0.526857
0.536146
0.548276
0.559031
0.573092
0.584642
0.600509
0.613087
0.627203
0.638872
0.664679
1.19364
1.45079
1.56365
1.60649
1.6021
1.58435
1.55159
1.51326
1.47473
1.43801
1.40397
1.3731
1.34541
1.32052
1.2987
1.27922
1.26204
1.64016e-08
4.01228e-07
2.05464e-06
8.15002e-06
2.72637e-05
8.20241e-05
0.000220016
0.000447866
0.000738366
0.00105049
0.00133713
0.00156273
0.00171836
0.00178509
0.00176681
0.00170487
0.00157214
0.00136053
0.00115178
0.000979923
0.000817966
0.000662236
0.000509949
0.00037006
0.000243538
0.000144302
7.77929e-05
3.98354e-05
2.05742e-05
1.12305e-05
6.7292e-06
4.8302e-06
5.42044e-06
1.02746e-05
3.22981e-05
8.47717e-05
0.000332407
0.000742721
0.00123593
0.0015398
0.00149512
0.00130207
0.00102876
0.000779713
0.000659969
0.000697864
0.000806803
0.00125163
0.00201311
0.00471392
0.0130265
0.0381933
0.0749344
0.101426
0.112429
0.113977
0.124371
0.141758
0.16162
0.179306
0.172811
0.150388
0.163988
0.177253
0.158633
0.174423
0.18146
0.190141
0.197985
0.206111
0.213759
0.221529
0.229039
0.236555
0.24394
0.251279
0.258551
0.26576
0.272925
0.28002
0.287079
0.294069
0.301015
0.307896
0.314719
0.321484
0.328178
0.334819
0.341379
0.347874
0.354275
0.360585
0.366795
0.372897
0.378879
0.384733
0.390443
0.396002
0.401393
0.40661
0.411641
0.416492
0.421177
0.425745
0.430231
0.434526
0.438671
0.442663
0.446482
0.450149
0.453629
0.45695
0.460072
0.463026
0.465772
0.468341
0.470696
0.472865
0.474818
0.476582
0.478129
0.479476
0.480606
0.481537
0.482264
0.482809
0.483175
0.483381
0.483457
0.483517
0.482582
0.482369
0.480673
0.480215
0.477879
0.4766
0.474781
0.47308
0.470963
0.468729
0.466264
0.46365
0.460875
0.457975
0.45495
0.451821
0.448593
0.445286
0.441904
0.438466
0.434977
0.431452
0.427899
0.424332
0.420757
0.417186
0.413629
0.410095
0.406603
0.403168
0.399823
0.396567
0.393423
0.390384
0.387471
0.384668
0.381995
0.37943
0.376996
0.374668
0.372467
0.370356
0.368342
0.366376
0.364426
0.362366
0.36012
0.357216
0.353189
0.339863
6.96359e-08
1.92916e-06
1.28923e-05
5.66831e-05
0.000212455
0.000670972
0.00160002
0.00297237
0.00459377
0.00627752
0.00784441
0.00914876
0.0101352
0.0107644
0.0111054
0.0110787
0.0109381
0.0105954
0.0100392
0.0092543
0.00823968
0.0070687
0.00575256
0.00445402
0.00311536
0.00207674
0.00132653
0.000824023
0.000501478
0.000305248
0.000194024
0.000136394
0.000120821
0.000158256
0.000421545
0.000912479
0.00327731
0.00686628
0.0106744
0.013262
0.0139558
0.0134622
0.0121222
0.0105314
0.0109868
0.0135956
0.0185827
0.0267863
0.0414978
0.064897
0.0892083
0.113772
0.134726
0.150827
0.164182
0.177466
0.194021
0.210581
0.229663
0.246931
0.263145
0.281078
0.300066
0.318344
0.336778
0.355765
0.374239
0.392472
0.410468
0.428254
0.445828
0.463256
0.480542
0.497716
0.514809
0.531822
0.548793
0.565706
0.582593
0.599433
0.616253
0.633032
0.649787
0.666499
0.683177
0.699808
0.716393
0.732931
0.74941
0.765828
0.782156
0.798391
0.814515
0.830509
0.846355
0.862029
0.87751
0.89277
0.907785
0.92252
0.936945
0.951015
0.9647
0.977965
0.990835
1.00346
1.01579
1.02783
1.03957
1.05099
1.06209
1.07284
1.08324
1.09326
1.1029
1.11214
1.12096
1.12935
1.13731
1.14482
1.15186
1.15842
1.16449
1.17006
1.17512
1.17967
1.18372
1.18727
1.19032
1.19291
1.19504
1.19659
1.19722
1.1977
1.19752
1.19647
1.19558
1.19429
1.19273
1.19066
1.18807
1.185
1.18147
1.17754
1.17321
1.16854
1.16352
1.15821
1.15262
1.14678
1.14072
1.13447
1.12805
1.12149
1.11482
1.10806
1.10124
1.09439
1.08753
1.08073
1.07401
1.0674
1.06093
1.05462
1.0485
1.04254
1.03678
1.03118
1.02578
1.02055
1.0155
1.0106
1.00582
1.00111
0.996382
0.99147
0.986199
0.979957
0.970946
0.948895
1.81163e-07
5.42583e-06
4.14937e-05
0.000199264
0.000604965
0.00178732
0.00375962
0.00609231
0.00847613
0.0106743
0.0125416
0.0140075
0.0150585
0.0157116
0.0160418
0.0160297
0.015891
0.0155634
0.0150552
0.0144106
0.013632
0.0127093
0.0116333
0.0103862
0.00904257
0.00747419
0.00582455
0.00429156
0.00294749
0.00194425
0.00130612
0.000946066
0.000734516
0.000527892
0.00210961
0.00452565
0.0125781
0.0214958
0.0284006
0.0326604
0.034607
0.0344867
0.0346259
0.0390987
0.0522408
0.0687939
0.0861573
0.105712
0.126822
0.146792
0.167077
0.187623
0.208237
0.229882
0.253286
0.279343
0.306868
0.335042
0.363343
0.391261
0.418869
0.446466
0.473606
0.500098
0.526101
0.551514
0.576438
0.600918
0.624996
0.64875
0.672228
0.695479
0.718544
0.741455
0.764243
0.786927
0.809531
0.832059
0.854526
0.876929
0.899276
0.921562
0.943788
0.965945
0.988031
1.01004
1.03196
1.05378
1.0755
1.09709
1.11854
1.13984
1.16096
1.1819
1.20263
1.22313
1.24338
1.26337
1.28307
1.30247
1.32157
1.34033
1.35877
1.37687
1.39462
1.412
1.429
1.44559
1.46177
1.47751
1.4928
1.50761
1.52195
1.53576
1.54906
1.56181
1.574
1.5856
1.59662
1.60703
1.6168
1.62593
1.6344
1.64219
1.64929
1.65571
1.66142
1.66643
1.67072
1.67428
1.67712
1.67923
1.68046
1.68132
1.68154
1.68126
1.6801
1.67832
1.67586
1.67272
1.6689
1.66444
1.65938
1.65376
1.64762
1.64099
1.63391
1.62642
1.61856
1.61036
1.60188
1.59313
1.58418
1.57504
1.56576
1.55638
1.54692
1.53742
1.52793
1.51847
1.50911
1.49986
1.49077
1.48187
1.47316
1.46465
1.45635
1.44825
1.44036
1.43267
1.42517
1.41786
1.4107
1.40365
1.39664
1.38953
1.38212
1.37396
1.36308
1.34289
6.66319e-07
1.99899e-05
0.000156507
0.000691841
0.00198232
0.00483425
0.00833648
0.0118169
0.0149025
0.0173958
0.0192424
0.0204709
0.0211573
0.021383
0.0212992
0.0210197
0.0205027
0.019857
0.0191175
0.0183036
0.017421
0.0164655
0.0154308
0.0142909
0.0130418
0.0116598
0.0101488
0.008578
0.00703583
0.00558148
0.0042946
0.00329346
0.00284337
0.00358268
0.00826742
0.020315
0.0352375
0.0470684
0.0555678
0.0613411
0.0667517
0.074504
0.0857714
0.0998035
0.114627
0.129952
0.146623
0.165899
0.186782
0.20903
0.233712
0.260047
0.288362
0.318381
0.349919
0.382546
0.415633
0.448806
0.481763
0.514347
0.546503
0.578233
0.609413
0.63998
0.670053
0.69961
0.728728
0.757448
0.78583
0.813928
0.841789
0.86945
0.896949
0.924311
0.951563
0.978722
1.0058
1.03282
1.05977
1.08665
1.11348
1.14024
1.16693
1.19354
1.22006
1.24649
1.27282
1.29902
1.32509
1.35101
1.37675
1.40231
1.42766
1.45279
1.47768
1.5023
1.52664
1.55067
1.57439
1.59778
1.62081
1.64348
1.66576
1.68763
1.70907
1.73005
1.75056
1.77058
1.79008
1.80904
1.82745
1.84528
1.86251
1.87911
1.89508
1.91038
1.92499
1.9389
1.95209
1.96453
1.97622
1.98712
1.99722
2.0065
2.01495
2.02257
2.02934
2.03525
2.04028
2.04443
2.0477
2.05009
2.05156
2.05234
2.05259
2.05213
2.05056
2.04818
2.04497
2.04097
2.0362
2.03068
2.02444
2.01754
2.01002
2.00192
1.99328
1.98415
1.97458
1.9646
1.95427
1.94363
1.93272
1.9216
1.9103
1.89886
1.88732
1.87573
1.86411
1.85253
1.84102
1.82962
1.81836
1.80728
1.7964
1.78573
1.77526
1.76499
1.75493
1.74507
1.73541
1.72595
1.71666
1.70752
1.69845
1.68937
1.6801
1.67032
1.65832
1.63973
2.31195e-06
6.96297e-05
0.000523431
0.00198407
0.00562673
0.0108286
0.0158133
0.0199182
0.0229331
0.0249053
0.0260079
0.0264454
0.0263887
0.0260717
0.0254442
0.0246686
0.0238026
0.0228867
0.0219473
0.0209969
0.0200347
0.0190537
0.0180423
0.0169784
0.0158423
0.0146091
0.013257
0.0118177
0.0103719
0.00900977
0.00767723
0.00666123
0.00814048
0.0152594
0.0325633
0.0523127
0.0689395
0.0815663
0.0908597
0.0991159
0.108177
0.118562
0.130177
0.142885
0.157628
0.175156
0.195615
0.218642
0.244433
0.27237
0.302465
0.33409
0.367124
0.40115
0.435911
0.471093
0.506443
0.541791
0.577002
0.612003
0.646721
0.681123
0.715166
0.748817
0.782123
0.815085
0.847741
0.88012
0.91226
0.944197
0.975962
1.00758
1.03908
1.07048
1.1018
1.13305
1.16425
1.19538
1.22646
1.25749
1.28846
1.31936
1.35019
1.38094
1.41159
1.44213
1.47256
1.50285
1.53298
1.56294
1.5927
1.62225
1.65156
1.68062
1.70939
1.73787
1.76602
1.79383
1.82127
1.84833
1.87497
1.90118
1.92693
1.9522
1.97694
2.00116
2.02482
2.04789
2.07036
2.09221
2.11339
2.13391
2.15372
2.17281
2.19114
2.2087
2.22547
2.24142
2.25653
2.27078
2.28415
2.29661
2.30814
2.31874
2.32838
2.33705
2.34474
2.35145
2.35716
2.36185
2.36553
2.36821
2.36984
2.37061
2.3708
2.37006
2.36813
2.36525
2.36143
2.35671
2.35111
2.34466
2.33741
2.3294
2.32067
2.31127
2.30126
2.29068
2.27958
2.26801
2.25603
2.24368
2.23101
2.21807
2.20491
2.19158
2.17812
2.16456
2.15096
2.13736
2.12381
2.11035
2.09702
2.08385
2.07086
2.05807
2.04548
2.03308
2.02088
2.00888
1.99707
1.98547
1.97405
1.9628
1.95168
1.94062
1.92951
1.9181
1.90495
1.8868
7.19687e-06
0.000212686
0.00152786
0.00547279
0.0129687
0.0198515
0.0249562
0.0282471
0.0300792
0.0308769
0.0309464
0.0306468
0.0299542
0.0290273
0.0279795
0.0268751
0.0257618
0.0246693
0.0236147
0.0226015
0.0216229
0.020666
0.019713
0.0187375
0.0177132
0.0166284
0.0154439
0.0141402
0.0126906
0.0115646
0.0119217
0.015026
0.0258742
0.046755
0.0698768
0.0899273
0.105156
0.115865
0.123967
0.131692
0.140234
0.150157
0.162775
0.178479
0.197384
0.219544
0.244855
0.27271
0.302732
0.33432
0.367244
0.401159
0.435892
0.471239
0.507072
0.543257
0.579694
0.616293
0.652982
0.689692
0.726349
0.762913
0.799356
0.835647
0.871788
0.907775
0.943616
0.979324
1.01492
1.05041
1.08581
1.12115
1.15644
1.19167
1.22687
1.26204
1.29718
1.33229
1.36737
1.40241
1.43741
1.47235
1.50722
1.542
1.57669
1.61126
1.64571
1.68001
1.71414
1.74809
1.78181
1.8153
1.84852
1.88145
1.91407
1.94635
1.97826
2.00977
2.04086
2.07151
2.10168
2.13135
2.16048
2.18904
2.21702
2.24438
2.27111
2.29716
2.32253
2.34717
2.37107
2.3942
2.41653
2.43803
2.45868
2.47845
2.49732
2.51526
2.53225
2.54826
2.56327
2.57726
2.5902
2.60208
2.61289
2.6226
2.63121
2.6387
2.64507
2.65031
2.65442
2.65741
2.65923
2.66002
2.66013
2.6591
2.65685
2.65351
2.64913
2.64374
2.63737
2.63006
2.62184
2.61276
2.60288
2.59224
2.5809
2.56892
2.55634
2.54322
2.52961
2.51557
2.50116
2.48642
2.47142
2.4562
2.4408
2.42527
2.40967
2.39403
2.3784
2.36285
2.3474
2.33208
2.31694
2.30197
2.2872
2.27261
2.2582
2.24398
2.22996
2.21613
2.20251
2.18909
2.17584
2.16274
2.14969
2.13653
2.122
2.10341
2.25489e-05
0.000628744
0.00417246
0.0132793
0.0227321
0.0290818
0.0327418
0.0345929
0.0352693
0.0351753
0.0346114
0.0335907
0.0323454
0.0309807
0.029581
0.0282062
0.0268974
0.0256758
0.0245484
0.0235086
0.0225416
0.0216261
0.0207318
0.0198182
0.0188117
0.0176655
0.0163979
0.0151608
0.0147496
0.0165335
0.023958
0.0397859
0.0626362
0.0861433
0.106924
0.122796
0.133547
0.141047
0.147647
0.155025
0.164908
0.178119
0.194823
0.215021
0.238599
0.265109
0.293984
0.324581
0.356495
0.389406
0.42317
0.457643
0.492753
0.528431
0.564636
0.601321
0.638442
0.675937
0.713746
0.75181
0.790077
0.828502
0.867047
0.905678
0.944373
0.983113
1.02189
1.0607
1.09953
1.1384
1.17729
1.21621
1.25515
1.29412
1.33312
1.37214
1.41118
1.45023
1.48928
1.52831
1.56732
1.60629
1.64521
1.68405
1.72279
1.76142
1.79992
1.83827
1.87645
1.91441
1.95215
1.98962
2.0268
2.06366
2.10017
2.13629
2.17199
2.20725
2.24202
2.27629
2.31002
2.34316
2.37571
2.40761
2.43884
2.46938
2.4992
2.52826
2.55655
2.58402
2.61066
2.63642
2.66129
2.68523
2.70821
2.73021
2.7512
2.77115
2.79003
2.80782
2.82449
2.84001
2.85438
2.86755
2.87953
2.89029
2.89982
2.90811
2.91516
2.92095
2.92549
2.92879
2.9308
2.93166
2.93167
2.93034
2.92776
2.92398
2.91905
2.913
2.90586
2.89767
2.88848
2.87833
2.86729
2.85539
2.84271
2.82929
2.8152
2.8005
2.78523
2.76947
2.75327
2.73668
2.71977
2.7026
2.6852
2.66762
2.64993
2.63217
2.61439
2.59665
2.57899
2.56145
2.54405
2.52682
2.50976
2.49287
2.47615
2.45962
2.44328
2.42715
2.41123
2.39554
2.38008
2.36483
2.34973
2.33464
2.31846
2.29888
6.77003e-05
0.00173829
0.00997471
0.0232453
0.0318094
0.0364799
0.0387802
0.0396024
0.0394723
0.0387203
0.0374318
0.0358577
0.034135
0.0323753
0.0306652
0.0290624
0.0276006
0.0262895
0.0251237
0.0240845
0.0231502
0.0222983
0.0215232
0.0208156
0.0202505
0.0200342
0.0205305
0.0225987
0.0274193
0.0372218
0.0554068
0.0772488
0.0991022
0.118575
0.133848
0.14444
0.151697
0.157895
0.165551
0.176007
0.189932
0.207493
0.228577
0.252818
0.27971
0.308617
0.338972
0.370377
0.402629
0.435616
0.469298
0.503646
0.538653
0.574318
0.610644
0.647615
0.685201
0.723363
0.762065
0.801263
0.840911
0.880963
0.921379
0.962118
1.00315
1.04444
1.08597
1.12771
1.16965
1.21177
1.25405
1.29647
1.33903
1.3817
1.42448
1.46735
1.51029
1.5533
1.59635
1.63942
1.6825
1.72556
1.76858
1.81154
1.85441
1.89718
1.93981
1.98229
2.02459
2.06667
2.10851
2.15006
2.19129
2.23217
2.27265
2.31269
2.35227
2.39135
2.42989
2.46785
2.50521
2.54191
2.57793
2.61324
2.64779
2.68157
2.71454
2.74666
2.77791
2.80826
2.83767
2.86611
2.89355
2.91996
2.9453
2.96955
2.99268
3.01466
3.03545
3.05503
3.07337
3.09044
3.10622
3.1207
3.13384
3.14565
3.15609
3.16517
3.17288
3.17921
3.18416
3.18775
3.18992
3.19083
3.19066
3.18908
3.18614
3.1819
3.17638
3.16963
3.16169
3.1526
3.1424
3.13114
3.11888
3.10569
3.09161
3.07671
3.06105
3.0447
3.02772
3.01017
2.9921
2.97359
2.9547
2.93548
2.91598
2.89627
2.87639
2.85641
2.83639
2.81637
2.7964
2.77652
2.75677
2.73716
2.71771
2.69841
2.67929
2.66034
2.64159
2.62305
2.60476
2.58672
2.56894
2.55144
2.53416
2.51701
2.49897
2.47796
0.000178938
0.00418524
0.0190984
0.0323081
0.0393535
0.0428051
0.0441717
0.0441939
0.0433911
0.0418893
0.0399957
0.0378855
0.0357079
0.0335825
0.0315987
0.0298117
0.0282493
0.0269122
0.025785
0.024835
0.0240322
0.0233311
0.0227916
0.0224674
0.0227845
0.0244174
0.0284689
0.0367904
0.0505722
0.0688068
0.0882757
0.107571
0.124822
0.138771
0.149161
0.156978
0.164126
0.172659
0.183963
0.198658
0.216858
0.238319
0.262609
0.28919
0.317511
0.347074
0.37754
0.408736
0.440605
0.473143
0.506374
0.540324
0.575032
0.610526
0.646821
0.683917
0.721811
0.760488
0.799923
0.840084
0.880936
0.922436
0.964545
1.00722
1.05043
1.09413
1.13829
1.18286
1.22782
1.27313
1.31876
1.36468
1.41084
1.45723
1.50382
1.55057
1.59748
1.6445
1.69162
1.7388
1.78602
1.83325
1.88046
1.92763
1.97473
2.02172
2.06858
2.11529
2.16181
2.2081
2.25413
2.29986
2.34524
2.39023
2.43478
2.47885
2.52239
2.56537
2.60775
2.64948
2.69053
2.73086
2.77043
2.80919
2.84712
2.88417
2.92033
2.95555
2.98979
3.02304
3.05524
3.08637
3.11639
3.14527
3.17297
3.19947
3.22473
3.24872
3.27141
3.29276
3.31274
3.33133
3.3485
3.36424
3.37851
3.39132
3.40264
3.41246
3.42078
3.42759
3.4329
3.43672
3.43901
3.43991
3.43952
3.43763
3.43427
3.4295
3.42335
3.41585
3.40704
3.39698
3.3857
3.37327
3.35974
3.34518
3.32964
3.31319
3.2959
3.27783
3.25906
3.23964
3.21964
3.19913
3.17817
3.15682
3.13515
3.1132
3.09106
3.06877
3.0464
3.02401
3.00164
2.97934
2.95713
2.93506
2.91312
2.89133
2.8697
2.84825
2.82701
2.806
2.78525
2.76478
2.74462
2.72478
2.70523
2.68589
2.66582
2.64311
0.000406749
0.00863621
0.0285284
0.0404652
0.0462115
0.0487364
0.0493547
0.0487336
0.0472216
0.0451133
0.0426485
0.0400295
0.0374293
0.034985
0.0327942
0.0309156
0.0293763
0.0281785
0.0273076
0.0267472
0.0265842
0.0268391
0.0278454
0.0298291
0.0334735
0.0398611
0.050122
0.063612
0.079393
0.0962752
0.112723
0.127606
0.140178
0.150432
0.159073
0.167462
0.177175
0.189433
0.204806
0.22333
0.24473
0.268578
0.294402
0.321734
0.35017
0.379418
0.409325
0.43985
0.471016
0.502872
0.535482
0.568909
0.603205
0.638409
0.674557
0.711673
0.749771
0.78885
0.828903
0.869909
0.911845
0.954677
0.998373
1.04289
1.08819
1.13422
1.18095
1.22831
1.27627
1.32478
1.37377
1.4232
1.47301
1.52317
1.57362
1.62434
1.67528
1.7264
1.77767
1.82905
1.8805
1.93199
1.98348
2.03494
2.08635
2.13766
2.18884
2.23986
2.29068
2.34127
2.39158
2.44156
2.49117
2.54034
2.58903
2.63718
2.68474
2.73168
2.77795
2.8235
2.86829
2.91227
2.9554
2.99763
3.03894
3.07928
3.11861
3.15691
3.19414
3.23025
3.26522
3.299
3.33155
3.36286
3.39287
3.42156
3.44889
3.47483
3.49934
3.52239
3.54394
3.56397
3.58245
3.59936
3.61469
3.62841
3.64051
3.65099
3.65983
3.66703
3.67261
3.67657
3.67887
3.67967
3.67899
3.67671
3.67286
3.66748
3.6606
3.65226
3.64251
3.6314
3.61897
3.60529
3.59041
3.5744
3.55732
3.53924
3.52024
3.50039
3.47975
3.45839
3.43639
3.41379
3.39069
3.36714
3.3432
3.31894
3.29443
3.26975
3.24496
3.22012
3.19527
3.17046
3.14573
3.1211
3.0966
3.07223
3.04803
3.02402
3.00022
2.97668
2.95341
2.93046
2.90784
2.88559
2.86369
2.84208
2.81988
2.79522
0.000792216
0.0152469
0.0369839
0.0478362
0.0527963
0.0546904
0.0547256
0.0535042
0.051409
0.0487453
0.0457771
0.0427369
0.0398229
0.0371921
0.0349538
0.0331767
0.0318799
0.0310976
0.0308026
0.0309749
0.0319079
0.0339696
0.0376656
0.0434642
0.0516951
0.062209
0.0743838
0.0878922
0.101989
0.115804
0.128588
0.140001
0.150103
0.159447
0.169029
0.179965
0.193141
0.209
0.227556
0.248555
0.271629
0.296385
0.322454
0.349518
0.377341
0.405784
0.434808
0.464441
0.494748
0.525811
0.557717
0.590539
0.624344
0.659193
0.695139
0.73222
0.77047
0.809902
0.850526
0.892337
0.935324
0.979463
1.02473
1.07107
1.11846
1.16684
1.21615
1.26634
1.31735
1.36909
1.42151
1.47453
1.52807
1.58208
1.63648
1.69124
1.74629
1.80159
1.85709
1.91275
1.96851
2.02433
2.08018
2.13601
2.19179
2.24749
2.30306
2.35846
2.41364
2.46858
2.52321
2.57748
2.63134
2.68472
2.73756
2.7898
2.84139
2.89228
2.94242
2.99176
3.04025
3.08785
3.13449
3.18014
3.22476
3.2683
3.31074
3.35203
3.39213
3.43101
3.46863
3.50495
3.53992
3.57352
3.60571
3.63646
3.66572
3.69347
3.71966
3.74426
3.76724
3.78856
3.8082
3.82614
3.84236
3.85685
3.86959
3.88058
3.88979
3.89725
3.90295
3.9069
3.90911
3.90967
3.90859
3.90581
3.90135
3.89525
3.88754
3.87827
3.86748
3.85523
3.84156
3.82654
3.81023
3.79269
3.774
3.75423
3.73345
3.71174
3.68917
3.66582
3.64174
3.61702
3.59171
3.56589
3.53962
3.51298
3.48606
3.45892
3.43165
3.4043
3.37692
3.34955
3.32224
3.29501
3.26788
3.2409
3.21407
3.18746
3.16107
3.13496
3.10914
3.08367
3.05856
3.03385
3.00954
2.98561
2.96122
2.9347
0.00130045
0.0224278
0.0446548
0.054957
0.0594652
0.0609106
0.0605179
0.0588227
0.0562534
0.0531642
0.0498625
0.0466138
0.0436396
0.0411199
0.0391912
0.0379793
0.0375191
0.0376679
0.0386889
0.0407267
0.0440186
0.0487441
0.0550585
0.0629987
0.0724356
0.0830582
0.0944408
0.106154
0.117752
0.128892
0.139423
0.149461
0.159446
0.170067
0.18205
0.195961
0.212082
0.230411
0.250747
0.272799
0.296265
0.320864
0.346362
0.372578
0.399401
0.426791
0.454768
0.483403
0.512785
0.543013
0.574179
0.606376
0.639688
0.674191
0.709954
0.747034
0.785478
0.82532
0.866585
0.909285
0.95342
0.998977
1.04593
1.09423
1.14383
1.19468
1.2467
1.29983
1.35398
1.40906
1.465
1.52169
1.57905
1.63699
1.69543
1.75431
1.81356
1.87312
1.93293
1.99293
2.05307
2.11328
2.17352
2.23375
2.29395
2.35406
2.41403
2.47383
2.53338
2.59265
2.65158
2.71011
2.76817
2.82569
2.88261
2.93885
2.99436
3.04909
3.10299
3.15599
3.20806
3.25912
3.30913
3.35803
3.40578
3.45235
3.49769
3.54176
3.58454
3.62597
3.66602
3.70465
3.74181
3.77747
3.8116
3.84417
3.87512
3.90444
3.93207
3.95798
3.98214
4.00451
4.02507
4.04381
4.0607
4.07574
4.0889
4.10017
4.10956
4.11707
4.1227
4.12646
4.12839
4.12853
4.12694
4.1235
4.11829
4.11133
4.10268
4.09236
4.08043
4.06693
4.05193
4.03549
4.01768
3.99855
3.97818
3.95666
3.93405
3.91043
3.88589
3.86049
3.83431
3.80742
3.77988
3.75174
3.72311
3.69406
3.66468
3.63507
3.60529
3.57541
3.54548
3.51553
3.48562
3.45576
3.426
3.39637
3.36691
3.33768
3.3087
3.28001
3.25165
3.22364
3.19603
3.16885
3.14212
3.11585
3.08924
3.06081
0.00189042
0.0291711
0.0520857
0.0622649
0.0664966
0.0676391
0.0668955
0.0648244
0.0619193
0.0586083
0.0552585
0.0521638
0.0495517
0.0476052
0.0465794
0.0463122
0.0468725
0.048449
0.0510554
0.0547642
0.0596374
0.0656848
0.0728682
0.0810663
0.0900709
0.0996344
0.109513
0.119514
0.129518
0.139506
0.14962
0.160184
0.17163
0.184381
0.198753
0.214891
0.232773
0.252247
0.273106
0.295128
0.318116
0.341905
0.366371
0.391439
0.417078
0.443309
0.470195
0.497825
0.526297
0.555725
0.586215
0.617872
0.650796
0.685083
0.720821
0.758083
0.796928
0.837412
0.879575
0.923445
0.969028
1.01631
1.06526
1.11582
1.16794
1.22154
1.27654
1.33283
1.39033
1.44894
1.50853
1.569
1.63025
1.69217
1.75468
1.8177
1.88116
1.94499
2.00911
2.07345
2.13794
2.20251
2.26712
2.33172
2.39628
2.46075
2.52508
2.58921
2.65306
2.71657
2.77968
2.84232
2.90442
2.9659
3.02669
3.08673
3.14594
3.20427
3.26167
3.31807
3.37343
3.42767
3.48073
3.53257
3.58313
3.63238
3.68027
3.72679
3.77187
3.81549
3.85761
3.89817
3.93715
3.9745
4.0102
4.0442
4.07648
4.107
4.1357
4.16256
4.18754
4.21062
4.23177
4.25096
4.2682
4.28346
4.29673
4.30801
4.31729
4.32458
4.32988
4.33322
4.33462
4.33416
4.33186
4.32759
4.32146
4.3135
4.30375
4.29227
4.27908
4.26425
4.24784
4.2299
4.21051
4.18974
4.16765
4.14433
4.11986
4.09431
4.06777
4.04032
4.01202
3.98296
3.95319
3.92274
3.89174
3.86028
3.82848
3.7964
3.76413
3.73174
3.69928
3.66678
3.6343
3.60183
3.56944
3.53719
3.50513
3.47332
3.44178
3.41056
3.37968
3.34917
3.31907
3.28945
3.26032
3.23174
3.20293
3.17265
0.00268421
0.0345514
0.0590313
0.0695361
0.0737506
0.0747471
0.0737306
0.0713797
0.0682824
0.0649557
0.0618637
0.059325
0.0574776
0.056554
0.0563487
0.0570304
0.0587525
0.0614316
0.0650689
0.0696425
0.0751133
0.0814177
0.0884693
0.0961567
0.104367
0.113009
0.122014
0.131364
0.141112
0.151396
0.162422
0.174425
0.187618
0.202148
0.218063
0.235319
0.253809
0.273388
0.293909
0.315239
0.337275
0.359941
0.383198
0.407041
0.431496
0.456625
0.482515
0.509273
0.537009
0.565836
0.595871
0.627236
0.660051
0.69443
0.730483
0.768306
0.807991
0.849611
0.893228
0.93888
0.98658
1.03629
1.08794
1.14146
1.19674
1.25368
1.31214
1.37202
1.43319
1.49554
1.55889
1.62315
1.68819
1.75395
1.82036
1.88734
1.95482
2.02272
2.09097
2.15946
2.22812
2.29688
2.36568
2.43448
2.50324
2.5719
2.6404
2.70866
2.77659
2.84413
2.91119
2.97767
3.04347
3.10857
3.17289
3.23635
3.29887
3.36039
3.42086
3.48021
3.53838
3.59531
3.65092
3.70518
3.75802
3.80941
3.85932
3.90771
3.95454
3.99979
4.04341
4.08535
4.12558
4.16408
4.20079
4.2357
4.26877
4.29996
4.32922
4.35652
4.38183
4.40513
4.42639
4.4456
4.46274
4.4778
4.49079
4.50168
4.51049
4.51722
4.52187
4.52448
4.52508
4.52382
4.52052
4.51521
4.50798
4.49885
4.48787
4.47509
4.46054
4.44428
4.42638
4.40689
4.38588
4.36343
4.3396
4.31448
4.28814
4.26066
4.23214
4.20265
4.17227
4.14108
4.10913
4.07641
4.0431
4.00931
3.97514
3.94067
3.90597
3.87113
3.8362
3.80123
3.76624
3.73122
3.69627
3.66148
3.6269
3.59258
3.55857
3.52488
3.49157
3.45862
3.42612
3.39412
3.36266
3.33183
3.30089
3.26889
0.00348564
0.0403892
0.0660839
0.0769067
0.0811404
0.0820354
0.0807427
0.0780346
0.0747906
0.0717178
0.0692334
0.0675458
0.0667375
0.0665467
0.0671396
0.0687372
0.0712287
0.0745491
0.0786546
0.0835024
0.0890469
0.0952409
0.102041
0.109415
0.117343
0.12582
0.134877
0.14458
0.155031
0.166345
0.178623
0.191952
0.206375
0.221886
0.23843
0.255924
0.274272
0.293382
0.313175
0.333595
0.35461
0.376211
0.398408
0.421239
0.444767
0.469084
0.494297
0.520533
0.547888
0.576498
0.606503
0.638051
0.671295
0.706384
0.743461
0.782659
0.824101
0.867883
0.914089
0.96278
1.01392
1.06736
1.12298
1.18066
1.24022
1.30149
1.36428
1.42842
1.49373
1.55993
1.62691
1.69458
1.76286
1.83187
1.90154
1.97185
2.0427
2.11406
2.18589
2.25799
2.33029
2.40276
2.47535
2.54797
2.62054
2.693
2.76526
2.83724
2.90883
2.97994
3.05047
3.1203
3.18937
3.25764
3.32502
3.3914
3.45671
3.52087
3.58381
3.64547
3.7058
3.76471
3.82216
3.87808
3.93244
3.98519
4.03632
4.08579
4.13358
4.17965
4.22397
4.26649
4.3072
4.34605
4.38302
4.41808
4.4512
4.48234
4.51146
4.53852
4.5635
4.58638
4.60714
4.62576
4.64224
4.65657
4.66875
4.67878
4.68666
4.6924
4.69601
4.69753
4.69706
4.69462
4.69003
4.68344
4.67489
4.6644
4.65203
4.6378
4.62177
4.60399
4.58452
4.56342
4.54075
4.51658
4.491
4.46406
4.43586
4.40648
4.37599
4.34449
4.31205
4.27876
4.24469
4.20984
4.17437
4.13839
4.10198
4.06523
4.02824
3.99106
3.95377
3.91644
3.87907
3.84163
3.80426
3.76706
3.73009
3.6934
3.65703
3.62102
3.5854
3.55014
3.51535
3.48111
3.44745
3.41449
3.38153
3.348
0.00432341
0.0459567
0.0729773
0.0842185
0.0885217
0.0893107
0.0877123
0.0848221
0.081769
0.0792376
0.0775398
0.0767374
0.0765388
0.0769817
0.078319
0.0804994
0.0834519
0.0871217
0.0914698
0.0964751
0.102124
0.108411
0.115338
0.122923
0.131197
0.140203
0.149991
0.160619
0.172124
0.184532
0.197865
0.21212
0.227255
0.24321
0.25992
0.277318
0.295353
0.313979
0.333179
0.352945
0.373293
0.394246
0.415849
0.438176
0.461321
0.485412
0.510612
0.537002
0.564668
0.593798
0.624582
0.657224
0.691936
0.728926
0.768385
0.810498
0.855417
0.903246
0.954039
1.00779
1.06442
1.12366
1.18529
1.24903
1.31456
1.38158
1.44977
1.51879
1.58829
1.65791
1.7278
1.798
1.86868
1.9401
2.01219
2.0849
2.15818
2.23207
2.30636
2.38087
2.45567
2.53087
2.60641
2.68208
2.75774
2.83328
2.90859
2.98357
3.05809
3.13204
3.20531
3.27784
3.3496
3.42045
3.49023
3.55883
3.62614
3.69207
3.75658
3.81961
3.88108
3.94094
3.99912
4.05559
4.1103
4.16324
4.2144
4.26377
4.31132
4.35703
4.40088
4.44284
4.48288
4.52098
4.55711
4.59125
4.62339
4.65348
4.68149
4.70738
4.73114
4.75274
4.77217
4.78942
4.80449
4.81739
4.82811
4.83666
4.84303
4.84724
4.84932
4.84933
4.84746
4.84332
4.83716
4.82901
4.8189
4.80686
4.79292
4.77713
4.75952
4.74015
4.71907
4.69634
4.67202
4.64617
4.61887
4.5902
4.56021
4.52901
4.49665
4.46324
4.42886
4.39357
4.35748
4.32069
4.28324
4.24523
4.20675
4.16787