/*--------------------------------*- C++ -*----------------------------------*\
  =========                 |
  \\      /  F ield         | OpenFOAM: The Open Source CFD Toolbox
   \\    /   O peration     | Website:  https://openfoam.org
    \\  /    A nd           | Version:  13
     \\/     M anipulation  |
\*---------------------------------------------------------------------------*/
FoamFile
{
    format      ascii;
    class       volScalarField;
    location    "1400";
    object      nut;
}
// * * * * * * * * * * * * * * * * * * * * * * * * * * * * * * * * * * * * * //

dimensions      [0 2 -1 0 0 0 0];

internalField   nonuniform List<scalar> 
12225
(
6.73437e-06
1.33097e-05
1.60058e-05
1.72761e-05
1.75714e-05
1.75065e-05
2.41765e-05
3.08722e-05
3.42653e-05
2.85894e-05
2.06318e-05
2.00989e-05
1.7565e-05
2.03469e-05
1.76093e-05
1.99374e-05
1.54487e-05
2.69707e-05
0.000225499
4.58709e-05
4.38608e-05
3.74384e-05
3.45181e-05
3.79493e-05
4.02656e-05
4.4872e-05
4.2804e-05
4.0837e-05
3.82473e-05
3.68291e-05
3.38993e-05
3.34498e-05
3.23606e-05
3.28126e-05
3.37707e-05
3.84344e-05
0.000733856
0.000261492
0.000145524
9.42009e-05
6.41079e-05
5.08001e-05
4.27558e-05
3.42064e-05
2.70172e-05
2.19953e-05
1.94183e-05
1.94838e-05
1.97609e-05
1.81984e-05
1.76163e-05
1.7585e-05
1.7449e-05
1.90489e-05
0.000825838
0.000595737
0.000349288
0.000218948
0.000151645
0.000110023
7.9419e-05
4.99043e-05
4.50302e-05
3.02539e-05
2.69172e-05
1.93682e-05
1.89723e-05
1.5068e-05
1.32012e-05
1.19823e-05
1.15507e-05
1.12832e-05
0.000905821
0.00075755
0.000357703
0.000266858
0.000203282
0.000148441
0.000121881
8.8032e-05
7.93224e-05
6.5628e-05
3.16375e-05
3.43957e-05
2.30754e-05
2.47955e-05
1.99829e-05
1.78766e-05
1.78447e-05
1.77522e-05
0.000930216
0.000672164
0.000457085
0.000410708
0.000320969
0.000270179
0.000207302
0.000203699
0.000185089
0.000161113
0.000133146
9.43302e-05
9.87898e-05
9.20133e-05
8.60901e-05
8.08991e-05
6.97252e-05
6.61066e-05
0.000890042
0.00080472
0.00066453
0.000543219
0.000467623
0.000397369
0.000344467
0.000295019
0.000298677
0.000273964
0.000243198
0.000218487
0.000201324
0.000191184
0.000180567
0.000166231
0.000167474
0.000155899
0.000864414
0.000838886
0.000789802
0.000720704
0.000661401
0.00060494
0.000546425
0.000495301
0.000455327
0.00042162
0.000390926
0.000364226
0.000342778
0.000328607
0.000312367
0.000311251
0.0003071
0.000295168
0.000855843
0.000848206
0.00083341
0.000808628
0.000781483
0.000749275
0.000713336
0.000675583
0.000640226
0.000606663
0.000577479
0.000550511
0.000529202
0.000510802
0.000497158
0.00048464
0.000477125
0.000469228
0.000851336
0.000853606
0.000848366
0.000840472
0.000830555
0.000818364
0.000802412
0.000782781
0.000762282
0.000740344
0.000720603
0.000700849
0.000685165
0.000669566
0.000658241
0.000646796
0.000638763
0.000629186
0.0008517
0.000851128
0.000849606
0.000847578
0.000844595
0.000842314
0.000836777
0.000829033
0.000820118
0.000809634
0.000799396
0.000788683
0.000779513
0.000769195
0.000760805
0.000753658
0.000745963
0.000739962
0.00085158
0.000850801
0.000849897
0.000848795
0.000847763
0.000846485
0.000844786
0.000841609
0.000839965
0.000835515
0.000830497
0.000825218
0.000820479
0.000815147
0.000810559
0.000805841
0.000802175
0.000797665
0.00085155
0.000850694
0.000849895
0.000849042
0.000848306
0.000847501
0.000846718
0.000845532
0.000844362
0.000842771
0.000841071
0.000838982
0.000837166
0.000834857
0.000833084
0.000830716
0.000829288
0.000826791
0.000851547
0.00085067
0.00084988
0.000849071
0.000848365
0.000847631
0.000846994
0.000846258
0.000845591
0.000844778
0.000844042
0.000843138
0.000842391
0.000841448
0.000840726
0.000839775
0.000839101
0.000838146
0.000851544
0.000850669
0.000849866
0.000849074
0.000848351
0.000847634
0.000846983
0.000846327
0.000845726
0.000845109
0.00084454
0.000843953
0.000843418
0.000842864
0.000842366
0.000841847
0.00084138
0.000840893
0.00085154
0.000850672
0.000849857
0.000849072
0.000848336
0.000847626
0.000846959
0.000846316
0.000845708
0.000845122
0.000844567
0.00084403
0.00084352
0.000843028
0.00084256
0.000842108
0.000841679
0.000841264
0.000851537
0.000850673
0.000849852
0.00084907
0.000848327
0.000847619
0.000846946
0.000846303
0.00084569
0.000845105
0.000844547
0.000844012
0.000843502
0.000843014
0.000842547
0.000842099
0.000841672
0.000841261
0.000851539
0.000850677
0.000849857
0.000849077
0.000848335
0.000847627
0.000846953
0.00084631
0.000845696
0.000845109
0.000844549
0.000844014
0.000843502
0.000843012
0.000842543
0.000842095
0.000841665
0.000841254
0.000851537
0.000850674
0.000849851
0.000849069
0.000848324
0.000847615
0.000846938
0.000846293
0.000845677
0.000845089
0.000844527
0.00084399
0.000843475
0.000842984
0.000842513
0.000842063
0.000841632
0.000841219
0.000851535
0.000850675
0.00084985
0.000849071
0.000848324
0.000847617
0.000846939
0.000846296
0.000845678
0.000845092
0.000844528
0.000843992
0.000843476
0.000842986
0.000842514
0.000842064
0.000841632
0.00084122
0.000851531
0.000850682
0.00084985
0.000849081
0.000848328
0.000847629
0.000846947
0.00084631
0.00084569
0.000845109
0.00084454
0.000844012
0.000843485
0.000843005
0.00084252
0.000842076
0.000841635
0.000841222
0.000851523
0.000850696
0.000849846
0.000849103
0.000848323
0.000847656
0.000846944
0.000846332
0.000845678
0.0008451
0.00084449
0.000843958
0.000843362
0.000842901
0.00084231
0.000841873
0.000841336
0.000840884
0.000851505
0.000850722
0.000849849
0.000849145
0.000848261
0.000847647
0.000846735
0.000846165
0.000845141
0.000844506
0.000843407
0.000842749
0.000841648
0.000840974
0.000839823
0.000839128
0.00083796
0.0008372
0.000851469
0.000850838
0.00084995
0.000849032
0.000847545
0.000846236
0.000844352
0.000842652
0.000840006
0.000837536
0.000834553
0.000831927
0.000828757
0.000825742
0.000822584
0.000819685
0.000816719
0.000814017
0.000851829
0.000850846
0.000849215
0.000845244
0.000839115
0.000832115
0.000824721
0.000816967
0.000806701
0.000797395
0.000787071
0.000778491
0.000768755
0.000761133
0.000751546
0.000744671
0.000735148
0.000728685
0.00085413
0.000843556
0.000826648
0.000808602
0.000781529
0.000759751
0.000731993
0.000707292
0.000680335
0.000658148
0.000635797
0.000617802
0.000599534
0.000584951
0.000569236
0.00055728
0.000543245
0.000533206
0.000866329
0.000778822
0.000708642
0.00064179
0.000579154
0.000529394
0.000481746
0.000445638
0.000411314
0.00038675
0.000363068
0.000346373
0.000329247
0.000317115
0.000303888
0.000294578
0.000283802
0.000276386
0.000735806
0.000459406
0.000343408
0.000280206
0.000235853
0.000204406
0.000180211
0.000163057
0.000148801
0.000139348
0.000130924
0.000125567
0.000119832
0.000116275
0.000112062
0.00010938
0.000106098
0.000104024
0.000166812
9.18525e-05
7.23932e-05
6.34989e-05
5.8481e-05
5.55409e-05
5.40017e-05
5.31944e-05
5.32973e-05
5.36815e-05
5.48057e-05
5.59472e-05
5.75159e-05
5.89712e-05
6.07925e-05
6.07932e-05
6.10777e-05
6.1241e-05
8.68546e-06
1.57511e-05
1.93687e-05
2.11461e-05
2.20099e-05
2.22271e-05
2.22466e-05
2.20365e-05
2.17232e-05
2.13818e-05
2.10417e-05
2.07183e-05
2.04209e-05
2.01527e-05
1.99102e-05
1.97004e-05
1.95149e-05
1.93535e-05
1.4308e-12
1.59582e-10
8.16495e-10
3.23592e-09
1.08154e-08
3.25097e-08
8.7124e-08
1.7719e-07
2.91855e-07
4.1485e-07
5.2756e-07
6.15992e-07
6.76702e-07
7.02317e-07
6.9446e-07
6.69467e-07
6.16751e-07
5.33211e-07
4.50954e-07
3.83286e-07
3.19617e-07
2.58505e-07
1.98856e-07
1.44158e-07
9.47724e-08
5.6096e-08
3.02095e-08
1.54529e-08
7.97258e-09
4.34717e-09
2.60193e-09
1.86561e-09
2.09126e-09
3.95962e-09
1.2433e-08
3.25954e-08
1.27667e-07
2.84926e-07
4.73579e-07
5.89326e-07
5.71545e-07
4.97153e-07
3.92327e-07
2.96989e-07
2.51072e-07
2.6516e-07
3.06171e-07
4.74382e-07
7.62025e-07
1.78209e-06
4.91831e-06
1.44016e-05
2.82186e-05
3.81442e-05
4.22261e-05
4.05339e-05
3.94517e-05
4.0917e-05
4.29427e-05
4.43524e-05
4.0194e-05
3.32237e-05
3.45765e-05
3.58557e-05
3.10104e-05
3.30338e-05
3.33775e-05
3.40728e-05
3.46317e-05
3.52583e-05
3.58164e-05
3.64059e-05
3.6961e-05
3.75239e-05
3.80713e-05
3.86162e-05
3.91544e-05
3.96861e-05
4.02138e-05
4.07339e-05
4.12515e-05
4.17621e-05
4.22699e-05
4.27722e-05
4.3271e-05
4.37667e-05
4.42588e-05
4.47501e-05
4.52377e-05
4.57242e-05
4.62075e-05
4.66901e-05
4.71715e-05
4.76517e-05
4.813e-05
4.86064e-05
4.90802e-05
4.95516e-05
5.002e-05
5.04858e-05
5.09488e-05
5.14104e-05
5.18731e-05
5.23433e-05
5.28254e-05
5.33062e-05
5.37926e-05
5.4286e-05
5.47852e-05
5.52939e-05
5.58092e-05
5.63358e-05
5.68702e-05
5.74176e-05
5.79746e-05
5.85464e-05
5.913e-05
5.97308e-05
6.03466e-05
6.09823e-05
6.16357e-05
6.23107e-05
6.3007e-05
6.37293e-05
6.44791e-05
6.52615e-05
6.60791e-05
6.69369e-05
6.78411e-05
6.88113e-05
6.97099e-05
7.07851e-05
7.17189e-05
7.29165e-05
7.39129e-05
7.51579e-05
7.64113e-05
7.77718e-05
7.79075e-05
7.76165e-05
7.73053e-05
7.69804e-05
7.66406e-05
7.62889e-05
7.59248e-05
7.55507e-05
7.51661e-05
7.47735e-05
7.43723e-05
7.39647e-05
7.35506e-05
7.31317e-05
7.27083e-05
7.22819e-05
7.18528e-05
7.14221e-05
7.09907e-05
7.0559e-05
7.01284e-05
6.96998e-05
6.92782e-05
6.88618e-05
6.84549e-05
6.80548e-05
6.76663e-05
6.72851e-05
6.69166e-05
6.65554e-05
6.62074e-05
6.58667e-05
6.55396e-05
6.52184e-05
6.49087e-05
6.46017e-05
6.42993e-05
6.39855e-05
6.36568e-05
6.32682e-05
6.27838e-05
6.14491e-05
6.07471e-12
9.67397e-10
1.28155e-08
6.84352e-08
2.99134e-07
1.09794e-06
2.60824e-06
4.829e-06
7.57186e-06
1.06383e-05
1.38272e-05
1.68111e-05
1.93806e-05
2.13086e-05
2.25257e-05
2.28862e-05
2.26098e-05
2.17241e-05
1.99147e-05
1.6647e-05
1.29413e-05
9.59343e-06
6.79225e-06
4.65131e-06
2.9485e-06
1.82679e-06
1.12785e-06
7.06101e-07
4.41606e-07
2.92116e-07
2.11266e-07
1.77182e-07
1.88904e-07
2.81496e-07
8.48172e-07
1.99693e-06
7.37186e-06
1.52582e-05
2.29126e-05
2.69528e-05
2.65371e-05
2.42752e-05
1.95712e-05
1.45143e-05
1.31234e-05
1.39217e-05
1.5012e-05
1.72611e-05
2.31751e-05
3.3432e-05
4.40434e-05
5.53598e-05
6.55189e-05
7.47812e-05
8.30058e-05
9.20552e-05
0.000104403
0.000116816
0.000131499
0.000145044
0.000156283
0.000167331
0.000181097
0.000195921
0.000202705
0.000216803
0.000227783
0.000238538
0.000249158
0.000259252
0.000269113
0.000278562
0.000287778
0.0002967
0.000305434
0.000313945
0.000322314
0.000330514
0.000338602
0.000346555
0.00035442
0.000362177
0.00036986
0.000377453
0.00038498
0.000392429
0.000399818
0.000407142
0.000414419
0.000421644
0.000428829
0.000435956
0.000443032
0.000450044
0.000456989
0.000463857
0.000470636
0.000477313
0.00048386
0.000490247
0.000496418
0.000502303
0.0005078
0.000512813
0.000517311
0.000521825
0.000526181
0.000530436
0.000534573
0.000538592
0.00054249
0.000546263
0.000549905
0.000553414
0.000556782
0.000560007
0.000563083
0.000566006
0.000568768
0.000571365
0.000573792
0.000576042
0.000578107
0.000579983
0.000581664
0.000583148
0.000584434
0.000585533
0.000586468
0.000587273
0.000587876
0.000588394
0.000588371
0.0005885
0.000588102
0.000587587
0.000587005
0.000586723
0.000586186
0.000585663
0.000584947
0.000584041
0.000582948
0.000581693
0.000580285
0.000578735
0.000577051
0.000575241
0.000573307
0.000571264
0.000569116
0.000566875
0.000564551
0.000562145
0.000559669
0.000557128
0.000554529
0.000551895
0.000549232
0.000546553
0.000543877
0.000541209
0.000538569
0.000535957
0.000533389
0.000530858
0.000528376
0.00052593
0.000523536
0.000521176
0.000518867
0.00051658
0.000514316
0.000512026
0.000509675
0.000507155
0.000504371
0.000500959
0.000496253
0.000481928
1.58039e-11
2.68652e-09
5.12618e-08
3.28565e-07
9.56588e-07
2.70315e-06
5.88173e-06
1.02262e-05
1.57386e-05
2.20828e-05
2.8906e-05
3.57184e-05
4.19333e-05
4.71838e-05
5.12871e-05
5.39391e-05
5.55481e-05
5.6023e-05
5.48166e-05
5.19463e-05
4.78485e-05
4.18237e-05
3.47393e-05
2.74922e-05
2.09105e-05
1.51614e-05
1.04624e-05
7.09858e-06
4.5769e-06
3.06306e-06
2.09649e-06
1.63522e-06
1.42055e-06
1.18681e-06
5.40547e-06
1.23154e-05
3.38113e-05
5.55683e-05
6.93858e-05
7.3725e-05
6.8287e-05
5.31079e-05
4.07815e-05
3.74567e-05
4.24236e-05
4.92866e-05
5.79539e-05
7.03391e-05
8.23446e-05
9.50234e-05
0.000110604
0.00012848
0.000148333
0.000170821
0.000195587
0.000224216
0.000254829
0.000286203
0.000318055
0.000348435
0.000377219
0.000405002
0.000431998
0.000458698
0.000481948
0.000505901
0.000528126
0.000549873
0.000570707
0.000590768
0.000610252
0.000629135
0.000647564
0.000665555
0.000683194
0.000700504
0.000717541
0.00073432
0.00075088
0.00076723
0.000783396
0.000799384
0.000815212
0.000830879
0.0008464
0.000861772
0.000877006
0.000892099
0.000907058
0.00092188
0.000936561
0.000951088
0.000965452
0.000979636
0.000993626
0.0010074
0.00102094
0.0010342
0.00104717
0.00105979
0.00107202
0.00108383
0.00109521
0.00110617
0.00111682
0.00112731
0.00113752
0.0011475
0.00115722
0.0011667
0.0011759
0.00118484
0.00119349
0.00120185
0.00120991
0.00121765
0.00122507
0.00123216
0.0012389
0.00124528
0.0012513
0.00125694
0.00126219
0.00126704
0.00127148
0.00127552
0.00127913
0.00128235
0.00128517
0.00128756
0.00128947
0.00129106
0.00129192
0.00129286
0.00129308
0.00129355
0.00129293
0.00129277
0.00129183
0.00129059
0.00128892
0.00128682
0.00128432
0.00128145
0.00127822
0.00127466
0.0012708
0.00126664
0.00126222
0.00125756
0.00125267
0.00124759
0.00124233
0.0012369
0.00123133
0.00122564
0.00121984
0.00121397
0.00120805
0.0012021
0.00119615
0.00119024
0.00118438
0.00117861
0.00117293
0.00116735
0.00116187
0.00115649
0.00115123
0.00114606
0.00114099
0.00113599
0.00113104
0.00112604
0.0011209
0.00111542
0.00110934
0.00110194
0.00109128
0.00106559
5.81266e-11
9.86375e-09
1.63854e-07
7.57839e-07
2.30196e-06
6.2903e-06
1.26938e-05
2.13425e-05
3.17202e-05
4.27907e-05
5.36093e-05
6.36553e-05
7.23814e-05
7.9312e-05
8.4477e-05
8.8041e-05
8.96667e-05
8.97485e-05
8.84404e-05
8.56403e-05
8.13628e-05
7.55813e-05
6.88045e-05
6.01394e-05
5.05032e-05
4.07722e-05
3.16459e-05
2.40732e-05
1.80162e-05
1.3431e-05
1.01472e-05
7.88839e-06
7.05733e-06
9.47945e-06
2.09372e-05
4.46855e-05
6.86605e-05
8.51656e-05
9.24892e-05
8.41712e-05
7.65024e-05
7.33584e-05
7.49301e-05
8.11068e-05
9.10704e-05
0.000104862
0.000115697
0.000132646
0.000155153
0.000179058
0.000209691
0.000243122
0.00028082
0.000321396
0.000364421
0.000409265
0.000454327
0.000499098
0.000542864
0.000584759
0.000624968
0.000663674
0.000700773
0.000736387
0.000770194
0.000803208
0.000834792
0.000865453
0.0008951
0.000923906
0.000951989
0.000979408
0.00100626
0.00103261
0.00105851
0.00108401
0.00110915
0.00113396
0.00115847
0.0011827
0.00120666
0.00123036
0.00125383
0.00127705
0.00130005
0.00132281
0.00134534
0.00136763
0.00138969
0.0014115
0.00143305
0.00145434
0.00147534
0.00149603
0.0015164
0.00153642
0.00155607
0.00157533
0.00159416
0.00161256
0.00163049
0.00164798
0.00166502
0.00168166
0.00169793
0.00171386
0.00172942
0.0017446
0.0017594
0.0017738
0.0017878
0.00180137
0.00181452
0.00182721
0.00183945
0.00185122
0.0018625
0.00187328
0.00188354
0.00189327
0.00190246
0.00191109
0.00191916
0.00192665
0.00193355
0.00193986
0.00194557
0.00195069
0.00195521
0.0019591
0.00196226
0.00196484
0.00196663
0.00196816
0.00196915
0.00197005
0.00196976
0.00196929
0.00196806
0.00196629
0.00196391
0.00196093
0.00195737
0.00195327
0.00194864
0.00194354
0.00193797
0.00193199
0.00192561
0.00191887
0.0019118
0.00190444
0.00189681
0.00188895
0.00188088
0.00187264
0.00186425
0.00185575
0.00184717
0.00183856
0.00182995
0.00182138
0.0018129
0.00180452
0.00179628
0.00178818
0.00178022
0.00177241
0.00176475
0.00175724
0.00174987
0.00174261
0.00173541
0.00172818
0.00172075
0.00171292
0.00170422
0.00169375
0.00167902
0.00164918
2.01684e-10
3.12266e-08
3.80619e-07
1.71494e-06
6.01801e-06
1.47358e-05
2.76603e-05
4.34212e-05
6.02359e-05
7.64267e-05
9.0731e-05
0.00010241
0.000111133
0.000117504
0.000121139
0.000122735
0.000122633
0.000121102
0.000118345
0.000114481
0.000109214
0.000103217
9.63204e-05
8.7822e-05
7.80058e-05
6.71593e-05
5.57958e-05
4.52525e-05
3.6258e-05
2.91135e-05
2.36273e-05
1.99828e-05
2.15606e-05
3.34169e-05
6.03066e-05
8.47568e-05
9.72889e-05
0.000101349
0.000101437
0.000101406
0.000104314
0.000111294
0.000122832
0.000133659
0.000145605
0.000164378
0.000191693
0.000220765
0.000257867
0.000298223
0.000344684
0.000393316
0.000445355
0.000498806
0.000553284
0.000607846
0.000661697
0.00071448
0.000765769
0.000815291
0.000862859
0.000909134
0.000953954
0.000997049
0.00103859
0.00107896
0.00111808
0.00115616
0.00119323
0.00122944
0.00126487
0.00129959
0.0013337
0.00136723
0.00140026
0.00143281
0.00146493
0.00149665
0.00152798
0.00155895
0.00158956
0.00161984
0.00164977
0.00167937
0.00170864
0.00173758
0.00176618
0.00179443
0.00182233
0.00184988
0.00187704
0.00190382
0.0019302
0.00195615
0.00198166
0.00200671
0.00203129
0.00205538
0.00207896
0.00210203
0.0021246
0.00214666
0.00216825
0.00218935
0.00220998
0.00223014
0.00224981
0.00226899
0.00228766
0.00230581
0.00232342
0.00234049
0.002357
0.00237294
0.00238829
0.00240304
0.00241717
0.00243067
0.00244352
0.00245572
0.00246724
0.00247808
0.00248822
0.00249765
0.00250637
0.00251438
0.00252166
0.00252822
0.00253408
0.00253914
0.00254315
0.00254668
0.00254929
0.00255135
0.00255302
0.00255417
0.00255423
0.00255371
0.00255241
0.0025504
0.00254766
0.00254422
0.00254008
0.00253528
0.00252987
0.00252386
0.0025173
0.00251021
0.00250265
0.00249464
0.00248623
0.00247745
0.00246835
0.00245896
0.00244931
0.00243944
0.00242938
0.00241918
0.00240887
0.00239851
0.00238814
0.00237781
0.00236756
0.00235743
0.00234745
0.00233761
0.00232795
0.00231844
0.0023091
0.0022999
0.00229087
0.00228196
0.00227313
0.00226429
0.00225528
0.00224585
0.00223551
0.0022233
0.00220661
0.00217721
6.27822e-10
7.65765e-08
9.06588e-07
4.55239e-06
1.52765e-05
3.29048e-05
5.45665e-05
7.70472e-05
9.69816e-05
0.000112923
0.000125132
0.000134593
0.000141029
0.000145102
0.000147188
0.000147528
0.000146333
0.000143821
0.000140192
0.000135525
0.000129681
0.000123265
0.000115923
0.000107299
9.75306e-05
8.55962e-05
7.04836e-05
5.64214e-05
4.38102e-05
3.49043e-05
3.20917e-05
3.57477e-05
5.15277e-05
7.72331e-05
9.87945e-05
0.000112771
0.000120044
0.000123798
0.000128347
0.000137092
0.000151233
0.000159652
0.000171692
0.000191807
0.000219077
0.000251332
0.000291539
0.000335779
0.000386692
0.000440296
0.000497677
0.000556452
0.000616893
0.000677691
0.000738475
0.000798617
0.000857754
0.000915243
0.000971323
0.00102633
0.00107984
0.00113156
0.00118176
0.0012305
0.00127789
0.00132409
0.00136913
0.00141314
0.0014562
0.00149838
0.00153978
0.00158045
0.00162047
0.00165987
0.00169871
0.00173701
0.00177481
0.00181213
0.00184898
0.00188538
0.00192133
0.00195685
0.00199193
0.00202657
0.00206077
0.00209453
0.00212784
0.0021607
0.00219309
0.00222501
0.00225645
0.00228739
0.00231782
0.00234772
0.00237709
0.0024059
0.00243415
0.00246182
0.00248891
0.00251543
0.00254136
0.00256674
0.00259154
0.00261577
0.00263942
0.0026625
0.00268499
0.00270687
0.00272815
0.00274881
0.00276883
0.00278821
0.00280693
0.00282497
0.00284234
0.002859
0.00287496
0.0028902
0.0029047
0.00291846
0.00293146
0.0029437
0.00295516
0.00296584
0.00297574
0.00298484
0.00299316
0.00300068
0.00300745
0.00301328
0.00301807
0.00302225
0.00302552
0.00302809
0.0030303
0.00303171
0.00303213
0.00303179
0.00303064
0.0030287
0.00302598
0.00302248
0.00301825
0.0030133
0.00300767
0.0030014
0.00299451
0.00298704
0.00297903
0.00297053
0.00296158
0.00295221
0.00294246
0.00293238
0.002922
0.00291136
0.00290049
0.00288944
0.00287826
0.002867
0.0028557
0.00284442
0.00283321
0.0028221
0.00281111
0.00280027
0.00278959
0.00277906
0.00276869
0.00275848
0.00274842
0.00273851
0.00272869
0.00271888
0.00270894
0.00269865
0.00268757
0.00267476
0.00265785
0.00263082
1.96706e-09
1.88039e-07
2.36566e-06
1.24968e-05
3.36905e-05
6.15685e-05
8.98137e-05
0.000113891
0.000132785
0.000146747
0.000156656
0.000162617
0.0001658
0.000166876
0.00016644
0.000164836
0.000162221
0.000158701
0.000154276
0.000148931
0.000142647
0.000135648
0.000127485
0.000115564
9.84609e-05
8.26956e-05
6.82616e-05
5.51429e-05
4.61548e-05
4.52433e-05
5.78764e-05
7.95303e-05
0.000106581
0.000124422
0.000137101
0.000145479
0.000152121
0.000161141
0.000175772
0.000184041
0.000194869
0.000213892
0.000240107
0.000272498
0.000312254
0.000358002
0.000410129
0.000466001
0.000525902
0.000587614
0.000651257
0.000715626
0.000780508
0.000845185
0.00090934
0.000972354
0.00103433
0.00109544
0.00115542
0.00121384
0.00127078
0.0013263
0.00138048
0.00143338
0.00148506
0.00153563
0.00158514
0.00163367
0.00168129
0.00172806
0.00177405
0.00181931
0.00186389
0.00190781
0.00195113
0.00199385
0.002036
0.00207759
0.00211864
0.00215915
0.00219912
0.00223855
0.00227745
0.00231582
0.00235364
0.00239092
0.00242765
0.00246383
0.00249943
0.00253447
0.00256893
0.0026028
0.00263607
0.00266873
0.00270077
0.00273217
0.00276293
0.00279305
0.00282252
0.00285133
0.00287947
0.00290694
0.00293375
0.00295989
0.00298538
0.0030102
0.00303435
0.00305782
0.00308061
0.0031027
0.0031241
0.00314479
0.00316478
0.00318405
0.00320258
0.00322036
0.00323738
0.00325363
0.0032691
0.00328378
0.00329767
0.00331075
0.00332302
0.00333448
0.00334511
0.00335493
0.00336393
0.0033721
0.00337949
0.00338593
0.00339132
0.00339605
0.00339988
0.00340296
0.00340564
0.00340736
0.00340817
0.00340816
0.00340733
0.00340567
0.00340322
0.00339997
0.00339596
0.00339121
0.00338574
0.00337961
0.00337285
0.00336554
0.00335768
0.00334931
0.00334044
0.00333113
0.0033214
0.00331129
0.00330085
0.00329011
0.00327911
0.00326789
0.0032565
0.00324498
0.0032334
0.0032218
0.00321023
0.00319873
0.00318732
0.00317603
0.00316486
0.00315382
0.00314292
0.00313217
0.00312156
0.00311109
0.00310072
0.0030904
0.00308
0.00306935
0.00305807
0.00304543
0.00302952
0.00300568
5.90587e-09
4.91165e-07
6.22432e-06
2.74394e-05
5.97465e-05
9.28906e-05
0.000120633
0.000141983
0.000157876
0.000168993
0.000175392
0.000178534
0.000179326
0.0001785
0.000176623
0.000173903
0.000170389
0.000165969
0.000160588
0.000154211
0.000146996
0.000138987
0.000126318
0.000110164
9.59612e-05
8.41109e-05
7.60876e-05
7.51061e-05
7.91822e-05
8.52612e-05
0.000107085
0.000133836
0.000158074
0.000171431
0.000180221
0.000189854
0.000200801
0.000205941
0.0002155
0.000232336
0.000256111
0.000286645
0.000324339
0.000368544
0.000419244
0.000475074
0.000535138
0.000597775
0.000662585
0.000728502
0.000795275
0.00086228
0.000929211
0.000995554
0.00106101
0.00112594
0.0011902
0.00125315
0.00131484
0.00137529
0.00143447
0.00149243
0.0015492
0.00160484
0.0016594
0.00171293
0.0017655
0.00181715
0.00186794
0.00191792
0.00196714
0.00201563
0.00206343
0.00211056
0.00215705
0.0022029
0.00224813
0.00229274
0.00233674
0.00238011
0.00242288
0.00246502
0.00250654
0.00254744
0.00258772
0.00262736
0.00266638
0.00270475
0.00274247
0.00277954
0.00281596
0.00285172
0.00288681
0.00292123
0.00295495
0.00298798
0.00302031
0.00305194
0.00308285
0.00311305
0.00314252
0.00317124
0.00319925
0.00322656
0.00325315
0.00327902
0.00330418
0.00332861
0.00335231
0.00337528
0.00339751
0.00341899
0.00343971
0.00345967
0.00347885
0.00349726
0.00351489
0.00353173
0.00354777
0.00356301
0.00357744
0.00359105
0.00360385
0.00361583
0.00362699
0.00363733
0.00364685
0.00365556
0.0036635
0.00367047
0.00367646
0.00368176
0.00368619
0.0036899
0.00369309
0.00369535
0.00369675
0.00369732
0.00369707
0.00369601
0.00369414
0.0036915
0.00368809
0.00368393
0.00367907
0.00367351
0.00366731
0.00366048
0.00365306
0.00364508
0.00363658
0.0036276
0.00361817
0.00360833
0.00359811
0.00358756
0.0035767
0.00356558
0.00355425
0.00354275
0.00353115
0.00351949
0.00350781
0.00349616
0.00348456
0.00347304
0.00346159
0.00345025
0.00343901
0.0034279
0.00341691
0.00340605
0.00339531
0.00338462
0.00337393
0.00336308
0.0033519
0.00333977
0.00332515
0.00330484
1.56097e-08
1.21316e-06
1.43509e-05
4.73113e-05
8.73437e-05
0.000122969
0.000150357
0.000169196
0.000180951
0.000187175
0.000189958
0.000190048
0.00018826
0.000185261
0.000181438
0.000177039
0.000172009
0.000166412
0.000160143
0.000153072
0.000144858
0.000133234
0.000117208
0.000103662
9.48052e-05
9.18453e-05
8.93049e-05
9.4532e-05
0.00011033
0.000133331
0.000156654
0.000178381
0.000196063
0.000208425
0.000216145
0.000223542
0.000233006
0.000247851
0.00026856
0.000296185
0.000330714
0.00037184
0.000419304
0.000472426
0.000530485
0.000592182
0.000656464
0.000722353
0.000789383
0.000856996
0.000924891
0.000992723
0.00105988
0.00112658
0.00119311
0.0012586
0.00132312
0.00138658
0.00144892
0.00151016
0.0015703
0.00162935
0.00168736
0.00174436
0.0018004
0.00185552
0.00190976
0.00196316
0.00201576
0.0020676
0.00211872
0.00216915
0.00221891
0.00226801
0.00231648
0.0023643
0.00241146
0.00245796
0.00250381
0.00254898
0.00259348
0.0026373
0.00268043
0.00272287
0.00276462
0.00280568
0.00284606
0.00288576
0.00292481
0.00296314
0.00300075
0.00303763
0.00307378
0.00310919
0.00314386
0.00317777
0.00321093
0.00324332
0.00327496
0.00330583
0.00333595
0.00336533
0.00339396
0.00342183
0.00344895
0.00347532
0.00350093
0.00352578
0.00354988
0.00357321
0.00359578
0.00361758
0.00363861
0.00365886
0.00367833
0.00369702
0.00371493
0.00373205
0.00374837
0.0037639
0.00377864
0.00379257
0.00380571
0.00381804
0.00382958
0.00384031
0.00385026
0.00385942
0.00386785
0.0038753
0.0038819
0.0038878
0.00389287
0.00389725
0.00390103
0.00390396
0.00390607
0.00390737
0.00390788
0.0039076
0.00390654
0.00390473
0.00390216
0.00389886
0.00389486
0.00389017
0.00388483
0.00387885
0.00387227
0.00386511
0.00385742
0.00384921
0.00384053
0.0038314
0.00382186
0.00381193
0.00380165
0.00379107
0.00378022
0.00376916
0.00375795
0.00374663
0.00373523
0.00372381
0.0037124
0.003701
0.00368964
0.00367833
0.0036671
0.00365596
0.00364493
0.00363401
0.0036232
0.00361248
0.00360179
0.00359105
0.00358002
0.00356833
0.00355475
0.00353743
3.54829e-08
2.81855e-06
2.64684e-05
6.97288e-05
0.000113021
0.000147729
0.000172639
0.000188501
0.000197132
0.00020004
0.000199049
0.000195629
0.000190821
0.000185293
0.000179388
0.000173275
0.000166657
0.000159899
0.000152646
0.000145057
0.00013706
0.000128557
0.000120172
0.000112524
0.000107988
0.000109927
0.000120845
0.000137212
0.000156784
0.000177227
0.00019619
0.000211967
0.00022374
0.000234399
0.00024606
0.000260291
0.000278578
0.000302995
0.000333808
0.000371121
0.000414504
0.000463515
0.000517638
0.00057614
0.000638109
0.000702484
0.000768424
0.000835309
0.000902755
0.000970414
0.00103784
0.00110479
0.00117175
0.00123813
0.00130372
0.0013684
0.00143213
0.00149488
0.00155662
0.00161736
0.00167711
0.00173589
0.00179374
0.00185072
0.00190685
0.00196219
0.00201675
0.00207058
0.00212367
0.00217609
0.00222787
0.00227904
0.0023296
0.00237957
0.00242896
0.00247779
0.00252615
0.00257391
0.00262097
0.0026673
0.0027129
0.00275775
0.00280184
0.00284517
0.00288773
0.00292954
0.00297058
0.00301084
0.0030503
0.00308901
0.00312699
0.00316424
0.00320076
0.00323653
0.00327155
0.00330582
0.00333932
0.00337205
0.00340402
0.00343522
0.00346566
0.00349533
0.00352422
0.00355233
0.00357966
0.00360622
0.00363201
0.00365701
0.00368125
0.00370471
0.0037274
0.00374931
0.00377045
0.00379082
0.00381041
0.00382923
0.00384728
0.00386456
0.00388106
0.0038968
0.00391176
0.00392595
0.00393937
0.00395202
0.00396391
0.00397503
0.00398539
0.00399504
0.00400393
0.00401191
0.00401918
0.00402574
0.00403151
0.00403664
0.00404114
0.00404485
0.00404779
0.00404996
0.00405137
0.00405203
0.00405195
0.00405113
0.00404959
0.00404734
0.0040444
0.00404078
0.00403651
0.0040316
0.00402608
0.00401998
0.00401332
0.00400612
0.00399842
0.00399024
0.0039816
0.00397253
0.00396306
0.00395324
0.0039431
0.0039327
0.00392208
0.0039113
0.0039004
0.00388942
0.00387837
0.00386729
0.0038562
0.00384512
0.00383407
0.00382308
0.00381217
0.00380136
0.00379065
0.00378004
0.00376951
0.00375901
0.00374841
0.00373736
0.0037249
0.00371037
6.91093e-08
5.87158e-06
4.10397e-05
9.27066e-05
0.000138825
0.000172292
0.000193628
0.000205186
0.000209123
0.000207867
0.00020326
0.000196673
0.000189037
0.000180976
0.000172462
0.000164142
0.000155756
0.00014742
0.000139665
0.000132344
0.000125975
0.000121631
0.000120895
0.000124813
0.000133643
0.000146512
0.000161838
0.000178863
0.000196347
0.000212721
0.000226631
0.000239505
0.000253439
0.000268643
0.000286362
0.000308319
0.000335628
0.000368893
0.000407897
0.000452331
0.000501698
0.000555535
0.000613274
0.000674205
0.000737495
0.000802333
0.000868093
0.000934331
0.00100075
0.00106675
0.00113258
0.00119826
0.00126331
0.0013276
0.00139102
0.00145352
0.00151508
0.00157571
0.00163541
0.0016942
0.00175212
0.00180915
0.00186537
0.00192088
0.00197572
0.00202993
0.00208354
0.00213665
0.00218942
0.00224185
0.00229375
0.00234511
0.00239592
0.00244617
0.00249588
0.00254502
0.0025935
0.00264132
0.00268845
0.00273485
0.00278054
0.0028255
0.00286971
0.00291315
0.00295582
0.00299774
0.0030389
0.00307931
0.00311901
0.00315797
0.0031962
0.00323371
0.00327048
0.00330651
0.00334179
0.00337632
0.00341007
0.00344305
0.00347526
0.00350668
0.00353732
0.00356717
0.00359624
0.00362451
0.00365199
0.00367868
0.00370458
0.0037297
0.00375404
0.0037776
0.0038004
0.00382242
0.00384367
0.00386416
0.00388389
0.00390286
0.00392108
0.00393856
0.00395528
0.00397126
0.0039865
0.004001
0.00401477
0.0040278
0.00404011
0.00405169
0.00406255
0.00407275
0.00408217
0.00409083
0.00409881
0.0041061
0.00411269
0.00411866
0.004124
0.00412861
0.00413249
0.00413564
0.00413809
0.00413982
0.00414084
0.00414115
0.00414078
0.00413971
0.00413797
0.00413556
0.00413251
0.00412882
0.00412452
0.00411962
0.00411415
0.00410813
0.00410156
0.00409449
0.00408692
0.00407887
0.00407037
0.00406146
0.00405218
0.00404258
0.00403271
0.00402262
0.00401235
0.00400194
0.00399141
0.00398078
0.00397009
0.00395936
0.00394862
0.0039379
0.00392723
0.00391664
0.00390615
0.00389577
0.00388549
0.0038753
0.00386514
0.00385475
0.00384326
0.00383137
1.13446e-07
1.01211e-05
5.39874e-05
0.000110275
0.000158242
0.000191303
0.000210004
0.000217818
0.000218121
0.000213531
0.000205998
0.000196898
0.000186958
0.000177011
0.000167718
0.000159062
0.000151672
0.000145442
0.000141456
0.000139314
0.000139706
0.000143036
0.000149526
0.000159034
0.000171081
0.000184914
0.000199764
0.000214713
0.000228737
0.000242284
0.000257172
0.000273748
0.000291805
0.000312748
0.000337598
0.00036729