/*--------------------------------*- C++ -*----------------------------------*\
  =========                 |
  \\      /  F ield         | OpenFOAM: The Open Source CFD Toolbox
   \\    /   O peration     | Website:  https://openfoam.org
    \\  /    A nd           | Version:  13
     \\/     M anipulation  |
\*---------------------------------------------------------------------------*/
FoamFile
{
    format      ascii;
    class       volScalarField;
    location    "1400";
    object      omega;
}
// * * * * * * * * * * * * * * * * * * * * * * * * * * * * * * * * * * * * * //

dimensions      [0 0 -1 0 0 0 0];

internalField   nonuniform List<scalar> 
12225
(
31477.7
41373.8
39763
40659.8
38340.5
38832.3
31477.7
31477.7
31477.7
43508.3
44662.3
43692.5
41164.2
44218.9
45345.6
40077.7
38818.8
31477.7
1789.54
9525.86
11858.1
14369.1
16512.4
15612.1
15277.7
15152.1
16587
17779.9
18592.9
18286.4
19852.1
20240.7
20711.4
20114.2
19617.1
18296.7
515.753
1460.04
2641.56
3408.24
4398.6
5359.41
5865.52
6266.32
6742.98
7125.74
7330.96
7520.89
7613.43
7808.72
7979.22
8235.75
8504.42
8438.5
454.241
625.758
1051
1499.72
1786.6
2032.77
2383
3148.24
3021.72
3918.2
3841.49
4701.18
4241.51
4778.71
4934.56
4920.59
4739.31
4689.04
413.575
490.292
1019.63
1262.2
1475.47
1733.28
1828.42
2168.62
2079.39
2211.95
3927.91
3207.97
4248.36
3658.01
4254.33
4506.02
4412.31
4281.18
402.516
552.09
800.399
856.662
1044.32
1169.22
1427.01
1354.45
1385.27
1477.32
1668.92
2197.18
1984.83
2031.28
2096.57
2159.94
2467.14
2528.75
420.486
461.392
553.769
663.87
753.432
862.568
966.191
1090.54
1042.09
1096.57
1198.42
1292.08
1368.47
1401.81
1458.19
1544.62
1516.29
1591.79
432.778
442.685
467.134
506.18
544.54
586.681
639.655
693.337
741.451
785.804
834.188
879.701
922.127
946.128
984.413
972.647
978.088
1002.44
436.942
437.995
443.118
453.248
465.148
480.636
500.128
522.446
545.752
569.574
592.606
614.988
634.131
650.14
662.753
673.017
679.277
684.082
439.159
435.281
435.449
436.836
439.305
442.829
448.612
456.478
465.481
475.686
485.41
495.443
503.531
511.564
517.254
522.739
526.59
531.057
438.939
436.55
434.83
433.396
432.552
431.286
431.776
433.321
435.643
438.789
442.064
445.605
448.565
452.138
454.932
456.864
459.603
461.049
438.99
436.716
434.672
432.816
431.06
429.461
428.179
427.64
426.429
426.639
427.26
428.011
428.616
429.504
430.165
430.843
431.199
431.889
439.001
436.769
434.661
432.692
430.8
429.023
427.349
425.932
424.608
423.537
422.616
421.918
421.174
420.69
420.037
419.682
418.985
418.795
438.999
436.779
434.659
432.668
430.756
428.958
427.225
425.626
424.092
422.703
421.364
420.168
418.973
417.923
416.84
415.908
414.918
414.096
438.999
436.777
434.657
432.658
430.745
428.94
427.211
425.58
424.017
422.547
421.138
419.813
418.537
417.335
416.174
415.08
414.023
413.029
439
436.774
434.657
432.65
430.74
428.928
427.202
425.562
423.999
422.512
421.096
419.747
418.459
417.233
416.061
414.944
413.875
412.857
439
436.772
434.655
432.645
430.735
428.919
427.192
425.549
423.984
422.495
421.075
419.722
418.431
417.2
416.025
414.905
413.833
412.812
439
436.769
434.65
432.638
430.725
428.908
427.179
425.533
423.967
422.475
421.053
419.697
418.405
417.172
415.995
414.872
413.8
412.776
439
436.771
434.653
432.641
430.73
428.912
427.183
425.538
423.971
422.478
421.056
419.7
418.407
417.173
415.996
414.872
413.799
412.775
439.001
436.771
434.656
432.644
430.734
428.917
427.189
425.544
423.978
422.486
421.065
419.709
418.417
417.183
416.007
414.883
413.811
412.786
439.004
436.77
434.66
432.645
430.741
428.921
427.199
425.552
423.991
422.498
421.082
419.723
418.439
417.201
416.033
414.909
413.842
412.819
439.009
436.767
434.668
432.645
430.756
428.926
427.221
425.567
424.026
422.536
421.143
419.792
418.544
417.302
416.187
415.063
414.044
413.042
439.018
436.761
434.675
432.642
430.808
428.959
427.358
425.691
424.338
422.883
421.737
420.454
419.456
418.324
417.48
416.485
415.766
414.907
439.034
436.712
434.64
432.736
431.206
429.72
428.61
427.518
426.984
426.456
426.258
425.969
426.007
426.056
426.203
426.316
426.466
426.556
438.824
436.719
435.072
434.778
435.63
437.122
438.897
441.04
444.645
447.931
451.907
455.098
459.028
461.917
466.004
468.657
472.946
475.47
437.487
440.55
447.263
454.958
468.233
479.308
494.928
509.78
527.339
542.649
559.049
572.859
587.495
599.594
613.14
623.664
636.645
645.774
430.624
477.934
523.939
576.391
635.696
691.899
755.806
812.478
874.5
924.969
979.078
1020.87
1066.9
1101.62
1141.69
1171.1
1207.32
1232.42
504.297
820.439
1107.67
1360.85
1615.25
1852.34
2086.83
2287.62
2483.41
2634.08
2784.76
2889.8
3009.66
3087.25
3188.44
3253.66
3343.76
3400.44
2221.66
4549.03
6188.91
7380.95
8292.66
8938.59
9395.64
9705.63
9885.25
9987.53
10004
9992.11
9964.06
9914.03
9876.17
9838.84
9823.83
9808.17
21464.4
24173.3
25734.7
26505.3
26845.9
26804.6
26668.4
26388.4
26065.6
25734.3
25413.2
25111.2
24833.6
24581.7
24353
24150.7
23968.7
23806.8
11463.2
2514.24
2516.41
2518.61
2520.83
2523.07
2525.32
2527.6
2529.9
2532.22
2534.57
2536.93
2539.31
2541.72
2544.15
2546.6
2549.08
2551.57
2554.09
2556.64
2559.2
2561.79
2564.41
2567.05
2569.71
2572.4
2575.12
2577.86
2580.62
2583.41
2586.23
2589.08
2591.95
2594.85
2597.77
2600.73
2603.71
2606.72
2609.76
2612.82
2615.92
2619.05
2622.2
2625.39
2628.61
2631.86
2635.14
2638.45
2641.79
2645.17
2648.58
2652.02
2655.5
2659.01
2662.55
2666.13
2669.74
2673.39
2677.08
2680.8
2684.56
3277.28
3415.96
2696.06
3360.49
3396.48
3493.05
3575.92
3651.1
3729.17
3800.65
3872.51
3940.95
4008.56
4074.12
4138.54
4201.57
4263.45
4324.21
4383.88
4442.54
4500.24
4556.92
4612.77
4667.54
4721.58
4774.51
4826.77
4877.99
4928.47
4977.99
5026.59
5074.18
5120.79
5166.33
5210.8
5254.1
5296.24
5337.1
5376.69
5414.96
5452
5487.92
5523.13
5557.55
5590.8
5623.02
5654.26
5684.38
5713.52
5741.49
5768.46
5794.2
5818.9
5842.34
5864.7
5885.76
5905.71
5924.36
5941.88
5958.13
5973.22
5987.05
5999.73
6011.27
6021.8
6031.39
6040.12
6047.89
6053.18
6059.96
6058.66
6064
6058.73
6062.78
6055.14
6053.72
6050.58
6045.15
6039.03
6031.46
6022.96
6013.46
6003.17
5992.11
5980.37
5968.02
5955.14
5941.79
5928.04
5913.98
5899.65
5885.15
5870.51
5855.81
5841.12
5826.52
5812.09
5797.98
5784.35
5771.28
5758.88
5747.18
5736.31
5726.21
5716.99
5708.52
5700.97
5694.16
5688.27
5683.08
5678.7
5674.77
5671.31
5667.66
5663.24
5657.21
5646.05
5625.49
5530.81
11463.2
1994.18
1005.99
828.274
710.233
611.117
613.45
615.525
606.691
590.088
567.316
544.21
522.956
505.166
493.012
484.079
483.778
487.724
504.11
555.915
636.695
736.828
846.929
957.583
1056.59
1136.82
1176.16
1167
1135.58
1044.95
918.387
769.794
639.593
562.196
497.005
456.942
444.57
450.007
465.876
492.045
525.896
554.567
619.388
725.588
837.197
976.576
1237.85
1551.83
1790.62
1941.17
2025.47
2055.14
2056.29
2016.91
1977.96
1927.82
1858.38
1802.68
1746.5
1702.45
1683.77
1679.77
1656.94
1624.86
1661.42
1640.96
1642.97
1645.33
1647.42
1651.88
1656.66
1663.03
1669.84
1677.51
1685.5
1693.99
1702.67
1711.59
1720.59
1729.69
1738.77
1747.85
1756.84
1765.78
1774.58
1783.27
1791.8
1800.18
1808.34
1816.29
1823.94
1831.36
1838.5
1845.4
1852.03
1858.39
1864.52
1870.41
1876.13
1881.75
1887.41
1893.31
1899.76
1907.06
1915.36
1922.97
1930.49
1937.7
1944.67
1951.37
1957.81
1963.97
1969.87
1975.49
1980.85
1985.93
1990.75
1995.3
1999.6
2003.65
2007.45
2011
2014.31
2017.4
2020.27
2022.94
2025.41
2027.67
2029.64
2031.28
2032.81
2033.66
2034.8
2035.17
2036.25
2036.25
2036.75
2035.53
2034.73
2033.02
2031.07
2028.96
2026.72
2024.33
2021.79
2019.12
2016.32
2013.43
2010.47
2007.44
2004.37
2001.27
1998.14
1995.03
1991.93
1988.88
1985.91
1982.96
1980.1
1977.35
1974.73
1972.24
1969.91
1967.74
1965.73
1963.88
1962.2
1960.69
1959.34
1958.17
1957.15
1956.32
1955.65
1955.19
1954.94
1954.97
1955.3
1956.16
1956.55
1968.95
11463.2
2019.65
809.447
606.469
632.419
661.197
639.203
595.753
538.557
483.373
433.875
392.164
359.106
332.987
312.784
297.182
286.077
277.803
274.646
277.415
284.899
303.877
334.875
377.785
432.442
492.976
556.713
604.566
643.994
634.739
623.007
578.556
517.065
444.798
390.274
367.479
372.008
386.835
409.314
443.004
506.788
603.245
743.406
941.404
1119.33
1266.02
1396.27
1496.59
1540.13
1544.8
1510.59
1460.32
1403.85
1345.75
1295.01
1245.86
1204.21
1170.64
1142.39
1122.91
1110.41
1102.38
1096.32
1090.26
1091.61
1090.16
1091.48
1092.83
1095.13
1098.15
1101.56
1105.45
1109.61
1114.04
1118.63
1123.37
1128.2
1133.1
1138.03
1142.98
1147.92
1152.84
1157.72
1162.56
1167.33
1172.05
1176.68
1181.24
1185.7
1190.05
1194.3
1198.45
1202.51
1206.47
1210.34
1214.15
1217.89
1221.59
1225.28
1229
1232.78
1236.66
1240.66
1244.72
1248.74
1252.54
1256.24
1259.77
1263.17
1266.4
1269.49
1272.42
1275.21
1277.83
1280.31
1282.64
1284.82
1286.85
1288.74
1290.49
1292.1
1293.56
1294.89
1296.08
1297.14
1298.07
1298.86
1299.51
1300
1300.35
1300.62
1300.66
1300.75
1300.46
1300.41
1299.73
1299.45
1298.23
1297.28
1296.08
1294.81
1293.45
1292.03
1290.54
1289
1287.39
1285.73
1284.04
1282.31
1280.54
1278.77
1276.97
1275.17
1273.38
1271.6
1269.85
1268.13
1266.44
1264.79
1263.19
1261.64
1260.14
1258.69
1257.3
1255.96
1254.68
1253.45
1252.28
1251.15
1250.08
1249.06
1248.12
1247.26
1246.53
1246
1245.75
1245.89
1246.85
1249.07
1260.22
11463.2
2026.6
955.16
912.913
861.145
768.525
656.738
553.678
469.811
406.533
358.937
321.591
292.302
269.606
252.13
238.748
228.655
221.252
216.163
213.727
214.116
217.852
224.27
237.63
258.236
285.974
320.699
356.33
390.528
415.565
423.23
417.507
402.897
377.941
394.867
454.621
513.214
552.669
596.521
662.113
764.164
899.662
1026.18
1110.81
1181.16
1239.27
1267.3
1250.69
1203.86
1167.39
1114.55
1069.61
1026.85
990.62
960.205
934.715
914.832
899.234
887.448
879.587
874.45
871.26
869.629
869.081
869.98
871.019
872.946
875.204
877.924
880.964
884.242
887.731
891.366
895.121
898.964
902.872
906.823
910.804
914.797
918.792
922.779
926.748
930.691
934.603
938.477
942.309
946.096
949.834
953.518
957.147
960.713
964.225
967.686
971.098
974.464
977.79
981.082
984.348
987.597
990.834
994.061
997.271
1000.45
1003.55
1006.56
1009.45
1012.23
1014.89
1017.44
1019.87
1022.18
1024.37
1026.45
1028.4
1030.24
1031.95
1033.55
1035.03
1036.4
1037.64
1038.77
1039.78
1040.67
1041.45
1042.1
1042.64
1043.06
1043.35
1043.51
1043.56
1043.54
1043.39
1043.18
1042.77
1042.37
1041.67
1041.02
1040.06
1039.08
1037.98
1036.81
1035.57
1034.27
1032.91
1031.5
1030.04
1028.54
1027
1025.43
1023.83
1022.21
1020.58
1018.93
1017.28
1015.64
1014
1012.37
1010.76
1009.17
1007.6
1006.05
1004.52
1003.01
1001.53
1000.07
998.628
997.209
995.812
994.433
993.072
991.735
990.439
989.196
988.045
987.039
986.251
985.843
986.166
987.674
994.268
11463.2
2229.82
1375.21
1156.93
934.982
734.85
571.694
458.721
380.721
325.871
286.649
258.232
237.452
221.878
210.041
200.991
194.095
188.986
185.451
183.409
183.443
184.599
187.316
193.328
203.091
217.53
237.598
261.151
286.058
309.47
324.931
333.348
373.185
433.207
526.159
587.121
640.274
702.898
775.019
848.903
918.675
978.412
1029.79
1069.02
1082.58
1065.57
1020.46
990.382
947.901
913.309
877.512
849.42
824.339
804.221
787.862
775.021
765.371
758.301
753.494
750.656
749.51
749.2
749.686
751.034
753.066
755.433
758.209
761.245
764.527
767.99
771.592
775.305
779.1
782.957
786.859
790.792
794.745
798.707
802.671
806.629
810.576
814.505
818.413
822.295
826.147
829.967
833.754
837.505
841.219
844.889
848.516
852.1
855.643
859.145
862.606
866.027
869.407
872.749
876.049
879.305
882.507
885.646
888.706
891.679
894.553
897.324
899.993
902.558
905.014
907.364
909.604
911.735
913.753
915.66
917.451
919.129
920.691
922.14
923.474
924.691
925.79
926.77
927.629
928.367
928.983
929.475
929.842
930.08
930.183
930.174
930.155
929.923
929.609
929.159
928.628
927.918
927.142
926.201
925.178
924.055
922.848
921.565
920.211
918.791
917.308
915.769
914.179
912.544
910.868
909.155
907.41
905.638
903.845
902.036
900.219
898.396
896.573
894.752
892.935
891.123
889.318
887.52
885.73
883.949
882.177
880.414
878.662
876.917
875.181
873.46
871.754
870.071
868.426
866.848
865.382
864.094
863.119
862.726
863.294
866.613
11463.2
2777.43
1685.29
1202.18
848.928
603.302
457.353
366.62
310.153
273.434
247.31
227.7
212.397
200.048
190.093
182.17
176.049
171.528
168.446
166.77
166.739
167.656
170.053
174.628
181.617
191.604
205.266
223.375
244.875
272.023
313.918
377.519
475.78
568.483
632.019
688.233
744.734
796.071
838.833
876.39
911.926
940.526
948.063
930.512
900.979
873.521
839.87
812.174
782.876
759.307
737.917
720.923
706.592
695.36
686.646
680.247
675.828
673.366
672.26
671.998
672.643
674.214
676.414
679.11
682.208
685.585
689.207
693.011
696.964
701.028
705.176
709.387
713.643
717.931
722.239
726.559
730.885
735.209
739.528
743.836
748.131
752.407
756.662
760.893
765.097
769.272
773.417
777.531
781.61
785.653
789.653
793.611
797.526
801.395
805.217
808.99
812.71
816.375
819.981
823.522
826.989
830.371
833.665
836.864
839.963
842.96
845.854
848.641
851.319
853.887
856.343
858.686
860.916
863.028
865.021
866.893
868.645
870.273
871.777
873.154
874.401
875.518
876.501
877.35
878.063
878.639
879.074
879.368
879.507
879.543
879.508
879.281
878.931
878.448
877.846
877.095
876.23
875.23
874.118
872.898
871.578
870.164
868.662
867.077
865.413
863.678
861.877
860.02
858.109
856.148
854.143
852.099
850.023
847.921
845.798
843.661
841.513
839.356
837.195
835.029
832.862
830.695
828.529
826.365
824.207
822.053
819.905
817.76
815.62
813.485
811.359
809.249
807.17
805.144
803.208
801.416
799.866
798.773
798.387
799.53
11463.2
3343.68
1763.76
1062.62
674.735
472.349
364.552
303.737
265.612
239.701
220.939
206.563
195.087
185.652
177.728
171.117
165.807
161.787
159.12
157.849
158.024
159.428
162.622
168.039
176.21
188.268
205.424
228.044
261.051
313.94
396.755
500.26
582.854
641.509
692.433
735.975
770.647
799.195
825.675
842.34
846.251
832.754
811.4
789.075
764.12
740.525
716.808
696.525
677.873
662.692
649.773
639.5
631.323
625.225
620.93
618.418
617.25
617.044
617.74
619.365
621.727
624.672
628.077
631.849
635.913
640.201
644.668
649.272
653.982
658.77
663.614
668.497
673.405
678.328
683.258
688.188
693.114
698.032
702.939
707.831
712.705
717.559
722.389
727.193
731.969
736.713
741.425
746.104
750.748
755.35
759.908
764.416
768.873
773.275
777.619
781.901
786.117
790.263
794.335
798.327
802.237
806.058
809.785
813.41
816.928
820.337
823.635
826.817
829.883
832.828
835.651
838.345
840.907
843.337
845.634
847.796
849.823
851.709
853.455
855.056
856.511
857.816
858.97
859.97
860.816
861.505
862.035
862.403
862.603
862.673
862.639
862.411
862.031
861.502
860.829
860.005
859.041
857.935
856.699
855.336
853.856
852.263
850.564
848.764
846.87
844.887
842.82
840.666
838.435
836.142
833.792
831.392
828.949
826.47
823.961
821.429
818.879
816.314
813.736
811.15
808.558
805.963
803.367
800.771
798.179
795.592
793.008
790.428
787.85
785.277
782.711
780.16
777.636
775.158
772.753
770.465
768.368
766.604
765.291
764.844
11463.2
3539.13
1602.54
847.15
532.405
392.719
321.474
278.923
250.021
229.124
213.418
200.845
190.352
181.375
173.619
167.119
161.986
158.4
156.448
156.179
157.489
160.435
165.288
173.039
184.664
202.823
231.431
275.87
346.282
436.563
517.411
577.191
626.936
669.259
703.997
732.434
755.461
766.699
768.217
757.551
741.599
723.867
704.748
685.991
667.178
649.619
633.429
619.593
607.664
597.962
590.108
584.086
579.688
576.883
575.531
575.178
575.7
577.237
579.586
582.614
586.215
590.288
594.744
599.51
604.525
609.738
615.106
620.594
626.172
631.814
637.499
643.21
648.935
654.661
660.384
666.098
671.8
677.486
683.154
688.8
694.422
700.018
705.585
711.12
716.621
722.084
727.508
732.892
738.234
743.53
748.77
753.951
759.069
764.12
769.098
773.999
778.818
783.551
788.194
792.744
797.197
801.55
805.791
809.915
813.917
817.795
821.546
825.168
828.656
832.009
835.222
838.293
841.22
844
846.63
849.108
851.43
853.593
855.594
857.43
859.098
860.594
861.917
863.064
864.034
864.823
865.43
865.852
866.08
866.158
866.093
865.82
865.37
864.747
863.956
862.996
861.875
860.595
859.163
857.584
855.866
854.016
852.04
849.945
847.738
845.427
843.018
840.521
837.943
835.292
832.574
829.797
826.966
824.091
821.179
818.238
815.272
812.286
809.283
806.27
803.248
800.221
797.192
794.163
791.138
788.119
785.104
782.093
779.085
776.084
773.092
770.115
767.165
764.256
761.411
758.662
756.038
753.65
751.535
749.799
11463.2
3449.88
1330.82
682.883
450.559
348.097
293.78
261.2
239.795
223.797
210.55
199.347
189.673
181.272
174.157
168.391
164.232
161.72
161.012
162.244
165.901
172.379
183.123
199.948
224.677
262.183
318.783
389.185
458.371
516.061
563.508
603.043
636.641
665.809
690.096
702.231
704.385
696.624
684.998
670.725
655.726
640.92
626.297
612.139
598.53
586.094
575.112
565.839
558.163
552.095
547.496
544.285
542.543
541.929
542.131
543.397
545.536
548.464
552.081
556.288
561
566.137
571.63
577.417
583.443
589.663
596.037
602.529
609.111
615.754
622.433
629.128
635.826
642.514
649.182
655.827
662.452
669.05
675.619
682.156
688.659
695.126
701.554
707.942
714.285
720.581
726.825
733.009
739.128
745.19
751.191
757.124
762.983
768.762
774.456
780.059
785.565
790.97
796.269
801.458
806.527
811.47
816.283
820.962
825.502
829.902
834.157
838.266
842.224
846.028
849.673
853.158
856.478
859.631
862.612
865.419
868.047
870.494
872.755
874.826
876.702
878.382
879.863
881.141
882.216
883.084
883.743
884.19
884.415
884.472
884.335
883.976
883.413
882.65
881.694
880.547
879.215
877.702
876.013
874.156
872.137
869.966
867.649
865.194
862.61
859.905
857.087
854.168
851.154
848.056
844.881
841.637
838.333
834.976
831.577
828.142
824.68
821.195
817.692
814.177
810.655
807.129
803.602
800.076
796.557
793.045
789.54
786.042
782.552
779.07
775.601
772.15
768.727
765.343
762.016
758.769
755.646
752.703
749.93
747.184
11463.2
3064.07
1077.83
580.322
408.874
329.904
285.884
258.532
239.544
225.522
214.262
204.62
196.149
188.809
182.812
178.419
176.268
176.227
178.895
184.391
193.961
208.771
231.712
265.09
309.976
362.615
414.762
463.602
506.386
543.231
574.558
602.008
626.522
641.779
646.479
643.367
635.998
625.201
613.543
601.77
590.415
579.438
568.741
558.43
548.761
540.109
532.681
526.571
521.754
518.204
515.956
514.948
514.791
515.622
517.411
520.078
523.535
527.702
532.502
537.859
543.701
549.965
556.586
563.505
570.672
578.04
585.569
593.222
600.975
608.788
616.627
624.471
632.302
640.103
647.86
655.56
663.174
670.73
678.247
685.729
693.169
700.567
707.92
715.227
722.485
729.691
736.839
743.932
750.969
757.935
764.817
771.61
778.306
784.897
791.376
797.739
803.98
810.095
816.079
821.926
827.631
833.19
838.597
843.85
848.945
853.878
858.647
863.248
867.678
871.931
876.004
879.894
883.596
887.106
890.42
893.536
896.449
899.153
901.645
903.919
905.971
907.797
909.396
910.764
911.9
912.8
913.464
913.881
914.059
914.036
913.77
913.266
912.529
911.567
910.383
908.984
907.374
905.559
903.546
901.341
898.953
896.391
893.663
890.779
887.748
884.58
881.286
877.875
874.359
870.747
867.05
863.276
859.435
855.536
851.59
847.605
843.589
839.55
835.494
831.427
827.356
823.285
819.215
815.15
811.095
807.05
803.017
798.994
794.985
790.989
787.012
783.057
779.131
775.246
771.412
767.647
763.975
760.451
757.035
753.355
11463.2
2596.73
901.175
515.996
380.309
317.428
282.632
260.76
245.831
234.502
225.215
217.299
210.662
205.509
202.675
202.122
204.678
210.945
220.546
234.049
253.288
279.284
311.556
348.234
386.815
424.602
459.618
491.393
519.431
544.397
567.389
584.544
592.264
593.526
590.261
583.698
575.46
566.559
557.876
549.498
541.419
533.513
525.791
518.415
511.652
505.755
500.877
497.084
494.377
492.908
492.43
492.831
494.213
496.531
499.731
503.757
508.533
513.993
520.071
526.701
533.824
541.394
549.342
557.595
566.102
574.819
583.696
592.679
601.688
610.699
619.732
628.766
637.78
646.756
655.674
664.529
673.333
682.081
690.768
699.399
707.96
716.451
724.875
733.23
741.516
749.728
757.86
765.904
773.85
781.696
789.438
797.067
804.574
811.951
819.19
826.286
833.235
840.033
846.676
853.159
859.479
865.628
871.604
877.4
883.016
888.445
893.688
898.739
903.595
908.251
912.703
916.945
920.974
924.785
928.376
931.74
934.875
937.773
940.43
942.84
944.999
946.903
948.548
949.932
951.054
951.912
952.503
952.815
952.875
952.679
952.215
951.487
950.499
949.257
947.767
946.036
944.068
941.872
939.454
936.822
933.986
930.955
927.74
924.35
920.797
917.092
913.248
909.274
905.185
900.991
896.703
892.334
887.892
883.387
878.832
874.236
869.607
864.957
860.293
855.623
850.954
846.289
841.631
836.983
832.349
827.729
823.126
818.541
813.974
809.43
804.911
800.419
795.961
791.543
787.175
782.869
778.637
774.529
770.496
765.966
11463.2
2215.95
827.133
498.362
375.787
318.398
288.176
270.054
257.899
248.977
242.053
236.741
233.419
232.302
233.673
238.771
247.371
258.988
273.505
292.337
315.08
340.783
368.22
396.134
423.4
449.172
472.763
494.399
514.793
531.987
542.137
545.98
546.412
543.783
539.25
533.533
527.475
521.441
515.601
509.88
504.228
498.628
493.186
488.096
483.586
479.851
477.007
475.218
474.495
474.596
475.711
477.761
480.739
484.618
489.37
494.99
501.347
508.379
516.028
524.229
532.904
541.935
551.22
560.82
570.704
580.828
591.144
601.608
612.19
622.842
633.489
644.087
654.614
665.057
675.381
685.581
695.664
705.631
715.477
725.194
734.8
744.308
753.725
763.059
772.308
781.466
790.524
799.47
808.293
816.989
825.551
833.971
842.236
850.339
858.273
866.033
873.615
881.018
888.239
895.273
902.117
908.766
915.214
921.458
927.493
933.319
938.932
944.329
949.505
954.457
959.179
963.665
967.912
971.915
975.671
979.173
982.418
985.398
988.109
990.545
992.7
994.568
996.148
997.439
998.436
999.14
999.547
999.659
999.479
999.008
998.243
997.188
995.847
994.226
992.33
990.168
987.747
985.074
982.158
979.008
975.634
972.047
968.259
964.281
960.125
955.804
951.331
946.719
941.981
937.131
932.182
927.146
922.034
916.859
911.63
906.359
901.057
895.737
890.41
885.085
879.766
874.459
869.165
863.888
858.63
853.392
848.177
842.988
837.827
832.699
827.603
822.541
817.517
812.537
807.605
802.731
797.921
793.219
788.585
783.263
11463.2
1895.25
751.636
475.014
371.792
323.749
298.234
283.228
273.623
267.142
262.95
260.979
260.68
262.953
268.46
276.938
288.116
301.609
317.292
335.179
354.646
374.94
395.399
415.341
434.103
451.925
469.189
484.491
495.66
501.678
504.227
504.91
503.776
501.343
498.141
494.574
490.911
487.223
483.52
479.779
476.026
472.344
468.884
465.832
463.371
461.739
461.057
461.187
462.4
464.637
467.818
471.915
476.905
482.746
489.347
496.496
504.392
513.033
522.373
532.352
542.908
553.968
565.454
577.247
589.279
601.493
613.845
626.282
638.771
651.275
663.665
675.874
687.859
699.597
711.108
722.41
733.524
744.474
755.274
765.915
776.409
786.779
797.046
807.221
817.304
827.285
837.148
846.875
856.45
865.863
875.108
884.171
893.039
901.708
910.17
918.424
926.465
934.294
941.91
949.311
956.493
963.451
970.181
976.68
982.944
988.972
994.763
1000.31
1005.62
1010.68
1015.48
1020.03
1024.31
1028.32
1032.07
1035.53
1038.71
1041.6
1044.19
1046.49
1048.47
1050.14
1051.5
1052.53
1053.25
1053.65
1053.72
1053.48
1052.92
1052.04
1050.84
1049.32
1047.5
1045.37
1042.95
1040.24
1037.25
1033.99
1030.46
1026.69
1022.68
1018.44
1013.98
1009.32
1004.48
999.453
994.268
988.936
983.472
977.889
972.203
966.428
960.577
954.663
948.696
942.685
936.649
930.604
924.56
918.525
912.506
906.507
900.53
894.578
888.652
882.752
876.883
871.05
865.258
859.508
853.802
848.137
842.515
836.939
831.415
825.947
820.54
815.229
810.001
803.924
11463.2
1913
754.443
478.812
379.494
334.509
311.593
298.753
291.038
286.595
284.663
284.362
286.393
291.126
298.2
307.329
318.198
330.51
344.135
358.652
373.571
388.44
402.859
416.936
430.947
443.685
453.594
460.502
465.197
468.178
469.548
469.964
469.628
468.72
467.45
465.954
464.311
462.553
460.714
458.852
457.079
455.577
454.58
454.138
454.248
455.174
456.967
459.596
462.95
467.028
472.09
478.177
485.28
493.373
502.435
512.496
523.464
535.297
547.916
561.248
575.271
589.794
604.577
619.438
634.259
648.96
663.532
677.908
692.127
706.103
719.722
732.94
745.742
758.162
770.233
781.998
793.513
804.854
816.097
827.171
838.082
848.878
859.602
870.262
880.849
891.339
901.703
911.91
921.936
931.77
941.397
950.799
959.953
968.869
977.543
985.971
994.15
1002.08
1009.77
1017.21
1024.4
1031.34
1038.02
1044.45
1050.62
1056.53
1062.18
1067.58
1072.71
1077.57
1082.16
1086.48
1090.51
1094.26
1097.72
1100.88
1103.73
1106.27
1108.51
1110.42
1112
1113.24
1114.15
1114.72
1114.94
1114.83
1114.38
1113.59
1112.45
1110.98
1109.18
1107.04
1104.57
1101.79
1098.69
1095.29
1091.59
1087.61
1083.36
1078.85
1074.08
1069.08
1063.85
1058.41
1052.78
1046.96
1040.98
1034.84
1028.57
1022.17
1015.67
1009.09
1002.43
995.704
988.935
982.123
975.298
968.475
961.663
954.87
948.101
941.361
934.653
927.98
921.343
914.736
908.173
901.661
895.202
888.799
882.449
876.149
869.897
863.696
857.551
851.464
845.437
839.493
833.664
826.861
11463.2
1857.77
742.277
482.223
389.082
347.371
326.416
314.719
307.834
304.384
303.205
303.651
306.852
312.063
318.917
327.073
336.269
346.28
356.876
367.775
378.707
389.452
400.293
410.099
418.264
424.96
430.549
435.192
438.878
441.81
444.149
446.124
447.925
449.409
450.621
451.612
452.436
453.143
453.794
454.456
455.184
455.969
456.821
458.233
460.386
463.488
467.688
473.173
479.892
487.891
497.16
507.715
519.516
532.516
546.669
561.947
578.244
595.563
613.63
632.268
651.328
670.432
689.257
707.65
725.491
742.688
759.128
774.838
789.867
804.127
817.592
830.295
842.242
853.65
864.601
875.176
885.474
895.678
906.193
916.62
926.931
937.25
947.674
958.158
968.639
979.055
989.352
999.482
1009.41
1019.12
1028.59
1037.83
1046.83
1055.58
1064.07
1072.26
1080.17
1087.78
1095.1
1102.14
1108.9
1115.36
1121.54
1127.44
1133.05
1138.38
1143.43
1148.21
1152.72
1156.95
1160.89
1164.55
1167.92
1170.99
1173.78
1176.26
1178.41
1180.24
1181.77
1182.97
1183.83
1184.31
1184.45
1184.28
1183.72
1182.81
1181.56
1179.96
1178.01
1175.72
1173.08
1170.09
1166.77
1163.12
1159.15
1154.87
1150.29
1145.42
1140.28
1134.86
1129.2
1123.29
1117.15
1110.8
1104.25
1097.52
1090.62
1083.57
1076.38
1069.08
1061.66
1054.17
1046.6
1038.98
1031.33
1023.67
1016.02
1008.37
1000.75
993.152
985.587
978.06
970.577
963.139
955.751
948.401
941.112
933.889
926.733
919.647
912.623
905.657
898.744
891.882
885.08
878.344
871.671
865.075
858.638
851.139
11463.7
1844
744.389
491.334
400.653
360.024
339.982
328.768
322.005
318.684
317.588
318.085
321.062
325.611
331.344
337.96
345.242
353.088
361.38
370.019
378.629
386.662
394.138
401.327
408.122
414.5
420.551
426.3
431.705
436.77
441.479
445.765
449.423
452.712
455.83
458.843
461.811
464.799
467.887
471.161
474.732
478.759
483.477
488.982
495.469
503.159
512.336
523.28
535.765
549.833
565.539
583.024
602.121
622.614
644.331
667.082
690.594
714.479
738.493
762.315
785.525
807.89
829.324
849.721
868.988
887.066
903.904
919.478
933.686
946.422
958.17
969.222
979.749
989.834
999.506
1008.79
1017.7
1026.34
1034.79
1042.97
1051.07
1059.54
1068.64
1078.06
1087.6
1097.17
1106.65
1115.98
1125.11
1133.99
1142.63
1151.02
1159.21
1167.14
1174.76
1182.03
1188.96
1195.55
1201.79
1207.71
1213.3
1218.56
1223.51
1228.15
1232.48
1236.52
1240.28
1243.77
1246.99
1249.93
1252.61
1255
1257.11
1258.96
1260.53
1261.8
1262.73
1263.36
1263.71
1263.76
1263.47
1262.76
1261.75
1260.41
1258.73
1256.7
1254.34
1251.63
1248.58
1245.19
1241.46
1237.39
1232.99
1228.27
1223.23
1217.9
1212.27
1206.36
1200.18
1193.74
1187.05
1180.13
1172.98
1165.63
1158.09
1150.37
1142.49
1134.46
1126.3
1118.03
1109.66
1101.2
1092.69
1084.12
1075.54
1066.96
1058.4
1049.86
1041.34
1032.86
1024.41
1016.01
1007.66
999.376
991.157
983.028
974.981
967.012
959.117
951.295
943.543
935.857
928.235
920.669
913.176
905.76
898.417
891.145
884.086
875.919
11462.8
1828.52
746.443
499.266
409.785
369.618
350.069
338.917
332.167
328.875
327.759
328.096
330.722
334.753
339.95
346.143
353.046
360.456
368.253
376.261
384.417
392.734
400.893
409.035
417.148
425.257
433.412
441.628
449.783
457.859
465.873
473.84
481.866
489.921
498.021
506.206
514.523
523.022
531.772
540.858
550.398
560.556
571.5
583.33
596.204
610.321
625.833
642.684
661.213
681.541
703.792
727.912
753.71
781.039
809.628
839.101
869.021
898.84
928.05
956.133
982.653
1007.25
1029.73
1050.03
1068.1
1084.03
1097.98
1110.18
1120.89
1130.36
1138.66
1146.24
1153.53
1160.57
1167.42
1174.09
1180.57
1186.86
1192.6
1198.15
1203.8
1209.89
1216.8
1224.13
1231.7
1239.36
1246.99
1254.52
1261.86
1268.96
1275.76
1282.28
1288.53
1294.48
1300.09
1305.31
1310.15
1314.62
1318.75
1322.54
1326.01
1329.16
1332.01
1334.57
1336.87
1338.89
1340.67
1342.22
1343.54
1344.63
1345.5
1346.12
1346.5
1346.67
1346.63
1346.3
1345.61
1344.69
1343.52
1342.07
1340.32
1338.25
1335.88
1333.21
1330.22
1326.93
1323.33
1319.41
1315.18
1310.64
1305.79
1300.63
1295.16
1289.4
1283.35
1277.03
1270.44
1263.58
1256.48
1249.14
1241.56
1233.77
1225.77
1217.58
1209.22
1200.68
1192
1183.19
1174.25
1165.21
1156.07
1146.86
1137.58
1128.26
1118.91
1109.55
1100.18
1090.83
1081.5
1072.2
1062.95
1053.73
1044.58
1035.48
1026.45
1017.53
1008.7
999.949
991.274
982.674
974.15
965.703
957.337
949.069
940.889
932.798
924.789
916.855
909.178
900.405
11461.8
1819.83
749.723
502.408
415.031
376.385
357.923
347.374
341.442
338.879
338.231
339.688
343.32
348.47
354.842
362.371
371.141
380.376
390.168
400.824
412.44
424.604
437.222
450.458
464.313
478.772
493.787
509.272
525.201
541.585
558.392
575.591
593.175
611.015
628.979
646.992
665.015
682.998
700.919
718.84
736.831
754.947
773.289
792.018
811.285
831.319
852.38
874.807
899.414
925.904
954.088
983.794
1014.97
1047.34
1080.45
1113.77
1146.71
1178.69
1209.08
1237.25
1262.77
1285.19
1304.25
1320.1
1332.64
1342.2
1349.04
1353.52
1356.24
1358.01
1358.95
1359.23
1359.08
1358.73
1358.44
1358.22
1358.27
1358.9
1360.16
1362.01
1364.57
1368.09
1371.94
1376.09
1380.47
1384.99
1389.56
1394.11
1398.57
1402.83
1406.78
1410.34
1413.67
1416.7
1419.39
1421.73
1423.73
1425.41
1426.78
1427.87
1428.69
1429.25
1429.57
1429.68
1429.63
1429.33
1428.85
1428.24
1427.46
1426.53
1425.42
1424.14
1422.68
1421.06
1419.23
1417.2
1414.95
1412.47
1409.78
1406.85
1403.67
1400.23
1396.53
1392.58
1388.37
1383.89