/*--------------------------------*- C++ -*----------------------------------*\
  =========                 |
  \\      /  F ield         | OpenFOAM: The Open Source CFD Toolbox
   \\    /   O peration     | Website:  https://openfoam.org
    \\  /    A nd           | Version:  13
     \\/     M anipulation  |
\*---------------------------------------------------------------------------*/
FoamFile
{
    format      ascii;
    class       volScalarField;
    location    "1400";
    object      p;
}
// * * * * * * * * * * * * * * * * * * * * * * * * * * * * * * * * * * * * * //

dimensions      [0 2 -2 0 0 0 0];

internalField   nonuniform List<scalar> 
12225
(
-4.46051
-5.33889
-5.73226
-5.86653
-6.0147
-6.17019
-6.29613
-6.39793
-6.49528
-6.58538
-6.67128
-6.76155
-6.84308
-6.91194
-6.97811
-7.04643
-7.12224
-7.21553
-4.72018
-5.37036
-5.70661
-5.83949
-5.98028
-6.13665
-6.26526
-6.36922
-6.46636
-6.56064
-6.65432
-6.74109
-6.81776
-6.88383
-6.94809
-7.01774
-7.08782
-7.14119
-4.93118
-5.364
-5.6896
-5.85241
-5.99194
-6.14157
-6.27131
-6.37863
-6.47523
-6.569
-6.65839
-6.73612
-6.80614
-6.87111
-6.93476
-6.99927
-7.059
-7.10353
-5.0675
-5.38037
-5.68937
-5.86403
-5.9967
-6.13579
-6.26264
-6.36954
-6.46472
-6.5551
-6.63952
-6.71433
-6.78338
-6.84993
-6.91421
-6.97552
-7.03103
-7.07443
-5.18646
-5.4228
-5.69976
-5.87398
-6.0027
-6.13391
-6.25747
-6.36364
-6.45756
-6.54524
-6.62723
-6.70198
-6.7715
-6.8378
-6.9002
-6.95765
-7.00885
-7.05021
-5.29813
-5.48032
-5.71346
-5.88332
-6.00991
-6.13403
-6.25277
-6.35691
-6.44918
-6.53477
-6.61505
-6.68916
-6.75774
-6.82184
-6.88118
-6.93513
-6.98302
-7.02283
-5.3966
-5.53519
-5.73587
-5.89727
-6.0203
-6.13754
-6.25088
-6.35247
-6.44314
-6.52695
-6.60543
-6.67805
-6.74485
-6.80653
-6.86331
-6.91482
-6.96059
-6.99939
-5.4851
-5.59312
-5.76478
-5.9144
-6.03259
-6.14357
-6.25127
-6.34949
-6.43786
-6.51935
-6.59544
-6.66585
-6.73051
-6.78994
-6.84448
-6.89388
-6.93774
-6.97525
-5.56633
-5.65029
-5.79521
-5.932
-6.04497
-6.15023
-6.25225
-6.34663
-6.43235
-6.51147
-6.58522
-6.65349
-6.71623
-6.77378
-6.82642
-6.87399
-6.91623
-6.9527
-5.64006
-5.70482
-5.82606
-5.9499
-6.05696
-6.15657
-6.25305
-6.34347
-6.42648
-6.50327
-6.57476
-6.64098
-6.70186
-6.75764
-6.8085
-6.85438
-6.8952
-6.93071
-5.70638
-5.75661
-5.85778
-5.96869
-6.06898
-6.16284
-6.25395
-6.34029
-6.42037
-6.49469
-6.56388
-6.62801
-6.68705
-6.7411
-6.79031
-6.8347
-6.87428
-6.90899
-5.7611
-5.80162
-5.88738
-5.98679
-6.0804
-6.169
-6.25524
-6.33769
-6.41482
-6.48668
-6.55367
-6.61586
-6.67318
-6.72568
-6.77348
-6.81663
-6.85524
-6.88927
-5.81016
-5.84357
-5.91641
-6.00512
-6.09207
-6.17549
-6.25698
-6.33548
-6.40953
-6.47884
-6.54359
-6.6038
-6.6594
-6.71039
-6.75685
-6.79887
-6.8366
-6.87006
-5.86005
-5.88751
-5.94833
-6.02604
-6.10549
-6.1831
-6.25932
-6.33334
-6.4038
-6.47014
-6.53229
-6.59023
-6.64386
-6.69315
-6.73816
-6.77899
-6.81583
-6.8487
-5.9089
-5.93135
-5.98165
-6.0487
-6.12013
-6.19143
-6.26206
-6.33123
-6.39769
-6.46068
-6.51993
-6.57533
-6.62677
-6.6742
-6.71767
-6.75726
-6.79317
-6.82546
-5.95389
-5.97229
-6.01391
-6.07132
-6.1348
-6.19967
-6.26467
-6.32887
-6.39111
-6.45052
-6.50668
-6.55937
-6.6085
-6.65397
-6.69584
-6.73417
-6.76915
-6.80087
-5.991
-6.00633
-6.04134
-6.09087
-6.14729
-6.20621
-6.26596
-6.32548
-6.38362
-6.43951
-6.4926
-6.54264
-6.58946
-6.63302
-6.67332
-6.71043
-6.74451
-6.77568
-6.01425
-6.0276
-6.05835
-6.10259
-6.15391
-6.2083
-6.26396
-6.31973
-6.37452
-6.42743
-6.47788
-6.52559
-6.5704
-6.61226
-6.65116
-6.6872
-6.72047
-6.75114
-6.01416
-6.02692
-6.0565
-6.09917
-6.14874
-6.20132
-6.25517
-6.30917
-6.36224
-6.41348
-6.46235
-6.50858
-6.55205
-6.59274
-6.63068
-6.66595
-6.69868
-6.72902
-5.98257
-5.99703
-6.03014
-6.07682
-6.12961
-6.18449
-6.24008
-6.29544
-6.34944
-6.40118
-6.45023
-6.49643
-6.53974
-6.58017
-6.61782
-6.65281
-6.68528
-6.71543
-5.93674
-5.95429
-5.99397
-6.04797
-6.10652
-6.16569
-6.22484
-6.28318
-6.33937
-6.39259
-6.44262
-6.48947
-6.53317
-6.57384
-6.61158
-6.64657
-6.67895
-6.70902
-5.87761
-5.90047
-5.95073
-6.01526
-6.08133
-6.14603
-6.21007
-6.27253
-6.33175
-6.38702
-6.43838
-6.4861
-6.53034
-6.57135
-6.60928
-6.64432
-6.67665
-6.70668
-5.80723
-5.8387
-5.90451
-5.9821
-6.05615
-6.12702
-6.19683
-6.264
-6.32652
-6.38413
-6.43721
-6.48594
-6.53071
-6.57199
-6.61008
-6.64506
-6.67722
-6.70685
-5.72634
-5.77159
-5.85919
-5.95108
-6.03231
-6.10971
-6.18612
-6.25817
-6.32366
-6.3834
-6.43818
-6.48809
-6.53337
-6.57483
-6.61282
-6.64755
-6.67985
-6.7104
-5.6348
-5.70185
-5.81824
-5.92397
-6.01044
-6.09428
-6.17779
-6.25487
-6.32333
-6.38484
-6.44084
-6.49187
-6.53792
-6.57954
-6.61666
-6.64973
-6.68049
-6.71004
-5.53246
-5.63227
-5.7833
-5.90078
-5.99102
-6.08088
-6.17067
-6.25181
-6.32323
-6.38733
-6.44399
-6.49498
-6.54335
-6.58706
-6.62399
-6.65645
-6.68649
-6.71419
-5.41936
-5.56775
-5.75269
-5.87684
-5.97192
-6.06986
-6.16563
-6.24928
-6.32246
-6.38921
-6.44752
-6.49454
-6.54307
-6.58949
-6.62556
-6.65833
-6.69033
-6.71861
-5.28515
-5.52216
-5.73227
-5.85001
-5.94977
-6.05951
-6.16401
-6.25297
-6.32795
-6.39736
-6.46155
-6.50803
-6.55387
-6.59967
-6.63461
-6.66762
-6.70062
-6.73106
-5.08538
-5.49403
-5.73529
-5.83545
-5.93212
-6.04672
-6.15438
-6.24629
-6.32529
-6.39338
-6.45595
-6.51351
-6.5592
-6.59622
-6.63197
-6.66651
-6.69633
-6.72275
-4.82866
-5.42651
-5.73206
-5.84271
-5.94803
-6.07019
-6.18127
-6.27519
-6.35652
-6.42337
-6.48016
-6.5465
-6.59296
-6.62021
-6.65534
-6.68825
-6.7118
-6.72984
-7.64637
-7.64649
-7.64656
-7.6466
-7.64641
-7.64539
-7.64301
-7.63962
-7.63621
-7.63371
-7.63316
-7.63491
-7.63858
-7.64346
-7.6488
-7.65392
-7.65826
-7.66136
-7.6631
-7.66373
-7.66361
-7.66297
-7.66205
-7.66113
-7.66047
-7.66019
-7.66022
-7.66032
-7.66026
-7.65996
-7.65949
-7.65892
-7.65823
-7.65734
-7.65621
-7.65499
-7.6542
-7.65467
-7.65702
-7.66104
-7.66572
-7.66976
-7.6725
-7.67405
-7.67507
-7.67625
-7.67831
-7.68131
-7.68442
-7.68685
-7.68958
-7.69586
-7.71002
-7.73355
-7.76515
-7.80363
-7.84947
-7.90266
-7.96211
-8.026
-8.09234
-8.15928
-8.22517
-8.28834
-8.34829
-8.40438
-8.45608
-8.50325
-8.54606
-8.58455
-8.61899
-8.64953
-8.67641
-8.69978
-8.71982
-8.73662
-8.75027
-8.76079
-8.76814
-8.7723
-8.77315
-8.77061
-8.76452
-8.75485
-8.74136
-8.72398
-8.70238
-8.67639
-8.64572
-8.61028
-8.57011
-8.52512
-8.47512
-8.41998
-8.35953
-8.29364
-8.2222
-8.14516
-8.06256
-7.97449
-7.88097
-7.78182
-7.67675
-7.56546
-7.44781
-7.32388
-7.19364
-7.05713
-6.91428
-6.76512
-6.60959
-6.44771
-6.27945
-6.10482
-5.92381
-5.73646
-5.54285
-5.34311
-5.13739
-4.92582
-4.70851
-4.4856
-4.25728
-4.02373
-3.78526
-3.5421
-3.29459
-3.043
-2.78771
-2.52899
-2.26729
-2.0029
-1.7363
-1.46778
-1.19779
-0.926695
-0.655065
-0.383267
-0.111512
0.16005
0.430982
0.700916
0.969452
1.23622
1.5009
1.7632
2.02287
2.27969
2.53343
2.78394
3.03107
3.27472
3.51481
3.75128
3.98412
4.21332
4.43891
4.66094
4.87948
5.09463
5.30651
5.51527
5.72106
5.92405
6.12441
6.3223
6.51786
6.71124
6.90256
7.09194
7.27947
7.46522
7.64922
7.83148
8.01197
8.19062
8.36739
8.54229
8.71783
8.88367
-7.64755
-7.64775
-7.64815
-7.64861
-7.64869
-7.64796
-7.64608
-7.64347
-7.64131
-7.64063
-7.64181
-7.64478
-7.64912
-7.6542
-7.65943
-7.66428
-7.66837
-7.67146
-7.67338
-7.67393
-7.67313
-7.67125
-7.66871
-7.66601
-7.66359
-7.66177
-7.66064
-7.65999
-7.65952
-7.65904
-7.6586
-7.65829
-7.658
-7.65759
-7.65697
-7.65636
-7.65645
-7.6581
-7.6616
-7.66626
-7.67077
-7.6739
-7.67521
-7.67511
-7.67419
-7.67263
-7.6715
-7.67283
-7.67812
-7.68464
-7.6907
-7.69974
-7.71394
-7.73384
-7.76167
-7.80007
-7.84921
-7.90699
-7.97085
-8.03812
-8.10675
-8.17456
-8.2399
-8.30226
-8.36067
-8.4142
-8.4632
-8.50779
-8.54815
-8.5845
-8.61708
-8.64607
-8.67167
-8.69401
-8.71325
-8.72946
-8.74268
-8.75292
-8.76014
-8.76428
-8.76521
-8.76284
-8.757
-8.74762
-8.73448
-8.71747
-8.69633
-8.67085
-8.64074
-8.60594
-8.56644
-8.52214
-8.47288
-8.41852
-8.35894
-8.294
-8.22361
-8.14766
-8.06607
-7.97872
-7.88552
-7.78641
-7.68137
-7.5704
-7.45346
-7.33042
-7.20118
-7.0657
-6.92393
-6.77586
-6.62145
-6.46069
-6.29358
-6.1201
-5.94025
-5.75407
-5.56163
-5.36304
-5.15844
-4.94798
-4.73175
-4.50991
-4.28261
-4.05009
-3.81256
-3.57033
-3.32367
-3.07289
-2.81831
-2.5603
-2.2992
-2.03539
-1.76925
-1.50113
-1.23137
-0.960332
-0.688457
-0.416176
-0.144051
0.127604
0.398609
0.668646
0.937341
1.20433
1.46927
1.7319
1.99193
2.24914
2.50331
2.75428
3.00189
3.24604
3.48663
3.72363
3.95698
4.1867
4.41279
4.63532
4.85433
5.06994
5.28225
5.4914
5.69755
5.90087
6.10152
6.29966
6.49545
6.68903
6.88053
7.07006
7.25773
7.44361
7.62775
7.8102
7.99099
8.17007
8.34753
8.52295
8.70113
8.86621
-7.64884
-7.64886
-7.64894
-7.64907
-7.64917
-7.64911
-7.64907
-7.64954
-7.65108
-7.65388
-7.65783
-7.66261
-7.66783
-7.67307
-7.67795
-7.68217
-7.6855
-7.68781
-7.68902
-7.68907
-7.68794
-7.68574
-7.68267
-7.67892
-7.67477
-7.67047
-7.6663
-7.6625
-7.65928
-7.65676
-7.65499
-7.65379
-7.65282
-7.65184
-7.65107
-7.65123
-7.6532
-7.6574
-7.66318
-7.66884
-7.67265
-7.6735
-7.67184
-7.66946
-7.66821
-7.66819
-7.66886
-7.67202
-7.67988
-7.69211
-7.70857
-7.73043
-7.75808
-7.79158
-7.83129
-7.87742
-7.92921
-7.98521
-8.04384
-8.10351
-8.16302
-8.22129
-8.27745
-8.33102
-8.38155
-8.42857
-8.47207
-8.51203
-8.54856
-8.58176
-8.61174
-8.63864
-8.66257
-8.68361
-8.70184
-8.71729
-8.72998
-8.73988
-8.74694
-8.75106
-8.75213
-8.75
-8.74453
-8.73556
-8.72291
-8.70643
-8.68589
-8.66105
-8.63165
-8.5976
-8.55885
-8.51529
-8.46677
-8.41316
-8.35435
-8.29024
-8.22073
-8.14573
-8.06516
-7.97889
-7.88679
-7.78876
-7.68482
-7.57493
-7.4591
-7.33721
-7.2092
-7.07498
-6.93453
-6.7878
-6.63477
-6.4754
-6.3097
-6.13765
-5.95925
-5.77452
-5.58353
-5.38638
-5.1832
-4.97411
-4.75924
-4.53873
-4.31272
-4.08146
-3.84514
-3.60408
-3.35851
-3.10879
-2.85519
-2.5981
-2.33785
-2.07484
-1.8094
-1.54192
-1.27273
-1.00224
-0.730849
-0.459003
-0.187167
0.0843358
0.355269
0.625298
0.894046
1.16115
1.42628
1.68913
1.94945
2.20699
2.46155
2.71292
2.96097
3.20557
3.44662
3.68408
3.9179
4.14808
4.37463
4.59759
4.81702
5.03301
5.24567
5.45513
5.66154
5.86505
6.06585
6.26408
6.45991
6.65348
6.84492
7.03433
7.22186
7.40756
7.59151
7.77373
7.9543
8.13321
8.31083
8.48608
8.66657
8.82695
-7.64984
-7.6496
-7.64926
-7.64921
-7.65009
-7.65235
-7.65592
-7.6605
-7.66576
-7.67139
-7.67715
-7.68279
-7.6881
-7.69288
-7.69698
-7.70023
-7.70254
-7.70383
-7.70406
-7.70321
-7.70127
-7.69831
-7.69442
-7.6897
-7.68426
-7.67821
-7.67173
-7.66504
-7.65845
-7.65231
-7.64693
-7.64249
-7.63907
-7.63689
-7.63656
-7.63904
-7.64442
-7.65142
-7.65812
-7.66273
-7.66465
-7.66447
-7.66367
-7.66392
-7.66613
-7.67077
-7.67857
-7.69043
-7.70714
-7.72895
-7.75568
-7.78705
-7.82269
-7.86225
-7.90532
-7.9515
-8.00024
-8.0509
-8.10277
-8.15502
-8.20691
-8.25774
-8.30694
-8.35405
-8.3987
-8.44064
-8.47972
-8.51591
-8.54922
-8.5797
-8.60742
-8.63245
-8.65486
-8.67471
-8.69202
-8.70682
-8.71907
-8.72874
-8.73574
-8.73997
-8.74128
-8.73953
-8.73455
-8.72615
-8.71415
-8.69835
-8.67856
-8.65451
-8.62595
-8.59277
-8.55489
-8.51218
-8.46451
-8.41173
-8.35375
-8.29047
-8.22179
-8.14762
-8.06789
-7.98249
-7.89133
-7.79432
-7.69143
-7.58263
-7.46788
-7.34712
-7.22026
-7.08725
-6.94805
-6.8026
-6.65088
-6.49285
-6.32849
-6.1578
-5.98077
-5.79741
-5.60779
-5.412
-5.21016
-5.00238
-4.78878
-4.56949
-4.34469
-4.11458
-3.87939
-3.63939
-3.39485
-3.14608
-2.89339
-2.63714
-2.37767
-2.11537
-1.85057
-1.58365
-1.31496
-1.04492
-0.773934
-0.502427
-0.230809
0.0405968
0.311513
0.581578
0.850417
1.11767
1.383
1.64611
1.90674
2.16462
2.41956
2.67135
2.91984
3.16489
3.40641
3.64432
3.8786
4.10923
4.33623
4.5596
4.77944
4.99579
5.20878
5.41852
5.62516
5.82885
6.02978
6.22808
6.42392
6.61743
6.80877
6.99802
7.18532
7.37076
7.55442
7.73636
7.91665
8.09526
8.2727
8.44723
8.62797
8.78171
-7.6518
-7.65127
-7.65083
-7.65186
-7.65548
-7.66124
-7.66814
-7.67543
-7.68262
-7.68941
-7.69565
-7.70126
-7.70619
-7.71037
-7.71371
-7.71613
-7.71758
-7.71798
-7.71731
-7.71555
-7.7127
-7.7088
-7.70388
-7.69801
-7.69125
-7.68367
-7.67538
-7.66649
-7.65724
-7.64798
-7.63923
-7.63162
-7.62597
-7.62328
-7.62449
-7.62937
-7.63601
-7.64249
-7.64786
-7.65172
-7.65444
-7.657
-7.66065
-7.66649
-7.67546
-7.68843
-7.7059
-7.72765
-7.75306
-7.78187
-7.81383
-7.84863
-7.88612
-7.9261
-7.96835
-8.01254
-8.05825
-8.10498
-8.1522
-8.19934
-8.24586
-8.29127
-8.33517
-8.37722
-8.41716
-8.45477
-8.48996
-8.5227
-8.55297
-8.58081
-8.60627
-8.6294
-8.65024
-8.66883
-8.68518
-8.69927
-8.71106
-8.72049
-8.72744
-8.73178
-8.73338
-8.73204
-8.72758
-8.7198
-8.70848
-8.69343
-8.67441
-8.65116
-8.62344
-8.59109
-8.55406
-8.51217
-8.46528
-8.41328
-8.35605
-8.29351
-8.22556
-8.15213
-8.07312
-7.98847
-7.89809
-7.80194
-7.69993
-7.59206
-7.47822
-7.35842
-7.23253
-7.10056
-6.9624
-6.81805
-6.66742
-6.51052
-6.34729
-6.17774
-6.00183
-5.81961
-5.63112
-5.43644
-5.23567
-5.02893
-4.81634
-4.59801
-4.37414
-4.14491
-3.91058
-3.67136
-3.42759
-3.17951
-2.92749
-2.67182
-2.41291
-2.15108
-1.88672
-1.62014
-1.35178
-1.08201
-0.811259
-0.539903
-0.26835
0.00308319
0.27407
0.544242
0.813216
1.08064
1.34618
1.60954
1.87045
2.12864
2.38391
2.63605
2.88489
3.13031
3.37218
3.61046
3.84509
4.07606
4.30336
4.52705
4.74714
4.96374
5.17693
5.38685
5.59362
5.79741
5.99837
6.19668
6.39247
6.58589
6.77709
6.96619
7.15329
7.3385
7.52189
7.70353
7.8835
8.0617
8.23868
8.41209
8.59204
8.73871
-7.65565
-7.65475
-7.65499
-7.65883
-7.66572
-7.67387
-7.68225
-7.69032
-7.69781
-7.70459
-7.71065
-7.71598
-7.72054
-7.72424
-7.72704
-7.72885
-7.72963
-7.72935
-7.72797
-7.72548
-7.72188
-7.7172
-7.71147
-7.7047
-7.69689
-7.6881
-7.67842
-7.66802
-7.65712
-7.64609
-7.63569
-7.62693
-7.62107
-7.61917
-7.62101
-7.62497
-7.62942
-7.63386
-7.63859
-7.64398
-7.6503
-7.65789
-7.66781
-7.6812
-7.69852
-7.71963
-7.7441
-7.7716
-7.80174
-7.8342
-7.86879
-7.90531
-7.9436
-7.98347
-8.02471
-8.06703
-8.11011
-8.15356
-8.19697
-8.23995
-8.2821
-8.32307
-8.36259
-8.40038
-8.43627
-8.47011
-8.50182
-8.53139
-8.55882
-8.58415
-8.60742
-8.62869
-8.64799
-8.66534
-8.68074
-8.69417
-8.70554
-8.71478
-8.72176
-8.72632
-8.72829
-8.72746
-8.72362
-8.71655
-8.706
-8.69175
-8.67355
-8.65114
-8.62424
-8.59274
-8.55649
-8.51536
-8.46918
-8.41785
-8.36128
-8.29936
-8.23201
-8.15916
-8.08074
-7.99667
-7.90692
-7.81141
-7.7101
-7.60293
-7.48985
-7.37079
-7.24572
-7.11456
-6.97727
-6.83378
-6.68405
-6.52805
-6.36573
-6.19707
-6.02206
-5.84072
-5.65309
-5.45925
-5.2593
-5.05332
-4.84144
-4.6238
-4.40057
-4.17194
-3.93816
-3.69946
-3.45615
-3.20851
-2.95687
-2.70154
-2.44292
-2.18134
-1.91716
-1.65074
-1.38249
-1.11281
-0.842103
-0.570741
-0.299103
-0.0275283
0.243622
0.513972
0.783135
1.05077
1.31653
1.58014
1.8413
2.09977
2.3553
2.60772
2.85683
3.10251
3.34463
3.58315
3.81799
4.04916
4.27663
4.50046
4.72066
4.93734
5.15057
5.3605
5.56726
5.77099
5.97185
6.17004
6.36567
6.5589
6.74988
6.93871
7.12553
7.31043
7.49349
7.67477
7.85432
8.03199
8.20833
8.38047
8.55953
8.69935
-7.66076
-7.66013
-7.66231
-7.66896
-7.67751
-7.68617
-7.69447
-7.70224
-7.70942
-7.71595
-7.72179
-7.72688
-7.73114
-7.73451
-7.73691
-7.73829
-7.73861
-7.73784
-7.73596
-7.73296
-7.72884
-7.72364
-7.71734
-7.70989
-7.7013
-7.69169
-7.68123
-7.67012
-7.65871
-7.6475
-7.6374
-7.62964
-7.62519
-7.62366
-7.62379
-7.62492
-7.62719
-7.63113
-7.63704
-7.64486
-7.65503
-7.66831
-7.68502
-7.70504
-7.72817
-7.75417
-7.78268
-7.81339
-7.84613
-7.88065
-7.91678
-7.95427
-7.99295
-8.03259
-8.07297
-8.11381
-8.15486
-8.1958
-8.23633
-8.27612
-8.3149
-8.3524
-8.38839
-8.42269
-8.45516
-8.48572
-8.51435
-8.54104
-8.56583
-8.5888
-8.60998
-8.62946
-8.64727
-8.66344
-8.67796
-8.69079
-8.70185
-8.71102
-8.71815
-8.72306
-8.72554
-8.72536
-8.72228
-8.71604
-8.70638
-8.69304
-8.67574
-8.6542
-8.62817
-8.59745
-8.56198
-8.52153
-8.47598
-8.42522
-8.36917
-8.30773
-8.24084
-8.16842
-8.09043
-8.0068
-7.9175
-7.82246
-7.72166
-7.615
-7.50249
-7.38402
-7.25957
-7.12905
-6.99244
-6.84963
-6.70061
-6.5453
-6.38369
-6.21571
-6.04139
-5.8607
-5.67371
-5.48048
-5.28109
-5.07564
-4.86423
-4.64702
-4.42416
-4.19589
-3.9624
-3.72399
-3.48089
-3.23345
-2.98193
-2.72675
-2.46818
-2.20665
-1.94244
-1.676
-1.40768
-1.13794
-0.867114
-0.595599
-0.32375
-0.0519408
0.219456
0.490045
0.759455
1.02733
1.29335
1.55719
1.8186
2.07729
2.33306
2.58567
2.83498
3.08082
3.3231
3.56172
3.79667
4.0279
4.25541
4.47921
4.69939
4.91598
5.12911
5.33889
5.54547
5.74899
5.94964
6.14756
6.34291
6.53583
6.72647
6.91494
7.1014
7.28591
7.46858
7.64943
7.82851
8.00558
8.1812
8.35207
8.53037
8.66382
-7.66515
-7.66561
-7.67034
-7.67834
-7.6868
-7.69494
-7.70272
-7.71009
-7.71699
-7.72332
-7.72898
-7.73389
-7.73795
-7.7411
-7.74327
-7.74439
-7.74445
-7.7434
-7.74123
-7.73794
-7.73355
-7.72805
-7.72135
-7.71343
-7.70451
-7.69479
-7.68439
-7.67353
-7.66268
-7.65263
-7.6444
-7.63851
-7.6344
-7.6312
-7.62902
-7.62874
-7.63069
-7.63511
-7.64266
-7.65372
-7.66821
-7.68598
-7.70687
-7.73066
-7.75707
-7.78584
-7.81672
-7.84947
-7.8839
-7.91977
-7.95689
-7.99503
-8.03398
-8.07349
-8.11334
-8.15325
-8.19296
-8.2322
-8.2707
-8.3082
-8.34445
-8.37924
-8.41241
-8.4438
-8.47336
-8.50105
-8.52688
-8.55092
-8.57324
-8.59394
-8.61311
-8.63086
-8.64724
-8.66229
-8.67601
-8.68835
-8.69921
-8.70846
-8.7159
-8.72133
-8.72451
-8.72516
-8.72301
-8.71776
-8.70912
-8.6968
-8.68049
-8.6599
-8.63473
-8.60483
-8.57006
-8.53025
-8.48523
-8.43493
-8.37926
-8.31817
-8.25159
-8.17946
-8.10173
-8.01838
-7.92936
-7.83464
-7.73416
-7.62788
-7.51575
-7.39772
-7.27373
-7.14371
-7.0076
-6.86533
-6.71684
-6.56207
-6.40098
-6.23352
-6.05969
-5.87948
-5.69294
-5.50012
-5.3011
-5.09595
-4.88481
-4.66782
-4.44515
-4.21701
-3.98362
-3.74526
-3.50219
-3.25473
-3.00318
-2.74792
-2.48925
-2.22757
-1.96321
-1.69658
-1.42808
-1.15811
-0.887044
-0.615249
-0.343094
-0.0709731
0.200727
0.471609
0.741303
1.00945
1.27573
1.53983
1.80147
2.06038
2.31634
2.56912
2.81856
3.06451
3.30686
3.54553
3.78049
4.01169
4.23913
4.46282
4.68284
4.89923
5.11213
5.32164
5.52792
5.73112
5.93143
6.12898
6.32393
6.51643
6.70663
6.89468
7.08069
7.26476
7.44698
7.62737
7.80592
7.98236
8.15723
8.32686
8.50453
8.63222
-7.66707
-7.66909
-7.67557
-7.68353
-7.69135
-7.69896
-7.70637
-7.7135
-7.72023
-7.72645
-7.73204
-7.73689
-7.7409
-7.74398
-7.74608
-7.74714
-7.74713
-7.74602
-7.74381
-7.74047
-7.73603
-7.73041
-7.72358
-7.71569
-7.70699
-7.69765
-7.68788
-7.67812
-7.66891
-7.6608
-7.65403
-7.6483
-7.64321
-7.63886
-7.63599
-7.63556
-7.63819
-7.64429
-7.65411
-7.66755
-7.68439
-7.70446
-7.72749
-7.75325
-7.78146
-7.81189
-7.8443
-7.87845
-7.91413
-7.9511
-7.98913
-8.02798
-8.0674
-8.10713
-8.14689
-8.18641
-8.22543
-8.26366
-8.30085
-8.33673
-8.37111
-8.40378
-8.43463
-8.46357
-8.49057
-8.51565
-8.5389
-8.56041
-8.58033
-8.59881
-8.61601
-8.63205
-8.64703
-8.66103
-8.67405
-8.68602
-8.69683
-8.70631
-8.71426
-8.72041
-8.72448
-8.72617
-8.72514
-8.72106
-8.7136
-8.70242
-8.6872
-8.66761
-8.64336
-8.61425
-8.58016
-8.54091
-8.49633
-8.44637
-8.39096
-8.33008
-8.26365
-8.19166
-8.11405
-8.03082
-7.94192
-7.84736
-7.74705
-7.641
-7.52912
-7.4114
-7.28772
-7.15807
-7.02232
-6.88045
-6.73235
-6.578
-6.41729
-6.25021
-6.07672
-5.89684
-5.71059
-5.51802
-5.31919
-5.11419
-4.90315
-4.6862
-4.46355
-4.23536
-4.00191
-3.76343
-3.52024
-3.27258
-3.02086
-2.76535
-2.50647
-2.24449
-1.97987
-1.71293
-1.44413
-1.17383
-0.902426
-0.630262
-0.357742
-0.0852592
0.186777
0.457983
0.727975
0.996412
1.26295
1.5273
1.78914
2.04824
2.30434
2.55725
2.80677
3.05278
3.29513
3.53378
3.76867
3.99977
4.22704
4.45053
4.67028
4.88638
5.09892
5.30807
5.51394
5.71673
5.91659
6.1137
6.30818
6.5002
6.68992
6.87747
7.063
7.2466
7.42835
7.60824
7.78626
7.96205
8.13618
8.30464
8.48179
8.60441
-7.66517
-7.66858
-7.67548
-7.68293
-7.69034
-7.69771
-7.70497
-7.71204
-7.71879
-7.72507
-7.73076
-7.73573
-7.73989
-7.74313
-7.7454
-7.74661
-7.74676
-7.74579
-7.7437
-7.74047
-7.7361
-7.73056
-7.72394
-7.71641
-7.70826
-7.69974
-7.69118
-7.68292
-7.67511
-7.66781
-7.66106
-7.65487
-7.64939
-7.64516
-7.64294
-7.64348
-7.64725
-7.6545
-7.66541
-7.67991
-7.69783
-7.71899
-7.74312
-7.76998
-7.79931
-7.83089
-7.86446
-7.8998
-7.93665
-7.97477
-8.01388
-8.05372
-8.09398
-8.13435
-8.17455
-8.21426
-8.25319
-8.29101
-8.32746
-8.36229
-8.39529
-8.42629
-8.4552
-8.48197
-8.50662
-8.52924
-8.54995
-8.56896
-8.58646
-8.60269
-8.61785
-8.63215
-8.64575
-8.65872
-8.67109
-8.68281
-8.69372
-8.70363
-8.71229
-8.7194
-8.72462
-8.72757
-8.72789
-8.72519
-8.71908
-8.7092
-8.69518
-8.67667
-8.65334
-8.62503
-8.59157
-8.55279
-8.50854
-8.4588
-8.40353
-8.34271
-8.2763
-8.20428
-8.12665
-8.04339
-7.95449
-7.85992
-7.75968
-7.65372
-7.542
-7.42444
-7.30099
-7.17158
-7.03611
-6.89452
-6.74672
-6.59265
-6.43222
-6.2654
-6.09215
-5.91248
-5.7264
-5.53394
-5.33518
-5.1302
-4.91912
-4.70209
-4.4793
-4.25096
-4.0173
-3.77859
-3.53512
-3.28718
-3.03514
-2.77931
-2.52006
-2.25773
-1.99274
-1.72543
-1.45624
-1.18555
-0.913723
-0.641141
-0.368218
-0.0953562
0.177035
0.448571
0.718869
0.987587
1.25439
1.51896
1.78101
2.04027
2.29649
2.54949
2.79905
3.04506
3.28736
3.52592
3.76069
3.99162
4.21866
4.44184
4.66123
4.87693
5.08905
5.29773
5.50312
5.70542
5.90479
6.10139
6.29534
6.48682
6.67599
6.86302
7.04802
7.23112
7.41238
7.59176
7.76922
7.94436
8.11776
8.28513
8.46179
8.58008
-7.65758
-7.66175
-7.66846
-7.67574
-7.6832
-7.69069
-7.69811
-7.70536
-7.71235
-7.71891
-7.72491
-7.73022
-7.73471
-7.73828
-7.74086
-7.74237
-7.74279
-7.74208
-7.74023
-7.73724
-7.73312
-7.72793
-7.72183
-7.71503
-7.7078
-7.70029
-7.69264
-7.685
-7.67747
-7.67013
-7.66315
-7.65686
-7.65167
-7.64805
-7.64657
-7.64784
-7.65227
-7.66017
-7.67164
-7.68668
-7.70518
-7.72694
-7.75174
-7.77936
-7.80958
-7.84216
-7.87688
-7.91347
-7.95167
-7.99119
-8.03173
-8.07294
-8.11451
-8.15607
-8.19728
-8.23775
-8.27714
-8.31509
-8.35132
-8.38553
-8.41754
-8.44717
-8.47436
-8.49909
-8.52142
-8.54152
-8.55959
-8.57592
-8.59081
-8.60459
-8.61759
-8.63008
-8.64226
-8.65427
-8.66611
-8.67773
-8.68895
-8.69953
-8.70917
-8.71749
-8.72411
-8.72858
-8.73048
-8.72934
-8.72475
-8.71629
-8.70357
-8.6862
-8.66383
-8.63626
-8.60337
-8.56495
-8.52093
-8.47127
-8.41601
-8.35512
-8.28861
-8.21644
-8.13866
-8.05524
-7.96622
-7.87156
-7.77129
-7.66532
-7.55366
-7.43618
-7.31288
-7.18361
-7.04835
-6.90696
-6.75939
-6.60552
-6.44531
-6.27866
-6.10558
-5.92602
-5.74002
-5.54759
-5.34879
-5.14373
-4.93252
-4.71533
-4.49232
-4.26373
-4.02977
-3.79076
-3.54692
-3.29864
-3.04619
-2.78998
-2.5303
-2.26758
-2.00215
-1.73444
-1.46481
-1.19368
-0.921402
-0.648386
-0.375046
-0.101803
0.170947
0.442807
0.713415
0.982403
1.24945
1.51423
1.77646
2.03584
2.29215
2.54517
2.79473
3.04064
3.28283
3.52121
3.75581
3.9865
4.21323
4.43601
4.65498
4.8702
5.08182
5.28996
5.49481
5.69656
5.89541
6.09146
6.28486
6.47576
6.66437
6.85084
7.03532
7.21792
7.3987
7.57758
7.7545
7.92901
8.10171
8.26808
8.44428
8.55895
-7.64262
-7.64691
-7.65368
-7.66152
-7.6696
-7.67754
-7.68535
-7.69298
-7.70037
-7.70739
-7.7139
-7.7197
-7.72466
-7.72867
-7.73167
-7.7336
-7.73442
-7.7341
-7.73267
-7.73014
-7.72656
-7.72202
-7.71664
-7.71057
-7.70395
-7.69693
-7.68959
-7.68202
-7.67437
-7.66688
-7.65985
-7.65361
-7.64857
-7.64524
-7.64416
-7.64585
-7.6507
-7.65897
-7.67078
-7.68616
-7.705
-7.72718
-7.75252
-7.78083
-7.81193
-7.84561
-7.88163
-7.91972
-7.95958
-8.0009
-8.0433
-8.08643
-8.12989
-8.17324
-8.21606
-8.25788
-8.29828
-8.33684
-8.37322
-8.40711
-8.43831
-8.46665
-8.4921
-8.51468
-8.53455
-8.55191
-8.5671
-8.58047
-8.59248
-8.60359
-8.61424
-8.62482
-8.63559
-8.6467
-8.65816
-8.66988
-8.68164
-8.69312
-8.70396
-8.71372
-8.72196
-8.72817
-8.73184
-8.73244
-8.7295
-8.72256
-8.7112
-8.69499
-8.67357
-8.64673
-8.61432
-8.57618
-8.53226
-8.48262
-8.42727
-8.36623
-8.2995
-8.22711
-8.14908
-8.06544
-7.9762
-7.88139
-7.78099
-7.67498
-7.5633
-7.44588
-7.32264
-7.1935
-7.05837
-6.91714
-6.76974
-6.61605
-6.456
-6.2895
-6.11653
-5.93705
-5.75108
-5.55862
-5.35974
-5.15455
-4.94317
-4.72576
-4.50251
-4.27363
-4.03936
-3.79998
-3.55579
-3.30712
-3.05429
-2.79765
-2.53756
-2.27442
-2.00857
-1.74042
-1.47033
-1.19873
-0.925982
-0.652522
-0.378759
-0.105117
0.167993
0.440173
0.711068
0.980312
1.24757
1.51253
1.77488
2.03435
2.2907
2.5437
2.79317
3.03894
3.28093
3.5191
3.75349
3.98393
4.21028
4.43262
4.65108
4.86577
5.07683
5.28439
5.48863
5.68979
5.88809
6.08359
6.27639
6.4667
6.65472
6.84063
7.02457
7.20667
7.38697
7.56537
7.74175
7.91566
8.0877
8.25314
8.42889
8.54064
-7.61967
-7.62372
-7.63122
-7.64032
-7.64937
-7.65793
-7.6662
-7.67435
-7.68235
-7.69009
-7.69733
-7.70383
-7.70942
-7.71402
-7.71759
-7.72007
-7.72146
-7.72175
-7.72093
-7.71904
-7.71611
-7.71221
-7.70744
-7.70187
-7.69561
-7.68873
-7.68136
-7.67365
-7.66584
-7.65817
-7.65093
-7.64452
-7.63943
-7.63616
-7.63524
-7.63711
-7.64213
-7.65055
-7.66249
-7.678
-7.69703
-7.71951
-7.74531
-7.77434
-7.80642
-7.84138
-7.87897
-7.91893
-7.9609
-8.00454
-8.0494
-8.09506
-8.14101
-8.18674
-8.23172
-8.27537
-8.31721
-8.35672
-8.39351
-8.42723
-8.45764
-8.48461
-8.50814
-8.52834
-8.54543
-8.55971
-8.57164
-8.58172
-8.59055
-8.5987
-8.60678
-8.61529
-8.62459
-8.63485
-8.64604
-8.65801
-8.67048
-8.68305
-8.69526
-8.70665
-8.71671
-8.72486
-8.73049
-8.73298
-8.73179
-8.72645
-8.71649
-8.70149
-8.68102
-8.65489
-8.6229
-8.58498
-8.54111
-8.49144
-8.43596
-8.37474
-8.30776
-8.23509
-8.15674
-8.0728
-7.98328
-7.88827
-7.78771
-7.68161
-7.56988
-7.45249
-7.32928
-7.20024
-7.06521
-6.92415
-6.77689
-6.62338
-6.46348
-6.29714
-6.12427
-5.94487
-5.75891
-5.56642
-5.36747
-5.16216
-4.95063
-4.73301
-4.50953
-4.28036
-4.04581
-3.80609
-3.56158
-3.31252
-3.05932
-2.80228
-2.54183
-2.27828
-2.01204
-1.74345
-1.47294
-1.20089
-0.927734
-0.653874
-0.379737
-0.105729
0.167695
0.440147
0.711261
0.980696
1.2481
1.51316
1.77556
2.03505
2.29135
2.54427
2.79359
3.03919
3.28093
3.51885
3.75302
3.9832
4.20911
4.43094
4.64884
4.86296
5.07342
5.28038
5.484
5.6846
5.88237
6.07732
6.26953
6.45923
6.64667
6.83203
7.01546
7.19709
7.37696
7.55491
7.73078
7.90411
8.07555
8.24015
8.4154
8.52492
-7.5894
-7.59359
-7.60242
-7.61316
-7.62329
-7.63247
-7.64141
-7.6504
-7.65928
-7.6679
-7.67613
-7.6836
-7.69001
-7.69528
-7.6995
-7.70267
-7.70479
-7.70581
-7.70573
-7.70453
-7.70225
-7.69892
-7.69459
-7.6893
-7.68314
-7.67623
-7.66871
-7.66075
-7.65259
-7.64451
-7.63691
-7.63021
-7.62491
-7.6215
-7.62046
-7.6222
-7.62706
-7.63529
-7.64703
-7.6624
-7.68141
-7.70407
-7.73032
-7.76011
-7.7933
-7.82974
-7.86919
-7.91137
-7.95591
-8.00238
-8.05028
-8.09907
-8.14814
-8.19683
-8.24446
-8.29037
-8.33394
-8.37459
-8.41184
-8.44532
-8.47479
-8.50015
-8.52145
-8.53886
-8.5527
-8.56344
-8.57163
-8.57795
-8.58312
-8.58793
-8.59316
-8.59948
-8.60727
-8.61669
-8.62767
-8.63999
-8.65326
-8.66699
-8.68067
-8.69382
-8.70589
-8.71625
-8.72409
-8.72866
-8.72937
-8.72571
-8.71726
-8.70356
-8.68411
-8.65874
-8.62722
-8.58947
-8.54567
-8.49593
-8.44032
-8.37884
-8.31154
-8.23847
-8.15968
-8.07529
-7.98541
-7.89006
-7.78927
-7.683
-7.57119
-7.45373
-7.33053
-7.20152
-7.06659
-6.92565
-6.77856
-6.62521
-6.46549
-6.2993
-6.12655
-5.94721
-5.76127
-5.56876
-5.36974
-5.16433
-4.95266
-4.73487
-4.51115
-4.28173
-4.04686
-3.80683
-3.56196
-3.31255
-3.05898
-2.80159
-2.54079
-2.27691
-2.01031
-1.74136
-1.47051
-1.19814
-0.924705
-0.650616
-0.376308
-0.102185
0.171343
0.443884
0.715053
0.984497
1.25187
1.51685
1.77914
2.03845
2.29454
2.54718
2.7962
3.04147
3.28286
3.52035
3.75411
3.98382
4.20919
4.43042
4.64773
4.86124
5.07109
5.27742
5.48047
5.68057
5.8779
6.07232
6.26392
6.45302
6.6399
6.82474
7.0077
7.18891
7.36844
7.54598
7.72137
7.89415
8.06502
8.22885
8.40358
8.51154
-7.55424
-7.5592
-7.56986
-7.58264
-7.594
-7.6038
-7.61315
-7.62285
-7.63286
-7.64272
-7.65216
-7.66087
-7.66835
-7.67438
-7.67922
-7.68311
-7.68599
-7.68779
-7.68844
-7.68792
-7.68621
-7.68331
-7.67926
-7.67411
-7.66794
-7.66085
-7.65301
-7.64461
-7.63596
-7.62738
-7.61929
-7.61213
-7.60637
-7.60248
-7.60091
-7.60205
-7.60624
-7.61377
-7.62485
-7.63966
-7.6583
-7.68089
-7.70743
-7.73795
-7.77233
-7.81047
-7.8521
-7.89692
-7.94449
-7.99432
-8.04583
-8.09829
-8.15098
-8.20305
-8.2537
-8.30207
-8.34745
-8.38915
-8.42665
-8.45955
-8.48765
-8.51088
-8.52938
-8.54343
-8.55346
-8.56007
-8.56399
-8.56604
-8.56709
-8.56816
-8.57028
-8.57421
-8.58032
-8.5887
-8.59924
-8.61167
-8.62554
-8.64022
-8.6553
-8.6703
-8.68471
-8.69769
-8.70822
-8.71537
-8.71842
-8.71689
-8.71053
-8.69856
-8.68086
-8.65685
-8.62646
-8.58948
-8.54605
-8.49629
-8.4404
-8.37844
-8.31056
-8.23678
-8.15727
-8.07215
-7.98162
-7.88569
-7.78443
-7.67776
-7.56565
-7.44796
-7.32464
-7.19555
-7.06063
-6.91972
-6.77273
-6.61948
-6.45988
-6.29378
-6.12111
-5.9418
-5.75585
-5.56329
-5.36419
-5.15866
-4.94683
-4.72885
-4.50488
-4.27519
-4.04
-3.79966
-3.55442
-3.30469
-3.05075
-2.79305
-2.5319
-2.2677
-2.00077
-1.73155
-1.46043
-1.18785
-0.914234
-0.640029
-0.365662
-0.0915481
0.18196
0.454459
0.725557
0.994876
1.26209
1.52686
1.78889
2.04788
2.3036
2.5558
2.8043
3.04892
3.28955
3.52609
3.75853
3.98692
4.21131
4.43174
4.64829
4.86104
5.07013
5.27571
5.47808
5.6776
5.87437
6.06817
6.25912
6.44764
6.634
6.81838
7.00093
7.18183
7.36114
7.53839
7.71336
7.88565
8.05601
8.21913
8.39329
8.50033
-7.51641
-7.52242
-7.53541
-7.55025
-7.56216
-7.57227
-7.58262
-7.59358
-7.60472
-7.61574
-7.62641
-7.63638
-7.64505
-7.6521
-7.65786
-7.66263
-7.66641
-7.66906
-7.6705
-7.67065
-7.66949
-7.667
-7.66318
-7.65808
-7.65178
-7.6444
-7.63612
-7.62718
-7.61789
-7.60858
-7.59967
-7.59159
-7.5848
-7.57974
-7.57687
-7.5766
-7.57931
-7.58536
-7.59504
-7.60866
-7.62642
-7.64855
-7.67517
-7.70639
-7.7421
-7.78222
-7.82643
-7.87442
-7.92561
-7.97939
-8.03496
-8.09153
-8.14808
-8.20366
-8.25724
-8.30794
-8.35491
-8.39739
-8.43479
-8.46667
-8.4929
-8.51347
-8.52865
-8.53881
-8.5445
-8.54644
-8.54563
-8.54301
-8.53965
-8.53683
-8.53581
-8.53721
-8.54129
-8.54802
-8.55758
-8.56995
-8.58462
-8.60101
-8.61848
-8.63631
-8.65376
-8.6697
-8.68326
-8.6932
-8.69894
-8.6999
-8.6956
-8.68575
-8.66966
-8.64718
-8.61796
-8.58182
-8.53878
-8.48901
-8.43275
-8.37021
-8.30156
-8.22697
-8.14662
-8.06074
-7.96947
-7.87293
-7.77111
-7.66403
-7.55158
-7.43369
-7.31025
-7.18117
-7.04631
-6.90553
-6.75867
-6.60561
-6.4462