/*--------------------------------*- C++ -*----------------------------------*\
  =========                 |
  \\      /  F ield         | OpenFOAM: The Open Source CFD Toolbox
   \\    /   O peration     | Website:  https://openfoam.org
    \\  /    A nd           | Version:  13
     \\/     M anipulation  |
\*---------------------------------------------------------------------------*/
FoamFile
{
    format      ascii;
    class       surfaceScalarField;
    location    "1400";
    object      phi;
}
// * * * * * * * * * * * * * * * * * * * * * * * * * * * * * * * * * * * * * //

dimensions      [0 3 -1 0 0 0 0];

internalField   nonuniform List<scalar> 
24170
(
3.05893e-06
1.29489e-07
2.91591e-06
1.43054e-07
2.78374e-06
1.32186e-07
2.66068e-06
1.23042e-07
2.55243e-06
1.08269e-07
2.46169e-06
9.07342e-08
2.38387e-06
7.78246e-08
2.31476e-06
6.91008e-08
2.25448e-06
6.0297e-08
2.20276e-06
5.17295e-08
2.1596e-06
4.31744e-08
2.12364e-06
3.59632e-08
2.09267e-06
3.09806e-08
2.06612e-06
2.65598e-08
2.04647e-06
1.96583e-08
2.03374e-06
1.27236e-08
2.02826e-06
5.48146e-09
-1.55199e-09
2.0298e-06
3.47133e-06
7.54278e-08
3.50214e-06
1.12336e-07
3.51903e-06
1.15368e-07
3.52372e-06
1.18372e-07
3.51472e-06
1.17307e-07
3.49595e-06
1.09515e-07
3.47325e-06
1.00546e-07
3.44809e-06
9.42526e-08
3.41895e-06
8.94519e-08
3.38752e-06
8.3172e-08
3.35592e-06
7.47833e-08
3.3256e-06
6.62804e-08
3.29731e-06
5.92757e-08
3.27085e-06
5.30227e-08
3.24621e-06
4.42962e-08
3.22311e-06
3.58197e-08
3.20085e-06
2.77324e-08
2.09806e-08
3.17831e-06
3.68352e-06
5.44358e-08
3.70117e-06
9.46795e-08
3.71625e-06
1.00278e-07
3.73082e-06
1.03785e-07
3.7436e-06
1.04525e-07
3.75363e-06
9.94864e-08
3.76145e-06
9.27295e-08
3.76768e-06
8.80112e-08
3.77284e-06
8.4304e-08
3.77666e-06
7.9358e-08
3.77847e-06
7.29786e-08
3.77854e-06
6.62181e-08
3.77769e-06
6.01336e-08
3.77644e-06
5.42727e-08
3.77383e-06
4.69081e-08
3.76992e-06
3.97349e-08
3.76449e-06
3.31708e-08
2.70352e-08
3.75845e-06
3.93679e-06
4.3047e-08
3.94927e-06
8.22769e-08
3.95864e-06
9.09745e-08
3.9674e-06
9.50661e-08
3.9756e-06
9.63811e-08
3.9824e-06
9.271e-08
3.98806e-06
8.70929e-08
3.99346e-06
8.26282e-08
3.99912e-06
7.86597e-08
4.00476e-06
7.37173e-08
4.00991e-06
6.78353e-08
4.01449e-06
6.16334e-08
4.01883e-06
5.57956e-08
4.02308e-06
5.00255e-08
4.02654e-06
4.34442e-08
4.02921e-06
3.70695e-08
4.03118e-06
3.11961e-08
2.59139e-08
4.0323e-06
4.21475e-06
3.54264e-08
4.22545e-06
7.15768e-08
4.2332e-06
8.31962e-08
4.24029e-06
8.79605e-08
4.24701e-06
8.96682e-08
4.25253e-06
8.71923e-08
4.25694e-06
8.26742e-08
4.26105e-06
7.85172e-08
4.26524e-06
7.44752e-08
4.26931e-06
6.96495e-08
4.27305e-06
6.41037e-08
4.27643e-06
5.8257e-08
4.27965e-06
5.25811e-08
4.28276e-06
4.69162e-08
4.28535e-06
4.08619e-08
4.28739e-06
3.50258e-08
4.28896e-06
2.96344e-08
2.48397e-08
4.29005e-06
4.51487e-06
2.96528e-08
4.52422e-06
6.22904e-08
4.5315e-06
7.59609e-08
4.53811e-06
8.13944e-08
4.54448e-06
8.33427e-08
4.54995e-06
8.17501e-08
4.5545e-06
7.81405e-08
4.55872e-06
7.43144e-08
4.56288e-06
7.03303e-08
4.56684e-06
6.56998e-08
4.57045e-06
6.04881e-08
4.57371e-06
5.50012e-08
4.57673e-06
4.95637e-08
4.57952e-06
4.4129e-08
4.58183e-06
3.85499e-08
4.58367e-06
3.31944e-08
4.58507e-06
2.82374e-08
2.38184e-08
4.58609e-06
4.83762e-06
2.47606e-08
4.84575e-06
5.41421e-08
4.85288e-06
6.88153e-08
4.85938e-06
7.4875e-08
4.8656e-06
7.71229e-08
4.87111e-06
7.6241e-08
4.87587e-06
7.33705e-08
4.88031e-06
6.98766e-08
4.88461e-06
6.60317e-08
4.88868e-06
6.16386e-08
4.8924e-06
5.67635e-08
4.89577e-06
5.16366e-08
4.89885e-06
4.6492e-08
4.90162e-06
4.13588e-08
4.90395e-06
3.62193e-08
4.90585e-06
3.13043e-08
4.90735e-06
2.6742e-08
2.26749e-08
4.90851e-06
5.18393e-06
2.04141e-08
5.19104e-06
4.70668e-08
5.19804e-06
6.18492e-08
5.20459e-06
6.83511e-08
5.21079e-06
7.09509e-08
5.2164e-06
7.06525e-08
5.22138e-06
6.84026e-08
5.226e-06
6.52684e-08
5.23041e-06
6.16281e-08
5.23457e-06
5.7487e-08
5.2384e-06
5.29356e-08
5.24189e-06
4.81561e-08
5.24505e-06
4.33311e-08
5.24788e-06
3.85317e-08
5.2503e-06
3.38035e-08
5.25231e-06
2.92965e-08
5.25395e-06
2.51069e-08
2.13661e-08
5.25527e-06
5.55501e-06
1.67489e-08
5.5614e-06
4.06576e-08
5.56824e-06
5.49921e-08
5.57487e-06
6.17169e-08
5.58117e-06
6.4648e-08
5.58697e-06
6.48515e-08
5.59221e-06
6.3151e-08
5.59707e-06
6.04145e-08
5.60164e-06
5.70571e-08
5.60592e-06
5.32055e-08
5.60988e-06
4.89847e-08
5.61348e-06
4.45542e-08
5.61675e-06
4.00672e-08
5.61967e-06
3.56168e-08
5.6222e-06
3.12744e-08
5.62435e-06
2.71472e-08
5.62616e-06
2.33045e-08
1.98693e-08
5.62767e-06
5.95278e-06
1.37468e-08
5.95856e-06
3.48965e-08
5.96515e-06
4.84288e-08
5.97175e-06
5.51386e-08
5.97815e-06
5.82752e-08
5.98415e-06
5.88649e-08
5.98968e-06
5.76322e-08
5.99482e-06
5.52909e-08
5.99963e-06
5.22564e-08
6.00411e-06
4.87283e-08
6.00824e-06
4.48547e-08
6.01201e-06
4.07848e-08
6.01543e-06
3.66551e-08
6.01848e-06
3.25668e-08
6.02116e-06
2.85996e-08
6.02347e-06
2.48359e-08
6.02545e-06
2.13316e-08
1.8177e-08
6.02715e-06
6.37925e-06
1.13179e-08
6.38447e-06
2.96609e-08
6.39074e-06
4.21535e-08
6.39722e-06
4.86574e-08
6.40363e-06
5.18674e-08
6.40977e-06
5.2723e-08
6.41554e-06
5.18708e-08
6.42093e-06
4.98995e-08
6.42598e-06
4.72074e-08
6.43069e-06
4.40241e-08
6.43504e-06
4.05133e-08
6.439e-06
3.68156e-08
6.4426e-06
3.30615e-08
6.44582e-06
2.93447e-08
6.44868e-06
2.5749e-08
6.45118e-06
2.23401e-08
6.45335e-06
1.91628e-08
1.62947e-08
6.45524e-06
5.74256e-06
9.58896e-09
5.74657e-06
2.5658e-08
5.7516e-06
3.71262e-08
5.75695e-06
4.33224e-08
5.76232e-06
4.65011e-08
5.76756e-06
4.74926e-08
5.77255e-06
4.68865e-08
5.77726e-06
4.51944e-08
5.78168e-06
4.27857e-08
5.78581e-06
3.98974e-08
5.78963e-06
3.66941e-08
5.79314e-06
3.3319e-08
5.79632e-06
2.98814e-08
5.79918e-06
2.6486e-08
5.80173e-06
2.31979e-08
5.80399e-06
2.00855e-08
5.80598e-06
1.71814e-08
1.455e-08
5.80773e-06
6.99985e-06
7.89815e-09
7.00402e-06
2.14823e-08
7.00945e-06
3.16989e-08
7.01536e-06
3.74137e-08
7.02142e-06
4.04465e-08
7.02742e-06
4.15031e-08
7.0332e-06
4.11053e-08
7.03872e-06
3.96869e-08
7.04393e-06
3.75803e-08
7.04881e-06
3.50174e-08
7.05334e-06
3.21657e-08
7.05752e-06
2.91479e-08
7.06132e-06
2.60817e-08
7.06476e-06
2.30456e-08
7.06786e-06
2.0115e-08
7.07061e-06
1.73355e-08
7.07306e-06
1.47413e-08
1.23844e-08
7.07523e-06
8.5325e-06
6.24643e-09
8.53676e-06
1.72151e-08
8.54252e-06
2.59322e-08
8.54897e-06
3.09615e-08
8.55571e-06
3.37095e-08
8.56248e-06
3.47361e-08
8.56909e-06
3.44935e-08
8.57545e-06
3.33303e-08
8.5815e-06
3.15381e-08
8.58719e-06
2.93285e-08
8.5925e-06
2.68586e-08
8.59742e-06
2.42435e-08
8.60192e-06
2.15843e-08
8.60601e-06
1.89548e-08
8.60972e-06
1.64172e-08
8.61305e-06
1.40117e-08
8.61603e-06
1.17651e-08
9.72028e-09
8.6187e-06
1.04008e-05
4.63594e-09
1.04051e-05
1.29238e-08
1.04112e-05
1.98822e-08
1.04181e-05
2.39968e-08
1.04255e-05
2.62934e-08
1.04331e-05
2.7183e-08
1.04406e-05
2.70177e-08
1.04478e-05
2.60845e-08
1.04547e-05
2.4606e-08
1.04613e-05
2.27746e-08
1.04675e-05
2.07146e-08
1.04732e-05
1.8541e-08
1.04784e-05
1.63246e-08
1.04832e-05
1.41422e-08
1.04876e-05
1.20331e-08
1.04916e-05
1.00398e-08
1.04952e-05
8.17498e-09
6.48008e-09
1.04984e-05
1.26784e-05
3.05493e-09
1.26827e-05
8.61012e-09
1.2689e-05
1.35755e-08
1.26964e-05
1.65282e-08
1.27045e-05
1.81926e-08
1.27129e-05
1.88107e-08
1.27213e-05
1.86427e-08
1.27295e-05
1.78885e-08
1.27374e-05
1.67211e-08
1.27449e-05
1.52729e-08
1.27519e-05
1.36576e-08
1.27585e-05
1.19489e-08
1.27647e-05
1.02205e-08
1.27703e-05
8.51577e-09
1.27754e-05
6.87843e-09
1.27801e-05
5.32984e-09
1.27844e-05
3.88823e-09
2.58059e-09
1.27883e-05
1.54548e-05
1.46978e-09
1.54592e-05
4.19932e-09
1.54658e-05
6.94536e-09
1.54738e-05
8.49273e-09
1.54827e-05
9.32472e-09
1.5492e-05
9.53593e-09
1.55014e-05
9.26809e-09
1.55106e-05
8.64356e-09
1.55196e-05
7.76278e-09
1.55281e-05
6.71046e-09
1.55362e-05
5.55479e-09
1.55439e-05
4.35014e-09
1.55509e-05
3.13998e-09
1.55575e-05
1.95727e-09
1.55635e-05
8.27602e-10
1.55691e-05
-2.32139e-10
1.55742e-05
-1.21208e-09
-2.08858e-09
1.55789e-05
1.88393e-05
-1.95373e-10
1.8844e-05
-5.35668e-10
1.88513e-05
-2.77015e-10
1.88602e-05
-3.86327e-10
1.88701e-05
-5.80536e-10
1.88805e-05
-9.08575e-10
1.88912e-05
-1.35662e-09
1.89017e-05
-1.89361e-09
1.8912e-05
-2.49472e-09
1.89218e-05
-3.13639e-09
1.89312e-05
-3.79791e-09
1.894e-05
-4.4594e-09
1.89482e-05
-5.10416e-09
1.89559e-05
-5.71805e-09
1.8963e-05
-6.29019e-09
1.89696e-05
-6.81285e-09
1.89757e-05
-7.2821e-09
-7.67974e-09
1.89813e-05
2.29653e-05
-2.13406e-09
2.29709e-05
-6.13157e-09
2.29794e-05
-8.804e-09
2.29899e-05
-1.08569e-08
2.30016e-05
-1.22439e-08
2.30139e-05
-1.32025e-08
2.30264e-05
-1.38568e-08
2.30388e-05
-1.42903e-08
2.30509e-05
-1.45587e-08
2.30625e-05
-1.47206e-08
2.30735e-05
-1.48074e-08
2.30839e-05
-1.48449e-08
2.30936e-05
-1.48426e-08
2.31027e-05
-1.48111e-08
2.31112e-05
-1.47519e-08
2.3119e-05
-1.46693e-08
2.31263e-05
-1.45635e-08
-1.44233e-08
2.31331e-05
1.68123e-05
-3.77328e-09
1.6817e-05
-1.07636e-08
1.68239e-05
-1.56696e-08
1.68321e-05
-1.90774e-08
1.68411e-05
-2.1235e-08
1.68505e-05
-2.25531e-08
1.68599e-05
-2.32777e-08
1.68692e-05
-2.3546e-08
1.68781e-05
-2.35061e-08
1.68867e-05
-2.3257e-08
1.68947e-05
-2.28859e-08
1.69023e-05
-2.2434e-08
1.69094e-05
-2.19429e-08
1.6916e-05
-2.14276e-08
1.69222e-05
-2.09077e-08
1.69279e-05
-2.03847e-08
1.69332e-05
-1.98693e-08
-1.93453e-08
1.69382e-05
1.46363e-05
-5.53879e-09
1.46412e-05
-1.56561e-08
1.46482e-05
-2.26292e-08
1.46563e-05
-2.71067e-08
1.46648e-05
-2.97902e-08
1.46736e-05
-3.13135e-08
1.46823e-05
-3.19735e-08
1.46907e-05
-3.19932e-08
1.46988e-05
-3.15778e-08
1.47065e-05
-3.09013e-08
1.47137e-05
-3.0066e-08
1.47204e-05
-2.91455e-08
1.47266e-05
-2.81882e-08
1.47324e-05
-2.72303e-08
1.47378e-05
-2.62887e-08
1.47428e-05
-2.53762e-08
1.47474e-05
-2.44957e-08
-2.36354e-08
1.47517e-05
1.27422e-05
-7.58765e-09
1.27477e-05
-2.11234e-08
1.2755e-05
-2.9927e-08
1.2763e-05
-3.51318e-08
1.27713e-05
-3.81113e-08
1.27797e-05
-3.96809e-08
1.27879e-05
-4.01515e-08
1.27957e-05
-3.98138e-08
1.28031e-05
-3.89666e-08
1.281e-05
-3.78241e-08
1.28165e-05
-3.65157e-08
1.28225e-05
-3.51309e-08
1.2828e-05
-3.3729e-08
1.28332e-05
-3.23537e-08
1.28379e-05
-3.10242e-08
1.28423e-05
-2.97592e-08
1.28464e-05
-2.8564e-08
-2.74229e-08
1.28501e-05
1.10935e-05
-1.01088e-08
1.10998e-05
-2.74161e-08
1.11075e-05
-3.7671e-08
1.11156e-05
-4.31948e-08
1.11237e-05
-4.62693e-08
1.11318e-05
-4.77401e-08
1.11396e-05
-4.78933e-08
1.11469e-05
-4.71153e-08
1.11537e-05
-4.57864e-08
1.116e-05
-4.41494e-08
1.11659e-05
-4.23526e-08
1.11712e-05
-4.05036e-08
1.11762e-05
-3.86775e-08
1.11807e-05
-3.69054e-08
1.11849e-05
-3.52135e-08
1.11888e-05
-3.36183e-08
1.11924e-05
-3.21262e-08
-3.07064e-08
1.11956e-05
9.65846e-06
-1.33581e-08
9.66581e-06
-3.47569e-08
9.67395e-06
-4.57982e-08
9.68202e-06
-5.12646e-08
9.69005e-06
-5.42955e-08
9.69785e-06
-5.5538e-08
9.70521e-06
-5.52484e-08
9.71206e-06
-5.39563e-08
9.71839e-06
-5.21141e-08
9.72422e-06
-4.99739e-08
9.72954e-06
-4.76742e-08
9.7344e-06
-4.53578e-08
9.73885e-06
-4.31251e-08
9.74293e-06
-4.09845e-08
9.74668e-06
-3.89562e-08
9.75014e-06
-3.70798e-08
9.75335e-06
-3.53313e-08
-3.36684e-08
9.75631e-06
8.40965e-06
-1.76548e-08
8.41822e-06
-4.33214e-08
8.42665e-06
-5.42331e-08
8.43471e-06
-5.9316e-08
8.44264e-06
-6.22287e-08
8.45024e-06
-6.31274e-08
8.4573e-06
-6.23015e-08
8.46378e-06
-6.04407e-08
8.46972e-06
-5.80512e-08
8.47515e-06
-5.53945e-08
8.48009e-06
-5.26108e-08
8.48455e-06
-4.98131e-08
8.48859e-06
-4.71678e-08
8.49227e-06
-4.46633e-08
8.49563e-06
-4.23145e-08
8.49874e-06
-4.0184e-08
8.50164e-06
-3.82224e-08
-3.63773e-08
8.50435e-06
7.32306e-06
-2.34263e-08
7.33301e-06
-5.32734e-08
7.34181e-06
-6.30292e-08
7.35004e-06
-6.75462e-08
7.35808e-06
-7.02645e-08
7.36565e-06
-7.06943e-08
7.37261e-06
-6.92575e-08
7.37898e-06
-6.68075e-08
7.38477e-06
-6.38387e-08
7.39e-06
-6.06206e-08
7.39475e-06
-5.73594e-08
7.39905e-06
-5.41106e-08
7.40289e-06
-5.09984e-08
7.40631e-06
-4.80842e-08
7.40941e-06
-4.54152e-08
7.41224e-06
-4.30077e-08
7.41482e-06
-4.08055e-08
-3.87844e-08
7.41724e-06
6.37844e-06
-3.17983e-08
6.39014e-06
-6.4974e-08
6.40003e-06
-7.29197e-08
6.40936e-06
-7.68821e-08
6.41833e-06
-7.92273e-08
6.42662e-06
-7.89771e-08
6.43415e-06
-7.67877e-08
6.44099e-06
-7.36419e-08
6.44716e-06
-7.00091e-08
6.45262e-06
-6.60802e-08
6.45742e-06
-6.21448e-08
6.46174e-06
-5.84317e-08
6.46546e-06
-5.47216e-08
6.46862e-06
-5.1242e-08
6.4714e-06
-4.81919e-08
6.47381e-06
-4.54096e-08
6.47586e-06
-4.28563e-08
-4.05344e-08
6.47762e-06
5.56134e-06
-4.76717e-08
5.57765e-06
-8.12898e-08
5.59212e-06
-8.73846e-08
5.60596e-06
-9.07224e-08
5.61867e-06
-9.19332e-08
5.62983e-06
-9.01371e-08
5.6394e-06
-8.63556e-08
5.64739e-06
-8.16307e-08
5.65386e-06
-7.6479e-08
5.65887e-06
-7.10821e-08
5.66243e-06
-6.56966e-08
5.66485e-06
-6.08478e-08
5.66613e-06
-5.60054e-08
5.66643e-06
-5.15319e-08
5.66599e-06
-4.77565e-08
5.66491e-06
-4.43259e-08
5.66335e-06
-4.12929e-08
-3.88689e-08
5.66169e-06
4.87931e-06
-9.93735e-08
4.91538e-06
-1.17359e-07
4.94105e-06
-1.13055e-07
4.95762e-06
-1.07293e-07
4.96595e-06
-1.00261e-07
4.96729e-06
-9.14776e-08
4.96297e-06
-8.20329e-08
4.95415e-06
-7.28101e-08
4.94189e-06
-6.42162e-08
4.92707e-06
-5.62516e-08
4.91039e-06
-4.90112e-08
4.89249e-06
-4.29381e-08
4.87382e-06
-3.73321e-08
4.85472e-06
-3.24276e-08
4.83564e-06
-2.86771e-08
4.81699e-06
-2.56702e-08
4.79894e-06
-2.32438e-08
-2.17806e-08
4.78186e-06
4.1033e-06
3.98594e-06
3.87289e-06
3.7656e-06
3.66533e-06
3.57386e-06
3.49182e-06
3.41901e-06
3.3548e-06
3.29855e-06
3.24954e-06
3.2066e-06
3.16927e-06
3.13684e-06
3.10817e-06
3.0825e-06
3.05925e-06
3.03747e-06
-8.18313e-09
8.19658e-09
-2.20927e-08
1.39498e-08
-3.76796e-08
1.55994e-08
-5.17101e-08
1.40705e-08
-5.95216e-08
7.81409e-09
-5.49956e-08
-4.4687e-09
-3.53811e-08
-1.96362e-08
-2.34182e-09
-3.2976e-08
4.00588e-08
-4.24359e-08
8.75851e-08
-4.74777e-08
1.3552e-07
-4.79734e-08
1.80744e-07
-4.5191e-08
2.20928e-07
-4.02205e-08
2.54827e-07
-3.38719e-08
2.81507e-07
-2.6715e-08
3.00611e-07
-1.90817e-08
3.11716e-07
-1.11374e-08
3.14605e-07
-2.87528e-09
3.08964e-07
5.61262e-09
2.94991e-07
1.39804e-08
2.73175e-07
2.1786e-08
2.44539e-07
2.86402e-08
2.10386e-07
3.41262e-08
1.72612e-07
3.77876e-08
1.33433e-07
3.91464e-08
9.56095e-08
3.78543e-08
6.17195e-08
3.38477e-08
3.41225e-08
2.76401e-08
1.37263e-08
2.03451e-08
4.96393e-10
1.32646e-08
-6.88309e-09
7.30127e-09
-9.11052e-09
2.2437e-09
-6.42185e-09
-2.8128e-09
2.57217e-09
-8.97381e-09
1.9804e-08
-1.74257e-08
4.77734e-08
-2.79184e-08
8.33102e-08
-3.5723e-08
1.20643e-07
-3.72487e-08
1.52786e-07
-3.23012e-08
1.76019e-07
-2.31384e-08
1.88209e-07
-1.23092e-08
1.90462e-07
-2.17853e-09
1.85196e-07
5.17473e-09
1.7655e-07
8.7002e-09
1.68344e-07
8.06129e-09
1.63816e-07
4.63463e-09
1.57781e-07
5.71676e-09
1.41945e-07
1.60736e-08
1.08084e-07
3.33746e-08
5.11533e-08
5.71909e-08
-3.11331e-08
8.17601e-08
-1.32887e-07
1.01933e-07
-2.51233e-07
1.17972e-07
-3.8221e-07
1.31027e-07
-5.23561e-07
1.41014e-07
-6.68462e-07
1.44876e-07
-8.12725e-07
1.43981e-07
-9.53608e-07
1.40833e-07
-1.0887e-06
1.34836e-07
-1.21604e-06
1.27286e-07
-1.33426e-06
1.1801e-07
-1.44281e-06
1.08503e-07
-1.54304e-06
1.00039e-07
-1.63384e-06
9.07507e-08
-1.71657e-06
8.25468e-08
-1.79257e-06
7.59732e-08
-1.86226e-06
6.95492e-08
-1.92637e-06
6.40891e-08
-1.98577e-06
5.92821e-08
-2.04087e-06
5.51042e-08
-2.09244e-06
5.14626e-08
-2.14073e-06
4.83021e-08
-2.18634e-06
4.55261e-08
-2.2294e-06
4.31006e-08
-2.27039e-06
4.09309e-08
-2.30932e-06
3.90123e-08
-2.34659e-06
3.72555e-08
-2.38216e-06
3.5669e-08
-2.41637e-06
3.4173e-08
-2.44909e-06
3.27998e-08
-2.48062e-06
3.14745e-08
-2.5108e-06
3.02293e-08
-2.53989e-06
2.89977e-08
-2.5677e-06
2.78184e-08
-2.59442e-06
2.66347e-08
-2.61992e-06
2.54786e-08
-2.64433e-06
2.43151e-08
-2.66757e-06
2.31693e-08
-2.68971e-06
2.20071e-08
-2.71069e-06
2.08402e-08
-2.73042e-06
1.96286e-08
-2.74884e-06
1.83895e-08
-2.76595e-06
1.71052e-08
-2.78174e-06
1.57899e-08
-2.79618e-06
1.44323e-08
-2.80923e-06
1.30393e-08
-2.82087e-06
1.16021e-08
-2.83103e-06
1.01177e-08
-2.83967e-06
8.57612e-09
-2.84672e-06
6.9591e-09
-2.85209e-06
5.25882e-09
-2.85571e-06
3.46184e-09
-2.8575e-06
1.62687e-09
-2.85757e-06
-1.51508e-10
-2.85605e-06
-1.71884e-09
-2.85312e-06
-3.15503e-09
-2.84875e-06
-4.54304e-09
-2.84298e-06
-5.94867e-09
-2.83575e-06
-7.34466e-09
-2.8271e-06
-8.77521e-09
-2.81697e-06
-1.02013e-08
-2.80538e-06
-1.16638e-08
-2.79228e-06
-1.31203e-08
-2.77771e-06
-1.46095e-08
-2.7616e-06
-1.60896e-08
-2.744e-06
-1.75988e-08
-2.72485e-06
-1.91004e-08
-2.70418e-06
-2.06269e-08
-2.68194e-06
-2.21439e-08
-2.65818e-06
-2.36737e-08
-2.6329e-06
-2.51924e-08
-2.60614e-06
-2.6715e-08
-2.57785e-06
-2.82194e-08
-2.54807e-06
-2.9716e-08
-2.51678e-06
-3.11835e-08
-2.48403e-06
-3.26315e-08
-2.44983e-06
-3.40474e-08
-2.41423e-06
-3.543e-08
-2.37728e-06
-3.67807e-08
-2.33899e-06
-3.80988e-08
-2.29944e-06
-3.93739e-08
-2.25864e-06
-4.06018e-08
-2.21669e-06
-4.17947e-08
-2.1736e-06
-4.29167e-08
-2.1295e-06
-4.40002e-08
-2.0844e-06
-4.4984e-08
-2.03846e-06
-4.59212e-08
-1.99176e-06
-4.67045e-08
-1.94429e-06
-4.75951e-08
-1.89598e-06
-4.85174e-08
-1.84694e-06
-4.92916e-08
-1.79726e-06
-4.99549e-08
-1.74701e-06
-5.05117e-08
-1.69631e-06
-5.09788e-08
-1.64522e-06
-5.1361e-08
-1.59382e-06
-5.16684e-08
-1.54217e-06
-5.18986e-08
-1.49036e-06
-5.20603e-08
-1.43843e-06
-5.21515e-08
-1.38646e-06
-5.21812e-08
-1.3345e-06
-5.21483e-08
-1.28261e-06
-5.20624e-08
-1.23084e-06
-5.1923e-08
-1.17924e-06
-5.17392e-08
-1.12784e-06
-5.15096e-08
-1.0767e-06
-5.12418e-08
-1.02583e-06
-5.09365e-08
-9.75276e-07
-5.06027e-08
-9.25056e-07
-5.02458e-08
-8.75166e-07
-4.98783e-08
-8.25627e-07
-4.95104e-08
-7.76399e-07
-4.91549e-08
-7.27491e-07
-4.88218e-08
-6.78839e-07
-4.85211e-08
-6.30439e-07
-4.82605e-08
-5.82213e-07
-4.80425e-08
-5.34158e-07
-4.78707e-08
-4.86183e-07
-4.77475e-08
-4.38288e-07
-4.76755e-08
-3.90374e-07
-4.76539e-08
-3.4244e-07
-4.76896e-08
-2.94396e-07
-4.77587e-08
-2.46298e-07
-4.78333e-08
-1.98087e-07
-4.7908e-08
-1.49927e-07
-4.78816e-08
-1.02138e-07
-4.74799e-08
-5.52221e-08
-4.66361e-08
-1.08367e-08
-4.40894e-08
3.11177e-08
-4.16966e-08
-2.06019e-08
5.19101e-08
-3.62258e-09
1.18344e-08
-9.78475e-09
2.01659e-08
-1.35139e-08
1.93319e-08
-8.45351e-09
9.07918e-09
1.08067e-08
-1.14568e-08
4.44296e-08
-3.80442e-08
8.88161e-08
-6.4041e-08
1.39099e-07
-8.32322e-08
1.90052e-07
-9.34075e-08
2.37954e-07
-9.53596e-08
2.80966e-07
-9.10026e-08
3.18266e-07
-8.2476e-08
3.49544e-07
-7.15152e-08
3.7498e-07
-5.92971e-08
3.94801e-07
-4.65526e-08
4.09419e-07
-3.36921e-08
4.19183e-07
-2.09181e-08
4.24656e-07
-8.34635e-09
4.26203e-07
4.04817e-09
4.23815e-07
1.63647e-08
4.17012e-07
2.85704e-08
4.05196e-07
4.045e-08
3.87736e-07
5.15667e-08
3.64253e-07
6.12685e-08
3.34656e-07
6.8722e-08
2.99492e-07
7.30201e-08
2.59948e-07
7.3362e-08
2.18239e-07
6.93639e-08
1.77322e-07
6.12188e-08
1.40969e-07
4.9632e-08
1.12749e-07
3.54357e-08
9.5665e-08
1.93293e-08
9.10985e-08
1.60779e-09
9.88975e-08
-1.67826e-08
1.17625e-07
-3.63038e-08
1.42902e-07
-5.31687e-08
1.67501e-07
-6.04348e-08
1.85852e-07
-5.55363e-08
1.95042e-07
-4.15714e-08
1.95349e-07
-2.33598e-08
1.87308e-07
-4.34927e-09
1.73013e-07
1.22082e-08
1.53702e-07
2.43076e-08
1.25679e-07
3.68334e-08
7.87311e-08
5.46371e-08
4.55062e-09
7.88128e-08
-1.00996e-07
1.10942e-07
-2.31125e-07
1.46174e-07
-3.77441e-07
1.79537e-07
-5.30908e-07
2.10619e-07
-6.8697e-07
2.37733e-07
-8.43128e-07
2.58071e-07
-9.96475e-07
2.71234e-07
-1.14308e-06
2.77589e-07
-1.27922e-06
2.77054e-07
-1.40395e-06
2.69543e-07
-1.51662e-06
2.56541e-07
-1.61641e-06
2.40556e-07
-1.70449e-06
2.22805e-07
-1.78195e-06
2.04681e-07
-1.85085e-06
1.86821e-07
-1.91236e-06
1.69955e-07
-1.96714e-06
1.54734e-07
-2.01724e-06
1.40794e-07
-2.06323e-06
1.28458e-07
-2.10524e-06
1.17934e-07
-2.14446e-06
1.08712e-07
-2.18117e-06
1.00763e-07
-2.21581e-06
9.38674e-08
-2.24861e-06
8.78815e-08
-2.27985e-06
8.26542e-08
-2.30964e-06
7.80691e-08
-2.33816e-06
7.40074e-08
-2.36545e-06
7.03898e-08
-2.39166e-06
6.71226e-08
-2.41677e-06
6.4154e-08
-2.44092e-06
6.14088e-08
-2.46408e-06
5.88568e-08
-2.48635e-06
5.64397e-08
-2.50767e-06
5.41446e-08
-2.52814e-06
5.19224e-08
-2.54768e-06
4.97689e-08
-2.56636e-06
4.76437e-08
-2.58411e-06
4.55487e-08
-2.60097e-06
4.34519e-08
-2.61689e-06
4.13599e-08
-2.63187e-06
3.92518e-08
-2.6459e-06
3.71296e-08
-2.65896e-06
3.49882e-08
-2.67103e-06
3.2794e-08
-2.68202e-06
3.05548e-08
-2.69191e-06
2.82542e-08
-2.70071e-06
2.58942e-08
-2.70841e-06
2.34827e-08
-2.71501e-06
2.10184e-08
-2.72049e-06
1.85046e-08
-2.72486e-06
1.59381e-08
-2.72811e-06
1.33204e-08
-2.73025e-06
1.06527e-08
-2.73131e-06
7.94626e-09
-2.73137e-06
5.21884e-09
-2.73052e-06
2.49486e-09
-2.72885e-06
-2.04089e-10
-2.72627e-06
-2.88127e-09
-2.7226e-06
-5.56858e-09
-2.71763e-06
-8.27966e-09
-2.71131e-06
-1.10056e-08
-2.70362e-06
-1.37553e-08
-2.69454e-06
-1.65299e-08
-2.68405e-06
-1.93387e-08
-2.67215e-06
-2.21765e-08
-2.6588e-06
-2.505e-08
-2.644e-06
-2.79489e-08
-2.62774e-06
-3.08785e-08
-2.61001e-06
-3.38265e-08
-2.59079e-06
-3.68003e-08
-2.57008e-06
-3.97882e-08
-2.54787e-06
-4.27939e-08
-2.52415e-06
-4.5803e-08
-2.49894e-06
-4.88181e-08
-2.47225e-06
-5.18239e-08
-2.4441e-06
-5.48232e-08
-2.41449e-06
-5.77965e-08
-2.38341e-06
-6.07423e-08
-2.35088e-06
-6.36409e-08
-2.31693e-06
-6.64945e-08
-2.28159e-06
-6.92878e-08
-2.24488e-06
-7.20216e-08
-2.20685e-06
-7.46859e-08
-2.16754e-06
-7.72788e-08
-2.127e-06
-7.97843e-08
-2.08528e-06
-8.22006e-08
-2.04243e-06
-8.45241e-08
-1.99851e-06
-8.67407e-08
-1.95356e-06
-8.88598e-08
-1.90763e-06
-9.08627e-08
-1.86077e-06
-9.27513e-08
-1.813e-06
-9.45176e-08
-1.76445e-06
-9.62376e-08
-1.71525e-06
-9.78782e-08
-1.66539e-06
-9.93274e-08
-1.61495e-06
-1.00594e-07
-1.56398e-06
-1.01662e-07
-1.51259e-06
-1.02566e-07
-1.46083e-06
-1.03298e-07
-1.4088e-06
-1.03887e-07
-1.35656e-06
-1.04319e-07
-1.30417e-06
-1.0462e-07
-1.2517e-06
-1.0478e-07
-1.1992e-06
-1.04819e-07
-1.14675e-06
-1.04736e-07
-1.09438e-06
-1.04549e-07
-1.04215e-06
-1.04261e-07
-9.90093e-07
-1.03885e-07
-9.38252e-07
-1.0343e-07
-8.86653e-07
-1.02899e-07
-8.35329e-07
-1.02306e-07
-7.84297e-07
-1.01655e-07
-7.33579e-07
-1.00971e-07
-6.83169e-07
-1.00263e-07
-6.33072e-07
-9.95694e-08
-5.83256e-07
-9.88959e-08
-5.33709e-07
-9.8285e-08
-4.84373e-07
-9.77344e-08
-4.35222e-07
-9.7284e-08
-3.86184e-07
-9.6915e-08
-3.37229e-07
-9.66595e-08
-2.88277e-07
-9.6497e-08
-2.39297e-07
-9.64585e-08
-1.90201e-07
-9.65187e-08
-1.40956e-07
-9.67127e-08
-9.1481e-08
-9.69804e-08
-4.17873e-08
-9.72867e-08
8.06278e-09
-9.74906e-08
5.78925e-08
-9.74621e-08
1.07625e-07
-9.69457e-08
1.56869e-07
-9.56381e-08
2.05425e-07
-9.23978e-08
2.50128e-07
-8.61801e-08
-6.45595e-08
2.94272e-07
5.55517e-10
1.1284e-08
4.20801e-09
1.65474e-08
1.64738e-08
7.06646e-09
4.55474e-08
-1.9965e-08
9.20671e-08
-5.79848e-08
1.48484e-07
-9.44403e-08
2.04674e-07
-1.20243e-07
2.54345e-07
-1.32888e-07
2.9515e-07
-1.34224e-07
3.27384e-07
-1.27581e-07
3.52396e-07
-1.16025e-07
3.71726e-07
-1.01797e-07
3.86533e-07
-8.63331e-08
3.97705e-07
-7.0463e-08
4.05777e-07
-5.4635e-08
4.11165e-07
-3.90768e-08
4.1413e-07
-2.38946e-08
4.14931e-07
-9.14852e-09
4.13818e-07
5.14705e-09
4.11151e-07
1.90271e-08
4.07178e-07
3.25274e-08
4.01975e-07
4.56446e-08
3.95267e-07
5.82554e-08
3.8647e-07
7.00548e-08
3.74671e-07
8.04957e-08
3.58912e-07
8.87655e-08
3.38421e-07
9.38224e-08
3.13223e-07
9.45473e-08
2.84426e-07
8.99801e-08
2.5447e-07
7.95699e-08
2.26508e-07
6.33453e-08
2.03862e-07
4.19512e-08
1.88686e-07
1.67031e-08
1.82108e-07
-1.02217e-08
1.80972e-07
-3.5246e-08
1.77882e-07
-5.00624e-08
1.67246e-07
-4.98499e-08
1.48828e-07
-3.70755e-08
1.23189e-07
-1.59849e-08
9.06457e-08
9.2495e-09
4.8873e-08
3.7328e-08
-6.91439e-09
6.80135e-08
-8.34013e-08
1.00682e-07
-1.83654e-07
1.37037e-07
-3.06502e-07
1.77397e-07
-4.47111e-07
2.1937e-07
-5.96384e-07
2.60143e-07
-7.47076e-07
2.96829e-07
-8.94559e-07
3.26962e-07
-1.03357e-06
3.496e-07
-1.16036e-06
3.64478e-07
-1.27357e-06
3.71249e-07
-1.37272e-06
3.70338e-07
-1.45775e-06
3.62582e-07
-1.5298e-06
3.49038e-07
-1.5913e-06
3.30996e-07
-1.64493e-06
3.10099e-07
-1.69243e-06
2.88005e-07
-1.73553e-06
2.6584e-07
-1.77539e-06
2.44485e-07
-1.81306e-06
2.24432e-07
-1.84913e-06
2.05986e-07
-1.88377e-06
1.89327e-07
-1.91742e-06
1.74403e-07
-1.9502e-06
1.61189e-07
-1.9819e-06
1.4961e-07
-2.01267e-06
1.39442e-07
-2.04246e-06
1.30531e-07
-2.07131e-06
1.22695e-07
-2.09924e-06
1.15785e-07
-2.12628e-06
1.09659e-07
-2.15243e-06
1.04196e-07
-2.17773e-06
9.92855e-08
-2.20219e-06
9.48365e-08
-2.22584e-06
9.07647e-08
-2.24869e-06
8.7004e-08
-2.27077e-06
8.34866e-08
-2.29207e-06
8.01654e-08
-2.31263e-06
7.69908e-08
-2.33241e-06
7.39299e-08
-2.35144e-06
7.09439e-08
-2.36969e-06
6.80094e-08
-2.38717e-06
6.5097e-08
-2.40383e-06
6.21916e-08
-2.41968e-06
5.92716e-08
-2.43467e-06
5.63279e-08
-2.4488e-06
5.33483e-08
-2.46204e-06
5.033e-08
-2.47438e-06
4.72581e-08
-2.48579e-06
4.41316e-08
-2.49621e-06
4.09252e-08
-2.50562e-06
3.76391e-08
-2.51402e-06
3.42797e-08
-2.5214e-06
3.0848e-08
-2.52776e-06
2.73524e-08
-2.53307e-06
2.3794e-08
-2.53735e-06
2.01767e-08
-2.54058e-06
1.65047e-08
-2.54277e-06
1.27837e-08
-2.54392e-06
9.02683e-09
-2.54403e-06
5.24336e-09
-2.54308e-06
1.44799e-09
-2.54104e-06
-2.36841e-09
-2.53783e-06
-6.21504e-09
-2.53341e-06
-1.01217e-08
-2.52772e-06
-1.40764e-08
-2.52075e-06
-1.80832e-08
-2.51245e-06
-2.21298e-08
-2.50283e-06
-2.62306e-08
-2.49184e-06
-3.03755e-08
-2.47949e-06
-3.45767e-08
-2.46574e-06
-3.88216e-08
-2.4506e-06
-4.31178e-08
-2.43403e-06
-4.74509e-08
-2.41604e-06
-5.18256e-08
-2.39659e-06
-5.62287e-08
-2.3757e-06
-6.06614e-08
-2.35335e-06
-6.51099e-08
-2.32954e-06
-6.95709e-08
-2.30427e-06
-7.40326e-08
-2.27758e-06
-7.84882e-08
-2.24945e-06
-8.29251e-08
-2.21989e-06
-8.73299e-08
-2.18891e-06
-9.16853e-08
-2.15652e-06
-9.59783e-08
-2.12275e-06
-1.00198e-07
-2.08763e-06
-1.04333e-07
-2.05119e-06
-1.08375e-07
-2.01347e-06
-1.12314e-07
-1.97451e-06
-1.16142e-07
-1.93436e-06
-1.19842e-07
-1.89306e-06
-1.23408e-07
-1.85066e-06
-1.26831e-07
-1.80723e-06
-1.301e-07
-1.76281e-06
-1.33217e-07
-1.71746e-06
-1.36177e-07
-1.67123e-06
-1.38964e-07
-1.62418e-06
-1.41588e-07
-1.57643e-06
-1.44067e-07
-1.52803e-06
-1.46371e-07
-1.47903e-06
-1.48438e-07
-1.42947e-06
-1.50243e-07
-1.37944e-06
-1.51786e-07
-1.32899e-06
-1.53081e-07
-1.27823e-06
-1.54141e-07
-1.2272e-06
-1.54977e-07
-1.17599e-06
-1.55598e-07
-1.12465e-06
-1.56013e-07
-1.07325e-06
-1.56233e-07
-1.02184e-06
-1.56268e-07
-9.70486e-07
-1.56132e-07
-9.19225e-07
-1.5584e-07
-8.68103e-07
-1.5541e-07
-8.17155e-07
-1.54854e-07
-7.66412e-07
-1.5419e-07
-7.159e-07
-1.53425e-07
-6.6564e-07
-1.52575e-07
-6.15648e-07
-1.51652e-07
-5.65933e-07
-1.50686e-07
-5.16493e-07
-1.497e-07
-4.67317e-07
-1.48737e-07
-4.18382e-07
-1.47822e-07
-3.69653e-07
-1.46999e-07
-3.21087e-07
-1.46287e-07
-2.72632e-07
-1.45721e-07
-2.24231e-07
-1.453e-07
-1.75829e-07
-1.45044e-07
-1.27361e-07
-1.44949e-07
-7.877e-08
-1.45034e-07
-2.99905e-08
-1.45286e-07
1.90146e-08
-1.45708e-07
6.82948e-08
-1.46255e-07
1.17906e-07
-1.46895e-07
1.67893e-07
-1.4748e-07
2.18231e-07
-1.47804e-07
2.68809e-07
-1.47529e-07
3.19348e-07
-1.46183e-07
3.69626e-07
-1.4268e-07
4.1874e-07
-1.35301e-07
-1.15594e-07
4.69754e-07
-2.105e-10
1.14917e-08
1.09761e-08
5.37711e-09
4.57585e-08
-2.77278e-08
1.0378e-07
-7.79678e-08
1.69895e-07
-1.24112e-07
2.29144e-07
-1.53675e-07
2.74432e-07
-1.65542e-07
3.05692e-07
-1.64137e-07
3.26033e-07
-1.54577e-07
3.39111e-07
-1.4065e-07
3.4769e-07
-1.24614e-07
3.53563e-07
-1.07663e-07
3.57631e-07
-9.04101e-08
3.60351e-07
-7.31787e-08
3.61857e-07
-5.61496e-08
3.62222e-07
-3.94388e-08
3.61446e-07
-2.31289e-08
3.59587e-07
-7.28904e-09
3.56686e-07
8.03619e-09
3.52893e-07
2.28159e-08
3.48392e-07
3.70132e-08
3.43431e-07
5.05971e-08
3.38161e-07
6.35025e-08
3.32623e-07
7.55776e-08
3.26562e-07
8.65272e-08
3.19447e-07
9.58565e-08
3.10461e-07
1.02769e-07
2.98796e-07
1.06181e-07
2.83902e-07
1.04823e-07
2.65986e-07
9.74491e-08
2.45962e-07
8.33062e-08
2.25572e-07
6.23069e-08
2.06271e-07
3.59253e-08
1.87211e-07
8.82171e-09
1.62003e-07
-1.01049e-08
1.26192e-07
-1.42338e-08
8.06544e-08
-4.36774e-09
2.70348e-08
1.65731e-08
-3.65906e-08
4.7591e-08
-1.13865e-07
8.6528e-08
-2.07016e-07
1.30434e-07
-3.15986e-07
1.76963e-07
-4.39455e-07
2.24102e-07
-5.72872e-07
2.70428e-07
-7.10215e-07
3.14693e-07
-8.45557e-07
3.54688e-07
-9.73174e-07
3.87719e-07
-1.08861e-06
4.1225e-07
-1.19001e-06
4.28328e-07
-1.27657e-06
4.36137e-07
-1.34846e-06
4.36335e-07
-1.40711e-06
4.29873e-07
-1.45463e-06
4.17818e-07
-1.49344e-06
4.01355e-07
-1.52614e-06
3.81686e-07
-1.55516e-06
3.59965e-07
-1.5824e-06
3.37286e-07
-1.60901e-06
3.14569e-07
-1.63571e-06
2.92491e-07
-1.6628e-06
2.71527e-07
-1.69036e-06
2.51956e-07
-1.71833e-06
2.33926e-07
-1.74654e-06
2.17499e-07
-1.77481e-06
2.02655e-07
-1.80298e-06
1.89335e-07
-1.83083e-06
1.77443e-07
-1.85825e-06
1.6684e-07
-1.88512e-06
1.57386e-07
-1.91139e-06
1.48943e-07
-1.937e-06
1.41381e-07
-1.96194e-06
1.34581e-07
-1.9862e-06
1.28432e-07
-2.00977e-06
1.22833e-07
-2.03264e-06
1.17698e-07
-2.05484e-06
1.12945e-07
-2.07635e-06
1.08504e-07
-2.09718e-06
1.04311e-07
-2.11733e-06
1.0031e-07
-2.1368e-06
9.64539e-08
-2.15558e-06
9.27e-08
-2.17365e-06
8.90105e-08
-2.19101e-06
8.53545e-08
-2.20763e-06
8.17035e-08
-2.2235e-06
7.80357e-08
-2.23858e-06
7.4331e-08
-2.25285e-06
7.05762e-08
-2.26628e-06
6.67598e-08
-2.27886e-06
6.28748e-08
-2.29056e-06
5.89191e-08
-2.30137e-06
5.48679e-08
-2.31122e-06
5.07328e-08
-2.32011e-06
4.64945e-08
-2.32801e-06
4.21641e-08
-2.33494e-06
3.77452e-08
-2.34086e-06
3.32471e-08
-2.34577e-06
2.86737e-08
-2.34967e-06
2.40296e-08
-2.35254e-06
1.93219e-08
-2.35437e-06
1.45539e-08
-2.35514e-06
9.73742e-09
-2.35485e-06
4.87281e-09
-2.35346e-06
-3.28218e-11
-2.35094e-06
-4.99333e-09
-2.34724e-06
-1.00136e-08
-2.34235e-06
-1.51106e-08
-2.33625e-06
-2.02746e-08
-2.3289e-06
-2.55119e-08
-2.32028e-06
-3.08117e-08
-2.31038e-06
-3.61858e-08
-2.29918e-06
-4.16239e-08
-2.28665e-06
-4.71374e-08
-2.27278e-06
-5.27118e-08
-2.25756e-06
-5.83558e-08
-2.24097e-06
-6.40513e-08
-2.22299e-06
-6.98046e-08
-2.20361e-06
-7.5596e-08
-2.18283e-06
-8.14265e-08
-2.16063e-06
-8.72759e-08