/*--------------------------------*- C++ -*----------------------------------*\
  =========                 |
  \\      /  F ield         | OpenFOAM: The Open Source CFD Toolbox
   \\    /   O peration     | Website:  https://openfoam.org
    \\  /    A nd           | Version:  13
     \\/     M anipulation  |
\*---------------------------------------------------------------------------*/
FoamFile
{
    format      ascii;
    class       volVectorField;
    location    "1400";
    object      U;
}
// * * * * * * * * * * * * * * * * * * * * * * * * * * * * * * * * * * * * * //

dimensions      [0 1 -1 0 0 0 0];

internalField   nonuniform List<vector> 
12225
(
(9.79118 0.0545333 0)
(9.35532 0.102074 0)
(8.94884 0.106003 0)
(8.53295 0.104417 0)
(8.16383 0.0949622 0)
(7.85076 0.0732341 0)
(7.59612 0.0543213 0)
(7.36415 0.0477425 0)
(7.15982 0.0528408 0)
(6.98501 0.0559188 0)
(6.83555 0.0445808 0)
(6.71338 0.030354 0)
(6.61029 0.0259854 0)
(6.5184 0.0268762 0)
(6.44382 0.0113338 0)
(6.39412 -0.00334158 0)
(6.364 -0.0112653 0)
(6.35374 -0.00483441 0)
(10.0722 0.0542327 0)
(10.2128 0.0819791 0)
(10.2859 0.0835758 0)
(10.3164 0.0824059 0)
(10.3076 0.0807929 0)
(10.2618 0.0794014 0)
(10.1993 0.0772259 0)
(10.1306 0.0725813 0)
(10.0529 0.0656143 0)
(9.95993 0.0589558 0)
(9.86735 0.0558979 0)
(9.77472 0.0544212 0)
(9.69108 0.0503559 0)
(9.61029 0.044387 0)
(9.53342 0.0402632 0)
(9.46597 0.0347293 0)
(9.39794 0.0258602 0)
(9.33418 0.0144659 0)
(10.0189 0.0419282 0)
(10.0813 0.0671776 0)
(10.1284 0.0717404 0)
(10.1684 0.0780141 0)
(10.205 0.0827392 0)
(10.236 0.0819913 0)
(10.2604 0.0800392 0)
(10.2797 0.0804938 0)
(10.2954 0.0809541 0)
(10.3076 0.0794997 0)
(10.3153 0.0759963 0)
(10.3176 0.0714501 0)
(10.3163 0.0677169 0)
(10.3135 0.0639597 0)
(10.3081 0.0573182 0)
(10.2991 0.0506783 0)
(10.2866 0.0443544 0)
(10.27 0.0370128 0)
(10.0093 0.0307498 0)
(10.0431 0.0566074 0)
(10.0742 0.0642604 0)
(10.0973 0.0704724 0)
(10.1178 0.0744749 0)
(10.1368 0.0742564 0)
(10.1527 0.0722642 0)
(10.1667 0.0712272 0)
(10.1808 0.0705618 0)
(10.1951 0.0686501 0)
(10.209 0.0652527 0)
(10.2213 0.0611627 0)
(10.2326 0.057359 0)
(10.2436 0.0535369 0)
(10.2534 0.0482802 0)
(10.2612 0.0427871 0)
(10.267 0.0373218 0)
(10.2718 0.0320954 0)
(10.0057 0.0243791 0)
(10.0285 0.0500423 0)
(10.0536 0.0599228 0)
(10.0716 0.0655932 0)
(10.0872 0.0691871 0)
(10.1016 0.0695476 0)
(10.1134 0.0682841 0)
(10.1235 0.0674666 0)
(10.1334 0.0667714 0)
(10.1431 0.0651127 0)
(10.1524 0.0623776 0)
(10.1608 0.059056 0)
(10.1686 0.0557491 0)
(10.1761 0.0521526 0)
(10.1829 0.0474079 0)
(10.1884 0.0423053 0)
(10.1927 0.0372137 0)
(10.1962 0.0323948 0)
(10.0031 0.0205378 0)
(10.0212 0.0438336 0)
(10.042 0.0544282 0)
(10.0578 0.0603019 0)
(10.0717 0.0640903 0)
(10.0847 0.0652513 0)
(10.0958 0.0647905 0)
(10.1056 0.0641261 0)
(10.1149 0.063239 0)
(10.1238 0.0615397 0)
(10.1322 0.0590227 0)
(10.1398 0.0559361 0)
(10.1467 0.0525718 0)
(10.1532 0.0487979 0)
(10.1588 0.0442801 0)
(10.1634 0.0395204 0)
(10.1671 0.0348002 0)
(10.1699 0.0303921 0)
(10.0016 0.0172109 0)
(10.0171 0.03812 0)
(10.0342 0.0494203 0)
(10.049 0.0557163 0)
(10.0619 0.0596208 0)
(10.0738 0.0611835 0)
(10.0845 0.0611596 0)
(10.094 0.060642 0)
(10.1031 0.0597533 0)
(10.1117 0.058165 0)
(10.1198 0.0558347 0)
(10.1271 0.0529334 0)
(10.1337 0.0496841 0)
(10.1398 0.0460609 0)
(10.1451 0.0419648 0)
(10.1494 0.0377057 0)
(10.153 0.0334868 0)
(10.1558 0.0295401 0)
(10.0014 0.0140663 0)
(10.0139 0.0331071 0)
(10.0285 0.0447312 0)
(10.0424 0.0511357 0)
(10.0545 0.0550504 0)
(10.0657 0.0568705 0)
(10.076 0.0571879 0)
(10.0853 0.0567885 0)
(10.094 0.0558804 0)
(10.1023 0.05432 0)
(10.11 0.0520986 0)
(10.117 0.0493567 0)
(10.1234 0.0462548 0)
(10.1292 0.0428275 0)
(10.1343 0.0390821 0)
(10.1385 0.0352169 0)
(10.1421 0.0313742 0)
(10.145 0.0277627 0)
(10.0013 0.011603 0)
(10.011 0.0286522 0)
(10.0237 0.0399427 0)
(10.0366 0.0464097 0)
(10.0483 0.0504161 0)
(10.059 0.0524865 0)
(10.069 0.0530819 0)
(10.0781 0.0528123 0)
(10.0866 0.0519231 0)
(10.0946 0.05042 0)
(10.102 0.0483413 0)
(10.1088 0.0457916 0)
(10.115 0.0428976 0)
(10.1205 0.0397247 0)
(10.1254 0.036323 0)
(10.1297 0.032825 0)
(10.1332 0.0293372 0)
(10.1363 0.0260464 0)
(10.001 0.00956472 0)
(10.0086 0.0246539 0)
(10.0196 0.0352558 0)
(10.0314 0.0415863 0)
(10.0425 0.0456233 0)
(10.0528 0.0478628 0)
(10.0625 0.0486946 0)
(10.0715 0.048596 0)
(10.0799 0.0478209 0)
(10.0876 0.0464455 0)
(10.0949 0.0445343 0)
(10.1015 0.0421835 0)
(10.1076 0.039502 0)
(10.113 0.0365692 0)
(10.1178 0.033454 0)
(10.122 0.0302598 0)
(10.1256 0.0270717 0)
(10.1287 0.0240459 0)
(10.0008 0.00788731 0)
(10.0067 0.0210609 0)
(10.0162 0.0308379 0)
(10.0268 0.0368818 0)
(10.0371 0.0408216 0)
(10.0469 0.0431137 0)
(10.0562 0.0440978 0)
(10.065 0.0441478 0)
(10.0732 0.0434987 0)
(10.0809 0.0422629 0)
(10.088 0.0405236 0)
(10.0945 0.0383741 0)
(10.1004 0.0359139 0)
(10.1058 0.0332231 0)
(10.1105 0.0303811 0)
(10.1147 0.0274715 0)
(10.1184 0.0245674 0)
(10.1216 0.0217908 0)
(10.0006 0.00659115 0)
(10.0055 0.0181433 0)
(10.0136 0.0270871 0)
(10.0232 0.032765 0)
(10.0327 0.0365171 0)
(10.042 0.0387605 0)
(10.0509 0.0397944 0)
(10.0594 0.0399179 0)
(10.0674 0.0393499 0)
(10.0748 0.0382208 0)
(10.0818 0.036626 0)
(10.0881 0.034656 0)
(10.094 0.0323988 0)
(10.0992 0.0299367 0)
(10.1039 0.0273421 0)
(10.1081 0.0246914 0)
(10.1118 0.0220395 0)
(10.1151 0.0194891 0)
(10.0005 0.00548796 0)
(10.0045 0.015376 0)
(10.0115 0.0234307 0)
(10.0201 0.0286788 0)
(10.0289 0.0322075 0)
(10.0375 0.0343633 0)
(10.0459 0.0354115 0)
(10.054 0.0356007 0)
(10.0617 0.035125 0)
(10.069 0.0341171 0)
(10.0757 0.0326734 0)
(10.0819 0.0308795 0)
(10.0876 0.0288201 0)
(10.0928 0.0265728 0)
(10.0975 0.024206 0)
(10.1016 0.0217868 0)
(10.1053 0.0193624 0)
(10.1087 0.0170218 0)
(10.0004 0.0044394 0)
(10.0036 0.0125922 0)
(10.0096 0.0195716 0)
(10.0171 0.0242355 0)
(10.0251 0.0274203 0)
(10.0331 0.0293934 0)
(10.0409 0.0303834 0)
(10.0486 0.0305885 0)
(10.0559 0.0301778 0)
(10.0628 0.0292778 0)
(10.0692 0.0279842 0)
(10.0752 0.0263753 0)
(10.0807 0.0245321 0)
(10.0858 0.0225193 0)
(10.0903 0.0204056 0)
(10.0945 0.0182406 0)
(10.0982 0.0160692 0)
(10.1015 0.0139615 0)
(10.0003 0.00342328 0)
(10.003 0.00979002 0)
(10.008 0.015517 0)
(10.0145 0.019428 0)
(10.0216 0.0221349 0)
(10.0289 0.0238214 0)
(10.0361 0.0246722 0)
(10.0432 0.0248433 0)
(10.0501 0.0244707 0)
(10.0566 0.0236676 0)
(10.0627 0.0225198 0)
(10.0684 0.0211029 0)
(10.0737 0.0194814 0)
(10.0785 0.01772 0)
(10.083 0.0158687 0)
(10.087 0.0139757 0)
(10.0906 0.0120715 0)
(10.0939 0.0102178 0)
(10.0002 0.00242565 0)
(10.0024 0.00697318 0)
(10.0066 0.0112882 0)
(10.0122 0.0142678 0)
(10.0185 0.0163491 0)
(10.0251 0.0176339 0)
(10.0317 0.0182557 0)
(10.0383 0.0183309 0)
(10.0447 0.0179601 0)
(10.0508 0.0172343 0)
(10.0565 0.0162253 0)
(10.0619 0.0149969 0)
(10.0669 0.0136035 0)
(10.0716 0.012097 0)
(10.0758 0.0105182 0)
(10.0797 0.00890467 0)
(10.0833 0.00728036 0)
(10.0865 0.00569663 0)
(10.0002 0.00143131 0)
(10.002 0.0041243 0)
(10.0056 0.00687786 0)
(10.0104 0.00874888 0)
(10.0161 0.0100452 0)
(10.022 0.0107998 0)
(10.0281 0.0110923 0)
(10.0341 0.0109966 0)
(10.0401 0.0105798 0)
(10.0457 0.00990124 0)
(10.0512 0.00901621 0)
(10.0562 0.00796817 0)
(10.061 0.006802 0)
(10.0654 0.00555055 0)
(10.0695 0.00424889 0)
(10.0733 0.00292024 0)
(10.0767 0.00158573 0)
(10.0799 0.000283712 0)
(10.0002 0.000404605 0)
(10.0017 0.00114913 0)
(10.0049 0.00218546 0)
(10.0093 0.00276528 0)
(10.0144 0.00310823 0)
(10.0199 0.00319303 0)
(10.0255 0.00304431 0)
(10.0312 0.00269385 0)
(10.0367 0.00217095 0)
(10.0421 0.00150353 0)
(10.0472 0.000718533 0)
(10.052 -0.000159206 0)
(10.0565 -0.00110613 0)
(10.0608 -0.00210106 0)
(10.0647 -0.00312463 0)
(10.0683 -0.00416092 0)
(10.0717 -0.00519787 0)
(10.0748 -0.00620433 0)
(10.0002 -0.000738274 0)
(10.0017 -0.00217698 0)
(10.0047 -0.00307555 0)
(10.009 -0.00397301 0)
(10.0139 -0.00473751 0)
(10.0192 -0.0054453 0)
(10.0247 -0.00612842 0)
(10.0301 -0.00680186 0)
(10.0355 -0.00747568 0)
(10.0406 -0.00816087 0)
(10.0456 -0.00886069 0)
(10.0502 -0.00957709 0)
(10.0546 -0.0103065 0)
(10.0587 -0.0110458 0)
(10.0626 -0.0117886 0)
(10.0661 -0.0125306 0)
(10.0694 -0.0132666 0)
(10.0725 -0.0139745 0)
(10.0002 -0.0018716 0)
(10.0019 -0.00547296 0)
(10.0053 -0.00823761 0)
(10.01 -0.0105194 0)
(10.0152 -0.0122936 0)
(10.0208 -0.0137109 0)
(10.0264 -0.0148604 0)
(10.032 -0.0157987 0)
(10.0374 -0.0165815 0)
(10.0426 -0.0172547 0)
(10.0476 -0.0178572 0)
(10.0523 -0.0184104 0)
(10.0566 -0.0189334 0)
(10.0607 -0.0194352 0)
(10.0645 -0.0199249 0)
(10.0681 -0.0204043 0)
(10.0713 -0.0208777 0)
(10.0744 -0.0213275 0)
(10.0002 -0.00294934 0)
(10.0024 -0.00856584 0)
(10.0064 -0.0129228 0)
(10.0118 -0.0162841 0)
(10.0176 -0.018796 0)
(10.0236 -0.0207065 0)
(10.0296 -0.0221522 0)
(10.0355 -0.023223 0)
(10.0412 -0.0240165 0)
(10.0465 -0.0246166 0)
(10.0516 -0.0250877 0)
(10.0564 -0.0254716 0)
(10.0608 -0.0258007 0)
(10.0649 -0.0260954 0)
(10.0687 -0.0263722 0)
(10.0723 -0.0266391 0)
(10.0756 -0.0269041 0)
(10.0786 -0.0271503 0)
(10.0003 -0.00415229 0)
(10.0031 -0.0119164 0)
(10.0082 -0.0177486 0)
(10.0145 -0.0219835 0)
(10.0211 -0.025053 0)
(10.0277 -0.0273205 0)
(10.0342 -0.0289423 0)
(10.0406 -0.0300472 0)
(10.0466 -0.0307759 0)
(10.0522 -0.0312492 0)
(10.0575 -0.0315485 0)
(10.0623 -0.0317358 0)
(10.0669 -0.0318563 0)
(10.071 -0.0319428 0)
(10.0749 -0.0320126 0)
(10.0785 -0.0320827 0)
(10.0818 -0.0321615 0)
(10.0849 -0.0322404 0)
(10.0005 -0.00558577 0)
(10.0043 -0.0157125 0)
(10.0108 -0.0228511 0)
(10.0184 -0.027717 0)
(10.0259 -0.0311829 0)
(10.0332 -0.0336854 0)
(10.0403 -0.0353661 0)
(10.0472 -0.0364023 0)
(10.0536 -0.0369968 0)
(10.0595 -0.0372979 0)
(10.065 -0.0373967 0)
(10.07 -0.0373657 0)
(10.0747 -0.037269 0)
(10.079 -0.0371457 0)
(10.0829 -0.0370166 0)
(10.0865 -0.0368965 0)
(10.0899 -0.0367944 0)
(10.0929 -0.0366889 0)
(10.0007 -0.00738052 0)
(10.0061 -0.0201291 0)
(10.0146 -0.0282711 0)
(10.0236 -0.0334805 0)
(10.032 -0.0371999 0)
(10.0401 -0.0398366 0)
(10.048 -0.0414791 0)
(10.0554 -0.0423614 0)
(10.0622 -0.0427501 0)
(10.0685 -0.0428252 0)
(10.0743 -0.0426898 0)
(10.0796 -0.0424202 0)
(10.0844 -0.0420913 0)
(10.0888 -0.0417574 0)
(10.0928 -0.0414462 0)
(10.0966 -0.0411809 0)
(10.1 -0.0409631 0)
(10.1032 -0.0407451 0)
(10.001 -0.00968884 0)
(10.0088 -0.0252912 0)
(10.0198 -0.0340154 0)
(10.0303 -0.039287 0)
(10.0398 -0.0431264 0)
(10.0488 -0.0457846 0)
(10.0576 -0.0473054 0)
(10.0658 -0.0479982 0)
(10.0732 -0.0481587 0)
(10.0799 -0.0479737 0)
(10.086 -0.0475658 0)
(10.0916 -0.0470432 0)
(10.0967 -0.046462 0)
(10.1013 -0.045855 0)
(10.1055 -0.0452909 0)
(10.1093 -0.0448246 0)
(10.1128 -0.0444447 0)
(10.1162 -0.0441223 0)
(10.0017 -0.0127908 0)
(10.0129 -0.0311348 0)
(10.0273 -0.0399967 0)
(10.0396 -0.0452603 0)
(10.0504 -0.0491271 0)
(10.0609 -0.0516004 0)
(10.0709 -0.0528278 0)
(10.0801 -0.0532506 0)
(10.0884 -0.0531959 0)
(10.0959 -0.0527842 0)
(10.1027 -0.0521281 0)
(10.1089 -0.0514006 0)
(10.1144 -0.0507046 0)
(10.1194 -0.0499478 0)
(10.1239 -0.0491943 0)
(10.1279 -0.0485676 0)
(10.1316 -0.0480322 0)
(10.135 -0.0475558 0)
(10.0031 -0.0176808 0)
(10.0204 -0.0374487 0)
(10.0394 -0.0455277 0)
(10.0551 -0.0510087 0)
(10.0689 -0.0551928 0)
(10.0822 -0.0575363 0)
(10.0948 -0.0583579 0)
(10.1062 -0.0583085 0)
(10.1164 -0.0577637 0)
(10.1255 -0.0569384 0)
(10.1336 -0.0558949 0)
(10.1407 -0.0546557 0)
(10.1469 -0.0535841 0)
(10.1524 -0.0526412 0)
(10.1571 -0.0517044 0)
(10.161 -0.0509096 0)
(10.1646 -0.0502372 0)
(10.1675 -0.0495911 0)
(10.0082 -0.0266497 0)
(10.0413 -0.0469735 0)
(10.0721 -0.052184 0)
(10.0978 -0.056987 0)
(10.1208 -0.0617206 0)
(10.1422 -0.0646754 0)
(10.1613 -0.0659332 0)
(10.1772 -0.0661226 0)
(10.1902 -0.065584 0)
(10.2005 -0.0644895 0)
(10.2083 -0.0631237 0)
(10.2136 -0.0616147 0)
(10.2168 -0.059796 0)
(10.2182 -0.0581198 0)
(10.2181 -0.0568335 0)
(10.2166 -0.0556975 0)
(10.2142 -0.054678 0)
(10.211 -0.0539173 0)
(10.0467 -0.0365799 0)
(10.1465 -0.0645396 0)
(10.2162 -0.0687541 0)
(10.2578 -0.0699999 0)
(10.2812 -0.0709625 0)
(10.2908 -0.0705319 0)
(10.2876 -0.0689209 0)
(10.2736 -0.0667531 0)
(10.2513 -0.0642795 0)
(10.2228 -0.0614002 0)
(10.1898 -0.0583523 0)
(10.1539 -0.0560312 0)
(10.1158 -0.0530846 0)
(10.0765 -0.0500763 0)
(10.0366 -0.0479686 0)
(9.99745 -0.0460472 0)
(9.95937 -0.0443599 0)
(9.92285 -0.0435073 0)
(9.87368 -0.0408419 0)
(9.62192 -0.0749428 0)
(9.35528 -0.0846194 0)
(9.08875 -0.0855989 0)
(8.83755 -0.0826782 0)
(8.60871 -0.0771425 0)
(8.40258 -0.0702516 0)
(8.21848 -0.0629028 0)
(8.05565 -0.0556475 0)
(7.91251 -0.0486528 0)
(7.78746 -0.0421759 0)
(7.67836 -0.0366981 0)
(7.58363 -0.0313098 0)
(7.50066 -0.0263281 0)
(7.42832 -0.0225468 0)
(7.36422 -0.0194741 0)
(7.30623 -0.0169669 0)
(7.25402 -0.0154847 0)
(-0.00267641 0.00755519 -1.03488e-18)
(-0.0126721 0.0125447 1.15307e-18)
(-0.0263969 0.0139422 0)
(-0.0412982 0.0123894 0)
(-0.0531768 0.0070886 0)
(-0.0548804 -0.00186683 -7.86855e-19)
(-0.0416077 -0.0139578 0)
(-0.0165758 -0.0272501 0)
(0.0171489 -0.0378997 0)
(0.0564398 -0.0435525 0)
(0.0987734 -0.0446929 4.70281e-19)
(0.14076 -0.0423961 0)
(0.179448 -0.0376922 0)
(0.212981 -0.0313919 0)
(0.240374 -0.0240975 0)
(0.261118 -0.01619 2.56237e-19)
(0.274855 -0.00790174 0)
(0.281693 0.000789553 0)
(0.280735 0.00981454 0)
(0.271899 0.0187345 0)
(0.255786 0.0268161 0)
(0.233119 0.0332258 0)
(0.204786 0.0371636 0)
(0.172151 0.0379488 3.52538e-19)
(0.137026 0.0350546 -4.13205e-19)
(0.101742 0.0283955 5.02179e-19)
(0.0689301 0.0186434 6.34151e-19)
(0.0411313 0.00771566 0)
(0.0199026 -0.0013691 0)
(0.00514349 -0.00628702 -1.39955e-18)
(-0.00403358 -0.00750093 -1.47201e-18)
(-0.00859083 -0.0073505 0)
(-0.00858238 -0.00784186 0)
(-0.00292402 -0.0103138 -1.48359e-18)
(0.00918554 -0.0154323 0)
(0.0300628 -0.0232825 0)
(0.0585951 -0.030472 6.85387e-19)
(0.0915359 -0.0340415 0)
(0.123355 -0.0323307 4.36284e-19)
(0.149309 -0.0262789 7.79663e-19)
(0.166357 -0.0178901 0)
(0.173773 -0.00924953 0)
(0.172343 -0.00234082 0)
(0.165191 0.00158982 0)
(0.156569 0.00188415 0)
(0.150569 -0.00218345 8.08522e-19)
(0.146189 -0.0104291 8.23287e-19)
(0.137633 -0.020162 8.40645e-19)
(0.117566 -0.0231329 0)
(0.08144 -0.0111798 -1.02082e-18)
(0.021238 0.00966242 0)
(-0.0721054 0.0305666 7.28393e-19)
(-0.174691 0.0533706 4.49882e-19)
(-0.288391 0.0771715 0)
(-0.411784 0.0975612 0)
(-0.543101 0.103841 0)
(-0.678744 0.103623 1.93354e-19)
(-0.80953 0.104675 0)
(-0.936663 0.102917 0)
(-1.05744 0.0996625 0)
(-1.17046 0.0927867 0)
(-1.27535 0.0855136 0)
(-1.37148 0.080143 0)
(-1.46015 0.0707009 0)
(-1.54062 0.0629465 0)
(-1.61441 0.0582044 -1.01892e-19)
(-1.68248 0.0525874 0)
(-1.74508 0.048166 0)
(-1.80312 0.0442689 9.30819e-20)
(-1.85712 0.0408862 9.07435e-20)
(-1.90763 0.0379809 0)
(-1.9551 0.0354674 -8.66224e-20)
(-1.99993 0.0332847 8.47792e-20)
(-2.04242 0.0313861 0)
(-2.08288 0.0297044 -8.14422e-20)
(-2.1215 0.0282223 0)
(-2.15849 0.0268759 0)
(-2.194 0.025664 7.71155e-20)
(-2.22818 0.0245296 0)
(-2.2611 0.0234896 -7.45967e-20)
(-2.29285 0.0224931 0)
(-2.32349 0.0215599 7.23265e-20)
(-2.35306 0.0206463 7.12749e-20)
(-2.38159 0.0197784 7.02708e-20)
(-2.40909 0.0189204 1.38629e-19)
(-2.43558 0.0180931 -1.36795e-19)
(-2.46104 0.0172714 0)
(-2.48551 0.0164685 0)
(-2.50896 0.0156664 0)
(-2.5314 0.0148648 -1.30101e-19)
(-2.5528 0.0140405 -1.28523e-19)
(-2.57305 0.0132043 1.26969e-19)
(-2.59213 0.0123399 0)
(-2.61003 0.0114503 -1.23924e-19)
(-2.62671 0.0105213 -1.22426e-19)
(-2.64216 0.009549 -1.20935e-19)
(-2.65633 0.00852236 0)
(-2.66918 0.00744053 0)
(-2.68066 0.00631273 0)
(-2.69072 0.00516307 -1.14987e-19)
(-2.69929 0.00402992 0)
(-2.70628 0.00293965 0)
(-2.71158 0.0019315 1.10508e-19)
(-2.71516 0.00102993 0)
(-2.71715 0.000264285 0)
(-2.71784 -0.000431108 1.05781e-19)
(-2.71719 -0.00110245 0)
(-2.71521 -0.00177854 0)
(-2.71188 -0.00244746 -1.00707e-19)
(-2.7072 -0.00313003 -9.89316e-20)
(-2.70113 -0.00380858 0)
(-2.69367 -0.00450257 9.52444e-20)
(-2.68479 -0.00519302 0)
(-2.67448 -0.00589897 -9.13545e-20)
(-2.66272 -0.00660163 0)
(-2.6495 -0.00731978 -8.72299e-20)
(-2.63481 -0.0080356 -8.50676e-20)
(-2.61862 -0.0087642 0)
(-2.60093 -0.00948789 0)
(-2.58173 -0.0102183 0)
(-2.56104 -0.0109442 0)
(-2.53886 -0.0116749 0)
(-2.51519 -0.0124 0)
(-2.49003 -0.0131258 0)
(-2.46336 -0.0138402 -6.47319e-20)
(-2.4352 -0.0145481 6.17268e-20)
(-2.40558 -0.0152377 0)
(-2.37451 -0.0159073 0)
(-2.34205 -0.0165577 0)
(-2.3082 -0.0172077 0)
(-2.27301 -0.0178209 8.95377e-20)
(-2.23654 -0.0184262 0)
(-2.1988 -0.019004 -7.40063e-20)
(-2.15988 -0.0195379 6.57918e-20)
(-2.11976 -0.0199985 0)
(-2.07861 -0.0203076 0)
(-2.03644 -0.0204476 0)
(-1.99343 -0.0203059 -2.96286e-20)
(-1.94956 -0.0204537 -1.97702e-20)
(-1.90476 -0.0209203 0)
(-1.85907 -0.021311 1.02209e-21)
(-1.8126 -0.0216546 1.19832e-20)
(-1.76541 -0.0219478 -2.33346e-20)
(-1.7176 -0.0221983 0)
(-1.66924 -0.0224072 0)
(-1.62041 -0.0225771 -5.98172e-20)
(-1.57119 -0.0227071 0)
(-1.52162 -0.0227989 0)
(-1.47178 -0.022852 0)
(-1.42173 -0.0228683 0)
(-1.37153 -0.0228484 1.29298e-19)
(-1.32123 -0.0227945 1.44591e-19)
(-1.27088 -0.0227079 0)
(-1.22054 -0.0225906 1.76685e-19)
(-1.17025 -0.0224439 0)
(-1.12004 -0.0222699 0)
(-1.06995 -0.0220712 2.28907e-19)
(-1.02001 -0.0218513 0)
(-0.970256 -0.0216159 2.66767e-19)
(-0.920688 -0.0213709 0)
(-0.871316 -0.0211242 0)
(-0.82213 -0.0208825 3.28929e-19)
(-0.773112 -0.020654 0)
(-0.72423 -0.0204449 3.74675e-19)
(-0.675449 -0.020262 0)
(-0.626724 -0.0201088 0)
(-0.578013 -0.0199911 0)
(-0.529263 -0.0199134 -4.8024e-19)
(-0.480427 -0.0198806 0)
(-0.431447 -0.0198972 5.42733e-19)
(-0.382267 -0.0199701 0)
(-0.332834 -0.0200927 0)
(-0.283125 -0.020255 0)
(-0.233121 -0.0204559 0)
(-0.182863 -0.0206962 0)
(-0.132572 -0.0208683 0)
(-0.0827522 -0.0208368 0)
(-0.0351403 -0.0201639 -1.84476e-18)
(0.0175029 -0.0184582 0)
(0.0310105 -0.00854736 0)
(-0.000247784 0.0205056 3.14308e-18)
(-0.00564501 0.0353106 -3.68755e-18)
(-0.0126045 0.0374942 0)
(-0.0145768 0.0295837 2.48223e-18)
(-0.00365362 0.010112 0)
(0.0230436 -0.0234334 8.91308e-19)
(0.0592159 -0.0639516 -1.0869e-18)
(0.10186 -0.0990357 -7.59727e-19)
(0.147078 -0.122039 0)
(0.19129 -0.13179 -4.8346e-19)
(0.231927 -0.130397 -2.09831e-19)
(0.267814 -0.121099 0)
(0.298501 -0.106838 0)
(0.323921 -0.0897918 0)
(0.344239 -0.071419 0)
(0.359732 -0.0525827 -1.59812e-19)
(0.37077 -0.0337213 0)
(0.377541 -0.0150438 3.24335e-19)
(0.380901 0.00345236 0)
(0.380901 0.0216605 0)
(0.377189 0.0392349 -3.3691e-19)
(0.369223 0.0557003 0)
(0.356415 0.0703027 3.59892e-19)
(0.338252 0.0820419 -1.8883e-19)
(0.314475 0.0897389 2.01468e-19)
(0.285251 0.0922416 -2.19176e-19)
(0.251415 0.0886874 -2.44367e-19)
(0.214584 0.079045 0)
(0.177067 0.0643265 0)
(0.141677 0.0463653 4.0349e-19)
(0.111696 0.0270013 -4.97172e-19)
(0.0907395 0.00752942 0)
(0.0809147 -0.0118642 0)
(0.0834509 -0.0300539 6.44489e-19)
(0.0966133 -0.0490023 0)
(0.117465 -0.068391 0)
(0.140513 -0.0811775 -3.33435e-19)
(0.160094 -0.0808117 0)
(0.172757 -0.0681469 2.52108e-19)
(0.177486 -0.0483507 -4.93913e-19)
(0.174398 -0.0267384 0)
(0.164533 -0.00816171 0)
(0.149919 0.00455447 -1.23245e-18)
(0.129824 0.0110524 -1.37809e-18)
(0.0989787 0.0140502 -1.5728e-18)
(0.04738 0.0206172 9.80666e-19)
(-0.0364867 0.0449495 -8.19388e-19)
(-0.148564 0.0852915 -1.47417e-18)
(-0.276521 0.128289 6.58845e-19)
(-0.411605 0.170523 2.39752e-19)
(-0.55253 0.207479 0)
(-0.697029 0.235944 -1.5338e-19)
(-0.83903 0.25584 1.31798e-19)
(-0.977057 0.267554 0)
(-1.1074 0.27156 0)
(-1.22842 0.268386 0)
(-1.33741 0.25851 -8.97501e-20)
(-1.43526 0.244162 0)
(-1.52176 0.227002 1.62099e-19)
(-1.59794 0.208766 0)
(-1.6659 0.190359 1.49612e-19)
(-1.72632 0.172574 0)
(-1.78051 0.156302 -1.40663e-19)
(-1.82992 0.14157 0)
(-1.875 0.128368 1.34412e-19)
(-1.91667 0.116939 -6.58881e-20)
(-1.95527 0.106923 0)
(-1.99158 0.0982587 -1.26217e-19)
(-2.02585 0.0907526 -6.18319e-20)
(-2.05842 0.0842646 -6.06915e-20)
(-2.08949 0.0786184 0)
(-2.11924 0.0737025 -5.85279e-20)
(-2.1478 0.0693742 -5.75232e-20)
(-2.17527 0.0655569 0)
(-2.20173 0.0621342 5.5591e-20)
(-2.22724 0.0590649 -1.09235e-19)
(-2.25186 0.056253 0)
(-2.27562 0.0536789 -5.29421e-20)
(-2.29857 0.0512652 0)
(-2.32073 0.0490154 1.53856e-19)
(-2.34209 0.0468622 0)
(-2.36268 0.0448157 -1.4942e-19)
(-2.38248 0.0428197 -4.91701e-20)
(-2.40151 0.0408929 4.83339e-20)
(-2.41973 0.0389909 9.53942e-20)
(-2.43715 0.0371327 -9.41705e-20)
(-2.45373 0.0352899 0)
(-2.46948 0.0334746 0)
(-2.48435 0.0316681 0)
(-2.49836 0.029857 2.69364e-19)
(-2.51144 0.028031 8.87514e-20)
(-2.52354 0.0261896 -8.76468e-20)
(-2.53465 0.0243298 0)
(-2.54477 0.0224633 -8.53284e-20)
(-2.55389 0.0205853 8.43665e-20)
(-2.562 0.0186993 8.32744e-20)
(-2.56909 0.0167966 0)
(-2.57515 0.0148701 0)
(-2.58019 0.0129096 0)
(-2.58422 0.0109105 7.88359e-20)
(-2.58728 0.00888193 0)
(-2.58946 0.00684083 -1.53176e-19)
(-2.59084 0.00483155 -2.26255e-19)
(-2.59148 0.00289709 1.48439e-19)
(-2.59124 0.00107536 0)
(-2.58981 -0.000676624 7.17545e-20)
(-2.58713 -0.00239103 0)
(-2.58317 -0.00409641 1.38231e-19)
(-2.5779 -0.00578534 -6.78434e-20)
(-2.57131 -0.007477 -6.64899e-20)
(-2.56337 -0.00915615 0)
(-2.55406 -0.0108391 -1.90742e-19)
(-2.54337 -0.0125071 1.24331e-19)
(-2.53128 -0.0141753 6.05747e-20)
(-2.51777 -0.0158249 0)
(-2.50283 -0.0174724 5.74936e-20)
(-2.48644 -0.0191011 1.67986e-19)
(-2.46859 -0.0207232 0)
(-2.44926 -0.0223208 1.05497e-19)
(-2.42847 -0.0239023 1.02066e-19)
(-2.40621 -0.0254535 9.85411e-20)
(-2.3825 -0.0269816 0)
(-2.35733 -0.0284716 0)
(-2.3307 -0.0299278 0)
(-2.3026 -0.0313352 -4.19524e-20)
(-2.27306 -0.0327001 -3.93662e-20)
(-2.24209 -0.0340125 0)
(-2.20972 -0.0352759 -7.0736e-20)
(-2.17598 -0.0364856 -6.62589e-20)
(-2.1409 -0.0376396 0)
(-2.10452 -0.038737 -5.61897e-20)
(-2.06688 -0.0397706 -1.04009e-19)
(-2.02803 -0.0407471 4.62268e-20)
(-1.98802 -0.0416558 4.25973e-20)
(-1.94688 -0.042522 0)
(-1.90467 -0.0433378 0)
(-1.86141 -0.0441261 0)
(-1.81715 -0.044872 1.88592e-20)
(-1.77193 -0.0455638 -1.47207e-20)
(-1.72592 -0.0461513 -1.5739e-20)
(-1.67914 -0.046623 8.61843e-22)
(-1.63163 -0.0469913 3.5414e-21)
(-1.58344 -0.0472544 1.17348e-20)
(-1.53466 -0.0474326 0)
(-1.48536 -0.0475256 0)
(-1.43562 -0.0475491 -2.95228e-20)
(-1.3855 -0.0474984 0)
(-1.33506 -0.0473864 0)
(-1.28438 -0.0472099 1.02092e-19)
(-1.2335 -0.0469805 0)
(-1.1825 -0.0466972 6.4175e-20)
(-1.13141 -0.0463704 -7.3254e-20)
(-1.08029 -0.0460015 0)
(-1.02919 -0.0455982 8.57764e-20)
(-0.978128 -0.045163 0)
(-0.927149 -0.0447003 0)
(-0.87628 -0.044215 -1.09543e-19)
(-0.825546 -0.0437107 2.31953e-19)
(-0.774966 -0.0431982 -1.24206e-19)
(-0.724547 -0.0426824 0)
(-0.674289 -0.0421795 0)
(-0.624175 -0.0416932 1.44555e-19)
(-0.574182 -0.0412405 0)
(-0.524272 -0.0408215 1.59247e-19)
(-0.474398 -0.0404516 0)
(-0.424508 -0.0401236 0)
(-0.374547 -0.0398493 0)
(-0.324455 -0.0396217 1.90035e-19)
(-0.274172 -0.0394516 0)
(-0.223633 -0.0393296 -2.04773e-19)
(-0.172767 -0.0392703 0)
(-0.121513 -0.0392557 0)
(-0.0698229 -0.0392699 4.53456e-19)
(-0.0176747 -0.0392579 -4.69093e-19)
(0.0347195 -0.0391136 0)
(0.087214 -0.0387069 0)
(0.139895 -0.0379627 0)
(0.191036 -0.0364323 1.4377e-18)
(0.246064 -0.0334879 0)
(0.280278 -0.0234914 -9.84102e-19)
(0.00046609 0.0231932 3.03897e-22)
(0.0012534 0.0394817 5.15293e-18)
(0.00595285 0.0351597 0)
(0.0225983 0.008195 -3.8195e-18)
(0.0577926 -0.0453562 0)
(0.106365 -0.109979 0)
(0.158334 -0.164956 -2.59569e-22)
(0.206087 -0.199277 4.24773e-19)
(0.246321 -0.212081 3.61545e-19)
(0.278568 -0.207799 3.2107e-19)
(0.303785 -0.192073 0)
(0.323352 -0.169753 0)
(0.338495 -0.144269 -2.64314e-19)
(0.350105 -0.117724 -5.12644e-19)
(0.358775 -0.0912901 5.0392e-19)
(0.364906 -0.065547 0)
(0.368779 -0.0407357 5.04427e-19)
(0.37059 -0.0169627 -2.55871e-19)
(0.370566 0.0057867 0)
(0.369026 0.0276488 5.22965e-19)
(0.36623 0.0487339 2.65579e-19)
(0.362331 0.0690113 -5.46844e-19)
(0.35729 0.0881621 -2.83653e-19)
(0.35071 0.105519 0)
(0.341887 0.120027 6.25311e-19)
(0.329923 0.130313 6.62448e-19)
(0.313946 0.134862 0)
(0.293494 0.132375 7.68016e-19)
(0.268979 0.122133 0)
(0.24193 0.104296 9.52081e-19)
(0.215067 0.0798878 5.45918e-19)
(0.191712 0.050528 0)
(0.175083 0.0178601 0)
(0.166192 -0.016874 0)
(0.164053 -0.0532217 0)
(0.162665 -0.08236 0)
(0.15623 -0.0917142 0)
(0.142745 -0.0799473 7.89721e-19)
(0.123281 -0.0545212 -1.14238e-18)
(0.0977569 -0.0238364 0)
(0.0655186 0.00802263 0)
(0.0241338 0.0380573 0)
(-0.0338144 0.0648975 7.61665e-22)
(-0.115476 0.0978865 8.38521e-19)
(-0.218028 0.142084 1.24508e-18)
(-0.338694 0.19291 -9.45105e-19)
(-0.472237 0.246096 -3.72289e-19)
(-0.610534 0.297779 3.03173e-19)
(-0.74772 0.342514 5.32749e-22)
(-0.879113 0.378514 2.2271e-19)
(-1.00104 0.405059 0)
(-1.11115 0.420783 1.78817e-19)
(-1.20876 0.4258 1.25956e-21)
(-1.29338 0.421069 0)
(-1.36556 0.40776 0)
(-1.42698 0.387334 -1.36571e-19)
(-1.47989 0.362118 0)
(-1.52664 0.334637 0)
(-1.56872 0.3065 1.20949e-19)
(-1.60747 0.279137 2.31425e-19)
(-1.64392 0.253345 -1.11353e-19)
(-1.67875 0.229687 0)
(-1.7123 0.208498 1.05427e-19)
(-1.74484 0.189632 0)
(-1.77658 0.173118 1.01173e-19)
(-1.8075 0.158857 9.82549e-20)
(-1.83754 0.146449 -1.92692e-19)
(-1.86677 0.135705 -9.44214e-20)
(-1.89518 0.12635 0)
(-1.92278 0.118184 1.80724e-19)
(-1.9496 0.111012 0)
(-1.97565 0.104676 2.60276e-19)
(-2.00095 0.099029 1.70108e-19)
(-2.02552 0.0939611 1.6682e-19)
(-2.04938 0.0893634 -1.6365e-19)
(-2.07255 0.0851602 2.40994e-19)
(-2.09504 0.0812682 0)
(-2.11686 0.0776385 0)
(-2.13803 0.0742103 -1.52132e-19)
(-2.15854 0.0709539 -2.24458e-19)
(-2.17839 0.0678219 0)
(-2.19757 0.0647953 7.24992e-20)
(-2.21608 0.0618381 0)
(-2.23389 0.05894 -2.10494e-19)
(-2.25099 0.0560748 -3.03438e-22)
(-2.26735 0.0532388 2.8913e-22)
(-2.28296 0.0504172 1.34181e-19)
(-2.29778 0.0476081 0)
(-2.31181 0.0448012 -1.30464e-19)
(-2.32501 0.0419823 -2.02416e-22)
(-2.33735 0.0391411 0)
(-2.3488 0.0362722 0)
(-2.35934 0.0333815 0)
(-2.36896 0.0304739 1.21711e-19)
(-2.37765 0.0275552 0)
(-2.3854 0.0246295 0)
(-2.39219 0.0217008 0)
(-2.39804 0.0187751 0)
(-2.40293 0.0158585 0)
(-2.40686 0.0129611 1.11138e-19)
(-2.40983 0.0100906 0)
(-2.41183 0.00725793 1.07524e-19)
(-2.41284 0.00445969 1.05637e-19)
(-2.41281 0.00168459 -1.03692e-19)
(-2.41166 -0.00108983 0)
(-2.40935 -0.00385648 -9.97311e-20)
(-2.40583 -0.00661116 0)
(-2.40108 -0.00935165 -9.56589e-20)
(-2.39507 -0.0120852 9.35792e-20)
(-2.38778 -0.0148105 2.74659e-19)
(-2.37919 -0.0175313 0)
(-2.36928 -0.020244 2.61775e-19)
(-2.35803 -0.0229486 8.5286e-20)
(-2.34542 -0.02564 0)
(-2.33143 -0.0283166 1.61262e-19)
(-2.31604 -0.0309749 1.56657e-19)
(-2.29924 -0.0336124 -2.2771e-19)
(-2.28102 -0.0362241 0)
(-2.26137 -0.0388048 -7.08735e-20)
(-2.24028 -0.0413503 -6.83628e-20)
(-2.21777 -0.0438535 -1.98035e-19)
(-2.19384 -0.0463103 0)
(-2.16848 -0.0487103 0)
(-2.1417 -0.0510465 0)
(-2.11349 -0.0533094 -5.57619e-20)
(-2.08387 -0.0554959 0)
(-2.05287 -0.0575989 0)
(-2.0205 -0.0596166 4.61505e-20)
(-1.9868 -0.0615436 4.30756e-20)
(-1.9518 -0.0633776 0)
(-1.91554 -0.0651092 0)
(-1.87806 -0.0667385 6.6879e-20)
(-1.83939 -0.0682622 0)
(-1.79959 -0.0696738 -5.33637e-20)
(-1.7587 -0.070978 -4.75509e-20)
(-1.71677 -0.072172 0)
(-1.67386 -0.0732547 0)
(-1.63001 -0.074234 2.59841e-20)
(-1.58529 -0.0751289 -1.26214e-21)
(-1.53981 -0.0759212 -1.2814e-21)
(-1.4936 -0.0765635 0)
(-1.44669 -0.0770522 -9.68594e-21)
(-1.39914 -0.0773863 0)
(-1.35103 -0.0775822 0)
(-1.30243 -0.0776461 0)
(-1.25342 -0.0775918 3.68956e-20)
(-1.20405 -0.0774217 0)
(-1.15438 -0.0771472 -1.02995e-19)
(-1.10449 -0.0767718 -6.08568e-20)
(-1.05443 -0.0763065 0)
(-1.00424 -0.0757569 -7.68618e-20)
(-0.953992 -0.0751342 0)
(-0.903715 -0.0744463 0)
(-0.853451 -0.0737027 -2.99452e-19)
(-0.803229 -0.0729108 2.14499e-19)
(-0.753078 -0.0720757 0)
(-0.703018 -0.0712062 2.45525e-19)
(-0.653071 -0.0703083 -1.31587e-19)
(-0.603246 -0.0693976 0)
(-0.553548 -0.0684839 0)
(-0.503967 -0.0675891 0)
(-0.454485 -0.0667229 -4.80793e-19)
(-0.405071 -0.065907 0)
(-0.355683 -0.0651467 -1.74965e-19)
(-0.306267 -0.0644603 0)
(-0.256767 -0.0638425 0)
(-0.207119 -0.0633044 0)
(-0.157261 -0.0628408 0)
(-0.107126 -0.0624633 0)
(-0.0566426 -0.0621622 0)
(-0.00574451 -0.0619403 -4.38031e-19)
(0.0455919 -0.0617637 0)
(0.0974423 -0.0616166 -2.26055e-19)
(0.149883 -0.061435 6.82657e-19)
(0.202935 -0.0611375 0)
(0.256498 -0.0605821 0)
(0.3106 -0.059572 -4.66314e-19)
(0.363837 -0.0575925 -4.72444e-19)
(0.420561 -0.053946 4.77185e-19)
(0.465031 -0.0439676 4.88862e-19)
(-0.00102612 0.0229707 -6.26719e-18)
(0.00168795 0.0272538 -8.11357e-18)
(0.0195757 -0.00408981 -3.81891e-18)
(0.0627059 -0.0778381 -1.04336e-18)
(0.121503 -0.16456 0)
(0.179715 -0.232965 9.15787e-19)
(0.226893 -0.270374 -3.66433e-19)
(0.260531 -0.279292 0)
(0.282754 -0.268263 -2.7971e-19)
(0.297016 -0.24571 0)
(0.306305 -0.217541 4.83525e-19)
(0.312609 -0.1872 0)
(0.317052 -0.156492 2.22342e-19)
(0.320177 -0.12628 4.3562e-19)
(0.322204 -0.0969556 -4.31855e-19)
(0.323196 -0.0687021 0)
(0.323171 -0.041603 -4.38213e-19)
(0.322148 -0.0157093 0)
(0.320163 0.00897982 0)
(0.317312 0.0324971 -4.57232e-19)
(0.313719 0.0548577 0)
(0.309588 0.0760795 -5.41709e-22)
(0.305138 0.0960812 0)
(0.300477 0.114582 0)
(0.295537 0.131009 3.37383e-22)
(0.289972 0.144435 -5.77864e-19)
(0.283155 0.153529 -6.18507e-19)
(0.274258 0.156637 -6.65206e-19)
(0.262546 0.152062 0)
(0.247775 0.138432 -1.58304e-18)
(0.230499 0.115158 0)
(0.212235 0.0827661 -1.00825e-18)
(0.194637 0.0432588 0)
(0.178966 -0.000234802 0)
(0.158996 -0.039511 1.10206e-18)
(0.130145 -0.0579916 0)
(0.0935556 -0.0514115 -8.13274e-19)
(0.0492756 -0.0273351 -5.28552e-22)
(-0.00188795 0.00887537 1.50752e-18)
(-0.0636447 0.0528488 -1.37768e-18)
(-0.140594 0.103029 0)
(-0.232456 0.15873 0)
(-0.338985 0.217076 -4.06852e-19)
(-0.457139 0.276981 0)
(-0.581421 0.337615 -2.8277e-19)
(-0.706721 0.395393 2.41765e-19)
(-0.827779 0.445207 2.11535e-19)
(-0.939365 0.484115 0)
(-1.0387 0.511742 -1.69458e-19)
(-1.12491 0.527801 -1.54943e-19)
(-1.19744 0.532911 2.88002e-19)
(-1.25717 0.527942 -1.3319e-19)
(-1.30587 0.514236 -1.25005e-19)
(-1.34549 0.49348 0)
(-1.37844 0.467438 0)