# vtk DataFile Version 2.0
tracks
ASCII
DATASET POLYDATA
POINTS 12575 float
-0.0206 0.000999965 1e-05 -0.02058 0.000999967 1e-05 -0.02056 0.000999972 1e-05 -0.02054 0.000999979
1e-05 -0.02052 0.000999988 1e-05 -0.0205 0.001 1e-05 -0.0202034 0.00100017 1e-05
-0.0199069 0.00100063 1e-05 -0.0196103 0.00100137 1e-05 -0.0193137 0.00100237 1e-05 -0.0190172
0.00100364 1e-05 -0.0187132 0.00100516 1e-05 -0.0184093 0.00100676 1e-05 -0.0181054 0.00100844
1e-05 -0.0178015 0.00101021 1e-05 -0.0174976 0.00101206 1e-05 -0.0172058 0.00101392 1e-05
-0.016914 0.0010158 1e-05 -0.0166222 0.00101771 1e-05 -0.0163305 0.00101965 1e-05 -0.0160387
0.00102162 1e-05 -0.0158874 0.00102266 1e-05 -0.015736 0.0010237 1e-05 -0.0155847 0.00102474
1e-05 -0.0154334 0.0010258 1e-05 -0.0152871 0.00102682 1e-05 -0.0151573 0.00102773 1e-05
-0.0150275 0.00102864 1e-05 -0.0148977 0.00102956 1e-05 -0.0147679 0.00103048 1e-05 -0.0146381
0.0010314 1e-05 -0.0143692 0.00103332 1e-05 -0.0141002 0.00103525 1e-05 -0.0138313 0.00103719
1e-05 -0.0135624 0.00103913 1e-05 -0.0132934 0.00104108 1e-05 -0.0130353 0.00104295 1e-05
-0.0127771 0.00104482 1e-05 -0.0125189 0.00104668 1e-05 -0.0122607 0.00104854 1e-05 -0.0120025
0.00105039 1e-05 -0.0117547 0.00105216 1e-05 -0.0115068 0.00105391 1e-05 -0.0112589 0.00105566
1e-05 -0.0110111 0.0010574 1e-05 -0.0107632 0.00105912 1e-05 -0.0105252 0.00106077 1e-05
-0.0102873 0.00106241 1e-05 -0.0100493 0.00106404 1e-05 -0.00981133 0.00106566 1e-05 -0.00957337
0.00106728 1e-05 -0.00934491 0.00106884 1e-05 -0.00911645 0.00107039 1e-05 -0.00888799 0.00107194
1e-05 -0.00865954 0.00107349 1e-05 -0.00843108 0.00107503 1e-05 -0.00821175 0.00107653 1e-05
-0.00799242 0.001078 1e-05 -0.00777309 0.00107948 1e-05 -0.00755376 0.00108094 1e-05 -0.00733443
0.0010824 1e-05 -0.00712387 0.00108379 1e-05 -0.0069133 0.00108517 1e-05 -0.00670273 0.00108652
1e-05 -0.00649216 0.00108785 1e-05 -0.0062816 0.00108916 1e-05 -0.00607944 0.00109041 1e-05
-0.00587729 0.00109163 1e-05 -0.00567514 0.00109282 1e-05 -0.00547298 0.001094 1e-05 -0.00527083
0.00109515 1e-05 -0.00507675 0.00109624 1e-05 -0.00488267 0.00109731 1e-05 -0.0046886 0.00109835
1e-05 -0.00449452 0.00109938 1e-05 -0.00430044 0.00110039 1e-05 -0.00411412 0.00110135 1e-05
-0.0039278 0.00110229 1e-05 -0.00374147 0.00110322 1e-05 -0.00355515 0.00110412 1e-05 -0.00336883
0.00110501 1e-05 -0.00318995 0.00110585 1e-05 -0.00301107 0.00110667 1e-05 -0.00283219 0.00110747
1e-05 -0.00265331 0.00110825 1e-05 -0.00247443 0.00110902 1e-05 -0.0023027 0.00110974 1e-05
-0.00213097 0.00111044 1e-05 -0.00195924 0.00111113 1e-05 -0.0017875 0.00111179 1e-05 -0.00161577
0.00111244 1e-05 -0.0014509 0.00111306 1e-05 -0.00128603 0.00111365 1e-05 -0.00112116 0.00111423
1e-05 -0.000956289 0.0011148 1e-05 -0.000791418 0.00111536 1e-05 -0.000633135 0.00111588 1e-05
-0.000474851 0.00111639 1e-05 -0.000316567 0.0011169 1e-05 -0.000158283 0.00111739 1e-05 0
0.00111788 1e-05 0.000105677 0.00111821 1e-05 0.000211355 0.00111853 1e-05 0.000317032 0.00111885
1e-05 0.00042271 0.00111916 1e-05 0.000528387 0.00111948 1e-05 0.000634886 0.0011198 1e-05
0.000741385 0.00112011 1e-05 0.000847885 0.00112042 1e-05 0.000954384 0.00112073 1e-05 0.00106088
0.00112104 1e-05 0.00116821 0.00112136 1e-05 0.00127554 0.00112166 1e-05 0.00138286 0.00112197
1e-05 0.00149019 0.00112227 1e-05 0.00159752 0.00112256 1e-05 0.00170568 0.00112286 1e-05
0.00181384 0.00112315 1e-05 0.001922 0.00112343 1e-05 0.00203016 0.00112371 1e-05 0.00213833
0.00112398 1e-05 0.00224733 0.00112424 1e-05 0.00235633 0.0011245 1e-05 0.00246533 0.00112475
1e-05 0.00257434 0.00112499 1e-05 0.00268334 0.00112523 1e-05 0.00279319 0.00112546 1e-05
0.00290304 0.00112569 1e-05 0.00301289 0.0011259 1e-05 0.00312274 0.00112612 1e-05 0.00323259
0.00112632 1e-05 0.00334329 0.00112652 1e-05 0.003454 0.00112671 1e-05 0.0035647 0.0011269
1e-05 0.0036754 0.00112708 1e-05 0.00378611 0.00112726 1e-05 0.00389767 0.00112743 1e-05
0.00400924 0.00112759 1e-05 0.0041208 0.00112775 1e-05 0.00423237 0.0011279 1e-05 0.00434393
0.00112804 1e-05 0.00445636 0.00112818 1e-05 0.00456879 0.00112831 1e-05 0.00468123 0.00112844
1e-05 0.00479366 0.00112856 1e-05 0.00490609 0.00112867 1e-05 0.0050194 0.00112877 1e-05
0.0051327 0.00112887 1e-05 0.00524601 0.00112896 1e-05 0.00535931 0.00112905 1e-05 0.00547262
0.00112913 1e-05 0.00558681 0.0011292 1e-05 0.005701 0.00112927 1e-05 0.00581518 0.00112933
1e-05 0.00592937 0.00112938 1e-05 0.00604356 0.00112942 1e-05 0.00615863 0.00112946 1e-05
0.00627371 0.00112949 1e-05 0.00638878 0.00112951 1e-05 0.00650386 0.00112952 1e-05 0.00661893
0.00112953 1e-05 0.0067349 0.00112952 1e-05 0.00685087 0.00112952 1e-05 0.00696684 0.0011295
1e-05 0.00708281 0.00112947 1e-05 0.00719878 0.00112944 1e-05 0.00731565 0.00112939 1e-05
0.00743252 0.00112934 1e-05 0.00754939 0.00112928 1e-05 0.00766626 0.00112921 1e-05 0.00778313
0.00112913 1e-05 0.00790091 0.00112904 1e-05 0.00801869 0.00112894 1e-05 0.00813647 0.00112884
1e-05 0.00825425 0.00112872 1e-05 0.00837203 0.00112859 1e-05 0.00846506 0.00112849 1e-05
0.00855809 0.00112837 1e-05 0.00865112 0.00112825 1e-05 0.00874414 0.00112813 1e-05 0.00883276
0.001128 1e-05 0.00885931 0.00112796 1e-05 0.00888586 0.00112792 1e-05 0.00891241 0.00112788
1e-05 0.00893896 0.00112784 1e-05 0.00896551 0.0011278 1e-05 0.00908513 0.00112761 1e-05
0.00920475 0.00112741 1e-05 0.00932437 0.0011272 1e-05 0.00944398 0.00112698 1e-05 0.0095636
0.00112676 1e-05 0.00968415 0.00112651 1e-05 0.0098047 0.00112625 1e-05 0.00992525 0.00112599
1e-05 0.0100458 0.00112572 1e-05 0.0101663 0.00112544 1e-05 0.0102878 0.00112513 1e-05
0.0104093 0.00112482 1e-05 0.0105308 0.00112451 1e-05 0.0106523 0.00112418 1e-05 0.0107738
0.00112385 1e-05 0.0108962 0.00112348 1e-05 0.0110186 0.00112312 1e-05 0.0111411 0.00112275
1e-05 0.0112635 0.00112237 1e-05 0.0113859 0.00112198 1e-05 0.0115093 0.00112156 1e-05
0.0116327 0.00112115 1e-05 0.0117561 0.00112072 1e-05 0.0118795 0.00112029 1e-05 0.0120028
0.00111985 1e-05 0.0121272 0.00111938 1e-05 0.0122515 0.00111892 1e-05 0.0123759 0.00111844
1e-05 0.0125002 0.00111796 1e-05 0.0126245 0.00111747 1e-05 0.0127498 0.00111695 1e-05
0.0128752 0.00111644 1e-05 0.0130005 0.00111592 1e-05 0.0131258 0.00111539 1e-05 0.0132511
0.00111486 1e-05 0.0133774 0.00111429 1e-05 0.0135036 0.00111373 1e-05 0.0136299 0.00111317
1e-05 0.0137562 0.0011126 1e-05 0.0138825 0.00111202 1e-05 0.0140098 0.00111141 1e-05
0.014137 0.00111081 1e-05 0.0142643 0.00111021 1e-05 0.0143915 0.00110959 1e-05 0.0145188
0.00110898 1e-05 0.0146471 0.00110833 1e-05 0.0147753 0.0011077 1e-05 0.0149036 0.00110705
1e-05 0.0150318 0.0011064 1e-05 0.0151601 0.00110575 1e-05 0.0152893 0.00110507 1e-05
0.0154186 0.0011044 1e-05 0.0155478 0.00110372 1e-05 0.0156771 0.00110303 1e-05 0.0158063
0.00110235 1e-05 0.0159366 0.00110164 1e-05 0.0160668 0.00110094 1e-05 0.0161971 0.00110022
1e-05 0.0163273 0.00109951 1e-05 0.0164576 0.00109878 1e-05 0.0165889 0.00109806 1e-05
0.0167201 0.00109732 1e-05 0.0168514 0.00109657 1e-05 0.0169827 0.00109582 1e-05 0.0171139
0.00109507 1e-05 0.0172462 0.00109432 1e-05 0.0173785 0.00109355 1e-05 0.0175108 0.00109277
1e-05 0.0176431 0.00109199 1e-05 0.0177754 0.00109121 1e-05 0.0179087 0.00109043 1e-05
0.018042 0.00108963 1e-05 0.0181753 0.00108882 1e-05 0.0183087 0.001088 1e-05 0.018442
0.00108718 1e-05 0.0185763 0.00108638 1e-05 0.0187107 0.00108554 1e-05 0.018845 0.00108469
1e-05 0.0189794 0.00108383 1e-05 0.0191137 0.00108298 1e-05 0.0192491 0.00108214 1e-05
0.0193845 0.00108127 1e-05 0.0195199 0.00108038 1e-05 0.0196553 0.00107947 1e-05 0.0197907
0.00107858 1e-05 0.0199272 0.0010777 1e-05 0.0200636 0.00107679 1e-05 0.0202001 0.00107584
1e-05 0.0203365 0.00107488 1e-05 0.020473 0.00107395 1e-05 0.0206105 0.00107302 1e-05
0.020748 0.00107205 1e-05 0.0208855 0.00107105 1e-05 0.021023 0.00107003 1e-05 0.0211606
0.00106904 1e-05 0.0212991 0.00106805 1e-05 0.0214377 0.00106702 1e-05 0.0215763 0.00106595
1e-05 0.0217149 0.00106486 1e-05 0.0218535 0.0010638 1e-05 0.0219931 0.00106274 1e-05
0.0221328 0.00106164 1e-05 0.0222724 0.00106049 1e-05 0.0224121 0.00105932 1e-05 0.0225517
0.00105816 1e-05 0.0226925 0.00105703 1e-05 0.0228332 0.00105583 1e-05 0.022974 0.00105458
1e-05 0.0231147 0.00105331 1e-05 0.0232555 0.00105206 1e-05 0.0233973 0.00105082 1e-05
0.0235391 0.00104952 1e-05 0.023681 0.00104816 1e-05 0.0238228 0.00104677 1e-05 0.0239647
0.0010454 1e-05 0.0241076 0.00104404 1e-05 0.0242505 0.00104261 1e-05 0.0243935 0.00104112
1e-05 0.0245364 0.0010396 1e-05 0.0246794 0.0010381 1e-05 0.0248234 0.0010366 1e-05
0.0249675 0.00103502 1e-05 0.0251115 0.00103338 1e-05 0.0252556 0.00103171 1e-05 0.0253996
0.00103005 1e-05 0.0255448 0.00102839 1e-05 0.02569 0.00102665 1e-05 0.0258351 0.00102485
1e-05 0.0259803 0.00102301 1e-05 0.0261255 0.00102118 1e-05 0.0262718 0.00101933 1e-05
0.0264181 0.00101741 1e-05 0.0265644 0.00101542 1e-05 0.0267107 0.0010134 1e-05 0.026857
0.00101137 1e-05 0.0270044 0.00100932 1e-05 0.0271519 0.00100719 1e-05 0.0272993 0.001005
1e-05 0.0274467 0.00100277 1e-05 0.0275942 0.00100052 1e-05 0.0277428 0.000998252 1e-05
0.0278914 0.000995897 1e-05 0.0280399 0.000993487 1e-05 0.0281885 0.000991036 1e-05 0.0283371
0.00098855 1e-05 0.0284869 0.00098604 1e-05 0.0286366 0.000983442 1e-05 0.0287863 0.000980794
1e-05 0.0289361 0.000978102 1e-05 0.0290858 0.000975365 1e-05 0.0292367 0.000972599 1e-05
0.0293876 0.000969746 1e-05 0.0295385 0.000966847 1e-05 0.0296894 0.000963901 1e-05 0.0298403
0.000960907 1e-05 0.0299924 0.00095787 1e-05 0.0301445 0.000954756 1e-05 0.0302966 0.000951594
1e-05 0.0304486 0.000948382 1e-05 0.0306007 0.000945122 1e-05 0.030754 0.000941806 1e-05
0.0309072 0.000938422 1e-05 0.0310605 0.000934988 1e-05 0.0312138 0.000931505 1e-05 0.031367
0.000927972 1e-05 0.0315215 0.000924372 1e-05 0.0316759 0.000920713 1e-05 0.0318304 0.000917005
1e-05 0.0319848 0.000913249 1e-05 0.0321296 0.000909681 1e-05 0.0321315 0.000909633 1e-05
0.0321335 0.000909585 1e-05 0.0321354 0.000909536 1e-05 0.0321373 0.000909488 1e-05 0.0321393
[...]
POINT_DATA 12575
FIELD attributes 4
age 1 12575 float
-9.99889e-06 -7.99896e-06 -5.99911e-06 -3.99933e-06 -1.99963e-06 0 2.96512e-05 5.92856e-05 8.89029e-05 0.000118503 0.000148087
0.00017837 0.000208646 0.000238901 0.000269135 0.000299349 0.00032832 0.000357284 0.000386228 0.000415153 0.000444058
0.000459037 0.000474012 0.000488983 0.000503949 0.000518412 0.00053124 0.000544064 0.000556884 0.000569701 0.000582515
0.000609054 0.000635581 0.000662092 0.000688589 0.000715071 0.000740478 0.000765878 0.000791265 0.00081664 0.000842002
0.000866333 0.000890663 0.000914984 0.000939295 0.000963596 0.000986906 0.00101022 0.00103353 0.00105683 0.00108013
0.00110247 0.00112482 0.00114717 0.00116951 0.00119184 0.00121326 0.0012347 0.00125612 0.00127754 0.00129896
0.0013195 0.00134005 0.00136059 0.00138114 0.00140168 0.00142137 0.00144109 0.00146079 0.0014805 0.00150021
0.00151911 0.00153802 0.00155693 0.00157584 0.00159475 0.00161289 0.00163104 0.00164919 0.00166734 0.00168549
0.0017029 0.00172032 0.00173774 0.00175516 0.00177259 0.00178931 0.00180603 0.00182275 0.00183948 0.00185621
0.00187227 0.00188832 0.00190438 0.00192044 0.00193651 0.00195194 0.00196736 0.00198278 0.00199821 0.00201363
0.00202394 0.00203424 0.00204454 0.00205485 0.00206515 0.00207554 0.00208593 0.00209632 0.0021067 0.00211709
0.00212757 0.00213804 0.00214851 0.00215899 0.00216946 0.00218003 0.00219059 0.00220114 0.0022117 0.00222226
0.00223292 0.00224356 0.00225421 0.00226486 0.00227551 0.00228625 0.00229698 0.00230772 0.00231846 0.0023292
0.00234003 0.00235086 0.00236169 0.00237252 0.00238335 0.00239428 0.0024052 0.00241613 0.00242705 0.00243798
0.00244901 0.00246003 0.00247105 0.00248207 0.0024931 0.00250422 0.00251534 0.00252646 0.00253759 0.00254872
0.00255995 0.00257117 0.0025824 0.00259363 0.00260486 0.0026162 0.00262753 0.00263886 0.0026502 0.00266155
0.002673 0.00268444 0.00269589 0.00270735 0.00271881 0.00273037 0.00274193 0.0027535 0.00276508 0.00277666
0.00278834 0.00280003 0.00281172 0.00282343 0.00283514 0.00284439 0.00285365 0.00286292 0.00287219 0.00288103
0.00288368 0.00288633 0.00288898 0.00289163 0.00289428 0.00290623 0.00291818 0.00293015 0.00294213 0.00295411
0.00296622 0.00297832 0.00299044 0.00300256 0.0030147 0.00302697 0.00303923 0.0030515 0.00306378 0.00307608
0.00308853 0.00310095 0.00311338 0.00312583 0.00313829 0.00315093 0.00316352 0.00317612 0.00318875 0.00320138
0.00321421 0.00322698 0.00323977 0.00325257 0.0032654 0.00327841 0.00329138 0.00330436 0.00331735 0.00333037
0.00334359 0.00335675 0.00336993 0.00338313 0.00339634 0.00340977 0.00342314 0.00343653 0.00344993 0.00346336
0.00347701 0.00349059 0.00350419 0.00351782 0.00353147 0.00354533 0.00355915 0.00357298 0.00358682 0.00360071
0.0036148 0.00362885 0.00364291 0.00365699 0.00367111 0.00368544 0.00369973 0.00371402 0.00372834 0.00374271
0.00375727 0.0037718 0.00378634 0.0038009 0.00381551 0.00383031 0.0038451 0.00385988 0.00387469 0.00388955
0.00390459 0.00391962 0.00393466 0.00394972 0.00396483 0.00398011 0.0039954 0.00401069 0.00402601 0.00404137
0.0040569 0.00407244 0.00408798 0.00410356 0.00411917 0.00413495 0.00415074 0.00416655 0.00418238 0.00419825
0.00421428 0.00423032 0.00424638 0.00426248 0.0042786 0.00429487 0.00431117 0.00432749 0.00434384 0.00436021
0.00437674 0.00439329 0.00440987 0.00442647 0.0044431 0.00445987 0.00447668 0.00449351 0.00451037 0.00452725
0.00454427 0.00456133 0.00457842 0.00459553 0.00461266 0.00462994 0.00464725 0.0046646 0.00468197 0.00469935
0.00471688 0.00473445 0.00475205 0.00476967 0.00478731 0.0048051 0.00482292 0.00484078 0.00485865 0.00487655
0.00489459 0.00491268 0.00493079 0.00494892 0.00496708 0.00498538 0.00500373 0.00502211 0.0050405 0.00505892
0.00507749 0.00509611 0.00511475 0.00513341 0.0051521 0.00517094 0.00518983 0.00520874 0.00522768 0.00524664
0.00526576 0.00528492 0.00530411 0.00532333 0.00534257 0.00536198 0.00538143 0.00540091 0.00542041 0.00543994
0.00545965 0.00547939 0.00549916 0.00551896 0.00553755 0.0055378 0.00553805 0.0055383 0.00553855 0.0055388
0.00555881 0.00557886 0.00559894 0.00561905 0.0056392 0.00565953 0.0056799 0.0057003 0.00572074 0.00574121
0.00576187 0.00578257 0.0058033 0.00582408 0.00584489 0.00586588 0.00588693 0.00590801 0.00592914 0.0059503
0.00597164 0.00599304 0.00601449 0.00603597 0.00605749 0.0060792 0.00610096 0.00612278 0.00614464 0.00616654
0.00618862 0.00621076 0.00623296 0.00625521 0.00627748 0.00629995 0.00632248 0.00634508 0.00636772 0.00639038
0.00641325 0.00643618 0.00645918 0.00648222 0.00650529 0.00652856 0.0065519 0.00657531 0.00659875 0.00662223
0.00664592 0.00666968 0.00669349 0.00671735 0.00674125 0.00676535 0.00678953 0.00681376 0.00683803 0.00686234
0.00688687 0.00691147 0.00693612 0.00696081 0.00698554 0.00701049 0.00703551 0.00706057 0.00708567 0.00711081
0.00713618 0.00716161 0.00718708 0.0072126 0.00723815 0.00726393 0.00728976 0.00731564 0.00734155 0.0073675
0.00737864 0.00738979 0.00740095 0.00741211 0.00742385 0.00743883 0.00745382 0.00746883 0.00748385 0.00749888
0.00752546 0.00755207 0.00757872 0.00760541 0.00763213 0.00765908 0.00768607 0.00771309 0.00774015 0.00776723
0.00779454 0.00782189 0.00784926 0.00787667 0.0079041 0.00793175 0.00795943 0.00798715 0.00801488 0.00804264
0.00807061 0.00809862 0.00812665 0.0081547 0.00818277 0.00821104 0.00823935 0.00826768 0.00829603 0.00832438
0.00835294 0.00838153 0.00841014 0.00843877 0.00846739 0.00849622 0.00852508 0.00855395 0.00858284 0.00861172
0.00864081 0.00866991 0.00869904 0.00872817 0.00875728 0.00878661 0.00881596 0.00884532 0.00887468 0.00890403
0.00893358 0.00896316 0.00899274 0.00902232 0.00905189 0.00908167 0.00911146 0.00914126 0.00917106 0.00920084
0.00923082 0.00926082 0.00929083 0.00932084 0.00935083 0.00938103 0.00941124 0.00944145 0.00947167 0.00950186
0.00953226 0.00956268 0.0095931 0.00962352 0.00965392 0.00968453 0.00971515 0.00974578 0.00977641 0.00980701
0.00983784 0.00986867 0.00989951 0.00993034 0.00996116 0.0099922 0.0100232 0.0100543 0.0100854 0.0101164
0.0101476 0.0101789 0.0102102 0.0102415 0.0102727 0.0103042 0.0103357 0.0103672 0.0103987 0.0104302
0.0104619 0.0104937 0.0105254 0.0105572 0.0105889 0.0106209 0.0106529 0.0106849 0.0107169 0.0107489
0.0107811 0.0108133 0.0108456 0.0108779 0.0109101 0.0109426 0.0109751 0.0110077 0.0110402 0.0110728
0.0111055 0.0111383 0.0111712 0.011204 0.0112368 0.0112699 0.011303 0.0113361 0.0113692 0.0114023
0.0114357 0.0114691 0.0115025 0.011536 0.0115694 0.0116031 0.0116368 0.0116705 0.0117043 0.011738
0.0117721 0.0118061 0.0118402 0.0118742 0.0119083 0.0119427 0.0119771 0.0120115 0.0120459 0.0120803
0.012115 0.0121497 0.0121845 0.0122192 0.012254 0.012289 0.0123241 0.0123592 0.0123943 0.0124295
0.0124567 0.012484 0.0125113 0.0125387 0.0125641 0.0125726 0.0125811 0.0125897 0.0125982 0.0126067
0.0126425 0.0126783 0.0127142 0.01275 0.0127859 0.012822 0.0128582 0.0128944 0.0129307 0.0129669
0.0130035 0.01304 0.0130766 0.0131133 0.0131499 0.0131869 0.0132238 0.0132608 0.0132979 0.0133349
0.0133723 0.0134097 0.0134471 0.0134845 0.013522 0.0135597 0.0135975 0.0136354 0.0136732 0.0137111
0.0137493 0.0137876 0.0138258 0.0138641 0.0139024 0.0139411 0.0139798 0.0140185 0.0140572 0.014096
0.0141351 0.0141743 0.0142135 0.0142527 0.0142919 0.0143315 0.0143711 0.0144108 0.0144505 0.0144902
0.0145303 0.0145704 0.0146105 0.0146507 0.0146909 0.0147315 0.0147721 0.0148128 0.0148535 0.0148942
0.0149353 0.0149765 0.0150177 0.0150589 0.0151002 0.0151076 0.0151151 0.0151226 0.01513 0.0151375
0.0151717 0.0152059 0.0152402 0.0152745 0.0153088 0.015351 0.0153932 0.0154355 0.0154778 0.0155202
0.0155629 0.0156057 0.0156485 0.0156914 0.0157343 0.0157776 0.015821 0.0158644 0.0159078 0.0159513
0.0159953 0.0160392 0.0160832 0.0161272 0.0161713 0.0162158 0.0162604 0.016305 0.0163496 0.0163943
0.0164394 0.0164846 0.0165298 0.0165751 0.0166204 0.0166661 0.0167119 0.0167578 0.0168036 0.0168496
0.016896 0.0169424 0.0169889 0.0170354 0.017082 0.017129 0.0171761 0.0172232 0.0172704 0.0173177
0.0173653 0.0174131 0.0174609 0.0175087 0.0175566 0.0175896 0.0176225 0.0176555 0.0176885 0.0177208
0.0177364 0.0177521 0.0177677 0.0177834 0.017799 0.0178481 0.0178971 0.0179463 0.0179955 0.0180447
0.0180945 0.0181442 0.018194 0.0182439 0.0182939 0.0183443 0.0183947 0.0184452 0.0184958 0.0185465
0.0185976 0.0186488 0.0187 0.0187512 0.0188026 0.0188544 0.0189063 0.0189582 0.0190102 0.0190623
0.0191148 0.0191674 0.0192201 0.0192728 0.0193255 0.0193788 0.0194322 0.0194855 0.019539 0.0195925
0.0196465 0.0197006 0.0197547 0.0198088 0.0198631 0.0199179 0.0199727 0.0200275 0.0200824 0.0201374
0.0201716 0.0202057 0.0202399 0.0202741 0.0203068 0.0203285 0.0203503 0.0203721 0.0203938 0.0204156
0.0204719 0.0205282 0.0205846 0.020641 0.0206975 0.0207545 0.0208116 0.0208687 0.0209259 0.0209831
0.0210409 0.0210987 0.0211566 0.0212146 0.0212726 0.0213311 0.0213897 0.0214484 0.0215071 0.0215659
0.0216252 0.0216845 0.0217439 0.0218034 0.021863 0.0219231 0.0219832 0.0220434 0.0221036 0.0221639
0.0222248 0.0222857 0.0223466 0.0224076 0.0224687 0.0224838 0.022499 0.0225141 0.0225292 0.022544
0.0225906 0.0226372 0.0226839 0.0227306 0.0227773 0.0228396 0.022902 0.0229645 0.023027 0.0230896
0.0231527 0.0232158 0.023279 0.0233422 0.0234055 0.0234694 0.0235333 0.0235972 0.0236611 0.0237252
0.0237898 0.0238544 0.023919 0.0239837 0.0240485 0.0241138 0.0241792 0.0242445 0.02431 0.0243755
0.0243783 0.0243811 0.0243839 0.0243867 0.0243895 0.0244527 0.0245161 0.0245794 0.0246428 0.0247063
0.0247731 0.02484 0.0249069 0.0249738 0.0250409 0.0251086 0.0251762 0.0252439 0.0253116 0.0253795
0.025448 0.0255165 0.025585 0.0256536 0.0257224 0.0257689 0.0258155 0.0258622 0.0259088 0.0259534
0.0259766 0.0259999 0.0260231 0.0260463 0.0260696 0.0261398 0.02621 0.0262802 0.0263505 0.026421
0.026492 0.026563 0.0266341 0.0267053 0.0267764 0.0268481 0.0269199 0.0269916 0.0270634 0.0271351
0.0271852 0.0272352 0.0272851 0.027335 0.0273812 0.0274039 0.0274267 0.0274495 0.0274722 0.0274949
0.0275672 0.0276393 0.0277111 0.0277827 0.0278543 0.027926 0.0279975 0.0280688 0.0281397 0.0282106
0.0282758 0.0283406 0.0284051 0.0284693 0.0285175 0.0285262 0.0285348 0.0285435 0.0285521 0.0285608
0.0286304 0.0286996 0.0287683 0.0288367 0.0289056 0.0289741 0.0290422 0.0291099 0.0291772 0.0292454
0.0292512 0.0292569 0.0292627 0.0292684 0.029274 0.0293361 0.0293979 0.0294595 0.0295209 0.0295833
0.0296375 0.0296915 0.0297453 0.0297992 0.0298436 0.0298594 0.0298752 0.0298911 0.0299069 0.0299228
0.0299914 0.03006 0.0301284 0.0301969 0.0302675 0.0302795 0.0302916 0.0303037 0.0303158 0.0303276
0.0303861 0.0304448 0.0305035 0.0305624 0.0306228 0.030653 0.0306831 0.0307134 0.0307437 0.0307724
0.0308162 0.0308601 0.0309041 0.0309483 0.0309934 0.0310329 0.0310726 0.0311124 0.0311524 0.0311904
0.0312287 0.0312672 0.0313057 0.0313445 0.0313838 0.0314275 0.0314714 0.0315154 0.0315597 0.0316026
0.0316414 0.0316804 0.0317195 0.0317588 0.0317987 0.0318429 0.0318872 0.0319318 0.0319767 0.032021
0.0320648 0.0321088 0.032153 0.0321975 0.0322425 0.0322848 0.0323274 0.0323701 0.0324132 0.0324565
0.0325082 0.0325604 0.0326128 0.0326656 0.0327188 0.0327586 0.0327985 0.0328386 0.032879 0.0329202
0.0329813 0.0330428 0.0331048 0.0331674 0.0332299 0.0332685 0.0333072 0.0333461 0.0333852 0.0334259
0.033495 0.0335646 0.0336349 0.0337057 0.033776 0.0338183 0.0338609 0.0339035 0.0339464 0.0339919
0.0340638 0.0341361 0.034209 0.0342824 0.0343549 0.0344116 0.0344685 0.0345257 0.0345832 0.0346468
0.0347094 0.0347722 0.0348354 0.0348988 0.0349613 0.0350518 0.0351427 0.0352341 0.0353259 0.0354384
0.0354679 0.0354975 0.0355271 0.0355567 0.0355861 0.0357128 0.0358398 0.0359671 0.0360948 0.0362186
0.0362677 0.0363167 0.0363657 0.0364148 0.0364724 0.0365481 0.0366237 0.0366992 0.0367746 0.0368487
0.0369739 0.0370987 0.0372229 0.0373466 0.0374676 0.0375896 0.037711 0.0378316 0.0379512 0.0380716
0.0380829 0.0380942 0.0381056 0.0381169 0.0381287 0.0382306 0.0383318 0.0384323 0.038532 0.0386302
0.038743 0.0388545 0.0389648 0.0390738 0.0391812 0.0392917 0.0394008 0.0395087 0.0396153 0.0397206
0.039776 0.0398311 0.0398859 0.0399404 0.0400091 0.0400575 0.0401058 0.0401538 0.0402015 0.040249
0.0403556 0.0404611 0.0405654 0.0406687 0.0407711 0.0408765 0.0409806 0.0410837 0.0411858 0.0412872
0.0413916 0.0414949 0.0415971 0.0416984 0.0417991 0.041903 0.0420058 0.0421077 0.0422087 0.0423093
0.0424131 0.0425159 0.0426179 0.0427192 0.0428201 0.0429243 0.0430277 0.0431303 0.0432324 0.043334
0.0434391 0.0435435 0.0436472 0.0437504 0.0438533 0.0439598 0.0440656 0.0441709 0.0442757 0.0443802
0.0444885 0.0445962 0.0447034 0.0448102 0.0449167 0.0450271 0.045137 0.0452464 0.0453556 0.0454644
0.0455773 0.0456897 0.0458018 0.0459136 0.0460251 0.0461408 0.0462561 0.046371 0.0464857 0.0466002
0.0467191 0.0468375 0.0469556 0.0470734 0.0471911 0.0473134 0.0474352 0.0475565 0.0476777 0.0477988
0.0479245 0.0480497 0.0481745 0.0482991 0.0484235 0.0485528 0.0486815 0.0488097 0.0489376 0.0490654
0.0491981 0.0493302 0.0494616 0.0495927 0.0497237 0.0498598 0.0499951 0.0501298 0.050264 0.0503979
0.050537 0.050675 0.0508122 0.0509489 0.0510854 0.0512273 0.0513683 0.0515086 0.0516479 0.0517865
0.0519296 0.0520711 0.0522111 0.0523505 0.0524902 -9.99991e-06 -7.99992e-06 -5.99993e-06 -3.99995e-06 -1.99997e-06
0 2.96563e-05 5.93113e-05 8.8964e-05 0.000118614 0.00014826 0.000178635 0.000209006 0.000239371 0.00026973
0.000300081 0.00032921 0.000358331 0.000387445 0.00041655 0.000445648 0.000473574 0.000501492 0.000529404 0.000557308
0.000585206 0.000611982 0.000638752 0.000665517 0.000692276 0.000719029 0.000744708 0.000770382 0.000796051 0.000821716
0.000847375 0.000872005 0.00089663 0.00092125 0.000945867 0.000970479 0.000994104 0.00101773 0.00104134 0.00106496
0.00108857 0.00111123 0.00113389 0.00115655 0.0011792 0.00120185 0.00122359 0.00124533 0.00126706 0.0012888
0.00131053 0.00133138 0.00135224 0.00137309 0.00139394 0.00141479 0.0014348 0.00145481 0.00147482 0.00149483
0.00151483 0.00153403 0.00155323 0.00157243 0.00159162 0.00161082 0.00162924 0.00164766 0.00166608 0.0016845
0.00170292 0.0017206 0.00173828 0.00175596 0.00177364 0.00179131 0.00180828 0.00182525 0.00184221 0.00185917
0.00187614 0.00189242 0.0019087 0.00192499 0.00194127 0.00195755 0.00197317 0.0019888 0.00200443 0.00202006
0.00203568 0.00204611 0.00205654 0.00206697 0.0020774 0.00208783 0.00209835 0.00210886 0.00211937 0.00212987
0.00214038 0.00215097 0.00216156 0.00217215 0.00218274 0.00219333 0.002204 0.00221467 0.00222535 0.00223601
0.00224668 0.00225744 0.00226819 0.00227894 0.00228969 0.00230044 0.00231128 0.00232211 0.00233294 0.00234378
0.00235461 0.00236552 0.00237644 0.00238736 0.00239827 0.00240919 0.00242019 0.00243119 0.00244219 0.00245319
0.00246418 0.00247527 0.00248635 0.00249744 0.00250852 0.0025196 0.00253077 0.00254194 0.00255311 0.00256428
0.00257544 0.0025867 0.00259795 0.00260921 0.00262046 0.00263171 0.00264306 0.0026544 0.00266574 0.00267708
0.00268842 0.00269985 0.00271127 0.0027227 0.00273413 0.00274556 0.00275707 0.00276859 0.00278011 0.00279162
0.00280314 0.00281474 0.00282635 0.00283795 0.00284956 0.00286116 0.00287286 0.00288455 0.00289625 0.00290794
0.00291964 0.00293142 0.00294321 0.00295499 0.00296678 0.00297856 0.00299044 0.00300232 0.00301419 0.00302607
0.00303795 0.00304992 0.00306188 0.00307385 0.00308582 0.00309779 0.00310985 0.00312191 0.00313398 0.00314604
0.0031581 0.00317026 0.00318241 0.00319457 0.00320672 0.00321888 0.00323113 0.00324338 0.00325563 0.00326788
0.00328013 0.00329247 0.00330482 0.00331716 0.0033295 0.00334185 0.00335429 0.00336673 0.00337917 0.00339161
0.00340405 0.00341659 0.00342912 0.00344166 0.0034542 0.00346673 0.00347937 0.003492 0.00350463 0.00351726
0.0035299 0.00354263 0.00355536 0.00356809 0.00358082 0.00359355 0.00360637 0.0036192 0.00363203 0.00364486
0.00365768 0.00366099 0.00366429 0.0036676 0.0036709 0.00367421 0.00368383 0.00369345 0.00370307 0.00371269
0.00372231 0.00373533 0.00374835 0.00376138 0.0037744 0.00378742 0.00380054 0.00381366 0.00382679 0.00383991
0.00385303 0.00386625 0.00387947 0.00389269 0.00390591 0.00391912 0.00393244 0.00394576 0.00395908 0.0039724
0.00398572 0.00399914 0.00401255 0.00402597 0.00403939 0.00405281 0.00406632 0.00407984 0.00409336 0.00410688
0.00412039 0.00413401 0.00414763 0.00416125 0.00417486 0.00418848 0.0042022 0.00421592 0.00422964 0.00424336
0.00425707 0.0042709 0.00428472 0.00429854 0.00431236 0.00432618 0.0043401 0.00435402 0.00436795 0.00438187
0.00439579 0.00440982 0.00442385 0.00443788 0.0044519 0.00446593 0.00448006 0.00449419 0.00450833 0.00452246
0.00453659 0.00455083 0.00456507 0.00457931 0.00459355 0.00460779 0.00462214 0.00463649 0.00465083 0.00466518
0.00467953 0.00469399 0.00470845 0.00472291 0.00473737 0.00475183 0.0047664 0.00478097 0.00479554 0.00481012
0.00482469 0.00483938 0.00485406 0.00486875 0.00488344 0.00489813 0.00491293 0.00492774 0.00494254 0.00495735
0.00497216 0.00498708 0.00500201 0.00501694 0.00503186 0.00504679 0.00506184 0.00507689 0.00509194 0.00510699
0.00512204 0.00513722 0.00515239 0.00516757 0.00518275 0.00519793 0.00521323 0.00522853 0.00524384 0.00525914
0.00527446 0.00528989 0.00530532 0.00532076 0.0053362 0.00535164 0.00536721 0.00538278 0.00539835 0.00541393
0.00542951 0.00544521 0.00546091 0.00547662 0.00549234 0.00550805 0.00551901 0.00552996 0.00554092 0.00555188
0.00556285 0.00556774 0.00557263 0.00557752 0.00558241 0.0055873 0.00560328 0.00561927 0.00563526 0.00565125
0.00566725 0.00568338 0.00569951 0.00571564 0.00573178 0.00574792 0.00576419 0.00578046 0.00579674 0.00581302
0.00582931 0.00584573 0.00586215 0.00587857 0.005895 0.00591143 0.005928 0.00594457 0.00596114 0.00597771
0.00599429 0.00601101 0.00602773 0.00604445 0.00606117 0.00607789 0.00609477 0.00611164 0.0061285 0.00614537
0.00616225 0.00617928 0.0061963 0.00621331 0.00623033 0.00624736 0.00626455 0.00628172 0.00629888 0.00631604
0.00633323 0.00635057 0.0063679 0.00638521 0.00640253 0.00641987 0.00643737 0.00645486 0.00647232 0.00648979
0.00650729 0.00652496 0.00654261 0.00656023 0.00657786 0.00659552 0.00661336 0.00663116 0.00664894 0.00666673
0.00668456 0.00670257 0.00672054 0.00673849 0.00675644 0.00677444 0.00679262 0.00681077 0.00682889 0.00684701
0.00686518 0.00688355 0.00690188 0.00692017 0.00693848 0.00695683 0.00697539 0.0069939 0.00701238 0.00703088
0.00704943 0.00706818 0.00708688 0.00710556 0.00712426 0.007143 0.00716196 0.00718086 0.00719975 0.00721866
0.0072376 0.00725677 0.00727588 0.00729499 0.00731411 0.00733327 0.00735265 0.00737198 0.00739131 0.00741066
0.00743003 0.00744963 0.00746919 0.00748875 0.00750833 0.00752793 0.00754776 0.00756754 0.00758734 0.00760716
0.007627 0.00764706 0.00766708 0.00768712 0.00770718 0.00772726 0.00774755 0.00776782 0.00778811 0.00780842
0.00782875 0.00784928 0.0078698 0.00789034 0.0079109 0.00793148 0.00795226 0.00797303 0.00799383 0.00801464
0.00803547 0.0080565 0.00807754 0.00809859 0.00811965 0.00814074 0.00816203 0.00818332 0.00820463 0.00822596
0.0082473 0.00826885 0.0082904 0.00831197 0.00833356 0.00835517 0.00837425 0.00839333 0.00841244 0.00843155
0.00844886 0.00845196 0.00845506 0.00845816 0.00846127 0.00846437 0.00848644 0.00850852 0.00853063 0.00855275
0.0085749 0.00859724 0.00861959 0.00864197 0.00866437 0.00868679 0.00870941 0.00873204 0.00875469 0.00877737
0.00880006 0.00882296 0.00884587 0.00886881 0.00889176 0.00891474 0.00893792 0.00896112 0.00898434 0.00900758
0.00903085 0.00905432 0.0090778 0.00910131 0.00912484 0.0091484 0.00917216 0.00919595 0.00921975 0.00924358
0.00926743 0.00929149 0.00931558 0.00933968 0.00936381 0.00938796 0.00941233 0.00943672 0.00946113 0.00948556
0.00951003 0.00953471 0.00955941 0.00958413 0.00960888 0.00963365 0.00965865 0.00968367 0.00970871 0.00973378
0.00975888 0.0097842 0.00980954 0.00983491 0.0098603 0.00988572 0.00991138 0.00993705 0.00996275 0.00998847
0.0100142 0.0100402 0.0100662 0.0100923 0.0101183 0.0101444 0.0101707 0.0101971 0.0102235 0.0102499
0.0102763 0.010303 0.0103297 0.0103564 0.0103832 0.01041 0.010437 0.0104641 0.0104912 0.0105183