/*--------------------------------*- C++ -*----------------------------------*\
  =========                 |
  \\      /  F ield         | OpenFOAM: The Open Source CFD Toolbox
   \\    /   O peration     | Website:  https://openfoam.org
    \\  /    A nd           | Version:  13
     \\/     M anipulation  |
\*---------------------------------------------------------------------------*/
FoamFile
{
    format      ascii;
    class       volScalarField;
    location    "7.5";
    object      epsilon;
}
// * * * * * * * * * * * * * * * * * * * * * * * * * * * * * * * * * * * * * //

dimensions      [0 2 -3 0 0 0 0];

internalField   nonuniform List<scalar> 
400
(
1.8147e-05
5.76336e-05
0.000251524
0.000550175
0.000761486
0.000920766
0.0010497
0.00117305
0.00128115
0.00139184
0.00149564
0.00160532
0.00171586
0.00179158
0.00182649
0.00183033
0.00169908
0.00134322
0.000823674
0.000593432
8.27269e-05
0.000234232
0.000638156
0.000926955
0.000998013
0.00102761
0.00103782
0.00108249
0.00112922
0.0012148
0.00131911
0.00145594
0.00161767
0.00180998
0.00202305
0.00223648
0.00233811
0.00234754
0.00185667
0.00122275
0.000280056
0.0007381
0.000967665
0.0010031
0.000991051
0.00098495
0.000980022
0.00101754
0.00107727
0.00115414
0.00124072
0.00133733
0.00145169
0.00159449
0.00177265
0.00199102
0.0021863
0.00226624
0.00209587
0.00158462
0.00064152
0.00101583
0.00104381
0.000975251
0.00092946
0.000898038
0.000892992
0.000918263
0.000947073
0.00097753
0.00101553
0.00107404
0.00116692
0.00130441
0.00150942
0.00178992
0.00210127
0.00224393
0.00221204
0.00182075
0.00093188
0.00116086
0.00102162
0.000899476
0.000818646
0.000778083
0.000756004
0.000741323
0.000725041
0.000718068
0.000719579
0.00075694
0.000836622
0.000980529
0.00121896
0.0015808
0.00206234
0.00235403
0.00239372
0.00199859
0.00109466
0.00115774
0.000959016
0.000797073
0.000712334
0.000656837
0.000607954
0.000557563
0.000508589
0.000477435
0.000465537
0.000476825
0.000543894
0.000678513
0.000925145
0.00134008
0.00196606
0.00251341
0.00265178
0.00214268
0.00112496
0.00111757
0.000867009
0.000706779
0.000619084
0.000549099
0.000479488
0.00040888
0.000346485
0.000305807
0.000288551
0.000287207
0.000334798
0.000445575
0.000669411
0.00109301
0.00181837
0.00266422
0.00294674
0.00225512
0.00110804
0.0010315
0.000782516
0.000632534
0.000544104
0.000465046
0.000384653
0.000307618
0.000244739
0.000204588
0.000186687
0.000183363
0.000212697
0.000292513
0.000474681
0.000865692
0.00162281
0.00274873
0.00330514
0.00234734
0.00106513
0.000931058
0.000709646
0.000574549
0.000488287
0.000406017
0.000322864
0.000247246
0.000189027
0.000153287
0.000137578
0.000134791
0.000154028
0.000208847
0.000346669
0.00069041
0.00146548
0.00277486
0.00365863
0.00241239
0.000979288
0.000846527
0.000651199
0.000531277
0.000449292
0.000368514
0.000287697
0.000216289
0.000163722
0.000131845
0.000117595
0.00011588
0.000129686
0.000169528
0.000272446
0.000557679
0.00130364
0.00277679
0.00403438
0.00246257
0.000890922
0.000772856
0.000605079
0.000499394
0.000423311
0.000347105
0.000270955
0.000207044
0.000159781
0.000129676
0.000114188
0.000112092
0.000122751
0.000154823
0.00023809
0.000477036
0.00116953
0.00274097
0.00436941
0.00248722
0.000814231
0.000727436
0.000573151
0.000478196
0.000407515
0.000337686
0.000270855
0.00021053
0.000165336
0.000136186
0.000120878
0.000118717
0.000126193
0.000152455
0.000226838
0.000438745
0.00107007
0.00271231
0.00466398
0.00249839
0.000731365
0.000687046
0.000555973
0.000466307
0.000401584
0.000338885
0.000276046
0.000221087
0.000179552
0.000151958
0.000136352
0.000134346
0.000140999
0.000164337
0.000229178
0.000425929
0.00102213
0.0026983
0.00481639
0.00250078
0.000654997
0.00066877
0.000561884
0.000470628
0.000406132
0.000346172
0.000289013
0.000240394
0.00020239
0.000176307
0.000160027
0.000158265
0.000164921
0.000188459
0.000252714
0.000438483
0.00100622
0.0026957
0.00487447
0.00249587
0.000567721
0.000642422
0.000574374
0.000486495
0.000421819
0.000363951
0.000311184
0.000266455
0.000231393
0.000207393
0.000191014
0.000190578
0.000198153
0.000224391
0.000294004
0.000488269
0.00104068
0.00274094
0.00483259
0.00245438
0.000479418
0.000630699
0.000603005
0.000530752
0.000462004
0.0004026
0.000350292
0.000306067
0.000271111
0.000247471
0.000231382
0.000232534
0.000243332
0.000277327
0.0003631
0.000590826
0.00116652
0.00286233
0.00456175
0.00237495
0.000379415
0.000579142
0.000613136
0.000589669
0.000537993
0.000479498
0.000423718
0.000375384
0.00033737
0.000311133
0.000298551
0.000303444
0.000323894
0.000380322
0.000510782
0.000833906
0.00149236
0.00314622
0.0041112
0.00224219
0.000256038
0.000519283
0.000680036
0.000730573
0.000715926
0.000668468
0.000605128
0.000549322
0.000507601
0.000484512
0.000490127
0.000517753
0.000582557
0.000721268
0.000999895
0.00164179
0.00244936
0.00373193
0.0038431
0.00206048
0.000282767
0.000532907
0.000905551
0.00108068
0.00114706
0.00114591
0.00113432
0.00113766
0.00116348
0.00122948
0.00136313
0.00158963
0.00189857
0.00240173
0.00303383
0.00399993
0.00464017
0.00444948
0.0038206
0.00180178
0.000204763
0.000321147
0.000587747
0.00084606
0.0010464
0.00117401
0.00124894
0.00129843
0.00132188
0.00134372
0.00135475
0.00137686
0.00139474
0.00143376
0.00146143
0.00152717
0.00159954
0.00167903
0.00166122
0.00148331
)
;

boundaryField
{
    movingWall
    {
        type            epsilonWallFunction;
        value           nonuniform List<scalar> 
20
(
0.000204763
0.000321147
0.000587747
0.00084606
0.0010464
0.00117401
0.00124894
0.00129843
0.00132188
0.00134372
0.00135475
0.00137686
0.00139474
0.00143376
0.00146143
0.00152717
0.00159954
0.00167903
0.00166122
0.00148331
)
;
    }
    fixedWalls
    {
        type            epsilonWallFunction;
        value           nonuniform List<scalar> 
60
(
1.8147e-05
8.27269e-05
0.000280056
0.00064152
0.00093188
0.00109466
0.00112496
0.00110804
0.00106513
0.000979288
0.000890922
0.000814231
0.000731365
0.000654997
0.000567721
0.000479418
0.000379415
0.000256038
0.000282767
0.000204763
0.000593432
0.00122275
0.00158462
0.00182075
0.00199859
0.00214268
0.00225512
0.00234734
0.00241239
0.00246257
0.00248722
0.00249839
0.00250078
0.00249587
0.00245438
0.00237495
0.00224219
0.00206048
0.00180178
0.00148331
1.8147e-05
5.76336e-05
0.000251524
0.000550175
0.000761486
0.000920766
0.0010497
0.00117305
0.00128115
0.00139184
0.00149564
0.00160532
0.00171586
0.00179158
0.00182649
0.00183033
0.00169908
0.00134322
0.000823674
0.000593432
)
;
    }
    frontAndBack
    {
        type            empty;
    }
}


// ************************************************************************* //
