/*--------------------------------*- C++ -*----------------------------------*\
  =========                 |
  \\      /  F ield         | OpenFOAM: The Open Source CFD Toolbox
   \\    /   O peration     | Website:  https://openfoam.org
    \\  /    A nd           | Version:  13
     \\/     M anipulation  |
\*---------------------------------------------------------------------------*/
FoamFile
{
    format      ascii;
    class       volScalarField;
    location    "7.5";
    object      k;
}
// * * * * * * * * * * * * * * * * * * * * * * * * * * * * * * * * * * * * * //

dimensions      [0 2 -2 0 0 0 0];

internalField   nonuniform List<scalar> 
1600
(
2.09736e-06
7.24258e-06
1.4201e-05
1.42154e-05
1.30254e-05
1.33125e-05
1.71226e-05
2.91123e-05
4.39781e-05
6.35233e-05
9.87157e-05
0.000123046
0.000134478
0.000148394
0.00017109
0.00020082
0.00022853
0.000260281
0.000291072
0.000326152
0.000362275
0.000403441
0.000448225
0.000500319
0.000561205
0.000615207
0.000670549
0.000717548
0.000758426
0.000780468
0.000789221
0.000773223
0.000709918
0.000602123
0.000451815
0.00026634
0.000128924
5.38984e-05
1.71245e-05
3.54723e-06
1.01391e-05
4.68089e-05
9.02435e-05
9.67546e-05
9.41303e-05
0.000100462
0.000141229
0.000242061
0.000340229
0.000465803
0.000675785
0.000777247
0.000798073
0.000798882
0.000798595
0.000834029
0.000853635
0.000895918
0.000929245
0.000977631
0.00102439
0.0010803
0.00113592
0.00119261
0.0012455
0.00131136
0.00137541
0.00144411
0.00150209
0.00153616
0.00154821
0.00151257
0.00140518
0.00121115
0.000951304
0.000581413
0.000261874
0.000109035
3.83473e-05
6.09886e-06
3.06454e-05
0.000122725
0.000193842
0.000207274
0.000225723
0.000296398
0.000489225
0.000797645
0.0010472
0.00113599
0.00107737
0.000966206
0.000912613
0.000893347
0.000888378
0.000893758
0.000904856
0.000923207
0.000943615
0.000970838
0.000996715
0.00102428
0.00105337
0.00108583
0.00112102
0.00115917
0.00119864
0.00123968
0.00127958
0.00131686
0.00133754
0.00134536
0.00132768
0.00121642
0.00103103
0.000656844
0.000242731
8.92727e-05
3.43806e-05
4.99694e-06
7.06595e-05
0.000253134
0.00035119
0.000391269
0.000487687
0.000718193
0.00105566
0.00123691
0.00126353
0.00112189
0.00101446
0.000929028
0.000892716
0.000878244
0.000873501
0.000874274
0.000881625
0.000892149
0.000904507
0.000919475
0.000936032
0.000956653
0.000977354
0.00100056
0.00102447
0.00105
0.00107657
0.00110403
0.00113093
0.00115486
0.00117161
0.00117931
0.00118069
0.00115622
0.00109477
0.000916663
0.000393789
9.45868e-05
2.57159e-05
3.45589e-06
0.0001339
0.000443815
0.000577015
0.000668827
0.000862168
0.00115993
0.00130941
0.00132036
0.00118967
0.00100441
0.000911164
0.000866662
0.000846699
0.000838289
0.00083581
0.000840658
0.000853458
0.000867621
0.00088494
0.000902612
0.000920924
0.000939039
0.000957164
0.000976127
0.000996429
0.00101886
0.00104364
0.00107023
0.00109635
0.0011177
0.00113206
0.00113872
0.00114046
0.00112909
0.00109963
0.00102614
0.000769479
0.000212305
3.59436e-05
4.02731e-06
0.000224501
0.00068151
0.000850628
0.00098302
0.00119719
0.00132611
0.00133923
0.00122974
0.00100158
0.000889212
0.000837816
0.00081488
0.000806309
0.000804671
0.00081345
0.000827792
0.000844753
0.000861405
0.000878888
0.000895443
0.000911883
0.000927952
0.000944754
0.000962736
0.000983424
0.00100736
0.00103526
0.00106709
0.00110196
0.00113887
0.00115819
0.00116325
0.00116054
0.00114382
0.00110813
0.00105131
0.000913595
0.000440438
7.8627e-05
7.63863e-06
0.000339875
0.000926879
0.00112567
0.00124251
0.00133282
0.00134785
0.00125758
0.00102122
0.000876693
0.000814965
0.00078902
0.000780007
0.000778673
0.000788664
0.000802934
0.000817542
0.000831714
0.000844662
0.000856299
0.000866115
0.00087579
0.000886858
0.000901061
0.000919383
0.000942508
0.000971634
0.00100738
0.00104989
0.00109815
0.0011493
0.00120231
0.00124003
0.0012486
0.00123981
0.00119412
0.00110234
0.000966742
0.000692912
0.00016014
1.73653e-05
0.000463313
0.00116981
0.00134428
0.00138216
0.00138198
0.0012874
0.00107221
0.00088182
0.000800875
0.000768614
0.000757621
0.000755765
0.000763637
0.000776232
0.000786536
0.000795113
0.00079971
0.000801849
0.00080275
0.000804123
0.000808217
0.000815688
0.000827813
0.00084549
0.00087
0.000902555
0.000944361
0.000996365
0.00105871
0.00112961
0.00120374
0.00127248
0.00131621
0.00132403
0.00131118
0.00123476
0.00106581
0.000792903
0.00027465
4.36162e-05
0.000570137
0.00136589
0.00150053
0.00147364
0.0013486
0.00115016
0.000913316
0.000800282
0.000754636
0.000738663
0.000735005
0.000738328
0.000747084
0.000751368
0.00075268
0.000750071
0.000743888
0.000737202
0.000731506
0.00072886
0.000728328
0.000733041
0.000743426
0.000760246
0.000784729
0.000818101
0.000861941
0.000918021
0.000988088
0.00107295
0.00117057
0.00127274
0.00135659
0.00139479
0.00139758
0.00135694
0.00121983
0.000947944
0.000499425
0.000118131
0.000648361
0.00149849
0.00160078
0.00147331
0.00126435
0.000994947
0.000822458
0.000750942
0.000724188
0.00071616
0.000714984
0.00071783
0.000718963
0.000714624
0.000705541
0.000693267
0.000679804
0.000667548
0.000657636
0.000652327
0.000650414
0.000652729
0.000662404
0.000678335
0.00070215
0.000734801
0.000777967
0.000833724
0.000904766
0.000994011
0.00110338
0.00123081
0.00136484
0.00145584
0.00148252
0.00146498
0.00134594
0.00106758
0.000608398
0.00021061
0.000704451
0.00158656
0.00166156
0.00144676
0.00114553
0.000886791
0.000766449
0.000718027
0.000700389
0.000694696
0.000692783
0.000690837
0.000683097
0.000669565
0.000652413
0.000633917
0.00061622
0.000600994
0.000589144
0.000582614
0.000580132
0.000581195
0.000590355
0.000605523
0.000628459
0.000659955
0.000701593
0.000755418
0.000824366
0.000912317
0.0010236
0.00116084
0.00131974
0.00147969
0.00156157
0.00157339
0.00149794
0.00123326
0.000751591
0.000300244
0.000735186
0.00162054
0.00166463
0.00138753
0.00103457
0.000819228
0.000728371
0.000692207
0.000678315
0.000672412
0.000667528
0.000658405
0.000642519
0.000622072
0.000599742
0.000577829
0.000558062
0.000541543
0.000528916
0.000521763
0.000518972
0.000519257
0.000527671
0.00054203
0.000563927
0.000594158
0.000634153
0.000685805
0.000751951
0.000836801
0.000946215
0.00108683
0.00126219
0.0014633
0.00161406
0.00165812
0.00161675
0.00136668
0.000869197
0.000372634
0.000734335
0.00161725
0.00164844
0.00131135
0.000947742
0.000772187
0.000699025
0.000669277
0.000656628
0.00064938
0.000639542
0.000623496
0.000601442
0.000576498
0.000551297
0.000527787
0.00050719
0.000490198
0.000477235
0.000469504
0.00046632
0.000466113
0.000473413
0.000486821
0.000507534
0.000536438
0.000574837
0.000624438
0.000687756
0.000768695
0.000873303
0.00101003
0.00118763
0.00140704
0.00163635
0.00174445
0.00174466
0.00152217
0.000989253
0.000440527
0.000725212
0.0015982
0.00160939
0.00123122
0.000887755
0.000736756
0.000674292
0.000648016
0.000635797
0.000625715
0.000610668
0.000589071
0.000562859
0.00053531
0.000508741
0.000484643
0.000463816
0.000446679
0.000433504
0.000425134
0.000421449
0.000420879
0.000426878
0.000439173
0.000458585
0.000486092
0.000522959
0.00057079
0.00063185
0.000709672
0.000810093
0.000942443
0.00111941
0.00135138
0.00162885
0.0018162
0.00184881
0.00166193
0.00110864
0.000503313
0.000703285
0.00155571
0.00155087
0.00116085
0.000843347
0.000708261
0.000652512
0.00062834
0.00061586
0.000602408
0.000582833
0.000557232
0.000528449
0.000499557
0.000472485
0.000448307
0.000427523
0.000410377
0.000397049
0.00038807
0.000383881
0.000382951
0.000387678
0.000398731
0.000416722
0.000442691
0.000477929
0.000524008
0.000583
0.000658002
0.000754196
0.000880547
0.00105125
0.00128312
0.00158103
0.00186122
0.00195312
0.0018075
0.00122887
0.00056472
0.000665112
0.00150109
0.00148529
0.00110241
0.000808721
0.000684523
0.000633301
0.000610756
0.000597194
0.000580565
0.000557457
0.000529169
0.000498919
0.000469458
0.000442348
0.000418346
0.000397751
0.000380699
0.000367313
0.000357844
0.000353188
0.000351918
0.00035551
0.00036526
0.00038173
0.000406012
0.000439471
0.000483741
0.000540847
0.000613613
0.00070666
0.000828368
0.000993556
0.00122349
0.00153272
0.00187967
0.00204009
0.00194497
0.00135229
0.000624378
0.000621196
0.00143881
0.00141774
0.00105479
0.000781301
0.00066462
0.000616622
0.000595203
0.000580277
0.00056102
0.000535364
0.000505392
0.000474397
0.000444813
0.000417912
0.000394226
0.000373924
0.000357066
0.000343723
0.000334025
0.000328915
0.000327328
0.000329966
0.000338425
0.000353319
0.000375783
0.000407277
0.000449555
0.000504696
0.000575358
0.00066557
0.000782704
0.000941091
0.0011654
0.00148312
0.00188252
0.00212179
0.00207976
0.00147597
0.000683683
0.000568963
0.00137811
0.0013531
0.00101685
0.000760001
0.000648284
0.000602471
0.000581697
0.000565467
0.000544252
0.000516906
0.000485974
0.000454693
0.000425243
0.000398686
0.000375404
0.000355477
0.000338911
0.000325729
0.000316009
0.000310495
0.000308604
0.00031047
0.000317714
0.000331039
0.000351621
0.00038101
0.000421125
0.000474209
0.000542944
0.000630984
0.000744689
0.00089706
0.00111335
0.00142981
0.00185842
0.0021914
0.00220874
0.00160773
0.000742559
0.000517783
0.0013151
0.001293
0.000987656
0.000744173
0.00063496
0.000590505
0.000570113
0.000552909
0.000530424
0.000502109
0.000470751
0.000439484
0.000410314
0.000384168
0.000361338
0.000341846
0.00032565
0.000312727
0.00030311
0.000297273
0.000295073
0.000296323
0.000302468
0.000314299
0.00033302
0.000360239
0.000398052
0.00044892
0.000515692
0.000601838
0.000712812
0.000860038
0.00106823
0.00137965
0.00182553
0.00225309
0.00233331
0.00174047
0.000801038
0.000458032
0.0012613
0.00123948
0.000965457
0.00073356
0.000625072
0.00058089
0.000560439
0.000542587
0.000519463
0.000490791
0.000459405
0.000428351
0.00039955
0.000373853
0.000351498
0.000332469
0.000316683
0.000304077
0.00029464
0.000288589
0.000286049
0.000286791
0.000291961
0.000302439
0.000319423
0.000344505
0.000379972
0.000428513
0.000493285
0.0005778
0.000686779
0.00082987
0.00103011
0.0013334
0.00178802
0.00229566
0.00245522
0.00188153
0.000859486
0.00040954
0.00120316
0.00119352
0.0009501
0.000728496
0.000617626
0.000572827
0.000552305
0.000534283
0.000511136
0.000482641
0.000451608
0.000420973
0.000392588
0.000367313
0.000345406
0.000326827
0.000311455
0.00029918
0.000289951
0.000283834
0.000280983
0.00028149
0.000285882
0.000295113
0.000310337
0.000333338
0.000366538
0.000412702
0.000475406
0.000558419
0.000665968
0.00080592
0.00099895
0.00129301
0.00175231
0.00232585
0.00257431
0.00202516
0.000917209
0.000368228
0.00114328
0.00114986
0.000942697
0.000729853
0.000615054
0.000567309
0.00054575
0.000527745
0.000505094
0.000477282
0.000446841
0.000416664
0.000388771
0.000364093
0.000342739
0.000324643
0.000309657
0.000297645
0.000288536
0.000282366
0.000279313
0.000279697
0.000283521
0.000291869
0.000305867
0.000327061
0.000357754
0.000401286
0.000461912
0.000543514
0.000650106
0.00078782
0.000974238
0.00125754
0.00171783
0.00234092
0.00269051
0.00217668
0.000974777
0.000331654
0.00108442
0.00111094
0.000943103
0.000735162
0.000616464
0.000563265
0.000540472
0.000522651
0.00050093
0.000474207
0.000444966
0.000415972
0.000388828
0.000364414
0.000343246
0.000325317
0.000310488
0.00029862
0.000289622
0.000283501
0.0002804
0.000280596
0.000283694
0.000291242
0.000304479
0.000324664
0.000353627
0.000395028
0.000453212
0.000533099
0.000639112
0.000775582
0.000956035
0.00122772
0.00168533
0.0023479
0.00280439
0.00233222
0.00103112
0.000298321
0.0010274
0.00107603
0.000945764
0.000747174
0.000621355
0.000563429
0.00053666
0.000518799
0.000498301
0.000473197
0.000445387
0.000417037
0.000390342
0.000366358
0.00034552
0.00032788
0.00031333
0.000301743
0.000292985
0.000287031
0.000284028
0.000284226
0.00028693
0.000293705
0.000305894
0.000324632
0.000352492
0.0003927
0.000449247
0.000527973
0.000633687
0.000769637
0.000944982
0.0012032
0.0016528
0.00234988
0.00291409
0.00249425
0.00108665
0.000267156
0.000972133
0.00104577
0.000952363
0.000763383
0.000631758
0.000565676
0.000535165
0.000515888
0.000496525
0.000473472
0.000446949
0.000419841
0.000394029
0.000370724
0.000350397
0.000333168
0.000318958
0.000307612
0.000299034
0.000293191
0.000290259
0.000290527
0.000293092
0.000299487
0.000311131
0.00032896
0.000355165
0.000393174
0.000448315
0.000526288
0.000631835
0.000767671
0.000940116
0.00118466
0.00162213
0.00234586
0.00302045
0.00266061
0.00114027
0.000237536
0.000918383
0.00101926
0.00095758
0.000789847
0.000649525
0.00057184
0.000536129
0.000514934
0.000496118
0.000474436
0.000450097
0.000424646
0.000399978
0.000377415
0.000357599
0.000340749
0.000326849
0.000315785
0.000307457
0.000301819
0.000299117
0.000299535
0.000302163
0.000308493
0.000319888
0.000337206
0.000362558
0.000399301
0.000452502
0.00052878
0.000633973
0.000769935
0.000939175
0.00117212
0.0015932
0.00233477
0.00312091
0.00283276
0.00119217
0.000208734
0.000864355
0.000996124
0.000957957
0.000821414
0.000675636
0.000584788
0.000539921
0.000515778
0.000496644
0.000476403
0.000454087
0.000430539
0.000407342
0.00038581
0.000366718
0.000350405
0.000336942
0.000326271
0.000318317
0.000313006
0.000310748
0.000311391
0.000314255
0.000320808
0.000332208
0.000349311
0.000374142
0.000410005
0.000462091
0.000537412
0.00064237
0.000778678
0.000945281
0.00116612
0.00156725
0.00232371
0.00321553
0.00300494
0.00124127
0.00018045
0.000809168
0.00097242
0.000955696
0.0008558
0.00070886
0.000606329
0.00054879
0.000519021
0.000498455
0.000479121
0.000458643
0.00043712
0.000415685
0.000395522
0.00037746
0.000361942
0.000349136
0.00033905
0.000331659
0.000326832
0.000325289
0.000326236
0.000329493
0.000336539
0.000348173
0.000365324
0.000389958
0.000425326
0.000476586
0.00055096
0.000655327
0.000791429
0.00095557
0.00116405
0.00154214
0.00230063
0.003306
0.00317875
0.00128797
0.000152043
0.000749645
0.000951044
0.00094945
0.000888189
0.000751129
0.00063759
0.000566626
0.000527052
0.00050287
0.000483142
0.000463865
0.000444184
0.000424638
0.000406134
0.000389443
0.000375055
0.000363209
0.00035398
0.0003474
0.000343278
0.000342727
0.000344062
0.000347878
0.000355672
0.000367729
0.000385156
0.000409881
0.000445123
0.000495939
0.000569546
0.000672984
0.000808178
0.000969491
0.00116449
0.0015201
0.00226992
0.00338797
0.00334513
0.00133119
0.000126561
0.000693472
0.000927273
0.000941189
0.000905741
0.000799926
0.000680529
0.000596059
0.000543834
0.000512435
0.000490114
0.000470724
0.000452185
0.000434275
0.000417476
0.000402368
0.000389396
0.000378813
0.000370747
0.000365195
0.000362245
0.000362564
0.00036454
0.000369268
0.000377869
0.000390515
0.000408422
0.000433492
0.000468943
0.000519622
0.000592521
0.000694437
0.000827548
0.000985289
0.00116823
0.00149872
0.00223133
0.00345743
0.00350168
0.00137186
0.000105569
0.0006337
0.000911797
0.000933917
0.000913955
0.000844695
0.000732646
0.000639353
0.000574235
0.000531906
0.000503456
0.000481473
0.000462517
0.00044536
0.000429852
0.000416221
0.000404745
0.000395577
0.000388921
0.000384488
0.000383231
0.000384157
0.000387009
0.000392984
0.000402414
0.00041578
0.000434345
0.00045998
0.000495915
0.000546637
0.000618725
0.000718283
0.000847784
0.00100073
0.00117176
0.00147909
0.00218933
0.00351011
0.00363674
0.00140942
8.6468e-05
0.000556387
0.000904927
0.00093254
0.000919794
0.000877557
0.000788005
0.000696302
0.000622227
0.000568312
0.000530167
0.000501964
0.000479656
0.000461125
0.000445477
0.000432408
0.000421889
0.000413837
0.000408409
0.000405165
0.000405364
0.000406975
0.000410864
0.000417999
0.000428306
0.000442472
0.000461834
0.000488182
0.000524753
0.000575462
0.000646354
0.000742436
0.000866598
0.00101346
0.00117393
0.00146342
0.00215171
0.00354471
0.00373907
0.00144586
6.85285e-05
0.000462429
0.000886171
0.000933286
0.00092703
0.000902529
0.000842595
0.000762389
0.000687956
0.00062615
0.000577805
0.000540487
0.000511336
0.000488203
0.000469751
0.000455185
0.000444049
0.000436009
0.000430828
0.000428448
0.00042907
0.00043131
0.000436133
0.000443974
0.000455016
0.000469898
0.000490052
0.000517073
0.000554183
0.000604468
0.000673467
0.000764854
0.000882258
0.00102257
0.00117645
0.00145705
0.00213368
0.0035668
0.00378832
0.00148277
5.91168e-05
0.000384527
0.000838316
0.000928351
0.000930203
0.000922196
0.000895347
0.000838465
0.000772578
0.000710401
0.000655657
0.000609384
0.00057113
0.000539999
0.000515078
0.000495536
0.000480759
0.000470056
0.000463187
0.000459206
0.000459413
0.0004612
0.000465511
0.000473205
0.000484364
0.000499478
0.000520053
0.000547346
0.000584534
0.000633697
0.000700088
0.00078619
0.000896894
0.00103285
0.00118907
0.00146677
0.00213028
0.00358947
0.00380549
0.00150863
6.06626e-05
0.000355787
0.000744704
0.000904233
0.000935067
0.000943517
0.000938692
0.000918777
0.000875874
0.000821913
0.000767772
0.00071691
0.000671231
0.000631541
0.000598067
0.000570565
0.000548693
0.000531848
0.000519596
0.000511437
0.000506692
0.000506808
0.000508861
0.000514047
0.000523962
0.000538313
0.000558603
0.000585647
0.000622561
0.000670553
0.000734948
0.000817938
0.000926151
0.00106646
0.00124219
0.00154655
0.00221295
0.0036329
0.00378593
0.0015178
8.50557e-05
0.00037546
0.000656107
0.000850194
0.000944891
0.000988011
0.00100947
0.00100976
0.000998682
0.000970158
0.000925527
0.00087673
0.000827734
0.00078139
0.000739182
0.000701855
0.000669907
0.000643117
0.000621835
0.000605128
0.000594027
0.000586289
0.000586301
0.000588858
0.000595517
0.000608853
0.000629305
0.000657421
0.000696306
0.000747144
0.000815594
0.00090565
0.0010254
0.0011914
0.00141262
0.00177753
0.00244255
0.00370357
0.00368149
0.00151255
0.000136083
0.000464563
0.000670954
0.000870054
0.00100217
0.00109447
0.00115463
0.00118045
0.00118425
0.00117489
0.00114981
0.00110747
0.00105825
0.00100654
0.000955844
0.000908357
0.000865862
0.000828782
0.000799987
0.000776811
0.0007625
0.000751686
0.000751674
0.000755305
0.000764753
0.000783783
0.000812031
0.000851231
0.000905202
0.000975859
0.0010703
0.00119499
0.00135968
0.0015882
0.0018852
0.0023413
0.00296727
0.003834
0.00358366
0.00146595
0.000225921
0.000650828
0.000837683
0.0010612
0.0012381
0.00137805
0.00147299
0.00152232
0.00152711
0.0015181
0.0014946
0.00145445
0.0014075
0.00135934
0.00131294
0.0012709
0.00123611
0.00120786
0.00118798
0.0011738
0.00117433
0.0011802
0.00119478
0.00122298
0.00126302
0.0013157
0.00138568
0.00147018
0.00157783
0.00170701
0.00187903
0.0020823
0.002348
0.00266238
0.00305847
0.00355034
0.00397935
0.00412463
0.00346547
0.00138142
0.000379483
0.00108424
0.00149723
0.00188012
0.00211504
0.00226303
0.00234614
0.00238113
0.00237383
0.00235522
0.00232798
0.00229733
0.00226622
0.00224199
0.00222261
0.0022151
0.00221919
0.00223138
0.00225722
0.00229525
0.00234691
0.00241313
0.00249406
0.00259014
0.00270569
0.00283532
0.00299294
0.0031583
0.00337026
0.00357089
0.00384294
0.00406946
0.00441617
0.00463422
0.00503979
0.0051067
0.00494974
0.00434187
0.003035
0.00120221
0.000257159
0.000396525
0.000517922
0.000640303
0.000752397
0.000853296
0.00093845
0.00100858
0.00105738
0.00108877
0.00110784
0.0011144
0.00111234
0.00110654
0.00109481
0.00108043
0.00106506
0.0010496
0.00103409
0.00102024
0.0010071
0.000996732
0.000987683
0.00098197
0.000978054
0.00097853
0.000980825
0.000986095
0.000997141
0.00100721
0.00102828
0.00104413
0.00108042
0.00110832
0.0011705
0.00120974
0.00127586
0.00128083
0.00123734
0.00103331
)
;

boundaryField
{
    movingWall
    {
        type            kqRWallFunction;
        value           nonuniform List<scalar> 
40
(
0.000257159
0.000396525
0.000517922
0.000640303
0.000752397
0.000853296
0.00093845
0.00100858
0.00105738
0.00108877
0.00110784
0.0011144
0.00111234
0.00110654
0.00109481
0.00108043
0.00106506
0.0010496
0.00103409
0.00102024
0.0010071
0.000996732
0.000987683
0.00098197
0.000978054
0.00097853
0.000980825
0.000986095
0.000997141
0.00100721
0.00102828
0.00104413
0.00108042
0.00110832
0.0011705
0.00120974
0.00127586
0.00128083
0.00123734
0.00103331
)
;
    }
    fixedWalls
    {
        type            kqRWallFunction;
        value           nonuniform List<scalar> 
120
(
2.09736e-06
1.01391e-05
3.06454e-05
7.06595e-05
0.0001339
0.000224501
0.000339875
0.000463313
0.000570137
0.000648361
0.000704451
0.000735186
0.000734335
0.000725212
0.000703285
0.000665112
0.000621196
0.000568963
0.000517783
0.000458032
0.00040954
0.000368228
0.000331654
0.000298321
0.000267156
0.000237536
0.000208734
0.00018045
0.000152043
0.000126561
0.000105569
8.6468e-05
6.85285e-05
5.91168e-05
6.06626e-05
8.50557e-05
0.000136083
0.000225921
0.000379483
0.000257159
3.54723e-06
6.09886e-06
4.99694e-06
3.45589e-06
4.02731e-06
7.63863e-06
1.73653e-05
4.36162e-05
0.000118131
0.00021061
0.000300244
0.000372634
0.000440527
0.000503313
0.00056472
0.000624378
0.000683683
0.000742559
0.000801038
0.000859486
0.000917209
0.000974777
0.00103112
0.00108665
0.00114027
0.00119217
0.00124127
0.00128797
0.00133119
0.00137186
0.00140942
0.00144586
0.00148277
0.00150863
0.0015178
0.00151255
0.00146595
0.00138142
0.00120221
0.00103331
2.09736e-06
7.24258e-06
1.4201e-05
1.42154e-05
1.30254e-05
1.33125e-05
1.71226e-05
2.91123e-05
4.39781e-05
6.35233e-05
9.87157e-05
0.000123046
0.000134478
0.000148394
0.00017109
0.00020082
0.00022853
0.000260281
0.000291072
0.000326152
0.000362275
0.000403441
0.000448225
0.000500319
0.000561205
0.000615207
0.000670549
0.000717548
0.000758426
0.000780468
0.000789221
0.000773223
0.000709918
0.000602123
0.000451815
0.00026634
0.000128924
5.38984e-05
1.71245e-05
3.54723e-06
)
;
    }
    frontAndBack
    {
        type            empty;
    }
}


// ************************************************************************* //
