/*--------------------------------*- C++ -*----------------------------------*\
  =========                 |
  \\      /  F ield         | OpenFOAM: The Open Source CFD Toolbox
   \\    /   O peration     | Website:  https://openfoam.org
    \\  /    A nd           | Version:  13
     \\/     M anipulation  |
\*---------------------------------------------------------------------------*/
FoamFile
{
    format      ascii;
    class       volScalarField;
    location    "7.5";
    object      nut;
}
// * * * * * * * * * * * * * * * * * * * * * * * * * * * * * * * * * * * * * //

dimensions      [0 2 -1 0 0 0 0];

internalField   nonuniform List<scalar> 
400
(
1.59764e-07
5.07589e-07
2.21387e-06
4.84038e-06
6.69839e-06
8.09908e-06
9.2329e-06
1.03175e-05
1.12681e-05
1.22415e-05
1.31543e-05
1.41188e-05
1.50909e-05
1.57563e-05
1.60632e-05
1.60968e-05
1.4942e-05
1.18124e-05
7.24351e-06
5.21851e-06
7.27983e-07
3.25618e-06
6.0152e-06
1.27394e-05
1.67385e-05
2.2674e-05
2.66157e-05
3.18972e-05
3.59908e-05
3.99275e-05
4.28884e-05
4.51126e-05
4.60495e-05
4.66884e-05
4.64934e-05
4.43063e-05
4.29083e-05
3.46992e-05
1.92158e-05
1.07525e-05
2.46339e-06
1.09611e-05
2.04394e-05
2.73011e-05
3.38527e-05
4.00831e-05
4.54253e-05
5.03704e-05
5.34816e-05
5.61056e-05
5.77702e-05
5.88189e-05
5.90559e-05
5.90488e-05
5.81037e-05
5.52171e-05
5.14678e-05
4.56531e-05
2.61097e-05
1.39344e-05
5.64241e-06
2.30186e-05
3.10556e-05
3.77262e-05
4.38546e-05
4.91275e-05
5.38187e-05
5.73816e-05
6.03815e-05
6.31344e-05
6.44646e-05
6.51167e-05
6.54184e-05
6.54142e-05
6.47889e-05
6.23856e-05
5.6388e-05
5.30583e-05
3.46526e-05
1.60103e-05
8.1963e-06
3.01549e-05
3.77241e-05
4.33483e-05
4.9861e-05
5.56815e-05
6.07968e-05
6.40148e-05
6.59014e-05
6.59296e-05
6.5792e-05
6.59987e-05
6.65714e-05
6.72771e-05
6.81948e-05
6.84868e-05
6.22559e-05
5.68132e-05
4.1337e-05
1.75736e-05
9.62671e-06
3.37903e-05
4.09524e-05
4.83992e-05
5.55708e-05
6.10622e-05
6.45519e-05
6.48007e-05
6.46622e-05
6.46034e-05
6.46391e-05
6.48719e-05
6.51966e-05
6.60912e-05
6.78427e-05
7.00692e-05
6.80018e-05
6.05186e-05
4.77902e-05
1.88401e-05
9.89234e-06
3.43559e-05
4.44216e-05
5.24817e-05
5.88166e-05
6.22934e-05
6.40199e-05
6.36858e-05
6.37856e-05
6.43634e-05
6.49598e-05
6.54182e-05
6.53793e-05
6.54609e-05
6.69375e-05
7.03105e-05
7.37572e-05
6.41015e-05
5.29408e-05
1.98283e-05
9.74344e-06
3.52921e-05
4.67727e-05
5.42409e-05
5.97981e-05
6.24476e-05
6.33487e-05
6.32761e-05
6.4227e-05
6.59225e-05
6.74119e-05
6.81735e-05
6.79341e-05
6.69194e-05
6.65359e-05
6.92793e-05
7.52023e-05
6.83356e-05
5.77404e-05
2.06387e-05
9.36594e-06
3.49376e-05
4.71616e-05
5.48241e-05
5.99947e-05
6.23017e-05
6.30607e-05
6.36148e-05
6.55818e-05
6.81989e-05
7.02125e-05
7.10453e-05
7.04715e-05
6.90814e-05
6.76148e-05
6.79624e-05
7.29303e-05
7.22878e-05
6.12245e-05
2.12103e-05
8.61092e-06
3.47354e-05
4.70793e-05
5.48533e-05
5.98949e-05
6.21612e-05
6.30318e-05
6.41902e-05
6.66953e-05
6.96294e-05
7.17261e-05
7.24417e-05
7.20339e-05
7.08763e-05
6.91962e-05
6.88507e-05
7.20275e-05
7.44566e-05
6.45792e-05
2.1651e-05
7.83392e-06
3.29392e-05
4.57501e-05
5.401e-05
5.92002e-05
6.17315e-05
6.30218e-05
6.41198e-05
6.62773e-05
6.89544e-05
7.12201e-05
7.22006e-05
7.21517e-05
7.14313e-05
7.03814e-05
6.95602e-05
7.19636e-05
7.63197e-05
6.70541e-05
2.18674e-05
7.15952e-06
3.07509e-05
4.46239e-05
5.30216e-05
5.86629e-05
6.13481e-05
6.23618e-05
6.37082e-05
6.55649e-05
6.77642e-05
6.95587e-05
7.0424e-05
7.07659e-05
7.11727e-05
7.07345e-05
7.01503e-05
7.18428e-05
7.74181e-05
6.88934e-05
2.19653e-05
6.43096e-06
2.70746e-05
4.15888e-05
5.063e-05
5.67555e-05
6.02731e-05
6.18589e-05
6.29184e-05
6.42524e-05
6.57724e-05
6.72174e-05
6.82525e-05
6.88399e-05
6.99543e-05
7.09358e-05
7.05621e-05
7.15181e-05
7.79077e-05
6.96341e-05
2.19861e-05
5.75942e-06
2.448e-05
3.88648e-05
4.81861e-05
5.45573e-05
5.92665e-05
6.08777e-05
6.18552e-05
6.28087e-05
6.38239e-05
6.518e-05
6.62257e-05
6.7204e-05
6.88747e-05
7.06756e-05
7.14419e-05
7.13986e-05
7.77586e-05
6.96965e-05
2.19424e-05
4.99218e-06
2.02971e-05
3.43146e-05
4.50006e-05
5.18727e-05
5.74127e-05
5.99447e-05
6.09215e-05
6.17163e-05
6.23579e-05
6.38164e-05
6.45848e-05
6.58244e-05
6.77094e-05
6.9735e-05
7.12802e-05
7.04361e-05
7.61428e-05
6.74112e-05
2.1577e-05
4.21573e-06
1.77802e-05
3.09603e-05
4.16008e-05
4.88155e-05
5.45806e-05
5.83711e-05
5.98661e-05
6.08327e-05
6.12527e-05
6.25243e-05
6.30677e-05
6.4095e-05
6.56001e-05
6.71847e-05
7.00028e-05
6.7955e-05
7.28607e-05
6.45572e-05
2.08782e-05
3.33682e-06
1.32742e-05
2.61691e-05
3.81016e-05
4.56632e-05
5.08766e-05
5.5291e-05
5.71881e-05
5.81445e-05
5.84643e-05
5.92268e-05
5.95788e-05
6.02317e-05
6.11477e-05
6.19247e-05
6.61409e-05
6.43121e-05
6.81827e-05
5.93241e-05
1.97103e-05
2.25202e-06
1.14661e-05
2.48819e-05
3.52492e-05
4.41433e-05
4.76153e-05
5.13082e-05
5.31868e-05
5.37632e-05
5.37469e-05
5.3711e-05
5.36814e-05
5.3933e-05
5.55044e-05
5.60616e-05
6.10111e-05
6.42246e-05
6.2222e-05
5.0663e-05
1.81125e-05
2.48638e-06
1.31488e-05
2.38544e-05
3.1381e-05
3.73857e-05
4.09345e-05
4.39124e-05
4.57587e-05
4.74824e-05
4.93145e-05
5.11727e-05
5.30457e-05
5.60299e-05
5.97251e-05
6.39151e-05
7.00098e-05
6.65966e-05
6.0334e-05
4.40963e-05
1.58377e-05
1.8006e-06
2.82364e-06
5.16726e-06
7.43825e-06
9.19948e-06
1.03207e-05
1.0979e-05
1.14137e-05
1.16195e-05
1.1811e-05
1.19077e-05
1.21016e-05
1.22584e-05
1.26008e-05
1.28438e-05
1.34213e-05
1.40571e-05
1.47564e-05
1.46001e-05
1.30373e-05
)
;

boundaryField
{
    movingWall
    {
        type            nutkWallFunction;
        Cmu             0.09;
        kappa           0.41;
        E               9.8;
        value           uniform 0;
    }
    fixedWalls
    {
        type            nutkWallFunction;
        Cmu             0.09;
        kappa           0.41;
        E               9.8;
        value           uniform 0;
    }
    frontAndBack
    {
        type            empty;
    }
}


// ************************************************************************* //
