/*--------------------------------*- C++ -*----------------------------------*\
  =========                 |
  \\      /  F ield         | OpenFOAM: The Open Source CFD Toolbox
   \\    /   O peration     | Website:  https://openfoam.org
    \\  /    A nd           | Version:  13
     \\/     M anipulation  |
\*---------------------------------------------------------------------------*/
FoamFile
{
    format      ascii;
    class       volScalarField;
    location    "7.5";
    object      p;
}
// * * * * * * * * * * * * * * * * * * * * * * * * * * * * * * * * * * * * * //

dimensions      [0 2 -2 0 0 0 0];

internalField   nonuniform List<scalar> 
400
(
5.85863e-08
-7.29475e-05
-0.000151116
-0.000315923
-0.00106291
-0.00240134
-0.00400282
-0.00555039
-0.00680774
-0.0076496
-0.00797387
-0.00769355
-0.00678667
-0.00523286
-0.00302981
-0.000301757
0.00266017
0.00528092
0.00690369
0.00724067
6.98817e-05
-1.8504e-05
-0.000201555
-0.000747591
-0.00176935
-0.00320688
-0.00478434
-0.00626484
-0.00747821
-0.00830503
-0.00864764
-0.00845902
-0.00769905
-0.00630942
-0.00429959
-0.00173837
0.00113984
0.00386855
0.00581085
0.00658303
0.00025064
-6.27371e-05
-0.000635292
-0.00160686
-0.00296825
-0.00453608
-0.00610666
-0.00753017
-0.00869237
-0.00946405
-0.00978455
-0.00962373
-0.00895733
-0.00777157
-0.00605448
-0.00383837
-0.00125429
0.00140774
0.00364539
0.00476871
6.091e-05
-0.000476803
-0.00146961
-0.00286235
-0.00449437
-0.00616376
-0.00771812
-0.00904691
-0.0100585
-0.0107094
-0.010978
-0.0108454
-0.0102894
-0.00930008
-0.0078707
-0.0060182
-0.00380911
-0.00140536
0.000831158
0.00202299
-0.000690075
-0.00141652
-0.00270402
-0.00434043
-0.00608572
-0.0077518
-0.00921914
-0.0104145
-0.0112965
-0.0118526
-0.0120762
-0.0119609
-0.0114992
-0.0106872
-0.00952149
-0.00801109
-0.00618989
-0.00414069
-0.00210858
-0.000984335
-0.00197412
-0.00278087
-0.00416936
-0.00585021
-0.00757032
-0.00915157
-0.0104976
-0.0115638
-0.0123368
-0.0128157
-0.0130026
-0.0129011
-0.0125146
-0.0118464
-0.0108991
-0.00967913
-0.00820628
-0.00652856
-0.00487919
-0.00381784
-0.00347787
-0.00428821
-0.0056301
-0.00723496
-0.00885079
-0.0103086
-0.0115278
-0.0124795
-0.0131621
-0.013581
-0.0137434
-0.0136568
-0.0133294
-0.0127709
-0.0119908
-0.0109977
-0.00980949
-0.00846026
-0.00718059
-0.00623768
-0.00488546
-0.00565074
-0.00688665
-0.00837561
-0.00986411
-0.0111966
-0.0123032
-0.0131624
-0.0137766
-0.0141538
-0.0143025
-0.0142307
-0.0139482
-0.0134683
-0.0128076
-0.0119806
-0.0110091
-0.0099222
-0.00894876
-0.00811584
-0.00598279
-0.00669817
-0.00781808
-0.00919681
-0.0105714
-0.0118018
-0.0128241
-0.0136188
-0.0141881
-0.0145399
-0.014682
-0.0146219
-0.014369
-0.0139389
-0.0133539
-0.0126372
-0.0118235
-0.0109189
-0.0101652
-0.0094321
-0.00669158
-0.00732712
-0.00835854
-0.00966034
-0.0109528
-0.0121179
-0.0130915
-0.013852
-0.0143991
-0.0147392
-0.0148792
-0.0148254
-0.0145868
-0.0141799
-0.0136321
-0.012973
-0.012269
-0.0114569
-0.0108838
-0.010177
-0.00697205
-0.00753038
-0.00850474
-0.00975477
-0.011004
-0.0121436
-0.0131048
-0.0138607
-0.0144071
-0.014748
-0.0148891
-0.0148355
-0.0145962
-0.0141881
-0.0136429
-0.0129902
-0.0123606
-0.0115346
-0.0111449
-0.0103553
-0.00681654
-0.00733107
-0.0082663
-0.00948883
-0.0107317
-0.0118801
-0.0128615
-0.0136408
-0.0142074
-0.0145618
-0.0147075
-0.0146488
-0.0143945
-0.0139624
-0.0133879
-0.0127186
-0.0120676
-0.0111951
-0.0109962
-0.00995683
-0.00630098
-0.00679553
-0.0077011
-0.00889218
-0.0101509
-0.0113339
-0.0123626
-0.0131907
-0.0137982
-0.0141795
-0.014335
-0.0142672
-0.0139856
-0.013509
-0.0128787
-0.0121484
-0.0114228
-0.0105055
-0.010406
-0.00900676
-0.00554598
-0.00600649
-0.00686567
-0.00800862
-0.00927797
-0.0105111
-0.0116103
-0.012512
-0.013182
-0.0136059
-0.0137793
-0.0137022
-0.0133839
-0.0128452
-0.012134
-0.0113039
-0.0104725
-0.00948598
-0.00936126
-0.00757281
-0.00471298
-0.00509564
-0.00584614
-0.00690168
-0.00815572
-0.00944121
-0.0106274
-0.0116242
-0.0123778
-0.0128614
-0.0130644
-0.0129831
-0.0126246
-0.0120113
-0.0111979
-0.0102344
-0.00926051
-0.00813583
-0.00787417
-0.00569217
-0.00397408
-0.00417611
-0.00470932
-0.00561569
-0.00682744
-0.00816262
-0.00944831
-0.0105595
-0.0114188
-0.0119824
-0.0122318
-0.012159
-0.0117724
-0.011084
-0.0101545
-0.00902238
-0.00784403
-0.00647042
-0.00592648
-0.00315481
-0.0034868
-0.00336607
-0.00356261
-0.00425795
-0.005402
-0.00677855
-0.00816802
-0.00940658
-0.0103901
-0.0110551
-0.0113734
-0.011331
-0.0109374
-0.010184
-0.00912988
-0.00778276
-0.00628867
-0.00447435
-0.0032775
0.000873566
-0.00325235
-0.00265128
-0.00244888
-0.0029173
-0.00398573
-0.00539268
-0.0068795
-0.00825193
-0.00937641
-0.0101652
-0.0105757
-0.0105835
-0.0101988
-0.00941154
-0.00824447
-0.00663508
-0.00467736
-0.00204536
0.000681734
0.00820126
-0.00320969
-0.00204851
-0.00156453
-0.00186424
-0.00286438
-0.00429418
-0.0058668
-0.00736083
-0.00861457
-0.00952811
-0.0100438
-0.0101377
-0.00979144
-0.00898204
-0.00767583
-0.00577524
-0.00318107
0.00102762
0.00709153
0.0200577
-0.00376505
-0.000719238
-0.000123346
-0.000601123
-0.00165524
-0.0031395
-0.00482064
-0.00644107
-0.00781826
-0.00883498
-0.0094326
-0.00957328
-0.00923522
-0.00838897
-0.00699196
-0.00486555
-0.00116273
0.00560641
0.0173909
0.0351497
)
;

boundaryField
{
    movingWall
    {
        type            zeroGradient;
    }
    fixedWalls
    {
        type            zeroGradient;
    }
    frontAndBack
    {
        type            empty;
    }
}


// ************************************************************************* //
