/*--------------------------------*- C++ -*----------------------------------*\
  =========                 |
  \\      /  F ield         | OpenFOAM: The Open Source CFD Toolbox
   \\    /   O peration     | Website:  https://openfoam.org
    \\  /    A nd           | Version:  13
     \\/     M anipulation  |
\*---------------------------------------------------------------------------*/
FoamFile
{
    format      ascii;
    class       volVectorField;
    location    "7.5";
    object      U;
}
// * * * * * * * * * * * * * * * * * * * * * * * * * * * * * * * * * * * * * //

dimensions      [0 1 -1 0 0 0 0];

internalField   nonuniform List<vector> 
1600
(
(0.00124051 -0.00106769 0)
(0.00639293 -0.00167233 0)
(0.0112896 -0.00137386 0)
(0.0142608 -0.000207635 0)
(0.0145259 0.000370239 0)
(0.0139393 0.000159611 0)
(0.0131547 -0.000656078 0)
(0.0130211 -0.00125528 0)
(0.0126722 -0.00125519 0)
(0.0114568 -0.000982696 0)
(0.00866549 -0.00101325 0)
(0.00176547 -0.000475247 0)
(-0.00915433 0.00169517 0)
(-0.0213433 0.00798999 0)
(-0.0467656 0.0139808 0)
(-0.0724224 0.0140249 0)
(-0.0948232 0.0128123 0)
(-0.114502 0.0111131 0)
(-0.13057 0.00933157 0)
(-0.143871 0.00759816 0)
(-0.153977 0.00591798 0)
(-0.161465 0.00430794 0)
(-0.165704 0.00279769 0)
(-0.167417 0.00134715 0)
(-0.166524 -0.000993349 0)
(-0.161821 -0.00260397 0)
(-0.154293 -0.00490514 0)
(-0.142594 -0.00674894 0)
(-0.127507 -0.00903329 0)
(-0.10872 -0.0112794 0)
(-0.0865966 -0.0135394 0)
(-0.0616965 -0.0150102 0)
(-0.035319 -0.0152936 0)
(-0.00833036 -0.0138163 0)
(0.0134355 -0.0116534 0)
(0.0296351 -0.00439296 0)
(0.0312091 0.00334294 0)
(0.024793 0.00537983 0)
(0.0119178 0.00449052 0)
(0.00247982 0.00306971 0)
(0.00225766 -0.006312 0)
(0.0109717 -0.00941693 0)
(0.0165882 -0.00688231 0)
(0.0197612 -0.00263906 0)
(0.0199875 0.000554449 0)
(0.0178536 0.00169749 0)
(0.0141489 0.00147252 0)
(0.00904451 0.00162716 0)
(0.00110676 0.00312046 0)
(-0.0112164 0.00617273 0)
(-0.0289153 0.01175 0)
(-0.0559692 0.0207621 0)
(-0.0874403 0.0295158 0)
(-0.114876 0.0354589 0)
(-0.137439 0.0354273 0)
(-0.156772 0.0327464 0)
(-0.172823 0.0287829 0)
(-0.186225 0.0243608 0)
(-0.196856 0.0199226 0)
(-0.20513 0.0155804 0)
(-0.21093 0.0113883 0)
(-0.214518 0.00726923 0)
(-0.215788 0.00317833 0)
(-0.214871 -0.00105658 0)
(-0.211479 -0.00565354 0)
(-0.205667 -0.0104426 0)
(-0.197098 -0.0155549 0)
(-0.185574 -0.0209638 0)
(-0.17076 -0.026656 0)
(-0.151978 -0.0321492 0)
(-0.130032 -0.0373056 0)
(-0.105269 -0.0413229 0)
(-0.0780178 -0.042362 0)
(-0.0497022 -0.0392909 0)
(-0.0224105 -0.0308546 0)
(0.00090532 -0.0146685 0)
(0.0168403 0.0035493 0)
(0.0170165 0.0115187 0)
(0.0101605 0.0140893 0)
(0.00158103 0.0108139 0)
(0.00361019 -0.0145881 0)
(0.0119919 -0.0168409 0)
(0.0152355 -0.0110959 0)
(0.0160106 -0.00325609 0)
(0.013845 0.00246924 0)
(0.00886502 0.00553372 0)
(0.000117394 0.00773244 0)
(-0.0134012 0.0122061 0)
(-0.0334299 0.0208176 0)
(-0.0605725 0.0325272 0)
(-0.0910896 0.0439626 0)
(-0.11911 0.0510142 0)
(-0.143078 0.054134 0)
(-0.161904 0.0538979 0)
(-0.177387 0.0506352 0)
(-0.189826 0.0457546 0)
(-0.199952 0.0398311 0)
(-0.208067 0.0335982 0)
(-0.21447 0.0273206 0)
(-0.219272 0.0211873 0)
(-0.222694 0.0148902 0)
(-0.224527 0.008961 0)
(-0.224801 0.00294127 0)
(-0.223406 -0.00311963 0)
(-0.220362 -0.00949279 0)
(-0.215608 -0.0162851 0)
(-0.209031 -0.023818 0)
(-0.200354 -0.0320713 0)
(-0.189474 -0.0412114 0)
(-0.175989 -0.050556 0)
(-0.159421 -0.0595497 0)
(-0.139319 -0.0667052 0)
(-0.11583 -0.0698432 0)
(-0.0899074 -0.067646 0)
(-0.0620133 -0.0569689 0)
(-0.0336259 -0.036185 0)
(-0.00654693 -0.00622488 0)
(0.00160561 0.0117065 0)
(0.00187261 0.0185021 0)
(-0.000234061 0.0144768 0)
(0.00421712 -0.0234314 0)
(0.00869896 -0.021374 0)
(0.00889702 -0.0114232 0)
(0.00580278 -0.000466704 0)
(-0.00032089 0.00807258 0)
(-0.0108141 0.0153822 0)
(-0.0271447 0.0239009 0)
(-0.0496966 0.0354076 0)
(-0.0770877 0.0490097 0)
(-0.106422 0.0613696 0)
(-0.132802 0.0694542 0)
(-0.153195 0.0723138 0)
(-0.169255 0.07156 0)
(-0.18136 0.0677717 0)
(-0.191211 0.0620914 0)
(-0.198818 0.0552983 0)
(-0.205006 0.0478808 0)
(-0.210053 0.0400082 0)
(-0.214329 0.0320838 0)
(-0.217526 0.0243081 0)
(-0.219599 0.0169602 0)
(-0.220492 0.00952895 0)
(-0.220282 0.00212605 0)
(-0.218975 -0.0054577 0)
(-0.21656 -0.013279 0)
(-0.212916 -0.0215717 0)
(-0.207979 -0.0304854 0)
(-0.201615 -0.0401535 0)
(-0.193666 -0.050616 0)
(-0.184081 -0.0622187 0)
(-0.172716 -0.0743648 0)
(-0.159267 -0.0861524 0)
(-0.143047 -0.0949948 0)
(-0.121925 -0.0967594 0)
(-0.0957962 -0.0877468 0)
(-0.0654585 -0.0655156 0)
(-0.0294518 -0.0272868 0)
(-0.00738497 0.00439464 0)
(-0.00231854 0.0163489 0)
(-0.000283898 0.0139877 0)
(0.00258313 -0.0279583 0)
(0.00307127 -0.0213429 0)
(-0.00121244 -0.00707211 0)
(-0.0084938 0.0068493 0)
(-0.019676 0.0196234 0)
(-0.0359349 0.0324206 0)
(-0.0578917 0.0467852 0)
(-0.0841183 0.0623682 0)
(-0.111252 0.0762596 0)
(-0.135418 0.0853613 0)
(-0.15361 0.0884324 0)
(-0.167303 0.0873349 0)
(-0.177789 0.0832946 0)
(-0.18556 0.0770186 0)
(-0.191747 0.0694827 0)
(-0.196654 0.060931 0)
(-0.200813 0.0520765 0)
(-0.203884 0.0433092 0)
(-0.205821 0.0347163 0)
(-0.206802 0.0262299 0)
(-0.207158 0.017921 0)
(-0.206868 0.00966243 0)
(-0.20604 0.00142037 0)
(-0.204634 -0.00701071 0)
(-0.202523 -0.0157524 0)
(-0.199735 -0.0250458 0)
(-0.196242 -0.0350706 0)
(-0.192002 -0.0459966 0)
(-0.186924 -0.0578833 0)
(-0.180865 -0.0706309 0)
(-0.173575 -0.0839355 0)
(-0.164639 -0.0970659 0)
(-0.153844 -0.109547 0)
(-0.140064 -0.118015 0)
(-0.120563 -0.116927 0)
(-0.0927829 -0.0999124 0)
(-0.0570869 -0.0641528 0)
(-0.0171188 -0.0136408 0)
(-0.00219914 0.0108723 0)
(0.000731143 0.0130253 0)
(-0.000353617 -0.02872 0)
(-0.00457712 -0.0162257 0)
(-0.0129236 0.00128863 0)
(-0.0243998 0.0189225 0)
(-0.0400954 0.0362836 0)
(-0.0604442 0.0539756 0)
(-0.0845523 0.0718306 0)
(-0.109598 0.0876718 0)
(-0.131997 0.0985568 0)
(-0.148819 0.102617 0)
(-0.160858 0.101521 0)
(-0.170016 0.0973078 0)
(-0.176621 0.0906958 0)
(-0.181463 0.0825842 0)
(-0.185069 0.0735435 0)
(-0.18734 0.0641307 0)
(-0.188746 0.0545626 0)
(-0.189361 0.0450306 0)
(-0.18959 0.0356816 0)
(-0.189538 0.0265915 0)
(-0.189048 0.0177558 0)
(-0.188209 0.00904296 0)
(-0.187 0.00036446 0)
(-0.185407 -0.00845612 0)
(-0.183411 -0.0175844 0)
(-0.181078 -0.0272408 0)
(-0.178433 -0.037631 0)
(-0.175512 -0.0489755 0)
(-0.172321 -0.0614531 0)
(-0.168825 -0.0751376 0)
(-0.164877 -0.0898408 0)
(-0.160125 -0.10496 0)
(-0.153873 -0.119219 0)
(-0.144966 -0.130788 0)
(-0.131948 -0.137108 0)
(-0.111824 -0.1309 0)
(-0.0817306 -0.104539 0)
(-0.0383519 -0.0517881 0)
(-0.00492517 -0.00197315 0)
(0.0016126 0.0123247 0)
(-0.00361367 -0.0234023 0)
(-0.0122466 -0.00707238 0)
(-0.0241837 0.0135945 0)
(-0.0393224 0.0348779 0)
(-0.0582648 0.056246 0)
(-0.0801984 0.0768961 0)
(-0.103217 0.09524 0)
(-0.124339 0.108619 0)
(-0.140413 0.114751 0)
(-0.151372 0.114397 0)
(-0.159334 0.110326 0)
(-0.164916 0.103628 0)
(-0.168554 0.0951482 0)
(-0.170851 0.0856474 0)
(-0.172059 0.0755525 0)
(-0.172529 0.06527 0)
(-0.172549 0.0550485 0)
(-0.172236 0.0450704 0)
(-0.171723 0.0354026 0)
(-0.170974 0.0260243 0)
(-0.169987 0.0168873 0)
(-0.168779 0.00788447 0)
(-0.167333 -0.0010872 0)
(-0.165647 -0.0101667 0)
(-0.163732 -0.0195241 0)
(-0.161642 -0.0293416 0)
(-0.159435 -0.0398115 0)
(-0.157185 -0.0511387 0)
(-0.154963 -0.0635252 0)
(-0.152813 -0.0771361 0)
(-0.150712 -0.0920216 0)
(-0.148474 -0.107955 0)
(-0.145545 -0.124194 0)
(-0.140802 -0.139041 0)
(-0.132506 -0.149694 0)
(-0.118645 -0.152123 0)
(-0.0967985 -0.138583 0)
(-0.0631488 -0.0984489 0)
(-0.0146132 -0.0238909 0)
(0.00267075 0.0112014 0)
(-0.00649208 -0.0140509 0)
(-0.0186048 0.00612693 0)
(-0.0333851 0.0292021 0)
(-0.0513857 0.0535117 0)
(-0.0716855 0.0772351 0)
(-0.0929995 0.0984863 0)
(-0.113192 0.115043 0)
(-0.129247 0.124326 0)
(-0.139826 0.125709 0)
(-0.147031 0.122235 0)
(-0.151945 0.115748 0)
(-0.154893 0.107108 0)
(-0.156431 0.0972014 0)
(-0.157004 0.0866254 0)
(-0.156905 0.0757924 0)
(-0.15645 0.0650391 0)
(-0.155784 0.0545337 0)
(-0.154981 0.0443731 0)
(-0.154072 0.0345512 0)
(-0.153033 0.0250196 0)
(-0.151864 0.0157077 0)
(-0.150541 0.0065179 0)
(-0.149055 -0.00264717 0)
(-0.147392 -0.0119147 0)
(-0.145572 -0.0214299 0)
(-0.143637 -0.0313499 0)
(-0.141658 -0.0418477 0)
(-0.13973 -0.053113 0)
(-0.13796 -0.0653459 0)
(-0.136447 -0.0787346 0)
(-0.135237 -0.0934028 0)
(-0.134247 -0.109314 0)
(-0.133113 -0.126095 0)
(-0.130941 -0.142788 0)
(-0.126188 -0.157309 0)
(-0.116901 -0.165788 0)
(-0.101156 -0.162102 0)
(-0.0759093 -0.136303 0)
(-0.0332739 -0.0675477 0)
(0.000551982 0.000267893 0)
(-0.00826818 -0.000902128 0)
(-0.0232387 0.022415 0)
(-0.0399658 0.0470439 0)
(-0.0592463 0.0729465 0)
(-0.0794126 0.0972859 0)
(-0.0989645 0.117483 0)
(-0.115601 0.130838 0)
(-0.126561 0.135161 0)
(-0.133668 0.133064 0)
(-0.138278 0.127134 0)
(-0.141002 0.118684 0)
(-0.142209 0.108583 0)
(-0.142456 0.0976541 0)
(-0.14208 0.0864018 0)
(-0.14136 0.0751862 0)
(-0.140498 0.0642332 0)
(-0.139566 0.0536295 0)
(-0.138604 0.0434016 0)
(-0.137606 0.0335072 0)
(-0.136548 0.0238863 0)
(-0.135406 0.0144627 0)
(-0.13414 0.00513721 0)
(-0.132729 -0.00418202 0)
(-0.131156 -0.013601 0)
(-0.129432 -0.0232409 0)
(-0.127591 -0.0332268 0)
(-0.125701 -0.0437028 0)
(-0.123858 -0.0548341 0)
(-0.122189 -0.0668145 0)
(-0.120831 -0.0798624 0)
(-0.119894 -0.0941909 0)
(-0.119389 -0.109927 0)
(-0.119115 -0.126971 0)
(-0.118437 -0.144764 0)
(-0.116004 -0.16186 0)
(-0.109943 -0.17511 0)
(-0.0987352 -0.178586 0)
(-0.0799289 -0.164447 0)
(-0.0501526 -0.114613 0)
(-0.00679605 -0.0149433 0)
(-0.00930026 0.0145918 0)
(-0.0259245 0.040363 0)
(-0.0434644 0.0657242 0)
(-0.0629706 0.0920325 0)
(-0.0821159 0.115875 0)
(-0.0994766 0.133787 0)
(-0.111447 0.142193 0)
(-0.119319 0.142747 0)
(-0.124082 0.137907 0)
(-0.126915 0.129976 0)
(-0.128207 0.119992 0)
(-0.128399 0.108845 0)
(-0.127974 0.0972582 0)
(-0.127189 0.0856398 0)
(-0.126269 0.0742657 0)
(-0.125324 0.0632616 0)
(-0.124397 0.0526535 0)
(-0.123496 0.0424212 0)
(-0.122596 0.0325017 0)
(-0.121661 0.0228222 0)
(-0.120651 0.0133014 0)
(-0.119527 0.00384941 0)
(-0.118256 -0.00562425 0)
(-0.116823 -0.0152053 0)
(-0.115224 -0.0249918 0)
(-0.113486 -0.0350821 0)
(-0.111658 -0.045586 0)
(-0.109823 -0.0566335 0)
(-0.108098 -0.0683874 0)
(-0.10663 -0.081056 0)
(-0.105563 -0.0948936 0)
(-0.104988 -0.110163 0)
(-0.104852 -0.127027 0)
(-0.104784 -0.145358 0)
(-0.103726 -0.164342 0)
(-0.0997374 -0.181476 0)
(-0.0915533 -0.190677 0)
(-0.0770193 -0.185593 0)
(-0.0542416 -0.14986 0)
(-0.0160009 -0.0425095 0)
(-0.00976162 0.0312755 0)
(-0.0268906 0.0590456 0)
(-0.0442496 0.0843671 0)
(-0.0631052 0.110227 0)
(-0.0808199 0.1325 0)
(-0.0947908 0.14641 0)
(-0.1034 0.150638 0)
(-0.109425 0.148139 0)
(-0.112526 0.141058 0)
(-0.11425 0.131508 0)
(-0.114693 0.120363 0)
(-0.1144 0.108501 0)
(-0.113721 0.0965201 0)
(-0.112863 0.084734 0)
(-0.111987 0.0733286 0)
(-0.11115 0.0623527 0)
(-0.110372 0.0517878 0)
(-0.109635 0.0415794 0)
(-0.108905 0.0316497 0)
(-0.10814 0.0219179 0)
(-0.107296 0.0123023 0)
(-0.106336 0.00272166 0)
(-0.10523 -0.0069081 0)
(-0.10396 -0.016659 0)
(-0.102517 -0.0266097 0)
(-0.100914 -0.0368384 0)
(-0.0991815 -0.0474271 0)
(-0.0973803 -0.0584733 0)
(-0.0956037 -0.070105 0)
(-0.0939809 -0.0825045 0)
(-0.092663 -0.0959302 0)
(-0.0917845 -0.110717 0)
(-0.0913941 -0.127211 0)
(-0.0913351 -0.145597 0)
(-0.090917 -0.165641 0)
(-0.0883576 -0.185899 0)
(-0.0820319 -0.200121 0)
(-0.070516 -0.202243 0)
(-0.050634 -0.179226 0)
(-0.0191269 -0.092302 0)
(-0.00953919 0.0479129 0)
(-0.0262714 0.0774183 0)
(-0.0427646 0.102122 0)
(-0.0603005 0.126781 0)
(-0.0762283 0.146812 0)
(-0.0866342 0.156149 0)
(-0.0936354 0.157211 0)
(-0.0979802 0.152023 0)
(-0.100081 0.143133 0)
(-0.101137 0.132286 0)
(-0.101162 0.120281 0)
(-0.100721 0.107945 0)
(-0.100042 0.0957439 0)
(-0.0992964 0.083905 0)
(-0.0985875 0.072533 0)
(-0.0979418 0.0616187 0)
(-0.097358 0.0511082 0)
(-0.0968075 0.0409234 0)
(-0.0962513 0.0309778 0)
(-0.0956503 0.0211875 0)
(-0.0949654 0.0114744 0)
(-0.0941638 0.0017643 0)
(-0.0932225 -0.00801907 0)
(-0.0921227 -0.0179398 0)
(-0.0908527 -0.0280626 0)
(-0.0894154 -0.0384518 0)
(-0.0878242 -0.0491687 0)
(-0.0861141 -0.0602833 0)
(-0.0843481 -0.0718883 0)
(-0.0826252 -0.0841287 0)
(-0.0810808 -0.0972411 0)
(-0.0798655 -0.111589 0)
(-0.0790908 -0.127645 0)
(-0.0787331 -0.145847 0)
(-0.0784348 -0.166353 0)
(-0.0768396 -0.188554 0)
(-0.0715118 -0.208173 0)
(-0.0626062 -0.215265 0)
(-0.0454506 -0.201783 0)
(-0.0161452 -0.126128 0)
(-0.00881638 0.0638882 0)
(-0.0244402 0.0948764 0)
(-0.0396072 0.118617 0)
(-0.0557072 0.14179 0)
(-0.0689665 0.158314 0)
(-0.0768896 0.16398 0)
(-0.0827412 0.162292 0)
(-0.0858766 0.154912 0)
(-0.0874186 0.144559 0)
(-0.0881031 0.132683 0)
(-0.0879927 0.120053 0)
(-0.087596 0.107408 0)
(-0.0870502 0.0950915 0)
(-0.0864968 0.0832575 0)
(-0.0859946 0.0719408 0)
(-0.0855513 0.0610887 0)
(-0.0851531 0.0506205 0)
(-0.0847679 0.0404436 0)
(-0.0843607 0.0304683 0)
(-0.083899 0.0206121 0)
(-0.0833523 0.010801 0)
(-0.0826946 0.00096688 0)
(-0.0819097 -0.00896009 0)
(-0.0809807 -0.0190402 0)
(-0.0798952 -0.0293305 0)
(-0.0786482 -0.0398869 0)
(-0.0772398 -0.050759 0)
(-0.0756836 -0.0619972 0)
(-0.0740126 -0.0736659 0)
(-0.0722917 -0.0858716 0)
(-0.0706262 -0.0988117 0)
(-0.0691588 -0.112837 0)
(-0.0680346 -0.12849 0)
(-0.0673182 -0.146422 0)
(-0.0668469 -0.167101 0)
(-0.0657118 -0.190451 0)
(-0.0614149 -0.214586 0)
(-0.0540539 -0.226761 0)
(-0.0397523 -0.2222 0)
(-0.0142921 -0.159459 0)
(-0.00770028 0.0784292 0)
(-0.0218252 0.110872 0)
(-0.0353386 0.13345 0)
(-0.0497024 0.154738 0)
(-0.0601653 0.167486 0)
(-0.0664634 0.170422 0)
(-0.0713959 0.166314 0)
(-0.0736846 0.157156 0)
(-0.0749338 0.145618 0)
(-0.0754376 0.132936 0)
(-0.0753561 0.119854 0)
(-0.0750919 0.107003 0)
(-0.0747309 0.094629 0)
(-0.0743836 0.0828191 0)
(-0.0740778 0.0715525 0)
(-0.0738116 0.0607447 0)
(-0.073566 0.0502965 0)
(-0.0733126 0.0401086 0)
(-0.0730241 0.0300915 0)
(-0.0726765 0.0201661 0)
(-0.0722485 0.0102624 0)
(-0.0717217 0.000316108 0)
(-0.0710852 -0.00973781 0)
(-0.0703254 -0.0199585 0)
(-0.06943 -0.0304008 0)
(-0.0683892 -0.0411168 0)
(-0.0671937 -0.0521506 0)
(-0.0658399 -0.0635412 0)
(-0.0643373 -0.0753318 0)
(-0.0627191 -0.0875952 0)
(-0.0610574 -0.100484 0)
(-0.059472 -0.11431 0)
(-0.0581164 -0.129631 0)
(-0.0571123 -0.147242 0)
(-0.0564143 -0.167921 0)
(-0.0555048 -0.19206 0)
(-0.0524338 -0.218624 0)
(-0.0455524 -0.2369 0)
(-0.0345722 -0.237728 0)
(-0.011751 -0.18467 0)
(-0.00646984 0.0912757 0)
(-0.0186744 0.125026 0)
(-0.030323 0.146298 0)
(-0.0426764 0.16548 0)
(-0.0506577 0.174948 0)
(-0.0561716 0.175756 0)
(-0.0599843 0.169549 0)
(-0.061756 0.158974 0)
(-0.0628348 0.146484 0)
(-0.0632731 0.133178 0)
(-0.0632941 0.119767 0)
(-0.063188 0.106772 0)
(-0.0630125 0.0943634 0)
(-0.0628481 0.0825733 0)
(-0.0627052 0.0713376 0)
(-0.0625777 0.0605499 0)
(-0.062448 0.0500998 0)
(-0.0622949 0.0398859 0)
(-0.0620996 0.0298207 0)
(-0.0618472 0.0198288 0)
(-0.0615242 0.00984314 0)
(-0.0611194 -0.000198187 0)
(-0.0606258 -0.0103578 0)
(-0.0600335 -0.0206954 0)
(-0.0593313 -0.0312672 0)
(-0.0585068 -0.0421257 0)
(-0.0575447 -0.0533145 0)
(-0.0564298 -0.0648676 0)
(-0.0551533 -0.0768143 0)
(-0.0537236 -0.0892002 0)
(-0.0521828 -0.102134 0)
(-0.0506231 -0.115875 0)
(-0.0491892 -0.130952 0)
(-0.0480352 -0.148244 0)
(-0.0471958 -0.168812 0)
(-0.0463803 -0.19342 0)
(-0.0441425 -0.221825 0)
(-0.0380459 -0.246069 0)
(-0.0301558 -0.252001 0)
(-0.0102833 -0.208294 0)
(-0.00496131 0.101751 0)
(-0.0151868 0.137046 0)
(-0.0249632 0.1572 0)
(-0.0351475 0.174117 0)
(-0.0411842 0.181038 0)
(-0.0458948 0.180038 0)
(-0.0487962 0.172177 0)
(-0.0502435 0.160495 0)
(-0.0512061 0.147255 0)
(-0.0516396 0.13347 0)
(-0.0517792 0.119812 0)
(-0.0518204 0.106708 0)
(-0.0518037 0.0942695 0)
(-0.051784 0.0824836 0)
(-0.0517636 0.0712561 0)
(-0.051737 0.0604662 0)
(-0.0516913 0.0499977 0)
(-0.0516138 0.0397495 0)
(-0.051494 0.0296366 0)
(-0.0513242 0.0195863 0)
(-0.0510981 0.00953378 0)
(-0.0508099 -0.000582237 0)
(-0.050456 -0.0108234 0)
(-0.0500298 -0.0212514 0)
(-0.049522 -0.0319257 0)
(-0.0489196 -0.0429022 0)
(-0.0482043 -0.054228 0)
(-0.0473537 -0.0659373 0)
(-0.0463459 -0.0780518 0)
(-0.0451704 -0.090596 0)
(-0.0438446 -0.103639 0)
(-0.0424346 -0.117384 0)
(-0.0410712 -0.132306 0)
(-0.0399312 -0.149307 0)
(-0.0391229 -0.169658 0)
(-0.038448 -0.194457 0)
(-0.0368894 -0.223855 0)
(-0.0322942 -0.252871 0)
(-0.0254059 -0.263597 0)
(-0.00866521 -0.226842 0)
(-0.00361543 0.110171 0)
(-0.0115737 0.146941 0)
(-0.0194999 0.166137 0)
(-0.0274954 0.180868 0)
(-0.0319063 0.185867 0)
(-0.0358162 0.18343 0)
(-0.0379788 0.174313 0)
(-0.0391901 0.161792 0)
(-0.0400558 0.147974 0)
(-0.0405059 0.133827 0)
(-0.040749 0.11998 0)
(-0.0409087 0.106784 0)
(-0.0410128 0.0943091 0)
(-0.0410971 0.0825092 0)
(-0.0411616 0.0712696 0)
(-0.0412039 0.0604611 0)
(-0.0412176 0.0499649 0)
(-0.041198 0.0396811 0)
(-0.0411417 0.0295265 0)
(-0.0410473 0.0194304 0)
(-0.0409136 0.00932896 0)
(-0.0407394 -0.00083944 0)
(-0.0405235 -0.0111369 0)
(-0.0402625 -0.0216271 0)
(-0.0399493 -0.0323744 0)
(-0.0395721 -0.0434397 0)
(-0.039112 -0.0548766 0)
(-0.0385434 -0.0667233 0)
(-0.0378366 -0.0789995 0)
(-0.0369669 -0.0917148 0)
(-0.0359318 -0.104903 0)
(-0.0347731 -0.118709 0)
(-0.0336011 -0.133541 0)
(-0.0325969 -0.150281 0)
(-0.0319211 -0.170362 0)
(-0.0314595 -0.195238 0)
(-0.0304689 -0.225523 0)
(-0.0271123 -0.258324 0)
(-0.0221954 -0.273939 0)
(-0.00755789 -0.244134 0)
(-0.00193087 0.115844 0)
(-0.00789826 0.154541 0)
(-0.0139505 0.173021 0)
(-0.0198876 0.185912 0)
(-0.0229662 0.189572 0)
(-0.0260317 0.186041 0)
(-0.0275769 0.176034 0)
(-0.0285774 0.162902 0)
(-0.0293458 0.148655 0)
(-0.0298083 0.134237 0)
(-0.0301255 0.120241 0)
(-0.030369 0.106962 0)
(-0.0305554 0.0944423 0)
(-0.0307067 0.0826123 0)
(-0.0308245 0.0713459 0)
(-0.0309105 0.0605092 0)
(-0.0309653 0.0499829 0)
(-0.030991 0.039668 0)
(-0.0309903 0.0294826 0)
(-0.0309668 0.0193567 0)
(-0.0309232 0.00922614 0)
(-0.0308618 -0.000971293 0)
(-0.0307835 -0.011299 0)
(-0.0306875 -0.0218231 0)
(-0.030569 -0.0326125 0)
(-0.0304184 -0.0437345 0)
(-0.0302186 -0.0552502 0)
(-0.0299437 -0.0672055 0)
(-0.0295605 -0.0796228 0)
(-0.0290359 -0.0925024 0)
(-0.0283522 -0.10585 0)
(-0.0275315 -0.119755 0)
(-0.026665 -0.134549 0)
(-0.0259256 -0.151053 0)
(-0.0255001 -0.170782 0)
(-0.0253514 -0.195575 0)
(-0.024996 -0.226618 0)
(-0.0228485 -0.261742 0)
(-0.0190803 -0.282141 0)
(-0.00641936 -0.258179 0)
(-0.000751538 0.119593 0)
(-0.00428627 0.159976 0)
(-0.00844859 0.177923 0)
(-0.0124373 0.189407 0)
(-0.0144023 0.192261 0)
(-0.0165506 0.18792 0)
(-0.0175671 0.177356 0)
(-0.0183538 0.163829 0)
(-0.0190133 0.149287 0)
(-0.0194687 0.134677 0)
(-0.0198265 0.120564 0)
(-0.0201194 0.107207 0)
(-0.0203531 0.0946334 0)
(-0.020541 0.0827617 0)
(-0.0206871 0.0714595 0)
(-0.0207977 0.0605914 0)
(-0.0208798 0.0500384 0)
(-0.0209415 0.0397017 0)
(-0.0209907 0.0294998 0)
(-0.0210347 0.0193622 0)
(-0.0210798 0.0092241 0)
(-0.0211307 -0.000978248 0)
(-0.0211903 -0.0113099 0)
(-0.0212595 -0.0218394 0)
(-0.0213364 -0.0326396 0)
(-0.0214138 -0.0437843 0)
(-0.0214775 -0.055343 0)
(-0.021504 -0.0673706 0)
(-0.0214603 -0.0798961 0)
(-0.0213089 -0.0929162 0)
(-0.0210221 -0.106414 0)
(-0.0206048 -0.12043 0)
(-0.0201283 -0.135215 0)
(-0.0197506 -0.151514 0)
(-0.0196723 -0.170868 0)
(-0.0199366 -0.195449 0)
(-0.0202465 -0.227005 0)
(-0.0191858 -0.26431 0)
(-0.0168682 -0.289267 0)
(-0.00558737 -0.271305 0)
(0.00109619 0.12044 0)
(-0.000684392 0.163204 0)
(-0.00298536 0.180922 0)
(-0.00520392 0.191507 0)
(-0.0061366 0.193903 0)
(-0.00736614 0.189123 0)
(-0.00789505 0.178308 0)
(-0.00844882 0.164571 0)
(-0.00898082 0.149853 0)
(-0.00940305 0.135117 0)
(-0.00976899 0.120914 0)
(-0.0100811 0.107484 0)
(-0.0103339 0.0948525 0)
(-0.0105344 0.0829321 0)
(-0.0106893 0.0715904 0)
(-0.0108095 0.0606928 0)
(-0.010908 0.0501206 0)
(-0.0109979 0.039775 0)
(-0.0110917 0.0295737 0)
(-0.0112003 0.0194448 0)
(-0.0113325 0.00932202 0)
(-0.0114952 -0.000860149 0)
(-0.011693 -0.011169 0)
(-0.0119286 -0.0216753 0)
(-0.0122021 -0.0324554 0)
(-0.0125088 -0.0435883 0)
(-0.0128386 -0.0551514 0)
(-0.0131722 -0.0672101 0)
(-0.0134792 -0.0798024 0)
(-0.0137225 -0.0929265 0)
(-0.0138689 -0.10655 0)
(-0.0139092 -0.120669 0)
(-0.0138952 -0.135459 0)
(-0.0139658 -0.151569 0)
(-0.0143248 -0.170523 0)
(-0.0150913 -0.194776 0)
(-0.0160807 -0.226596 0)
(-0.0159935 -0.265465 0)
(-0.0148415 -0.294732 0)
(-0.00475561 -0.282219 0)
(0.00227669 0.119116 0)
(0.00277026 0.16429 0)
(0.00234479 0.182143 0)
(0.00178221 0.192322 0)
(0.00189256 0.194583 0)
(0.00158534 0.189638 0)
(0.00151426 0.178833 0)
(0.0012128 0.16509 0)
(0.000832463 0.150321 0)
(0.00047257 0.135527 0)
(0.000124819 0.121264 0)
(-0.000180482 0.107769 0)
(-0.00042623 0.0950773 0)
(-0.000620444 0.083105 0)
(-0.000769259 0.0717241 0)
(-0.0008876 0.0608023 0)
(-0.000993437 0.0502214 0)
(-0.00110478 0.039882 0)
(-0.0012381 0.0297002 0)
(-0.00140748 0.0196019 0)
(-0.00162443 0.00951884 0)
(-0.00189801 -0.000616742 0)
(-0.00223451 -0.0108747 0)
(-0.00263816 -0.0213279 0)
(-0.00311015 -0.0320559 0)
(-0.00364868 -0.0431428 0)
(-0.00424737 -0.0546727 0)
(-0.00489098 -0.0667194 0)
(-0.00555578 -0.0793302 0)
(-0.00620982 -0.09251 0)
(-0.0068173 -0.106218 0)
(-0.0073578 -0.120415 0)
(-0.00786427 -0.135205 0)
(-0.00845442 -0.15114 0)
(-0.00932683 -0.169694 0)
(-0.0106664 -0.193526 0)
(-0.0123891 -0.225474 0)
(-0.0132039 -0.265799 0)
(-0.013352 -0.299312 0)
(-0.00411505 -0.29248 0)
(0.00355122 0.115696 0)
(0.00619945 0.163312 0)
(0.00754581 0.181754 0)
(0.00853416 0.191859 0)
(0.00973257 0.194153 0)
(0.0103019 0.189563 0)
(0.0107133 0.178986 0)
(0.0107081 0.165381 0)
(0.0105064 0.15067 0)
(0.0102357 0.135878 0)
(0.00993687 0.121582 0)
(0.00966133 0.108039 0)
(0.00943728 0.0952891 0)
(0.00926386 0.083265 0)
(0.0091333 0.0718477 0)
(0.00902699 0.0609092 0)
(0.00892245 0.0503324 0)
(0.00879723 0.0400162 0)
(0.00863088 0.0298744 0)
(0.00840599 0.0198303 0)
(0.00810839 0.00981236 0)
(0.00772656 -0.000249678 0)
(0.00725252 -0.0104274 0)
(0.00668099 -0.0207968 0)
(0.0060087 -0.0314395 0)
(0.00523481 -0.0424435 0)
(0.00436343 -0.0538988 0)
(0.00340479 -0.0658879 0)
(0.00237423 -0.0784685 0)
(0.00129806 -0.0916513 0)
(0.000207664 -0.105391 0)
(-0.000870128 -0.119623 0)
(-0.00194979 -0.134393 0)
(-0.00312465 -0.15015 0)
(-0.00457926 -0.168293 0)
(-0.00654161 -0.191628 0)
(-0.00904225 -0.223541 0)
(-0.0106331 -0.264968 0)
(-0.0120147 -0.30261 0)
(-0.00346129 -0.301174 0)
(0.00494437 0.109657 0)
(0.00963053 0.160256 0)
(0.0126479 0.179765 0)
(0.0150765 0.190138 0)
(0.0173756 0.192735 0)
(0.0188111 0.188786 0)
(0.0197638 0.178744 0)
(0.0200923 0.165416 0)
(0.0201014 0.150873 0)
(0.0199542 0.136149 0)
(0.0197332 0.121853 0)
(0.0195093 0.108271 0)
(0.0193238 0.0954688 0)
(0.0191849 0.0833981 0)
(0.0190841 0.0719508 0)
(0.0189998 0.0610052 0)
(0.0189058 0.0504457 0)
(0.0187751 0.0401703 0)
(0.0185836 0.0300896 0)
(0.0183102 0.0201238 0)
(0.0179378 0.0101982 0)
(0.0174532 0.000239245 0)
(0.0168456 -0.0098279 0)
(0.0161075 -0.0200818 0)
(0.0152343 -0.0306064 0)
(0.0142234 -0.0414921 0)
(0.0130757 -0.0528313 0)
(0.0117938 -0.0647117 0)
(0.0103871 -0.0772025 0)
(0.00887648 -0.0903257 0)
(0.00728444 -0.104037 0)
(0.00563676 -0.118255 0)
(0.00393521 -0.132971 0)
(0.00211436 -0.148538 0)
(1.10373e-05 -0.166263 0)
(-0.0026388 -0.189049 0)
(-0.00599984 -0.220865 0)
(-0.00826948 -0.263289 0)
(-0.0109897 -0.305186 0)
(-0.00289894 -0.309378 0)
(0.00630257 0.101427 0)
(0.0130033 0.155207 0)
(0.0176463 0.176256 0)
(0.0214329 0.187224 0)
(0.0248959 0.190278 0)
(0.0270395 0.187251 0)
(0.0286594 0.178111 0)
(0.0293943 0.165169 0)
(0.029661 0.150891 0)
(0.0296805 0.136303 0)
(0.0295712 0.122047 0)
(0.0294275 0.108446 0)
(0.0293035 0.0956036 0)
(0.0292155 0.0834927 0)
(0.0291569 0.0720225 0)
(0.0291051 0.0610798 0)
(0.029031 0.0505517 0)
(0.0289041 0.040335 0)
(0.0286961 0.0303374 0)
(0.0283828 0.0204752 0)
(0.0279435 0.0106699 0)
(0.0273622 0.000844765 0)
(0.0266259 -0.00907935 0)
(0.0257249 -0.0191829 0)
(0.0246526 -0.029552 0)
(0.0234034 -0.0402796 0)
(0.0219733 -0.0514615 0)
(0.020361 -0.0631886 0)
(0.0185714 -0.0755323 0)
(0.0166103 -0.088523 0)
(0.0144924 -0.102129 0)
(0.0122446 -0.116266 0)
(0.00987578 -0.130886 0)
(0.00735491 -0.146242 0)
(0.00454157 -0.163526 0)
(0.00114286 -0.185707 0)
(-0.00316671 -0.217347 0)
(-0.00602952 -0.260726 0)
(-0.0102927 -0.306389 0)
(-0.00205524 -0.316512 0)
(0.00755625 0.0909721 0)
(0.0162578 0.148161 0)
(0.0225003 0.171248 0)
(0.0275726 0.183129 0)
(0.0320975 0.187051 0)
(0.0350854 0.184802 0)
(0.0373682 0.176908 0)
(0.0386211 0.164571 0)
(0.0392095 0.150671 0)
(0.0394496 0.136294 0)
(0.0395004 0.122128 0)
(0.039475 0.10854 0)
(0.0394414 0.0956727 0)
(0.039426 0.083533 0)
(0.0394263 0.0720503 0)
(0.0394207 0.0611224 0)
(0.0393786 0.0506405 0)
(0.0392667 0.0405011 0)
(0.0390532 0.0306088 0)
(0.0387101 0.0208759 0)
(0.0382132 0.0112198 0)
(0.0375436 0.0015596 0)
(0.0366853 -0.00818721 0)
(0.0356258 -0.0181037 0)
(0.0343557 -0.0282778 0)
(0.0328664 -0.0388038 0)
(0.0311505 -0.0497783 0)
(0.0292019 -0.0612959 0)
(0.0270137 -0.0734341 0)
(0.0245829 -0.0862286 0)
(0.021918 -0.0996518 0)
(0.0190348 -0.113625 0)
(0.0159478 -0.128083 0)
(0.0126726 -0.143202 0)
(0.00908765 -0.160037 0)
(0.00487342 -0.181579 0)
(-0.000474825 -0.213002 0)
(-0.00389707 -0.257385 0)
(-0.00972923 -0.306786 0)
(-0.00132223 -0.323317 0)
(0.00864099 0.0784141 0)
(0.0192856 0.139212 0)
(0.0271005 0.164815 0)
(0.0334089 0.177918 0)
(0.03884 0.182933 0)
(0.0429122 0.181553 0)
(0.0458255 0.174995 0)
(0.0477263 0.163537 0)
(0.0487364 0.150146 0)
(0.0492748 0.136066 0)
(0.0495508 0.122047 0)
(0.0496972 0.10851 0)
(0.0497966 0.0956468 0)
(0.0498866 0.0834976 0)
(0.049971 0.0720175 0)
(0.0500316 0.0611189 0)
(0.050038 0.0506996 0)
(0.0499555 0.0406566 0)
(0.0497496 0.0308924 0)
(0.049389 0.021315 0)
(0.0488458 0.011838 0)
(0.0480981 0.00237588 0)
(0.0471263 -0.00715761 0)
(0.0459144 -0.0168476 0)
(0.0444497 -0.0267842 0)
(0.0427195 -0.037063 0)
(0.0407118 -0.0477805 0)
(0.0384143 -0.0590299 0)
(0.0358124 -0.0708889 0)
(0.0328927 -0.083403 0)
(0.0296459 -0.0965585 0)
(0.0260827 -0.110287 0)
(0.02223 -0.124511 0)
(0.0181343 -0.139346 0)
(0.0137114 -0.155723 0)
(0.00860545 -0.176612 0)
(0.00217344 -0.207784 0)
(-0.00170377 -0.253122 0)
(-0.00900013 -0.3061 0)
(-0.000383423 -0.329351 0)
(0.00936566 0.0638099 0)
(0.021914 0.128312 0)
(0.031223 0.15691 0)
(0.0387628 0.171591 0)
(0.0451428 0.177814 0)
(0.0502151 0.177587 0)
(0.0539444 0.172239 0)
(0.0565963 0.161929 0)
(0.0581728 0.149216 0)
(0.0591264 0.135534 0)
(0.0597222 0.121734 0)
(0.0601197 0.108302 0)
(0.0604164 0.0954815 0)
(0.0606618 0.083352 0)
(0.0608691 0.0718974 0)
(0.0610259 0.0610483 0)
(0.0611048 0.0507114 0)
(0.0610714 0.0407864 0)
(0.0608899 0.0311744 0)
(0.0605269 0.0217801 0)
(0.0599507 0.0125133 0)
(0.0591367 0.00328386 0)
(0.0580614 -0.00599823 0)
(0.0567042 -0.0154194 0)
(0.0550484 -0.0250719 0)
(0.0530765 -0.0350521 0)
(0.0507704 -0.0454552 0)
(0.0481106 -0.0563727 0)
(0.0450732 -0.0678812 0)
(0.0416323 -0.0800286 0)
(0.0377671 -0.0928136 0)
(0.0334833 -0.106193 0)
(0.0288003 -0.120108 0)
(0.0238139 -0.13461 0)
(0.0184558 -0.150502 0)
(0.0123448 -0.170729 0)
(0.00482932 -0.201652 0)
(0.000537699 -0.248122 0)
(-0.00887965 -0.304532 0)
(0.00049653 -0.3352 0)
(0.0094547 0.0477027 0)
(0.023785 0.115646 0)
(0.0345841 0.147579 0)
(0.0433925 0.164151 0)
(0.0507876 0.171671 0)
(0.0568327 0.172711 0)
(0.0615466 0.168596 0)
(0.0650653 0.159587 0)
(0.0673884 0.147732 0)
(0.0689221 0.134579 0)
(0.0699754 0.121091 0)
(0.0707378 0.107836 0)
(0.071325 0.095112 0)
(0.0718007 0.0830453 0)
(0.0721896 0.0716508 0)
(0.0724882 0.06088 0)
(0.0726751 0.0506517 0)
(0.0727189 0.0408705 0)
(0.0725847 0.0314379 0)
(0.0722381 0.0222563 0)
(0.0716448 0.0132329 0)
(0.0707777 0.00427264 0)
(0.0696095 -0.00471736 0)
(0.068114 -0.0138238 0)
(0.0662698 -0.0231413 0)
(0.0640535 -0.0327659 0)
(0.0614393 -0.0427901 0)
(0.058399 -0.0533021 0)
(0.0548985 -0.0643754 0)
(0.0509005 -0.076062 0)
(0.0463714 -0.0883743 0)
(0.0413114 -0.101297 0)
(0.0357355 -0.114793 0)
(0.0297798 -0.128907 0)
(0.0233853 -0.144285 0)
(0.0162095 -0.163801 0)
(0.00752026 -0.194366 0)
(0.0028969 -0.242087 0)
(-0.00869114 -0.302139 0)
(0.00166246 -0.340485 0)
(0.00795368 0.0305365 0)
(0.0244274 0.101074 0)
(0.0367751 0.136595 0)
(0.04697 0.155522 0)
(0.055489 0.164527 0)
(0.062557 0.166803 0)
(0.068345 0.163961 0)
(0.0728965 0.156318 0)
(0.0761764 0.145495 0)
(0.0785064 0.133025 0)
(0.0802068 0.119972 0)
(0.0814943 0.106989 0)
(0.082505 0.0944406 0)
(0.0833194 0.0824998 0)
(0.0839767 0.0712167 0)
(0.0844853 0.0605671 0)
(0.0848331 0.0504842 0)
(0.0849951 0.0408807 0)
(0.08494 0.0316605 0)
(0.0846345 0.0227255 0)
(0.0840442 0.0139823 0)
(0.0831384 0.00533068 0)
(0.0818879 -0.00332276 0)
(0.0802599 -0.012064 0)
(0.0782274 -0.0209901 0)
(0.0757605 -0.0301953 0)
(0.0728238 -0.0397676 0)
(0.0693789 -0.0497914 0)
(0.0653805 -0.0603359 0)
(0.0607805 -0.0714569 0)
(0.0555335 -0.0831812 0)
(0.0496375 -0.0955298 0)
(0.0431 -0.108498 0)
(0.0360893 -0.122139 0)
(0.0285585 -0.136972 0)
(0.0202219 -0.155774 0)
(0.0102726 -0.185987 0)
(0.0053196 -0.234946 0)
(-0.00898949 -0.299076 0)
(0.00295452 -0.345462 0)
(0.00402099 0.0157994 0)
(0.0229556 0.0850329 0)
(0.0373547 0.123912 0)
(0.0491401 0.14554 0)
(0.0589201 0.156315 0)
(0.0670841 0.159803 0)
(0.0740229 0.158173 0)
(0.0797863 0.151914 0)
(0.0842607 0.142268 0)
(0.0876496 0.130654 0)
(0.0902403 0.118187 0)
(0.0922642 0.105603 0)
(0.0938777 0.0933347 0)
(0.09518 0.0816075 0)
(0.0962273 0.0705091 0)
(0.0970433 0.0600418 0)
(0.0976287 0.0501565 0)
(0.0979679 0.0407767 0)
(0.0980377 0.0318113 0)
(0.0978065 0.0231646 0)
(0.0972454 0.0147441 0)
(0.0963182 0.00644556 0)
(0.0949949 -0.00182096 0)
(0.0932385 -0.0101409 0)
(0.0910147 -0.0186127 0)
(0.088286 -0.0273263 0)
(0.0850068 -0.0363641 0)
(0.0811269 -0.0458062 0)
(0.0765898 -0.0557172 0)
(0.0713377 -0.0661594 0)
(0.065316 -0.0771745 0)
(0.058523 -0.0888254 0)
(0.0509568 -0.101143 0)