/*--------------------------------*- C++ -*----------------------------------*\
  =========                 |
  \\      /  F ield         | OpenFOAM: The Open Source CFD Toolbox
   \\    /   O peration     | Website:  https://openfoam.org
    \\  /    A nd           | Version:  13
     \\/     M anipulation  |
\*---------------------------------------------------------------------------*/
FoamFile
{
    format      ascii;
    class       volScalarField;
    location    "5.5";
    object      p;
}
// * * * * * * * * * * * * * * * * * * * * * * * * * * * * * * * * * * * * * //

dimensions      [0 2 -2 0 0 0 0];

internalField   nonuniform List<scalar> 
6400
(
-1.05586e-08
1.84399e-05
2.67048e-05
1.26177e-05
-2.88732e-05
-9.326e-05
-0.000171549
-0.000255232
-0.000338301
-0.000417848
-0.000494391
-0.000571681
-0.000654185
-0.00074685
-0.000854493
-0.000981004
-0.00112929
-0.00130114
-0.0014978
-0.00172009
-0.00196851
-0.002244
-0.002549
-0.00288758
-0.00326565
-0.00368803
-0.00415214
-0.00464969
-0.00516315
-0.0056596
-0.00612881
-0.00657568
-0.00699915
-0.00739632
-0.0077626
-0.0080906
-0.00837038
-0.00859018
-0.00873732
-0.00879905
-0.00876299
-0.00861796
-0.00835486
-0.00796797
-0.00745477
-0.00681284
-0.00603329
-0.00511741
-0.00408437
-0.00294788
-0.00171988
-0.00042188
0.000921613
0.00227982
0.0036169
0.00488878
0.00605096
0.00706208
0.00788107
0.00847315
0.00881565
0.00890063
0.00873593
0.00834372
0.00776738
0.00706391
0.00629635
0.00552759
0.00481648
0.00419621
0.00370226
0.00335476
0.00312555
0.00298736
0.00292394
0.00291123
0.00292943
0.00296289
0.00300051
0.00302717
-1.39762e-05
4.87915e-06
9.01687e-06
-9.64398e-06
-5.38186e-05
-0.00011824
-0.00019307
-0.00027024
-0.000345028
-0.000416123
-0.000485134
-0.000555777
-0.00063277
-0.000720487
-0.000822601
-0.000942444
-0.0010833
-0.00124771
-0.00143653
-0.00165016
-0.00188792
-0.00214971
-0.00243795
-0.00275552
-0.00310519
-0.00349281
-0.00392615
-0.00440566
-0.00492037
-0.0054493
-0.00596499
-0.00645435
-0.00691743
-0.00735166
-0.00775187
-0.00811051
-0.00841767
-0.00866209
-0.00883169
-0.00891471
-0.00889988
-0.00877707
-0.00853815
-0.00817689
-0.00768888
-0.00707072
-0.00632319
-0.005452
-0.00446486
-0.00336758
-0.00218087
-0.000923433
0.000378704
0.00169543
0.00299063
0.00422567
0.00535966
0.00635017
0.00715931
0.00775454
0.00811251
0.00822493
0.00809891
0.00775782
0.00724109
0.00659824
0.00589515
0.00518829
0.00453282
0.00397231
0.00353238
0.00322059
0.00302839
0.00293247
0.00290863
0.00293235
0.00297205
0.0030091
0.00304079
0.00306642
-2.88669e-05
-7.78712e-06
-8.71565e-06
-3.57359e-05
-8.73722e-05
-0.000154412
-0.000226063
-0.000294436
-0.000356652
-0.000414248
-0.000470528
-0.000530085
-0.000597771
-0.000677263
-0.000770919
-0.00088044
-0.00100734
-0.00115379
-0.00132206
-0.00151467
-0.0017349
-0.00198605
-0.00227188
-0.00259694
-0.00296559
-0.00338014
-0.00384126
-0.00434637
-0.00488662
-0.00544622
-0.00600609
-0.00654984
-0.00706698
-0.00755055
-0.00799399
-0.00838923
-0.00872691
-0.00899702
-0.00918897
-0.00929209
-0.0092966
-0.00919381
-0.00897648
-0.00863913
-0.00817864
-0.0075933
-0.00687828
-0.00604168
-0.00509258
-0.00403819
-0.00289406
-0.00167881
-0.000416635
0.000863868
0.00212937
0.00334348
0.00446585
0.0054549
0.00627384
0.00689107
0.00728318
0.0074396
0.0073666
0.00708609
0.00663486
0.00606208
0.00542455
0.00478212
0.00418618
0.00367661
0.00327842
0.00301161
0.00286624
0.00281708
0.00283066
0.00288464
0.00295022
0.00300664
0.00305302
0.00308935
-3.69056e-05
-1.6251e-05
-2.40748e-05
-6.15648e-05
-0.000122891
-0.000193332
-0.000261915
-0.000322284
-0.000372909
-0.000415557
-0.000456014
-0.0005006
-0.000554582
-0.000621573
-0.000703387
-0.000800757
-0.000914865
-0.0010483
-0.00120472
-0.00138928
-0.00160853
-0.0018697
-0.00218031
-0.00254307
-0.00296043
-0.00343382
-0.0039603
-0.00453098
-0.00513153
-0.00574593
-0.00635827
-0.00695373
-0.00751948
-0.00804615
-0.00852577
-0.00894978
-0.00930995
-0.00959747
-0.00980299
-0.00991726
-0.00993209
-0.00984004
-0.00963474
-0.00931143
-0.00886747
-0.00830133
-0.00761237
-0.00680446
-0.00588393
-0.00485869
-0.00374224
-0.00255247
-0.00131192
-4.68462e-05
0.00121229
0.0024303
0.00356703
0.00458232
0.00543819
0.00610166
0.00654841
0.00676429
0.00675209
0.00653266
0.00614093
0.00562277
0.005034
0.00443381
0.00387357
0.00339608
0.00302667
0.00278021
0.00265086
0.00262538
0.00267747
0.00276597
0.00286231
0.00294822
0.00301801
0.00306635
-3.17744e-05
-1.73825e-05
-3.46674e-05
-8.31485e-05
-0.000153845
-0.000227417
-0.000292887
-0.000345199
-0.000384261
-0.000413802
-0.000440568
-0.000471757
-0.000513037
-0.000567949
-0.000638543
-0.000726538
-0.000834752
-0.000968427
-0.00113411
-0.00133949
-0.00159425
-0.00190362
-0.00227235
-0.002705
-0.0032016
-0.00375736
-0.00436316
-0.00500569
-0.00566838
-0.00633556
-0.00699199
-0.00762542
-0.0082252
-0.00878116
-0.00928453
-0.00972708
-0.0101012
-0.010399
-0.0106121
-0.0107325
-0.0107538
-0.01067
-0.0104755
-0.0101659
-0.00973874
-0.00919338
-0.00852977
-0.00775012
-0.00685837
-0.00586107
-0.00477052
-0.00360376
-0.0023815
-0.0011264
0.000135047
0.00136867
0.00253335
0.0035909
0.00450397
0.00523705
0.00576332
0.00606545
0.00613964
0.00600088
0.00568378
0.00523229
0.0046996
0.00414231
0.00361467
0.00316048
0.00280873
0.00257319
0.00245437
0.00243682
0.00249785
0.00260496
0.00272521
0.00283722
0.00292849
0.00298549
-5.29677e-06
-3.3535e-06
-3.23161e-05
-9.38625e-05
-0.00017278
-0.000247785
-0.000309715
-0.000354953
-0.000384375
-0.000403661
-0.000420557
-0.000442728
-0.000475973
-0.000524391
-0.00059148
-0.000681333
-0.000800041
-0.000955731
-0.00115868
-0.00141646
-0.00173615
-0.00212473
-0.00258444
-0.00311327
-0.00370321
-0.00434331
-0.00502155
-0.00572498
-0.00643914
-0.00714939
-0.00784194
-0.00850525
-0.00912942
-0.00970526
-0.0102245
-0.0106791
-0.0110619
-0.0113661
-0.0115843
-0.0117093
-0.0117379
-0.0116646
-0.0114851
-0.0111953
-0.0107934
-0.0102782
-0.00964883
-0.00890711
-0.00805572
-0.00709999
-0.00604871
-0.0049163
-0.00372062
-0.00247953
-0.00121618
3.31684e-05
0.00122896
0.00233804
0.00332426
0.00414708
0.00477797
0.00519647
0.00539272
0.00537319
0.00516456
0.00481057
0.00436169
0.00387098
0.00339228
0.00297182
0.00264171
0.00241857
0.00230415
0.00228669
0.00234541
0.00245265
0.00257857
0.00269932
0.0027991
0.00285872
5.227e-05
3.80128e-05
-5.92909e-06
-8.36729e-05
-0.000167958
-0.00024349
-0.000302433
-0.000342455
-0.000366321
-0.000380856
-0.000394443
-0.000414954
-0.000448809
-0.000501687
-0.000579754
-0.000690119
-0.000842532
-0.00104838
-0.00131579
-0.00165344
-0.00206756
-0.00256036
-0.00312439
-0.00374949
-0.00442592
-0.00514233
-0.00588553
-0.00664243
-0.00739997
-0.00814533
-0.00886646
-0.00955282
-0.0101951
-0.0107849
-0.0113143
-0.0117749
-0.012161
-0.0124671
-0.0126874
-0.0128205
-0.0128606
-0.012803
-0.0126437
-0.0123802
-0.0120106
-0.0115319
-0.0109439
-0.0102478
-0.00944706
-0.00854787
-0.00755702
-0.00648172
-0.00533202
-0.00412547
-0.00288667
-0.00164169
-0.000419107
0.000748943
0.00181944
0.00274829
0.0035087
0.0040744
0.0044291
0.00457267
0.00451961
0.00430522
0.00397829
0.00358875
0.00318751
0.00282194
0.00252693
0.00232236
0.00221307
0.00219148
0.00224037
0.00233546
0.00245087
0.00256312
0.00265626
0.00271011
0.000150667
0.000116955
5.29413e-05
-3.83412e-05
-0.000127924
-0.00020469
-0.000262568
-0.000301293
-0.000325404
-0.000342712
-0.000362053
-0.000391711
-0.000439374
-0.000513291
-0.000622419
-0.000777559
-0.00099075
-0.0012729
-0.00163217
-0.00207547
-0.00260029
-0.00319903
-0.00386202
-0.00457787
-0.00533425
-0.00611853
-0.00691804
-0.00772055
-0.00851413
-0.00928742
-0.01003
-0.0107324
-0.0113855
-0.0119808
-0.012511
-0.0129713
-0.0133582
-0.0136671
-0.013895
-0.0140396
-0.0140927
-0.0140514
-0.013912
-0.0136729
-0.0133334
-0.0128921
-0.0123486
-0.0117044
-0.0109631
-0.0101297
-0.00920952
-0.00820532
-0.00712311
-0.0059783
-0.00479011
-0.00357585
-0.00235438
-0.00116033
-2.85154e-05
0.00101116
0.00192078
0.00265705
0.00320303
0.00354871
0.00369935
0.00367311
0.00351223
0.00326377
0.00297494
0.00269189
0.00245209
0.00227876
0.00218077
0.00215434
0.00218844
0.0022631
0.00235643
0.00244813
0.00252041
0.00255937
0.000294961
0.000241682
0.000154266
5.03482e-05
-4.55271e-05
-0.000125078
-0.000185293
-0.000228213
-0.000260128
-0.000289792
-0.000326522
-0.000379452
-0.000458224
-0.000573789
-0.000738389
-0.000964116
-0.0012638
-0.00164787
-0.00211974
-0.00267641
-0.00331113
-0.00401284
-0.00476914
-0.00556679
-0.00639317
-0.00723568
-0.00808251
-0.00892224
-0.00974397
-0.0105375
-0.0112935
-0.0120032
-0.0126575
-0.0132503
-0.0137786
-0.0142411
-0.0146329
-0.0149481
-0.0151825
-0.0153303
-0.0153902
-0.0153604
-0.0152391
-0.015025
-0.0147171
-0.0143154
-0.0138199
-0.0132312
-0.0125511
-0.011782
-0.0109271
-0.00999172
-0.00898383
-0.00791383
-0.00679484
-0.00563893
-0.00445676
-0.00327143
-0.00210835
-0.000991413
3.47448e-05
0.000942849
0.00170085
0.00227631
0.00266732
0.00287588
0.00292801
0.00286319
0.0027243
0.00255472
0.00239375
0.0022686
0.00219284
0.00216798
0.00218514
0.00223349
0.00229654
0.00235895
0.00240076
0.00242097
0.000491891
0.000417311
0.000303863
0.000186028
8.18813e-05
-3.2517e-06
-7.04376e-05
-0.00012449
-0.000173469
-0.000227039
-0.00029519
-0.000388287
-0.000518289
-0.000698876
-0.000943258
-0.00126407
-0.00167298
-0.00217395
-0.00276347
-0.00343428
-0.00417526
-0.00497222
-0.00581204
-0.00668132
-0.00756766
-0.00845893
-0.00934399
-0.0102122
-0.0110536
-0.011859
-0.0126201
-0.0133295
-0.0139823
-0.0145745
-0.0151016
-0.0155588
-0.0159414
-0.016247
-0.0164744
-0.0166207
-0.0166845
-0.0166644
-0.0165596
-0.0163695
-0.0160931
-0.0157304
-0.015282
-0.0147488
-0.0141319
-0.0134328
-0.0126534
-0.0117973
-0.0108695
-0.00987601
-0.00882357
-0.00772128
-0.00658603
-0.00543524
-0.00428298
-0.00314215
-0.00203805
-0.000995424
-5.72632e-05
0.000755415
0.0014037
0.00187924
0.00218744
0.00235097
0.00240228
0.00238045
0.00232382
0.00226529
0.00222426
0.00220763
0.00221272
0.00223426
0.00226369
0.00228979
0.00229892
0.00230082
0.000744818
0.000642619
0.000503157
0.00036628
0.000251577
0.000156969
7.69112e-05
3.41795e-06
-7.33833e-05
-0.00016407
-0.000279415
-0.000431522
-0.000634411
-0.000902538
-0.00124878
-0.00168417
-0.00221425
-0.00283714
-0.00354455
-0.00432445
-0.00516294
-0.0060455
-0.00695867
-0.00788933
-0.00882537
-0.00975524
-0.0106684
-0.0115552
-0.0124067
-0.013215
-0.0139732
-0.0146758
-0.0153186
-0.0158977
-0.01641
-0.016852
-0.0172211
-0.0175158
-0.0177352
-0.0178781
-0.0179435
-0.0179306
-0.0178392
-0.0176694
-0.0174199
-0.0170918
-0.0166855
-0.0162021
-0.0156427
-0.0150086
-0.0143015
-0.0135238
-0.0126784
-0.0117688
-0.0107984
-0.00977203
-0.00869768
-0.00758453
-0.00644498
-0.00530201
-0.00416829
-0.0030539
-0.00198164
-0.000980258
-9.04726e-05
0.000662001
0.00125354
0.00168591
0.00197025
0.00213521
0.00221397
0.00224204
0.00224876
0.00224927
0.00224863
0.00224572
0.00224146
0.00222965
0.00220841
0.00219444
0.00104256
0.000912971
0.000741012
0.000582421
0.000454327
0.000345979
0.000246219
0.000143914
2.74869e-05
-0.000114405
-0.000293712
-0.000523842
-0.000819586
-0.00119454
-0.0016593
-0.00222006
-0.00287641
-0.00362045
-0.00443964
-0.00531987
-0.00624596
-0.00720357
-0.00817915
-0.00915993
-0.0101342
-0.011091
-0.0120208
-0.0129148
-0.0137655
-0.0145666
-0.0153126
-0.0159994
-0.0166238
-0.0171832
-0.0176755
-0.0180989
-0.018452
-0.0187338
-0.0189438
-0.0190814
-0.0191462
-0.0191381
-0.0190571
-0.0189035
-0.0186772
-0.0183789
-0.0180094
-0.0175697
-0.0170611
-0.0164847
-0.015842
-0.0151348
-0.014365
-0.0135345
-0.0126453
-0.0117
-0.0107015
-0.00965324
-0.00855993
-0.00743038
-0.00627658
-0.005121
-0.00397428
-0.00284762
-0.00176573
-0.000768778
0.000105919
0.000828307
0.001384
0.00177757
0.0020312
0.00217429
0.00224353
0.00226933
0.00226704
0.00224502
0.00221073
0.00216545
0.00211932
0.00209192
0.00137195
0.00121375
0.00100505
0.000822043
0.000676978
0.000549417
0.000422274
0.000281174
0.000113065
-9.42791e-05
-0.000353378
-0.000678579
-0.00108366
-0.00157946
-0.0021724
-0.0028628
-0.0036438
-0.00450277
-0.00542501
-0.00639517
-0.00739782
-0.00841875
-0.00944457
-0.010463
-0.0114628
-0.0124342
-0.0133686
-0.0142589
-0.0150989
-0.015884
-0.0166103
-0.0172751
-0.0178764
-0.0184127
-0.0188828
-0.0192859
-0.0196213
-0.0198888
-0.0200882
-0.0202194
-0.0202823
-0.0202771
-0.0202043
-0.0200642
-0.0198574
-0.0195845
-0.0192466
-0.0188448
-0.0183802
-0.017854
-0.0172676
-0.0166223
-0.0159194
-0.0151599
-0.0143448
-0.013475
-0.0125511
-0.0115738
-0.0105439
-0.00946258
-0.00833258
-0.00716086
-0.00595982
-0.00475421
-0.00354871
-0.00236538
-0.00124524
-0.000243547
0.000601878
0.0012617
0.001733
0.00203214
0.00219
0.00225185
0.00225295
0.00221518
0.00215587
0.00208392
0.00202002
0.00198436
0.00171664
0.00152703
0.00127897
0.00106781
0.000901713
0.00074901
0.000586522
0.00039678
0.000165396
-0.000120012
-0.000473002
-0.000907128
-0.00143328
-0.00205825
-0.00278247
-0.00360003
-0.0044989
-0.00546359
-0.0064781
-0.00752644
-0.00859329
-0.00966464
-0.0107275
-0.0117704
-0.0127831
-0.0137571
-0.0146855
-0.0155627
-0.0163843
-0.0171471
-0.0178489
-0.0184882
-0.019064
-0.0195757
-0.0200229
-0.0204053
-0.0207231
-0.0209762
-0.0211649
-0.0212894
-0.0213499
-0.0213467
-0.0212805
-0.0211519
-0.0209615
-0.0207104
-0.0203994
-0.0200297
-0.0196026
-0.0191193
-0.0185811
-0.0179891
-0.0173441
-0.0166468
-0.0158974
-0.0150956
-0.0142407
-0.0133314
-0.012366
-0.0113426
-0.0102595
-0.00911542
-0.007912
-0.00665734
-0.00536725
-0.00406185
-0.00276299
-0.00152274
-0.000399733
0.000546726
0.00127437
0.00177451
0.00206366
0.00218503
0.00219865
0.00214836
0.0020675
0.00197458
0.00189941
0.00185877
0.00205358
0.00183107
0.00154081
0.0012993
0.00110813
0.00092434
0.000718754
0.000471354
0.000166999
-0.000207626
-0.000665908
-0.00121849
-0.00187246
-0.00262825
-0.00348044
-0.00441776
-0.00542447
-0.0064834
-0.00757773
-0.00869121
-0.00980882
-0.010917
-0.0120035
-0.0130581
-0.0140721
-0.0150386
-0.0159524
-0.0168096
-0.0176075
-0.0183443
-0.0190192
-0.0196316
-0.0201814
-0.0206686
-0.0210935
-0.0214563
-0.0217575
-0.0219972
-0.0221759
-0.0222941
-0.0223523
-0.0223508
-0.0222903
-0.0221715
-0.0219953
-0.0217625
-0.0214744
-0.021132
-0.0207367
-0.0202896
-0.019792
-0.0192449
-0.018649
-0.0180049
-0.0173121
-0.0165701
-0.015777
-0.0149306
-0.0140273
-0.0130631
-0.0120333
-0.0109333
-0.00975939
-0.00850974
-0.00718692
-0.00580381
-0.00438905
-0.00297139
-0.00161327
-0.000390481
0.000617822
0.00136035
0.00183
0.00205337
0.00209855
0.00204383
0.0019433
0.00183195
0.00174908
0.0017035
0.00235754
0.00210212
0.00176888
0.00149505
0.00127481
0.00105385
0.000798181
0.00048591
0.000100542
-0.000372361
-0.000943074
-0.00161878
-0.00240052
-0.00328289
-0.00425512
-0.00530149
-0.00640378
-0.00754376
-0.00870418
-0.00986889
-0.0110234
-0.0121549
-0.0132527
-0.0143077
-0.0153133
-0.0162643
-0.0171573
-0.0179901
-0.0187614
-0.0194707
-0.0201181
-0.0207039
-0.0212286
-0.0216928
-0.022097
-0.022442
-0.0227281
-0.022956
-0.0231261
-0.023239
-0.0232953
-0.0232954
-0.02324
-0.0231299
-0.0229659
-0.022749
-0.0224804
-0.0221612
-0.0217925
-0.0213758
-0.0209121
-0.0204025
-0.0198477
-0.019248
-0.0186031
-0.0179121
-0.0171728
-0.0163823
-0.0155364
-0.0146296
-0.0136553
-0.0126064
-0.0114753
-0.0102557
-0.00894381
-0.0075413
-0.00606068
-0.00453044
-0.00299887
-0.00154239
-0.00025839
0.000758167
0.00145328
0.00183159
0.00194723
0.00190152
0.00178555
0.00165678
0.00156442
0.00151034
0.00260666
0.00231653
0.00194121
0.00163364
0.00138023
0.00111682
0.000806089
0.000423794
-4.95602e-05
-0.000625702
-0.00131122
-0.00210862
-0.00301285
-0.00401336
-0.00509436
-0.00623674
-0.00742072
-0.00862746
-0.00983961
-0.0110415
-0.0122194
-0.0133619
-0.0144599
-0.0155062
-0.016496
-0.017426
-0.0182944
-0.0191005
-0.0198443
-0.0205262
-0.021147
-0.0217077
-0.0222092
-0.0226525
-0.0230383
-0.0233675
-0.0236406
-0.0238584
-0.0240213
-0.02413
-0.024185
-0.0241869
-0.0241363
-0.024034
-0.0238808
-0.0236778
-0.0234259
-0.0231262
-0.0227801
-0.0223888
-0.0219533
-0.0214748
-0.0209539
-0.0203911
-0.019786
-0.0191376
-0.0184441
-0.0177021
-0.0169071
-0.0160533
-0.015133
-0.0141377
-0.0130574
-0.0118821
-0.0106033
-0.00921621
-0.00772252
-0.00613721
-0.00449772
-0.0028693
-0.00134932
-5.49855e-05
0.000907563
0.00149033
0.00172668
0.0017197
0.00159801
0.00145085
0.00134122
0.00127318
0.00277205
0.00245219
0.00203736
0.00169541
0.00140556
0.00109652
0.00072737
0.000270028
-0.000293773
-0.000972982
-0.00177128
-0.0026844
-0.00370233
-0.00480932
-0.00598547
-0.00720935
-0.00846019
-0.00971894
-0.0109685
-0.012194
-0.013383
-0.0145258
-0.0156151
-0.0166457
-0.0176146
-0.0185202
-0.0193623
-0.0201412
-0.0208579
-0.0215136
-0.0221097
-0.0226475
-0.0231282
-0.0235529
-0.0239227
-0.0242384
-0.0245006
-0.02471
-0.0248673
-0.0249728
-0.0250273
-0.0250312
-0.0249852
-0.0248901
-0.0247466
-0.0245556
-0.0243182
-0.0240354
-0.0237084
-0.0233383
-0.0229264
-0.0224736
-0.0219807
-0.0214482
-0.0208758
-0.0202628
-0.0196072
-0.0189063
-0.0181555
-0.0173488
-0.0164787
-0.0155355
-0.0145085
-0.0133856
-0.0121546
-0.0108055
-0.00933266
-0.00773981
-0.00604922
-0.00431293
-0.00261784
-0.00107932
0.000163816
0.00100056
0.0014161
0.00149116
0.0013778
0.00121254
0.00107484
0.000989458
0.00283807
0.00249176
0.00204069
0.00166447
0.00133654
0.000980306
0.00055012
1.63692e-05
-0.000636644
-0.00141598
-0.00232022
-0.00333998
-0.00445984
-0.00565941
-0.0069157
-0.00820579
-0.00950841
-0.0108046
-0.012078
-0.0133148
-0.0145044
-0.0156387
-0.0167125
-0.0177225
-0.0186674
-0.0195471
-0.0203625
-0.0211149
-0.0218059
-0.0224374
-0.0230111
-0.0235285
-0.0239909
-0.0243997
-0.0247558
-0.0250601
-0.0253133
-0.025516
-0.0256689
-0.0257723
-0.0258269
-0.0258331
-0.0257917
-0.0257032
-0.0255684
-0.0253881
-0.0251633
-0.0248951
-0.0245844
-0.0242325
-0.0238403
-0.0234089
-0.0229392
-0.0224315
-0.0218859
-0.0213018
-0.0206777
-0.0200109
-0.0192975
-0.0185319
-0.0177067
-0.0168123
-0.0158374
-0.0147691
-0.0135932
-0.0122961
-0.010867
-0.00930056
-0.00760472
-0.00581475
-0.0040079
-0.00228515
-0.000781969
0.000338078
0.000983136
0.00119337
0.00111901
0.000937475
0.000761504
0.000657934
0.0027905
0.00242212
0.00193931
0.00153026
0.00116425
0.000759267
0.000267006
-0.000340301
-0.00107836
-0.00195137
-0.00295232
-0.00406692
-0.00527477
-0.0065517
-0.00787254
-0.00921346
-0.0105531
-0.0118731
-0.0131579
-0.0143955
-0.0155769
-0.016696
-0.0177496
-0.018736
-0.0196554
-0.020509
-0.0212984
-0.0220257
-0.0226931
-0.0233027
-0.0238564
-0.0243559
-0.0248026
-0.0251977
-0.0255423
-0.0258372
-0.0260831
-0.0262806
-0.0264302
-0.0265323
-0.0265875
-0.0265963
-0.0265592
-0.0264769
-0.0263501
-0.0261794
-0.0259658
-0.0257103
-0.0254138
-0.0250773
-0.0247019
-0.0242886
-0.023838
-0.0233509
-0.0228273
-0.0222669
-0.0216686
-0.02103
-0.020348
-0.0196174
-0.0188314
-0.0179811
-0.0170554
-0.0160409
-0.0149226
-0.0136848
-0.0123128
-0.0107957
-0.00912953
-0.00733045
-0.00546055
-0.00361886
-0.00191163
-0.00051635
0.000401991
0.000805464
0.000807556
0.00061638
0.000397576
0.000278796
0.00262075
0.00223553
0.00172648
0.0012871
0.000883167
0.000429829
-0.000121513
-0.000798347
-0.00161548
-0.00257281
-0.00365899
-0.00485479
-0.00613552
-0.00747414
-0.00884403
-0.010221
-0.0115839
-0.0129152
-0.0142008
-0.0154304
-0.0165968
-0.017696
-0.0187263
-0.0196876
-0.0205812
-0.0214092
-0.0221741
-0.0228783
-0.0235243
-0.0241144
-0.0246505
-0.0251345
-0.0255677
-0.0259513
-0.0262863
-0.0265735
-0.0268135
-0.0270069
-0.0271541
-0.0272557
-0.0273119
-0.0273234
-0.0272906
-0.0272141
-0.0270945
-0.0269325
-0.0267289
-0.0264846
-0.0262005
-0.0258774
-0.0255165
-0.0251184
-0.0246842
-0.0242143
-0.023709
-0.0231681
-0.0225909
-0.0219757
-0.0213196
-0.0206185
-0.0198663
-0.0190549
-0.0181739
-0.0172104
-0.0161491
-0.0149732
-0.0136655
-0.0122116
-0.0106
-0.0088295
-0.00693383
-0.00502492
-0.00317976
-0.00155091
-0.000349681
0.000293834
0.000421804
0.000242662
-1.418e-05
-0.00014819
0.00232627
0.00192985
0.00140071
0.000934157
0.000493696
-5.79605e-06
-0.000611831
-0.00135203
-0.00223975
-0.00327076
-0.00442933
-0.0056918
-0.00703005
-0.00841496
-0.0098191
-0.0112183
-0.012592
-0.0139239
-0.0152015
-0.0164162
-0.0175627
-0.0186388
-0.019644
-0.0205797
-0.0214481
-0.0222519
-0.022994
-0.0236771
-0.0243039
-0.0248768
-0.0253977
-0.0258683
-0.0262899
-0.0266638
-0.0269908
-0.0272717
-0.027507
-0.0276972
-0.0278429
-0.0279443
-0.0280019
-0.0280161
-0.0279874
-0.0279164
-0.0278035
-0.0276494
-0.0274548
-0.0272205
-0.0269473
-0.0266361
-0.0262877
-0.0259029
-0.0254826
-0.0250273
-0.0245375
-0.024013
-0.0234534
-0.0228575
-0.0222231
-0.0215467
-0.0208232
-0.0200456
-0.0192045
-0.0182879
-0.0172808
-0.0161663
-0.0149255
-0.0135415
-0.0119995
-0.010287
-0.00840783
-0.00645277
-0.00453521
-0.00273834
-0.00127925
-0.000366175
-5.77355e-05
-0.000195828
-0.000473538
-0.000625023
0.00190997
0.00150825
0.00096531
0.000475113
7.86713e-07
-0.000540527
-0.00119577
-0.00199239
-0.00294083
-0.00403366
-0.00525104
-0.00656551
-0.0079463
-0.00936294
-0.0107877
-0.0121967
-0.0135706
-0.0148941
-0.0161566
-0.0173513
-0.0184745
-0.0195255
-0.0205051
-0.0214156
-0.0222599
-0.023041
-0.0237621
-0.0244263
-0.025036
-0.0255938
-0.0261013
-0.0265604
-0.0269723
-0.0273379
-0.0276583
-0.0279339
-0.0281654
-0.0283533
-0.0284979
-0.0285996
-0.0286587
-0.0286756
-0.0286509
-0.0285849
-0.0284782
-0.0283313
-0.0281449
-0.0279196
-0.0276562
-0.0273555
-0.0270182
-0.0266451
-0.026237
-0.0257944
-0.0253178
-0.0248073
-0.0242626
-0.023683
-0.0230668
-0.0224112
-0.0217122
-0.0209638
-0.0201577
-0.0192832
-0.0183264
-0.0172705
-0.0160962
-0.0147843
-0.0133178
-0.0116803
-0.00985996
-0.00788397
-0.0059293
-0.00403248
-0.00236356
-0.0011798
-0.000652013
-0.000710783
-0.000981474
-0.00115755
0.00137956
0.00097851
0.000427633
-8.18894e-05
-0.000586178
-0.00116445
-0.00186263
-0.00270721
-0.00370604
-0.00484847
-0.00611108
-0.00746338
-0.00887267
-0.0103077
-0.0117409
-0.0131492
-0.0145141
-0.0158222
-0.0170643
-0.0182353
-0.0193332
-0.0203582
-0.0213124
-0.0221985
-0.02302
-0.0237801
-0.0244822
-0.0251293
-0.0257239
-0.0262683
-0.0267643
-0.0272134
-0.0276169
-0.0279755
-0.0282903
-0.0285616
-0.0287901
-0.0289761
-0.02912
-0.0292222
-0.0292829
-0.0293026
-0.0292816
-0.0292204
-0.0291194
-0.0289791
-0.0288001
-0.028583
-0.0283285
-0.0280372
-0.0277099
-0.0273472
-0.0269499
-0.0265185
-0.0260535
-0.0255552
-0.0250234
-0.0244578
-0.0238571
-0.0232194
-0.0225412
-0.0218179
-0.0210424
-0.0202054
-0.0192942
-0.0182932
-0.0171832
-0.0159434
-0.0145545
-0.0129986
-0.0112546
-0.00931848
-0.00732632
-0.00538827
-0.00357646
-0.00215293
-0.00138119
-0.00130089
-0.00154401
-0.00175674
0.000746642
0.000352294
-0.000200637
-0.000724883
-0.00125439
-0.00186434
-0.00259904
-0.00348289
-0.00452152
-0.00570145
-0.00699629
-0.00837321
-0.00979828
-0.01124
-0.0126712
-0.0140697
-0.0154185
-0.0167057
-0.0179236
-0.0190687
-0.0201401
-0.0211392
-0.0220685
-0.0229315
-0.0237316
-0.0244725
-0.0251574
-0.0257891
-0.0263703
-0.0269029
-0.0273888
-0.0278292
-0.0282254
-0.0285781
-0.028888
-0.0291557
-0.0293817
-0.0295663
-0.0297098
-0.0298126
-0.029875
-0.0298973
-0.0298798
-0.029823
-0.0297273
-0.0295931
-0.0294209
-0.0292113
-0.0289648
-0.0286821
-0.0283639
-0.0280106
-0.0276231
-0.0272017
-0.0267472
-0.0262597
-0.0257393
-0.025186
-0.0245989
-0.0239765
-0.0233165
-0.022615
-0.0218663
-0.0210623
-0.0201922
-0.0192414
-0.0181918
-0.0170224
-0.0157114
-0.0142394
-0.0125851
-0.010731
-0.0087142
-0.00676433
-0.00488258
-0.00327397
-0.00225895
-0.00198948
-0.00217941
-0.00244005
2.73371e-05
-0.000356395
-0.000905208
-0.00143955
-0.00198999
-0.00262636
-0.00339034
-0.00430471
-0.00537282
-0.00657877
-0.00789383
-0.0092835
-0.0107132
-0.0121515
-0.013572
-0.0149537
-0.0162809
-0.0175432
-0.0187345
-0.0198523
-0.020897
-0.0218706
-0.0227761
-0.0236172
-0.0243976
-0.0251208
-0.02579
-0.026408
-0.0269772
-0.0274994
-0.0279763
-0.0284091
-0.0287989
-0.0291464
-0.0294522
-0.0297168
-0.0299407
-0.0301242
-0.0302675
-0.030371
-0.030435
-0.0304598
-0.0304456
-0.0303929
-0.030302
-0.0301734
-0.0300075
-0.0298047
-0.0295657
-0.0292909
-0.0289809
-0.0286363
-0.0282576
-0.0278455
-0.0274005
-0.0269228
-0.0264128
-0.0258705
-0.0252955
-0.0246868
-0.0240427
-0.0233603
-0.0226351
-0.0218604
-0.0210269
-0.0201217
-0.0191282
-0.0180259
-0.0167916
-0.0154052
-0.0138469
-0.012086
-0.0101028
-0.00812996
-0.00623899
-0.00451288
-0.00328266
-0.00280533
-0.00290551
-0.00322932
-0.00076039
-0.0011312
-0.00167111
-0.00221137
-0.00277805
-0.00343514
-0.00422129
-0.00515768
-0.00624555
-0.007467
-0.00879154
-0.0101836
-0.0116084
-0.0130351
-0.014438
-0.0157974
-0.017099
-0.0183339
-0.0194971
-0.0205873
-0.0216056
-0.0225545
-0.0234374
-0.0242581
-0.0250202
-0.0257272
-0.0263822
-0.0269878
-0.0275462
-0.0280591
-0.028528
-0.0289541
-0.0293382
-0.0296811
-0.0299833
-0.0302452
-0.0304673
-0.0306498
-0.0307931
-0.0308974
-0.0309629
-0.0309899
-0.0309788
-0.0309299
-0.0308435
-0.0307201
-0.0305599
-0.0303634
-0.0301312
-0.0298637
-0.0295613
-0.0292247
-0.0288544
-0.0284508
-0.0280145
-0.027546
-0.0270455
-0.0265133
-0.0259493
-0.0253529
-0.0247231
-0.0240577
-0.0233533
-0.0226047
-0.0218038
-0.0209398
-0.0199975
-0.0189577
-0.0177977
-0.0164948
-0.015029
-0.0133706
-0.0114886
-0.00948579
-0.00761125
-0.00584247
-0.004447
-0.00375941
-0.0037386
-0.00414905
-0.00159931
-0.00195499
-0.00248222
-0.00302427
-0.00360241
-0.0042746
-0.00507636
-0.00602698
-0.00712583
-0.00835346
-0.00967823
-0.011064
-0.0124762
-0.0138846
-0.0152647
-0.0165979
-0.0178713
-0.0190772
-0.0202119
-0.0212747
-0.0222673
-0.0231927
-0.0240543
-0.0248559
-0.0256012
-0.0262934
-0.0269354
-0.0275298
-0.0280784
-0.0285829
-0.0290447
-0.0294647
-0.0298437
-0.0301825
-0.0304815
-0.0307411
-0.0309616
-0.0311433
-0.0312865
-0.0313915
-0.0314584
-0.0314876
-0.0314794
-0.031434
-0.0313517
-0.0312329
-0.0310781
-0.0308874
-0.0306615
-0.0304007
-0.0301055
-0.0297763
-0.0294137
-0.0290181
-0.02859
-0.02813
-0.0276385
-0.0271157
-0.0265619
-0.0259769
-0.02536
-0.02471
-0.0240243
-0.0232989
-0.0225274
-0.0217004
-0.0208048
-0.019823
-0.0187333
-0.0175115
-0.0161367
-0.0145852
-0.0128212
-0.0108346
-0.00897457
-0.0072237
-0.00572826
-0.00484892
-0.00470201
-0.00520293
-0.0024719
-0.00281064
-0.00332193
-0.00386162
-0.00444676
-0.005129
-0.00594047
-0.00689842
-0.00800059
-0.00922647
-0.0105438
-0.0119163
-0.0133097
-0.0146949
-0.0160484
-0.0173529
-0.0185967
-0.0197731
-0.0208793
-0.0219155
-0.0228835
-0.0237865
-0.0246282
-0.0254121
-0.0261419
-0.0268205
-0.0274507
-0.0280348
-0.0285746
-0.0290715
-0.0295268
-0.0299413
-0.0303158
-0.0306509
-0.0309469
-0.0312043
-0.0314234
-0.0316044
-0.0317477
-0.0318533
-0.0319215
-0.0319527
-0.031947
-0.0319048
-0.0318263
-0.0317119
-0.0315619
-0.0313766
-0.0311565
-0.0309019
-0.0306133
-0.0302911
-0.0299357
-0.0295476
-0.0291273
-0.0286754
-0.0281923
-0.0276784
-0.0271342
-0.0265598
-0.025955
-0.025319
-0.0246503
-0.0239458
-0.0232006
-0.022407
-0.0215537
-0.020625
-0.0196005
-0.0184565
-0.0171713
-0.0157238
-0.0140746
-0.0121834
-0.0103153
-0.00860801
-0.00707716
-0.00605143
-0.00580806
-0.00637102
-0.00336117
-0.00368105
-0.00417366
-0.00470769
-0.00529585
-0.00598354
-0.0067995
-0.00775886
-0.00885795
-0.0100755
-0.0113791
-0.0127329
-0.0141032
-0.0154617
-0.0167862
-0.0180606
-0.0192742
-0.0204213
-0.0214999
-0.0225104
-0.023455
-0.0243371
-0.0251602
-0.0259278
-0.0266433
-0.0273095
-0.0279289
-0.0285036
-0.0290353
-0.0295252
-0.0299746
-0.0303841
-0.0307544
-0.0310861
-0.0313795
-0.031635
-0.0318527
-0.0320331
-0.0321763
-0.0322825
-0.0323519
-0.0323848
-0.0323815
-0.0323422
-0.0322671
-0.0321567
-0.0320111
-0.0318308
-0.0316161
-0.0313673
-0.0310848
-0.030769
-0.0304204
-0.0300395
-0.0296266
-0.0291823
-0.0287073
-0.0282019
-0.0276668
-0.0271024
-0.0265088
-0.0258858
-0.0252326
-0.0245472
-0.0238258
-0.0230623
-0.0222473
-0.021367
-0.0204029
-0.0193323
-0.0181315
-0.0167799
-0.0152438
-0.0134892
-0.0116276
-0.00997288
-0.00844981
-0.00733174
-0.0070337
-0.00761886
-0.00425066
-0.00455002
-0.00502173
-0.00554748
-0.00613533
-0.00682451
-0.00764053
-0.00859639
-0.00968728
-0.0108913
-0.0121765
-0.0135076
-0.0148517
-0.0161815
-0.0174758
-0.0187196
-0.0199033
-0.0210219
-0.0220738
-0.02306
-0.0239828
-0.0248454
-0.0256512
-0.0264038
-0.027106
-0.0277608
-0.0283703
-0.0289364
-0.0294607
-0.0299443
-0.0303882
-0.0307932
-0.0311597
-0.0314882
-0.0317792
-0.0320328
-0.0322494
-0.0324291
-0.0325722
-0.0326789
-0.0327494
-0.0327839
-0.0327826
-0.0327459
-0.032674
-0.0325672
-0.0324257
-0.0322499
-0.03204
-0.0317966
-0.0315198
-0.0312101
-0.0308679
-0.0304936
-0.0300877
-0.0296508
-0.0291834
-0.0286861
-0.0281597
-0.0276048
-0.0270218
-0.026411
-0.0257721
-0.0251041
-0.0244042
-0.023668
-0.0228875
-0.0220513
-0.0211426
-0.0201403
-0.0190201
-0.0177617
-0.0163407
-0.0147223
-0.0128983
-0.0112851
-0.00980764
-0.00864925
-0.00831324
-0.00886269
-0.00512511
-0.00540278
-0.00585204
-0.00636733
-0.00695207
-0.00763949
-0.00845193
-0.00940035
-0.0104793
-0.0116658
-0.0129292
-0.014235
-0.0155511
-0.0168511
-0.018115
-0.0193286
-0.0204833
-0.0215746
-0.0226014
-0.0235647
-0.0244671
-0.0253117
-0.0261017
-0.0268403
-0.0275306
-0.0281748
-0.0287753
-0.0293335
-0.029851
-0.0303288
-0.0307677
-0.0311684
-0.0315314
-0.0318571
-0.0321458
-0.0323977
-0.0326132
-0.0327923
-0.0329353
-0.0330424
-0.0331138
-0.0331497
-0.0331503
-0.0331159
-0.0330468
-0.0329432
-0.0328054
-0.0326336
-0.0324283
-0.0321897
-0.0319182
-0.0316141
-0.0312778
-0.0309098
-0.0305105
-0.0300805
-0.0296205
-0.029131
-0.0286129
-0.0280669
-0.0274939
-0.0268945
-0.026269
-0.0256169
-0.0249367
-0.024225
-0.0234759
-0.0226793
-0.021821
-0.020881
-0.0198366
-0.0186676
-0.0173539
-0.0158563
-0.0141394
-0.0125418
-0.0111112
-0.00995134
-0.00956573
-0.0100033
-0.00596997
-0.00622595
-0.00665188
-0.00715502
-0.00773443
-0.0084175
-0.0092236
-0.0101617
-0.0112256
-0.0123924
-0.0136314
-0.0149107
-0.0161981
-0.0174683
-0.0187022
-0.0198867
-0.0210137
-0.0220793
-0.0230826
-0.0240248
-0.0249084
-0.0257363
-0.0265118
-0.0272378
-0.027917
-0.0285517
-0.0291438
-0.0296949