/*--------------------------------*- C++ -*----------------------------------*\
  =========                 |
  \\      /  F ield         | OpenFOAM: The Open Source CFD Toolbox
   \\    /   O peration     | Website:  https://openfoam.org
    \\  /    A nd           | Version:  13
     \\/     M anipulation  |
\*---------------------------------------------------------------------------*/
FoamFile
{
    format      ascii;
    class       surfaceScalarField;
    location    "5.5";
    object      phi;
}
// * * * * * * * * * * * * * * * * * * * * * * * * * * * * * * * * * * * * * //

dimensions      [0 3 -1 0 0 0 0];

internalField   nonuniform List<scalar> 
12640
(
1.60133e-09
-1.60112e-09
1.44531e-08
-1.28517e-08
3.70669e-08
-2.26138e-08
6.32811e-08
-2.62142e-08
8.70946e-08
-2.38135e-08
1.05052e-07
-1.79579e-08
1.15839e-07
-1.07865e-08
1.20224e-07
-4.38478e-09
1.20351e-07
-1.27468e-10
1.18449e-07
1.90193e-09
1.16406e-07
2.04368e-09
1.15458e-07
9.4799e-10
1.16021e-07
-5.63413e-10
1.17799e-07
-1.7782e-09
1.20011e-07
-2.21231e-09
1.21771e-07
-1.75978e-09
1.22244e-07
-4.72991e-10
1.20925e-07
1.31942e-09
1.17073e-07
3.85145e-09
1.09806e-07
7.26755e-09
9.85003e-08
1.13054e-08
8.26303e-08
1.587e-08
6.17374e-08
2.08929e-08
3.56385e-08
2.6099e-08
4.31717e-09
3.13213e-08
-3.23749e-08
3.6692e-08
-7.55128e-08
4.3138e-08
-1.27219e-07
5.17064e-08
-1.90194e-07
6.29743e-08
-2.66801e-07
7.66076e-08
-3.56671e-07
8.98702e-08
-4.56791e-07
1.0012e-07
-5.63887e-07
1.07096e-07
-6.74694e-07
1.10807e-07
-7.86309e-07
1.11615e-07
-8.96161e-07
1.09852e-07
-1.0021e-06
1.05944e-07
-1.10239e-06
1.00282e-07
-1.1956e-06
9.32093e-08
-1.28063e-06
8.50313e-08
-1.35658e-06
7.59534e-08
-1.42273e-06
6.61442e-08
-1.47842e-06
5.56993e-08
-1.52309e-06
4.4667e-08
-1.55613e-06
3.30349e-08
-1.57693e-06
2.08057e-08
-1.58575e-06
8.8209e-09
-1.58178e-06
-3.97674e-09
-1.56363e-06
-1.81435e-08
-1.53208e-06
-3.1556e-08
-1.48589e-06
-4.6183e-08
-1.42543e-06
-6.04608e-08
-1.35054e-06
-7.48893e-08
-1.26175e-06
-8.87986e-08
-1.1596e-06
-1.0215e-07
-1.04487e-06
-1.14723e-07
-9.18794e-07
-1.26078e-07
-7.83007e-07
-1.35787e-07
-6.39656e-07
-1.43351e-07
-4.91514e-07
-1.48141e-07
-3.41898e-07
-1.49616e-07
-1.94563e-07
-1.47336e-07
-5.35223e-08
-1.4104e-07
7.72884e-08
-1.30811e-07
1.93734e-07
-1.16445e-07
2.91411e-07
-9.76768e-08
3.6703e-07
-7.56192e-08
4.17861e-07
-5.08315e-08
4.42324e-07
-2.44631e-08
4.3958e-07
2.74437e-09
4.11888e-07
2.76924e-08
3.61688e-07
5.01995e-08
2.94662e-07
6.70265e-08
2.19799e-07
7.48621e-08
1.48426e-07
7.13732e-08
8.7962e-08
6.04642e-08
4.2559e-08
4.5403e-08
1.31898e-08
2.93693e-08
1.29216e-10
1.30605e-08
1.29215e-10
9.95289e-09
-1.1554e-08
4.09962e-08
-4.38951e-08
8.43668e-08
-6.59845e-08
1.29053e-07
-7.09004e-08
1.67651e-07
-6.24111e-08
1.96371e-07
-4.6678e-08
2.14472e-07
-2.88878e-08
2.22875e-07
-1.27879e-08
2.23321e-07
-5.73739e-10
2.18071e-07
7.15226e-09
2.09318e-07
1.0797e-08
1.98544e-07
1.17217e-08
1.86204e-07
1.17762e-08
1.7177e-07
1.26558e-08
1.54196e-07
1.53619e-08
1.32335e-07
2.01012e-08
1.05306e-07
2.65565e-08
7.19922e-08
3.4633e-08
3.12007e-08
4.46429e-08
-1.84656e-08
5.69338e-08
-7.88744e-08
7.17143e-08
-1.51861e-07
8.8857e-08
-2.38685e-07
1.07717e-07
-3.40166e-07
1.27579e-07
-4.56862e-07
1.48017e-07
-5.88631e-07
1.68461e-07
-7.33464e-07
1.87971e-07
-8.87519e-07
2.05761e-07
-1.04579e-06
2.2125e-07
-1.20266e-06
2.33472e-07
-1.35436e-06
2.4157e-07
-1.49955e-06
2.4531e-07
-1.63691e-06
2.44453e-07
-1.76515e-06
2.39047e-07
-1.88323e-06
2.297e-07
-1.99047e-06
2.17092e-07
-2.08636e-06
2.0183e-07
-2.17058e-06
1.84501e-07
-2.2429e-06
1.65529e-07
-2.30317e-06
1.45307e-07
-2.35129e-06
1.24069e-07
-2.38713e-06
1.01985e-07
-2.41058e-06
7.91551e-08
-2.42156e-06
5.56385e-08
-2.42e-06
3.14764e-08
-2.40551e-06
6.31705e-09
-2.37798e-06
-1.87102e-08
-2.33714e-06
-4.48096e-08
-2.28332e-06
-7.19658e-08
-2.21556e-06
-9.93227e-08
-2.1344e-06
-1.2734e-07
-2.0394e-06
-1.55456e-07
-1.93071e-06
-1.83583e-07
-1.80828e-06
-2.11231e-07
-1.67247e-06
-2.37962e-07
-1.52423e-06
-2.6296e-07
-1.3648e-06
-2.85504e-07
-1.1958e-06
-3.04786e-07
-1.01951e-06
-3.1965e-07
-8.38442e-07
-3.29205e-07
-6.55552e-07
-3.32506e-07
-4.74195e-07
-3.28693e-07
-2.98047e-07
-3.17188e-07
-1.30968e-07
-2.9789e-07
2.32806e-08
-2.70694e-07
1.61624e-07
-2.3602e-07
2.80255e-07
-1.9425e-07
3.76395e-07
-1.46972e-07
4.47552e-07
-9.56198e-08
4.9252e-07
-4.22241e-08
5.10423e-07
9.78953e-09
5.00802e-07
5.98204e-08
4.65865e-07
1.01963e-07
4.07245e-07
1.33483e-07
3.27695e-07
1.50923e-07
2.37081e-07
1.51078e-07
1.47706e-07
1.34778e-07
7.20569e-08
1.05018e-07
2.05711e-08
6.45464e-08
2.07003e-08
1.87488e-08
-3.03028e-08
6.27846e-08
-8.79308e-08
1.1306e-07
-1.1626e-07
1.57948e-07
-1.15788e-07
1.92819e-07
-9.72821e-08
2.1655e-07
-7.0409e-08
2.297e-07
-4.20379e-08
2.33209e-07
-1.6297e-08
2.28197e-07
4.43846e-09
2.16034e-07
1.93156e-08
1.98132e-07
2.86986e-08
1.75077e-07
3.47769e-08
1.46681e-07
4.01719e-08
1.12176e-07
4.71611e-08
7.0417e-08
5.71206e-08
2.00411e-08
7.04772e-08
-4.06059e-08
8.72035e-08
-1.13296e-07
1.07323e-07
-1.99529e-07
1.30876e-07
-3.00544e-07
1.57949e-07
-4.16923e-07
1.88093e-07
-5.48385e-07
2.2032e-07
-6.93938e-07
2.5327e-07
-8.5139e-07
2.85032e-07
-1.01758e-06
3.14203e-07
-1.18843e-06
3.3932e-07
-1.3598e-06
3.59336e-07
-1.5278e-06
3.73766e-07
-1.68887e-06
3.82315e-07
-1.8403e-06
3.84906e-07
-1.98047e-06
3.81741e-07
-2.1083e-06
3.73138e-07
-2.22362e-06
3.59767e-07
-2.3268e-06
3.42231e-07
-2.41816e-06
3.21058e-07
-2.49805e-06
2.96987e-07
-2.5668e-06
2.70574e-07
-2.62466e-06
2.42368e-07
-2.67184e-06
2.12708e-07
-2.70847e-06
1.81936e-07
-2.73464e-06
1.50241e-07
-2.75036e-06
1.17703e-07
-2.75559e-06
8.43801e-08
-2.75019e-06
5.02449e-08
-2.73396e-06
1.52404e-08
-2.707e-06
-2.06433e-08
-2.66838e-06
-5.73283e-08
-2.61809e-06
-9.5098e-08
-2.5561e-06
-1.33954e-07
-2.48177e-06
-1.73656e-07
-2.39497e-06
-2.14141e-07
-2.29544e-06
-2.54981e-07
-2.18314e-06
-2.95888e-07
-2.05807e-06
-3.36299e-07
-1.92055e-06
-3.75479e-07
-1.77113e-06
-4.12383e-07
-1.61072e-06
-4.4591e-07
-1.44065e-06
-4.74854e-07
-1.26265e-06
-4.97657e-07
-1.07906e-06
-5.12795e-07
-8.92581e-07
-5.18981e-07
-7.06417e-07
-5.14857e-07
-5.24166e-07
-4.9944e-07
-3.4953e-07
-4.72526e-07
-1.85916e-07
-4.34308e-07
-3.66068e-08
-3.85329e-07
9.5621e-08
-3.26478e-07
2.08118e-07
-2.59469e-07
2.99065e-07
-1.86567e-07
3.67543e-07
-1.10702e-07
4.12303e-07
-3.49705e-08
4.33661e-07
3.84623e-08
4.29982e-07
1.05642e-07
4.02481e-07
1.60984e-07
3.52413e-07
2.00991e-07
2.82949e-07
2.20541e-07
2.00349e-07
2.17378e-07
1.15001e-07
1.90366e-07
4.05955e-08
1.38952e-07
6.12958e-08
2.60987e-08
-5.64015e-08
7.66973e-08
-1.38529e-07
1.25291e-07
-1.64854e-07
1.63071e-07
-1.53568e-07
1.88454e-07
-1.22665e-07
2.02458e-07
-8.4413e-08
2.06218e-07
-4.57975e-08
2.00811e-07
-1.08904e-08
1.87008e-07
1.8241e-08
1.65324e-07
4.1e-08
1.35515e-07
5.85075e-08
9.71012e-08
7.31908e-08
4.93343e-08
8.79387e-08
-8.7017e-09
1.05197e-07
-7.8053e-08
1.26472e-07
-1.59993e-07
1.52417e-07
-2.55967e-07
1.83177e-07
-3.67257e-07
2.18613e-07
-4.94492e-07
2.58111e-07
-6.37338e-07
3.00795e-07
-7.94223e-07
3.44978e-07
-9.62128e-07
3.88224e-07
-1.13743e-06
4.28572e-07
-1.31595e-06
4.63555e-07
-1.49366e-06
4.91906e-07
-1.66671e-06
5.12371e-07
-1.83159e-06
5.24215e-07
-1.98548e-06
5.27658e-07
-2.12689e-06
5.23729e-07
-2.2553e-06
5.13316e-07
-2.37083e-06
4.97269e-07
-2.47404e-06
4.76352e-07
-2.56553e-06
4.51258e-07
-2.64602e-06
4.22715e-07
-2.7162e-06
3.91243e-07
-2.77667e-06
3.57458e-07
-2.82789e-06
3.2179e-07
-2.87019e-06
2.84662e-07
-2.90379e-06
2.46311e-07
-2.9288e-06
2.06951e-07
-2.94528e-06
1.66715e-07
-2.95317e-06
1.25591e-07
-2.95234e-06
8.35563e-08
-2.94259e-06
4.04931e-08
-2.92366e-06
-3.69214e-09
-2.89525e-06
-4.90508e-08
-2.8569e-06
-9.56819e-08
-2.80827e-06
-1.4372e-07
-2.74906e-06
-1.93166e-07
-2.67872e-06
-2.44e-07
-2.59682e-06
-2.96037e-07
-2.50302e-06
-3.48786e-07
-2.39707e-06
-4.01838e-07
-2.27878e-06
-4.54589e-07
-2.1481e-06
-5.06157e-07
-2.00517e-06
-5.5531e-07
-1.85065e-06
-6.00429e-07
-1.68551e-06
-6.39999e-07
-1.51104e-06
-6.72129e-07
-1.32916e-06
-6.9467e-07
-1.14226e-06
-7.05882e-07
-9.53239e-07
-7.03879e-07
-7.65561e-07
-6.87118e-07
-5.83332e-07
-6.54756e-07
-4.10535e-07
-6.07105e-07
-2.50535e-07
-5.45328e-07
-1.06367e-07
-4.70646e-07
1.94399e-08
-3.85275e-07
1.25108e-07
-2.92236e-07
2.09335e-07
-1.94929e-07
2.71504e-07
-9.71389e-08
3.12415e-07
-2.44904e-09
3.32066e-07
8.59908e-08
3.29885e-07
1.63166e-07
3.05972e-07
2.24904e-07
2.60818e-07
2.65695e-07
1.98179e-07
2.80017e-07
1.23741e-07
2.64804e-07
4.79445e-08
2.14749e-07
1.0924e-07
3.18632e-08
-8.82647e-08
8.24601e-08
-1.89126e-07
1.23138e-07
-2.05531e-07
1.50048e-07
-1.80478e-07
1.63669e-07
-1.36287e-07
1.66094e-07
-8.68376e-08
1.58653e-07
-3.83563e-08
1.42096e-07
5.66652e-09
1.16567e-07
4.37694e-08
8.1673e-08
7.58942e-08
3.64789e-08
1.03702e-07
-2.01592e-08
1.29829e-07
-8.93644e-08
1.57144e-07
-1.72169e-07
1.88002e-07
-2.69548e-07
2.2385e-07
-3.82349e-07
2.65219e-07
-5.11068e-07
3.11896e-07
-6.55572e-07
3.63117e-07
-8.14585e-07
4.17124e-07
-9.85261e-07
4.71471e-07
-1.16399e-06
5.23703e-07
-1.34629e-06
5.70531e-07
-1.52798e-06
6.10264e-07
-1.7049e-06
6.40474e-07
-1.87269e-06
6.59696e-07
-2.02856e-06
6.68236e-07
-2.17139e-06
6.67049e-07
-2.30117e-06
6.57435e-07
-2.41829e-06
6.40846e-07
-2.52343e-06
6.18464e-07
-2.61744e-06
5.91275e-07
-2.70115e-06
5.60057e-07
-2.7753e-06
5.25408e-07
-2.84054e-06
4.87964e-07
-2.89752e-06
4.48216e-07
-2.94668e-06
4.06619e-07
-2.9884e-06
3.63512e-07
-3.02295e-06
3.19212e-07
-3.0505e-06
2.73857e-07
-3.071e-06
2.2746e-07
-3.08453e-06
1.8024e-07
-3.09098e-06
1.32046e-07
-3.09024e-06
8.28092e-08
-3.08206e-06
3.23174e-08
-3.06616e-06
-1.9591e-08
-3.04215e-06
-7.30659e-08
-3.00952e-06
-1.28308e-07
-2.96785e-06
-1.8539e-07
-2.91673e-06
-2.44284e-07
-2.85566e-06
-3.05072e-07
-2.78396e-06
-3.67738e-07
-2.70097e-06
-4.31779e-07
-2.60627e-06
-4.96536e-07
-2.49943e-06
-5.61429e-07
-2.38005e-06
-6.25542e-07
-2.24775e-06
-6.87607e-07
-2.10287e-06
-7.45308e-07
-1.94598e-06
-7.96892e-07
-1.77785e-06
-8.40252e-07
-1.60003e-06
-8.7249e-07
-1.41453e-06
-8.91383e-07
-1.22393e-06
-8.94479e-07
-1.03128e-06
-8.79769e-07
-8.40343e-07
-8.45694e-07
-6.55776e-07
-7.91671e-07
-4.82252e-07
-7.18852e-07
-3.2306e-07
-6.29839e-07
-1.81233e-07
-5.27103e-07
-5.92669e-08
-4.14201e-07
4.13687e-08
-2.95565e-07
1.20077e-07
-1.75847e-07
1.771e-07
-5.94722e-08
2.13601e-07
4.94896e-08
2.29942e-07
1.46825e-07
2.26627e-07
2.28219e-07
2.04003e-07
2.8832e-07
1.63005e-07
3.21015e-07
1.06668e-07
3.21141e-07
4.2688e-08
2.78728e-07
1.51928e-07
3.53956e-08
-1.2366e-07
7.97358e-08
-2.33466e-07
1.0843e-07
-2.34226e-07
1.21932e-07
-1.93979e-07
1.22745e-07
-1.371e-07
1.12821e-07
-7.6914e-08
9.31448e-08
-1.86799e-08
6.38562e-08
3.49551e-08
2.4547e-08
8.30786e-08
-2.58784e-08
1.2632e-07
-8.87628e-08
1.66586e-07
-1.65452e-07
2.06518e-07
-2.57091e-07
2.48783e-07
-3.64513e-07
2.95424e-07
-4.8817e-07
3.47507e-07
-6.27912e-07
4.04961e-07
-7.82811e-07
4.66795e-07
-9.50776e-07
5.31082e-07
-1.12855e-06
5.949e-07
-1.31169e-06
6.54607e-07
-1.49573e-06
7.07747e-07
-1.67597e-06
7.5077e-07
-1.84714e-06
7.8143e-07
-2.00598e-06
7.99318e-07
-2.15141e-06
8.05126e-07
-2.28355e-06
8.00373e-07
-2.40313e-06
7.86633e-07
-2.51119e-06
7.6549e-07
-2.6086e-06
7.38258e-07
-2.69621e-06
7.06071e-07
-2.77476e-06
6.69828e-07
-2.84492e-06
6.30219e-07
-2.90736e-06
5.87844e-07
-2.96261e-06
5.4322e-07
-3.01115e-06
4.9675e-07
-3.05326e-06
4.4873e-07
-3.08923e-06
3.99481e-07
-3.11926e-06
3.49248e-07
-3.14354e-06
2.98137e-07
-3.16186e-06
2.45779e-07
-3.17444e-06
1.92814e-07
-3.18118e-06
1.38793e-07
-3.18204e-06
8.36651e-08
-3.17687e-06
2.71435e-08
-3.16555e-06
-3.09029e-08
-3.14786e-06
-9.07633e-08
-3.12336e-06
-1.52806e-07
-3.09152e-06
-2.17222e-07
-3.0517e-06
-2.84109e-07
-3.00323e-06
-3.53539e-07
-2.9453e-06
-4.25668e-07
-2.87692e-06
-5.00162e-07
-2.7972e-06
-5.76259e-07
-2.70536e-06
-6.53269e-07
-2.60096e-06
-7.29941e-07
-2.48346e-06
-8.05102e-07
-2.35228e-06
-8.76488e-07
-2.20744e-06
-9.41738e-07
-2.04901e-06
-9.98673e-07
-1.87823e-06
-1.04328e-06
-1.69667e-06
-1.07294e-06
-1.50647e-06
-1.08468e-06
-1.31057e-06
-1.07567e-06
-1.11237e-06
-1.0439e-06
-9.16046e-07
-9.87992e-07
-7.27125e-07
-9.07773e-07
-5.50498e-07
-8.06465e-07
-3.89914e-07
-6.87686e-07
-2.48678e-07
-5.55437e-07
-1.29102e-07
-4.15141e-07
-3.2342e-08
-2.72608e-07
4.16938e-08
-1.33508e-07
9.41636e-08
-2.98015e-09
1.26532e-07
1.14456e-07
1.40096e-07
2.14655e-07
1.35589e-07
2.92827e-07
1.13572e-07
3.43032e-07
7.63811e-08
3.58332e-07
3.03212e-08
3.24788e-07
1.82249e-07
3.57206e-08
-1.59381e-07
6.83346e-08
-2.6608e-07
8.28275e-08
-2.48719e-07
8.20041e-08
-1.93156e-07
6.94396e-08
-1.24535e-07
4.65652e-08
-5.40397e-08
1.37227e-08
1.41626e-08
-2.95124e-08
7.81902e-08
-8.41287e-08
1.37695e-07
-1.51478e-07
1.93668e-07
-2.32995e-07
2.48103e-07
-3.29924e-07
3.03447e-07
-4.43088e-07
3.61946e-07
-5.72727e-07
4.25063e-07
-7.18337e-07
4.93118e-07
-8.78544e-07
5.65168e-07
-1.05072e-06
6.38974e-07
-1.23095e-06
7.11311e-07
-1.41464e-06
7.78587e-07
-1.59687e-06
8.36841e-07
-1.77171e-06
8.82589e-07
-1.93498e-06
9.14033e-07
-2.08474e-06
9.31197e-07
-2.22096e-06
9.35535e-07
-2.3444e-06
9.28566e-07
-2.45609e-06
9.12067e-07
-2.55712e-06
8.87657e-07
-2.64845e-06
8.56824e-07
-2.73092e-06
8.20728e-07
-2.80522e-06
7.80373e-07
-2.87196e-06
7.36559e-07
-2.93165e-06
6.89918e-07
-2.98481e-06
6.41002e-07
-3.03183e-06
5.9024e-07
-3.07309e-06
5.38009e-07
-3.10872e-06
4.84354e-07
-3.13892e-06
4.29688e-07
-3.16394e-06
3.74268e-07
-3.184e-06
3.18195e-07
-3.19958e-06
2.61353e-07
-3.21033e-06
2.03565e-07
-3.21623e-06
1.44697e-07
-3.21713e-06
8.45685e-08
-3.21288e-06
2.28863e-08
-3.20355e-06
-4.02262e-08
-3.18914e-06
-1.0518e-07
-3.16959e-06
-1.72349e-07
-3.14484e-06
-2.41974e-07
-3.1146e-06
-3.14356e-07
-3.07847e-06
-3.89661e-07
-3.03607e-06
-4.6807e-07
-2.98642e-06
-5.49819e-07
-2.92799e-06
-6.34688e-07
-2.85922e-06
-7.22037e-07
-2.77801e-06
-8.1115e-07
-2.68243e-06
-9.00685e-07
-2.57125e-06
-9.87668e-07
-2.44421e-06
-1.06877e-06
-2.30157e-06
-1.14132e-06
-2.14368e-06
-1.20116e-06
-1.97116e-06
-1.24546e-06
-1.78581e-06
-1.27002e-06
-1.59029e-06
-1.2712e-06
-1.38783e-06
-1.24635e-06
-1.18219e-06
-1.19364e-06
-9.78528e-07
-1.11143e-06
-7.83433e-07
-1.00156e-06
-6.02343e-07
-8.68777e-07
-4.39392e-07
-7.18388e-07
-2.98064e-07
-5.56468e-07
-1.80572e-07
-3.901e-07
-8.75893e-08
-2.26491e-07
-1.8248e-08
-7.23214e-08
2.93599e-08
6.68485e-08
5.761e-08
1.86405e-07
6.82735e-08
2.82163e-07
6.25497e-08
3.48756e-07
4.27842e-08
3.78097e-07
1.54177e-08
3.52154e-07
1.97667e-07
3.15822e-08
-1.90963e-07
4.97079e-08
-2.84206e-07
4.87994e-08
-2.4781e-07
3.32995e-08
-1.77656e-07
7.06429e-09
-9.83002e-08
-2.92479e-08
-1.77275e-08
-7.59735e-08
6.08882e-08
-1.3401e-07
1.36226e-07
-2.04617e-07
2.08302e-07
-2.89174e-07
2.78225e-07
-3.8892e-07
3.4785e-07
-5.04703e-07
4.1923e-07
-6.36721e-07
4.93965e-07
-7.8437e-07
5.72712e-07
-9.46058e-07
6.54806e-07
-1.1188e-06
7.37911e-07
-1.29838e-06
8.18548e-07
-1.47991e-06
8.92841e-07
-1.65751e-06
9.56186e-07
-1.82581e-06
1.00514e-06
-1.98141e-06
1.03819e-06
-2.12344e-06
1.05607e-06
-2.25224e-06
1.06e-06
-2.36871e-06
1.052e-06
-2.47392e-06
1.03378e-06
-2.56902e-06
1.00716e-06
-2.65496e-06
9.73596e-07
-2.73251e-06
9.34375e-07
-2.80231e-06
8.90528e-07
-2.86489e-06
8.42954e-07
-2.92071e-06
7.92377e-07
-2.97018e-06
7.39391e-07
-3.01364e-06
6.84458e-07
-3.0513e-06
6.27906e-07
-3.08369e-06
5.70392e-07
-3.11153e-06
5.122e-07
-3.13523e-06
4.53382e-07
-3.15483e-06
3.93871e-07
-3.17007e-06
3.33432e-07
-3.18128e-06
2.72568e-07
-3.18838e-06
2.10664e-07
-3.19157e-06
1.47886e-07
-3.19097e-06
8.39735e-08
-3.18665e-06
1.85578e-08
-3.17881e-06
-4.80623e-08
-3.16739e-06
-1.16597e-07
-3.15229e-06
-1.87448e-07
-3.13333e-06
-2.60935e-07
-3.11025e-06
-3.37439e-07
-3.08267e-06
-4.17244e-07
-3.05025e-06
-5.00485e-07
-3.01269e-06
-5.87381e-07
-2.96939e-06
-6.77982e-07
-2.91959e-06
-7.7184e-07
-2.86239e-06
-8.68354e-07
-2.79641e-06
-9.66661e-07
-2.71814e-06
-1.06594e-06
-2.62315e-06
-1.16376e-06
-2.50813e-06
-1.25633e-06
-2.37235e-06
-1.33695e-06
-2.2171e-06
-1.40071e-06
-2.04474e-06
-1.44238e-06
-1.85629e-06
-1.45965e-06
-1.65531e-06
-1.44733e-06
-1.44519e-06
-1.40376e-06
-1.23076e-06
-1.32586e-06
-1.01834e-06
-1.21397e-06
-8.15871e-07
-1.07125e-06
-6.29586e-07
-9.04673e-07
-4.64052e-07
-7.22003e-07
-3.22931e-07
-5.31221e-07
-2.08203e-07
-3.4122e-07
-1.19891e-07
-1.60633e-07
-5.63573e-08
3.31521e-09
-1.41701e-08
1.44218e-07
9.63463e-09
2.58359e-07
1.75638e-08
3.40827e-07
1.30787e-08
3.82583e-07
2.47942e-09
3.62754e-07
2.00147e-07
2.3346e-08
-2.14309e-07
2.54365e-08
-2.86297e-07
8.24893e-09
-2.30623e-07
-2.14476e-08
-1.47959e-07
-6.13808e-08
-5.8367e-08
-1.11453e-07
3.23448e-08
-1.72434e-07
1.2187e-07
-2.45502e-07
2.09294e-07
-3.31938e-07
2.94739e-07
-4.32913e-07
3.792e-07
-5.49254e-07
4.64191e-07
-6.81174e-07
5.5115e-07
-8.28117e-07
6.40909e-07
-9.8853e-07
7.33124e-07
-1.15928e-06
8.25555e-07
-1.33597e-06
9.14605e-07
-1.51345e-06
9.96026e-07
-1.68555e-06
1.06495e-06
-1.84742e-06
1.11805e-06
-1.99651e-06
1.15423e-06
-2.13214e-06
1.17382e-06
-2.25472e-06
1.17864e-06
-2.36524e-06
1.17052e-06
-2.46481e-06
1.15157e-06
-2.5545e-06
1.12347e-06
-2.63522e-06
1.08789e-06
-2.7077e-06
1.04608e-06
-2.77253e-06
9.99197e-07
-2.83019e-06
9.48194e-07
-2.88114e-06
8.93904e-07
-2.92578e-06
8.37018e-07
-2.96455e-06
7.78158e-07
-2.99805e-06
7.17961e-07
-3.02693e-06
6.56787e-07
-3.05123e-06
5.94693e-07
-3.07101e-06
5.31978e-07
-3.08631e-06
4.68676e-07
-3.09733e-06
4.04893e-07
-3.10469e-06
3.40794e-07
-3.10867e-06
2.76542e-07
-3.10974e-06
2.11736e-07
-3.10818e-06
1.46331e-07
-3.10425e-06
8.00391e-08
-3.09818e-06
1.24886e-08
-3.08997e-06
-5.62706e-08
-3.07961e-06
-1.26957e-07
-3.06714e-06
-1.99914e-07
-3.05256e-06
-2.75523e-07
-3.03579e-06
-3.54201e-07
-3.01672e-06
-4.36319e-07
-2.99501e-06
-5.22194e-07
-2.97023e-06
-6.12158e-07
-2.94179e-06
-7.06427e-07
-2.9087e-06
-8.04928e-07
-2.86979e-06
-9.07261e-07
-2.82408e-06
-1.01238e-06
-2.77031e-06
-1.11971e-06
-2.70689e-06
-1.22718e-06
-2.63091e-06
-1.33232e-06
-2.5351e-06
-1.43276e-06
-2.41354e-06
-1.52227e-06
-2.26553e-06
-1.59039e-06
-2.09415e-06
-1.63103e-06
-1.90364e-06
-1.63784e-06
-1.69653e-06
-1.61088e-06
-1.47772e-06
-1.54467e-06
-1.25312e-06
-1.43858e-06
-1.03068e-06
-1.29369e-06
-8.20018e-07
-1.11533e-06
-6.28408e-07
-9.13612e-07
-4.60881e-07
-6.98748e-07
-3.21159e-07
-4.80941e-07
-2.10789e-07
-2.71004e-07
-1.28742e-07
-7.87311e-08
-7.22121e-08
8.7688e-08
-3.64082e-08
2.22555e-07
-1.69827e-08
3.21401e-07
-8.4801e-09
3.7408e-07
-5.51281e-09
3.59786e-07
1.94634e-07
1.19526e-08
-2.26262e-07
-3.21136e-09
-2.71133e-07
-3.56759e-08
-1.98158e-07
-7.95115e-08
-1.04124e-07
-1.33172e-07
-4.70622e-09
-1.97009e-07
9.61819e-08
-2.72132e-07
1.96993e-07
-3.59771e-07
2.96932e-07
-4.61031e-07
3.95999e-07
-5.76695e-07
4.94864e-07
-7.06998e-07
5.94493e-07
-8.51495e-07
6.95647e-07
-1.0088e-06
7.98217e-07
-1.17587e-06
9.00191e-07
-1.34823e-06
9.97918e-07
-1.5206e-06
1.08697e-06
-1.68717e-06
1.1626e-06
-1.84339e-06
1.22117e-06
-1.98699e-06
1.26164e-06
-2.11716e-06
1.28441e-06
-2.23442e-06
1.29108e-06
-2.3397e-06
1.28393e-06
-2.43414e-06
1.26496e-06
-2.51868e-06
1.23612e-06
-2.5942e-06
1.19898e-06
-2.66133e-06
1.15502e-06
-2.72064e-06
1.10539e-06
-2.77262e-06
1.05118e-06
-2.81777e-06
9.93336e-07
-2.85654e-06
9.32678e-07
-2.88944e-06
8.69917e-07
-2.91694e-06
8.05659e-07
-2.93928e-06
7.40301e-07
-2.95679e-06
6.74296e-07
-2.96992e-06
6.07825e-07
-2.97917e-06
5.4123e-07
-2.98515e-06
4.74649e-07
-2.98838e-06
4.08128e-07
-2.98922e-06
3.41635e-07
-2.9878e-06
2.75121e-07
-2.98445e-06
2.08381e-07
-2.97937e-06
1.41252e-07
-2.97278e-06
7.3447e-08
-2.96486e-06
4.57526e-09
-2.95572e-06
-6.54175e-08
-2.94548e-06
-1.3719e-07
-2.93433e-06
-2.11067e-07
-2.92237e-06
-2.87478e-07
-2.90971e-06
-3.66868e-07
-2.89635e-06
-4.49672e-07
-2.88223e-06
-5.36323e-07
-2.86714e-06
-6.27248e-07
-2.85077e-06
-7.22795e-07
-2.83255e-06
-8.23141e-07
-2.81161e-06
-9.2821e-07
-2.78636e-06
-1.03762e-06
-2.75526e-06
-1.15081e-06
-2.71613e-06
-1.26631e-06
-2.66714e-06
-1.38131e-06
-2.60576e-06
-1.49414e-06
-2.52817e-06
-1.59986e-06
-2.4242e-06
-1.69436e-06
-2.28745e-06
-1.76778e-06
-2.11906e-06
-1.80622e-06
-1.9263e-06
-1.80364e-06
-1.71223e-06
-1.75874e-06
-1.48345e-06
-1.66736e-06
-1.24713e-06
-1.53001e-06
-1.01365e-06
-1.34881e-06
-7.9461e-07
-1.13266e-06
-5.98374e-07
-8.94983e-07
-4.3036e-07
-6.48955e-07
-2.94073e-07
-4.07291e-07
-1.90148e-07
-1.82656e-07
-1.16524e-07
1.4064e-08
-6.80585e-08
1.74089e-07
-3.86335e-08
2.91976e-07
-2.03655e-08
3.55812e-07
-8.77688e-09
3.48198e-07
1.85857e-07
-1.49839e-09
-2.24763e-07
-3.31683e-08
-2.39463e-07
-8.08953e-08
-1.50431e-07
-1.38658e-07
-4.63611e-08
-2.05721e-07
6.23572e-08
-2.82958e-07
1.73418e-07
-3.71562e-07
2.85597e-07
-4.72656e-07
3.98027e-07
-5.87019e-07
5.10362e-07
-7.14914e-07
6.2276e-07
-8.56004e-07
7.35583e-07
-1.00914e-06
8.4878e-07
-1.17153e-06
9.60611e-07
-1.33881e-06
1.06747e-06
-1.50579e-06
1.1649e-06
-1.66712e-06
1.2483e-06
-1.81842e-06
1.31389e-06
-1.9573e-06
1.36005e-06
-2.08291e-06
1.38725e-06
-2.19554e-06
1.39703e-06
-2.2962e-06
1.39174e-06
-2.38586e-06
1.37359e-06
-2.46546e-06
1.34455e-06
-2.53572e-06
1.30638e-06
-2.59728e-06
1.26055e-06
-2.65067e-06
1.20841e-06
-2.6964e-06
1.15112e-06
-2.73502e-06
1.0898e-06
-2.76707e-06
1.02538e-06
-2.7931e-06
9.58715e-07
-2.81369e-06
8.90509e-07
-2.82938e-06
8.21342e-07
-2.84073e-06
7.51655e-07
-2.84829e-06
6.81858e-07
-2.85266e-06
6.12189e-07
-2.85431e-06
5.42878e-07
-2.85365e-06
4.73992e-07
-2.85103e-06
4.05508e-07
-2.84674e-06
3.37349e-07
-2.84102e-06
2.69396e-07
-2.83408e-06
2.01443e-07
-2.82611e-06
1.33279e-07
-2.81727e-06
6.46152e-08
-2.80783e-06
-4.8719e-09
-2.79781e-06
-7.54347e-08
-2.78746e-06
-1.47537e-07
-2.77697e-06
-2.21562e-07
-2.76651e-06
-2.97939e-07
-2.75626e-06
-3.77118e-07
-2.74637e-06
-4.59563e-07
-2.73694e-06
-5.45751e-07
-2.72802e-06
-6.36162e-07
-2.71959e-06
-7.31232e-07
-2.71142e-06
-8.31307e-07
-2.70303e-06
-9.36602e-07
-2.69348e-06
-1.04716e-06
-2.68156e-06
-1.16274e-06
-2.66539e-06
-1.28248e-06
-2.64182e-06
-1.40487e-06
-2.6082e-06
-1.52776e-06
-2.56124e-06
-1.64682e-06
-2.49705e-06
-1.75856e-06
-2.40912e-06
-1.85571e-06
-2.28395e-06
-1.9314e-06
-2.12014e-06
-1.96745e-06
-1.92395e-06
-1.95493e-06
-1.70177e-06
-1.88954e-06
-1.46117e-06
-1.77061e-06
-1.21201e-06
-1.59796e-06
-9.67214e-07
-1.37746e-06
-7.40571e-07
-1.12163e-06
-5.41554e-07
-8.47973e-07
-3.75662e-07
-5.73183e-07
-2.45715e-07
-3.12604e-07
-1.50973e-07
-8.06782e-08
-8.73878e-08
1.10504e-07
-4.76692e-08
2.52258e-07
-2.28627e-08
3.31005e-07
-7.48838e-09
3.32824e-07
1.78369e-07
-1.57852e-08
-2.08978e-07
-6.39085e-08
-1.9134e-07
-1.25902e-07
-8.84379e-08
-1.96888e-07
2.46247e-08
-2.76726e-07
1.42196e-07
-3.66507e-07
2.63199e-07
-4.67409e-07
3.86499e-07
-5.80301e-07
5.10918e-07
-7.05531e-07
6.35592e-07
-8.4286e-07
7.60088e-07
-9.91359e-07
8.84083e-07
-1.14862e-06
1.00604e-06
-1.31056e-06
1.12256e-06
-1.47226e-06
1.22917e-06
-1.62875e-06
1.32139e-06
-1.77583e-06
1.39538e-06
-1.91076e-06
1.44882e-06
-2.03253e-06
1.48182e-06
-2.14129e-06
1.49601e-06
-2.23787e-06
1.49362e-06
-2.32323e-06
1.4771e-06
-2.39819e-06
1.44855e-06
-2.46344e-06
1.4098e-06
-2.51958e-06
1.36251e-06
-2.56716e-06
1.30813e-06
-2.60679e-06
1.24803e-06
-2.63908e-06
1.18342e-06
-2.66473e-06
1.11545e-06
-2.68443e-06
1.04508e-06
-2.6989e-06
9.7318e-07
-2.70882e-06
9.00426e-07
-2.71484e-06
8.27371e-07
-2.71762e-06
7.54432e-07
-2.71769e-06
6.81932e-07
-2.71556e-06
6.1006e-07
-2.71161e-06
5.38926e-07
-2.70615e-06
4.68531e-07
-2.69944e-06
3.988e-07
-2.69171e-06
3.29615e-07
-2.68313e-06
2.60816e-07
-2.67387e-06
1.92183e-07
-2.66407e-06
1.23481e-07
-2.65388e-06
5.44274e-08
-2.64348e-06
-1.52746e-08
-2.63297e-06
-8.59448e-08
-2.62255e-06
-1.57959e-07
-2.61241e-06
-2.31702e-07
-2.60276e-06
-3.07586e-07
-2.59383e-06
-3.86048e-07
-2.58585e-06
-4.67549e-07
-2.57902e-06
-5.52574e-07
-2.57357e-06
-6.41619e-07
-2.56963e-06
-7.35173e-07
-2.56725e-06
-8.33684e-07
-2.56631e-06
-9.37543e-07
-2.56644e-06
-1.04703e-06
-2.56695e-06
-1.16222e-06
-2.56659e-06
-1.28284e-06
-2.56332e-06
-1.40815e-06
-2.5544e-06
-1.53667e-06
-2.53543e-06
-1.66579e-06
-2.50229e-06
-1.7917e-06
-2.45017e-06
-1.90783e-06
-2.37287e-06
-2.0087e-06
-2.25746e-06
-2.08286e-06
-2.09703e-06
-2.11537e-06
-1.89662e-06
-2.08994e-06
-1.66443e-06
-2.0028e-06
-1.41061e-06
-1.85178e-06
-1.14808e-06
-1.63999e-06
-8.92695e-07
-1.37701e-06
-6.60641e-07
-1.08003e-06
-4.62207e-07
-7.71617e-07
-3.02278e-07
-4.72533e-07
-1.82404e-07
-2.00552e-07
-9.9929e-08
2.80296e-08
-4.8106e-08
2.00435e-07
-1.82143e-08
3.01114e-07
-2.96957e-09
3.17579e-07
1.75399e-07
-3.03814e-08
-1.78597e-07
-9.37192e-08
-1.28002e-07
-1.69071e-07
-1.30866e-08
-2.52368e-07
1.07922e-07
-3.43998e-07
2.33826e-07
-4.45106e-07
3.64306e-07
-5.5673e-07
4.98123e-07
-6.79407e-07
6.33596e-07
-8.13048e-07
7.69233e-07
-9.56916e-07
9.03955e-07
-1.10896e-06
1.03613e-06
-1.26559e-06
1.16266e-06
-1.42226e-06
1.27923e-06
-1.57437e-06
1.38128e-06
-1.71787e-06
1.46489e-06
-1.84969e-06
1.5272e-06
-1.96843e-06
1.56756e-06
-2.07408e-06
1.58748e-06
-2.16728e-06
1.58922e-06
-2.24894e-06
1.57527e-06
-2.31982e-06
1.54798e-06
-2.38057e-06
1.5093e-06
-2.43181e-06
1.46104e-06
-2.47415e-06
1.40485e-06
-2.50829e-06
1.34227e-06
-2.53497e-06
1.27471e-06
-2.55503e-06
1.20348e-06
-2.56931e-06
1.12972e-06
-2.57863e-06
1.05441e-06
-2.58379e-06
9.78339e-07
-2.58551e-06
9.02149e-07
-2.58445e-06
8.26308e-07
-2.58117e-06
7.5115e-07
-2.57613e-06
6.76892e-07
-2.56971e-06
6.0364e-07
-2.56219e-06
5.31412e-07
-2.55381e-06
4.60145e-07
-2.54473e-06
3.89722e-07
-2.53511e-06
3.19991e-07
-2.52505e-06
2.5076e-07
-2.51466e-06
1.81796e-07
-2.50404e-06
1.1286e-07
-2.49329e-06
4.36797e-08
-2.48253e-06
-2.6034e-08
-2.47188e-06
-9.65941e-08
-2.46151e-06
-1.68338e-07
-2.45159e-06
-2.41621e-07
-2.44234e-06
-3.16828e-07
-2.43403e-06
-3.94365e-07
-2.42691e-06
-4.74669e-07
-2.42127e-06
-5.58206e-07
-2.41743e-06
-6.45466e-07
-2.41564e-06
-7.36957e-07
-2.41614e-06
-8.33187e-07
-2.41904e-06
-9.34647e-07
-2.4243e-06
-1.04177e-06
-2.43164e-06
-1.15487e-06
-2.44042e-06
-1.27406e-06
-2.44947e-06
-1.3991e-06
-2.45689e-06
-1.52926e-06
-2.45965e-06
-1.66303e-06
-2.45364e-06
-1.79771e-06
-2.43252e-06
-1.92895e-06
-2.39087e-06
-2.05034e-06
-2.32092e-06
-2.15281e-06
-2.21098e-06
-2.22531e-06
-2.05084e-06
-2.25009e-06
-1.84428e-06
-2.20936e-06
-1.60012e-06
-2.09593e-06
-1.33209e-06
-1.90802e-06
-1.05654e-06
-1.65257e-06
-7.92852e-07
-1.34371e-06
-5.59573e-07
-1.0049e-06
-3.66767e-07
-6.65338e-07
-2.18172e-07
-3.49147e-07
-1.13258e-07
-7.68847e-08
-4.67553e-08
1.33932e-07
-1.09113e-08
2.6527e-07
2.97407e-09
3.03693e-07
1.78373e-07
-4.43787e-08
-1.34218e-07
-1.21565e-07
-5.08158e-08
-2.09006e-07
7.43549e-08
-3.03536e-07
2.02452e-07
-4.05681e-07
3.3597e-07
-5.16596e-07
4.75222e-07
-6.37108e-07
6.18635e-07
-7.67387e-07
7.63875e-07
-9.06922e-07
9.08768e-07
-1.05399e-06
1.05102e-06
-1.20552e-06
1.18766e-06
-1.35754e-06
1.31469e-06
-1.50576e-06
1.42744e-06
-1.64625e-06
1.52177e-06
-1.77575e-06
1.59438e-06
-1.89234e-06
1.64379e-06
-1.99573e-06
1.67094e-06
-2.0864e-06
1.67815e-06
-2.16513e-06
1.66795e-06
-2.23269e-06
1.64283e-06
-2.28971e-06
1.605e-06
-2.33685e-06
1.55644e-06
-2.3748e-06
1.49899e-06
-2.40435e-06
1.43441e-06
-2.42639e-06
1.36431e-06
-2.44187e-06
1.2902e-06
-2.45176e-06
1.21337e-06
-2.45699e-06
1.13495e-06
-2.45843e-06
1.05584e-06
-2.45684e-06
9.76757e-07
-2.45291e-06
8.98217e-07
-2.44719e-06
8.20586e-07
-2.44013e-06
7.44089e-07
-2.43208e-06
6.68841e-07
-2.4233e-06
5.94861e-07
-2.41398e-06
5.22093e-07
-2.40426e-06
4.50422e-07
-2.39423e-06
3.79692e-07
-2.38396e-06
3.09725e-07
-2.37352e-06
2.40313e-07
-2.36293e-06
1.7121e-07
-2.35225e-06
1.02182e-07
-2.34155e-06
3.29754e-08
-2.33089e-06
-3.66902e-08
-2.32039e-06
-1.07099e-07
-2.31017e-06
-1.78555e-07
-2.30041e-06
-2.51379e-07
-2.29133e-06
-3.25913e-07
-2.28317e-06
-4.02523e-07
-2.27623e-06
-4.81607e-07
-2.27084e-06
-5.63593e-07
-2.26736e-06
-6.48947e-07
-2.26615e-06
-7.38165e-07
-2.26757e-06
-8.31776e-07
-2.27189e-06
-9.30327e-07
-2.2793e-06
-1.03436e-06
-2.28982e-06
-1.14436e-06
-2.30318e-06
-1.2607e-06
-2.31874e-06
-1.38354e-06
-2.33531e-06
-1.51269e-06
-2.35096e-06
-1.64738e-06
-2.36267e-06
-1.786e-06
-2.36592e-06
-1.9257e-06
-2.35452e-06
-2.06174e-06
-2.32051e-06
-2.18682e-06
-2.25566e-06
-2.29016e-06
-2.14647e-06
-2.35927e-06
-1.98323e-06
-2.3726e-06
-1.76713e-06
-2.31204e-06
-1.50907e-06
-2.16608e-06
-1.22644e-06
-1.9352e-06
-9.39638e-07
-1.63052e-06
-6.72186e-07
-1.27235e-06
-4.44183e-07
-8.93342e-07
-2.64186e-07
-5.29144e-07
-1.33934e-07
-2.07137e-07
-4.99573e-08
4.99559e-08
-5.88379e-09
2.21196e-07
7.84508e-09
2.89965e-07
1.86218e-07
-5.71974e-08
-7.70208e-08
-1.46556e-07
3.85432e-08
-2.448e-07
1.72599e-07
-3.49163e-07
3.06815e-07
-4.60311e-07
4.47118e-07
-5.7931e-07
5.94222e-07
-7.06732e-07
7.46057e-07
-8.4237e-07
8.99513e-07
-9.84862e-07
1.05126e-06
-1.13165e-06
1.19781e-06
-1.27945e-06
1.33546e-06
-1.42426e-06
1.4595e-06
-1.56227e-06
1.56546e-06
-1.69014e-06
1.64964e-06
-1.80551e-06
1.70974e-06
-1.90758e-06
1.74586e-06
-1.99666e-06
1.76003e-06
-2.07341e-06
1.7549e-06
-2.13857e-06
1.7331e-06
-2.19282e-06
1.69708e-06
-2.23684e-06
1.64902e-06
-2.27141e-06
1.591e-06
-2.29741e-06
1.525e-06
-2.31586e-06
1.45285e-06
-2.32782e-06
1.37627e-06
-2.33436e-06
1.29674e-06
-2.3365e-06
1.21551e-06
-2.33518e-06
1.13363e-06
-2.33121e-06
1.05187e-06
-2.32527e-06
9.70817e-07
-2.31792e-06
8.9087e-07
-2.3096e-06
8.12267e-07
-2.30064e-06
7.35128e-07
-2.29127e-06
6.59471e-07
-2.28165e-06
5.8524e-07
-2.27187e-06
5.12317e-07
-2.262e-06
4.40547e-07
-2.25205e-06
3.69745e-07
-2.24203e-06
2.99709e-07
-2.23195e-06
2.30233e-07
-2.22181e-06
1.61064e-07
-2.21159e-06
9.19697e-08
-2.20135e-06
2.27295e-08
-2.19111e-06
-4.6925e-08
-2.18097e-06
-1.17246e-07
-2.17102e-06
-1.885e-07
-2.16143e-06
-2.6097e-07
-2.15239e-06
-3.34954e-07
-2.14414e-06
-4.1077e-07
-2.13698e-06
-4.88766e-07
-2.13125e-06
-5.69322e-07
-2.12734e-06
-6.52859e-07
-2.12566e-06
-7.39843e-07
-2.12665e-06
-8.3079e-07
-2.13072e-06
-9.2626e-07
-2.13822e-06
-1.02685e-06
-2.14941e-06
-1.13317e-06
-2.16431e-06
-1.24579e-06
-2.18268e-06