/*--------------------------------*- C++ -*----------------------------------*\
  =========                 |
  \\      /  F ield         | OpenFOAM: The Open Source CFD Toolbox
   \\    /   O peration     | Website:  https://openfoam.org
    \\  /    A nd           | Version:  13
     \\/     M anipulation  |
\*---------------------------------------------------------------------------*/
FoamFile
{
    format      ascii;
    class       volScalarField;
    location    "9.5";
    object      k;
}
// * * * * * * * * * * * * * * * * * * * * * * * * * * * * * * * * * * * * * //

dimensions      [0 2 -2 0 0 0 0];

internalField   nonuniform List<scalar> 
400
(
7.76245e-06
2.68558e-05
0.000103772
0.000204716
0.00027063
0.000321494
0.000362917
0.000402603
0.000437531
0.000473284
0.000506843
0.000542277
0.000577991
0.000600693
0.000610865
0.000611186
0.0005636
0.000443024
0.000273678
0.000197466
3.43144e-05
0.000118953
0.000252602
0.000411524
0.000480233
0.000555178
0.000600468
0.000665578
0.00071895
0.000782248
0.000842504
0.000905604
0.00096158
0.00102319
0.00107705
0.00110408
0.00110986
0.000993876
0.000657501
0.000399236
0.00010964
0.000368809
0.000530586
0.00061085
0.000665206
0.000711604
0.000750219
0.000799426
0.000844086
0.000892753
0.00093775
0.000981589
0.00102433
0.00107214
0.00111853
0.00115198
0.00116456
0.00111651
0.000807679
0.000511688
0.000241695
0.000581795
0.000663719
0.000698229
0.00072357
0.00074522
0.000772439
0.000804489
0.000835046
0.000863348
0.000887318
0.000917292
0.000959321
0.00101468
0.00108523
0.00115402
0.0011845
0.00118523
0.000950115
0.000585025
0.000339902
0.000695705
0.000717297
0.00071505
0.000722199
0.000736892
0.000751158
0.000757209
0.000752864
0.000746193
0.000745473
0.000766639
0.000811074
0.0008839
0.000991712
0.00112842
0.00122358
0.00124766
0.0010727
0.000639901
0.00039038
0.000726365
0.000721483
0.000710364
0.000708675
0.000705948
0.000686728
0.0006516
0.000616125
0.000593799
0.000585511
0.000593886
0.000638791
0.000721204
0.000855119
0.00104524
0.00124186
0.00132098
0.00120817
0.000684567
0.000398198
0.000718466
0.000714183
0.000694628
0.000676587
0.000647616
0.000602048
0.000546476
0.000496876
0.00046512
0.000452358
0.000452408
0.000491804
0.000572258
0.000713798
0.000937346
0.00123843
0.00139371
0.00133454
0.000719304
0.000392229
0.000698167
0.000695833
0.000666874
0.000638138
0.000593232
0.000531939
0.000466418
0.000411639
0.000376575
0.000361577
0.000359852
0.000390449
0.000460806
0.000592324
0.000821899
0.00117432
0.00145696
0.00147181
0.00074809
0.000377301
0.00065906
0.000665395
0.000638253
0.000604361
0.000551139
0.000482866
0.000414614
0.000360006
0.000325741
0.000311199
0.000309762
0.000333353
0.00039014
0.000505992
0.000724291
0.00109758
0.00150438
0.00159125
0.000768386
0.000348474
0.000626122
0.000636693
0.000613515
0.000578784
0.000522972
0.000453839
0.000386898
0.000335087
0.000302461
0.000288305
0.000288251
0.000307522
0.000354835
0.000453063
0.000654229
0.00102836
0.00152786
0.00171353
0.000784573
0.000318436
0.000582968
0.000605155
0.000590421
0.000558587
0.000506209
0.000440856
0.000379611
0.000331348
0.000299332
0.000283134
0.000283256
0.000299318
0.000340657
0.000427779
0.00061144
0.000975898
0.00153896
0.00181471
0.000792682
0.000292034
0.000547041
0.000581338
0.000573819
0.000547047
0.00049869
0.00044151
0.000383807
0.00033761
0.000306536
0.000290419
0.000290619
0.000302643
0.000338389
0.00041956
0.000591994
0.000939088
0.0015457
0.00189783
0.00079663
0.00026372
0.000500342
0.000553652
0.000554425
0.0005382
0.000499527
0.000447171
0.000395706
0.000353677
0.000324528
0.000308596
0.000309302
0.000320454
0.000353125
0.000426708
0.000587661
0.000921809
0.00155359
0.00193739
0.000797779
0.000237105
0.000470453
0.000538936
0.000543679
0.000533557
0.000504336
0.000460066
0.000416309
0.000379224
0.000352568
0.000337011
0.000338113
0.000349221
0.000381268
0.000452847
0.000606987
0.000917746
0.00155758
0.00194903
0.00079783
0.000207293
0.000422774
0.000514418
0.000537046
0.000534148
0.00051596
0.000479366
0.000442258
0.000410501
0.000387373
0.000373605
0.000375379
0.000387095
0.000419675
0.00049121
0.000646604
0.000934561
0.00156004
0.00191468
0.00078161
0.000175981
0.000393866
0.000502455
0.000540823
0.000543306
0.000534582
0.000511155
0.000479734
0.000451453
0.000430215
0.000417085
0.000419321
0.000431922
0.000466447
0.000540975
0.000706888
0.000975104
0.00156505
0.00182331
0.000755672
0.000141977
0.000332267
0.000470407
0.00054791
0.000568684
0.00056593
0.000552618
0.000525824
0.000499729
0.000478987
0.000468365
0.000472435
0.000489018
0.000531208
0.000616872
0.000811146
0.00106686
0.00158016
0.00166186
0.000710217
9.52361e-05
0.000284299
0.000480795
0.000587721
0.000649345
0.000652351
0.000644133
0.000622205
0.000596236
0.000574797
0.000573814
0.000584322
0.000614241
0.000684121
0.000804029
0.00106614
0.00133728
0.00161787
0.00148363
0.000651463
9.89057e-05
0.000301559
0.000529494
0.00066103
0.000735606
0.000766361
0.000780422
0.000794905
0.000812289
0.000840963
0.000889521
0.000968185
0.0010756
0.00123718
0.00143149
0.00171523
0.00182189
0.00171025
0.0013696
0.00056726
7.1453e-05
0.000110582
0.00020109
0.000290615
0.000356384
0.00039826
0.000421098
0.000434994
0.00044159
0.000445599
0.000447103
0.000450028
0.000453086
0.00045986
0.000465419
0.000480897
0.000501361
0.000524261
0.000518648
0.000463092
)
;

boundaryField
{
    movingWall
    {
        type            kqRWallFunction;
        value           nonuniform List<scalar> 
20
(
7.1453e-05
0.000110582
0.00020109
0.000290615
0.000356384
0.00039826
0.000421098
0.000434994
0.00044159
0.000445599
0.000447103
0.000450028
0.000453086
0.00045986
0.000465419
0.000480897
0.000501361
0.000524261
0.000518648
0.000463092
)
;
    }
    fixedWalls
    {
        type            kqRWallFunction;
        value           nonuniform List<scalar> 
60
(
7.76245e-06
3.43144e-05
0.00010964
0.000241695
0.000339902
0.00039038
0.000398198
0.000392229
0.000377301
0.000348474
0.000318436
0.000292034
0.00026372
0.000237105
0.000207293
0.000175981
0.000141977
9.52361e-05
9.89057e-05
7.1453e-05
0.000197466
0.000399236
0.000511688
0.000585025
0.000639901
0.000684567
0.000719304
0.00074809
0.000768386
0.000784573
0.000792682
0.00079663
0.000797779
0.00079783
0.00078161
0.000755672
0.000710217
0.000651463
0.00056726
0.000463092
7.76245e-06
2.68558e-05
0.000103772
0.000204716
0.00027063
0.000321494
0.000362917
0.000402603
0.000437531
0.000473284
0.000506843
0.000542277
0.000577991
0.000600693
0.000610865
0.000611186
0.0005636
0.000443024
0.000273678
0.000197466
)
;
    }
    frontAndBack
    {
        type            empty;
    }
}


// ************************************************************************* //
