/*--------------------------------*- C++ -*----------------------------------*\
  =========                 |
  \\      /  F ield         | OpenFOAM: The Open Source CFD Toolbox
   \\    /   O peration     | Website:  https://openfoam.org
    \\  /    A nd           | Version:  13
     \\/     M anipulation  |
\*---------------------------------------------------------------------------*/
FoamFile
{
    format      ascii;
    class       surfaceScalarField;
    location    "9.5";
    object      phi;
}
// * * * * * * * * * * * * * * * * * * * * * * * * * * * * * * * * * * * * * //

dimensions      [0 3 -1 0 0 0 0];

internalField   nonuniform List<scalar> 
3120
(
9.71456e-08
-9.71463e-08
2.39332e-07
-1.42186e-07
3.44075e-07
-1.04744e-07
3.7822e-07
-3.41449e-08
3.65601e-07
1.26191e-08
3.43537e-07
2.20642e-08
3.35056e-07
8.48103e-09
3.3091e-07
4.14512e-09
3.07409e-07
2.35013e-08
2.45792e-07
6.16168e-08
1.25483e-07
1.2031e-07
-9.80331e-08
2.23516e-07
-4.48085e-07
3.50051e-07
-9.62622e-07
5.14538e-07
-1.56863e-06
6.06005e-07
-2.15599e-06
5.87367e-07
-2.68581e-06
5.2981e-07
-3.13849e-06
4.52682e-07
-3.51303e-06
3.7454e-07
-3.80996e-06
2.96935e-07
-4.03173e-06
2.21769e-07
-4.17949e-06
1.47756e-07
-4.25525e-06
7.57604e-08
-4.2543e-06
-9.44433e-10
-4.17746e-06
-7.68463e-08
-4.02523e-06
-1.52225e-07
-3.7834e-06
-2.41829e-07
-3.45368e-06
-3.29727e-07
-3.02823e-06
-4.2545e-07
-2.50868e-06
-5.19547e-07
-1.89678e-06
-6.11899e-07
-1.2183e-06
-6.78478e-07
-5.2563e-07
-6.92673e-07
1.04516e-07
-6.30146e-07
5.98838e-07
-4.94322e-07
8.00024e-07
-2.01186e-07
6.84587e-07
1.15437e-07
4.4424e-07
2.40347e-07
1.87484e-07
2.56756e-07
1.87484e-07
1.75185e-07
-2.72331e-07
3.6552e-07
-3.32521e-07
4.81844e-07
-2.21068e-07
5.1302e-07
-6.53208e-08
4.76849e-07
4.87896e-08
3.98645e-07
1.00268e-07
2.88755e-07
1.18372e-07
1.21734e-07
1.71166e-07
-1.45666e-07
2.90901e-07
-5.59411e-07
4.75361e-07
-1.1475e-06
7.08401e-07
-1.86952e-06
9.45536e-07
-2.62438e-06
1.10491e-06
-3.2685e-06
1.15866e-06
-3.7724e-06
1.10991e-06
-4.20609e-06
1.02105e-06
-4.57271e-06
8.96429e-07
-4.87785e-06
7.5782e-07
-5.11878e-06
6.15474e-07
-5.29807e-06
4.76228e-07
-5.41548e-06
3.39181e-07
-5.47582e-06
2.08096e-07
-5.47518e-06
7.51175e-08
-5.41771e-06
-5.84151e-08
-5.29885e-06
-1.95708e-07
-5.11121e-06
-3.3986e-07
-4.85604e-06
-4.97003e-07
-4.52011e-06
-6.65652e-07
-4.09596e-06
-8.49599e-07
-3.58144e-06
-1.03407e-06
-2.98194e-06
-1.21139e-06
-2.30484e-06
-1.35558e-06
-1.5791e-06
-1.41841e-06
-8.46535e-07
-1.36271e-06
-2.19898e-07
-1.12096e-06
2.4233e-07
-6.63414e-07
3.94693e-07
-3.69255e-08
3.26358e-07
3.08681e-07
1.53024e-07
4.3009e-07
3.40508e-07
2.11319e-07
-4.8365e-07
3.58162e-07
-4.79364e-07
4.07486e-07
-2.70392e-07
3.76392e-07
-3.42263e-08
2.76181e-07
1.49001e-07
9.99229e-08
2.76526e-07
-1.9185e-07
4.10144e-07
-6.35307e-07
6.14624e-07
-1.2438e-06
8.99397e-07
-1.97445e-06
1.20601e-06
-2.72072e-06
1.45467e-06
-3.37042e-06
1.59524e-06
-3.90332e-06
1.63782e-06
-4.33004e-06
1.58538e-06
-4.68155e-06
1.46141e-06
-4.96527e-06
1.30478e-06
-5.19653e-06
1.12769e-06
-5.38251e-06
9.43799e-07
-5.52678e-06
7.59738e-07
-5.63075e-06
5.80199e-07
-5.6974e-06
4.05835e-07
-5.72283e-06
2.33522e-07
-5.70477e-06
5.7062e-08
-5.64676e-06
-1.1643e-07
-5.54627e-06
-2.96198e-07
-5.399e-06
-4.87132e-07
-5.20284e-06
-6.93155e-07
-4.95217e-06
-9.1633e-07
-4.64152e-06
-1.16024e-06
-4.25568e-06
-1.41992e-06
-3.78482e-06
-1.68225e-06
-3.21996e-06
-1.92045e-06
-2.56767e-06
-2.0707e-06
-1.85632e-06
-2.07406e-06
-1.13247e-06
-1.84481e-06
-4.84101e-07
-1.31178e-06
-7.4203e-08
-4.46824e-07
3.51944e-08
1.99284e-07
2.42044e-08
4.4108e-07
3.64713e-07
1.74292e-07
-6.57942e-07
2.31051e-07
-5.36124e-07
1.83192e-07
-2.22533e-07
5.40448e-08
9.49213e-08
-1.65568e-07
3.68613e-07
-5.13094e-07
6.24051e-07
-1.01702e-06
9.14071e-07
-1.66241e-06
1.26001e-06
-2.37905e-06
1.61603e-06
-3.06972e-06
1.89669e-06
-3.65477e-06
2.03972e-06
-4.11789e-06
2.05836e-06
-4.4735e-06
1.99342e-06
-4.74891e-06
1.86078e-06
-4.97248e-06
1.68499e-06
-5.15116e-06
1.48346e-06
-5.29656e-06
1.27308e-06
-5.41586e-06
1.0631e-06
-5.51166e-06
8.55535e-07
-5.57911e-06
6.47647e-07
-5.61858e-06
4.45305e-07
-5.62734e-06
2.42281e-07
-5.60587e-06
3.55986e-08
-5.5567e-06
-1.65598e-07
-5.47708e-06
-3.75826e-07
-5.36449e-06
-5.99719e-07
-5.2172e-06
-8.40441e-07
-5.03181e-06
-1.10172e-06
-4.80732e-06
-1.38473e-06
-4.53878e-06
-1.68846e-06
-4.21963e-06
-2.00139e-06
-3.83249e-06
-2.3076e-06
-3.33422e-06
-2.56896e-06
-2.71091e-06
-2.69738e-06
-1.97477e-06
-2.58096e-06
-1.18233e-06
-2.10422e-06
-4.58145e-07
-1.17101e-06
-1.36976e-07
-1.21885e-07
-3.06507e-08
3.34755e-07
3.34062e-07
7.97581e-08
-7.377e-07
1.78448e-08
-4.74211e-07
-1.39382e-07
-6.53067e-08
-3.84278e-07
3.39818e-07
-7.41695e-07
7.2603e-07
-1.23406e-06
1.11641e-06
-1.85018e-06
1.53019e-06
-2.5253e-06
1.93513e-06
-3.16321e-06
2.25395e-06
-3.68738e-06
2.42085e-06
-4.08993e-06
2.44227e-06
-4.40044e-06
2.36887e-06
-4.63512e-06
2.22811e-06
-4.8158e-06
2.04145e-06
-4.95998e-06
1.82917e-06
-5.07824e-06
1.60172e-06
-5.17265e-06
1.36749e-06
-5.2403e-06
1.13075e-06
-5.28197e-06
8.97201e-07
-5.30312e-06
6.688e-07
-5.3054e-06
4.47583e-07
-5.29155e-06
2.28432e-07
-5.26263e-06
6.67527e-09
-5.21597e-06
-2.12261e-07
-5.15027e-06
-4.41524e-07
-5.0661e-06
-6.83888e-07
-4.96297e-06
-9.43569e-07
-4.83958e-06
-1.22511e-06
-4.69276e-06
-1.53156e-06
-4.51774e-06
-1.86348e-06
-4.30495e-06
-2.21419e-06
-4.04644e-06
-2.5661e-06
-3.72269e-06
-2.89272e-06
-3.28543e-06
-3.13464e-06
-2.67406e-06
-3.19233e-06
-1.87759e-06
-2.90068e-06
-9.26945e-07
-2.12165e-06
-2.22367e-07
-8.26463e-07
-1.63763e-08
1.28763e-07
3.17686e-07
-5.67366e-08
-6.80963e-07
-2.34465e-07
-2.96483e-07
-4.96643e-07
1.96872e-07
-8.51931e-07
6.95105e-07
-1.31746e-06
1.19156e-06
-1.88551e-06
1.68447e-06
-2.50552e-06
2.1502e-06
-3.09563e-06
2.52524e-06
-3.58152e-06
2.73984e-06
-3.9444e-06
2.78373e-06
-4.21692e-06
2.71479e-06
-4.42122e-06
2.57316e-06
-4.57217e-06
2.37906e-06
-4.6844e-06
2.15369e-06
-4.7643e-06
1.90907e-06
-4.81813e-06
1.65556e-06
-4.85107e-06
1.40043e-06
-4.86925e-06
1.14894e-06
-4.8766e-06
9.04547e-07
-4.87412e-06
6.66328e-07
-4.85994e-06
4.334e-07
-4.83444e-06
2.02932e-07
-4.80016e-06
-2.76095e-08
-4.75231e-06
-2.60105e-07
-4.69372e-06
-5.0012e-07
-4.62552e-06
-7.52088e-07
-4.54864e-06
-1.02045e-06
-4.4639e-06
-1.30984e-06
-4.37111e-06
-1.62435e-06
-4.2682e-06
-1.96638e-06
-4.14831e-06
-2.33408e-06
-3.99675e-06
-2.71767e-06
-3.79622e-06
-3.09325e-06
-3.51656e-06
-3.41429e-06
-3.09851e-06
-3.61038e-06
-2.4506e-06
-3.54859e-06
-1.52603e-06
-3.04622e-06
-4.91728e-07
-1.86077e-06
-3.14601e-08
-3.31505e-07
2.86226e-07
-1.85713e-07
-4.9525e-07
-4.80799e-07
-1.39723e-09
-8.3429e-07
5.50363e-07
-1.27516e-06
1.13598e-06
-1.79805e-06
1.71445e-06
-2.36609e-06
2.25251e-06
-2.91544e-06
2.69955e-06
-3.37613e-06
2.98594e-06
-3.71514e-06
3.07884e-06
-3.95927e-06
3.02786e-06
-4.13673e-06
2.89225e-06
-4.26014e-06
2.69658e-06
-4.34358e-06
2.46249e-06
-4.39658e-06
2.20669e-06
-4.42706e-06
1.93955e-06
-4.44211e-06
1.67061e-06
-4.44676e-06
1.40508e-06
-4.44396e-06
1.14614e-06
-4.43403e-06
8.94608e-07
-4.41705e-06
6.4935e-07
-4.39261e-06
4.08958e-07
-4.36067e-06
1.70999e-07
-4.32159e-06
-6.66955e-08
-4.27443e-06
-3.07259e-07
-4.2202e-06
-5.54354e-07
-4.16045e-06
-8.1184e-07
-4.09696e-06
-1.08394e-06
-4.03174e-06
-1.37506e-06
-3.96647e-06
-1.68962e-06
-3.90159e-06
-2.03126e-06
-3.83433e-06
-2.40134e-06
-3.75617e-06
-2.79583e-06
-3.64938e-06
-3.20004e-06
-3.48186e-06
-3.58181e-06
-3.21042e-06
-3.88182e-06
-2.75869e-06
-4.00033e-06
-2.03477e-06
-3.77014e-06
-9.51144e-07
-2.94439e-06
-1.15646e-07
-1.167e-06
1.7058e-07
-3.00955e-07
-1.94295e-07
-6.74517e-07
3.72164e-07
-1.10758e-06
9.83421e-07
-1.59713e-06
1.62553e-06
-2.12384e-06
2.24116e-06
-2.64218e-06
2.77085e-06
-3.09126e-06
3.14863e-06
-3.42492e-06
3.3196e-06
-3.65462e-06
3.30854e-06
-3.81539e-06
3.18863e-06
-3.92276e-06
2.99962e-06
-3.98899e-06
2.7628e-06
-4.02611e-06
2.49961e-06
-4.04254e-06
2.22313e-06
-4.04594e-06
1.94295e-06
-4.04137e-06
1.66603e-06
-4.03169e-06
1.3954e-06
-4.01798e-06
1.13242e-06
-4.00002e-06
8.76643e-07
-3.97745e-06
6.26779e-07
-3.94968e-06
3.81193e-07
-3.9163e-06
1.37617e-07
-3.87691e-06
-1.06081e-07
-3.83149e-06
-3.52684e-07
-3.78069e-06
-6.05153e-07
-3.72593e-06
-8.66603e-07
-3.6693e-06
-1.14057e-06
-3.61342e-06
-1.43094e-06
-3.56103e-06
-1.74202e-06
-3.51406e-06
-2.07823e-06
-3.47225e-06
-2.44315e-06
-3.43083e-06
-2.83725e-06
-3.37696e-06
-3.2539e-06
-3.28522e-06
-3.67355e-06
-3.11384e-06
-4.0532e-06
-2.80455e-06
-4.30961e-06
-2.27734e-06
-4.29736e-06
-1.43114e-06
-3.79058e-06
-3.34711e-07
-2.26344e-06
-1.64131e-07
-3.76828e-07
1.82533e-07
-8.19479e-07
8.14815e-07
-1.29169e-06
1.45564e-06
-1.78928e-06
2.12312e-06
-2.28603e-06
2.7379e-06
-2.73575e-06
3.22057e-06
-3.08049e-06
3.49338e-06
-3.31406e-06
3.55316e-06
-3.47009e-06
3.46457e-06
-3.57203e-06
3.29058e-06
-3.6316e-06
3.05919e-06
-3.66128e-06
2.79248e-06
-3.67104e-06
2.50937e-06
-3.66841e-06
2.22049e-06
-3.6592e-06
1.93374e-06
-3.64649e-06
1.65332e-06
-3.63167e-06
1.38059e-06
-3.61489e-06
1.11564e-06
-3.5956e-06
8.57355e-07
-3.57302e-06
6.04203e-07
-3.54626e-06
3.54429e-07
-3.51456e-06
1.05921e-07
-3.47729e-06
-1.43353e-07
-3.43438e-06
-3.95601e-07
-3.38629e-06
-6.53235e-07
-3.33423e-06
-9.18664e-07
-3.28019e-06
-1.19462e-06
-3.22692e-06
-1.4842e-06
-3.17776e-06
-1.79118e-06
-3.13592e-06
-2.12007e-06
-3.1032e-06
-2.47586e-06
-3.07776e-06
-2.86269e-06
-3.05082e-06
-3.28085e-06
-3.00282e-06
-3.72155e-06
-2.89893e-06
-4.1571e-06
-2.68887e-06
-4.51966e-06
-2.32036e-06
-4.66587e-06
-1.70931e-06
-4.40163e-06
-6.31433e-07
-3.34131e-06
-7.95564e-07
-4.21661e-07
6.04194e-07
-8.98648e-07
1.2918e-06
-1.38191e-06
1.9389e-06
-1.86252e-06
2.60373e-06
-2.31404e-06
3.18942e-06
-2.68201e-06
3.58854e-06
-2.93609e-06
3.74745e-06
-3.10333e-06
3.7204e-06
-3.20991e-06
3.57116e-06
-3.27246e-06
3.35313e-06
-3.30252e-06
3.08924e-06
-3.31163e-06
2.80159e-06
-3.30804e-06
2.50579e-06
-3.29789e-06
2.21034e-06
-3.28507e-06
1.92092e-06
-3.27127e-06
1.63952e-06
-3.25698e-06
1.3663e-06
-3.24176e-06
1.10042e-06
-3.22476e-06
8.4036e-07
-3.20496e-06
5.84401e-07
-3.18131e-06
3.30773e-07
-3.15294e-06
7.75585e-08
-3.11917e-06
-1.7713e-07
-3.07974e-06
-4.35028e-07
-3.0349e-06
-6.98073e-07
-2.98547e-06
-9.68092e-07
-2.93302e-06
-1.24707e-06
-2.87991e-06
-1.5373e-06
-2.82936e-06
-1.84174e-06
-2.78501e-06
-2.16442e-06
-2.7501e-06
-2.51078e-06
-2.72544e-06
-2.88734e-06
-2.70649e-06
-3.2998e-06
-2.67957e-06
-3.74847e-06
-2.61679e-06
-4.21987e-06
-2.46973e-06
-4.66672e-06
-2.18965e-06
-4.94595e-06
-1.70995e-06
-4.88133e-06
-9.07958e-07
-4.1433e-06
-1.70352e-06
-4.3893e-07
1.04312e-06
-9.19615e-07
1.77249e-06
-1.38985e-06
2.40914e-06
-1.83672e-06
3.0506e-06
-2.23095e-06
3.58365e-06
-2.51821e-06
3.8758e-06
-2.71138e-06
3.94063e-06
-2.83452e-06
3.84354e-06
-2.9082e-06
3.64483e-06
-2.94648e-06
3.3914e-06
-2.96046e-06
3.10323e-06
-2.96021e-06
2.80134e-06
-2.95238e-06
2.49796e-06
-2.94157e-06
2.19953e-06
-2.93018e-06
1.90953e-06
-2.91901e-06
1.62834e-06
-2.90792e-06
1.35521e-06
-2.89615e-06
1.08866e-06
-2.88271e-06
8.26923e-07
-2.86653e-06
5.68222e-07
-2.84659e-06
3.10833e-07
-2.82208e-06
5.30469e-08
-2.79237e-06
-2.06848e-07
-2.75708e-06
-4.70311e-07
-2.71627e-06
-7.38889e-07
-2.67036e-06
-1.014e-06
-2.62037e-06
-1.29706e-06
-2.56806e-06
-1.58962e-06
-2.516e-06
-1.89379e-06
-2.46761e-06
-2.21281e-06
-2.42656e-06
-2.55183e-06
-2.39542e-06
-2.91848e-06
-2.37306e-06
-3.32216e-06
-2.35119e-06
-3.77035e-06
-2.30954e-06
-4.26153e-06
-2.20636e-06
-4.7699e-06
-1.97494e-06
-5.17738e-06
-1.58555e-06
-5.27072e-06
-9.65992e-07
-4.76287e-06
-2.66951e-06
-4.28162e-07
1.47129e-06
-8.91043e-07
2.23537e-06
-1.33123e-06
2.84932e-06
-1.73547e-06
3.45483e-06
-2.0648e-06
3.91298e-06
-2.29146e-06
4.10246e-06
-2.44341e-06
4.09258e-06
-2.53557e-06
3.9357e-06
-2.58836e-06
3.69762e-06
-2.61305e-06
3.4161e-06
-2.61998e-06
3.11016e-06
-2.61739e-06
2.79875e-06
-2.61047e-06
2.49104e-06
-2.60247e-06
2.19153e-06
-2.59476e-06
1.90181e-06
-2.58752e-06
1.62111e-06
-2.58029e-06
1.34797e-06
-2.57218e-06
1.08055e-06
-2.56224e-06
8.16977e-07
-2.5495e-06
5.55486e-07
-2.53311e-06
2.94448e-07
-2.5124e-06
3.23281e-08
-2.48683e-06
-2.32416e-07
-2.45601e-06
-5.01123e-07
-2.41982e-06
-7.75082e-07
-2.37836e-06
-1.05546e-06
-2.33212e-06
-1.34329e-06
-2.28215e-06
-1.63959e-06
-2.23024e-06
-1.9457e-06
-2.17911e-06
-2.26394e-06
-2.13224e-06
-2.59869e-06
-2.0931e-06
-2.95762e-06
-2.06304e-06
-3.35222e-06
-2.03789e-06
-3.7955e-06
-2.00402e-06
-4.29539e-06
-1.93088e-06
-4.84304e-06
-1.74171e-06
-5.36654e-06
-1.42076e-06
-5.59167e-06
-8.65811e-07
-5.31781e-06
-3.53533e-06
-3.96837e-07
1.86812e-06
-8.26139e-07
2.66467e-06
-1.22642e-06
3.2496e-06
-1.58181e-06
3.81023e-06
-1.84776e-06
4.17893e-06
-2.03222e-06
4.28692e-06
-2.15256e-06
4.21292e-06
-2.2248e-06
4.00794e-06
-2.26508e-06
3.73789e-06
-2.28325e-06
3.43427e-06
-2.28852e-06
3.11542e-06
-2.28737e-06
2.79761e-06
-2.28372e-06
2.48739e-06
-2.27976e-06
2.18757e-06
-2.27615e-06
1.89821e-06
-2.27277e-06
1.61772e-06
-2.26898e-06
1.34419e-06
-2.26399e-06
1.07555e-06
-2.25696e-06
8.09953e-07
-2.24717e-06
5.4569e-07
-2.23396e-06
2.81241e-07
-2.21681e-06
1.51786e-08
-2.19532e-06
-2.53902e-07
-2.16914e-06
-5.2731e-07
-2.138e-06
-8.06219e-07
-2.10178e-06
-1.09168e-06
-2.06054e-06
-1.38453e-06
-2.0147e-06
-1.68543e-06
-1.96525e-06
-1.99515e-06
-1.91405e-06
-2.31515e-06
-1.86394e-06
-2.6488e-06
-1.8185e-06
-3.00305e-06
-1.78058e-06
-3.39014e-06
-1.74899e-06
-3.8271e-06
-1.71457e-06
-4.32982e-06
-1.65498e-06
-4.90263e-06
-1.51225e-06
-5.50927e-06
-1.23134e-06
-5.87258e-06
-7.59837e-07
-5.78931e-06
-4.29516e-06
-3.51556e-07
2.21968e-06
-7.3718e-07
3.05029e-06
-1.09046e-06
3.60289e-06
-1.39168e-06
4.11144e-06
-1.60498e-06
4.39223e-06
-1.75726e-06
4.4392e-06
-1.85489e-06
4.31055e-06
-1.91378e-06
4.06683e-06
-1.94685e-06
3.77097e-06
-1.96268e-06
3.45011e-06
-1.96905e-06
3.12179e-06
-1.97089e-06
2.79945e-06
-1.9711e-06
2.4876e-06
-1.97107e-06
2.18754e-06
-1.97107e-06
1.89821e-06
-1.97081e-06
1.61746e-06
-1.9697e-06
1.34308e-06
-1.9671e-06
1.07295e-06
-1.96239e-06
8.05246e-07
-1.95507e-06
5.38365e-07
-1.9447e-06
2.70873e-07
-1.93091e-06
1.38866e-09
-1.91342e-06
-2.71388e-07
-1.89192e-06
-5.4881e-07
-1.8661e-06
-8.32041e-07
-1.83566e-06
-1.12213e-06
-1.80035e-06
-1.41984e-06
-1.76009e-06
-1.72568e-06
-1.71522e-06
-2.04002e-06
-1.66676e-06
-2.36361e-06
-1.6168e-06
-2.69876e-06
-1.56856e-06
-3.05129e-06
-1.5256e-06
-3.4331e-06
-1.48918e-06
-3.86352e-06
-1.45401e-06
-4.36499e-06
-1.4037e-06
-4.95294e-06
-1.2986e-06
-5.61437e-06
-1.04707e-06
-6.12411e-06
-6.46639e-07
-6.18974e-06
-4.9418e-06
-2.98691e-07
2.51837e-06
-6.31887e-07
3.38349e-06
-9.34021e-07
3.90502e-06
-1.18078e-06
4.3582e-06
-1.35496e-06
4.56641e-06
-1.48041e-06
4.56465e-06
-1.55988e-06
4.39002e-06
-1.60917e-06
4.11612e-06
-1.63801e-06
3.79981e-06
-1.65355e-06
3.46565e-06
-1.66201e-06
3.13024e-06
-1.66702e-06
2.80446e-06
-1.67067e-06
2.49124e-06
-1.67382e-06
2.19069e-06
-1.67654e-06
1.90093e-06
-1.67852e-06
1.61945e-06
-1.67933e-06
1.34389e-06
-1.6785e-06
1.07212e-06
-1.67565e-06
8.02395e-07
-1.67047e-06
5.33186e-07
-1.66271e-06
2.63114e-07
-1.65217e-06
-9.15578e-09
-1.63861e-06
-2.84944e-07
-1.62181e-06
-5.65605e-07
-1.60146e-06
-8.52395e-07
-1.57715e-06
-1.14643e-06
-1.54843e-06
-1.44856e-06
-1.51487e-06
-1.75924e-06
-1.47627e-06
-2.07862e-06
-1.433e-06
-2.40689e-06
-1.38639e-06
-2.74536e-06
-1.33912e-06
-3.09856e-06
-1.29488e-06
-3.47734e-06
-1.25641e-06
-3.90199e-06
-1.2209e-06
-4.4005e-06
-1.17638e-06
-4.99746e-06
-1.09642e-06
-5.69432e-06
-8.89271e-07
-6.33126e-06
-5.55819e-07
-6.52319e-06
-5.49762e-06
-2.38598e-07
2.75697e-06
-5.1693e-07
3.66182e-06
-7.68281e-07
4.15637e-06
-9.65024e-07
4.55494e-06
-1.10586e-06
4.70724e-06
-1.20663e-06
4.66542e-06
-1.27202e-06
4.45542e-06
-1.31408e-06
4.15818e-06
-1.34015e-06
3.82588e-06
-1.35605e-06
3.48156e-06
-1.36651e-06
3.1407e-06
-1.37411e-06
2.81207e-06
-1.38033e-06
2.49746e-06
-1.3857e-06
2.19606e-06
-1.39021e-06
1.90544e-06
-1.39366e-06
1.6229e-06
-1.39576e-06
1.34598e-06
-1.39626e-06
1.07262e-06
-1.39497e-06
8.01102e-07
-1.39174e-06
5.29962e-07
-1.38648e-06
2.57854e-07
-1.37909e-06
-1.655e-08
-1.36944e-06
-2.94598e-07
-1.35735e-06
-5.77694e-07
-1.34254e-06
-8.67208e-07
-1.32458e-06
-1.16439e-06
-1.3029e-06
-1.47024e-06
-1.27684e-06
-1.7853e-06
-1.24582e-06
-2.10964e-06
-1.20968e-06
-2.44303e-06
-1.16912e-06
-2.78592e-06
-1.12626e-06
-3.14142e-06
-1.08474e-06
-3.51887e-06
-1.04836e-06
-3.93837e-06
-1.01682e-06
-4.43203e-06
-9.81678e-07
-5.03261e-06
-9.23027e-07
-5.75297e-06
-7.55369e-07
-6.49892e-06
-4.66234e-07
-6.81233e-06
-5.96385e-06
-1.79127e-07
2.9361e-06
-3.99753e-07
3.88245e-06
-5.99782e-07
4.3564e-06
-7.50546e-07
4.7057e-06
-8.60783e-07
4.81748e-06
-9.39946e-07
4.74458e-06
-9.93339e-07
4.50881e-06
-1.02932e-06
4.19417e-06
-1.05313e-06
3.84969e-06
-1.06925e-06
3.49767e-06
-1.08106e-06
3.15251e-06
-1.09037e-06
2.82138e-06
-1.09817e-06
2.50526e-06
-1.10481e-06
2.20269e-06
-1.11031e-06
1.91094e-06
-1.11458e-06
1.62718e-06
-1.11752e-06
1.34892e-06
-1.11905e-06
1.07415e-06
-1.11914e-06
8.0119e-07
-1.11778e-06
5.28602e-07
-1.11497e-06
2.55047e-07
-1.11071e-06
-2.08145e-08
-1.10494e-06
-3.00368e-07
-1.09755e-06
-5.85083e-07
-1.08831e-06
-8.76452e-07
-1.07681e-06
-1.17589e-06
-1.06246e-06
-1.48459e-06
-1.04448e-06
-1.80328e-06
-1.02205e-06
-2.13207e-06
-9.94591e-07
-2.47049e-06
-9.6227e-07
-2.81824e-06
-9.26592e-07
-3.17709e-06
-8.90829e-07
-3.55463e-06
-8.59413e-07
-3.96979e-06
-8.34482e-07
-4.45697e-06
-8.09774e-07
-5.05731e-06
-7.65946e-07
-5.7968e-06
-6.46742e-07
-6.61813e-06
-4.06244e-07
-7.05283e-06
-6.3701e-06
-1.14974e-07
3.05107e-06
-2.8112e-07
4.04859e-06
-4.30934e-07
4.50621e-06
-5.40215e-07
4.81498e-06
-6.22487e-07
4.89975e-06
-6.81969e-07
4.80406e-06
-7.24257e-07
4.5511e-06
-7.54474e-07
4.22438e-06
-7.75893e-07
3.87111e-06
-7.91646e-07
3.51342e-06
-8.0398e-07
3.16484e-06
-8.14042e-07
2.83144e-06
-8.22488e-07
2.51371e-06
-8.29576e-07
2.20978e-06
-8.354e-07
1.91677e-06
-8.40009e-07
1.63178e-06
-8.43452e-07
1.35237e-06
-8.45807e-07
1.0765e-06
-8.47165e-07
8.02548e-07
-8.47623e-07
5.2906e-07
-8.47262e-07
2.54685e-07
-8.46136e-07
-2.19403e-08
-8.44258e-07
-3.02245e-07
-8.41574e-07
-5.87766e-07
-8.37915e-07
-8.80111e-07
-8.32943e-07
-1.18086e-06
-8.26105e-07
-1.49142e-06
-8.16602e-07
-1.81278e-06
-8.03482e-07
-2.14519e-06
-7.85907e-07
-2.48807e-06
-7.63626e-07
-2.84052e-06
-7.37623e-07
-3.2031e-06
-7.1073e-07
-3.58153e-06
-6.87563e-07
-3.99296e-06
-6.71949e-07
-4.47258e-06
-6.59832e-07
-5.06943e-06
-6.32701e-07
-5.82393e-06
-5.48735e-07
-6.70209e-06
-3.48575e-07
-7.25299e-06
-6.71867e-06
-5.7712e-08
3.10878e-06
-1.65332e-07
4.15621e-06
-2.64718e-07
4.6056e-06
-3.35963e-07
4.88623e-06
-3.91722e-07
4.95551e-06
-4.3252e-07
4.84486e-06
-4.64049e-07
4.58263e-06
-4.88327e-07
4.24866e-06
-5.06876e-07
3.88966e-06
-5.21527e-07
3.52808e-06
-5.33516e-07
3.17683e-06
-5.43453e-07
2.84138e-06
-5.51741e-07
2.52199e-06
-5.58606e-07
2.21665e-06
-5.64229e-07
1.92239e-06
-5.68788e-07
1.63634e-06
-5.72477e-07
1.35606e-06
-5.75497e-07
1.07952e-06
-5.78041e-07
8.05092e-07
-5.80284e-07
5.31303e-07
-5.82369e-07
2.56771e-07
-5.84402e-07
-1.9907e-08
-5.86443e-07
-3.00204e-07
-5.88493e-07
-5.85717e-07
-5.90449e-07
-8.78155e-07
-5.92058e-07
-1.17925e-06
-5.92848e-07
-1.49063e-06
-5.92084e-07
-1.81355e-06
-5.88799e-07
-2.14848e-06
-5.81998e-07
-2.49487e-06
-5.71108e-07
-2.85141e-06
-5.56649e-07
-3.21756e-06
-5.40984e-07
-3.59719e-06
-5.28619e-07
-4.00532e-06
-5.24321e-07
-4.47688e-06
-5.26174e-07
-5.06758e-06
-5.19236e-07
-5.83087e-06
-4.68342e-07
-6.75299e-06
-3.06902e-07
-7.41443e-06
-7.02557e-06
5.8292e-09
3.10295e-06
-4.85157e-08
4.21056e-06
-1.02002e-07
4.65908e-06
-1.38814e-07
4.92304e-06
-1.68257e-07
4.98495e-06
-1.911e-07
4.8677e-06
-2.11513e-07
4.60304e-06
-2.29279e-07
4.26643e-06
-2.44318e-07
3.90469e-06
-2.57105e-07
3.54086e-06
-2.67961e-07
3.18769e-06
-2.77026e-07
2.85044e-06
-2.84506e-07
2.52947e-06
-2.90609e-07
2.22275e-06
-2.95602e-07
1.92738e-06
-2.99791e-07
1.64053e-06
-3.03496e-07
1.35976e-06
-3.07026e-07
1.08305e-06
-3.10662e-07
8.08727e-07
-3.14642e-07
5.35283e-07
-3.19165e-07
2.61293e-07
-3.24376e-07
-1.46952e-08
-3.30377e-07
-2.94203e-07
-3.3721e-07
-5.78884e-07
-3.44833e-07
-8.70531e-07
-3.53081e-07
-1.171e-06
-3.616e-07
-1.48211e-06
-3.69775e-07
-1.80537e-06
-3.76712e-07
-2.14154e-06
-3.81374e-07
-2.49021e-06
-3.82977e-07
-2.84981e-06
-3.81649e-07
-3.21888e-06
-3.7926e-07
-3.59958e-06
-3.79996e-07
-4.00459e-06
-3.89073e-07
-4.4678e-06
-4.06559e-07
-5.05009e-06
-4.1971e-07
-5.81772e-06
-3.9644e-07
-6.77626e-06
-2.67577e-07
-7.54329e-06
-7.29315e-06
6.49208e-08
3.03803e-06
6.57367e-08
4.20974e-06
5.57387e-08
4.66908e-06
5.16302e-08
4.92715e-06
4.87538e-08
4.98783e-06
4.32061e-08
4.87325e-06
3.46977e-08
4.61155e-06
2.41976e-08
4.27693e-06
1.34653e-08
3.91543e-06
3.35946e-09
3.55097e-06
-5.6261e-09
3.19667e-06
-1.32066e-08
2.85802e-06
-1.93484e-08
2.53562e-06
-2.42514e-08
2.22765e-06
-2.82645e-08
1.9314e-06
-3.1807e-08
1.64408e-06
-3.53119e-08
1.36327e-06
-3.91871e-08
1.08693e-06
-4.37928e-08
8.13333e-07
-4.94322e-08
5.40923e-07
-5.63516e-08
2.68212e-07
-6.47423e-08
-6.3045e-09
-7.47391e-08
-2.84207e-07
-8.64198e-08
-5.67204e-07
-9.97934e-08
-8.57158e-07
-1.14775e-07
-1.15602e-06
-1.31126e-07
-1.46576e-06
-1.48386e-07
-1.78811e-06
-1.65817e-07
-2.12411e-06
-1.82469e-07
-2.47356e-06
-1.97437e-07
-2.83484e-06
-2.10468e-07
-3.20585e-06
-2.2299e-07
-3.58706e-06
-2.38736e-07
-3.98884e-06
-2.63082e-07
-4.44345e-06
-2.97833e-07
-5.01534e-06
-3.32149e-07
-5.7834e-06
-3.36866e-07
-6.77154e-06
-2.37925e-07
-7.64223e-06
-7.53108e-06
1.24466e-07
2.91357e-06
1.78313e-07
4.1559e-06
2.10996e-07
4.6364e-06
2.40718e-07
4.89743e-06
2.65155e-07
4.96339e-06
2.77001e-07
4.86141e-06
2.7832e-07
4.61023e-06
2.7474e-07
4.28051e-06
2.68564e-07
3.9216e-06
2.61574e-07
3.55796e-06
2.5497e-07
3.20328e-06
2.49421e-07
2.86357e-06
2.45077e-07
2.53996e-06
2.41753e-07
2.23098e-06
2.3904e-07
1.93411e-06
2.36419e-07
1.6467e-06
2.33354e-07
1.36633e-06
2.29342e-07
1.09094e-06
2.23939e-07
8.18735e-07
2.16778e-07
5.48085e-07
2.07556e-07
2.77434e-07
1.9604e-07
5.21206e-09
1.82058e-07
-2.70225e-07
1.65491e-07
-5.50637e-07
1.46275e-07
-8.37942e-07
1.24427e-07
-1.13418e-06
1.00088e-07
-1.44143e-06
7.35646e-08
-1.76159e-06
4.54117e-08
-2.09596e-06
1.64685e-08
-2.44461e-06
-1.24808e-08
-2.80589e-06
-4.11079e-08
-3.17723e-06
-7.0082e-08
-3.55808e-06
-1.02593e-07
-3.95633e-06
-1.43948e-07
-4.4021e-06
-1.97019e-07
-4.96227e-06
-2.51829e-07
-5.72859e-06
-2.82165e-07
-6.7412e-06
-2.10532e-07
-7.71386e-06
-7.74161e-06
1.84201e-07
2.72936e-06
2.89744e-07
4.05035e-06
3.62071e-07
4.56407e-06
4.22701e-07
4.8368e-06
4.73407e-07
4.91269e-06
5.05155e-07
4.82966e-06
5.18051e-07
4.59733e-06
5.2266e-07
4.2759e-06
5.22056e-07
3.92221e-06
5.19004e-07
3.56101e-06
5.15411e-07
3.20687e-06
5.12351e-07
2.86663e-06
5.1019e-07
2.54212e-06
5.08788e-07
2.23238e-06
5.07689e-07
1.93521e-06
5.06284e-07
1.6481e-06
5.03932e-07
1.36868e-06
5.00034e-07
1.09484e-06
4.94062e-07
8.24707e-07
4.85575e-07
5.56572e-07
4.74211e-07
2.88797e-07
4.59683e-07
1.97404e-08
4.41773e-07
-2.52315e-07
4.20317e-07
-5.29181e-07
3.952e-07
-8.12825e-07
3.66377e-07
-1.10535e-06
3.33866e-07
-1.40891e-06
2.97805e-07
-1.72553e-06
2.5854e-07
-2.05669e-06
2.16667e-07
-2.40274e-06
1.7295e-07
-2.76217e-06
1.28027e-07
-3.1323e-06
8.14562e-08
-3.51151e-06
3.06792e-08
-3.90555e-06
-2.94783e-08
-4.34194e-06
-1.02535e-07
-4.88921e-06
-1.78979e-07
-5.65215e-06
-2.32415e-07
-6.68777e-06
-1.89334e-07
-7.75695e-06
-7.93094e-06
2.42123e-07
2.48724e-06
3.9911e-07
3.89337e-06
5.10181e-07
4.453e-06
6.01944e-07
4.74504e-06
6.75182e-07
4.83945e-06
7.27638e-07
4.7772e-06
7.54609e-07
4.57036e-06
7.68832e-07
4.26168e-06
7.74944e-07
3.91609e-06
7.76755e-07
3.5592e-06
7.76912e-07
3.20671e-06
7.7694e-07
2.8666e-06
7.77442e-07
2.54162e-06
7.78355e-07
2.23147e-06
7.79211e-07
1.93435e-06
7.79335e-07
1.64798e-06
7.77999e-07
1.37002e-06
7.74505e-07
1.09833e-06
7.68236e-07
8.30976e-07
7.58667e-07
5.6614e-07
7.45368e-07
3.02096e-07
7.27987e-07
3.7122e-08
7.06253e-07
-2.30581e-07
6.79956e-07
-5.02884e-07
6.48918e-07
-7.81787e-07
6.13005e-07
-1.06944e-06
5.72129e-07
-1.36804e-06
5.26298e-07
-1.6797e-06
4.7565e-07
-2.00604e-06
4.20496e-07
-2.34758e-06
3.61423e-07
-2.7031e-06
2.99098e-07
-3.06998e-06
2.33561e-07
-3.44598e-06
1.62928e-07
-3.83492e-06
8.23853e-08
-4.2614e-06
-1.23403e-08
-4.79449e-06
-1.11464e-07
-5.55303e-06
-1.87125e-07
-6.61211e-06
-1.70232e-07
-7.77384e-06
-8.10117e-06
2.9797e-07
2.18927e-06
5.04989e-07
3.68635e-06
6.53377e-07
4.30461e-06
7.74673e-07
4.62374e-06
8.71115e-07
4.74301e-06
9.45621e-07
4.7027e-06
9.88906e-07
4.52708e-06
1.0138e-06
4.23678e-06
1.02782e-06
3.90208e-06
1.03566e-06
3.55136e-06
1.04056e-06
3.20182e-06
1.04445e-06
2.86271e-06
1.04823e-06
2.53785e-06
1.05195e-06
2.22774e-06
1.05519e-06
1.93112e-06
1.05723e-06
1.64594e-06
1.05727e-06
1.36998e-06
1.05453e-06
1.10108e-06
1.04829e-06
8.37215e-07
1.03794e-06
5.76488e-07
1.02297e-06
3.17067e-07
1.00296e-06
5.71403e-08
9.77553e-07
-2.05179e-07
9.46487e-07
-4.71818e-07
9.09513e-07
-7.44813e-07
8.6642e-07
-1.02635e-06
8.17024e-07
-1.31864e-06
7.61146e-07
-1.62382e-06
6.98652e-07
-1.94355e-06
6.29629e-07
-2.27856e-06
5.54479e-07
-2.62795e-06
4.73804e-07
-2.9893e-06
3.88021e-07
-3.36019e-06
2.96024e-07
-3.74292e-06
1.93642e-07
-4.15902e-06
7.66105e-08
-4.67746e-06
-4.61903e-08
-5.43022e-06
-1.43854e-07
-6.51444e-06
-1.54081e-07
-7.76361e-06
-8.25525e-06
3.49524e-07
1.83975e-06
6.04373e-07
3.4315e-06
7.88969e-07
4.12002e-06
9.38393e-07
4.47432e-06
1.05994e-06
4.62146e-06
1.1549e-06
4.60775e-06
1.21827e-06
4.46371e-06
1.25668e-06
4.19837e-06
1.28058e-06
3.87817e-06
1.29607e-06
3.53587e-06
1.30706e-06
3.19083e-06
1.31593e-06
2.85383e-06
1.32386e-06
2.52992e-06
1.3311e-06
2.2205e-06
1.3373e-06
1.92491e-06
1.34176e-06
1.64148e-06
1.34364e-06
1.3681e-06
1.34206e-06
1.10265e-06
1.33625e-06
8.43032e-07
1.32548e-06
5.87252e-07
1.30917e-06
3.33383e-07
1.28679e-06
7.95168e-08
1.25794e-06
-1.76327e-07
1.22225e-06
-4.36125e-07
1.17938e-06
-7.01946e-07
1.12903e-06
-9.75996e-07
1.07087e-06
-1.26049e-06
1.00457e-06
-1.55751e-06
9.29774e-07
-1.86875e-06
8.46265e-07
-2.19505e-06
7.54123e-07
-2.53581e-06
6.53948e-07
-2.88913e-06
5.46529e-07
-3.25277e-06
4.3154e-07
-3.62793e-06
3.05557e-07
-4.03303e-06
1.64878e-07
-4.53678e-06
1.92877e-08
-5.28463e-06
-1.02491e-07
-6.39266e-06
-1.3724e-07
-7.72886e-06
-8.39249e-06
3.91932e-07
1.44782e-06
6.91432e-07
3.132e-06
9.12088e-07
3.89936e-06
1.08978e-06
4.29663e-06
1.23667e-06
4.47456e-06
1.35336e-06
4.49106e-06
1.4394e-06
4.37767e-06
1.49506e-06
4.14271e-06
1.53189e-06
3.84134e-06
1.55746e-06
3.5103e-06
1.57655e-06
3.17174e-06
1.59204e-06
2.83834e-06
1.60544e-06
2.51652e-06
1.61725e-06
2.20869e-06
1.62726e-06
1.9149e-06
1.63484e-06
1.6339e-06
1.63913e-06
1.36381e-06
1.63925e-06
1.10253e-06
1.63432e-06
8.47962e-07
1.62356e-06
5.98008e-07
1.60628e-06
3.50664e-07
1.58187e-06
1.03922e-07
1.54984e-06
-1.44291e-07
1.5097e-06
-3.95987e-07
1.46101e-06
-6.5326e-07
1.40334e-06
-9.18325e-07
1.33621e-06
-1.19335e-06
1.25907e-06
-1.48037e-06
1.17133e-06
-1.78101e-06
1.07249e-06
-2.09621e-06
9.62364e-07
-2.42569e-06
8.41449e-07
-2.76821e-06
7.10731e-07
-3.12206e-06
5.70791e-07
-3.48799e-06
4.19068e-07
-3.88131e-06
2.51794e-07
-4.36951e-06
7.75933e-08
-5.11043e-06
-6.67255e-08
-6.24834e-06
-1.24869e-07
-7.67072e-06
-8.51736e-06
4.15542e-07
1.03227e-06
7.56778e-07
2.79076e-06
1.01651e-06
3.63963e-06
1.22373e-06
4.08941e-06
1.39586e-06
4.30243e-06
1.53712e-06
4.3498e-06
1.64731e-06
4.26748e-06
1.72476e-06
4.06527e-06
1.7789e-06
3.7872e-06
1.81819e-06
3.47101e-06
1.84832e-06
3.14161e-06
1.87283e-06
2.81384e-06
1.89365e-06
2.49569e-06
1.91158e-06
2.19075e-06
1.92664e-06
1.89985e-06
1.93831e-06
1.62223e-06
1.94583e-06
1.35629e-06
1.94831e-06
1.10006e-06
1.94484e-06
8.51428e-07
1.93459e-06
6.08255e-07
1.91678e-06
3.68477e-07
1.89071e-06
1.29988e-07
1.85578e-06
-1.09361e-07
1.81139e-06
-3.51592e-07
1.75695e-06
-5.98816e-07
1.69186e-06
-8.53236e-07
1.61544e-06
-1.11693e-06
1.52694e-06
-1.39187e-06
1.42549e-06
-1.67957e-06
1.31033e-06
-1.98105e-06
1.18101e-06
-2.29637e-06
1.03793e-06
-2.62514e-06
8.82229e-07
-2.96635e-06
7.15286e-07
-3.32105e-06
5.35647e-07
-3.70167e-06
3.39804e-07
-4.17366e-06
1.36767e-07
-4.9074e-06
-3.45965e-08
-6.07698e-06
-1.12945e-07
-7.59237e-06
-8.63031e-06
4.00906e-07
6.31368e-07
7.89232e-07
2.40244e-06
1.09324e-06
3.33562e-06
1.33262e-06
3.85003e-06
1.53079e-06
4.10425e-06
1.6987e-06
4.18188e-06
1.83612e-06
4.13006e-06
1.94005e-06
3.96134e-06
2.01691e-06
3.71033e-06
2.07487e-06
3.41306e-06
2.12025e-06
3.09623e-06
2.15724e-06
2.77684e-06
2.1883e-06
2.46463e-06
2.21463e-06
2.16443e-06
2.23653e-06
1.87795e-06
2.25374e-06
1.60502e-06
2.26561e-06
1.34441e-06
2.27135e-06
1.09432e-06
2.27008e-06
8.52696e-07
2.26095e-06
6.17388e-07
2.2431e-06
3.86325e-07
2.21577e-06
1.57316e-07
2.17823e-06
-7.18137e-08
2.12974e-06
-3.03107e-07
2.06956e-06
-5.38634e-07
1.99689e-06
-7.80564e-07
1.91081e-06
-1.03085e-06
1.8103e-06
-1.29136e-06
1.69423e-06
-1.5635e-06
1.56159e-06
-1.84841e-06
1.41172e-06
-2.1465e-06
1.24497e-06
-2.45838e-06
1.06254e-06
-2.78393e-06
8.66502e-07
-3.12501e-06
6.56619e-07
-3.49179e-06
4.30438e-07
-3.94748e-06
1.96092e-07
-4.67305e-06
-8.46624e-09
-5.87242e-06
-1.06036e-07
-7.4948e-06
-8.73635e-06
3.23338e-07
3.0803e-07
7.81041e-07
1.94473e-06
1.13127e-06
2.98539e-06
1.40633e-06
3.57497e-06
1.6335e-06
3.87709e-06
1.82985e-06
3.98553e-06
1.99791e-06
3.962e-06
2.13348e-06
3.82578e-06
2.23939e-06
3.60441e-06
2.32226e-06
3.33019e-06
2.38844e-06
3.03005e-06
2.44263e-06
2.72266e-06
2.48784e-06
2.41943e-06
2.52574e-06
2.12652e-06
2.55705e-06
1.84663e-06
2.58182e-06
1.58026e-06
2.59965e-06
1.32658e-06
2.60991e-06
1.08406e-06
2.61182e-06
8.50785e-07
2.60456e-06
6.2465e-07
2.58726e-06
4.03622e-07
2.55912e-06
1.85461e-07
2.51918e-06
-3.18761e-08
2.46673e-06
-2.50655e-07
2.40075e-06
-4.72653e-07
2.32022e-06
-7.00041e-07
2.22397e-06
-9.34599e-07
2.11069e-06
-1.17808e-06
1.97897e-06
-1.43178e-06
1.82762e-06
-1.69706e-06
1.6558e-06
-1.97468e-06
1.46384e-06