/*--------------------------------*- C++ -*----------------------------------*\
  =========                 |
  \\      /  F ield         | OpenFOAM: The Open Source CFD Toolbox
   \\    /   O peration     | Website:  https://openfoam.org
    \\  /    A nd           | Version:  13
     \\/     M anipulation  |
\*---------------------------------------------------------------------------*/
FoamFile
{
    format      ascii;
    class       volVectorField;
    location    "9.5";
    object      U;
}
// * * * * * * * * * * * * * * * * * * * * * * * * * * * * * * * * * * * * * //

dimensions      [0 1 -1 0 0 0 0];

internalField   nonuniform List<vector> 
400
(
(0.00277981 -0.00324883 0)
(0.00167593 -0.000484454 0)
(-0.00724995 0.00413681 0)
(-0.0304308 0.0117239 0)
(-0.0637556 0.0145406 0)
(-0.0902314 0.0125573 0)
(-0.114078 0.0107442 0)
(-0.132051 0.00832957 0)
(-0.146371 0.00631206 0)
(-0.156051 0.00402345 0)
(-0.161706 0.00220187 0)
(-0.163838 0.000239653 0)
(-0.162163 -0.00299846 0)
(-0.155132 -0.00513507 0)
(-0.143572 -0.00852553 0)
(-0.12561 -0.0114324 0)
(-0.101756 -0.0148856 0)
(-0.0716272 -0.0168234 0)
(-0.0383255 -0.0152676 0)
(-0.00950846 -0.00425113 0)
(-0.00235621 -0.00161331 0)
(-0.0139119 0.0128271 0)
(-0.0407733 0.0319685 0)
(-0.0696754 0.0410021 0)
(-0.0944596 0.0397804 0)
(-0.114834 0.0355386 0)
(-0.13202 0.0298975 0)
(-0.144719 0.0240442 0)
(-0.155569 0.0172744 0)
(-0.162599 0.0113542 0)
(-0.166787 0.00547009 0)
(-0.167318 -0.000290683 0)
(-0.164453 -0.00665085 0)
(-0.157935 -0.0136485 0)
(-0.147324 -0.0221086 0)
(-0.131776 -0.0316738 0)
(-0.111043 -0.042582 0)
(-0.0847622 -0.0523231 0)
(-0.0528063 -0.0549698 0)
(-0.019627 -0.0362621 0)
(-0.00870004 0.0149044 0)
(-0.0328423 0.0413617 0)
(-0.0596244 0.0576841 0)
(-0.0822743 0.0618452 0)
(-0.100524 0.0579471 0)
(-0.115417 0.0505158 0)
(-0.127273 0.0414296 0)
(-0.136267 0.031904 0)
(-0.142396 0.0233733 0)
(-0.145461 0.0147661 0)
(-0.146521 0.00629964 0)
(-0.14534 -0.00233239 0)
(-0.142365 -0.0113078 0)
(-0.13644 -0.0211493 0)
(-0.127815 -0.0325111 0)
(-0.115633 -0.0458252 0)
(-0.0994352 -0.0614308 0)
(-0.078676 -0.078424 0)
(-0.0518073 -0.0907703 0)
(-0.0225369 -0.0792493 0)
(-0.0127133 0.0392374 0)
(-0.0382987 0.0655145 0)
(-0.0614255 0.0782018 0)
(-0.0788952 0.0789538 0)
(-0.092338 0.0723692 0)
(-0.102703 0.0623445 0)
(-0.110248 0.0507243 0)
(-0.11559 0.0388437 0)
(-0.118828 0.0274627 0)
(-0.120528 0.0164994 0)
(-0.120669 0.00604276 0)
(-0.119227 -0.00443705 0)
(-0.116118 -0.0153792 0)
(-0.111104 -0.0274266 0)
(-0.104157 -0.0412237 0)
(-0.0948899 -0.0574196 0)
(-0.082605 -0.0763746 0)
(-0.0663681 -0.0975542 0)
(-0.0442731 -0.116552 0)
(-0.0203952 -0.114371 0)
(-0.0127589 0.062145 0)
(-0.0359221 0.0870158 0)
(-0.0545535 0.0955446 0)
(-0.0682086 0.0927242 0)
(-0.0782539 0.0830767 0)
(-0.0854551 0.0703135 0)
(-0.0903907 0.0563443 0)
(-0.0937501 0.042549 0)
(-0.0957243 0.0295108 0)
(-0.096502 0.0171597 0)
(-0.0960531 0.00529062 0)
(-0.0943889 -0.0065641 0)
(-0.0914566 -0.018868 0)
(-0.0872091 -0.0323181 0)
(-0.0816441 -0.0476947 0)
(-0.0746642 -0.0659013 0)
(-0.0657487 -0.0877014 0)
(-0.0534911 -0.113114 0)
(-0.0358613 -0.138405 0)
(-0.0179621 -0.143859 0)
(-0.0107834 0.0832222 0)
(-0.0297307 0.105553 0)
(-0.0443401 0.11001 0)
(-0.0549607 0.103529 0)
(-0.0623981 0.0908617 0)
(-0.0675183 0.0756818 0)
(-0.0709633 0.0599256 0)
(-0.073283 0.0448062 0)
(-0.0745703 0.0306373 0)
(-0.074913 0.0172121 0)
(-0.0743199 0.00423616 0)
(-0.0727681 -0.00870759 0)
(-0.0702167 -0.0220944 0)
(-0.0666659 -0.0365618 0)
(-0.0621754 -0.0529059 0)
(-0.0568071 -0.0721516 0)
(-0.050425 -0.0954173 0)
(-0.0416123 -0.123548 0)
(-0.0300495 -0.154656 0)
(-0.0122568 -0.167883 0)
(-0.00881358 0.100667 0)
(-0.022341 0.120309 0)
(-0.0334563 0.121366 0)
(-0.0413106 0.111715 0)
(-0.0466945 0.0965801 0)
(-0.0504055 0.0795473 0)
(-0.0529407 0.0624984 0)
(-0.0546718 0.0463987 0)
(-0.0556514 0.031357 0)
(-0.0559399 0.0171036 0)
(-0.0555183 0.00327601 0)
(-0.0543271 -0.0105607 0)
(-0.0523121 -0.0248692 0)
(-0.0494812 -0.0401944 0)
(-0.0459353 -0.0572659 0)
(-0.0418172 -0.0771725 0)
(-0.0372967 -0.101243 0)
(-0.0309335 -0.131337 0)
(-0.0241484 -0.166417 0)
(-0.0098499 -0.187598 0)
(-0.00587211 0.113466 0)
(-0.0148368 0.131273 0)
(-0.0228261 0.129735 0)
(-0.0281675 0.117709 0)
(-0.0318877 0.100792 0)
(-0.034531 0.0824443 0)
(-0.0364246 0.0644676 0)
(-0.0377908 0.047645 0)
(-0.0386496 0.0319728 0)
(-0.0390271 0.0171179 0)
(-0.0388809 0.00264871 0)
(-0.0381392 -0.0118932 0)
(-0.0367424 -0.0269444 0)
(-0.034702 -0.0429568 0)
(-0.0321396 -0.0605304 0)
(-0.0292179 -0.0807311 0)
(-0.0263735 -0.105117 0)
(-0.0220877 -0.136403 0)
(-0.0194276 -0.174245 0)
(-0.00627343 -0.203233 0)
(-0.00361095 0.121402 0)
(-0.00788368 0.138128 0)
(-0.0127619 0.134982 0)
(-0.0157974 0.121646 0)
(-0.0180671 0.103654 0)
(-0.0197891 0.0845206 0)
(-0.0211278 0.065968 0)
(-0.0221861 0.0486755 0)
(-0.0229485 0.0325894 0)
(-0.0234101 0.0173252 0)
(-0.0235269 0.00240142 0)
(-0.0232413 -0.0126549 0)
(-0.0225069 -0.0282578 0)
(-0.0213298 -0.0447836 0)
(-0.0198514 -0.0626825 0)
(-0.0181835 -0.0829454 0)
(-0.0171781 -0.107345 0)
(-0.014463 -0.139377 0)
(-0.0155716 -0.179165 0)
(-0.00441786 -0.215769 0)
(-0.0001916 0.124609 0)
(-0.00131292 0.141896 0)
(-0.00332476 0.137773 0)
(-0.00414378 0.123775 0)
(-0.00503998 0.105338 0)
(-0.00584237 0.0858634 0)
(-0.00660041 0.0670411 0)
(-0.0073146 0.0495054 0)
(-0.0079334 0.0331916 0)
(-0.00843052 0.0176958 0)
(-0.00877395 0.00251323 0)
(-0.00893377 -0.0128378 0)
(-0.00889433 -0.0287567 0)
(-0.00866082 -0.0455633 0)
(-0.00838766 -0.0635707 0)
(-0.00802583 -0.0836467 0)
(-0.00914988 -0.107712 0)
(-0.00770915 -0.14003 0)
(-0.0124493 -0.18121 0)
(-0.00188324 -0.2254 0)
(0.00209662 0.123048 0)
(0.00466761 0.141686 0)
(0.00586417 0.137575 0)
(0.0070623 0.123882 0)
(0.00753389 0.105619 0)
(0.00771524 0.0863164 0)
(0.00761348 0.0675842 0)
(0.0073166 0.0500598 0)
(0.00690611 0.0337185 0)
(0.00642153 0.0181832 0)
(0.00587989 0.00295704 0)
(0.0052813 -0.0124424 0)
(0.00459889 -0.0284042 0)
(0.00382823 -0.0452208 0)
(0.00276344 -0.0630924 0)
(0.0017009 -0.0827134 0)
(-0.00170771 -0.106357 0)
(-0.00140907 -0.138392 0)
(-0.0100421 -0.181193 0)
(-9.82279e-05 -0.232626 0)
(0.00414771 0.118265 0)
(0.0105925 0.138557 0)
(0.0143178 0.135456 0)
(0.0177651 0.122815 0)
(0.0198365 0.104949 0)
(0.0211594 0.0860666 0)
(0.0218738 0.0676415 0)
(0.0221165 0.0503267 0)
(0.0220007 0.0341464 0)
(0.0215814 0.0187713 0)
(0.0208625 0.00373361 0)
(0.0198232 -0.0114445 0)
(0.0183868 -0.0271474 0)
(0.0165635 -0.0436633 0)
(0.0141024 -0.0611141 0)
(0.0112874 -0.0800331 0)
(0.00561263 -0.102891 0)
(0.00482716 -0.134342 0)
(-0.0081212 -0.178922 0)
(0.00263947 -0.237371 0)
(0.00643717 0.108766 0)
(0.016076 0.131622 0)
(0.0228283 0.129873 0)
(0.028179 0.119153 0)
(0.0320898 0.102496 0)
(0.0347177 0.0845382 0)
(0.0364297 0.0668327 0)
(0.0373786 0.0500647 0)
(0.0376849 0.0343372 0)
(0.0374139 0.0193948 0)
(0.0365551 0.00482788 0)
(0.0350838 -0.00981641 0)
(0.0328566 -0.0249059 0)
(0.0299297 -0.0407545 0)
(0.025873 -0.0574475 0)
(0.0212675 -0.075542 0)
(0.0133068 -0.0971549 0)
(0.0109703 -0.128076 0)
(-0.0064353 -0.174763 0)
(0.0056915 -0.24 0)
(0.00834882 0.0955706 0)
(0.0210066 0.122734 0)
(0.0305032 0.123348 0)
(0.0380302 0.114238 0)
(0.0440356 0.0990765 0)
(0.0483338 0.0821974 0)
(0.0513466 0.0653869 0)
(0.0532577 0.0493745 0)
(0.0541817 0.0343295 0)
(0.0541945 0.02007 0)
(0.0532665 0.00625867 0)
(0.0513901 -0.0075293 0)
(0.0483257 -0.0216304 0)
(0.0442498 -0.0364002 0)
(0.0384216 -0.0519551 0)
(0.0319804 -0.0688822 0)
(0.0214774 -0.0890597 0)
(0.0174172 -0.119794 0)
(-0.00435375 -0.16896 0)
(0.0100391 -0.240719 0)
(0.0101438 0.0787449 0)
(0.0253133 0.109039 0)
(0.0372888 0.112555 0)
(0.0472233 0.105595 0)
(0.0555005 0.0926614 0)
(0.061841 0.0775717 0)
(0.0665059 0.0622389 0)
(0.0696869 0.0475037 0)
(0.0714738 0.0336189 0)
(0.0719623 0.0204812 0)
(0.0710797 0.00784761 0)
(0.06887 -0.00466885 0)
(0.0649439 -0.0173209 0)
(0.059725 -0.030542 0)
(0.0519814 -0.0444866 0)
(0.0436995 -0.0599493 0)
(0.0302971 -0.078548 0)
(0.0245317 -0.109279 0)
(-0.00194522 -0.161393 0)
(0.0151739 -0.240228 0)
(0.0102817 0.0593387 0)
(0.0275134 0.0952303 0)
(0.0417074 0.101722 0)
(0.0542962 0.0964774 0)
(0.0654052 0.085427 0)
(0.0744174 0.0721074 0)
(0.0812717 0.0583645 0)
(0.0861481 0.0450948 0)
(0.0891288 0.0326173 0)
(0.090363 0.0208776 0)
(0.0897025 0.00974155 0)
(0.0873424 -0.00118003 0)
(0.0826239 -0.0119715 0)
(0.0764053 -0.0232088 0)
(0.0667251 -0.0350477 0)
(0.0567675 -0.0487234 0)
(0.0402591 -0.0654795 0)
(0.0330297 -0.0965733 0)
(0.00124245 -0.151829 0)
(0.0219366 -0.237463 0)
(0.00887188 0.039876 0)
(0.0267246 0.0747796 0)
(0.043365 0.0836628 0)
(0.0589637 0.0810017 0)
(0.0732329 0.0726949 0)
(0.0853761 0.0621208 0)
(0.0948983 0.0508783 0)
(0.101877 0.039897 0)
(0.106343 0.0296169 0)
(0.108606 0.0200047 0)
(0.10833 0.0110299 0)
(0.106147 0.00230117 0)
(0.100907 -0.00615857 0)
(0.0942152 -0.0149279 0)
(0.0830193 -0.0240407 0)
(0.072107 -0.0354965 0)
(0.0527711 -0.0498054 0)
(0.0446711 -0.0815173 0)
(0.00646749 -0.139972 0)
(0.0310201 -0.229204 0)
(-0.00204258 0.0246663 0)
(0.0183149 0.0605185 0)
(0.0379328 0.0685927 0)
(0.0576349 0.066867 0)
(0.0759833 0.0604484 0)
(0.0918068 0.0522394 0)
(0.104505 0.043687 0)
(0.114193 0.0351407 0)
(0.120729 0.027131 0)
(0.124726 0.0197304 0)
(0.125562 0.0130133 0)
(0.124478 0.00666045 0)
(0.119806 0.000764138 0)
(0.114225 -0.00546715 0)
(0.10311 -0.0117171 0)
(0.0931281 -0.020569 0)
(0.0723475 -0.0321664 0)
(0.064452 -0.0639903 0)
(0.0194908 -0.122932 0)
(0.0464779 -0.205751 0)
(-0.0151454 0.0295445 0)
(-0.00136781 0.0285408 0)
(0.0261414 0.034051 0)
(0.0520415 0.0355384 0)
(0.0754033 0.0335533 0)
(0.0957794 0.0295194 0)
(0.112657 0.0249191 0)
(0.126252 0.0204598 0)
(0.13618 0.0163169 0)
(0.143364 0.0124374 0)
(0.147121 0.00905293 0)
(0.148915 0.00565847 0)
(0.147128 0.0028403 0)
(0.144198 -0.0009147 0)
(0.136153 -0.00404631 0)
(0.12957 -0.0103685 0)
(0.111906 -0.019331 0)
(0.105754 -0.046974 0)
(0.0591092 -0.0937538 0)
(0.0779848 -0.156313 0)
(0.0394229 0.0382484 0)
(0.0456874 0.0274652 0)
(0.0700709 0.0248144 0)
(0.100543 0.0250944 0)
(0.127352 0.0242261 0)
(0.152179 0.0222627 0)
(0.174053 0.0197254 0)
(0.193454 0.0174263 0)
(0.209204 0.0151032 0)
(0.222716 0.0132292 0)
(0.232759 0.0112766 0)
(0.241137 0.00983196 0)
(0.246304 0.00808376 0)
(0.250142 0.00685582 0)
(0.250773 0.00488819 0)
(0.248254 0.00222059 0)
(0.239005 0.00190099 0)
(0.223421 -0.0102607 0)
(0.172882 -0.0133653 0)
(0.145799 -0.0650494 0)
)
;

boundaryField
{
    movingWall
    {
        type            fixedValue;
        value           uniform (1 0 0);
    }
    fixedWalls
    {
        type            noSlip;
    }
    frontAndBack
    {
        type            empty;
    }
}


// ************************************************************************* //
