/*--------------------------------*- C++ -*----------------------------------*\
  =========                 |
  \\      /  F ield         | OpenFOAM: The Open Source CFD Toolbox
   \\    /   O peration     | Website:  https://openfoam.org
    \\  /    A nd           | Version:  13
     \\/     M anipulation  |
\*---------------------------------------------------------------------------*/
FoamFile
{
    format      ascii;
    class       volScalarField;
    location    "7.5";
    object      k;
}
// * * * * * * * * * * * * * * * * * * * * * * * * * * * * * * * * * * * * * //

dimensions      [0 2 -2 0 0 0 0];

internalField   nonuniform List<scalar> 
6400
(
5.48005e-07
2.81463e-06
6.83658e-06
1.10158e-05
1.41708e-05
1.59474e-05
1.66006e-05
1.66765e-05
1.67912e-05
1.74295e-05
1.89608e-05
2.19316e-05
2.66115e-05
3.30907e-05
4.10292e-05
4.99843e-05
5.94965e-05
6.93776e-05
7.91636e-05
8.86166e-05
9.81027e-05
0.000108444
0.000120732
0.000135626
0.000152522
0.000169617
0.000186586
0.000203433
0.00022067
0.000238764
0.000257479
0.000276166
0.00029453
0.00031261
0.000330884
0.000349452
0.000368711
0.000388778
0.000409906
0.000432159
0.000455701
0.000480711
0.000507335
0.000535895
0.000566601
0.000600484
0.000639468
0.00068768
0.000736788
0.000786651
0.000835625
0.000883211
0.000927959
0.000968606
0.00100367
0.00103137
0.00104581
0.00105157
0.00105034
0.00103078
0.00099583
0.000945446
0.000880224
0.000802588
0.000714354
0.000619813
0.000523576
0.000429458
0.00034094
0.000261939
0.00019776
0.000143885
0.000100356
6.70515e-05
4.30787e-05
2.67495e-05
1.61013e-05
9.24334e-06
4.36913e-06
9.30515e-07
2.64998e-06
2.22832e-05
5.40524e-05
8.45219e-05
0.000107073
0.000120542
0.000127002
0.000129692
0.000132168
0.000137522
0.000149225
0.000171172
0.000204506
0.00024856
0.000301234
0.000359831
0.000421953
0.000485199
0.000547764
0.000608992
0.000670934
0.000737997
0.000815691
0.000906564
0.00100677
0.00110741
0.00120531
0.00129859
0.00138814
0.00147499
0.00155741
0.00163429
0.00170426
0.0017681
0.00182828
0.00188559
0.00194207
0.00199854
0.00205636
0.00211607
0.0021784
0.00224403
0.00231305
0.00238571
0.00246136
0.00253992
0.00261972
0.00269792
0.00278102
0.00286666
0.00295472
0.00304198
0.0031268
0.00320553
0.00327484
0.0033306
0.00336106
0.00337115
0.00336137
0.00331798
0.00323701
0.00311798
0.00295925
0.00276401
0.00253692
0.00228621
0.00202328
0.00175654
0.00149365
0.00123942
0.000997153
0.00077673
0.00058485
0.000424188
0.000295686
0.000197404
0.000126091
7.59829e-05
3.68453e-05
4.92193e-06
5.79536e-06
4.83547e-05
0.000112434
0.000166222
0.000202864
0.000224525
0.000236541
0.000244858
0.000255475
0.000274305
0.000307137
0.000358705
0.000430662
0.000521156
0.000626137
0.000741385
0.000863622
0.000990164
0.00111847
0.0012464
0.00137237
0.00149564
0.00161415
0.00172271
0.00181645
0.00189149
0.00194521
0.00198269
0.00201158
0.00203882
0.0020687
0.00210038
0.00213472
0.00216887
0.00220669
0.00224716
0.00229212
0.00234142
0.00239611
0.00245619
0.00252149
0.00259261
0.00266902
0.00275085
0.00283803
0.00293046
0.00302728
0.00312989
0.00323799
0.00335009
0.00346515
0.00358096
0.00369535
0.003805
0.00390617
0.00399413
0.0040637
0.00410283
0.00411514
0.00409849
0.00403741
0.00393124
0.00377551
0.00357216
0.00332349
0.00303673
0.00272842
0.0024075
0.00208432
0.00176938
0.00147166
0.00119793
0.00095328
0.000740135
0.000559492
0.000410587
0.000290131
0.000190551
9.6858e-05
1.31661e-05
1.00636e-05
8.12768e-05
0.000176765
0.000248598
0.000295659
0.000324887
0.000344713
0.000363594
0.000389864
0.000431671
0.000496268
0.000588099
0.000706893
0.000847884
0.00100421
0.00116933
0.00133749
0.00150312
0.00166021
0.00180299
0.00192586
0.00202687
0.00210346
0.00214859
0.00216786
0.00217241
0.00216752
0.00216435
0.00216356
0.00216843
0.00217897
0.00219275
0.00221167
0.00223539
0.00226446
0.00229852
0.00233824
0.00238347
0.00243421
0.00249075
0.00255307
0.00262145
0.00269575
0.00277595
0.00286167
0.00295318
0.00305146
0.00315621
0.00326705
0.00338311
0.00350342
0.00362635
0.00374983
0.00387103
0.00398641
0.00409152
0.00418117
0.00424841
0.00428103
0.00428786
0.00425313
0.00417374
0.00405069
0.0038789
0.00365408
0.00337699
0.00306452
0.00272713
0.00238048
0.00203883
0.00171435
0.00141592
0.00114878
0.000915018
0.000714723
0.000546299
0.000405366
0.000282269
0.000153718
2.19213e-05
1.61458e-05
0.000125321
0.000253061
0.000342196
0.00039985
0.000438084
0.000468739
0.00050312
0.000552077
0.000625535
0.000730654
0.000869295
0.00103687
0.00122411
0.00142027
0.00161517
0.0017995
0.00196445
0.00210091
0.00220467
0.00226495
0.00228834
0.0022903
0.00226032
0.0022298
0.00220237
0.00218004
0.00216487
0.00215767
0.00215533
0.00215663
0.00216337
0.0021747
0.00219029
0.00221005
0.00223392
0.00226178
0.00229333
0.00232856
0.00236768
0.00241072
0.00245812
0.00251063
0.002569
0.00263411
0.00270618
0.00278483
0.00287058
0.00296362
0.00306403
0.00317165
0.00328595
0.00340596
0.00353016
0.00365643
0.00378149
0.00390073
0.00400863
0.00409855
0.00415515
0.00417615
0.00415799
0.004082
0.00395057
0.00377146
0.00353603
0.00324257
0.00290953
0.0025542
0.00219511
0.0018496
0.00153114
0.00124765
0.00100174
0.000792617
0.000617197
0.000469638
0.000337746
0.000192275
2.79687e-05
2.48339e-05
0.000183821
0.000345823
0.000453096
0.000522794
0.000572344
0.000617396
0.000672374
0.000750309
0.000861378
0.00101016
0.00119344
0.00140075
0.00161759
0.00182886
0.00202064
0.00218085
0.00230222
0.00236751
0.00238913
0.00237665
0.00233165
0.00228688
0.00224299
0.00220222
0.00216666
0.00213756
0.00211454
0.0020961
0.0020813
0.00206915
0.0020618
0.00205807
0.00205675
0.00205715
0.00206112
0.00206726
0.00207622
0.00208798
0.00210302
0.00212159
0.00214433
0.00217112
0.0022025
0.00223899
0.00228111
0.0023296
0.00238545
0.00244962
0.00252324
0.00260729
0.00270258
0.00280968
0.00292849
0.00305796
0.00319646
0.00334152
0.0034884
0.00363143
0.00376123
0.00386894
0.00392721
0.00394422
0.0039028
0.00379526
0.00362541
0.00337651
0.00306565
0.00271056
0.00233454
0.00196226
0.00161512
0.00130731
0.00104442
0.00082531
0.000644773
0.000494542
0.000359989
0.000209338
3.01866e-05
3.69001e-05
0.000258723
0.000457405
0.000584159
0.000667615
0.000730951
0.000793861
0.000873606
0.000984115
0.00113346
0.00132107
0.00153704
0.0017647
0.00198481
0.00217922
0.00233282
0.00242616
0.00246123
0.00245935
0.00241021
0.00235673
0.00229374
0.00223286
0.0021718
0.00211773
0.00207096
0.00203025
0.00199371
0.0019607
0.00193176
0.00190692
0.00188486
0.00186506
0.00184729
0.00183168
0.00181854
0.00180757
0.00179916
0.00179359
0.00179103
0.00179037
0.0017929
0.00179888
0.00180836
0.001822
0.00184002
0.00186331
0.00189257
0.00192901
0.00197406
0.00202958
0.00209759
0.00218038
0.00228019
0.00239838
0.00253478
0.0026913
0.0028643
0.00304846
0.00323686
0.0034216
0.00358706
0.003709
0.0037622
0.00376548
0.00367982
0.00351977
0.00325636
0.00291656
0.00252681
0.0021199
0.00172852
0.00137837
0.00108293
0.000842991
0.000651434
0.000495644
0.000358617
0.000208232
2.9317e-05
5.30604e-05
0.000351069
0.000588465
0.000736055
0.000834874
0.000914055
0.000997159
0.00110333
0.00124542
0.00142696
0.00164058
0.00186945
0.00209159
0.00228476
0.00243094
0.00250339
0.00252243
0.00249178
0.00243639
0.00236064
0.002277
0.0021893
0.00211135
0.00204117
0.0019814
0.00192659
0.00187672
0.00183048
0.00178794
0.00174893
0.00171313
0.00168012
0.00164996
0.00162268
0.00159843
0.00157721
0.00155879
0.00154324
0.00153055
0.00152066
0.00151357
0.00151008
0.00150889
0.00151021
0.00151584
0.00152467
0.00153782
0.00155548
0.00157829
0.00160674
0.00164181
0.0016846
0.00173677
0.00180081
0.0018809
0.00198332
0.00211155
0.00227104
0.00246178
0.00267446
0.00290663
0.00314369
0.00337002
0.00356145
0.00366391
0.00369309
0.00363775
0.00348017
0.00318838
0.00280493
0.00236745
0.00192059
0.00150653
0.00115454
0.000874557
0.000659145
0.000491434
0.000350131
0.000201514
2.72556e-05
7.38189e-05
0.00046067
0.000738376
0.000907882
0.00102317
0.00111912
0.00122256
0.00135306
0.00152036
0.00172183
0.00194297
0.00216128
0.00235194
0.00248804
0.00254873
0.00255737
0.00251346
0.0024453
0.00234866
0.00223779
0.00213458
0.00204347
0.00196227
0.00188911
0.00182322
0.00176172
0.00170499
0.00165239
0.00160421
0.00156033
0.00152073
0.0014854
0.00145436
0.00142749
0.00140459
0.00138546
0.00136989
0.00135766
0.00134849
0.00134232
0.00133935
0.00133839
0.00133944
0.00134385
0.00135087
0.00136054
0.00137314
0.00138877
0.0014077
0.00143023
0.00145683
0.00148807
0.00152468
0.00156769
0.00161856
0.00167963
0.00175446
0.00184971
0.00197766
0.00215638
0.0023822
0.00264506
0.00292873
0.00321371
0.00346959
0.00362425
0.00367705
0.0036486
0.00348657
0.0031538
0.00271437
0.00221985
0.00172932
0.00129477
0.000945684
0.000684553
0.000492421
0.000337412
0.000188001
2.49294e-05
9.93735e-05
0.000585858
0.000905161
0.00109736
0.00122928
0.00134115
0.00146213
0.00161077
0.00179216
0.00199705
0.00220489
0.00238987
0.00251929
0.00257335
0.00257715
0.00253073
0.00244509
0.00232459
0.00219721
0.00208166
0.00197784
0.00188572
0.00180236
0.00172626
0.00165646
0.001592
0.00153346
0.00148068
0.00143401
0.0013933
0.00135848
0.00132929
0.00130535
0.00128623
0.00127141
0.00126036
0.00125258
0.00124803
0.00124603
0.00124556
0.00124745
0.00125122
0.00125685
0.00126443
0.00127378
0.00128502
0.00129828
0.00131372
0.00133157
0.00135202
0.00137529
0.00140165
0.00143145
0.0014651
0.00150305
0.00154603
0.00159553
0.00165425
0.00172725
0.00182346
0.00195832
0.00216279
0.00244018
0.00276067
0.00310148
0.00342097
0.00362846
0.00370324
0.00369087
0.00351275
0.00312677
0.00262135
0.00206562
0.00153484
0.0010882
0.000749603
0.000509605
0.000333148
0.000175891
2.3029e-05
0.00013016
0.000722896
0.00108572
0.00130089
0.00144831
0.00157309
0.00170584
0.00186292
0.0020442
0.0022345
0.00240932
0.00253358
0.00258443
0.0025862
0.00253943
0.00243948
0.00230196
0.00216327
0.00203382
0.00191923
0.00181658
0.00172443
0.00164053
0.00156426
0.00149533
0.0014338
0.00138012
0.00133415
0.00129579
0.00126454
0.0012398
0.0012208
0.00120675
0.00119686
0.00119045
0.00118731
0.00118618
0.00118626
0.00118885
0.0011925
0.0011978
0.00120436
0.00121236
0.00122176
0.00123266
0.00124518
0.00125947
0.00127565
0.00129386
0.00131421
0.00133683
0.00136184
0.00138937
0.00141961
0.00145287
0.00148933
0.00152901
0.00157261
0.00162168
0.00167973
0.00175461
0.00186062
0.00202241
0.0022842
0.00263423
0.00302073
0.0034043
0.00366118
0.00375431
0.00374466
0.00353317
0.00308081
0.00250204
0.00188764
0.00132802
0.000882529
0.00056227
0.000343682
0.000172894
2.24067e-05
0.000167636
0.000867278
0.00127636
0.00151373
0.00167403
0.00180668
0.00194302
0.00209666
0.00226263
0.00242147
0.00253961
0.00258896
0.00259055
0.00254444
0.00243621
0.0022878
0.00213705
0.00199608
0.00186971
0.00175799
0.00165771
0.00156768
0.00148682
0.00141523
0.00135301
0.00130026
0.00125683
0.00122205
0.00119511
0.00117493
0.00116041
0.00115048
0.00114423
0.00114116
0.00114
0.00113992
0.0011417
0.00114446
0.00114852
0.00115345
0.00115957
0.0011668
0.00117533
0.00118527
0.00119678
0.00121004
0.00122523
0.00124251
0.00126202
0.00128388
0.00130816
0.00133487
0.00136393
0.00139519
0.00142845
0.00146355
0.0015005
0.00153968
0.00158101
0.00162485
0.00167389
0.00173444
0.00182018
0.00195511
0.00218051
0.00254282
0.00296911
0.00341413
0.00371063
0.0038151
0.00379091
0.00352274
0.00298976
0.00233471
0.00167365
0.0011036
0.000674421
0.000382037
0.00018055
2.3253e-05
0.000209283
0.00101919
0.00147298
0.00173043
0.00189962
0.00203356
0.00216385
0.00230152
0.00243795
0.00254627
0.00259369
0.00259589
0.00255058
0.00244003
0.00228497
0.00212253
0.00196972
0.00183237
0.00171103
0.00160368
0.0015081
0.00142384
0.0013506
0.00128856
0.0012375
0.00119684
0.00116555
0.00114229
0.00112567
0.00111426
0.00110683
0.00110247
0.00110037
0.00109961
0.00109952
0.00110058
0.00110255
0.00110523
0.0011088
0.00111324
0.0011188
0.00112558
0.00113377
0.00114356
0.00115515
0.00116874
0.00118452
0.00120268
0.00122343
0.0012469
0.00127323
0.00130244
0.00133449
0.00136918
0.00140613
0.00144479
0.00148451
0.00152467
0.00156503
0.00160613
0.00164768
0.00169111
0.00174224
0.00181331
0.00192817
0.00212986
0.0024847
0.00294917
0.0034479
0.00376774
0.00387125
0.00381048
0.00345597
0.0028274
0.0021044
0.00141687
0.000860849
0.000467899
0.000207294
2.67482e-05
0.000253901
0.00117497
0.00167063
0.00194513
0.00211831
0.00224615
0.00236045
0.00247042
0.00256282
0.00260545
0.00260761
0.00256188
0.00245323
0.00229484
0.00212257
0.0019572
0.00180839
0.00167731
0.00156244
0.00146176
0.00137417
0.00129957
0.00123769
0.00118808
0.00114967
0.00112101
0.00110036
0.00108597
0.00107625
0.00106987
0.00106576
0.00106316
0.00106152
0.00106055
0.00106014
0.00106011
0.00106089
0.00106232
0.00106469
0.00106808
0.00107271
0.00107874
0.00108638
0.00109582
0.00110724
0.00112085
0.00113685
0.00115546
0.00117691
0.0012014
0.00122914
0.00126028
0.0012949
0.00133293
0.00137411
0.00141793
0.00146351
0.0015097
0.00155518
0.0015989
0.00164079
0.00168162
0.00172138
0.0017655
0.00182669
0.00192932
0.00211887
0.0024635
0.00296228
0.00350645
0.00382339
0.00390764
0.00378521
0.00330149
0.00257776
0.00180225
0.00111977
0.000609377
0.00026486
3.50705e-05
0.000300032
0.0013305
0.00186421
0.00215214
0.002324
0.00243838
0.00252758
0.00259881
0.0026318
0.00263155
0.0025826
0.00247792
0.00231893
0.0021389
0.00196105
0.00179937
0.00165762
0.00153448
0.00142801
0.00133679
0.00126024
0.00119797
0.001149
0.00111194
0.00108483
0.00106562
0.00105228
0.00104309
0.00103663
0.00103189
0.00102815
0.001025
0.00102223
0.00101981
0.00101779
0.00101643
0.00101586
0.00101578
0.00101696
0.00101941
0.00102324
0.00102866
0.00103583
0.00104491
0.00105608
0.00106953
0.00108545
0.00110407
0.00112562
0.00115036
0.00117858
0.00121053
0.00124647
0.00128653
0.00133072
0.00137879
0.00143011
0.00148356
0.00153746
0.0015897
0.00163812
0.00168158
0.00172035
0.00175681
0.00179786
0.00185226
0.00194909
0.0021327
0.00248034
0.00301257
0.0035865
0.00386611
0.00391174
0.0036879
0.00304542
0.00222739
0.00143406
0.000798525
0.000350835
4.82574e-05
0.000346265
0.00148182
0.00204904
0.00234648
0.00251155
0.00260592
0.00266034
0.00268205
0.00267293
0.00261777
0.00251668
0.00235887
0.00217313
0.00198333
0.00180743
0.00165306
0.00152023
0.00140669
0.00131075
0.00123132
0.00116755
0.0011182
0.00108137
0.00105478
0.001036
0.00102282
0.00101334
0.00100615
0.00100025
0.000995011
0.000990101
0.000985406
0.000980955
0.000976873
0.000973325
0.0009705
0.00096875
0.000968046
0.000968064
0.000969921
0.000973247
0.000978258
0.000985099
0.000993897
0.00100481
0.001018
0.00103365
0.00105196
0.00107318
0.00109759
0.0011255
0.00115724
0.0011932
0.00123371
0.00127905
0.00132934
0.0013844
0.00144359
0.00150558
0.00156824
0.00162858
0.00168317
0.0017302
0.00176832
0.00179653
0.00183353
0.00188715
0.00198188
0.00216819
0.00253462
0.00310928
0.00366844
0.00390086
0.00387316
0.00345994
0.00266155
0.00178376
0.00102374
0.000457836
6.51504e-05
0.000391767
0.00162449
0.00222131
0.00252493
0.00267644
0.00274077
0.00275677
0.00273562
0.00267197
0.00257294
0.00241651
0.00222686
0.00202606
0.0018349
0.00166547
0.00152051
0.00139803
0.00129571
0.00121194
0.00114536
0.00109435
0.00105665
0.00102959
0.00101043
0.000996726
0.000986472
0.000978195
0.00097092
0.000964074
0.000957396
0.000950836
0.000944477
0.000938477
0.000933026
0.000928317
0.000924532
0.000921926
0.000920694
0.000920371
0.000921705
0.000924783
0.000929546
0.00093617
0.000944747
0.000955414
0.00096831
0.000983598
0.00100147
0.00102215
0.0010459
0.00107304
0.00110395
0.00113904
0.00117879
0.00122368
0.00127412
0.00133039
0.00139244
0.00145964
0.00153054
0.00160255
0.00167179
0.00173337
0.00178489
0.00182304
0.00184205
0.00187411
0.00192854
0.00202547
0.00222338
0.00262334
0.00324313
0.00374629
0.00390958
0.00374055
0.00307661
0.00215517
0.00127603
0.000579597
8.4687e-05
0.000435486
0.00175733
0.00237787
0.0026802
0.00281189
0.00284747
0.00282739
0.00275807
0.00264925
0.00249445
0.00230179
0.00209122
0.00188431
0.00169735
0.00153704
0.00140285
0.00129192
0.00120191
0.00113092
0.00107684
0.00103709
0.00100862
0.000988382
0.000973676
0.000962334
0.000952814
0.000944124
0.000935723
0.000927392
0.000919126
0.000911046
0.000903333
0.000896185
0.000889798
0.000884347
0.000879988
0.0008769
0.00087539
0.000874921
0.000875931
0.000878858
0.000883452
0.000889895
0.000898267
0.000908687
0.000921277
0.000936184
0.000953578
0.000973661
0.000996678
0.00102292
0.00105276
0.00108661
0.00112498
0.00116846
0.00121766
0.00127317
0.00133545
0.00140459
0.00148005
0.00156023
0.00164207
0.00172073
0.00178963
0.00184575
0.00187801
0.00189227
0.00191875
0.00197534
0.00207956
0.00230094
0.0027592
0.00342191
0.00379357
0.00384726
0.00344591
0.00253837
0.00155141
0.000712208
0.000105942
0.000475811
0.00187691
0.00251347
0.00280959
0.00291927
0.00293089
0.00286848
0.0027517
0.00259724
0.00240017
0.00218083
0.00195835
0.0017518
0.0015725
0.00142287
0.00130036
0.00120174
0.00112434
0.00106558
0.00102247
0.00099163
0.000969663
0.000953554
0.00094093
0.000930114
0.000920064
0.00091023
0.000900413
0.000890633
0.000881031
0.000871802
0.000863148
0.000855261
0.000848308
0.000842432
0.000837757
0.000834393
0.000832717
0.000832157
0.000832929
0.000835698
0.000840117
0.000846355
0.000854495
0.000864641
0.000876909
0.000891432
0.000908364
0.000927886
0.000950215
0.000975615
0.00100441
0.00103699
0.00107386
0.0011156
0.00116291
0.00121655
0.00127731
0.00134583
0.00142239
0.0015065
0.00159642
0.00168855
0.00177695
0.00185329
0.00191008
0.00193461
0.00194465
0.00196667
0.00202741
0.00214559
0.00241083
0.00295499
0.0035861
0.00383646
0.00368002
0.00291207
0.00184606
0.000853089
0.000128219
0.000511283
0.00198022
0.00262605
0.00291304
0.00300353
0.00298839
0.00288434
0.00272725
0.00252561
0.00229718
0.00205968
0.0018323
0.0016305
0.00146097
0.00132291
0.00121259
0.00112635
0.00106097
0.001013
0.000978705
0.000954288
0.000936372
0.000922291
0.00091017
0.00089885
0.000887733
0.000876607
0.0008655
0.000854562
0.000843991
0.000833993
0.000824751
0.000816423
0.00080914
0.000803012
0.00079813
0.000794575
0.000792721
0.000792061
0.000792572
0.000795118
0.000799301
0.000805272
0.000813121
0.000822948
0.000834865
0.000848997
0.000865487
0.000884499
0.000906227
0.000930901
0.000958806
0.000990293
0.0010258
0.00106588
0.00111122
0.00116262
0.00122104
0.00128744
0.0013627
0.00144726
0.00154067
0.00164088
0.00174354
0.00184127
0.00192358
0.00197654
0.00199235
0.00199761
0.00201772
0.00208479
0.00222869
0.00256879
0.00320202
0.00367512
0.00376306
0.00325637
0.00215462
0.000997463
0.000151496
0.000541092
0.00206606
0.00271517
0.00299132
0.00306602
0.00302108
0.00287811
0.00267951
0.00244329
0.00219101
0.00194245
0.00171538
0.00152121
0.00136261
0.00123653
0.00113837
0.00106396
0.0010093
0.000970204
0.00094245
0.000922225
0.000906468
0.00089301
0.000880506
0.00086825
0.000855986
0.000843725
0.000831614
0.000819855
0.000808647
0.000798169
0.000788569
0.000779968
0.000772463
0.000766137
0.000761061
0.0007573
0.000755195
0.000754393
0.000754577
0.000756804
0.00076067
0.000766299
0.000773789
0.00078324
0.000794765
0.000808487
0.000824543
0.000843083
0.000864285
0.000888354
0.000915536
0.000946137
0.000980539
0.00101923
0.00106282
0.00111211
0.00116804
0.00123174
0.00130443
0.00138722
0.00148073
0.00158444
0.00169586
0.00180947
0.00191571
0.00199978
0.00204109
0.00204963
0.00205051
0.00207109
0.00214988
0.0023403
0.00280336
0.00346065
0.00373383
0.00350572
0.00246638
0.00114356
0.000175482
0.000564806
0.00213444
0.00278188
0.00304626
0.0031063
0.00303179
0.00285731
0.00262003
0.00235522
0.00208571
0.00183176
0.00160869
0.00142391
0.0012768
0.00116264
0.00107614
0.00101244
0.000966817
0.000934553
0.000911312
0.000893535
0.000878642
0.000864999
0.000851726
0.000838474
0.000825213
0.000812076
0.000799259
0.000786958
0.000775346
0.000764565
0.000754726
0.000745916
0.00073821
0.000731672
0.000726362
0.000722341
0.00071987
0.00071882
0.000718701
0.000720478
0.00072395
0.000729165
0.000736231
0.000745251
0.00075634
0.000769623
0.000785233
0.000803318
0.00082404
0.000847588
0.000874181
0.000904083
0.000937623
0.00097522
0.00101741
0.00106491
0.0011186
0.00117962
0.00124932
0.00132918
0.00142056
0.00152422
0.00163951
0.00176324
0.00188849
0.00200356
0.00207944
0.00210462
0.00210633
0.00210004
0.00212765
0.0022296
0.00250452
0.00310897
0.00356845
0.0036126
0.00278086
0.00130463
0.000201948
0.000582346
0.00218603
0.00282759
0.00307972
0.00312626
0.00302543
0.00281876
0.00255234
0.00226518
0.00198412
0.00172911
0.00151254
0.0013381
0.00120254
0.00109987
0.00102409
0.000969667
0.000931287
0.000904005
0.000883646
0.000867084
0.000852272
0.000838061
0.000823946
0.000809821
0.000795787
0.000782029
0.000768739
0.000756087
0.000744208
0.000733207
0.000723164
0.000714147
0.000706212
0.000699416
0.000693816
0.000689473
0.000686523
0.000685114
0.000684749
0.000685968
0.00068898
0.000693724
0.000700312
0.000708851
0.000719463
0.000732272
0.000747414
0.000765034
0.000785292
0.000808364
0.000834449
0.000863784
0.000896653
0.000933417
0.000974537
0.00102062
0.00107248
0.00113115
0.00119798
0.00127459
0.00136277
0.00146413
0.00157945
0.00170754
0.00184375
0.0019783
0.00209512
0.00215714
0.00216883
0.00215559
0.00214301
0.00218944
0.00234052
0.00277774
0.00340835
0.00362887
0.00308857
0.00150546
0.000236075
0.000594002
0.00222183
0.00285332
0.00309199
0.00312569
0.00300581
0.00277062
0.00248004
0.00217603
0.00188807
0.00163521
0.00142672
0.00126299
0.00113867
0.00104672
0.000980465
0.000933756
0.000900939
0.000877101
0.000858422
0.000842286
0.000827146
0.000812256
0.000797381
0.000782565
0.000767973
0.00075379
0.000740184
0.000727289
0.000715203
0.000704003
0.000693749
0.000684493
0.000676285
0.000669178
0.000663229
0.0006585
0.000655059
0.000653214
0.000652579
0.000653202
0.000655705
0.000659938
0.000666011
0.000674033
0.00068413
0.00069643
0.000711072
0.000728205
0.000747987
0.000770589
0.000796202
0.000825042
0.000857364
0.00089348
0.000933787
0.000978805
0.00102923
0.00108599
0.00115034
0.00122388
0.00130859
0.00140661
0.00151985
0.00164903
0.00179224
0.00194297
0.00208825
0.00219142
0.00222883
0.00222927
0.00219594
0.00218458
0.00226258
0.00252068
0.00313366
0.00351471
0.003329
0.00176002
0.000282098
0.000599786
0.00224218
0.00286021
0.00308865
0.00311434
0.00297148
0.00271532
0.00240589
0.00208984
0.0017987
0.00155023
0.00135069
0.00119761
0.00108394
0.00100172
0.000943655
0.00090316
0.00087446
0.000852881
0.000835061
0.000818891
0.000803257
0.000787721
0.000772226
0.000756897
0.000741912
0.000727436
0.000713603
0.000700512
0.000688234
0.000676824
0.000666331
0.000656799
0.000648278
0.00064082
0.000634484
0.000629332
0.000625433
0.000623078
0.000622142
0.000622196
0.000624153
0.000627854
0.000633389
0.000640869
0.000650422
0.000662181
0.00067629
0.000692901
0.000712176
0.000734288
0.000759424
0.000787792
0.000819626
0.000855208
0.000894881
0.000939091
0.000988434
0.00104372
0.00110605
0.00117693
0.0012583
0.00135255
0.00146222
0.00158934
0.00173409
0.00189278
0.00205538
0.00220351
0.00228408
0.00229923
0.00227021
0.0022305
0.00223858
0.00238217
0.0028545
0.00337742
0.00344196
0.00206408
0.000339738
0.000599414
0.00224986
0.00285529
0.00307412
0.00308828
0.00292825
0.00265554
0.00233205
0.00200806
0.00171658
0.001474
0.00128375
0.00114095
0.00103711
0.000963512
0.000912316
0.000876687
0.000850936
0.000830754
0.000813269
0.000796832
0.000780679
0.000764589
0.000748614
0.000732912
0.000717646
0.000702954
0.000688935
0.00067566
0.000663181
0.00065154
0.000640781
0.000630949
0.000622092
0.000614267
0.000607536
0.000601969
0.000597641
0.00059472
0.000593349
0.000593048
0.000594402
0.000597563
0.000602552
0.000609477
0.000618466
0.000629657
0.000643199
0.00065925
0.000677977
0.000699559
0.000724186
0.000752064
0.000783421
0.000818517
0.00085766
0.00090124
0.000949764
0.00100393
0.00106469
0.0011334
0.00121189
0.00130258
0.00140836
0.00153223
0.00167626
0.00183962
0.00201589
0.0021903
0.00231879
0.00236451
0.00235859
0.00228505
0.00224948
0.00231294
0.0026145
0.00323508
0.00346875
0.00240587
0.000406579
0.000596205
0.00224784
0.00283923
0.00304438
0.00304981
0.002878
0.00259335
0.00226013
0.00193159
0.00164192
0.00140611
0.00122511
0.00109198
0.000997053
0.000930921
0.000885364
0.000853462
0.000829759
0.000810379
0.000792917
0.00077612
0.000759488
0.000742948
0.00072661
0.000710632
0.000695154
0.000680282
0.000666089
0.000652625
0.00063993
0.000628043
0.000617004
0.00060686
0.000597664
0.000589475
0.000582361
0.000576391
0.000571644
0.000568203
0.00056637
0.000565773
0.000566542
0.00056917
0.000573617
0.000579984
0.000588399
0.000599003
0.000611949
0.000627401
0.000645534
0.000666536
0.000690604
0.00071795
0.000748802
0.000783412
0.000822067
0.000865115
0.000913
0.000966314
0.00102589
0.00109289
0.00116898
0.00125644
0.00135827
0.00147797
0.00161886
0.00178242
0.00196545
0.00215628
0.00233138
0.00242286
0.00243783
0.00238356
0.00229942
0.00229027
0.00245634
0.00301065
0.00338468
0.00274479
0.00047532
0.000589123
0.00223913
0.00280945
0.00300436
0.00300272
0.0028228
0.00253039
0.00219127
0.001861
0.00157465
0.00134603
0.00117396
0.00104975
0.000962744
0.000902971
0.000861962
0.000832862
0.000810539
0.000791565
0.000773958
0.000756783
0.000739737
0.000722838
0.000706221
0.000690028
0.000674374
0.000659337
0.00064497
0.000631309
0.00061839
0.000606249
0.00059493
0.000584481
0.00057496
0.000566429
0.000558955
0.000552609
0.000547465
0.000543599
0.000541299
0.000540416
0.000540663
0.000542774
0.000546693
0.00055251
0.000560349
0.000570352
0.000582679
0.000597497
0.000614993
0.000635361
0.000658812
0.000685566
0.000715861
0.000749949
0.00078811
0.000830667
0.000878016
0.00093067
0.000989337
0.00105503
0.00112921
0.00121399
0.00131226
0.00142776
0.00156471
0.00172655
0.00191347
0.0021185
0.00232307
0.00246599
0.00250952
0.00248419
0.00236074
0.00230064
0.00237781
0.00280363
0.00325143
0.00301054
0.000530196
0.000578114
0.00222081
0.00277086
0.00295692
0.00294891
0.00276435
0.00246797
0.00212629
0.00179654
0.00151455
0.00129319
0.0011295
0.00101339
0.00093331
0.000878871
0.00084148
0.000814452
0.000793029
0.000774208
0.000756374
0.00073884
0.000721445
0.000704258
0.000687417
0.000671045
0.000655232
0.000640034
0.000625489
0.000611629
0.000598486
0.000586098
0.000574512
0.000563781
0.000553963
0.000545124
0.00053733
0.000530653
0.000525164
0.00052094
0.000518189
0.000516981
0.000516844
0.00051845
0.000521862
0.000527142
0.000534411
0.00054381
0.000555501
0.000569659
0.000586476
0.000606161
0.000628934
0.000655032
0.000684703
0.000718212
0.000755839
0.000797899
0.000844756
0.000896864
0.000954836
0.00101954
0.00109224
0.00117482
0.00126997
0.00138142
0.00151379
0.00167179
0.00185812
0.00206952
0.00229165
0.0024858
0.00257323
0.00257753
0.00246976
0.00234692
0.00234126
0.0026303
0.00312725
0.00313617
0.000555211
0.000563781
0.00219577
0.00272544
0.00290346
0.00289036
0.00270409
0.00240707
0.0020657
0.00173827
0.00146129
0.00124698
0.00109103
0.000982117
0.000908014
0.000857994
0.000823447
0.000797931
0.000777068
0.000758245
0.000740152
0.000722293
0.000704602
0.000687176
0.000670146
0.000653615
0.000637649
0.000622291
0.000607571
0.000593516
0.00058016
0.000567544
0.000555718
0.000544737
0.000534662
0.000525559
0.000517495
0.000510538
0.00050476
0.000500236
0.000497066
0.000495503
0.000495108
0.000496239
0.000499168
0.000503933
0.000510644
0.000519442
0.00053049
0.000543968
0.000560077
0.000579033
0.000601074
0.00062645
0.000655428
0.000688287
0.000725321
0.000766844
0.000813209
0.00086483
0.000922242
0.000986191
0.00105777
0.00113862
0.0012312
0.00133907
0.00146701
0.00162066
0.00180489
0.00202025
0.00225718
0.00248955
0.00263015
0.00266065
0.00258434
0.00240058
0.00233254
0.0024799
0.00302021
0.00317139
0.00055944
0.000546938
0.00216613
0.00267491
0.00284544
0.00282866
0.00264321
0.00234843
0.0020098
0.0016861
0.00141448
0.00120685
0.00105786
0.000955266
0.000886248
0.000839847
0.000807514
0.000783084
0.000762547
0.000743631
0.000725272
0.000707122
0.000689176
0.000671545
0.000654347
0.000637666
0.000621553
0.00060604
0.000591151
0.000576915
0.000563367
0.00055055
0.000538518
0.000527327
0.000517041
0.000507723
0.000499439
0.000492253
0.000486233
0.000481445
0.00047796
0.000476053
0.000475429
0.00047614
0.00047862
0.000482894
0.000489066
0.000497274
0.00050768
0.000520468
0.000535846
0.000554041
0.000575302
0.000599898
0.000628114
0.00066025
0.00069662
0.00073755
0.00078339
0.000834536
0.000891468
0.000954833
0.00102556
0.00110508
0.00119558
0.00130033
0.00142404
0.00157279
0.00175295
0.00196821
0.002214
0.00247056
0.00266904
0.00273487
0.00269808
0.00250315
0.00236224
0.00240706
0.00285435
0.00314301
0.000548175
0.000528256
0.00213366
0.00262086
0.0027843
0.00276515
0.00258264
0.00229255
0.00195869
0.00163984
0.00137372
0.00117223
0.0010294
0.000932261
0.000867512
0.000824044
0.000793418
0.000769755
0.000749384
0.000730322
0.000711705
0.000693293
0.000675122
0.000657308
0.000639955
0.000623131
0.000606877
0.000591217
0.000576174
0.000561777
0.000548064
0.000535081
0.000522882
0.000511527
0.000501077
0.000491593
0.000483139
0.000475774
0.00046956
0.000464556
0.000460824
0.000458604
0.000457771
0.000458118
0.000460186
0.000463999
0.000469654
0.000477288
0.000487061
0.00049916
0.000513796
0.000531206
0.000551653
0.00057542
0.000602815
0.00063416
0.000669792
0.000710059
0.000755324
0.000805976
0.000862462
0.000925353
0.000995451
0.00107397
0.00116284
0.00126502
0.00138499
0.00152898
0.00170441
0.0019175
0.00216777
0.00243971
0.0026873
0.00280051
0.00279939
0.00262191
0.00240548
0.00237736
0.00270945
0.00307234
0.000529366
0.000508353
0.00209909
0.00256452
0.00272126
0.00270092
0.00252313
0.00223976
0.00191239
0.00159923
0.00133858
0.00114264
0.00100515
0.00091262
0.0008514
0.00081028
0.000780956
0.000757823
0.00073751
0.000718275
0.000699412
0.000680762
0.000662389
0.000644406
0.000626907
0.000609948
0.000593562
0.000577768
0.00056259
0.000548058
0.000534212
0.000521099
0.000508776
0.000497301
0.000486733
0.000477132
0.000468556
0.000461059
0.000454698
0.000449525
0.000445596
0.000443097
0.000442065
0.000442108