/*--------------------------------*- C++ -*----------------------------------*\
  =========                 |
  \\      /  F ield         | OpenFOAM: The Open Source CFD Toolbox
   \\    /   O peration     | Website:  https://openfoam.org
    \\  /    A nd           | Version:  13
     \\/     M anipulation  |
\*---------------------------------------------------------------------------*/
FoamFile
{
    format      ascii;
    class       volScalarField;
    location    "7.5";
    object      p;
}
// * * * * * * * * * * * * * * * * * * * * * * * * * * * * * * * * * * * * * //

dimensions      [0 2 -2 0 0 0 0];

internalField   nonuniform List<scalar> 
6400
(
9.25052e-09
1.98197e-05
2.87615e-05
1.36371e-05
-3.0789e-05
-9.94189e-05
-0.000182593
-0.000271194
-0.000358961
-0.000442833
-0.000523515
-0.000605217
-0.000692632
-0.000790929
-0.000905263
-0.00103971
-0.0011972
-0.0013794
-0.00158757
-0.00182239
-0.00208426
-0.00237456
-0.00269618
-0.00305363
-0.00345328
-0.00389996
-0.00438839
-0.00490979
-0.00544184
-0.0059499
-0.00642888
-0.00688658
-0.00732099
-0.00772937
-0.00810641
-0.00844355
-0.00872947
-0.00895109
-0.0090946
-0.00914627
-0.00909301
-0.0089236
-0.00862976
-0.00820706
-0.00765285
-0.00695969
-0.00612012
-0.00515059
-0.00406773
-0.00287868
-0.00160379
-0.000264193
0.00111122
0.00249009
0.00383223
0.00509244
0.00622634
0.00719232
0.00795065
0.00846974
0.00873085
0.00873138
0.0084845
0.00801131
0.00737118
0.00661612
0.00581141
0.00502032
0.00429982
0.00368022
0.00319647
0.00286024
0.00264149
0.00251395
0.00245891
0.00245242
0.00247514
0.00251183
0.0025518
0.00257912
-1.49887e-05
5.22919e-06
9.53894e-06
-1.05622e-05
-5.7838e-05
-0.000126405
-0.000205633
-0.000287014
-0.00036561
-0.000440105
-0.000512601
-0.00058717
-0.000668634
-0.00076171
-0.000870262
-0.000997828
-0.00114767
-0.00132226
-0.00152221
-0.00174773
-0.00199783
-0.00227309
-0.00257669
-0.00291117
-0.00327962
-0.00368926
-0.00414749
-0.0046529
-0.00519176
-0.00574002
-0.00626977
-0.00677154
-0.00724727
-0.00769385
-0.00810556
-0.00847375
-0.00878733
-0.00903382
-0.00920016
-0.00927383
-0.00924287
-0.00909718
-0.00882898
-0.00843231
-0.00790217
-0.00723459
-0.00643691
-0.00551609
-0.00447365
-0.00332668
-0.00209319
-0.000796131
0.000536722
0.00187218
0.00317259
0.00439785
0.00550539
0.0064533
0.00720533
0.00773113
0.0080115
0.00804291
0.00783745
0.00742174
0.00684113
0.00615018
0.00541079
0.00468249
0.00401842
0.00346042
0.00302759
0.00272736
0.0025468
0.00246186
0.00244773
0.00247784
0.0025211
0.00255991
0.00259247
0.00261832
-3.1069e-05
-8.62687e-06
-9.95678e-06
-3.9181e-05
-9.4431e-05
-0.00016555
-0.000240876
-0.000312276
-0.000377128
-0.000437126
-0.000496023
-0.000558768
-0.000630363
-0.000714548
-0.00081381
-0.000929971
-0.00106458
-0.00121988
-0.00139809
-0.00160194
-0.00183503
-0.00210049
-0.00240266
-0.00274648
-0.00313619
-0.00357431
-0.00406125
-0.00459315
-0.00515929
-0.00574225
-0.00632215
-0.00688311
-0.00741575
-0.00791357
-0.00836961
-0.00877485
-0.0091191
-0.00939147
-0.00958036
-0.00967442
-0.0096635
-0.00953873
-0.00929293
-0.00892087
-0.00841985
-0.00778916
-0.00702372
-0.00613701
-0.00513535
-0.00403107
-0.00284068
-0.0015856
-0.00029216
0.00100859
0.00228136
0.00348802
0.0045869
0.00553674
0.00630198
0.0068533
0.00717087
0.00724887
0.00709862
0.0067461
0.00623334
0.00561304
0.00493828
0.00427584
0.00367117
0.00316209
0.00277323
0.00251873
0.00238649
0.00234827
0.00237141
0.00243252
0.00250183
0.00255994
0.00260746
0.00264474
-3.96374e-05
-1.81422e-05
-2.6954e-05
-6.73379e-05
-0.000132677
-0.000206948
-0.000278611
-0.000341169
-0.000393296
-0.000437284
-0.000479313
-0.000526087
-0.000583093
-0.000654039
-0.000740629
-0.000843657
-0.000964516
-0.00110602
-0.00127206
-0.00146815
-0.00170135
-0.00197947
-0.00230986
-0.00269514
-0.00313765
-0.00363864
-0.00419414
-0.00479381
-0.00542202
-0.00606214
-0.0066977
-0.00731353
-0.00789732
-0.00843998
-0.00893311
-0.00936753
-0.00973434
-0.0100239
-0.0102262
-0.0103315
-0.0103311
-0.0102173
-0.00998352
-0.00962567
-0.00914187
-0.00853093
-0.00779311
-0.00693376
-0.00596005
-0.00488354
-0.00371979
-0.00248875
-0.00121462
7.4227e-05
0.00134469
0.00255889
0.00367607
0.0046561
0.00546149
0.00606185
0.00643588
0.00657377
0.00648413
0.00619264
0.00573853
0.00517079
0.00454579
0.00392359
0.00335446
0.00287697
0.0025154
0.00228089
0.00216599
0.00215463
0.0022176
0.00231397
0.00241527
0.0025038
0.00257541
0.0026252
-3.39201e-05
-1.98434e-05
-3.87534e-05
-9.06377e-05
-0.000165512
-0.000242661
-0.000310674
-0.000364543
-0.000404309
-0.000434321
-0.000461779
-0.000494258
-0.000537698
-0.000595756
-0.000670562
-0.000763928
-0.000878972
-0.00102143
-0.00119836
-0.00141788
-0.00168978
-0.00201966
-0.00241225
-0.00287191
-0.00339804
-0.00398475
-0.00462199
-0.00529533
-0.00598733
-0.00668181
-0.00736336
-0.0080195
-0.00863962
-0.00921328
-0.00973138
-0.0101852
-0.0105664
-0.0108661
-0.0110761
-0.0111883
-0.0111949
-0.0110897
-0.0108669
-0.0105224
-0.0100554
-0.00946531
-0.00875277
-0.00792027
-0.00697339
-0.00592268
-0.00478322
-0.00357314
-0.00231355
-0.00102891
0.00024998
0.00148451
0.0026345
0.00366238
0.00452991
0.00520367
0.00566015
0.00588514
0.00588088
0.00566797
0.00528637
0.00478271
0.00421135
0.00362989
0.00309115
0.00263597
0.00229142
0.00206823
0.00196302
0.00195959
0.00203303
0.00214986
0.00227685
0.00239312
0.0024875
0.00254662
-5.17926e-06
-5.03328e-06
-3.63338e-05
-0.00010201
-0.000185065
-0.000263328
-0.000327339
-0.000373557
-0.000403274
-0.000422513
-0.000439628
-0.000462617
-0.000497591
-0.000548886
-0.000620299
-0.00071625
-0.000843264
-0.00101013
-0.00122776
-0.00150329
-0.00184432
-0.00225813
-0.00274629
-0.00330581
-0.00392795
-0.0046008
-0.0053122
-0.00604833
-0.0067938
-0.00753348
-0.00825327
-0.00894155
-0.00958815
-0.0101835
-0.0107192
-0.0111866
-0.0115774
-0.0118843
-0.0121004
-0.0122191
-0.0122335
-0.0121398
-0.0119324
-0.0116075
-0.0111664
-0.0106068
-0.00992869
-0.00913381
-0.00822611
-0.00721361
-0.00610995
-0.00492989
-0.00369015
-0.00241152
-0.00112467
0.000130993
0.00131943
0.00240769
0.00335502
0.00412403
0.00469045
0.00503458
0.00515341
0.00505732
0.00478097
0.00437131
0.00388028
0.00336177
0.00286874
0.00244486
0.00211985
0.00190736
0.00180616
0.00180277
0.00187428
0.00199233
0.00212641
0.0022532
0.00235738
0.00241967
5.68862e-05
3.95197e-05
-8.0089e-06
-9.05136e-05
-0.000178861
-0.000257481
-0.000318285
-0.000359061
-0.00038305
-0.000397491
-0.000411297
-0.000432755
-0.000468627
-0.000524994
-0.000608654
-0.000727149
-0.000890795
-0.00111146
-0.00139744
-0.00175746
-0.00219807
-0.00272052
-0.00331617
-0.00397441
-0.00468521
-0.00543665
-0.00621508
-0.00700667
-0.00779779
-0.00857511
-0.00932617
-0.0100402
-0.0107074
-0.0113193
-0.0118678
-0.0123443
-0.0127405
-0.0130519
-0.013273
-0.0133984
-0.0134252
-0.0133484
-0.0131633
-0.0128671
-0.0124589
-0.011936
-0.0112989
-0.0105508
-0.00969687
-0.00874322
-0.00769512
-0.00656279
-0.00536125
-0.00411227
-0.00284136
-0.00157597
-0.000346075
0.000812662
0.00185113
0.00273549
0.00343965
0.00393617
0.00421754
0.00428434
0.00416047
0.00388664
0.00351293
0.00309088
0.0026709
0.00229797
0.00200463
0.00180795
0.00170995
0.00170223
0.00176323
0.0018695
0.00199386
0.00211309
0.00221176
0.00226884
0.000162379
0.000124499
5.52172e-05
-4.11534e-05
-0.000135003
-0.000214991
-0.000274709
-0.000314356
-0.00033887
-0.000356565
-0.000376793
-0.000408287
-0.000459166
-0.000538331
-0.000655569
-0.000822284
-0.00105046
-0.00135176
-0.00173454
-0.00220519
-0.00276043
-0.00339203
-0.00408957
-0.00484143
-0.00563476
-0.00645664
-0.00729391
-0.00813374
-0.00896377
-0.00977215
-0.0105479
-0.0112812
-0.0119628
-0.0125838
-0.0131367
-0.0136139
-0.0140126
-0.014329
-0.0145577
-0.0146949
-0.0147371
-0.014678
-0.0145145
-0.0142437
-0.0138696
-0.0133864
-0.012796
-0.0121019
-0.0113091
-0.0104219
-0.00944185
-0.0083763
-0.00723861
-0.00604648
-0.00481749
-0.00356909
-0.00232695
-0.00113015
-9.6658e-06
0.00100594
0.00186692
0.00254433
0.00302481
0.00329715
0.00337509
0.00328589
0.00307335
0.00278682
0.00247335
0.00217788
0.00193519
0.001766
0.00167663
0.00166165
0.00170664
0.00179265
0.00189481
0.00199383
0.00207245
0.00211484
0.000316631
0.000258054
0.000164054
5.39453e-05
-4.65163e-05
-0.000129432
-0.000191885
-0.000236285
-0.00026941
-0.000300563
-0.000339595
-0.000396129
-0.000480346
-0.000604185
-0.000780802
-0.00102228
-0.0013415
-0.00174974
-0.00224994
-0.00283792
-0.00350659
-0.00424446
-0.00503847
-0.00587524
-0.00674171
-0.00762499
-0.0085128
-0.0093932
-0.0102548
-0.0110869
-0.0118796
-0.0126238
-0.0133102
-0.0139315
-0.0144827
-0.014962
-0.0153675
-0.0156919
-0.01593
-0.0160771
-0.0161284
-0.0160831
-0.0159403
-0.0157001
-0.0153557
-0.0149126
-0.0143709
-0.0137318
-0.0129975
-0.0121712
-0.0112585
-0.0102662
-0.00920382
-0.00808409
-0.00691992
-0.00572151
-0.00450589
-0.00329981
-0.00212472
-0.00101944
-1.96383e-05
0.000854863
0.00155357
0.00206319
0.0023845
0.00252934
0.00252532
0.00241669
0.00224667
0.00205807
0.00188872
0.00176312
0.00169198
0.00167446
0.00170165
0.00175996
0.00183173
0.00190154
0.00194948
0.00197289
0.000527021
0.000445418
0.000323987
0.000198711
8.90853e-05
1.22384e-07
-6.99941e-05
-0.000126528
-0.000178103
-0.000234974
-0.000307682
-0.000407121
-0.000546029
-0.000739165
-0.00100028
-0.00134162
-0.00177509
-0.00230491
-0.00292703
-0.00363306
-0.00441155
-0.00524807
-0.00612915
-0.00704115
-0.0079713
-0.00890711
-0.00983693
-0.0107496
-0.0116346
-0.0124821
-0.0132833
-0.0140303
-0.014717
-0.0153393
-0.0158921
-0.0163718
-0.0167727
-0.0170905
-0.0173228
-0.0174685
-0.0175252
-0.0174915
-0.0173673
-0.0171522
-0.0168429
-0.0164414
-0.0159489
-0.0153669
-0.0146968
-0.013941
-0.0131033
-0.0121886
-0.011203
-0.0101534
-0.00904807
-0.00790017
-0.00672858
-0.00554852
-0.00437168
-0.00321856
-0.00211366
-0.00109256
-0.000191927
0.000571876
0.00116133
0.00157855
0.00182963
0.00194319
0.00195689
0.00190865
0.00183689
0.00177257
0.00173202
0.00171976
0.00173177
0.00176098
0.00179803
0.00183123
0.00184556
0.0018501
0.000795971
0.000685456
0.000535378
0.000389712
0.000268835
0.000169367
8.52594e-05
7.78734e-06
-7.36129e-05
-0.000170149
-0.000293149
-0.000455369
-0.000671689
-0.00095736
-0.00132547
-0.00178649
-0.00234608
-0.00300244
-0.00374645
-0.0045654
-0.0054453
-0.00637136
-0.00732987
-0.00830741
-0.00929149
-0.0102701
-0.0112322
-0.0121674
-0.0130663
-0.0139203
-0.0147221
-0.0154652
-0.0161451
-0.0167572
-0.0172982
-0.0177649
-0.0181538
-0.0184623
-0.018689
-0.018833
-0.0188932
-0.0188689
-0.0187598
-0.0185658
-0.0182862
-0.0179217
-0.0174735
-0.0169433
-0.0163326
-0.0156436
-0.014879
-0.0140426
-0.0131382
-0.0121698
-0.0111421
-0.0100624
-0.00894004
-0.00778575
-0.00661699
-0.00545387
-0.00430652
-0.00319089
-0.00212648
-0.00115253
-0.000297069
0.000405999
0.000945293
0.00132421
0.00156425
0.0016955
0.0017512
0.00176679
0.00176932
0.00177067
0.00177378
0.00177644
0.00177812
0.0017722
0.00175475
0.00174283
0.00111155
0.000971546
0.000786424
0.000617481
0.000482012
0.000367748
0.000262478
0.000154202
3.05796e-05
-0.000120396
-0.000311262
-0.00055608
-0.000870371
-0.00126819
-0.00175995
-0.00235149
-0.00304237
-0.0038244
-0.00468437
-0.0056079
-0.00657978
-0.00758538
-0.00861089
-0.00964315
-0.01067
-0.0116799
-0.0126627
-0.013609
-0.0145107
-0.0153608
-0.0161533
-0.0168834
-0.0175476
-0.0181425
-0.0186659
-0.0191158
-0.0194901
-0.0197875
-0.0200069
-0.0201478
-0.0202095
-0.020192
-0.0200952
-0.0199194
-0.0196647
-0.0193321
-0.0189227
-0.0184381
-0.0178798
-0.0172499
-0.0165508
-0.0157851
-0.0149556
-0.0140651
-0.0131168
-0.0121142
-0.0110614
-0.00996285
-0.00882575
-0.00766036
-0.00648218
-0.00531348
-0.0041564
-0.00302857
-0.00195815
-0.000989105
-0.000156503
0.000516267
0.00102348
0.00137668
0.00159909
0.0017211
0.00178007
0.00180277
0.00180202
0.0017832
0.00175265
0.00171116
0.00166728
0.00164125
0.00145967
0.00128854
0.00106376
0.000868664
0.000714903
0.000579988
0.000445454
0.00029591
0.000117465
-0.000102829
-0.000377977
-0.000722951
-0.00115198
-0.001676
-0.00230113
-0.00302746
-0.00384791
-0.00474952
-0.00571713
-0.00673535
-0.00778864
-0.00886248
-0.00994311
-0.0110177
-0.0120747
-0.0131034
-0.0140947
-0.0150408
-0.015935
-0.016772
-0.0175474
-0.0182581
-0.0189014
-0.0194754
-0.0199788
-0.0204102
-0.0207687
-0.0210536
-0.0212644
-0.0214008
-0.0214627
-0.0214501
-0.0213635
-0.0212033
-0.02097
-0.0206648
-0.0202889
-0.0198437
-0.0193309
-0.0187525
-0.0181105
-0.017407
-0.016644
-0.0158234
-0.0149472
-0.0140172
-0.0130348
-0.0120017
-0.0109196
-0.00979037
-0.00861833
-0.00741281
-0.00619014
-0.00496694
-0.00375158
-0.00257438
-0.00147802
-0.000510548
0.000290292
0.000905236
0.00133764
0.00160613
0.00174475
0.00179862
0.00179815
0.00176199
0.0017048
0.00163481
0.00157175
0.00153691
0.00182237
0.00161724
0.00135068
0.00112504
0.000948557
0.000786705
0.000614525
0.000413407
0.000168125
-0.000134477
-0.000508419
-0.000967647
-0.00152325
-0.00218183
-0.00294347
-0.003802
-0.00474525
-0.00575745
-0.00682234
-0.00792388
-0.00904653
-0.0101759
-0.0112985
-0.0124022
-0.0134763
-0.0145115
-0.0155004
-0.0164365
-0.0173152
-0.0181326
-0.018886
-0.0195734
-0.0201934
-0.020745
-0.0212275
-0.0216403
-0.0219829
-0.0222553
-0.0224573
-0.022589
-0.0226504
-0.0226418
-0.0225638
-0.022417
-0.0222022
-0.0219204
-0.0215732
-0.0211618
-0.020688
-0.0201536
-0.0195605
-0.0189104
-0.018205
-0.0174456
-0.0166333
-0.0157686
-0.0148515
-0.0138817
-0.012858
-0.0117794
-0.0106444
-0.00945251
-0.00820637
-0.0069167
-0.00560649
-0.00428729
-0.0029858
-0.00175899
-0.000665779
0.000238304
0.000921082
0.00138193
0.00164054
0.00174519
0.00175332
0.00170288
0.00162341
0.00153174
0.00145647
0.00141647
0.00217502
0.00193456
0.00162261
0.00136469
0.00116138
0.000966346
0.00074841
0.000486543
0.000164497
-0.000231887
-0.000716244
-0.00129937
-0.00198824
-0.00278291
-0.00367766
-0.00466105
-0.00571722
-0.0068288
-0.00797879
-0.00915081
-0.0103295
-0.0115006
-0.0126516
-0.0137714
-0.0148507
-0.0158819
-0.0168593
-0.0177784
-0.018636
-0.01943
-0.0201588
-0.0208215
-0.0214177
-0.021947
-0.0224092
-0.0228043
-0.0231322
-0.023393
-0.023587
-0.0237144
-0.0237753
-0.0237702
-0.0236999
-0.0235647
-0.0233659
-0.0231044
-0.0227816
-0.0223991
-0.0219583
-0.0214612
-0.0209093
-0.0203044
-0.0196478
-0.0189406
-0.0181833
-0.0173759
-0.0165173
-0.0156058
-0.0146388
-0.0136127
-0.0125234
-0.0113665
-0.0101389
-0.00884008
-0.00747612
-0.00606151
-0.00462408
-0.00319662
-0.00184791
-0.000653757
0.000311383
0.00100741
0.0014361
0.00163069
0.00166267
0.00160447
0.00150495
0.00139487
0.00131201
0.00126791
0.00249065
0.00221517
0.00185757
0.00156529
0.00133095
0.00109642
0.000825699
0.00049568
8.85888e-05
-0.000410722
-0.00101272
-0.00172429
-0.00254613
-0.00347252
-0.00449246
-0.00559008
-0.00674706
-0.00794503
-0.00916653
-0.0103951
-0.0116157
-0.012815
-0.0139815
-0.0151057
-0.0161801
-0.0171991
-0.0181587
-0.0190561
-0.0198898
-0.0206586
-0.0213623
-0.0220007
-0.0225739
-0.0230822
-0.0235257
-0.0239048
-0.0242197
-0.0244705
-0.0246577
-0.0247815
-0.0248423
-0.0248407
-0.0247773
-0.0246525
-0.0244676
-0.0242236
-0.0239219
-0.0235639
-0.0231511
-0.0226853
-0.022168
-0.0216007
-0.0209849
-0.0203214
-0.0196105
-0.0188518
-0.0180441
-0.0171848
-0.0162703
-0.0152957
-0.014255
-0.0131411
-0.0119475
-0.0106686
-0.00930167
-0.00784962
-0.00632769
-0.00476912
-0.00322403
-0.00177499
-0.000520651
0.000450562
0.00109688
0.00143298
0.00152304
0.00146868
0.00135157
0.00122408
0.00113345
0.00108232
0.00274863
0.00243511
0.00203266
0.00170447
0.00143485
0.00115555
0.000827088
0.000423565
-7.5694e-05
-0.000682974
-0.00140474
-0.00224299
-0.00319231
-0.00424188
-0.0053757
-0.00657457
-0.00781857
-0.00908869
-0.0103672
-0.011638
-0.0128868
-0.0141015
-0.0152721
-0.0163912
-0.0174531
-0.0184541
-0.019392
-0.0202654
-0.021074
-0.0218178
-0.0224972
-0.0231127
-0.0236648
-0.0241541
-0.0245812
-0.0249463
-0.02525
-0.0254925
-0.0256742
-0.0257955
-0.0258568
-0.0258586
-0.0258013
-0.0256862
-0.0255138
-0.0252852
-0.0250017
-0.0246646
-0.0242755
-0.0238359
-0.0233474
-0.0228115
-0.0222294
-0.021602
-0.0209296
-0.0202117
-0.0194469
-0.0186327
-0.017765
-0.0168384
-0.0158458
-0.0147789
-0.0136284
-0.012385
-0.0110407
-0.0095919
-0.00804234
-0.00641039
-0.00473744
-0.00309337
-0.00158141
-0.000321437
0.000590003
0.00112306
0.00132146
0.00129459
0.00116763
0.00102184
0.000916689
0.000852684
0.00291508
0.00257047
0.00212642
0.00176186
0.0014537
0.00112658
0.000736826
0.000254616
-0.000339178
-0.00105401
-0.0018932
-0.00285186
-0.00391968
-0.00508065
-0.00631468
-0.00760025
-0.0089164
-0.0102438
-0.0115648
-0.0128639
-0.0141282
-0.0153471
-0.0165127
-0.0176193
-0.0186634
-0.019643
-0.0205572
-0.021406
-0.02219
-0.02291
-0.0235668
-0.0241615
-0.0246948
-0.0251675
-0.0255803
-0.0259336
-0.026228
-0.0264638
-0.0266414
-0.0267611
-0.0268235
-0.0268288
-0.0267778
-0.0266713
-0.02651
-0.0262949
-0.0260272
-0.0257082
-0.0253393
-0.0249219
-0.0244576
-0.0239477
-0.0233935
-0.0227957
-0.0221549
-0.0214706
-0.0207416
-0.0199653
-0.0191381
-0.0182542
-0.0173066
-0.0162861
-0.0151824
-0.0139838
-0.0126788
-0.0112582
-0.00971789
-0.0080643
-0.00632345
-0.00455199
-0.00284179
-0.00131637
-0.000115475
0.000666292
0.00103349
0.00107729
0.000952476
0.00078777
0.000657057
0.000575609
0.00297644
0.00260389
0.00212175
0.00172111
0.00137303
0.000996317
0.000542474
-1.95042e-05
-0.00070643
-0.00152558
-0.00247497
-0.0035447
-0.00471905
-0.00597736
-0.00729649
-0.00865334
-0.0100264
-0.0113961
-0.0127456
-0.0140604
-0.0153292
-0.0165432
-0.0176967
-0.0187858
-0.0198089
-0.0207653
-0.0216554
-0.0224802
-0.0232409
-0.0239389
-0.0245754
-0.0251516
-0.0256685
-0.0261269
-0.0265277
-0.0268713
-0.0271581
-0.0273887
-0.0275633
-0.0276823
-0.0277462
-0.0277554
-0.0277103
-0.0276118
-0.0274606
-0.0272575
-0.0270038
-0.0267005
-0.0263489
-0.0259505
-0.0255065
-0.0250183
-0.0244872
-0.0239139
-0.0232989
-0.0226421
-0.0219425
-0.0211979
-0.0204048
-0.0195581
-0.0186508
-0.017674
-0.0166168
-0.0154666
-0.0142099
-0.0128335
-0.0113277
-0.0096891
-0.00792917
-0.00608801
-0.00424605
-0.00251164
-0.00103121
3.98342e-05
0.000629439
0.000795686
0.000700792
0.00051821
0.000350127
0.000250152
0.00291783
0.00252198
0.00200659
0.00157154
0.00118343
0.000755544
0.000236868
-0.000401922
-0.00117749
-0.00209409
-0.00314416
-0.00431291
-0.00557962
-0.00691988
-0.00830833
-0.00972086
-0.0111357
-0.0125337
-0.0138989
-0.0152184
-0.0164825
-0.0176847
-0.018821
-0.0198895
-0.0208898
-0.0218227
-0.0226894
-0.0234915
-0.0242308
-0.0249089
-0.0255274
-0.0260875
-0.0265903
-0.0270367
-0.0274274
-0.027763
-0.0280439
-0.0282705
-0.0284432
-0.0285622
-0.028628
-0.028641
-0.0286016
-0.0285106
-0.0283686
-0.0281764
-0.0279351
-0.0276456
-0.0273091
-0.026927
-0.0265004
-0.0260306
-0.0255187
-0.0249657
-0.0243721
-0.0237378
-0.0230623
-0.0223437
-0.0215791
-0.020764
-0.0198921
-0.0189549
-0.0179418
-0.01684
-0.015635
-0.0143115
-0.0128557
-0.0112577
-0.00951621
-0.00765235
-0.00573331
-0.0038562
-0.00214592
-0.000784109
7.8387e-05
0.000428843
0.000401194
0.000204131
-7.89529e-06
-0.000125183
0.00273047
0.0023169
0.00177415
0.0013074
0.000879418
0.000400903
-0.000179356
-0.000890607
-0.00174856
-0.00275296
-0.00389195
-0.00514582
-0.00648957
-0.00789588
-0.00933788
-0.0107909
-0.0122334
-0.0136468
-0.0150166
-0.0163315
-0.017584
-0.0187692
-0.0198851
-0.0209312
-0.0219084
-0.0228182
-0.0236627
-0.0244439
-0.0251638
-0.0258243
-0.026427
-0.0269732
-0.027464
-0.0279003
-0.0282827
-0.0286118
-0.028888
-0.0291117
-0.0292832
-0.0294028
-0.0294708
-0.0294877
-0.0294538
-0.0293698
-0.0292362
-0.0290539
-0.0288236
-0.0285464
-0.0282233
-0.0278554
-0.0274438
-0.0269898
-0.0264944
-0.0259584
-0.0253825
-0.0247669
-0.0241112
-0.023414
-0.0226731
-0.0218847
-0.0210432
-0.020141
-0.0191684
-0.0181128
-0.0169596
-0.0156924
-0.014295
-0.0127536
-0.0110585
-0.00921075
-0.007252
-0.00529373
-0.00342134
-0.00180056
-0.000641229
-5.47426e-05
3.05764e-05
-0.000162224
-0.000416939
-0.000550174
0.00241195
0.00198672
0.00142311
0.000927964
0.000461732
-6.49588e-05
-0.00070227
-0.0014796
-0.00241107
-0.00349234
-0.00470712
-0.00603131
-0.00743647
-0.00889317
-0.0103736
-0.0118529
-0.0133101
-0.0147278
-0.0160929
-0.0173961
-0.0186315
-0.0197964
-0.02089
-0.0219131
-0.0228675
-0.0237554
-0.0245792
-0.0253413
-0.0260439
-0.0266889
-0.0272778
-0.027812
-0.0282926
-0.0287203
-0.0290959
-0.0294198
-0.0296924
-0.029914
-0.0300849
-0.0302054
-0.0302759
-0.0302965
-0.0302679
-0.0301904
-0.0300647
-0.0298913
-0.0296712
-0.029405
-0.0290937
-0.0287384
-0.0283401
-0.0278998
-0.0274186
-0.0268972
-0.0263364
-0.0257365
-0.0250974
-0.0244181
-0.0236969
-0.0229308
-0.0221152
-0.0212435
-0.020307
-0.0192941
-0.0181907
-0.0169801
-0.0156445
-0.0141674
-0.0125348
-0.010736
-0.00877941
-0.00676855
-0.0048028
-0.00298803
-0.00154905
-0.000686223
-0.00042863
-0.000590211
-0.000875251
-0.00102472
0.00196558
0.00153499
0.000957135
0.000437318
-6.42861e-05
-0.000634619
-0.00132327
-0.00215948
-0.00315432
-0.00430028
-0.00557699
-0.00695657
-0.00840787
-0.00990005
-0.0114048
-0.0128977
-0.0143584
-0.015771
-0.0171239
-0.0184099
-0.0196247
-0.0207671
-0.0218375
-0.0228378
-0.0237702
-0.0246375
-0.0254423
-0.0261872
-0.0268744
-0.0275057
-0.0280826
-0.0286065
-0.0290784
-0.029499
-0.0298688
-0.0301885
-0.0304582
-0.0306783
-0.0308492
-0.0309709
-0.0310438
-0.0310682
-0.0310446
-0.0309732
-0.0308547
-0.0306896
-0.0304786
-0.0302224
-0.0299219
-0.0295779
-0.0291914
-0.0287633
-0.0282946
-0.027786
-0.0272383
-0.0266519
-0.0260268
-0.0253627
-0.0246582
-0.023911
-0.0231174
-0.0222722
-0.0213675
-0.0203933
-0.0193363
-0.0181803
-0.0169068
-0.0154972
-0.013935
-0.0122044
-0.0102964
-0.0082521
-0.00623856
-0.00430169
-0.00262698
-0.00147774
-0.00100174
-0.00109585
-0.00138172
-0.00155363
0.00139961
0.000970003
0.000384063
-0.000155828
-0.000688707
-0.00129767
-0.00203122
-0.00291754
-0.00396515
-0.00516329
-0.00648807
-0.00790856
-0.00939166
-0.0109056
-0.0124222
-0.0139175
-0.0153722
-0.0167721
-0.0181073
-0.0193721
-0.0205639
-0.0216828
-0.02273
-0.0237079
-0.0246196
-0.0254678
-0.0262553
-0.0269846
-0.027658
-0.0282772
-0.0288437
-0.0293587
-0.0298231
-0.0302375
-0.0306026
-0.0309188
-0.0311862
-0.0314054
-0.0315764
-0.0316994
-0.0317748
-0.0318029
-0.0317839
-0.0317183
-0.0316065
-0.031449
-0.0312464
-0.0309994
-0.0307086
-0.0303749
-0.0299991
-0.029582
-0.0291245
-0.0286274
-0.0280913
-0.0275168
-0.0269041
-0.0262531
-0.0255629
-0.0248319
-0.0240574
-0.023235
-0.0223583
-0.0214185
-0.0204039
-0.0192993
-0.0180864
-0.016745
-0.0152567
-0.0136042
-0.0117669
-0.00974131
-0.00768687
-0.00569171
-0.00384891
-0.00243759
-0.00171048
-0.00167701
-0.00194134
-0.0021478
0.000726379
0.000304045
-0.000283745
-0.000838893
-0.00139816
-0.00204034
-0.00281214
-0.00373962
-0.00482912
-0.00606708
-0.00742665
-0.00887456
-0.0103764
-0.0119
-0.0134175
-0.0149058
-0.016347
-0.0177283
-0.0190416
-0.0202827
-0.0214503
-0.0225452
-0.0235695
-0.0245262
-0.0254183
-0.0262488
-0.0270205
-0.0277359
-0.028397
-0.0290054
-0.0295627
-0.0300699
-0.0305277
-0.0309369
-0.031298
-0.0316112
-0.0318769
-0.0320953
-0.0322666
-0.0323911
-0.0324689
-0.0325004
-0.0324859
-0.0324256
-0.03232
-0.0321695
-0.0319747
-0.0317361
-0.0314543
-0.0311301
-0.0307641
-0.0303571
-0.0299098
-0.0294231
-0.0288976
-0.0283339
-0.0277323
-0.027093
-0.0264155
-0.0256988
-0.0249408
-0.0241384
-0.0232863
-0.0223772
-0.0214008
-0.0203434
-0.0191878
-0.0179134
-0.0164995
-0.0149277
-0.0131757
-0.011224
-0.00913261
-0.00711449
-0.00517962
-0.00355802
-0.00257258
-0.00235105
-0.00257161
-0.00282416
-3.71718e-05
-0.000448136
-0.00103133
-0.00159694
-0.00217813
-0.00284808
-0.00365066
-0.00461035
-0.00573119
-0.00699722
-0.0083793
-0.00984245
-0.0113515
-0.0128743
-0.0143836
-0.0158574
-0.0172792
-0.0186377
-0.0199263
-0.0211422
-0.0222849
-0.0233561
-0.0243584
-0.0252949
-0.0261687
-0.0269829
-0.0277401
-0.0284428
-0.0290928
-0.0296917
-0.0302408
-0.030741
-0.0311931
-0.0315977
-0.0319552
-0.0322659
-0.0325301
-0.032748
-0.0329198
-0.0330457
-0.0331258
-0.0331606
-0.0331501
-0.0330948
-0.032995
-0.032851
-0.0326634
-0.0324325
-0.0321591
-0.0318436
-0.0314867
-0.031089
-0.0306514
-0.0301743
-0.0296586
-0.0291048
-0.0285135
-0.0278848
-0.0272189
-0.026515
-0.0257719
-0.0249871
-0.0241568
-0.023275
-0.022333
-0.0213188
-0.0202165
-0.0190064
-0.0176664
-0.0161766
-0.0145171
-0.0126567
-0.0105799
-0.00853983
-0.00657625
-0.00481171
-0.0035907
-0.00315207
-0.00328954
-0.0036039
-0.00087222
-0.00126934
-0.001843
-0.00241475
-0.00301294
-0.00370476
-0.00453085
-0.00551405
-0.00665629
-0.00793965
-0.00933325
-0.010801
-0.0123074
-0.0138207
-0.0153145
-0.016768
-0.018166
-0.0194989
-0.0207612
-0.0219511
-0.023069
-0.0241171
-0.0250983
-0.0260157
-0.0268725
-0.0276716
-0.0284156
-0.0291067
-0.0297467
-0.0303369
-0.0308786
-0.0313726
-0.0318196
-0.0322201
-0.0325744
-0.0328829
-0.0331458
-0.0333633
-0.0335356
-0.0336628
-0.0337452
-0.0337829
-0.0337763
-0.0337256
-0.0336311
-0.0334931
-0.0333122
-0.0330886
-0.0328228
-0.0325155
-0.0321671
-0.0317782
-0.0313495
-0.0308816
-0.0303751
-0.0298307
-0.029249
-0.0286304
-0.0279751
-0.027283
-0.0265534
-0.0257846
-0.0249739
-0.0241165
-0.0232054
-0.0222303
-0.0211771
-0.0200273
-0.0187589
-0.0173498
-0.0157796
-0.0140176
-0.0120336
-0.00996119
-0.00800244
-0.00616966
-0.00475987
-0.00409829
-0.00411222
-0.00451486
-0.00176064
-0.00214165
-0.00270184
-0.00327538
-0.00388563
-0.00459354
-0.00543643
-0.00643518
-0.00758985
-0.00888101
-0.0102766
-0.01174
-0.0132357
-0.0147326
-0.0162052
-0.0176341
-0.0190055
-0.0203109
-0.0215461
-0.02271
-0.0238037
-0.0248296
-0.0257906
-0.0266901
-0.0275311
-0.0283162
-0.0290481
-0.0297286
-0.0303594
-0.0309417
-0.0314767
-0.0319651
-0.0324074
-0.0328041
-0.0331556
-0.0334622
-0.0337239
-0.033941
-0.0341138
-0.0342422
-0.0343266
-0.0343671
-0.034364
-0.0343175
-0.034228
-0.0340956
-0.0339208
-0.0337039
-0.0334454
-0.0331456
-0.0328052
-0.0324246
-0.0320044
-0.0315451
-0.0310475
-0.0305121
-0.0299396
-0.0293305
-0.0286854
-0.0280044
-0.0272873
-0.0265333
-0.0257403
-0.024905
-0.0240219
-0.0230823
-0.0220741
-0.0209805
-0.0197804
-0.0184501
-0.0169682
-0.0153096
-0.01344
-0.0113721
-0.00943327
-0.00759804
-0.00606281
-0.00518976
-0.00506597
-0.00557097
-0.00268408
-0.00304704
-0.00359037
-0.00416142
-0.00477915
-0.00549794
-0.0063516
-0.00735884
-0.00851812
-0.00980895
-0.0111986
-0.0126503
-0.0141289
-0.0156041
-0.0170516
-0.0184531
-0.0197961
-0.0210732
-0.0222812
-0.0234196
-0.0244898
-0.0254944
-0.0264365
-0.0273192
-0.0281454
-0.0289177
-0.0296382
-0.030309
-0.0309313
-0.0315064
-0.0320352
-0.0325184
-0.0329564
-0.0333498
-0.0336987
-0.0340033
-0.034264
-0.0344808
-0.0346539
-0.0347835
-0.0348697
-0.0349128
-0.0349129
-0.0348703
-0.0347852
-0.034658
-0.0344888
-0.0342782
-0.0340264
-0.0337338
-0.0334009
-0.0330281
-0.032616
-0.032165
-0.0316758
-0.0311491
-0.0305855
-0.0299857
-0.0293504
-0.02868
-0.0279747
-0.0272344
-0.0264578
-0.0256428
-0.024785
-0.0238777
-0.0229105
-0.0218686
-0.0207325
-0.0194788
-0.0180859
-0.0165325
-0.0147773
-0.0127776
-0.0108375
-0.00904434
-0.00745294
-0.00640946
-0.00617261
-0.00675686
-0.00362474
-0.00396755
-0.0044911
-0.00505632
-0.00567747
-0.00640241
-0.0072615
-0.00827116
-0.00942846
-0.0107123
-0.0120896
-0.0135239
-0.0149806
-0.0164305
-0.0178501
-0.0192225
-0.0205363
-0.0217852
-0.0229664
-0.0240801
-0.0251279
-0.0261124
-0.0270367
-0.0279037
-0.0287161
-0.0294764
-0.0301865
-0.0308482
-0.0314628
-0.0320312
-0.0325543
-0.0330326
-0.0334667
-0.0338568
-0.0342033
-0.0345062
-0.0347659
-0.0349824
-0.0351558
-0.0352864
-0.0353742
-0.0354196
-0.0354226
-0.0353835
-0.0353025
-0.03518
-0.0350161
-0.0348112
-0.0345656
-0.0342797
-0.0339539
-0.0335885
-0.033184
-0.032741
-0.03226
-0.0317417
-0.0311868
-0.030596
-0.0299702
-0.02931
-0.0286161
-0.0278887
-0.0271275
-0.0263311
-0.0254965
-0.0246185
-0.0236887
-0.0226943
-0.0216176
-0.0204364
-0.0191275
-0.01767
-0.0160291
-0.0141644
-0.0122165
-0.0104742
-0.00887985
-0.00772437
-0.00742051
-0.00804145
-0.00456522
-0.00488612
-0.00538761
-0.0059443
-0.00656545
-0.0072925
-0.00815248
-0.00915954
-0.0103096
-0.011581
-0.0129411
-0.0143539
-0.0157854
-0.0172075
-0.0185978
-0.0199404
-0.0212251
-0.0224462
-0.0236016
-0.0246917
-0.0257182
-0.0266839
-0.0275915
-0.0284439
-0.0292435
-0.0299927
-0.0306932
-0.0313465
-0.0319538
-0.032516
-0.0330338
-0.0335076
-0.033938
-0.0343252
-0.0346693
-0.0349706
-0.0352293
-0.0354454
-0.0356191
-0.0357505
-0.0358398
-0.0358871
-0.0358928
-0.0358568
-0.0357796
-0.0356614
-0.0355023
-0.0353027
-0.0350629
-0.0347832
-0.0344639
-0.0341055
-0.0337084
-0.0332729
-0.0327998
-0.0322897
-0.0317432
-0.0311612
-0.0305447
-0.0298944
-0.0292115
-0.0284964
-0.0277496
-0.0269705
-0.0261573
-0.0253062
-0.0244105
-0.0234595
-0.0224377
-0.0213244
-0.0200957
-0.0187304
-0.0172024
-0.0154768
-0.0135595
-0.0118621
-0.0103028
-0.00909233
-0.00874815
-0.0093483
-0.00548941
-0.0057872
-0.00626507
-0.00681098
-0.00742926
-0.00815511
-0.00901227
-0.0100128
-0.0111515
-0.0124064
-0.0137458
-0.0151342
-0.0165386
-0.0179316
-0.0192921
-0.0206052
-0.0218615
-0.0230558
-0.0241866
-0.0252544
-0.0262611
-0.0272091
-0.0281012
-0.02894
-0.0297278
-0.0304666
-0.0311582
-0.0318037
-0.0324043
-0.0329607
-0.0334736
-0.0339433
-0.0343702
-0.0347546
-0.0350965
-0.0353963
-0.035654
-0.0358696
-0.0360435
-0.0361756
-0.0362661
-0.0363153
-0.0363232
-0.0362902
-0.0362163
-0.0361019
-0.0359472
-0.0357524
-0.0355179
-0.0352439
-0.0349308
-0.0345789
-0.0341886
-0.0337605
-0.0332949
-0.0327926
-0.0322543
-0.0316809
-0.0310734
-0.0304328
-0.0297604
-0.0290572
-0.0283241
-0.0275611
-0.0267677
-0.0259411
-0.0250765
-0.0241651
-0.0231934
-0.0221426
-0.0209899
-0.0197146
-0.018296
-0.0166923
-0.0148677
-0.0131898
-0.0116777
-0.0104567
-0.0100637
-0.0105638
-0.0063819
-0.00665671
-0.00711003
-0.00764342
-0.00825655
-0.00897854
-0.00982998
-0.0108208
-0.0119457
-0.0131813
-0.0144973
-0.0158598
-0.0172362
-0.0186
-0.0199311
-0.0212155
-0.0224444
-0.0236135
-0.0247211
-0.0257681
-0.0267562
-0.0276879
-0.0285657
-0.0293919
-0.0301688
-0.0308982
-0.0315814
-0.0322198
-0.0328142