/*--------------------------------*- C++ -*----------------------------------*\
  =========                 |
  \\      /  F ield         | OpenFOAM: The Open Source CFD Toolbox
   \\    /   O peration     | Website:  https://openfoam.org
    \\  /    A nd           | Version:  13
     \\/     M anipulation  |
\*---------------------------------------------------------------------------*/
FoamFile
{
    format      ascii;
    class       surfaceScalarField;
    location    "7.5";
    object      phi;
}
// * * * * * * * * * * * * * * * * * * * * * * * * * * * * * * * * * * * * * //

dimensions      [0 3 -1 0 0 0 0];

internalField   nonuniform List<scalar> 
12640
(
1.65166e-09
-1.65184e-09
1.52792e-08
-1.36276e-08
3.92651e-08
-2.39859e-08
6.69503e-08
-2.76852e-08
9.19434e-08
-2.49931e-08
1.10645e-07
-1.8702e-08
1.21701e-07
-1.1056e-08
1.26018e-07
-4.31668e-09
1.25903e-07
1.15501e-10
1.23693e-07
2.20923e-09
1.21374e-07
2.31983e-09
1.20218e-07
1.15582e-09
1.20627e-07
-4.09633e-10
1.22319e-07
-1.69122e-09
1.24446e-07
-2.12767e-09
1.26078e-07
-1.63196e-09
1.26336e-07
-2.58096e-10
1.24703e-07
1.63317e-09
1.20322e-07
4.38101e-09
1.12306e-07
8.01655e-09
1.00101e-07
1.22047e-08
8.31144e-08
1.69864e-08
6.09075e-08
2.22068e-08
3.32929e-08
2.76147e-08
2.34307e-10
3.30585e-08
-3.84506e-08
3.86849e-08
-8.41744e-08
4.57238e-08
-1.39349e-07
5.51749e-08
-2.06879e-07
6.75296e-08
-2.88961e-07
8.20816e-08
-3.84548e-07
9.55876e-08
-4.90034e-07
1.05486e-07
-6.0192e-07
1.11886e-07
-7.16772e-07
1.14852e-07
-8.31607e-07
1.14835e-07
-9.43819e-07
1.12212e-07
-1.05128e-06
1.07464e-07
-1.15227e-06
1.00991e-07
-1.24543e-06
9.31586e-08
-1.3297e-06
8.4272e-08
-1.40422e-06
7.45192e-08
-1.4683e-06
6.4077e-08
-1.52132e-06
5.30191e-08
-1.56271e-06
4.13888e-08
-1.59186e-06
2.9149e-08
-1.60854e-06
1.66816e-08
-1.61296e-06
4.41982e-09
-1.60312e-06
-9.83499e-09
-1.57988e-06
-2.32482e-08
-1.54213e-06
-3.77421e-08
-1.48999e-06
-5.2145e-08
-1.42327e-06
-6.67217e-08
-1.34227e-06
-8.09921e-08
-1.24746e-06
-9.48098e-08
-1.13949e-06
-1.07973e-07
-1.01925e-06
-1.2024e-07
-8.88149e-07
-1.31104e-07
-7.47987e-07
-1.40161e-07
-6.01126e-07
-1.46861e-07
-4.50432e-07
-1.50695e-07
-2.99388e-07
-1.51044e-07
-1.51825e-07
-1.47563e-07
-1.17503e-08
-1.40075e-07
1.17364e-07
-1.29114e-07
2.30889e-07
-1.13526e-07
3.24979e-07
-9.40896e-08
3.96308e-07
-7.1329e-08
4.42432e-07
-4.61243e-08
4.62027e-07
-1.95943e-08
4.53979e-07
8.04792e-09
4.21287e-07
3.26921e-08
3.66472e-07
5.48147e-08
2.95777e-07
7.06953e-08
2.18568e-07
7.72084e-08
1.45984e-07
7.2584e-08
8.53083e-08
6.06759e-08
4.03321e-08
4.49762e-08
1.16635e-08
2.86686e-08
-6.4527e-10
1.23088e-08
-6.45271e-10
1.05649e-08
-1.22168e-08
4.34137e-08
-4.64763e-08
8.88959e-08
-6.94681e-08
1.35306e-07
-7.40954e-08
1.75033e-07
-6.47201e-08
2.0429e-07
-4.79587e-08
2.22477e-07
-2.92433e-08
2.30602e-07
-1.24419e-08
2.30466e-07
2.51702e-10
2.24421e-07
8.25475e-09
2.14726e-07
1.20139e-08
2.02938e-07
1.2944e-08
1.89532e-07
1.29968e-08
1.73939e-07
1.39015e-08
1.55112e-07
1.66998e-08
1.31915e-07
2.15649e-08
1.03423e-07
2.82337e-08
6.83758e-08
3.66804e-08
2.55371e-08
4.72196e-08
-2.66223e-08
6.0176e-08
-9.01475e-08
7.573e-08
-1.66806e-07
9.36447e-08
-2.5779e-07
1.13191e-07
-3.63945e-07
1.3377e-07
-4.85824e-07
1.54938e-07
-6.23155e-07
1.76016e-07
-7.73399e-07
1.95968e-07
-9.32322e-07
2.14097e-07
-1.09449e-06
2.29693e-07
-1.25406e-06
2.4166e-07
-1.40762e-06
2.4914e-07
-1.55414e-06
2.52012e-07
-1.69223e-06
2.49969e-07
-1.82062e-06
2.43251e-07
-1.93835e-06
2.32557e-07
-2.04475e-06
2.18611e-07
-2.13935e-06
2.02064e-07
-2.22186e-06
1.83508e-07
-2.29208e-06
1.63372e-07
-2.34986e-06
1.42052e-07
-2.39509e-06
1.19749e-07
-2.42766e-06
9.66482e-08
-2.44748e-06
7.28364e-08
-2.45448e-06
4.83972e-08
-2.44872e-06
2.33811e-08
-2.42931e-06
-2.72148e-09
-2.39664e-06
-2.82582e-08
-2.351e-06
-5.54723e-08
-2.29129e-06
-8.2955e-08
-2.21805e-06
-1.10984e-07
-2.13093e-06
-1.39266e-07
-2.02999e-06
-1.67655e-07
-1.91518e-06
-1.95805e-07
-1.78669e-06
-2.23306e-07
-1.64507e-06
-2.49587e-07
-1.49146e-06
-2.73854e-07
-1.32713e-06
-2.95434e-07
-1.15391e-06
-3.1338e-07
-9.7414e-07
-3.26629e-07
-7.90506e-07
-3.34329e-07
-6.06029e-07
-3.3552e-07
-4.24139e-07
-3.29453e-07
-2.48443e-07
-3.1577e-07
-8.30778e-08
-2.9448e-07
6.88487e-08
-2.65452e-07
2.0394e-07
-2.29181e-07
3.18625e-07
-1.86014e-07
4.10395e-07
-1.37895e-07
4.7679e-07
-8.59888e-08
5.17273e-07
-3.24355e-08
5.30191e-07
1.97738e-08
5.16085e-07
6.89212e-08
4.76924e-07
1.09856e-07
4.14076e-07
1.40056e-07
3.30834e-07
1.55827e-07
2.37556e-07
1.53953e-07
1.46718e-07
1.35815e-07
7.07981e-08
1.04588e-07
1.99511e-08
6.31558e-08
1.93058e-08
2.00122e-08
-3.2229e-08
6.63966e-08
-9.28607e-08
1.18477e-07
-1.21549e-07
1.64349e-07
-1.19967e-07
1.99564e-07
-9.99355e-08
2.2317e-07
-7.15644e-08
2.35858e-07
-4.19313e-08
2.3861e-07
-1.51943e-08
2.326e-07
6.26154e-09
2.19311e-07
2.15438e-08
2.00131e-07
3.11946e-08
1.75635e-07
3.74394e-08
1.45629e-07
4.3003e-08
1.09292e-07
5.02386e-08
6.54579e-08
6.05338e-08
1.27012e-08
7.43216e-08
-5.07126e-08
9.16474e-08
-1.26594e-07
1.12561e-07
-2.16483e-07
1.37109e-07
-3.21606e-07
1.65299e-07
-4.42434e-07
1.96558e-07
-5.78599e-07
2.2981e-07
-7.29034e-07
2.63625e-07
-8.91256e-07
2.95992e-07
-1.06181e-06
3.25492e-07
-1.23643e-06
3.50632e-07
-1.41081e-06
3.70352e-07
-1.58097e-06
3.84257e-07
-1.74332e-06
3.92045e-07
-1.89531e-06
3.93646e-07
-2.03545e-06
3.89286e-07
-2.16282e-06
3.79379e-07
-2.27743e-06
3.64582e-07
-2.37974e-06
3.45555e-07
-2.47004e-06
3.22857e-07
-2.5487e-06
2.97273e-07
-2.61602e-06
2.69384e-07
-2.67225e-06
2.39739e-07
-2.71755e-06
2.08676e-07
-2.75205e-06
1.76549e-07
-2.7758e-06
1.43502e-07
-2.7888e-06
1.09641e-07
-2.79098e-06
7.50169e-08
-2.78221e-06
3.96281e-08
-2.76221e-06
3.38291e-09
-2.73126e-06
-3.36719e-08
-2.68804e-06
-7.1478e-08
-2.63313e-06
-1.10378e-07
-2.56598e-06
-1.50111e-07
-2.48634e-06
-1.90622e-07
-2.39398e-06
-2.31623e-07
-2.28877e-06
-2.72865e-07
-2.17067e-06
-3.1391e-07
-2.03982e-06
-3.54157e-07
-1.89664e-06
-3.92761e-07
-1.74184e-06
-4.28657e-07
-1.57647e-06
-4.60805e-07
-1.40194e-06
-4.87908e-07
-1.22015e-06
-5.08418e-07
-1.03361e-06
-5.20873e-07
-8.45116e-07
-5.24012e-07
-6.57983e-07
-5.16586e-07
-4.75829e-07
-4.97924e-07
-3.02373e-07
-4.67936e-07
-1.40838e-07
-4.26987e-07
5.58709e-09
-3.75606e-07
1.34612e-07
-3.15039e-07
2.43339e-07
-2.46623e-07
3.30323e-07
-1.72972e-07
3.94739e-07
-9.68521e-08
4.35709e-07
-2.11956e-08
4.52891e-07
5.17389e-08
4.45079e-07
1.17668e-07
4.13768e-07
1.71368e-07
3.60281e-07
2.09314e-07
2.87673e-07
2.26561e-07
2.02608e-07
2.2088e-07
1.15691e-07
1.91505e-07
4.06475e-08
1.38199e-07
5.99532e-08
2.78264e-08
-6.00554e-08
8.06381e-08
-1.45672e-07
1.30329e-07
-1.7124e-07
1.68335e-07
-1.57973e-07
1.93413e-07
-1.25013e-07
2.06788e-07
-8.49392e-08
2.09672e-07
-4.48158e-08
2.03197e-07
-8.71856e-09
1.88147e-07
2.13108e-08
1.64992e-07
4.46994e-08
1.3351e-07
6.26766e-08
9.31941e-08
7.77552e-08
4.32689e-08
9.29282e-08
-1.72085e-08
1.10716e-07
-8.93453e-08
1.32671e-07
-1.74509e-07
1.59485e-07
-2.74161e-07
1.91299e-07
-3.89571e-07
2.27972e-07
-5.21288e-07
2.68826e-07
-6.68811e-07
3.12821e-07
-8.30308e-07
3.58056e-07
-1.0026e-06
4.02102e-07
-1.18182e-06
4.42845e-07
-1.36365e-06
4.77823e-07
-1.54396e-06
5.05798e-07
-1.71884e-06
5.25511e-07
-1.88481e-06
5.36321e-07
-2.0392e-06
5.38651e-07
-2.1807e-06
5.33542e-07
-2.30893e-06
5.21877e-07
-2.42413e-06
5.04487e-07
-2.52691e-06
4.82155e-07
-2.6179e-06
4.55575e-07
-2.69783e-06
4.25487e-07
-2.76741e-06
3.92435e-07
-2.82717e-06
3.57039e-07
-2.87754e-06
3.19752e-07
-2.91881e-06
2.81008e-07
-2.95118e-06
2.41045e-07
-2.97471e-06
2.00081e-07
-2.98941e-06
1.58199e-07
-2.9952e-06
1.15434e-07
-2.99192e-06
7.17342e-08
-2.97932e-06
2.70307e-08
-2.95719e-06
-1.87536e-08
-2.92519e-06
-6.56655e-08
-2.88285e-06
-1.13819e-07
-2.82991e-06
-1.6332e-07
-2.7659e-06
-2.14119e-07
-2.69044e-06
-2.66082e-07
-2.60318e-06
-3.18886e-07
-2.50381e-06
-3.72232e-07
-2.39211e-06
-4.2561e-07
-2.26795e-06
-4.78321e-07
-2.13136e-06
-5.29345e-07
-1.98272e-06
-5.77299e-07
-1.82281e-06
-6.20718e-07
-1.65266e-06
-6.58055e-07
-1.47377e-06
-6.8731e-07
-1.28822e-06
-7.06428e-07
-1.09849e-06
-7.13739e-07
-9.07656e-07
-7.07419e-07
-7.19343e-07
-6.86236e-07
-5.37723e-07
-6.49556e-07
-3.66549e-07
-5.98162e-07
-2.08931e-07
-5.33224e-07
-6.79228e-08
-4.56046e-07
5.43788e-08
-3.68924e-07
1.56262e-07
-2.74855e-07
2.36673e-07
-1.77263e-07
2.95236e-07
-7.97584e-08
3.32669e-07
1.43052e-08
3.48968e-07
1.01369e-07
3.43468e-07
1.76867e-07
3.1631e-07
2.36472e-07
2.68171e-07
2.74699e-07
2.02877e-07
2.86175e-07
1.26268e-07
2.68113e-07
4.88739e-08
2.15594e-07
1.08827e-07
3.3823e-08
-9.38784e-08
8.59634e-08
-1.97813e-07
1.26938e-07
-2.12215e-07
1.53449e-07
-1.84483e-07
1.66303e-07
-1.37867e-07
1.67743e-07
-8.63794e-08
1.59146e-07
-3.62188e-08
1.41244e-07
9.18314e-09
1.14198e-07
4.8357e-08
7.75503e-08
8.1347e-08
3.03353e-08
1.09891e-07
-2.86299e-08
1.3672e-07
-1.00503e-07
1.64802e-07
-1.8636e-07
1.96573e-07
-2.87214e-07
2.33525e-07
-4.03916e-07
2.76187e-07
-5.36891e-07
3.24274e-07
-6.85878e-07
3.76959e-07
-8.49381e-07
4.3233e-07
-1.0243e-06
4.87736e-07
-1.2068e-06
5.40557e-07
-1.39232e-06
5.87625e-07
-1.57655e-06
6.27079e-07
-1.75528e-06
6.56547e-07
-1.92417e-06
6.74686e-07
-2.08068e-06
6.82027e-07
-2.22397e-06
6.79606e-07
-2.35406e-06
6.68747e-07
-2.47143e-06
6.50913e-07
-2.5768e-06
6.27242e-07
-2.67103e-06
5.98713e-07
-2.75494e-06
5.66066e-07
-2.82927e-06
5.29908e-07
-2.89467e-06
4.90882e-07
-2.95172e-06
4.4949e-07
-3.00086e-06
4.06175e-07
-3.0424e-06
3.61294e-07
-3.07657e-06
3.1518e-07
-3.10349e-06
2.67969e-07
-3.12318e-06
2.19772e-07
-3.13554e-06
1.70557e-07
-3.1405e-06
1.20393e-07
-3.13786e-06
6.90959e-08
-3.12734e-06
1.65091e-08
-3.10868e-06
-3.74109e-08
-3.08145e-06
-9.28951e-08
-3.04523e-06
-1.50044e-07
-2.99964e-06
-2.08912e-07
-2.94415e-06
-2.6961e-07
-2.87812e-06
-3.32103e-07
-2.80107e-06
-3.95937e-07
-2.7125e-06
-4.60803e-07
-2.61196e-06
-5.26152e-07
-2.49902e-06
-5.91258e-07
-2.3733e-06
-6.55072e-07
-2.23475e-06
-7.15844e-07
-2.08387e-06
-7.71596e-07
-1.92122e-06
-8.2071e-07
-1.7478e-06
-8.60732e-07
-1.56536e-06
-8.88866e-07
-1.37599e-06
-9.03108e-07
-1.18252e-06
-9.00889e-07
-9.8807e-07
-8.80686e-07
-7.96684e-07
-8.40942e-07
-6.13075e-07
-7.8177e-07
-4.41552e-07
-7.04748e-07
-2.85239e-07
-6.12359e-07
-1.46879e-07
-5.07284e-07
-2.86355e-08
-3.93099e-07
6.82154e-08
-2.74114e-07
1.43253e-07
-1.54796e-07
1.96983e-07
-3.9425e-08
2.30349e-07
6.80036e-08
2.43795e-07
1.63421e-07
2.37722e-07
2.42546e-07
2.12444e-07
2.99977e-07
1.68931e-07
3.29687e-07
1.10273e-07
3.26772e-07
4.41975e-08
2.81669e-07
1.53025e-07
3.72932e-08
-1.31172e-07
8.22216e-08
-2.42741e-07
1.1054e-07
-2.40534e-07
1.23122e-07
-1.97065e-07
1.22829e-07
-1.37574e-07
1.11652e-07
-7.52019e-08
9.05682e-08
-1.51354e-08
5.97062e-08
4.00451e-08
1.85925e-08
8.94707e-08
-3.39096e-08
1.33849e-07
-9.91825e-08
1.75164e-07
-1.78618e-07
2.16156e-07
-2.7339e-07
2.59574e-07
-3.84342e-07
3.07524e-07
-5.11909e-07
3.61092e-07
-6.55856e-07
4.20133e-07
-8.15083e-07
4.83501e-07
-9.87235e-07
5.49111e-07
-1.16884e-06
6.13931e-07
-1.35529e-06
6.74187e-07
-1.54208e-06
7.27351e-07
-1.7243e-06
7.6984e-07
-1.89677e-06
7.99557e-07
-2.05651e-06
8.16286e-07
-2.2027e-06
8.20874e-07
-2.33559e-06
8.14911e-07
-2.45596e-06
7.99982e-07
-2.56485e-06
7.77641e-07
-2.66315e-06
7.49205e-07
-2.75167e-06
7.15762e-07
-2.83116e-06
6.78205e-07
-2.90226e-06
6.37169e-07
-2.96561e-06
5.93261e-07
-3.02173e-06
5.46996e-07
-3.07102e-06
4.98785e-07
-3.11379e-06
4.48945e-07
-3.15022e-06
3.97719e-07
-3.18046e-06
3.45425e-07
-3.20464e-06
2.92145e-07
-3.22281e-06
2.3794e-07
-3.23478e-06
1.82531e-07
-3.24066e-06
1.26271e-07
-3.24035e-06
6.87872e-08
-3.23358e-06
9.73602e-09
-3.2204e-06
-5.05887e-08
-3.20028e-06
-1.13017e-07
-3.17273e-06
-1.77596e-07
-3.13722e-06
-2.44415e-07
-3.09325e-06
-3.13582e-07
-3.03999e-06
-3.85367e-07
-2.97667e-06
-4.59252e-07
-2.90244e-06
-5.35032e-07
-2.8165e-06
-6.121e-07
-2.71828e-06
-6.89475e-07
-2.6073e-06
-7.66048e-07
-2.48291e-06
-8.40237e-07
-2.34489e-06
-9.09616e-07
-2.1933e-06
-9.72297e-07
-2.02851e-06
-1.02553e-06
-1.852e-06
-1.06538e-06
-1.66526e-06
-1.08985e-06
-1.47089e-06
-1.09526e-06
-1.27179e-06
-1.07978e-06
-1.07175e-06
-1.04098e-06
-8.75162e-07
-9.78359e-07
-6.87492e-07
-8.92418e-07
-5.13295e-07
-7.86556e-07
-3.55964e-07
-6.64615e-07
-2.18429e-07
-5.30633e-07
-1.02752e-07
-3.89791e-07
-9.81201e-09
-2.47735e-07
6.07038e-08
-1.09941e-07
1.10017e-07
1.86908e-08
1.3967e-07
1.33767e-07
1.50767e-07
2.31449e-07
1.43951e-07
3.06793e-07
1.197e-07
3.53938e-07
8.02829e-08
3.66189e-07
3.19522e-08
3.29999e-07
1.84977e-07
3.72283e-08
-1.684e-07
6.9529e-08
-2.75042e-07
8.3042e-08
-2.54047e-07
8.0927e-08
-1.9495e-07
6.69845e-08
-1.23631e-07
4.26136e-08
-5.0831e-08
8.12236e-09
1.93558e-08
-3.6957e-08
8.51244e-08
-9.36695e-08
1.46183e-07
-1.63414e-07
2.03593e-07
-2.47671e-07
2.59422e-07
-3.4771e-07
3.16194e-07
-4.64348e-07
3.76213e-07
-5.9778e-07
4.40956e-07
-7.47426e-07
5.10738e-07
-9.11737e-07
5.84445e-07
-1.08783e-06
6.59591e-07
-1.27156e-06
7.32843e-07
-1.45825e-06
8.00621e-07
-1.64284e-06
8.58781e-07
-1.81935e-06
9.03858e-07
-1.98377e-06
9.34265e-07
-2.13456e-06
9.5034e-07
-2.2718e-06
9.53531e-07
-2.39639e-06
9.45466e-07
-2.50937e-06
9.27887e-07
-2.61179e-06
9.02407e-07
-2.70465e-06
8.70495e-07
-2.78872e-06
8.33277e-07
-2.86467e-06
7.91713e-07
-2.93305e-06
7.46583e-07
-2.99437e-06
6.9849e-07
-3.04909e-06
6.47983e-07
-3.09758e-06
5.95482e-07
-3.14017e-06
5.41375e-07
-3.1771e-06
4.85876e-07
-3.20838e-06
4.28997e-07
-3.23424e-06
3.71286e-07
-3.25481e-06
3.12721e-07
-3.2702e-06
2.53328e-07
-3.28067e-06
1.92994e-07
-3.28591e-06
1.31517e-07
-3.28583e-06
6.87022e-08
-3.28016e-06
4.06713e-09
-3.26923e-06
-6.15143e-08
-3.25302e-06
-1.29233e-07
-3.23145e-06
-1.99161e-07
-3.20433e-06
-2.71536e-07
-3.17136e-06
-3.46553e-07
-3.1322e-06
-4.24525e-07
-3.08581e-06
-5.05641e-07
-3.03113e-06
-5.89718e-07
-2.96683e-06
-6.76394e-07
-2.89118e-06
-7.65122e-07
-2.80221e-06
-8.55027e-07
-2.6983e-06
-9.44147e-07
-2.57877e-06
-1.02914e-06
-2.4438e-06
-1.10726e-06
-2.29378e-06
-1.17555e-06
-2.12869e-06
-1.23047e-06
-1.94941e-06
-1.26913e-06
-1.75839e-06
-1.28627e-06
-1.55798e-06
-1.2802e-06
-1.35191e-06
-1.24705e-06
-1.14427e-06
-1.186e-06
-9.40427e-07
-1.09626e-06
-7.46916e-07
-9.80067e-07
-5.68649e-07
-8.42882e-07
-4.0928e-07
-6.90003e-07
-2.71936e-07
-5.27135e-07
-1.58518e-07
-3.61153e-07
-6.9397e-08
-1.99062e-07
-3.44479e-09
-4.72614e-08
4.12521e-08
8.907e-08
6.71035e-08
2.05598e-07
7.57116e-08
2.98185e-07
6.79991e-08
3.61651e-07
4.62636e-08
3.87925e-07
1.68687e-08
3.59394e-07
2.01845e-07
3.24573e-08
-2.00857e-07
4.95461e-08
-2.92131e-07
4.70918e-08
-2.51592e-07
3.00354e-08
-1.77894e-07
2.17416e-09
-9.57702e-08
-3.58625e-08
-1.27943e-08
-8.4485e-08
6.79784e-08
-1.44638e-07
1.45278e-07
-2.17631e-07
2.19176e-07
-3.04883e-07
2.90845e-07
-4.07659e-07
3.62198e-07
-5.26799e-07
4.35335e-07
-6.6245e-07
5.11864e-07
-8.13932e-07
5.92438e-07
-9.79495e-07
6.76301e-07
-1.15591e-06
7.60854e-07
-1.33873e-06
8.42418e-07
-1.52302e-06
9.17135e-07
-1.70271e-06
9.80309e-07
-1.87254e-06
1.02861e-06
-2.0294e-06
1.06071e-06
-2.17268e-06
1.07755e-06
-2.30286e-06
1.08051e-06
-2.42089e-06
1.07156e-06
-2.52786e-06
1.05244e-06
-2.6249e-06
1.02493e-06
-2.71293e-06
9.9044e-07
-2.79269e-06
9.50248e-07
-2.86474e-06
9.05327e-07
-2.92957e-06
8.56544e-07
-2.98759e-06
8.04604e-07
-3.03919e-06
7.50089e-07
-3.08468e-06
6.93473e-07
-3.12425e-06
6.3505e-07
-3.1582e-06
5.75326e-07
-3.18715e-06
5.14825e-07
-3.21177e-06
4.53625e-07
-3.23213e-06
3.91643e-07
-3.24824e-06
3.28829e-07
-3.25991e-06
2.64997e-07
-3.26736e-06
2.00448e-07
-3.27054e-06
1.34701e-07
-3.26967e-06
6.78298e-08
-3.26434e-06
-1.26293e-09
-3.25544e-06
-7.04161e-08
-3.24249e-06
-1.42185e-07
-3.22542e-06
-2.16232e-07
-3.20407e-06
-2.92885e-07
-3.17815e-06
-3.72471e-07
-3.14756e-06
-4.55117e-07
-3.11191e-06
-5.41292e-07
-3.07078e-06
-6.30841e-07
-3.02352e-06
-7.23658e-07
-2.96932e-06
-8.19322e-07
-2.90719e-06
-9.17155e-07
-2.8348e-06
-1.01653e-06
-2.74795e-06
-1.116e-06
-2.64262e-06
-1.21259e-06
-2.51704e-06
-1.30113e-06
-2.37164e-06
-1.37587e-06
-2.20828e-06
-1.43249e-06
-2.02818e-06
-1.46638e-06
-1.83298e-06
-1.4754e-06
-1.62636e-06
-1.45367e-06
-1.41221e-06
-1.40015e-06
-1.1953e-06
-1.31317e-06
-9.82777e-07
-1.19259e-06
-7.82274e-07
-1.04339e-06
-5.99252e-07
-8.73024e-07
-4.37694e-07
-6.88693e-07
-3.00886e-07
-4.97961e-07
-1.90458e-07
-3.0949e-07
-1.06141e-07
-1.31579e-07
-4.5789e-08
2.87184e-08
-6.14651e-09
1.65955e-07
1.55756e-08
2.76463e-07
2.17688e-08
3.55458e-07
1.5536e-08
3.94158e-07
3.31009e-09
3.7162e-07
2.05156e-07
2.33565e-08
-2.24214e-07
2.3818e-08
-2.92592e-07
4.76231e-09
-2.32537e-07
-2.66871e-08
-1.46444e-07
-6.84792e-08
-5.39781e-08
-1.20537e-07
3.92632e-08
-1.83675e-07
1.31117e-07
-2.59124e-07
2.20727e-07
-3.48209e-07
3.08261e-07
-4.52122e-07
3.94757e-07
-5.71683e-07
4.81759e-07
-7.07055e-07
5.70707e-07
-8.5763e-07
6.62438e-07
-1.02172e-06
7.56526e-07
-1.19591e-06
8.5049e-07
-1.37563e-06
9.40581e-07
-1.55566e-06
1.02244e-06
-1.72977e-06
1.09125e-06
-1.89322e-06
1.14376e-06
-2.04374e-06
1.17913e-06
-2.18087e-06
1.19784e-06
-2.30517e-06
1.20185e-06
-2.41764e-06
1.19299e-06
-2.5194e-06
1.17332e-06
-2.6115e-06
1.14454e-06
-2.69479e-06
1.10822e-06
-2.76995e-06
1.06559e-06
-2.83748e-06
1.01778e-06
-2.89782e-06
9.65675e-07
-2.95138e-06
9.10099e-07
-2.9985e-06
8.51724e-07
-3.03957e-06
7.91157e-07
-3.0751e-06
7.29004e-07
-3.10576e-06
6.65716e-07
-3.13192e-06
6.01484e-07
-3.15343e-06
5.3633e-07
-3.1704e-06
4.706e-07
-3.18291e-06
4.04148e-07
-3.19122e-06
3.37147e-07
-3.19592e-06
2.69687e-07
-3.19728e-06
2.01817e-07
-3.19574e-06
1.33159e-07
-3.19147e-06
6.35585e-08
-3.18525e-06
-7.48761e-09
-3.17614e-06
-7.95182e-08
-3.16466e-06
-1.53666e-07
-3.15079e-06
-2.30109e-07
-3.13448e-06
-3.09195e-07
-3.11567e-06
-3.91272e-07
-3.09412e-06
-4.76667e-07
-3.06963e-06
-5.65791e-07
-3.04163e-06
-6.58833e-07
-3.00941e-06
-7.55882e-07
-2.97198e-06
-8.56753e-07
-2.92832e-06
-9.60811e-07
-2.87762e-06
-1.06724e-06
-2.81842e-06
-1.17519e-06
-2.74886e-06
-1.28215e-06
-2.66387e-06
-1.38612e-06
-2.55603e-06
-1.4837e-06
-2.422e-06
-1.56653e-06
-2.26278e-06
-1.6256e-06
-2.08301e-06
-1.65516e-06
-1.88427e-06
-1.65242e-06
-1.67095e-06
-1.61347e-06
-1.44726e-06
-1.53685e-06
-1.21971e-06
-1.42014e-06
-9.97244e-07
-1.26585e-06
-7.8904e-07
-1.08123e-06
-6.01227e-07
-8.76507e-07
-4.3815e-07
-6.61038e-07
-3.03114e-07
-4.44526e-07
-1.97248e-07
-2.37445e-07
-1.19281e-07
-4.92494e-08
-6.57937e-08
1.12468e-07
-3.21451e-08
2.42814e-07
-1.43218e-08
3.37634e-07
-7.27276e-09
3.87108e-07
-5.34575e-09
3.69693e-07
1.9981e-07
1.11598e-08
-2.35374e-07
-5.97637e-09
-2.75456e-07
-4.05805e-08
-1.97932e-07
-8.649e-08
-1.00535e-07
-1.42277e-07
1.80909e-09
-2.08337e-07
1.05323e-07
-2.85859e-07
2.08639e-07
-3.76112e-07
3.10979e-07
-4.80224e-07
4.12374e-07
-5.98976e-07
5.13509e-07
-7.32557e-07
6.1534e-07
-8.80485e-07
7.18635e-07
-1.04128e-06
8.23234e-07
-1.21166e-06
9.26901e-07
-1.38693e-06
1.02576e-06
-1.56171e-06
1.11536e-06
-1.73029e-06
1.19102e-06
-1.88822e-06
1.24918e-06
-2.03343e-06
1.28897e-06
-2.16536e-06
1.31105e-06
-2.28463e-06
1.31711e-06
-2.39221e-06
1.30943e-06
-2.48921e-06
1.28999e-06
-2.57656e-06
1.26067e-06
-2.65505e-06
1.22302e-06
-2.72525e-06
1.17842e-06
-2.78766e-06
1.12801e-06
-2.84271e-06
1.07283e-06
-2.89084e-06
1.0138e-06
-2.93247e-06
9.5173e-07
-2.96807e-06
8.8733e-07
-2.99813e-06
8.21211e-07
-3.02293e-06
7.53806e-07
-3.04276e-06
6.85542e-07
-3.05794e-06
6.16668e-07
-3.06898e-06
5.47372e-07
-3.07635e-06
4.77967e-07
-3.08065e-06
4.08452e-07
-3.08236e-06
3.38857e-07
-3.08175e-06
2.69073e-07
-3.07892e-06
1.98986e-07
-3.07412e-06
1.28365e-07
-3.06754e-06
5.69767e-08
-3.05953e-06
-1.54953e-08
-3.04986e-06
-8.91943e-08
-3.03883e-06
-1.64692e-07
-3.02663e-06
-2.42312e-07
-3.01335e-06
-3.22469e-07
-2.99908e-06
-4.0555e-07
-2.98377e-06
-4.91977e-07
-2.96739e-06
-5.82172e-07
-2.94973e-06
-6.7649e-07
-2.93042e-06
-7.75195e-07
-2.90881e-06
-8.78355e-07
-2.88384e-06
-9.85786e-07
-2.85396e-06
-1.09711e-06
-2.81761e-06
-1.21155e-06
-2.77266e-06
-1.32709e-06
-2.7172e-06
-1.44158e-06
-2.64873e-06
-1.55217e-06
-2.56099e-06
-1.65428e-06
-2.44297e-06
-1.74361e-06
-2.29251e-06
-1.80563e-06
-2.11286e-06
-1.83206e-06
-1.91067e-06
-1.81566e-06
-1.68934e-06
-1.75818e-06
-1.45484e-06
-1.65465e-06
-1.21536e-06
-1.50533e-06
-9.82082e-07
-1.31451e-06
-7.66042e-07
-1.09255e-06
-5.74192e-07
-8.52889e-07
-4.11129e-07
-6.07588e-07
-2.79908e-07
-3.68666e-07
-1.80751e-07
-1.48406e-07
-1.11e-07
4.27168e-08
-6.53125e-08
1.97127e-07
-3.76701e-08
3.09992e-07
-2.04219e-08
3.6986e-07
-9.2368e-09
3.58508e-07
1.90573e-07
-2.86626e-09
-2.32507e-07
-3.70373e-08
-2.41285e-07
-8.71094e-08
-1.4786e-07
-1.4718e-07
-4.0464e-08
-2.1657e-07
7.11984e-08
-2.96262e-07
1.85015e-07
-3.87475e-07
2.99852e-07
-4.91362e-07
4.14867e-07
-6.08704e-07
5.29716e-07
-7.39734e-07
6.44539e-07
-8.84093e-07
7.59699e-07
-1.04057e-06
8.75108e-07
-1.20617e-06
9.88834e-07
-1.3763e-06
1.09704e-06
-1.5457e-06
1.19516e-06
-1.70907e-06
1.27874e-06
-1.86221e-06
1.34415e-06
-2.00287e-06
1.38984e-06
-2.13045e-06
1.41655e-06
-2.24534e-06
1.42595e-06
-2.34859e-06
1.42036e-06
-2.44113e-06
1.40198e-06
-2.52385e-06
1.37271e-06
-2.5974e-06
1.33423e-06
-2.66234e-06
1.28796e-06
-2.71912e-06
1.2352e-06
-2.7682e-06
1.17709e-06
-2.81007e-06
1.11469e-06
-2.84522e-06
1.04896e-06
-2.87422e-06
9.80724e-07
-2.8976e-06
9.10715e-07
-2.91591e-06
8.39519e-07
-2.9297e-06
7.67593e-07
-2.93949e-06
6.95335e-07
-2.94583e-06
6.23006e-07
-2.94927e-06
5.50809e-07
-2.95019e-06
4.78891e-07
-2.94896e-06
4.07225e-07
-2.94585e-06
3.35746e-07
-2.9411e-06
2.64318e-07
-2.93489e-06
1.92777e-07
-2.92741e-06
1.20887e-07
-2.91884e-06
4.84033e-08
-2.90938e-06
-2.49556e-08
-2.89909e-06
-9.94833e-08
-2.88819e-06
-1.7559e-07
-2.87687e-06
-2.5363e-07
-2.86532e-06
-3.34018e-07
-2.85371e-06
-4.17165e-07
-2.84217e-06
-5.03514e-07
-2.83084e-06
-5.93507e-07
-2.81976e-06
-6.87569e-07
-2.80888e-06
-7.86074e-07
-2.79793e-06
-8.893e-07
-2.78632e-06
-9.97401e-07
-2.77308e-06
-1.11035e-06
-2.75691e-06
-1.22772e-06
-2.73553e-06
-1.34847e-06
-2.70606e-06
-1.47106e-06
-2.66552e-06
-1.59271e-06
-2.61076e-06
-1.70903e-06
-2.53789e-06
-1.81648e-06
-2.43618e-06
-1.90734e-06
-2.29581e-06
-1.97243e-06
-2.11793e-06
-1.99354e-06
-1.91132e-06
-1.96478e-06
-1.6806e-06
-1.88537e-06
-1.43387e-06
-1.75205e-06
-1.18154e-06
-1.56684e-06
-9.37349e-07
-1.33674e-06
-7.14305e-07
-1.07593e-06
-5.20249e-07
-8.01644e-07
-3.59746e-07
-5.29169e-07
-2.35168e-07
-2.72985e-07
-1.45256e-07
-4.71951e-08
-8.52993e-08
1.37171e-07
-4.79078e-08
2.726e-07
-2.39818e-08
3.45934e-07
-8.46254e-09
3.42989e-07
1.8211e-07
-1.78647e-08
-2.14643e-07
-6.86665e-08
-1.90483e-07
-1.33216e-07
-8.33108e-08
-2.06703e-07
3.30227e-08
-2.89081e-07
1.53577e-07
-3.81501e-07
2.77435e-07
-4.85175e-07
4.03525e-07
-6.00978e-07
5.3067e-07
-7.29242e-07
6.57979e-07
-8.69723e-07
7.8502e-07
-1.02146e-06
9.11434e-07
-1.18186e-06
1.03551e-06
-1.34663e-06
1.15361e-06
-1.51075e-06
1.26116e-06
-1.66937e-06
1.35377e-06
-1.81842e-06
1.42779e-06
-1.95531e-06
1.48104e-06
-2.07922e-06
1.51375e-06
-2.19045e-06
1.52778e-06
-2.28984e-06
1.52534e-06
-2.37832e-06
1.50884e-06
-2.45664e-06
1.4803e-06
-2.52542e-06
1.44148e-06
-2.58515e-06
1.39396e-06
-2.63633e-06
1.33914e-06
-2.67949e-06
1.27836e-06
-2.71521e-06
1.21281e-06
-2.74414e-06
1.14363e-06
-2.76698e-06
1.07179e-06
-2.78442e-06
9.98167e-07
-2.79716e-06
9.23451e-07
-2.80584e-06
8.48204e-07
-2.8111e-06
7.72854e-07
-2.81349e-06
6.97721e-07
-2.81349e-06
6.23008e-07
-2.81152e-06
5.48835e-07
-2.80786e-06
4.75233e-07
-2.80276e-06
4.02129e-07
-2.79642e-06
3.29407e-07
-2.78902e-06
2.5691e-07
-2.78069e-06
1.84447e-07
-2.77158e-06
1.11778e-07
-2.76183e-06
3.86544e-08
-2.75158e-06
-3.52032e-08
-2.74096e-06
-1.10102e-07
-2.73016e-06
-1.86396e-07
-2.71935e-06
-2.64435e-07
-2.70876e-06
-3.44607e-07
-2.69861e-06
-4.27316e-07
-2.68913e-06
-5.12991e-07
-2.68056e-06
-6.02077e-07
-2.67311e-06
-6.95021e-07
-2.66693e-06
-7.92255e-07
-2.66206e-06
-8.94175e-07
-2.65834e-06
-1.00112e-06
-2.6554e-06
-1.11329e-06
-2.65245e-06
-1.23067e-06
-2.64805e-06
-1.35287e-06
-2.64009e-06
-1.47902e-06
-2.62546e-06
-1.60735e-06
-2.59949e-06
-1.735e-06
-2.55842e-06
-1.85754e-06
-2.49685e-06
-1.96891e-06
-2.40741e-06
-2.06188e-06
-2.27522e-06
-2.12573e-06
-2.09877e-06
-2.14124e-06
-1.88618e-06
-2.09796e-06
-1.64437e-06
-1.99386e-06
-1.38411e-06
-1.8271e-06
-1.11861e-06
-1.60225e-06
-8.64415e-07
-1.33012e-06
-6.36648e-07
-1.02941e-06
-4.43619e-07
-7.22198e-07
-2.89462e-07
-4.27143e-07
-1.75064e-07
-1.61593e-07
-9.7112e-08
5.92187e-08
-4.83444e-08
2.23833e-07
-1.96926e-08
3.17282e-07
-4.13628e-09
3.27433e-07
1.77974e-07
-3.29101e-08
-1.81732e-07
-9.91452e-08
-1.24248e-07
-1.77268e-07
-5.18809e-09
-2.63248e-07
1.19003e-07
-3.5759e-07
2.47919e-07
-4.61487e-07
3.81331e-07
-5.75998e-07
5.18036e-07
-7.01653e-07
6.56326e-07
-8.38368e-07
7.94694e-07
-9.85398e-07
9.3205e-07
-1.14055e-06
1.06658e-06
-1.30001e-06
1.19497e-06
-1.45917e-06
1.31276e-06
-1.61349e-06
1.41549e-06
-1.75908e-06
1.49936e-06
-1.89301e-06
1.56173e-06
-2.01403e-06
1.60206e-06
-2.12229e-06
1.62202e-06
-2.21847e-06
1.62396e-06
-2.30342e-06
1.61028e-06
-2.37783e-06
1.58325e-06
-2.44227e-06
1.54473e-06
-2.49725e-06
1.49647e-06
-2.54333e-06
1.44004e-06
-2.58113e-06
1.37694e-06
-2.61137e-06
1.3086e-06
-2.63485e-06
1.23629e-06
-2.65242e-06
1.16119e-06
-2.6649e-06
1.08427e-06
-2.67309e-06
1.00636e-06
-2.67772e-06
9.28078e-07
-2.67943e-06
8.49915e-07
-2.67878e-06
7.72208e-07
-2.67624e-06
6.95176e-07
-2.67216e-06
6.18931e-07
-2.66683e-06
5.43505e-07
-2.66045e-06
4.6885e-07
-2.65317e-06
3.94852e-07
-2.64513e-06
3.21364e-07
-2.63642e-06
2.482e-07
-2.62713e-06
1.75159e-07
-2.61735e-06
1.02005e-07
-2.60719e-06
2.8489e-08
-2.59673e-06
-4.56596e-08
-2.58611e-06
-1.20728e-07
-2.57547e-06
-1.97033e-07
-2.565e-06
-2.749e-07
-2.55493e-06
-3.54682e-07
-2.54549e-06
-4.3675e-07
-2.53698e-06
-5.21506e-07
-2.52968e-06
-6.09372e-07
-2.52392e-06
-7.00789e-07
-2.51996e-06
-7.96212e-07
-2.51804e-06
-8.96096e-07
-2.51828e-06
-1.00088e-06
-2.52065e-06
-1.11092e-06
-2.52485e-06
-1.22647e-06
-2.53017e-06
-1.34755e-06
-2.53536e-06
-1.47383e-06
-2.53829e-06
-1.60442e-06
-2.53567e-06
-1.73761e-06
-2.52282e-06
-1.87039e-06
-2.49368e-06
-1.99805e-06
-2.44237e-06
-2.11319e-06
-2.36023e-06
-2.20788e-06
-2.23341e-06
-2.26806e-06
-2.0561e-06
-2.27527e-06
-1.83529e-06
-2.21467e-06
-1.58055e-06
-2.08183e-06
-1.30592e-06
-1.87688e-06
-1.02787e-06
-1.60817e-06
-7.66208e-07
-1.29108e-06
-5.37856e-07
-9.5055e-07
-3.50842e-07
-6.14156e-07
-2.0813e-07
-3.04305e-07
-1.08361e-07
-4.05499e-08
-4.56545e-08
1.61126e-07
-1.17311e-08
2.83359e-07
2.05324e-09
3.13648e-07
1.80027e-07
-4.72681e-08
-1.34464e-07
-1.27548e-07
-4.39686e-08
-2.17857e-07
8.51214e-08
-3.15246e-07
2.16392e-07
-4.20244e-07
3.52917e-07
-5.34061e-07
4.95148e-07
-6.57536e-07
6.41512e-07
-7.90859e-07
7.89649e-07
-9.33503e-07
9.37337e-07
-1.08365e-06
1.0822e-06
-1.23805e-06
1.22098e-06
-1.39264e-06
1.34956e-06
-1.54318e-06
1.4633e-06
-1.68588e-06
1.55818e-06
-1.8176e-06
1.63109e-06
-1.9366e-06
1.68072e-06
-2.04269e-06
1.70815e-06
-2.13644e-06
1.71577e-06
-2.21857e-06
1.70609e-06
-2.28977e-06
1.68148e-06
-2.35058e-06
1.64407e-06
-2.40157e-06
1.59572e-06
-2.44335e-06
1.53824e-06
-2.47665e-06
1.47334e-06
-2.50234e-06
1.40264e-06
-2.52137e-06
1.32762e-06
-2.5347e-06
1.24962e-06
-2.54326e-06
1.16976e-06
-2.54794e-06
1.08895e-06
-2.54951e-06
1.00792e-06
-2.54863e-06
9.27197e-07
-2.54585e-06
8.47134e-07
-2.5416e-06
7.67964e-07
-2.53623e-06
6.89803e-07
-2.52998e-06
6.12675e-07
-2.52301e-06
5.36536e-07
-2.51544e-06
4.61279e-07
-2.50734e-06
3.86759e-07
-2.49879e-06
3.12808e-07
-2.48981e-06
2.3922e-07
-2.48043e-06
1.65783e-07
-2.47071e-06
9.22806e-08
-2.46069e-06
1.84702e-08
-2.45044e-06
-5.59074e-08
-2.44006e-06
-1.31106e-07
-2.42969e-06
-2.07406e-07
-2.41949e-06
-2.85099e-07
-2.40968e-06
-3.64494e-07
-2.40051e-06
-4.45923e-07
-2.39227e-06
-5.29742e-07
-2.38531e-06
-6.16336e-07
-2.37998e-06
-7.06119e-07
-2.37665e-06
-7.99535e-07
-2.37569e-06
-8.97057e-07
-2.3774e-06
-9.99171e-07
-2.38196e-06
-1.10636e-06
-2.3894e-06
-1.21903e-06
-2.39944e-06
-1.3375e-06
-2.41142e-06
-1.46185e-06
-2.42407e-06
-1.59177e-06
-2.4353e-06
-1.72639e-06
-2.44181e-06
-1.86389e-06
-2.43873e-06
-2.00112e-06
-2.41897e-06
-2.13296e-06
-2.37518e-06
-2.25167e-06
-2.2976e-06
-2.34564e-06
-2.17178e-06
-2.40109e-06
-1.99046e-06
-2.39598e-06
-1.75873e-06
-2.31357e-06
-1.48942e-06
-2.14619e-06
-1.20032e-06
-1.89727e-06
-9.11877e-07
-1.57952e-06
-6.47576e-07
-1.21485e-06
-4.25018e-07
-8.36714e-07
-2.51002e-07
-4.78321e-07
-1.26285e-07
-1.65267e-07
-4.66674e-08
8.15083e-08
-5.25428e-09
2.41946e-07
7.51753e-09
3.00876e-07
1.87545e-07
-6.03502e-08
-7.41141e-08
-1.5289e-07
4.85708e-08
-2.54164e-07
1.86396e-07
-3.61498e-07
3.23726e-07
-4.75601e-07
4.6702e-07
-5.9758e-07
6.17127e-07
-7.28042e-07
7.71973e-07
-8.66775e-07
9.28382e-07
-1.01234e-06
1.0829e-06
-1.16204e-06
1.2319e-06
-1.31251e-06
1.37145e-06
-1.45976e-06
1.49681e-06
-1.60009e-06
1.60364e-06
-1.73029e-06
1.68837e-06
-1.84814e-06
1.74893e-06
-1.95298e-06
1.78557e-06
-2.04518e-06
1.80035e-06
-2.12539e-06
1.79598e-06
-2.19425e-06
1.77495e-06
-2.25235e-06
1.73958e-06
-2.30027e-06
1.69199e-06
-2.33873e-06
1.63417e-06
-2.36855e-06
1.56807e-06
-2.39073e-06
1.49552e-06
-2.40633e-06
1.41824e-06
-2.41644e-06
1.33773e-06
-2.42209e-06
1.25526e-06
-2.4242e-06
1.17187e-06
-2.4236e-06
1.08835e-06
-2.42096e-06
1.00528e-06
-2.41681e-06
9.23054e-07
-2.41159e-06
8.41909e-07
-2.40559e-06
7.61964e-07
-2.39903e-06
6.8324e-07
-2.39204e-06
6.05688e-07
-2.3847e-06
5.29201e-07
-2.37706e-06
4.53631e-07
-2.36911e-06
3.7881e-07
-2.36085e-06
3.04557e-07
-2.35229e-06
2.30657e-07
-2.3434e-06
1.56895e-07
-2.3342e-06
8.30724e-08
-2.3247e-06
8.97326e-09
-2.31494e-06
-6.56658e-08
-2.305e-06
-1.41045e-07
-2.29499e-06
-2.17415e-07
-2.28506e-06
-2.95029e-07
-2.2754e-06
-3.74151e-07
-2.26626e-06
-4.55065e-07
-2.25793e-06
-5.38076e-07
-2.25074e-06
-6.23521e-07
-2.2451e-06
-7.11768e-07
-2.2414e-06
-8.03229e-07
-2.2401e-06
-8.98359e-07
-2.24161e-06
-9.97657e-07
-2.24631e-06
-1.10166e-06
-2.25445e-06
-1.2109e-06
-2.26608e-06