/*--------------------------------*- C++ -*----------------------------------*\
  =========                 |
  \\      /  F ield         | OpenFOAM: The Open Source CFD Toolbox
   \\    /   O peration     | Website:  https://openfoam.org
    \\  /    A nd           | Version:  13
     \\/     M anipulation  |
\*---------------------------------------------------------------------------*/
FoamFile
{
    format      ascii;
    class       volScalarField;
    location    "9.1";
    object      epsilon;
}
// * * * * * * * * * * * * * * * * * * * * * * * * * * * * * * * * * * * * * //

dimensions      [0 2 -3 0 0 0 0];

internalField   nonuniform List<scalar> 
6400
(
2.90131e-05
0.000149043
0.000362556
0.00058386
0.000750204
0.00084321
0.000876682
0.000879711
0.000885065
0.000917646
0.000996843
0.0011516
0.00139552
0.00173351
0.00214742
0.00261416
0.00310964
0.00362431
0.00413337
0.00462506
0.00512022
0.00566172
0.0063068
0.00708758
0.00796878
0.00885425
0.00973491
0.0106094
0.0115053
0.0124465
0.0134193
0.014392
0.0153488
0.016294
0.0172503
0.0182239
0.0192342
0.0202873
0.0213958
0.0225625
0.0237959
0.0251056
0.0264986
0.0279914
0.0295979
0.0313759
0.0334339
0.0360046
0.0385224
0.0411089
0.0436257
0.0460691
0.0483538
0.0504197
0.052189
0.0535604
0.0542409
0.0545074
0.0543331
0.0532433
0.0513531
0.0486773
0.0452431
0.041198
0.0366097
0.0317228
0.0267696
0.0219361
0.0173981
0.0133821
0.0101008
0.00734776
0.00512448
0.00342776
0.00220601
0.00137254
0.000828223
0.000476909
0.000226018
4.82285e-05
0.000140178
0.000140896
0.00023082
0.000334303
0.000411688
0.000458449
0.0004815
0.000492104
0.00050429
0.000531945
0.000590035
0.000699118
0.000876011
0.00113354
0.00147535
0.00190242
0.00241661
0.00302457
0.00373203
0.00454906
0.00548293
0.00657602
0.00787922
0.00941547
0.0111731
0.0131814
0.0152404
0.017216
0.0190007
0.0204993
0.0216302
0.0224964
0.0230812
0.0234804
0.0237325
0.0238968
0.0240136
0.0241169
0.0242288
0.02437
0.0245635
0.0248124
0.0251157
0.0254494
0.0258414
0.0263279
0.0268921
0.0275394
0.0282549
0.0290074
0.0297947
0.0305713
0.0313193
0.0319876
0.0325339
0.03282
0.0329049
0.0327599
0.0323243
0.0314683
0.0302448
0.0286132
0.0265845
0.024234
0.0216498
0.0189391
0.0162176
0.0135976
0.0111662
0.00902027
0.00720064
0.00563763
0.00429488
0.00315495
0.0022126
0.00145106
0.000886541
0.000498955
0.000259902
0.000254976
0.000306538
0.000256902
0.000344061
0.000432049
0.000484752
0.000511333
0.000525992
0.000543041
0.000577977
0.00064942
0.000781889
0.0010045
0.00134505
0.00182359
0.00245286
0.00324488
0.00421218
0.00536906
0.00672529
0.00828752
0.0100619
0.0120093
0.0140394
0.0159924
0.0176803
0.0188599
0.0195659
0.0199457
0.0201334
0.0202715
0.0203385
0.0202395
0.0199249
0.019631
0.0193248
0.0190618
0.0188509
0.0187323
0.0186872
0.0186885
0.0188193
0.0190199
0.0193296
0.0197607
0.020303
0.020932
0.0216443
0.0224343
0.0232964
0.0242146
0.0251784
0.0261631
0.0271453
0.028088
0.0289507
0.0296835
0.0301971
0.0304132
0.0304223
0.030028
0.029182
0.0278798
0.0261079
0.0239689
0.0215528
0.0189608
0.016319
0.0137423
0.0113347
0.00917793
0.00731741
0.00575163
0.00445497
0.00338857
0.00251456
0.00181002
0.00123205
0.000772388
0.000479387
0.000682831
0.000532556
0.000443194
0.000542143
0.000626377
0.00066967
0.000692036
0.000714654
0.000758973
0.000848876
0.00101653
0.00130271
0.00175062
0.0023959
0.00326006
0.00435266
0.00567775
0.00723358
0.00899748
0.0109121
0.0128801
0.014763
0.0164132
0.0176747
0.0183371
0.0186108
0.0186735
0.0185992
0.0182332
0.0176669
0.0170629
0.0164058
0.0158949
0.0155045
0.0151728
0.0149264
0.0147809
0.0147194
0.0147106
0.0148128
0.0149913
0.0152633
0.0156142
0.0160547
0.0165794
0.0171879
0.0178785
0.0186524
0.0195082
0.0204441
0.0214535
0.0225291
0.0236559
0.0248139
0.0259733
0.0270959
0.0281308
0.0290185
0.0296518
0.0299338
0.0299631
0.0295014
0.0286165
0.0272838
0.0253296
0.0229822
0.0203359
0.0175413
0.0147506
0.012107
0.00972459
0.00767414
0.00597624
0.00460939
0.00352667
0.00267299
0.00199949
0.00145359
0.00100676
0.000720544
0.00113957
0.000854848
0.000701482
0.000799137
0.000880632
0.000926548
0.000962773
0.00101783
0.00112393
0.00132078
0.00165849
0.00219322
0.00297424
0.00402994
0.00536322
0.00695552
0.00876709
0.0107274
0.0127211
0.0145831
0.0161437
0.0171736
0.0176283
0.017754
0.0176906
0.0172528
0.0165021
0.0156261
0.0148151
0.0141591
0.0135509
0.0130496
0.0126612
0.0123592
0.0121346
0.0119985
0.0119366
0.0119203
0.0119693
0.012095
0.0122758
0.0125214
0.0128273
0.0131984
0.0136352
0.0141424
0.0147233
0.015383
0.0161261
0.0169575
0.0178803
0.018895
0.0199986
0.0211828
0.0224327
0.0237254
0.0250202
0.0262634
0.0273894
0.0283187
0.028851
0.0290288
0.0287502
0.0279236
0.0266212
0.024577
0.0220303
0.0191572
0.0161463
0.0131938
0.0104778
0.00812713
0.00620143
0.00469174
0.00354107
0.00266963
0.00200934
0.00150134
0.00110658
0.000880969
0.00145734
0.00131499
0.0010401
0.00112005
0.00120353
0.0012673
0.00133973
0.00145909
0.00167277
0.00203904
0.00262419
0.00348934
0.00467067
0.0061652
0.00792874
0.00987925
0.0118955
0.0138155
0.0154531
0.0165411
0.0170064
0.0171122
0.0169543
0.016387
0.0153952
0.0143858
0.0134918
0.0126794
0.0119963
0.0114245
0.0109381
0.0105486
0.0102364
0.00999063
0.00980397
0.00967097
0.00958893
0.00955162
0.00954281
0.00958145
0.00965987
0.00977772
0.00993773
0.0101414
0.010393
0.0106978
0.0110627
0.0114964
0.0120094
0.0126131
0.0133205
0.0141437
0.0150942
0.01618
0.0174025
0.018755
0.0202225
0.0217674
0.0233412
0.0248714
0.0262515
0.0273315
0.0278467
0.0279542
0.0273816
0.0262277
0.0240862
0.0213402
0.0181976
0.0149102
0.0117468
0.00893828
0.00662764
0.00485025
0.00355144
0.00261986
0.00195567
0.00146783
0.00110572
0.000946248
0.00157635
0.00195338
0.00146532
0.00151711
0.0016134
0.00171393
0.00184927
0.00207077
0.0024431
0.00303997
0.00393166
0.00516289
0.00673059
0.00857345
0.0105745
0.0125698
0.0143598
0.0157221
0.0163811
0.016569
0.0164912
0.0159293
0.0148674
0.0137369
0.0127115
0.0117872
0.0109994
0.0103184
0.00974784
0.00926255
0.00885262
0.00850979
0.00822004
0.00797675
0.00777337
0.00760546
0.00746941
0.00736186
0.00728139
0.00723431
0.00721359
0.0072095
0.00723947
0.00729932
0.00739397
0.00752511
0.00769965
0.00792419
0.00820816
0.0085634
0.00900681
0.00955829
0.0102408
0.0110795
0.0120961
0.0133121
0.0147503
0.0164055
0.0182434
0.0202122
0.0222416
0.0242101
0.0259483
0.0270903
0.0275383
0.0274612
0.0264045
0.0241579
0.02113
0.0175982
0.0139227
0.0104771
0.00755367
0.00529507
0.00368732
0.00260648
0.00187596
0.0013894
0.00106811
0.000939038
0.00153182
0.00280735
0.00198201
0.0020042
0.00212782
0.00228741
0.00251492
0.00287685
0.0034522
0.0043186
0.00552961
0.00708814
0.00892835
0.0109142
0.012854
0.0145263
0.0156063
0.0160386
0.0161056
0.0157233
0.0147791
0.0135471
0.0123971
0.0113393
0.0104288
0.00963976
0.00896833
0.00838905
0.00789303
0.00746249
0.00709011
0.00676633
0.00648381
0.00623803
0.00602489
0.00584178
0.00568634
0.00555582
0.00544915
0.00536596
0.00530406
0.0052699
0.00525664
0.00525626
0.00529312
0.00535196
0.00544284
0.00556681
0.00573069
0.00594012
0.00620292
0.00653081
0.00693967
0.00745317
0.0081086
0.00895068
0.010028
0.0114007
0.0130966
0.0151106
0.017424
0.0199234
0.0225003
0.0249297
0.0268835
0.0278327
0.0280956
0.0272158
0.0247955
0.0213533
0.0172888
0.0131172
0.00934243
0.00631395
0.00414188
0.00273288
0.00186529
0.00131984
0.00100161
0.000903381
0.00142436
0.00390275
0.00259374
0.00259088
0.0027637
0.0030027
0.00334894
0.00388065
0.00468163
0.00581537
0.00729583
0.00906373
0.0109796
0.0128381
0.0143999
0.0152851
0.0155806
0.0155737
0.0149386
0.0137675
0.0124877
0.0112906
0.0102392
0.00932143
0.00853944
0.00786398
0.00728217
0.00677557
0.00633527
0.00595036
0.00561538
0.00532379
0.00507149
0.00485487
0.00467054
0.00451553
0.00438736
0.00428411
0.00420385
0.00414499
0.0041085
0.004092
0.00408777
0.00410318
0.00414118
0.00419675
0.00427438
0.00437395
0.00449883
0.00465176
0.00483734
0.00506152
0.0053326
0.00566172
0.00606415
0.00656321
0.00719357
0.00801166
0.00911614
0.0106355
0.0126368
0.0151108
0.0180134
0.0211562
0.0243165
0.02708
0.0286538
0.0292268
0.0285356
0.0258351
0.021828
0.0170954
0.0123563
0.00825955
0.00518414
0.00316236
0.00197563
0.00131334
0.000948348
0.000844932
0.00130162
0.00524929
0.00330854
0.00329038
0.00352636
0.00386313
0.00434582
0.00505765
0.00607313
0.00742233
0.00906205
0.0108632
0.0126219
0.0140926
0.0148886
0.0151418
0.015001
0.0142056
0.0129265
0.0116307
0.0104087
0.00934433
0.00842934
0.00764257
0.00696839
0.00638399
0.00587834
0.00543957
0.00506115
0.00473597
0.00445932
0.00422588
0.00403149
0.00387182
0.00374302
0.00364147
0.00356386
0.00350742
0.00347044
0.0034526
0.00344671
0.00345185
0.00347493
0.00351015
0.00355995
0.00362287
0.00370073
0.00379404
0.00390465
0.00403442
0.00418608
0.00436305
0.00456998
0.00481321
0.00510164
0.00544503
0.00586004
0.00637346
0.00702788
0.00789257
0.00908861
0.0108548
0.0133202
0.0164593
0.0201364
0.0240252
0.0276476
0.0298894
0.030751
0.0301906
0.0270629
0.0223239
0.016812
0.0114942
0.00715518
0.0041408
0.00234241
0.00139622
0.000939797
0.000792924
0.00119845
0.00687236
0.00414297
0.00410729
0.00441422
0.00485814
0.00547948
0.00635588
0.00753729
0.00900572
0.0106547
0.0122949
0.0136859
0.0144441
0.0146855
0.0144763
0.0135831
0.0122864
0.0109451
0.00971429
0.00863148
0.00771049
0.00692219
0.00624651
0.00566669
0.00516807
0.00474257
0.00438184
0.00407984
0.00382987
0.0036261
0.00346236
0.00333319
0.0032333
0.00315811
0.00310365
0.00306667
0.0030473
0.00303953
0.00303876
0.0030525
0.00307538
0.00310966
0.00315366
0.00320893
0.00327552
0.00335482
0.00344784
0.00355604
0.00368094
0.0038243
0.00398806
0.00417445
0.00438618
0.00462685
0.00490174
0.00521903
0.00559197
0.00604277
0.00660296
0.00732969
0.00832648
0.00977421
0.012042
0.0152888
0.0194012
0.0240173
0.0285596
0.0314539
0.0325583
0.0319928
0.0282347
0.0225857
0.0162272
0.0104088
0.00599132
0.00317813
0.00167611
0.000992512
0.00077373
0.00115687
0.00884398
0.00512146
0.00503723
0.00541353
0.00596202
0.0067054
0.00770393
0.00897115
0.0104353
0.0119344
0.0132426
0.0139866
0.0142287
0.0139985
0.0130753
0.0118015
0.010435
0.00917557
0.00807887
0.00714266
0.00635061
0.00567514
0.005101
0.00461488
0.00420685
0.00386916
0.00359345
0.00337205
0.00319688
0.00306056
0.0029561
0.0028775
0.0028196
0.00277833
0.00275043
0.00273548
0.00272924
0.0027281
0.00273672
0.00275406
0.00277905
0.00281298
0.00285597
0.00290929
0.00297382
0.00305095
0.00314203
0.00324865
0.00337245
0.00351521
0.0036787
0.00386469
0.00407481
0.00431061
0.00457367
0.00486606
0.00519153
0.00555769
0.00598031
0.00648957
0.00713923
0.00801351
0.00928756
0.0112816
0.0145098
0.0189708
0.0243126
0.0298086
0.0332747
0.0345346
0.0337246
0.0290692
0.0223296
0.0151431
0.00903222
0.00477011
0.00232087
0.00118018
0.000803253
0.00119279
0.0110313
0.00620405
0.00605892
0.00649862
0.00713678
0.00796737
0.00902383
0.0102781
0.0116096
0.0128194
0.0135535
0.013799
0.0135866
0.0127005
0.0114519
0.0100807
0.00878692
0.00766359
0.00671045
0.00590733
0.00523142
0.00466242
0.00418851
0.00379829
0.00348217
0.00323044
0.00303306
0.00288057
0.00276403
0.00267575
0.00260918
0.00255919
0.00252185
0.00249434
0.00247476
0.00246256
0.00245679
0.00245512
0.00246024
0.00247308
0.00249301
0.00252131
0.0025587
0.0026064
0.00266555
0.0027376
0.00282405
0.00292663
0.00304722
0.00318786
0.00335067
0.00353781
0.00375126
0.00399268
0.00426321
0.00456325
0.00489265
0.00525137
0.0056415
0.00607159
0.00656458
0.00717136
0.00797874
0.00914344
0.0109826
0.0141232
0.0188964
0.0249675
0.0314285
0.035274
0.0365312
0.03513
0.029228
0.0212538
0.0134391
0.00737112
0.00354626
0.00162401
0.000925683
0.00135539
0.013372
0.00736593
0.00714603
0.00763556
0.00833698
0.0092057
0.0102435
0.0113832
0.012469
0.0131811
0.0134253
0.0132626
0.0124493
0.0112376
0.00986637
0.00854051
0.0073772
0.00639766
0.00557832
0.00489564
0.00432919
0.0038637
0.00348758
0.00318862
0.00295523
0.00277557
0.00263854
0.00253432
0.00245458
0.00239278
0.00234393
0.00230453
0.00227223
0.00224561
0.00222398
0.00220719
0.00219562
0.00219015
0.00218873
0.00219427
0.00220799
0.00222974
0.00226071
0.00230193
0.00235457
0.00242
0.00249976
0.00259562
0.00270963
0.00284407
0.00300149
0.00318459
0.00339615
0.0036388
0.00391466
0.00422499
0.00456969
0.00494709
0.00535416
0.00578819
0.0062509
0.00675722
0.00735163
0.00812993
0.00924365
0.011026
0.0141388
0.0192388
0.0260837
0.0334763
0.0373326
0.0384033
0.035879
0.0282874
0.0191609
0.0111135
0.0055263
0.00247553
0.00122987
0.00175739
0.0157897
0.00857725
0.00826694
0.00878538
0.00951445
0.010364
0.0113035
0.0122348
0.0128962
0.013131
0.0130318
0.0123072
0.0111534
0.00978809
0.00842898
0.00721631
0.00619561
0.00535102
0.00465409
0.00408326
0.00362086
0.0032526
0.00296485
0.00274348
0.00257511
0.00244729
0.00234939
0.00227285
0.00221114
0.00215964
0.00211524
0.00207611
0.00204127
0.00201039
0.00198358
0.00196116
0.00194362
0.00193235
0.00192736
0.00192649
0.00193455
0.00195102
0.00197626
0.00201146
0.00205755
0.00211583
0.00218775
0.00227504
0.00237977
0.00250436
0.0026516
0.00282468
0.00302709
0.0032625
0.00353446
0.00384596
0.00419879
0.00459282
0.00502523
0.00549041
0.00598123
0.00649317
0.00703385
0.00764187
0.00841699
0.00952409
0.0113177
0.0145423
0.0201072
0.0278843
0.0357869
0.0393762
0.039998
0.0354289
0.0259441
0.016025
0.00836135
0.00380677
0.001792
0.00241649
0.0182153
0.00980665
0.00938746
0.00990775
0.0106231
0.0113934
0.0121576
0.0127382
0.0129585
0.0128877
0.0122716
0.01119
0.00984432
0.00845164
0.00717989
0.00610232
0.0052178
0.00449669
0.00391246
0.00344535
0.00307804
0.00279466
0.00257924
0.00241651
0.00229296
0.0021972
0.00212045
0.00205631
0.00200043
0.00195015
0.00190399
0.00186137
0.00182222
0.00178681
0.00175559
0.00172905
0.00170771
0.00169209
0.001684
0.0016811
0.00168391
0.00169677
0.00171733
0.00174733
0.00178736
0.00183862
0.0019024
0.00198034
0.00207441
0.00218698
0.00232093
0.00247965
0.00266706
0.0028876
0.00314603
0.00344714
0.0037951
0.00419267
0.00463995
0.00513327
0.0056644
0.00622152
0.00679363
0.00738137
0.00802005
0.00881731
0.0099548
0.0118298
0.0153092
0.0215304
0.0304817
0.0384363
0.0413923
0.0409948
0.0332769
0.0220707
0.0121309
0.005669
0.00260982
0.00327257
0.0205956
0.0110217
0.0104736
0.0109642
0.0116229
0.0122574
0.0127497
0.0129487
0.0128536
0.0123497
0.0113428
0.0100315
0.00861159
0.00727201
0.00612045
0.0051775
0.00441778
0.00380937
0.00332796
0.00295368
0.00266777
0.0024524
0.00229058
0.00216746
0.00207102
0.00199211
0.00192437
0.00186367
0.00180764
0.00175514
0.00170581
0.0016598
0.00161746
0.00157926
0.00154568
0.00151713
0.00149402
0.00147667
0.00146673
0.00146273
0.00146255
0.00147248
0.00148949
0.00151506
0.00154972
0.00159448
0.00165049
0.00171923
0.00180249
0.00190251
0.00202203
0.0021644
0.00233364
0.00253453
0.00277257
0.00305383
0.00338456
0.00377048
0.00421562
0.00472065
0.00528107
0.0058858
0.00651773
0.00715851
0.00780152
0.00848166
0.00932315
0.0105277
0.0125769
0.0165166
0.023584
0.0338899
0.0413945
0.0434508
0.0402649
0.0291161
0.0169559
0.00813544
0.00370845
0.00427196
0.0228847
0.0121905
0.0114916
0.0119207
0.0124837
0.0129073
0.0130736
0.0129611
0.0125391
0.011614
0.0103467
0.00891164
0.00750131
0.00625828
0.00523494
0.00441748
0.00377079
0.00326411
0.00287366
0.00257805
0.00235697
0.00219174
0.00206605
0.00196692
0.00188474
0.00181299
0.00174763
0.00168646
0.00162854
0.00157371
0.00152219
0.00147441
0.00143083
0.00139186
0.00135786
0.0013291
0.00130582
0.0012882
0.00127726
0.00127241
0.00127145
0.00127863
0.00129296
0.00131477
0.00134476
0.00138373
0.00143271
0.00149298
0.00156614
0.00165422
0.00175971
0.00188574
0.00203617
0.00221572
0.0024301
0.00268601
0.00299104
0.00335319
0.00378004
0.00427715
0.0048459
0.00548077
0.00616714
0.00688149
0.00759704
0.00830019
0.0090305
0.00993508
0.0112537
0.0136218
0.0183422
0.0266072
0.0381792
0.0439453
0.0447263
0.0367103
0.0229614
0.0113641
0.00513703
0.00536653
0.0249935
0.0132837
0.0124149
0.0127539
0.0131704
0.0133447
0.0132582
0.0128303
0.0120023
0.0107909
0.00935356
0.00787768
0.00652974
0.00540146
0.00450209
0.00379853
0.0032531
0.00283599
0.0025225
0.00228974
0.00211682
0.00198579
0.00188238
0.00179622
0.0017204
0.00165075
0.00158514
0.00152272
0.00146341
0.0014075
0.00135545
0.00130768
0.00126456
0.00122634
0.00119323
0.00116535
0.00114278
0.00112558
0.00111436
0.00110915
0.00110778
0.00111285
0.00112496
0.00114359
0.00116956
0.00120349
0.00124629
0.00129907
0.00136324
0.00144058
0.00153331
0.00164424
0.0017769
0.0019357
0.00212616
0.00235502
0.00263037
0.00296155
0.00335865
0.00383141
0.00438724
0.00502814
0.00574693
0.00652398
0.00732733
0.00812045
0.00888557
0.00967616
0.010657
0.0121677
0.0151149
0.0210871
0.0312784
0.042379
0.0463436
0.043794
0.0301075
0.0155386
0.0069496
0.00652288
0.0268474
0.0142732
0.0132214
0.0134425
0.013659
0.0136355
0.0132419
0.0125147
0.0113624
0.00993983
0.00840963
0.00695195
0.00569538
0.00468498
0.00390013
0.00329839
0.00284197
0.00250104
0.00224967
0.00206436
0.00192503
0.00181574
0.00172495
0.00164503
0.00157149
0.00150206
0.00143587
0.00137288
0.00131343
0.00125794
0.00120682
0.00116038
0.00111882
0.00108225
0.00105072
0.00102422
0.00100274
0.000986261
0.000975074
0.000969695
0.000968041
0.000971462
0.000981648
0.000997588
0.00102009
0.00104968
0.00108714
0.00113345
0.00118984
0.00125784
0.0013394
0.001437
0.00155377
0.0016937
0.00186184
0.0020646
0.00230993
0.00260756
0.00296889
0.00340648
0.00393265
0.00455681
0.00528133
0.0060961
0.00697398
0.00787104
0.00873893
0.0095602
0.0104182
0.0115012
0.0133236
0.017123
0.0248094
0.0375256
0.0464136
0.047972
0.0379872
0.0208343
0.00919177
0.00773031
0.0284053
0.0151384
0.0138911
0.0139615
0.0140213
0.0137682
0.0131181
0.012058
0.0106685
0.00910375
0.00754136
0.0061403
0.0049876
0.00409017
0.00340854
0.00289642
0.0025163
0.00223779
0.00203432
0.00188309
0.00176594
0.00166965
0.00158549
0.00150831
0.00143552
0.00136612
0.00130005
0.00123761
0.00117924
0.00112532
0.00107611
0.00103176
0.000992325
0.000957777
0.000928052
0.000903073
0.000882767
0.000867073
0.000856017
0.000850526
0.000848643
0.000850711
0.000859211
0.000872849
0.000892368
0.000918234
0.000951131
0.000991906
0.00104163
0.00110164
0.00117363
0.00125976
0.00136276
0.00148617
0.0016345
0.00181356
0.00203081
0.00229567
0.00261983
0.00301718
0.00350325
0.00409335
0.00479901
0.00562222
0.00654793
0.00753761
0.00853059
0.00946539
0.0103344
0.01126
0.012508
0.0148804
0.02019
0.030429
0.044057
0.0494385
0.0455988
0.0273556
0.0119324
0.00898377
0.0296449
0.0158766
0.014416
0.0143331
0.0142334
0.0137458
0.0128469
0.0115303
0.00995993
0.00831107
0.00676095
0.00543878
0.00439202
0.00359879
0.00300862
0.00257396
0.00225743
0.00202827
0.00186033
0.00173256
0.00162943
0.00154058
0.0014598
0.00138394
0.00131171
0.00124294
0.00117789
0.00111698
0.00106058
0.00100893
0.000962126
0.000920185
0.00088303
0.000850546
0.000822605
0.00079908
0.000779868
0.000764892
0.00075411
0.000748431
0.000746341
0.000747282
0.000754287
0.000765951
0.000782907
0.000805581
0.000834571
0.000870621
0.000914666
0.000967878
0.00103173
0.00110811
0.00119938
0.00130864
0.00143984
0.00159817
0.00179036
0.00202515
0.00231379
0.00267037
0.00311189
0.00365742
0.00432568
0.00513006
0.00607058
0.00712356
0.00823316
0.00931629
0.0103002
0.0112063
0.012204
0.0137646
0.0171624
0.0247827
0.0386971
0.0494692
0.0508832
0.0351046
0.0153351
0.0103479
0.0305629
0.0164864
0.0147987
0.0145661
0.0143009
0.0136343
0.0124791
0.0109634
0.00926473
0.0075785
0.00607099
0.00483834
0.00389349
0.0031941
0.00268373
0.00231469
0.00204975
0.00185842
0.001716
0.00160388
0.00150938
0.00142476
0.0013459
0.00127106
0.00119982
0.00113238
0.00106912
0.00101042
0.00095648
0.000907403
0.000863158
0.00082364
0.000788696
0.000758156
0.000731855
0.000709646
0.000691411
0.000677069
0.000666562
0.000660669
0.000658387
0.000658444
0.000664095
0.000674067
0.000688819
0.000708752
0.000734393
0.000766403
0.000805607
0.000853034
0.000909981
0.000978081
0.00105942
0.00115667
0.0012733
0.00141385
0.00158429
0.00179253
0.00204894
0.00236705
0.00276403
0.00326077
0.00388066
0.00464616
0.00557167
0.00665213
0.00784895
0.00908032
0.0102346
0.011235
0.0121412
0.013299
0.0154673
0.0207382
0.0319099
0.0475096
0.0532018
0.0437602
0.0197232
0.0120835
0.0311742
0.0169667
0.0150511
0.0146698
0.0142579
0.0134011
0.0120535
0.0103839
0.00860223
0.00691412
0.00546818
0.00432778
0.00347754
0.00286122
0.00241946
0.00210492
0.00188083
0.00171781
0.00159329
0.00149144
0.00140226
0.00132024
0.00124283
0.00116923
0.0010995
0.00103398
0.000973024
0.000916857
0.000865564
0.000819102
0.000777344
0.000740109
0.000707199
0.000678417
0.000653581
0.00063254
0.000615172
0.000601396
0.000591157
0.000584988
0.00058238
0.000582045
0.000586391
0.000594911
0.000607766
0.00062534
0.000648101
0.00067664
0.000711692
0.000754173
0.000805229
0.0008663
0.000939211
0.0010263
0.00113059
0.00125606
0.00140794
0.00159324
0.00182132
0.0021047
0.00245985
0.00290793
0.00347473
0.00418886
0.00507661
0.00615143
0.00739757
0.00875092
0.010091
0.0112715
0.0122549
0.0131792
0.0146705
0.0181016
0.0265159
0.0428032
0.0537529
0.0519645
0.0254101
0.0144315
0.0314809
0.0173238
0.0151851
0.0146559
0.0141265
0.0130923
0.0115933
0.00981169
0.00798444
0.00632005
0.00494601
0.00389555
0.00313106
0.00258726
0.00220365
0.00193358
0.00174123
0.00159901
0.00148689
0.00139177
0.00130604
0.00122592
0.00114997
0.00107797
0.00101019
0.000946963
0.000888538
0.000835006
0.000786326
0.00074236
0.000702909
0.000667753
0.000636669
0.000609449
0.000585912
0.000565903
0.000549305
0.000536034
0.000526039
0.000519642
0.000516757
0.000516143
0.000519378
0.000526641
0.000537863
0.000553398
0.000573668
0.000599205
0.000630674
0.000668895
0.000714895
0.000769955
0.000835691
0.000914159
0.00100801
0.00112072
0.00125688
0.00142263
0.00162631
0.00187921
0.00219663
0.00259897
0.00311253
0.0037693
0.00460392
0.00564559
0.00690257
0.00833921
0.00985263
0.0112743
0.0124348
0.0132928
0.01439
0.0166334
0.0226835
0.0362492
0.0532627
0.0573107
0.0329057
0.0173937
0.0314634
0.0175549
0.0152117
0.0145735
0.0138941
0.0127315
0.0111176
0.00926095
0.00741789
0.00579456
0.00449648
0.00353064
0.00284256
0.00236132
0.00202634
0.00179201
0.00162399
0.00149689
0.00139336
0.00130279
0.00121951
0.00114107
0.00106676
0.000996667
0.000931105
0.000870338
0.000814485
0.00076352
0.000717305
0.000675635
0.000638274
0.000604979
0.000575519
0.000549687
0.000527304
0.00050822
0.000492319
0.000479517
0.000469766
0.000463212
0.000460105
0.000459263
0.000461582
0.000467757
0.00047757
0.000491337
0.000509442
0.000532368
0.000560718
0.000595241
0.000636865
0.000686742
0.000746321
0.000817431
0.000902416
0.00100432
0.00112718
0.00127639
0.00145928
0.00168592
0.00197021
0.00233117
0.00279444
0.00339314
0.00416705
0.00515727
0.00639306
0.00786802
0.00950777
0.0111483
0.0125685
0.013597
0.0143605
0.0159501
0.0199894
0.0305631
0.0503369
0.0596597
0.0425579
0.0208461
0.0312984
0.0177014
0.0151727
0.0143952
0.0135998
0.0123364
0.0106412
0.00874111
0.00690513
0.00533364
0.00411126
0.00322308
0.00260216
0.00217432
0.00187956
0.00167364
0.00152409
0.00140797
0.00131046
0.00122312
0.00114183
0.00106507
0.000992582
0.000924585
0.000861356
0.000803053
0.000749682
0.000701122
0.000657168
0.000617575
0.000582084
0.000550447
0.000522434
0.000497842
0.000476497
0.000458254
0.000443
0.00043065
0.000421155
0.000414518
0.000411235
0.000410207
0.000411782
0.000417017
0.000425614
0.000437843
0.000454056
0.000474696
0.000500316
0.000531602
0.000569403
0.000614773
0.000669022
0.000733798
0.000811196
0.00090392
0.00101552
0.00115073
0.00131602
0.00152028
0.00177594
0.00210039
0.00251775
0.00306069
0.00377131
0.00469873
0.00588981
0.00736763
0.00909548
0.0109327
0.0126201
0.0139365
0.0147118
0.0157336
0.0184334
0.0265697
0.0448712
0.0602013
0.0529023
0.0244518
0.0309317
0.0177835
0.0150674
0.0141497
0.0132595
0.0119217
0.0101752
0.00825795
0.00644597
0.00493209
0.00378231
0.00296407
0.00240155
0.00201886
0.00175706
0.00157354
0.00143797
0.00132985
0.00123669
0.00115182
0.00107233
0.000997301
0.000926747
0.000860916
0.000800007
0.000744071
0.000693021
0.000646664
0.000604753
0.00056702
0.0005332
0.000503044
0.000476327
0.000452854
0.000432454
0.000414988
0.00040034
0.000388427
0.00037919
0.000372599
0.000369152
0.00036797
0.000368951
0.000373376
0.000380919
0.000391809
0.000406364
0.000424992
0.000448206
0.000476639
0.000511077
0.000552491
0.000602085
0.00066136
0.000732212
0.000817067
0.00091908
0.00104245
0.00119285
0.00137814
0.00160936
0.00190216
0.00227878
0.00277038
0.0034192
0.00427881
0.00540866
0.00685725
0.00862756
0.0106253
0.0126134
0.0142213
0.0151329
0.0157811
0.0176677
0.0234159
0.0391458
0.0593705
0.0616548
0.0273945
0.0303595
0.0177805
0.0148901
0.0138566
0.0128879
0.0114995
0.00972752
0.00781443
0.00603845
0.00458429
0.00350222
0.00274606
0.00223381
0.001889
0.00165401
0.00148808
0.0013631
0.0012609
0.00117099
0.00108816
0.00101037
0.000937113
0.000868533
0.000804844
0.000746157
0.000692433
0.000643507
0.000599143
0.000559066
0.000522997
0.000490671
0.000461844
0.000436299
0.000413845
0.000394316
0.000377575
0.000363505
0.000352019
0.000343052
0.000336569
0.000332995
0.00033169
0.000332208
0.000335936
0.000342567
0.000352287
0.000365385
0.000382239
0.000403323
0.000429229
0.000460688
0.000498605
0.000544097
0.000598551
0.000663705
0.00074176
0.000835559
0.000948839
0.00108664
0.00125589
0.00146636
0.00173204
0.0020731
0.00251857
0.00310943
0.00390078
0.00496021
0.00635595
0.00812648
0.0102258
0.0124567
0.0144459
0.0156647
0.0162625
0.0173992
0.0213169
0.0336127
0.0572139
0.0661392
0.0287637
0.0296134
0.0177454
0.0146748
0.0135307
0.0124977
0.0110794
0.0093036
0.0074115
0.00567957
0.00428461
0.00326439
0.00256262
0.00209327
0.00178001
0.00156672
0.00141457
0.00129764
0.00119989
0.00111254
0.0010315
0.000955348
0.000883866
0.000817224
0.000755585
0.000698975
0.000647278
0.000600277
0.000557702
0.000519265
0.000484686
0.000453702
0.000426076
0.000401597
0.000380078
0.000361358
0.000345298
0.000331782
0.000320715
0.000312028
0.000305679
0.000302016
0.000300614
0.000300787
0.000303918
0.000309758
0.000318455
0.000330272
0.000345557
0.000364752
0.000388411
0.00041722
0.000452028
0.000493881
0.000544076
0.000604223
0.000676352
0.00076305
0.000867691
0.000994771
0.00115045
0.00134337
0.00158597
0.00189639
0.00230127
0.00283936
0.0035653
0.0045512
0.00588022
0.00762234
0.0097815
0.0122127
0.0145472
0.0161283
0.0168028
0.0173929
0.0201796
0.0298145
0.0529825
0.0677609
0.0290074
0.0287355
0.0176635
0.0144318
0.013184
0.0120994
0.0106685
0.00890677
0.00704865
0.00536577
0.00402773
0.00306303
0.00240836
0.00197532
0.00168815
0.00149234
0.001351
0.00124026
0.00114594
0.00106067
0.00098125
0.000906691
0.000836933
0.000772143
0.00071242
0.000657716
0.000607855
0.000562583
0.00052161
0.000484643
0.000451401
0.000421627
0.000395091
0.000371586
0.000350929
0.000332961
0.000317543
0.000304553
0.000293895
0.000285493
0.000279295
0.000275567
0.000274069
0.000274022
0.000276637
0.000281789
0.000289592
0.000300282
0.000314179
0.000331698
0.000353357
0.000379803
0.000411836
0.000450445
0.000496851
0.000552566
0.000619483
0.000699991
0.000797172
0.000915087
0.00105924
0.00123732
0.00146037
0.00174461
0.0021142
0.00260514
0.00327009
0.00418249
0.00543515
0.00712343
0.0092987
0.0118838
0.0145714
0.0166274
0.0175059
0.0179143
0.0196448
0.0270331
0.0479906
0.0678219
0.0284342
0.0277603
0.017551
0.0141721
0.0128272
0.0117016
0.0102724
0.00853881
0.00672444
0.00509333
0.00380881
0.00289317
0.00227883
0.00187622
0.00161049
0.00142873
0.00129586
0.00118992
0.00109832
0.00101481
0.000936879
0.000863841
0.000795722
0.000732664
0.000674701
0.000621725
0.000573516
0.000529792
0.000490252
0.0004546
0.000422561
0.000393881
0.000368335
0.000345722
0.000325861
0.000308591
0.000293772
0.000281281
0.000271016
0.000262894
0.000256858
0.000253087
0.000251482
0.000251313
0.000253488
0.000258044
0.000265065
0.000274763
0.000287435
0.000303467
0.000323345
0.000347682
0.000377235
0.000412942
0.000455963
0.00050773
0.000570028
0.000645094
0.00073578
0.000845799
0.000980124
0.00114563
0.00135216
0.00161417
0.00195343
0.00240299
0.00301263
0.00385494
0.00502823
0.00664676
0.0088018
0.0114786
0.0144445
0.017031
0.0181696
0.0185135
0.0194765
0.0249295
0.0434427
0.0655172
0.0274384
0.026721
0.0174233
0.0139051
0.012469
0.0113112
0.00989471
0.00820037
0.00643682
0.00485845
0.00362347
0.00275063
0.00217035
0.00179299
0.00154474
0.0013742
0.00124801
0.00114582
0.00105642
0.000974445
0.000897889
0.000826283
0.000759694
0.000698227
0.000641861
0.000590437
0.000543704
0.000501361
0.000463101
0.000428629
0.000397672
0.000369982
0.000345337
0.000323539
0.000304407
0.000287782
0.000273519
0.000261494
0.000251598
0.000243745
0.00023787
0.000234079
0.000232389
0.000232125
0.000233937
0.000237977
0.000244315
0.000253143
0.000264734
0.000279448
0.000297744
0.0003202
0.000347536
0.000380645
0.000420633
0.000468869
0.00052705
0.000597293
0.000682276
0.00078544
0.000911331
0.00106616
0.00125872
0.00150192
0.00181529
0.00222889
0.00278909
0.00356602
0.00466013
0.00619968
0.00831103
0.0110379
0.0142037
0.0172993
0.0189199
0.0193264
0.0196383
0.0234986
0.0393879
0.0623302
0.0262616
0.0256173
0.0172978
0.0136413
0.0121171
0.0109335
0.00953821
0.00789125
0.0061835
0.00465759
0.00346786
0.00263185
0.00207992
0.00172321
0.00148907
0.00132746
0.00120652
0.00110732
0.00101973
0.000939108
0.000863821
0.000793544
0.000728359
0.000668335
0.000613402
0.000563364
0.000517944
0.000476831
0.000439714
0.000406298
0.000376313
0.000349516
0.000325688
0.000304631
0.000286165
0.000270129
0.000256377
0.00024478
0.000235227
0.000227626
0.000221906
0.000218112
0.000216349
0.000216003
0.000217517
0.000221111
0.000226854
0.000234918
0.000245557
0.000259108
0.000276002
0.000296785
0.000322142
0.000352926
0.000390195
0.000435263
0.000489757
0.000555703
0.000635641
0.000732806
0.000851409
0.000997118
0.00117786
0.00140519
0.0016966
0.00207928
0.00259594
0.00331318
0.00433076
0.00578562
0.0078333
0.0105781
0.0139283
0.0174118
0.0196383
0.0201992
0.0202552
0.0226991
0.0358438