/*--------------------------------*- C++ -*----------------------------------*\
  =========                 |
  \\      /  F ield         | OpenFOAM: The Open Source CFD Toolbox
   \\    /   O peration     | Website:  https://openfoam.org
    \\  /    A nd           | Version:  13
     \\/     M anipulation  |
\*---------------------------------------------------------------------------*/
FoamFile
{
    format      ascii;
    class       volScalarField;
    location    "9.1";
    object      k;
}
// * * * * * * * * * * * * * * * * * * * * * * * * * * * * * * * * * * * * * //

dimensions      [0 2 -2 0 0 0 0];

internalField   nonuniform List<scalar> 
6400
(
5.66675e-07
2.91107e-06
7.08135e-06
1.14038e-05
1.46528e-05
1.64693e-05
1.7123e-05
1.71821e-05
1.72866e-05
1.79229e-05
1.94696e-05
2.24922e-05
2.72563e-05
3.38576e-05
4.1942e-05
5.10581e-05
6.07355e-05
7.07878e-05
8.07301e-05
9.03333e-05
0.000100004
0.00011058
0.000123179
0.000138428
0.000155639
0.000172933
0.000190134
0.000207213
0.000224712
0.000243095
0.000262093
0.000281092
0.00029978
0.000318241
0.000336918
0.000355935
0.000375667
0.000396237
0.000417886
0.000440673
0.000464764
0.000490344
0.000517552
0.000546707
0.000578086
0.000612812
0.000653007
0.000703216
0.000752392
0.000802909
0.000852063
0.000899785
0.000944406
0.000984754
0.00101931
0.00104609
0.00105938
0.00106459
0.00106118
0.00103989
0.00100297
0.000950709
0.000883634
0.000804628
0.000715013
0.000619568
0.000522827
0.000428425
0.000339795
0.00026136
0.000197274
0.000143505
0.000100083
6.69457e-05
4.30845e-05
2.68064e-05
1.61757e-05
9.31439e-06
4.41432e-06
9.41949e-07
2.73792e-06
2.30021e-05
5.58335e-05
8.72025e-05
0.000110322
0.000124058
0.000130582
0.000133234
0.00013566
0.000140999
0.00015279
0.000175051
0.0002089
0.000253638
0.00030712
0.000366613
0.000429675
0.000493837
0.000557263
0.000619339
0.000682298
0.000750645
0.000829966
0.0009226
0.0010243
0.0011259
0.00122476
0.00131881
0.00140905
0.0014965
0.00157935
0.00165671
0.0017271
0.00179156
0.00185239
0.0019105
0.00196786
0.00202532
0.00208421
0.00214505
0.00220855
0.0022754
0.00234562
0.00241938
0.00249602
0.00257551
0.00265582
0.00273413
0.00281874
0.00290505
0.0029938
0.00308132
0.00316607
0.00324424
0.00331246
0.00336665
0.00339437
0.00340271
0.00338934
0.00334182
0.00325645
0.00313292
0.00296967
0.00277046
0.00253989
0.00228688
0.00202252
0.00175496
0.00149189
0.00123698
0.000994902
0.000775091
0.000583758
0.000424006
0.000296001
0.000197934
0.000126708
7.65817e-05
3.72431e-05
4.97991e-06
5.98719e-06
4.98695e-05
0.000115888
0.000171036
0.000208459
0.000230487
0.000242632
0.000250986
0.000261668
0.0002807
0.000313974
0.000366308
0.000439371
0.000531263
0.000637857
0.000754871
0.000878964
0.00100738
0.00113749
0.00126714
0.00139471
0.00151949
0.00163927
0.00174867
0.00184277
0.00191771
0.00197089
0.0020081
0.00203696
0.00206464
0.0020951
0.00212753
0.00216242
0.00219742
0.00223604
0.00227745
0.00232337
0.00237372
0.00242954
0.00249078
0.00255722
0.00262956
0.00270712
0.00279015
0.00287851
0.00297208
0.00307021
0.00317412
0.00328354
0.00339669
0.00351267
0.0036291
0.00374374
0.00385318
0.00395359
0.00404013
0.00410759
0.00414301
0.00415294
0.00413193
0.00406575
0.0039541
0.00379278
0.00358415
0.00333058
0.00304036
0.00272959
0.00240713
0.00208333
0.00176843
0.00147118
0.00119817
0.000954206
0.000741748
0.000561474
0.000412683
0.000292128
0.000192264
9.79505e-05
1.33362e-05
1.04017e-05
8.37971e-05
0.000181924
0.000255404
0.000303385
0.000333081
0.000353148
0.000372229
0.000398814
0.000441201
0.000506765
0.000600013
0.000720639
0.000863776
0.00102244
0.00118994
0.00136042
0.00152816
0.00168702
0.0018311
0.00195476
0.00205618
0.00213269
0.00217709
0.00219579
0.00220002
0.0021949
0.00219206
0.00219148
0.00219694
0.00220788
0.00222225
0.00224176
0.00226614
0.00229587
0.00233067
0.00237117
0.00241725
0.00246886
0.00252637
0.00258971
0.00265919
0.0027346
0.00281597
0.00290282
0.00299574
0.00309541
0.00320158
0.0033138
0.00343113
0.00355258
0.00367642
0.00380052
0.00392192
0.00403703
0.00414125
0.00422943
0.004293
0.00432239
0.00432651
0.00428657
0.0042014
0.00407382
0.00389603
0.00366529
0.00338332
0.00306709
0.00272743
0.00237975
0.00203812
0.00171435
0.00141696
0.00115084
0.000917906
0.000718151
0.000549894
0.000408812
0.000285257
0.000155706
2.22567e-05
1.66965e-05
0.000129162
0.000260161
0.000351192
0.000409889
0.000448692
0.000479725
0.000514531
0.00056416
0.000638708
0.000745434
0.000886188
0.00105626
0.00124618
0.001445
0.00164236
0.00182876
0.00199523
0.00213253
0.00223655
0.00229607
0.00231871
0.00232013
0.00228912
0.00225842
0.00223087
0.00220843
0.00219342
0.00218635
0.00218422
0.00218593
0.00219296
0.0022046
0.00222049
0.0022405
0.00226462
0.00229276
0.00232458
0.00236013
0.00239964
0.00244316
0.00249116
0.00254445
0.00260379
0.00267015
0.00274341
0.00282343
0.00291063
0.00300522
0.00310723
0.00321645
0.00333229
0.00345371
0.00357915
0.0037064
0.00383185
0.00395083
0.00405763
0.0041456
0.00419835
0.00421655
0.00419155
0.00410958
0.00397178
0.00378742
0.00354485
0.00324625
0.00290959
0.00255233
0.00219288
0.0018482
0.00153125
0.00124942
0.00100493
0.000796785
0.000621818
0.000474227
0.000341832
0.000195093
2.8463e-05
2.56837e-05
0.000189309
0.000355154
0.000464542
0.000535399
0.000585627
0.000631232
0.000686925
0.000765968
0.000878688
0.00102969
0.00121562
0.00142578
0.00164539
0.00185909
0.00205275
0.00221411
0.00233586
0.00240051
0.00242159
0.00240759
0.00236187
0.00231652
0.002272
0.00223107
0.00219532
0.00216614
0.00214313
0.00212472
0.00210978
0.00209767
0.00208976
0.0020854
0.00208366
0.00208347
0.00208672
0.00209233
0.00210078
0.00211221
0.00212706
0.0021456
0.0021685
0.0021957
0.00222768
0.00226502
0.00230817
0.002358
0.00241542
0.00248143
0.00255712
0.00264341
0.0027411
0.00285067
0.00297187
0.00310356
0.00324428
0.00339087
0.00353879
0.00368169
0.00381033
0.00391524
0.00396741
0.00398021
0.00393071
0.00381576
0.00363829
0.00338211
0.00306539
0.00270655
0.00232907
0.00195735
0.00161218
0.00130695
0.00104648
0.000829164
0.000649638
0.000499694
0.000364782
0.000212772
3.07875e-05
3.81525e-05
0.000266166
0.000469236
0.000598308
0.000683037
0.000747178
0.000810852
0.000891647
0.00100371
0.00115521
0.00134545
0.00156429
0.00179472
0.00201718
0.00221324
0.00236775
0.00246082
0.00249543
0.00249206
0.00244186
0.00238745
0.00232386
0.00226244
0.00220117
0.00214675
0.00209958
0.00205839
0.00202116
0.00198723
0.00195704
0.00193077
0.0019074
0.00188621
0.00186711
0.00185015
0.00183577
0.00182371
0.00181438
0.00180806
0.00180509
0.00180425
0.00180658
0.00181282
0.00182273
0.00183704
0.00185598
0.0018805
0.00191127
0.00194948
0.00199671
0.0020548
0.00212574
0.00221185
0.00231521
0.00243669
0.00257721
0.00273731
0.00291334
0.00309979
0.00328957
0.00347422
0.00363745
0.00375243
0.00379986
0.00379615
0.00370322
0.00353025
0.00325768
0.00291104
0.00251747
0.00210981
0.00172033
0.00137371
0.00108207
0.000845236
0.000655633
0.000500564
0.000363436
0.000211738
2.99178e-05
5.48318e-05
0.000360753
0.000603031
0.000753132
0.00085334
0.000933469
0.00101756
0.00112511
0.00126912
0.00145312
0.00166948
0.00190104
0.00212546
0.00232022
0.00246673
0.00253878
0.00255722
0.00252515
0.00246867
0.00239194
0.00230746
0.00221915
0.00214055
0.00206959
0.00200886
0.00195284
0.00190152
0.00185356
0.00180909
0.00176802
0.00173014
0.00169514
0.00166302
0.00163394
0.00160804
0.00158543
0.00156588
0.00154943
0.00153609
0.00152583
0.00151873
0.00151535
0.00151433
0.00151636
0.00152271
0.00153252
0.00154679
0.00156575
0.00159008
0.00162023
0.00165723
0.00170222
0.001757
0.00182425
0.00190866
0.00201553
0.00214921
0.00231433
0.0025096
0.00272701
0.00296188
0.00319969
0.00342464
0.00361035
0.00370262
0.00372472
0.00366144
0.00348771
0.00318483
0.00279352
0.00235221
0.00190571
0.00149538
0.00114865
0.000873613
0.000661651
0.000495639
0.000354757
0.000204967
2.78189e-05
7.62265e-05
0.000472837
0.000755871
0.000928075
0.00104487
0.00114191
0.00124653
0.00137865
0.00154806
0.00175201
0.00197567
0.00219614
0.00238828
0.00252453
0.00258471
0.00259276
0.00254767
0.00247809
0.00238021
0.0022684
0.00216425
0.00207213
0.00198967
0.00191496
0.00184721
0.00178355
0.00172441
0.00166924
0.00161843
0.00157197
0.00152993
0.00149234
0.00145927
0.00143066
0.0014063
0.00138601
0.00136958
0.00135678
0.00134729
0.00134126
0.00133849
0.00133773
0.00133958
0.00134473
0.00135266
0.0013634
0.00137719
0.00139411
0.00141444
0.00143843
0.00146662
0.00149957
0.00153805
0.00158314
0.00163643
0.00170029
0.00177876
0.00187904
0.00201488
0.00220119
0.00243527
0.0027018
0.00298921
0.00327291
0.00352442
0.00366643
0.00371072
0.0036727
0.00349123
0.00314532
0.00269698
0.00219899
0.00171046
0.00128171
0.000939473
0.000683931
0.000495139
0.000341298
0.000191181
2.54217e-05
0.000102527
0.000600641
0.000925716
0.00112081
0.00125435
0.00136741
0.00148969
0.00164002
0.0018235
0.00203062
0.00224044
0.00242682
0.00255631
0.00260979
0.00261299
0.00256548
0.00247834
0.00235634
0.0022278
0.00211103
0.00200579
0.00191194
0.00182647
0.00174791
0.00167533
0.00160789
0.00154626
0.00149044
0.00144086
0.00139747
0.00136026
0.00132898
0.0013033
0.00128277
0.00126688
0.00125509
0.00124683
0.00124226
0.00124034
0.00124002
0.00124252
0.00124689
0.0012534
0.0012619
0.00127232
0.00128471
0.0012992
0.00131593
0.0013351
0.00135696
0.00138166
0.00140951
0.00144085
0.00147612
0.0015158
0.00156069
0.00161245
0.00167397
0.00175073
0.00185205
0.00199501
0.00221245
0.00249931
0.00282375
0.00316646
0.00348197
0.00367426
0.00373905
0.00371524
0.00351448
0.00311339
0.00259848
0.0020403
0.00151352
0.00107451
0.000743932
0.000509619
0.000335282
0.000178288
2.34066e-05
0.000134228
0.000740316
0.00110943
0.00132769
0.00147681
0.0016028
0.00173685
0.00189552
0.00207863
0.00227065
0.00244675
0.00257104
0.0026213
0.00262245
0.00257458
0.00247298
0.00233383
0.00219381
0.00206285
0.00194646
0.00184162
0.00174687
0.00165999
0.00158043
0.00150805
0.00144307
0.00138605
0.00133698
0.00129585
0.00126217
0.00123538
0.00121471
0.00119935
0.00118848
0.00118144
0.001178
0.00117678
0.00117693
0.00117988
0.00118404
0.00119008
0.00119749
0.00120649
0.00121699
0.00122909
0.00124288
0.00125848
0.00127601
0.00129559
0.00131733
0.00134132
0.0013677
0.0013966
0.00142822
0.00146291
0.00150084
0.00154212
0.00158752
0.0016388
0.0016998
0.00177905
0.00189185
0.00206376
0.00234196
0.00269967
0.00309189
0.00347068
0.00371052
0.00379193
0.00376864
0.0035318
0.00306289
0.00247485
0.00185973
0.00130614
0.00086963
0.000557791
0.00034402
0.000173979
2.25944e-05
0.000172737
0.000887445
0.00130327
0.00154389
0.00170591
0.00183972
0.0019772
0.00213216
0.00229949
0.00245941
0.00257756
0.0026263
0.00262728
0.00258006
0.00247011
0.00231998
0.00216754
0.00202483
0.00189632
0.00178203
0.00167871
0.00158526
0.00150071
0.00142532
0.00135937
0.00130311
0.00125649
0.00121891
0.00118958
0.0011674
0.00115128
0.00114008
0.00113285
0.00112925
0.00112784
0.00112768
0.00112955
0.00113268
0.0011373
0.00114297
0.00114999
0.00115825
0.00116794
0.00117913
0.00119199
0.00120665
0.00122327
0.001242
0.00126296
0.00128624
0.00131191
0.00133996
0.0013703
0.00140278
0.00143723
0.00147352
0.00151171
0.00155228
0.00159505
0.00164065
0.00169207
0.00175638
0.00184802
0.0019927
0.0022345
0.00261167
0.00304413
0.00348602
0.00376307
0.00385376
0.00381367
0.00351822
0.00296784
0.00230502
0.00164553
0.00108323
0.000663434
0.000378849
0.00018054
2.32958e-05
0.00021546
0.00104212
0.00150307
0.00176389
0.00193476
0.00206969
0.00220084
0.0023394
0.0024766
0.00258483
0.00263164
0.0026332
0.00258674
0.00247443
0.00231753
0.00215318
0.00199831
0.00185857
0.00173432
0.00162359
0.00152422
0.00143594
0.00135863
0.00129268
0.001238
0.0011941
0.00116002
0.0011344
0.00111583
0.00110286
0.00109421
0.00108888
0.00108627
0.00108527
0.00108511
0.00108625
0.0010886
0.00109185
0.00109617
0.00110154
0.00110816
0.00111613
0.00112564
0.00113683
0.00114989
0.001165
0.00118233
0.00120206
0.00122435
0.00124934
0.00127712
0.00130771
0.00134105
0.00137691
0.00141494
0.00145458
0.00149522
0.00153631
0.00157772
0.00162011
0.00166299
0.00170842
0.00176278
0.00183902
0.0019622
0.00217712
0.0025544
0.00302721
0.00352459
0.00382202
0.0039095
0.00383172
0.00344723
0.00280253
0.00207476
0.00139103
0.000843725
0.000459546
0.000205124
2.64715e-05
0.000261177
0.0012006
0.0017038
0.00198176
0.00215651
0.00228506
0.00239982
0.00251016
0.00260228
0.00264421
0.0026457
0.00259872
0.00248828
0.00232791
0.00215355
0.00198589
0.00183442
0.00170019
0.00158165
0.0014769
0.00138503
0.00130615
0.0012402
0.0011869
0.00114524
0.00111379
0.0010908
0.0010745
0.00106325
0.00105567
0.00105067
0.00104748
0.00104555
0.00104459
0.00104425
0.00104455
0.0010459
0.00104809
0.00105138
0.00105583
0.00106166
0.00106902
0.00107809
0.00108904
0.00110205
0.00111729
0.00113496
0.00115525
0.00117836
0.00120448
0.00123378
0.0012664
0.00130238
0.00134164
0.0013839
0.00142862
0.00147496
0.00152178
0.00156786
0.00161228
0.00165518
0.00169704
0.00173851
0.00178566
0.00185139
0.00196166
0.00216473
0.00253287
0.00304295
0.00358598
0.00387647
0.00394505
0.00380388
0.00328777
0.00255246
0.00177503
0.00109838
0.000596789
0.000259659
3.4323e-05
0.000308397
0.0013587
0.00190029
0.00219172
0.00236496
0.0024797
0.00256885
0.00263957
0.00267199
0.00267053
0.00262034
0.00251382
0.00235273
0.00217044
0.0019901
0.00182555
0.00168045
0.00155343
0.00144267
0.00134696
0.00126596
0.00119949
0.00114676
0.00110641
0.00107651
0.00105499
0.00103977
0.00102906
0.00102142
0.0010158
0.00101148
0.001008
0.00100514
0.00100283
0.00100119
0.00100045
0.00100031
0.00100123
0.00100347
0.00100707
0.0010122
0.00101902
0.00102769
0.00103837
0.0010512
0.00106637
0.00108406
0.00110447
0.00112781
0.00115432
0.00118426
0.00121785
0.00125531
0.00129674
0.00134212
0.00139116
0.00144321
0.00149715
0.00155134
0.00160376
0.00165245
0.00169657
0.00173626
0.00177481
0.00181811
0.00187684
0.00198054
0.00217806
0.00255026
0.0030986
0.00365897
0.00391977
0.00395046
0.0036971
0.00303003
0.00220302
0.00141133
0.000783194
0.000343782
4.7196e-05
0.000355774
0.00151236
0.00208784
0.00238876
0.00255497
0.0026493
0.0027029
0.00272387
0.00271341
0.00265659
0.00255369
0.00239365
0.0022055
0.00201305
0.00183411
0.00167623
0.00153936
0.00142137
0.00132077
0.00123672
0.00116864
0.00111544
0.00107528
0.00104589
0.0010248
0.00100974
0.00099876
0.000990405
0.000983636
0.0009778
0.000972543
0.000967727
0.00096336
0.00095955
0.000956459
0.000954381
0.000953453
0.000953298
0.000954687
0.000957714
0.000962353
0.000968797
0.00097717
0.000987597
0.00100022
0.0010152
0.0010327
0.00105291
0.00107605
0.00110239
0.00113219
0.00116578
0.00120349
0.00124561
0.00129237
0.00134385
0.00139981
0.00145955
0.00152175
0.00158428
0.00164428
0.00169854
0.00174595
0.00178391
0.00181513
0.00185514
0.0019115
0.00201333
0.00221339
0.00260339
0.00319468
0.00373858
0.00395618
0.00390323
0.00345776
0.00264333
0.00176223
0.00100738
0.000449827
6.39167e-05
0.000402266
0.00165728
0.00226269
0.00256963
0.00272186
0.00278558
0.00280068
0.00277794
0.00271242
0.00261135
0.00245259
0.00226037
0.00205676
0.00186245
0.00168938
0.00154027
0.00141322
0.00130608
0.00121755
0.00114653
0.00109156
0.00105047
0.00102056
0.000999084
0.000983495
0.000971743
0.000962304
0.000954159
0.000946708
0.000939659
0.000932941
0.000926615
0.000920824
0.000915743
0.000911561
0.000908452
0.000906849
0.000906299
0.00090695
0.000909647
0.000913976
0.000920156
0.000928299
0.000938507
0.000950907
0.000965632
0.000982836
0.0010027
0.00102542
0.00105126
0.00108049
0.00111347
0.00115058
0.00119223
0.00123886
0.00129081
0.0013483
0.00141119
0.00147881
0.00154963
0.00162108
0.00168937
0.00174989
0.00180137
0.00183851
0.00186038
0.0018959
0.00195336
0.00205763
0.00226978
0.00269427
0.0033275
0.00380884
0.00395303
0.00376165
0.00306811
0.00213679
0.00125998
0.000571464
8.34367e-05
0.000446976
0.0017922
0.00242135
0.00272686
0.00285893
0.00289384
0.00287211
0.00280069
0.00268951
0.00253218
0.0023368
0.00212327
0.00191309
0.00172241
0.00155787
0.00141901
0.00130316
0.00120824
0.00113265
0.00107447
0.00103122
0.000999846
0.000977248
0.000960642
0.000947796
0.000937109
0.000927543
0.000918521
0.000909791
0.000901323
0.000893212
0.000885622
0.000878736
0.000872739
0.000867802
0.000864076
0.000862017
0.000861239
0.000861409
0.000863849
0.000867948
0.000873906
0.000881829
0.000891809
0.00090396
0.000918402
0.000935274
0.000954737
0.000976978
0.00100223
0.00103075
0.00106288
0.00109901
0.0011396
0.00118516
0.00123626
0.0012934
0.00135695
0.0014269
0.00150262
0.00158245
0.0016633
0.00174037
0.00180739
0.00186304
0.00189516
0.00191072
0.00194111
0.00200107
0.00211324
0.00235002
0.00283262
0.00350579
0.00384892
0.00388404
0.00345017
0.00252513
0.00153677
0.000704635
0.000104816
0.000488166
0.00191353
0.00255877
0.00285794
0.00296772
0.00297841
0.00291374
0.00279433
0.0026371
0.00243708
0.00221462
0.00198875
0.0017784
0.00159483
0.00144046
0.00131294
0.00120926
0.00112708
0.00106406
0.0010173
0.000983459
0.00095906
0.000941012
0.000926862
0.000914867
0.000903929
0.000893455
0.000883208
0.000873176
0.000863474
0.000854275
0.000845767
0.000838131
0.000831528
0.0008261
0.000821972
0.000819531
0.000818541
0.000818475
0.000820584
0.000824453
0.000830162
0.000837826
0.000847538
0.000859402
0.000873532
0.000890057
0.000909124
0.000930901
0.00095559
0.000983434
0.00101473
0.00104984
0.00108922
0.00113339
0.00118299
0.00123869
0.00130119
0.00137102
0.00144834
0.00153255
0.00162181
0.00171247
0.00179865
0.00187222
0.00192823
0.00195244
0.00196349
0.00198992
0.00205453
0.00218194
0.00246585
0.00303192
0.00365413
0.00388808
0.00370504
0.00290699
0.00183437
0.000846967
0.000127402
0.000524375
0.00201831
0.00267281
0.00296273
0.00305336
0.00303672
0.00293
0.0027698
0.0025649
0.00233314
0.0020921
0.00186085
0.00165474
0.00148044
0.00133728
0.00122178
0.00113057
0.00106071
0.00100891
0.000971453
0.000944499
0.000924577
0.00090893
0.000895604
0.000883377
0.000871598
0.00086001
0.000848602
0.000837494
0.00082686
0.000816889
0.000807754
0.00079961
0.000792589
0.000786804
0.000782357
0.000779537
0.000778294
0.000778064
0.000779746
0.000783325
0.000788719
0.000796059
0.000805441
0.000816967
0.000830751
0.000846913
0.000865592
0.000886941
0.00091114
0.000938404
0.000968992
0.00100323
0.00104151
0.00108434
0.00113233
0.00118622
0.00124686
0.00131509
0.00139167
0.00147688
0.00157015
0.00166934
0.00177003
0.00186482
0.00194317
0.00199454
0.00201068
0.002017
0.00204216
0.00211394
0.00226848
0.00262945
0.0032811
0.00373049
0.00379984
0.00326186
0.00214749
0.000993975
0.000150985
0.000554803
0.00210538
0.00276316
0.00304213
0.00311687
0.00306995
0.00292386
0.00272178
0.00248191
0.00222589
0.00197337
0.00174194
0.00154298
0.00137924
0.00124784
0.00114453
0.00106539
0.00100665
0.000964181
0.000933737
0.000911403
0.000894013
0.000879311
0.000865871
0.000852927
0.000840169
0.000827561
0.000815216
0.000803306
0.000792013
0.000781504
0.000771925
0.000763402
0.000756039
0.00074993
0.00074516
0.000741906
0.000740361
0.000739936
0.000741108
0.00074431
0.000749315
0.000756258
0.000765246
0.00077638
0.000789774
0.000805549
0.000823837
0.000844783
0.000868551
0.00089533
0.000925349
0.000958886
0.000996288
0.001038
0.00108458
0.00113674
0.00119534
0.00126139
0.00133596
0.00141999
0.00151394
0.00161717
0.00172714
0.00183841
0.00194177
0.00202162
0.00205978
0.00206849
0.00207041
0.00209726
0.00218177
0.0023844
0.00287089
0.00352774
0.00378819
0.00353053
0.0024655
0.00114275
0.000175467
0.000579015
0.00217476
0.00283085
0.00309795
0.00315791
0.00308113
0.00290311
0.00266191
0.00239307
0.00211942
0.00186106
0.00163319
0.00144321
0.00129069
0.00117118
0.00107968
0.00101161
0.000962344
0.000927176
0.000901674
0.000882165
0.000865963
0.000851343
0.000837351
0.000823574
0.000809928
0.000796502
0.000783459
0.000770973
0.000759205
0.000748295
0.000738359
0.000729495
0.000721793
0.000715335
0.0007102
0.000706474
0.000704535
0.000703873
0.000704473
0.000707211
0.000711763
0.000718247
0.000726781
0.000737469
0.00075043
0.000765784
0.000783664
0.000804209
0.000827574
0.000853932
0.000883487
0.000916479
0.00095321
0.000994059
0.00103952
0.00109022
0.00114698
0.00121082
0.00128295
0.00136466
0.00145712
0.00156088
0.00167507
0.0017964
0.00191798
0.00202857
0.0021014
0.00212398
0.00212552
0.00212078
0.00215623
0.00226436
0.00255574
0.00317776
0.00362068
0.00365028
0.00278508
0.00130464
0.00020211
0.000596946
0.00222715
0.00287731
0.00313207
0.00317844
0.0030749
0.00286443
0.00259373
0.00230217
0.00201657
0.00175673
0.00153496
0.00135502
0.00121393
0.00110599
0.00102549
0.000967092
0.00092552
0.000895763
0.000873525
0.00085556
0.000839711
0.000824742
0.000810072
0.000795529
0.000781165
0.000767122
0.000753567
0.000740655
0.000728517
0.000717265
0.000706991
0.000697781
0.00068971
0.000682857
0.000677295
0.0006731
0.000670648
0.000669705
0.000669745
0.000671933
0.000675986
0.000681964
0.000689998
0.000700197
0.000712682
0.000727577
0.000745017
0.000765142
0.000788102
0.000814062
0.000843209
0.000875759
0.000911972
0.000952175
0.000996788
0.00104636
0.00110163
0.00116353
0.00123329
0.00131235
0.00140229
0.0015045
0.00161952
0.00174597
0.00187908
0.00200901
0.00211971
0.0021782
0.00218872
0.00217583
0.0021657
0.00221891
0.00238126
0.00283696
0.00346625
0.00367286
0.00310028
0.00150463
0.00023601
0.000608884
0.00226356
0.00290356
0.00314476
0.00317806
0.0030554
0.00281607
0.00252088
0.00221211
0.00191923
0.00166114
0.00144711
0.00127769
0.00114784
0.00105081
0.000980177
0.00092991
0.000894327
0.000868401
0.000848178
0.000830917
0.000814965
0.000799486
0.000784169
0.000768995
0.000754079
0.000739575
0.000725631
0.000712373
0.000699909
0.000688327
0.000677708
0.000668126
0.000659657
0.000652378
0.000646369
0.000641711
0.000638639
0.000637244
0.000636955
0.000638481
0.000642002
0.000647448
0.000654953
0.000664628
0.0006766
0.000690998
0.000707959
0.000727628
0.000750155
0.000775705
0.000804455
0.000836606
0.000872392
0.000912096
0.000956081
0.00100482
0.00105893
0.00111928
0.00118698
0.00126349
0.00135055
0.0014501
0.00156373
0.00169194
0.00183268
0.00197952
0.00211988
0.00221679
0.00225
0.00224906
0.00221943
0.00221145
0.00229719
0.0025668
0.0031958
0.0035673
0.00335483
0.00175912
0.000281872
0.000614876
0.00228431
0.00291073
0.00314155
0.00316687
0.00302102
0.00276048
0.00244613
0.00212498
0.00182854
0.00157451
0.00136917
0.00121032
0.0010912
0.00100417
0.000942096
0.000898452
0.000867375
0.000844051
0.000824976
0.000807915
0.000791648
0.000775646
0.000759778
0.000744107
0.00072877
0.000713906
0.00069964
0.000686074
0.000673293
0.000661374
0.000650392
0.000640418
0.000631531
0.00062381
0.00061734
0.000612212
0.000608528
0.000606653
0.000606063
0.00060693
0.0006099
0.000614806
0.000621764
0.000630894
0.000642323
0.000656186
0.000672626
0.000691792
0.000713842
0.000738942
0.00076727
0.000799019
0.000834408
0.000873693
0.000917189
0.000965299
0.00101856
0.00107772
0.00114376
0.00121806
0.00130235
0.00139878
0.00150959
0.00163646
0.00177928
0.00193418
0.00209111
0.00223191
0.00230729
0.00232032
0.00228979
0.00225376
0.00227042
0.00242159
0.00290769
0.0034239
0.00347705
0.00206425
0.000339727
0.000614533
0.0022922
0.00290587
0.00312711
0.00314089
0.00297765
0.00270034
0.00237165
0.00204223
0.00174513
0.00149669
0.00130048
0.0011519
0.00104278
0.000964675
0.000909852
0.000871458
0.000843679
0.000822052
0.000803558
0.000786422
0.000769774
0.000753301
0.000736985
0.000720926
0.000705254
0.000690091
0.000675535
0.00066167
0.00064857
0.000636307
0.000624952
0.000614581
0.000605274
0.000597115
0.00059019
0.000584588
0.000580399
0.000578002
0.000577111
0.000577387
0.0005798
0.000584168
0.000590577
0.000599149
0.000610013
0.00062331
0.000639187
0.000657801
0.000679318
0.000703911
0.000731765
0.000763074
0.000798051
0.000836937
0.000880014
0.000927636
0.000980265
0.00103853
0.00110331
0.00117581
0.0012577
0.00135116
0.00145879
0.00158323
0.0017262
0.00188666
0.00205823
0.00222646
0.00234699
0.00238763
0.00237914
0.00230771
0.00227536
0.0023467
0.00266247
0.00328562
0.00350854
0.00240927
0.000407158
0.00061131
0.00229021
0.00288983
0.00309735
0.00310229
0.00292718
0.00263775
0.00229908
0.00196482
0.00166923
0.00142733
0.00124027
0.00110143
0.00100145
0.000931127
0.000882306
0.000847989
0.000822567
0.000802001
0.000783738
0.000766396
0.000749372
0.0007325
0.000715823
0.000699451
0.000683499
0.000668067
0.000653235
0.000639076
0.000625657
0.00061305
0.000601329
0.000590574
0.000580869
0.0005723
0.000564956
0.000558925
0.000554297
0.000551356
0.000550107
0.000549981
0.000551825
0.000555666
0.000561534
0.000569545
0.000579831
0.000592535
0.000607811
0.000625824
0.00064675
0.000670772
0.000698084
0.000728891
0.000763407
0.000801868
0.000844541
0.000891742
0.000943874
0.00100148
0.0010653
0.0011364
0.0012163
0.00130706
0.00141137
0.00153236
0.00167291
0.00183413
0.0020126
0.00219667
0.00236286
0.00244769
0.00246067
0.00240392
0.00232625
0.00232122
0.00249453
0.0030611
0.00343113
0.00275627
0.000477581
0.000604149
0.00228146
0.00285983
0.00305715
0.00305494
0.00287169
0.00257437
0.00222959
0.00189333
0.0016008
0.00136592
0.00118775
0.00105795
0.000966139
0.0009025
0.000858566
0.000827365
0.000803594
0.000783656
0.000765421
0.000747824
0.000730458
0.000713253
0.000696281
0.000679646
0.000663446
0.000647762
0.000632663
0.000618216
0.000604487
0.000591551
0.000579487
0.000568379
0.000558313
0.00054938
0.000541667
0.000535263
0.000530258
0.000526811
0.000525172
0.000524776
0.000526074
0.000529409
0.00053475
0.000542207
0.000551908
0.000564001
0.000578645
0.000596013
0.000616291
0.000639676
0.000666374
0.000696602
0.000730587
0.000768569
0.000810809
0.000857603
0.000909311
0.0009664
0.00102951
0.00109957
0.0011779
0.00126641
0.00136773
0.00148524
0.00162268
0.00178307
0.00196634
0.00216569
0.00236303
0.00249637
0.0025344
0.00250556
0.00238378
0.00232779
0.00241153
0.00284677
0.00329331
0.00303353
0.000535056
0.000592973
0.002263
0.00282092
0.00300939
0.00300079
0.00281289
0.00251152
0.002164
0.00182802
0.00153964
0.00131189
0.00114213
0.00102058
0.000935953
0.000877957
0.000837949
0.000809098
0.000786463
0.000766869
0.00074855
0.000730692
0.000713027
0.000695543
0.000678321
0.000661456
0.000645028
0.000629105
0.000613751
0.00059903
0.000585013
0.000571777
0.000559407
0.000547989
0.000537613
0.000528368
0.000520342
0.000513621
0.00050829
0.00050444
0.000502427
0.000501794
0.000502609
0.000505467
0.000510304
0.000517217
0.000526335
0.000537806
0.000551795
0.000568481
0.000588063
0.000610748
0.00063676
0.000666332
0.000699706
0.000737135
0.000778885
0.000825244
0.000876548
0.000933209
0.000995781
0.00106505
0.00114218
0.00122886
0.00132756
0.00144163
0.00157522
0.00173249
0.00191564
0.00212134
0.00233608
0.00252065
0.00260013
0.00260195
0.00249167
0.00237465
0.00237232
0.00267192
0.00316514
0.00316586
0.000561797
0.000578399
0.0022377
0.00277508
0.0029555
0.00294182
0.00275225
0.00245019
0.00210283
0.00176898
0.00148544
0.00126467
0.00110269
0.000988512
0.000910117
0.000856827
0.00081994
0.000792845
0.000770975
0.000751542
0.000733083
0.000714977
0.000697051
0.000679328
0.00066189
0.000644816
0.000628176
0.000612031
0.00059644
0.000581471
0.000567198
0.000553702
0.000541073
0.000529399
0.00051877
0.000509274
0.000500996
0.000494015
0.00048841
0.000484259
0.000481895
0.000481046
0.000481453
0.000483869
0.000488226
0.000494614
0.000503157
0.000514004
0.000527322
0.000543301
0.000562145
0.000584078
0.000609339
0.000638179
0.000670861
0.000707655
0.000748841
0.000794713
0.000845594
0.000901862
0.000964002
0.00103269
0.00110892
0.00119418
0.00129073
0.00140178
0.00153168
0.00168545
0.00186736
0.00207747
0.00230616
0.00252774
0.00265987
0.00268678
0.00260689
0.00242599
0.00236213
0.00251488
0.00305887
0.00320331
0.000566556
0.000561252
0.00220772
0.00272403
0.00289697
0.00287965
0.00269095
0.00239112
0.0020464
0.00171613
0.00143781
0.00122367
0.00106873
0.000961053
0.000887987
0.000838577
0.00080415
0.000778355
0.000756989
0.000737602
0.000718978
0.000700642
0.000682489
0.000664558
0.000646926
0.000629664
0.000612831
0.000596483
0.000580683
0.000565499
0.000551011
0.000537304
0.000524469
0.000512597
0.000501776
0.000492092
0.000483624
0.000476446
0.000470628
0.000466237
0.000463555
0.000462506
0.000462588
0.000464599
0.000468505
0.000474388
0.00048237
0.000492598
0.000505242
0.000520495
0.000538574
0.000559713
0.000584169
0.000612211
0.000644124
0.000680202
0.000720744
0.00076606
0.000816473
0.000872344
0.000934108
0.00100235
0.00107792
0.00116211
0.00125691
0.00136533
0.00149163
0.00164128
0.00182
0.00203094
0.00226959
0.00251692
0.00270407
0.00276374
0.00272264
0.00252726
0.00238958
0.0024386
0.00289116
0.00317573
0.000555362
0.000542204
0.00217486
0.0026694
0.00283524
0.00281562
0.00262995
0.00233483
0.00199483
0.00166929
0.00139635
0.00118834
0.00103966
0.000937607
0.000869033
0.000822788
0.000790283
0.000765442
0.000744396
0.000724985
0.00070619
0.000687645
0.00066929
0.000651176
0.000633372
0.00061594
0.000598936
0.000582413
0.000566437
0.000551078
0.000536422
0.000522555
0.000509571
0.000497559
0.000486607
0.000476794
0.000468196
0.000460879
0.000454907
0.00045034
0.000447372
0.000446089
0.000445966
0.0004476
0.000451085
0.000456489
0.000463929
0.000473549
0.000485522
0.000500046
0.000517342
0.00053766
0.000561268
0.000588458
0.000619537
0.000654822
0.000694642
0.000739326
0.000789211
0.000844656
0.000906065
0.000973951
0.00104904
0.00113245
0.00122591
0.00133216
0.00145528
0.00160089
0.00177565
0.00198502
0.00222816
0.00249042
0.00272658
0.00283141
0.00282572
0.00264665
0.00243355
0.00240733
0.00274167
0.0031024
0.000535914
0.000521906
0.00213984
0.00261241
0.00277156
0.00275083
0.00257
0.00228168
0.00194813
0.0016282
0.00136066
0.0011582
0.00101494
0.000917665
0.000852822
0.000809127
0.00077811
0.000753962
0.000733109
0.000713631
0.000694668
0.000675934
0.000657402
0.000639125
0.000621169
0.00060359
0.00058644
0.000569775
0.00055366
0.000538171
0.000523395
0.000509422
0.000496343
0.000484248
0.000473219
0.000463333
0.000454657
0.000447252
0.000441175
0.000436478
0.000433273
0.000431767
0.000431482
0.000432782
0.000435878