/*--------------------------------*- C++ -*----------------------------------*\
  =========                 |
  \\      /  F ield         | OpenFOAM: The Open Source CFD Toolbox
   \\    /   O peration     | Website:  https://openfoam.org
    \\  /    A nd           | Version:  13
     \\/     M anipulation  |
\*---------------------------------------------------------------------------*/
FoamFile
{
    format      ascii;
    class       volScalarField;
    location    "9.1";
    object      nut;
}
// * * * * * * * * * * * * * * * * * * * * * * * * * * * * * * * * * * * * * //

dimensions      [0 2 -1 0 0 0 0];

internalField   nonuniform List<scalar> 
6400
(
9.96131e-10
5.11723e-09
1.2448e-08
2.00462e-08
2.57574e-08
2.89505e-08
3.00996e-08
3.02034e-08
3.0387e-08
3.15053e-08
3.4224e-08
3.95371e-08
4.79114e-08
5.95154e-08
7.37263e-08
8.9751e-08
1.06762e-07
1.24432e-07
1.41909e-07
1.58789e-07
1.75788e-07
1.94377e-07
2.16523e-07
2.43329e-07
2.73582e-07
3.03982e-07
3.34217e-07
3.64239e-07
3.94999e-07
4.27312e-07
4.60708e-07
4.94105e-07
5.26955e-07
5.59406e-07
5.92238e-07
6.25667e-07
6.60352e-07
6.9651e-07
7.34566e-07
7.74622e-07
8.1697e-07
8.61934e-07
9.09762e-07
9.61011e-07
1.01617e-06
1.07721e-06
1.14787e-06
1.23613e-06
1.32256e-06
1.41136e-06
1.49777e-06
1.58165e-06
1.66008e-06
1.731e-06
1.79174e-06
1.83881e-06
1.86217e-06
1.87132e-06
1.86533e-06
1.8279e-06
1.763e-06
1.67113e-06
1.55323e-06
1.41435e-06
1.25683e-06
1.08905e-06
9.19002e-07
7.53066e-07
5.97274e-07
4.59405e-07
3.46758e-07
2.52245e-07
1.7592e-07
1.17673e-07
7.57314e-08
4.71189e-08
2.84329e-08
1.63725e-08
7.75939e-09
1.65574e-09
4.81285e-09
3.37969e-07
1.21551e-06
2.0472e-06
2.66072e-06
3.02136e-06
3.18723e-06
3.24651e-06
3.28448e-06
3.36365e-06
3.56087e-06
3.94479e-06
4.4834e-06
5.10783e-06
5.75389e-06
6.35845e-06
6.87569e-06
7.25681e-06
7.48888e-06
7.58889e-06
7.64149e-06
7.71168e-06
7.86827e-06
8.13632e-06
8.45131e-06
8.65529e-06
8.85825e-06
9.09228e-06
9.40425e-06
9.83236e-06
1.03786e-05
1.09805e-05
1.1631e-05
1.23026e-05
1.30126e-05
1.37467e-05
1.45136e-05
1.53077e-05
1.61359e-05
1.69927e-05
1.78718e-05
1.87796e-05
1.97156e-05
2.07001e-05
2.16982e-05
2.26752e-05
2.36056e-05
2.44302e-05
2.53081e-05
2.61843e-05
2.70737e-05
2.79514e-05
2.88052e-05
2.96133e-05
3.03534e-05
3.10813e-05
3.15137e-05
3.18091e-05
3.19848e-05
3.19401e-05
3.15559e-05
3.08728e-05
2.98559e-05
2.8505e-05
2.68176e-05
2.48524e-05
2.27008e-05
2.03851e-05
1.79394e-05
1.52669e-05
1.23718e-05
9.59073e-06
7.14096e-06
5.12855e-06
3.56392e-06
2.42996e-06
1.62987e-06
1.05787e-06
4.80313e-07
8.75357e-09
1.05246e-08
8.71253e-07
3.51307e-06
6.09379e-06
8.06793e-06
9.35042e-06
1.0073e-05
1.04402e-05
1.06619e-05
1.09195e-05
1.13471e-05
1.20223e-05
1.29172e-05
1.39295e-05
1.49285e-05
1.58048e-05
1.65074e-05
1.70109e-05
1.73152e-05
1.74369e-05
1.73991e-05
1.73029e-05
1.72265e-05
1.72086e-05
1.7286e-05
1.75497e-05
1.78677e-05
1.81956e-05
1.85478e-05
1.89253e-05
1.94238e-05
2.01277e-05
2.11216e-05
2.21374e-05
2.32855e-05
2.44893e-05
2.5772e-05
2.70714e-05
2.84281e-05
2.9877e-05
3.12734e-05
3.2719e-05
3.41221e-05
3.54566e-05
3.67297e-05
3.79798e-05
3.91955e-05
4.04181e-05
4.16522e-05
4.28824e-05
4.4105e-05
4.53054e-05
4.64685e-05
4.75732e-05
4.85923e-05
4.949e-05
5.02864e-05
5.07938e-05
5.10226e-05
5.11708e-05
5.09811e-05
5.04716e-05
4.95891e-05
4.82356e-05
4.63213e-05
4.3877e-05
4.10908e-05
3.79477e-05
3.44627e-05
3.0667e-05
2.66204e-05
2.2464e-05
1.83942e-05
1.4613e-05
1.12834e-05
8.46825e-06
6.23392e-06
4.30727e-06
1.80123e-06
2.3442e-08
1.82845e-08
1.42596e-06
5.49426e-06
9.37265e-06
1.237e-05
1.44283e-05
1.57058e-05
1.64299e-05
1.68631e-05
1.72343e-05
1.77423e-05
1.85085e-05
1.95079e-05
2.05977e-05
2.16152e-05
2.24448e-05
2.3027e-05
2.33594e-05
2.34732e-05
2.34288e-05
2.32947e-05
2.31831e-05
2.31605e-05
2.3263e-05
2.33163e-05
2.33275e-05
2.33119e-05
2.37184e-05
2.44656e-05
2.5458e-05
2.67421e-05
2.79621e-05
2.91718e-05
3.04615e-05
3.1782e-05
3.30752e-05
3.43779e-05
3.57482e-05
3.7034e-05
3.83176e-05
3.95454e-05
4.07586e-05
4.19209e-05
4.30456e-05
4.41225e-05
4.51772e-05
4.62321e-05
4.72883e-05
4.83423e-05
4.93876e-05
5.04179e-05
5.14223e-05
5.23881e-05
5.32983e-05
5.4133e-05
5.48684e-05
5.54793e-05
5.59387e-05
5.61732e-05
5.62251e-05
5.60556e-05
5.55156e-05
5.47445e-05
5.39335e-05
5.26099e-05
5.06601e-05
4.82652e-05
4.53879e-05
4.20989e-05
3.8444e-05
3.44678e-05
3.02362e-05
2.58599e-05
2.15018e-05
1.73651e-05
1.36107e-05
1.03477e-05
7.27429e-06
3.02825e-06
3.91223e-08
2.93498e-08
2.14039e-06
7.62262e-06
1.26048e-05
1.63195e-05
1.88198e-05
2.03495e-05
2.11994e-05
2.16878e-05
2.21377e-05
2.28023e-05
2.37639e-05
2.49163e-05
2.60601e-05
2.70176e-05
2.769e-05
2.80584e-05
2.81646e-05
2.80663e-05
2.78867e-05
2.76281e-05
2.74489e-05
2.7288e-05
2.66586e-05
2.66068e-05
2.71428e-05
2.80905e-05
2.92269e-05
3.03841e-05
3.16858e-05
3.29547e-05
3.41845e-05
3.53924e-05
3.65689e-05
3.76533e-05
3.86681e-05
3.96892e-05
4.06314e-05
4.14487e-05
4.22171e-05
4.29034e-05
4.35423e-05
4.41478e-05
4.475e-05
4.53722e-05
4.60065e-05
4.66395e-05
4.72811e-05
4.79327e-05
4.85977e-05
4.92775e-05
4.99721e-05
5.06795e-05
5.1395e-05
5.21116e-05
5.28165e-05
5.34895e-05
5.4101e-05
5.4619e-05
5.49842e-05
5.51223e-05
5.49984e-05
5.44337e-05
5.33316e-05
5.25293e-05
5.13355e-05
4.95082e-05
4.71882e-05
4.44371e-05
4.13048e-05
3.7827e-05
3.40283e-05
2.9945e-05
2.56674e-05
2.1403e-05
1.73187e-05
1.34814e-05
9.50352e-06
3.88836e-06
5.00315e-08
4.51478e-08
3.10109e-06
1.01353e-05
1.61375e-05
2.03572e-05
2.30393e-05
2.45775e-05
2.53878e-05
2.58964e-05
2.648e-05
2.7347e-05
2.84745e-05
2.96756e-05
3.07309e-05
3.1486e-05
3.18811e-05
3.19353e-05
3.17775e-05
3.13533e-05
3.10334e-05
3.04862e-05
2.96125e-05
2.94725e-05
3.01769e-05
3.1141e-05
3.21492e-05
3.33054e-05
3.44583e-05
3.55638e-05
3.66248e-05
3.75423e-05
3.83961e-05
3.91769e-05
3.9856e-05
4.03969e-05
4.08696e-05
4.12503e-05
4.16226e-05
4.19068e-05
4.2153e-05
4.23743e-05
4.25868e-05
4.27849e-05
4.29742e-05
4.31608e-05
4.33428e-05
4.35277e-05
4.37225e-05
4.39363e-05
4.41797e-05
4.44638e-05
4.48005e-05
4.5202e-05
4.56762e-05
4.62218e-05
4.68429e-05
4.75398e-05
4.8287e-05
4.90498e-05
4.97753e-05
5.04772e-05
5.08726e-05
5.10045e-05
5.07837e-05
4.99623e-05
4.94618e-05
4.82415e-05
4.64727e-05
4.42173e-05
4.15614e-05
3.85769e-05
3.52949e-05
3.16955e-05
2.77524e-05
2.36181e-05
1.94218e-05
1.53099e-05
1.08308e-05
4.30593e-06
5.41176e-08
6.70659e-08
4.35124e-06
1.30619e-05
1.99687e-05
2.44983e-05
2.71701e-05
2.85755e-05
2.92878e-05
2.98259e-05
3.05482e-05
3.1556e-05
3.27207e-05
3.38128e-05
3.46314e-05
3.50729e-05
3.51372e-05
3.46652e-05
3.42129e-05
3.37335e-05
3.2541e-05
3.22042e-05
3.2691e-05
3.35359e-05
3.43045e-05
3.5188e-05
3.60691e-05
3.6956e-05
3.77168e-05
3.83714e-05
3.89379e-05
3.9426e-05
3.9834e-05
4.01418e-05
4.03622e-05
4.05072e-05
4.06062e-05
4.066e-05
4.06898e-05
4.06695e-05
4.06528e-05
4.06379e-05
4.05744e-05
4.052e-05
4.04397e-05
4.03616e-05
4.02641e-05
4.01637e-05
4.00536e-05
3.99424e-05
3.98382e-05
3.97557e-05
3.9713e-05
3.97403e-05
3.98821e-05
4.01418e-05
4.05266e-05
4.11057e-05
4.18716e-05
4.27853e-05
4.3788e-05
4.48704e-05
4.58911e-05
4.67793e-05
4.71889e-05
4.7229e-05
4.67439e-05
4.64294e-05
4.52023e-05
4.33383e-05
4.09681e-05
3.82376e-05
3.52622e-05
3.20747e-05
2.85787e-05
2.46685e-05
2.06225e-05
1.62305e-05
1.11297e-05
4.2969e-06
5.25888e-08
9.63852e-08
5.9096e-06
1.63298e-05
2.39911e-05
2.86512e-05
3.11831e-05
3.23928e-05
3.30015e-05
3.35664e-05
3.43676e-05
3.53892e-05
3.64295e-05
3.72525e-05
3.7693e-05
3.76989e-05
3.71701e-05
3.66954e-05
3.5632e-05
3.4884e-05
3.48412e-05
3.53724e-05
3.57518e-05
3.63668e-05
3.69639e-05
3.76769e-05
3.82706e-05
3.8791e-05
3.91751e-05
3.9471e-05
3.96792e-05
3.98155e-05
3.98861e-05
3.99015e-05
3.9881e-05
3.98375e-05
3.97838e-05
3.97201e-05
3.96512e-05
3.95757e-05
3.95043e-05
3.93914e-05
3.9315e-05
3.92649e-05
3.90963e-05
3.89908e-05
3.88355e-05
3.8681e-05
3.85015e-05
3.83077e-05
3.80891e-05
3.78479e-05
3.75783e-05
3.72772e-05
3.69373e-05
3.66308e-05
3.64592e-05
3.64642e-05
3.68071e-05
3.7512e-05
3.84123e-05
3.96291e-05
4.09514e-05
4.23406e-05
4.36371e-05
4.43309e-05
4.44418e-05
4.43327e-05
4.41522e-05
4.27512e-05
4.06239e-05
3.79623e-05
3.49862e-05
3.18745e-05
2.86697e-05
2.51339e-05
2.1123e-05
1.67515e-05
1.13085e-05
4.18543e-06
4.88994e-08
1.33994e-07
7.75782e-06
1.98468e-05
2.8049e-05
3.27229e-05
3.50427e-05
3.60365e-05
3.65386e-05
3.70888e-05
3.78654e-05
3.87581e-05
3.95343e-05
3.99865e-05
3.9833e-05
3.93366e-05
3.88315e-05
3.75093e-05
3.69972e-05
3.70357e-05
3.70851e-05
3.7337e-05
3.77406e-05
3.82228e-05
3.86486e-05
3.90511e-05
3.93143e-05
3.94984e-05
3.95835e-05
3.96177e-05
3.9605e-05
3.95698e-05
3.95222e-05
3.94763e-05
3.94408e-05
3.94177e-05
3.94071e-05
3.94057e-05
3.94107e-05
3.94134e-05
3.94082e-05
3.94037e-05
3.93996e-05
3.93602e-05
3.92997e-05
3.92382e-05
3.91398e-05
3.9026e-05
3.88808e-05
3.87074e-05
3.84961e-05
3.82469e-05
3.7952e-05
3.76042e-05
3.71974e-05
3.67214e-05
3.61698e-05
3.55433e-05
3.48579e-05
3.43547e-05
3.45081e-05
3.53223e-05
3.64715e-05
3.80117e-05
3.9647e-05
4.12828e-05
4.22229e-05
4.24011e-05
4.25428e-05
4.24608e-05
4.07904e-05
3.82929e-05
3.5221e-05
3.18797e-05
2.85195e-05
2.51189e-05
2.13089e-05
1.68004e-05
1.10546e-05
3.89324e-06
4.46856e-08
1.80225e-07
9.8138e-06
2.34397e-05
3.20613e-05
3.66558e-05
3.87227e-05
3.94896e-05
3.98593e-05
4.03195e-05
4.09517e-05
4.15863e-05
4.19945e-05
4.17328e-05
4.11718e-05
4.05825e-05
3.94875e-05
3.89138e-05
3.86577e-05
3.84051e-05
3.85332e-05
3.87494e-05
3.90298e-05
3.92853e-05
3.94591e-05
3.95685e-05
3.9582e-05
3.9559e-05
3.95024e-05
3.94526e-05
3.94146e-05
3.94065e-05
3.94288e-05
3.94838e-05
3.95659e-05
3.96679e-05
3.97804e-05
3.98906e-05
4.00203e-05
4.01033e-05
4.01512e-05
4.02526e-05
4.02675e-05
4.02805e-05
4.02577e-05
4.02144e-05
4.01389e-05
4.00402e-05
3.99138e-05
3.9764e-05
3.95886e-05
3.93781e-05
3.91258e-05
3.88192e-05
3.84393e-05
3.79774e-05
3.74089e-05
3.67149e-05
3.5885e-05
3.49511e-05
3.39663e-05
3.29998e-05
3.30734e-05
3.41564e-05
3.56379e-05
3.75599e-05
3.9467e-05
4.06505e-05
4.09172e-05
4.11477e-05
4.10762e-05
3.90786e-05
3.61459e-05
3.25951e-05
2.88135e-05
2.50944e-05
2.12641e-05
1.67409e-05
1.07653e-05
3.60789e-06
4.11433e-08
2.35951e-07
1.1906e-05
2.69704e-05
3.59402e-05
4.04036e-05
4.2195e-05
4.27159e-05
4.29028e-05
4.31794e-05
4.35515e-05
4.38223e-05
4.34698e-05
4.2814e-05
4.21472e-05
4.12096e-05
4.05214e-05
3.98987e-05
3.95751e-05
3.94245e-05
3.95045e-05
3.95878e-05
3.96753e-05
3.97023e-05
3.96702e-05
3.96049e-05
3.95188e-05
3.94589e-05
3.94322e-05
3.94611e-05
3.95405e-05
3.96712e-05
3.98407e-05
4.00392e-05
4.02529e-05
4.04756e-05
4.07256e-05
4.08996e-05
4.10148e-05
4.12306e-05
4.13353e-05
4.14475e-05
4.15025e-05
4.15407e-05
4.15389e-05
4.15078e-05
4.1441e-05
4.1342e-05
4.12085e-05
4.10413e-05
4.08393e-05
4.06021e-05
4.03298e-05
4.00221e-05
3.96779e-05
3.92943e-05
3.88436e-05
3.82751e-05
3.75358e-05
3.66061e-05
3.54774e-05
3.42103e-05
3.2956e-05
3.1832e-05
3.22871e-05
3.38091e-05
3.58234e-05
3.79594e-05
3.93945e-05
3.97467e-05
3.9954e-05
3.97605e-05
3.73828e-05
3.39701e-05
2.99048e-05
2.56271e-05
2.14161e-05
1.67065e-05
1.07318e-05
3.52084e-06
3.97153e-08
3.03644e-07
1.38399e-05
3.03474e-05
3.96274e-05
4.39302e-05
4.54276e-05
4.56702e-05
4.56074e-05
4.56039e-05
4.56148e-05
4.51529e-05
4.43835e-05
4.36605e-05
4.27976e-05
4.19974e-05
4.10466e-05
4.05214e-05
4.02149e-05
4.00603e-05
4.00138e-05
3.99375e-05
3.98537e-05
3.97356e-05
3.96192e-05
3.9533e-05
3.9499e-05
3.95409e-05
3.96541e-05
3.98383e-05
4.00756e-05
4.03535e-05
4.06536e-05
4.09639e-05
4.13088e-05
4.16232e-05
4.1839e-05
4.20738e-05
4.23251e-05
4.25364e-05
4.2691e-05
4.28288e-05
4.2922e-05
4.29865e-05
4.30111e-05
4.30004e-05
4.29506e-05
4.28627e-05
4.27349e-05
4.25671e-05
4.23582e-05
4.21073e-05
4.18128e-05
4.14729e-05
4.10852e-05
4.06474e-05
4.01584e-05
3.96174e-05
3.902e-05
3.82886e-05
3.73302e-05
3.60933e-05
3.46462e-05
3.30942e-05
3.16779e-05
3.097e-05
3.2359e-05
3.43034e-05
3.66911e-05
3.83012e-05
3.87041e-05
3.88135e-05
3.83227e-05
3.55011e-05
3.15774e-05
2.6981e-05
2.2139e-05
1.70682e-05
1.09453e-05
3.65204e-06
4.09481e-08
3.78744e-07
1.57544e-05
3.35586e-05
4.3089e-05
4.72056e-05
4.83879e-05
4.8309e-05
4.79227e-05
4.75488e-05
4.69072e-05
4.59879e-05
4.52234e-05
4.43236e-05
4.33884e-05
4.22099e-05
4.13915e-05
4.09007e-05
4.05667e-05
4.03411e-05
4.01608e-05
3.99688e-05
3.98019e-05
3.96631e-05
3.95946e-05
3.96124e-05
3.9725e-05
3.99293e-05
4.02067e-05
4.05413e-05
4.09107e-05
4.12991e-05
4.16967e-05
4.21116e-05
4.24971e-05
4.28209e-05
4.31238e-05
4.34118e-05
4.37017e-05
4.39565e-05
4.41571e-05
4.43329e-05
4.4468e-05
4.45678e-05
4.46265e-05
4.46447e-05
4.46195e-05
4.45502e-05
4.44354e-05
4.42743e-05
4.40661e-05
4.38098e-05
4.35043e-05
4.31473e-05
4.27356e-05
4.22648e-05
4.17296e-05
4.11254e-05
4.04508e-05
3.97108e-05
3.8907e-05
3.79154e-05
3.66297e-05
3.50512e-05
3.32895e-05
3.15517e-05
3.02048e-05
3.10772e-05
3.30334e-05
3.55742e-05
3.72712e-05
3.76548e-05
3.76143e-05
3.65918e-05
3.32588e-05
2.88274e-05
2.36254e-05
1.80665e-05
1.17034e-05
4.09087e-06
4.65302e-08
4.59108e-07
1.76122e-05
3.65606e-05
4.62916e-05
5.02037e-05
5.10483e-05
5.06002e-05
4.98175e-05
4.88787e-05
4.77399e-05
4.69247e-05
4.58283e-05
4.47607e-05
4.3401e-05
4.23055e-05
4.15593e-05
4.10533e-05
4.06646e-05
4.03605e-05
4.00993e-05
3.98796e-05
3.97399e-05
3.96922e-05
3.97619e-05
3.99431e-05
4.02248e-05
4.05855e-05
4.10011e-05
4.14512e-05
4.19173e-05
4.23869e-05
4.28503e-05
4.32992e-05
4.37322e-05
4.41288e-05
4.44895e-05
4.48401e-05
4.51402e-05
4.54533e-05
4.57232e-05
4.59425e-05
4.61275e-05
4.6271e-05
4.63701e-05
4.64227e-05
4.64257e-05
4.63773e-05
4.62755e-05
4.61196e-05
4.59089e-05
4.56437e-05
4.53242e-05
4.49501e-05
4.45202e-05
4.40311e-05
4.34762e-05
4.28463e-05
4.21305e-05
4.13205e-05
4.04185e-05
3.94449e-05
3.83582e-05
3.70009e-05
3.52982e-05
3.33729e-05
3.14102e-05
2.98291e-05
3.00117e-05
3.19494e-05
3.45718e-05
3.62266e-05
3.64738e-05
3.62958e-05
3.43915e-05
3.06016e-05
2.55155e-05
1.96478e-05
1.29484e-05
4.93391e-06
6.03314e-08
5.42115e-07
1.93706e-05
3.93133e-05
4.92098e-05
5.29064e-05
5.3397e-05
5.25422e-05
5.12523e-05
4.98252e-05
4.8881e-05
4.74191e-05
4.62118e-05
4.46664e-05
4.33153e-05
4.22879e-05
4.15637e-05
4.10213e-05
4.05874e-05
4.02478e-05
3.99895e-05
3.98356e-05
3.98114e-05
3.99191e-05
4.01578e-05
4.05029e-05
4.09311e-05
4.14152e-05
4.19325e-05
4.24658e-05
4.30014e-05
4.35307e-05
4.40469e-05
4.45449e-05
4.50212e-05
4.54808e-05
4.59327e-05
4.63341e-05
4.66898e-05
4.70211e-05
4.73804e-05
4.76644e-05
4.79015e-05
4.8098e-05
4.82428e-05
4.83354e-05
4.83704e-05
4.83452e-05
4.82568e-05
4.81036e-05
4.78852e-05
4.76022e-05
4.72565e-05
4.68507e-05
4.63873e-05
4.58675e-05
4.52893e-05
4.46457e-05
4.39233e-05
4.31025e-05
4.21615e-05
4.10876e-05
3.98958e-05
3.85727e-05
3.70976e-05
3.5345e-05
3.32868e-05
3.11924e-05
2.93594e-05
2.91112e-05
3.09894e-05
3.36695e-05
3.5118e-05
3.51156e-05
3.47222e-05
3.18491e-05
2.72574e-05
2.144e-05
1.45019e-05
5.93567e-06
8.296e-08
6.25397e-07
2.09909e-05
4.17915e-05
5.18337e-05
5.53044e-05
5.54436e-05
5.40825e-05
5.2421e-05
5.11349e-05
4.92851e-05
4.78274e-05
4.6082e-05
4.44705e-05
4.31528e-05
4.21674e-05
4.14395e-05
4.0873e-05
4.04357e-05
4.01277e-05
3.99534e-05
3.99328e-05
4.00686e-05
4.03451e-05
4.07404e-05
4.12218e-05
4.17627e-05
4.23386e-05
4.29318e-05
4.35299e-05
4.41241e-05
4.47091e-05
4.5281e-05
4.58373e-05
4.63766e-05
4.68978e-05
4.74108e-05
4.79102e-05
4.83365e-05
4.87104e-05
4.91046e-05
4.94986e-05
4.97836e-05
5.00414e-05
5.02375e-05
5.03762e-05
5.04493e-05
5.04531e-05
5.0383e-05
5.02362e-05
5.00108e-05
4.97072e-05
4.93273e-05
4.88757e-05
4.8358e-05
4.77811e-05
4.71505e-05
4.6468e-05
4.57288e-05
4.49173e-05
4.40061e-05
4.29575e-05
4.1735e-05
4.03835e-05
3.88017e-05
3.69728e-05
3.51285e-05
3.30337e-05
3.08387e-05
2.8801e-05
2.83315e-05
3.0134e-05
3.27276e-05
3.4031e-05
3.34475e-05
3.23363e-05
2.84925e-05
2.30396e-05
1.61111e-05
6.97786e-06
1.12353e-07
7.07122e-07
2.24277e-05
4.39945e-05
5.42008e-05
5.73664e-05
5.69739e-05
5.53691e-05
5.36367e-05
5.15146e-05
4.96954e-05
4.77279e-05
4.5839e-05
4.42107e-05
4.29295e-05
4.19677e-05
4.12399e-05
4.0687e-05
4.03024e-05
4.00904e-05
4.00547e-05
4.01967e-05
4.04963e-05
4.09238e-05
4.14471e-05
4.20341e-05
4.26611e-05
4.3309e-05
4.39659e-05
4.46234e-05
4.52764e-05
4.59218e-05
4.65571e-05
4.71804e-05
4.77899e-05
4.83833e-05
4.89579e-05
4.95401e-05
5.00614e-05
5.04729e-05
5.09124e-05
5.14044e-05
5.17509e-05
5.20691e-05
5.23224e-05
5.25128e-05
5.26317e-05
5.26733e-05
5.26317e-05
5.25017e-05
5.22795e-05
5.19634e-05
5.15541e-05
5.10552e-05
5.04737e-05
4.98197e-05
4.91049e-05
4.8341e-05
4.75356e-05
4.66878e-05
4.57823e-05
4.47846e-05
4.36401e-05
4.2283e-05
4.0797e-05
3.89937e-05
3.67251e-05
3.46985e-05
3.26192e-05
3.02971e-05
2.8073e-05
2.77017e-05
2.94041e-05
3.15417e-05
3.23672e-05
3.16281e-05
2.90973e-05
2.42351e-05
1.75626e-05
7.92553e-06
1.46666e-07
7.85716e-07
2.37133e-05
4.59173e-05
5.61393e-05
5.89256e-05
5.83924e-05
5.67868e-05
5.44664e-05
5.19187e-05
4.96878e-05
4.7499e-05
4.55298e-05
4.39115e-05
4.26639e-05
4.17247e-05
4.10239e-05
4.05326e-05
4.02519e-05
4.01788e-05
4.03036e-05
4.06059e-05
4.10506e-05
4.16017e-05
4.2226e-05
4.28963e-05
4.35941e-05
4.4306e-05
4.50241e-05
4.57432e-05
4.646e-05
4.71719e-05
4.78763e-05
4.85704e-05
4.92511e-05
4.99149e-05
5.05579e-05
5.12142e-05
5.18213e-05
5.22855e-05
5.27826e-05
5.3325e-05
5.3756e-05
5.41286e-05
5.44424e-05
5.46884e-05
5.48601e-05
5.49493e-05
5.49487e-05
5.48506e-05
5.46489e-05
5.43386e-05
5.39175e-05
5.33865e-05
5.27509e-05
5.20204e-05
5.12097e-05
5.03368e-05
4.94208e-05
4.84769e-05
4.75104e-05
4.65081e-05
4.54297e-05
4.42021e-05
4.27231e-05
4.1119e-05
3.89445e-05
3.63853e-05
3.41327e-05
3.20235e-05
2.95057e-05
2.70979e-05
2.71407e-05
2.89725e-05
3.03395e-05
3.03562e-05
2.91834e-05
2.49926e-05
1.87037e-05
8.6988e-06
1.84248e-07
8.58122e-07
2.48082e-05
4.74636e-05
5.76377e-05
6.01851e-05
5.98277e-05
5.76318e-05
5.47725e-05
5.2147e-05
4.95363e-05
4.71917e-05
4.51859e-05
4.35918e-05
4.23797e-05
4.14793e-05
4.08427e-05
4.04563e-05
4.03134e-05
4.03961e-05
4.06777e-05
4.11217e-05
4.1687e-05
4.23375e-05
4.3044e-05
4.37854e-05
4.45481e-05
4.53231e-05
4.61051e-05
4.68902e-05
4.76752e-05
4.84568e-05
4.92314e-05
4.99951e-05
5.07438e-05
5.14733e-05
5.21795e-05
5.28945e-05
5.3573e-05
5.41038e-05
5.46386e-05
5.52233e-05
5.57354e-05
5.61585e-05
5.65315e-05
5.68347e-05
5.70636e-05
5.72086e-05
5.72607e-05
5.72105e-05
5.7049e-05
5.67679e-05
5.6361e-05
5.58252e-05
5.51613e-05
5.4376e-05
5.34821e-05
5.24992e-05
5.14524e-05
5.03694e-05
4.92747e-05
4.81813e-05
4.70796e-05
4.59255e-05
4.46295e-05
4.30536e-05
4.12078e-05
3.86111e-05
3.5859e-05
3.34409e-05
3.12218e-05
2.8348e-05
2.59513e-05
2.64505e-05
2.8357e-05
2.93578e-05
2.82107e-05
2.52613e-05
1.94897e-05
9.29e-06
2.23951e-07
9.21772e-07
2.5686e-05
4.863e-05
5.87688e-05
6.14301e-05
6.08668e-05
5.8348e-05
5.5172e-05
5.21094e-05
4.92884e-05
4.68416e-05
4.48291e-05
4.32694e-05
4.21032e-05
4.12676e-05
4.07309e-05
4.04782e-05
4.04868e-05
4.0722e-05
4.11434e-05
4.1707e-05
4.23716e-05
4.3105e-05
4.38835e-05
4.46913e-05
4.55186e-05
4.63591e-05
4.72082e-05
4.80618e-05
4.89157e-05
4.97654e-05
5.0606e-05
5.14326e-05
5.22408e-05
5.30261e-05
5.37849e-05
5.45416e-05
5.52762e-05
5.58773e-05
5.64305e-05
5.7047e-05
5.76316e-05
5.81001e-05
5.85273e-05
5.88863e-05
5.91736e-05
5.93791e-05
5.94928e-05
5.95037e-05
5.94002e-05
5.91713e-05
5.88065e-05
5.82979e-05
5.7641e-05
5.68366e-05
5.58924e-05
5.48247e-05
5.36588e-05
5.24278e-05
5.1169e-05
4.9917e-05
4.86925e-05
4.74885e-05
4.62543e-05
4.48783e-05
4.31751e-05
4.09702e-05
3.80595e-05
3.51445e-05
3.26345e-05
3.01862e-05
2.70479e-05
2.50817e-05
2.58199e-05
2.69855e-05
2.70885e-05
2.52079e-05
1.99217e-05
9.67374e-06
2.65407e-07
9.75261e-07
2.63527e-05
4.94671e-05
5.96575e-05
6.23577e-05
6.16068e-05
5.86523e-05
5.52934e-05
5.19649e-05
4.89814e-05
4.64738e-05
4.44755e-05
4.2961e-05
4.1858e-05
4.11145e-05
4.07035e-05
4.05971e-05
4.07546e-05
4.11282e-05
4.16698e-05
4.23338e-05
4.30829e-05
4.38898e-05
4.4736e-05
4.56098e-05
4.65035e-05
4.74115e-05
4.83287e-05
4.92496e-05
5.01686e-05
5.10798e-05
5.19774e-05
5.28561e-05
5.37114e-05
5.45395e-05
5.53375e-05
5.6117e-05
5.68949e-05
5.75637e-05
5.8119e-05
5.87523e-05
5.94004e-05
5.99077e-05
6.03818e-05
6.0792e-05
6.11357e-05
6.14025e-05
6.15821e-05
6.16625e-05
6.16304e-05
6.14722e-05
6.11741e-05
6.07233e-05
6.01096e-05
5.93269e-05
5.83758e-05
5.72654e-05
5.6016e-05
5.46595e-05
5.32385e-05
5.18017e-05
5.03945e-05
4.90461e-05
4.77517e-05
4.64538e-05
4.50198e-05
4.31183e-05
4.03408e-05
3.72618e-05
3.42624e-05
3.1649e-05
2.87903e-05
2.53433e-05
2.43774e-05
2.54226e-05
2.61241e-05
2.4602e-05
1.99989e-05
9.84954e-06
3.08444e-07
1.01782e-06
2.68108e-05
5.003e-05
6.02634e-05
6.30573e-05
6.21574e-05
5.90436e-05
5.5308e-05
5.17484e-05
4.8643e-05
4.61057e-05
4.4138e-05
4.26815e-05
4.16613e-05
4.10321e-05
4.076e-05
4.07991e-05
4.10939e-05
4.15888e-05
4.22332e-05
4.29839e-05
4.38084e-05
4.46845e-05
4.55975e-05
4.65381e-05
4.74992e-05
4.84744e-05
4.94571e-05
5.04402e-05
5.14164e-05
5.23789e-05
5.33215e-05
5.42391e-05
5.51278e-05
5.59848e-05
5.68085e-05
5.75988e-05
5.84047e-05
5.91284e-05
5.96787e-05
6.03119e-05
6.10139e-05
6.15536e-05
6.20653e-05
6.25202e-05
6.29149e-05
6.32401e-05
6.34853e-05
6.36382e-05
6.36847e-05
6.36095e-05
6.3396e-05
6.30275e-05
6.24886e-05
6.17664e-05
6.08531e-05
5.97489e-05
5.84651e-05
5.70266e-05
5.54737e-05
5.38602e-05
5.22469e-05
5.06904e-05
4.92249e-05
4.78428e-05
4.64763e-05
4.49839e-05
4.26595e-05
3.94182e-05
3.62836e-05
3.31689e-05
3.03995e-05
2.68877e-05
2.37207e-05
2.34859e-05
2.38499e-05
2.35679e-05
1.98863e-05
9.98938e-06
3.55279e-07
1.04934e-06
2.70779e-05
5.0349e-05
6.06125e-05
6.35779e-05
6.24125e-05
5.91749e-05
5.52266e-05
5.14856e-05
4.82932e-05
4.57502e-05
4.38268e-05
4.24422e-05
4.15223e-05
4.10211e-05
4.08898e-05
4.10656e-05
4.14829e-05
4.20835e-05
4.28175e-05
4.36459e-05
4.45411e-05
4.54847e-05
4.64646e-05
4.74721e-05
4.84994e-05
4.95385e-05
5.05808e-05
5.16176e-05
5.26407e-05
5.36427e-05
5.46177e-05
5.55611e-05
5.647e-05
5.73425e-05
5.81777e-05
5.89746e-05
5.9786e-05
6.05576e-05
6.1105e-05
6.17181e-05
6.24595e-05
6.30281e-05
6.35675e-05
6.40587e-05
6.4497e-05
6.48742e-05
6.51805e-05
6.54039e-05
6.55301e-05
6.55429e-05
6.54242e-05
6.51545e-05
6.47139e-05
6.40836e-05
6.32479e-05
6.21974e-05
6.09322e-05
5.94665e-05
5.78317e-05
5.60786e-05
5.42746e-05
5.24951e-05
5.08064e-05
4.92415e-05
4.77719e-05
4.62801e-05
4.45343e-05
4.17223e-05
3.8375e-05
3.50939e-05
3.1741e-05
2.86489e-05
2.46084e-05
2.26998e-05
2.27604e-05
2.28205e-05
1.97681e-05
1.03305e-05
4.14871e-07
1.07033e-06
2.71786e-05
5.04122e-05
6.06724e-05
6.37547e-05
6.2696e-05
5.92127e-05
5.50789e-05
5.11971e-05
4.79466e-05
4.54163e-05
4.35492e-05
4.22497e-05
4.14431e-05
4.10747e-05
4.10786e-05
4.13785e-05
4.19044e-05
4.25979e-05
4.34122e-05
4.43128e-05
4.52761e-05
4.62864e-05
4.73327e-05
4.84055e-05
4.94953e-05
5.05922e-05
5.16859e-05
5.27666e-05
5.38255e-05
5.48554e-05
5.58511e-05
5.68091e-05
5.77275e-05
5.8606e-05
5.9445e-05
6.02456e-05
6.10371e-05
6.18231e-05
6.24185e-05
6.29988e-05
6.37322e-05
6.43377e-05
6.48948e-05
6.54129e-05
6.58856e-05
6.63061e-05
6.66656e-05
6.69528e-05
6.71543e-05
6.72537e-05
6.72323e-05
6.70689e-05
6.67408e-05
6.62243e-05
6.54971e-05
6.45405e-05
6.33431e-05
6.19061e-05
6.02476e-05
5.84083e-05
5.64524e-05
5.44646e-05
5.25377e-05
5.07506e-05
4.91404e-05
4.76732e-05
4.62179e-05
4.38286e-05
4.04227e-05
3.7148e-05
3.36384e-05
3.0002e-05
2.62374e-05
2.23625e-05
2.14746e-05
2.13069e-05
1.94929e-05
1.09604e-05
4.95488e-07
1.08086e-06
2.71088e-05
5.02144e-05
6.0606e-05
6.38952e-05
6.27384e-05
5.91569e-05
5.48853e-05
5.08987e-05
4.76136e-05
4.51104e-05
4.33102e-05
4.21063e-05
4.14197e-05
4.11823e-05
4.13116e-05
4.1723e-05
4.23452e-05
4.31221e-05
4.40105e-05
4.49797e-05
4.60094e-05
4.70853e-05
4.81958e-05
4.93301e-05
5.04766e-05
5.16237e-05
5.27597e-05
5.38743e-05
5.49587e-05
5.60065e-05
5.70134e-05
5.79771e-05
5.88972e-05
5.97745e-05
6.06108e-05
6.14092e-05
6.21743e-05
6.29659e-05
6.36171e-05
6.41554e-05
6.48619e-05
6.5499e-05
6.6066e-05
6.66013e-05
6.70983e-05
6.75516e-05
6.79538e-05
6.8295e-05
6.85628e-05
6.87417e-05
6.88134e-05
6.87561e-05
6.85453e-05
6.81544e-05
6.75557e-05
6.67228e-05
6.56338e-05
6.42761e-05
6.26526e-05
6.07882e-05
5.87354e-05
5.65757e-05
5.44123e-05
5.2351e-05
5.04689e-05
4.8778e-05
4.71922e-05
4.55035e-05
4.24969e-05
3.8967e-05
3.54991e-05
3.17685e-05
2.78917e-05
2.32665e-05
2.09914e-05
1.9809e-05
1.89858e-05
1.16546e-05
5.97188e-07
1.08026e-06
2.6937e-05
4.99594e-05
6.03898e-05
6.39027e-05
6.2677e-05
5.90297e-05
5.46625e-05
5.06024e-05
4.73017e-05
4.48368e-05
4.31118e-05
4.20106e-05
4.14455e-05
4.13325e-05
4.15761e-05
4.20874e-05
4.27963e-05
4.36493e-05
4.46071e-05
4.56424e-05
4.67366e-05
4.78755e-05
4.90467e-05
5.02371e-05
5.14335e-05
5.26225e-05
5.3792e-05
5.49315e-05
5.60331e-05
5.70911e-05
5.81026e-05
5.90665e-05
5.99835e-05
6.08553e-05
6.16843e-05
6.24735e-05
6.32255e-05
6.40058e-05
6.47114e-05
6.52109e-05
6.58776e-05
6.65379e-05
6.71081e-05
6.7651e-05
6.81618e-05
6.86366e-05
6.90695e-05
6.94523e-05
6.97743e-05
7.00215e-05
7.01765e-05
7.02182e-05
7.01218e-05
6.98588e-05
6.93981e-05
6.87073e-05
6.77558e-05
6.65185e-05
6.49824e-05
6.31544e-05
6.10696e-05
5.87981e-05
5.6445e-05
5.4138e-05
5.20003e-05
5.01099e-05
4.84581e-05
4.69237e-05
4.44688e-05
4.08218e-05
3.74662e-05
3.33759e-05
2.9213e-05
2.47947e-05
2.08745e-05
1.93015e-05
1.85701e-05
1.22754e-05
7.15721e-07
1.07459e-06
2.66677e-05
4.95361e-05
5.99798e-05
6.36907e-05
6.25107e-05
5.88463e-05
5.44232e-05
5.03173e-05
4.70164e-05
4.4598e-05
4.29541e-05
4.19587e-05
4.15122e-05
4.1515e-05
4.1862e-05
4.24632e-05
4.32507e-05
4.41742e-05
4.51977e-05
4.62963e-05
4.74524e-05
4.86509e-05
4.98778e-05
5.11181e-05
5.2357e-05
5.35803e-05
5.47757e-05
5.59333e-05
5.7046e-05
5.81096e-05
5.91222e-05
6.00841e-05
6.09968e-05
6.18629e-05
6.26852e-05
6.34667e-05
6.42099e-05
6.49628e-05
6.57043e-05
6.61986e-05
6.68102e-05
6.74843e-05
6.80519e-05
6.85936e-05
6.91078e-05
6.95922e-05
7.00429e-05
7.04536e-05
7.08156e-05
7.11168e-05
7.13417e-05
7.14705e-05
7.14789e-05
7.13383e-05
7.10157e-05
7.04748e-05
6.96781e-05
6.85902e-05
6.71834e-05
6.54456e-05
6.33908e-05
6.10693e-05
5.85739e-05
5.60363e-05
5.36052e-05
5.14046e-05
4.94801e-05
4.77473e-05
4.59609e-05
4.27261e-05
3.91015e-05
3.53521e-05
3.09546e-05
2.6307e-05
2.10783e-05
1.87944e-05
1.76e-05
1.29245e-05
8.39511e-07
1.062e-06
2.63422e-05
4.88522e-05
5.94468e-05
6.33464e-05
6.22558e-05
5.86195e-05
5.41777e-05
5.00501e-05
4.67611e-05
4.43951e-05
4.28354e-05
4.19455e-05
4.16117e-05
4.17206e-05
4.21611e-05
4.28436e-05
4.37031e-05
4.46923e-05
4.5778e-05
4.69369e-05
4.81512e-05
4.94048e-05
5.06817e-05
5.19655e-05
5.32402e-05
5.44914e-05
5.5707e-05
5.6878e-05
5.79986e-05
5.90659e-05
6.00792e-05
6.10397e-05
6.19499e-05
6.28127e-05
6.36314e-05
6.44093e-05
6.5149e-05
6.58711e-05
6.66199e-05
6.71407e-05
6.769e-05
6.83684e-05
6.89284e-05
6.94607e-05
6.99684e-05
7.0451e-05
7.09064e-05
7.13307e-05
7.17174e-05
7.20569e-05
7.23357e-05
7.25361e-05
7.26355e-05
7.26058e-05
7.24139e-05
7.20214e-05
7.13861e-05
7.04647e-05
6.9217e-05
6.76135e-05
6.56462e-05
6.33414e-05
6.07724e-05
5.80645e-05
5.53842e-05
5.29039e-05
5.0747e-05
4.89268e-05
4.72977e-05
4.4466e-05
4.06496e-05
3.73363e-05
3.2407e-05
2.76026e-05
2.23521e-05
1.86322e-05
1.64414e-05
1.3433e-05
9.40539e-07
1.04236e-06
2.59221e-05
4.80981e-05
5.88223e-05
6.28829e-05
6.19254e-05
5.83595e-05
5.39335e-05
4.98057e-05
4.65382e-05
4.42279e-05
4.2753e-05
4.19654e-05
4.17368e-05
4.19421e-05
4.24669e-05
4.32234e-05
4.41489e-05
4.51994e-05
4.63436e-05
4.7559e-05
4.88272e-05
5.01307e-05
5.1452e-05
5.27733e-05
5.40781e-05
5.53522e-05
5.65843e-05
5.77666e-05
5.88944e-05
5.99661e-05
6.09821e-05
6.19443e-05
6.28557e-05
6.37193e-05
6.45383e-05
6.53156e-05
6.60541e-05
6.67577e-05
6.75017e-05
6.80544e-05
6.85443e-05
6.92179e-05
6.97659e-05
7.02818e-05
7.07736e-05
7.12432e-05
7.16907e-05
7.21144e-05
7.25105e-05
7.28718e-05
7.31876e-05
7.34425e-05
7.36161e-05
7.36821e-05
7.3608e-05
7.33551e-05
7.28788e-05
7.21301e-05
7.10592e-05
6.96215e-05
6.77879e-05
6.55584e-05
6.29791e-05
6.0155e-05
5.72499e-05
5.44609e-05
5.19626e-05
4.98382e-05
4.8031e-05
4.59055e-05
4.21202e-05
3.88971e-05
3.43587e-05
2.91684e-05
2.37609e-05
1.91156e-05
1.5759e-05
1.36385e-05
9.87546e-07
1.01674e-06
2.53958e-05
4.72304e-05
5.81013e-05
6.23226e-05
6.15322e-05
5.80751e-05
5.36964e-05
4.95876e-05
4.6349e-05
4.40955e-05
4.27034e-05
4.20127e-05
4.18808e-05
4.21734e-05
4.27743e-05
4.35978e-05
4.45842e-05
4.56914e-05
4.689e-05
4.81576e-05
4.94749e-05
5.0823e-05
5.21831e-05
5.35368e-05
5.48674e-05
5.61613e-05
5.74082e-05
5.86015e-05
5.9738e-05
6.08169e-05
6.18396e-05
6.28085e-05
6.37264e-05
6.45964e-05
6.54208e-05
6.62019e-05
6.69411e-05
6.76401e-05
6.83727e-05
6.89583e-05
6.93971e-05
7.0055e-05
7.05875e-05
7.1081e-05
7.15488e-05
7.19953e-05
7.24229e-05
7.28325e-05
7.3223e-05
7.359e-05
7.39256e-05
7.42174e-05
7.44473e-05
7.45914e-05
7.4619e-05
7.44921e-05
7.41653e-05
7.35867e-05
7.26995e-05
7.14473e-05
6.97823e-05
6.76793e-05
6.51545e-05
6.22852e-05
5.92218e-05
5.61758e-05
5.33708e-05
5.09593e-05
4.89345e-05
4.70864e-05
4.37706e-05
4.02828e-05
3.64003e-05
3.04543e-05
2.48851e-05
1.90919e-05
1.58939e-05
1.36289e-05
9.95911e-07
9.86598e-07
2.48345e-05
4.62749e-05
5.72907e-05
6.16819e-05
6.10871e-05
5.7773e-05
5.34708e-05
4.93979e-05
4.61939e-05
4.39965e-05
4.26831e-05
4.20824e-05
4.20383e-05
4.24092e-05
4.30786e-05
4.3963e-05
4.50048e-05
4.61642e-05
4.74127e-05
4.87277e-05
5.00891e-05
5.14767e-05
5.28708e-05
5.42528e-05
5.56062e-05
5.69184e-05
5.81801e-05
5.93861e-05
6.05341e-05
6.16246e-05
6.26593e-05
6.36408e-05
6.45719e-05
6.54548e-05
6.62912e-05
6.70819e-05
6.78273e-05
6.85267e-05
6.92438e-05
6.98633e-05
7.02704e-05
7.08944e-05
7.14101e-05
7.18764e-05
7.23131e-05
7.27275e-05
7.31245e-05
7.35077e-05
7.38787e-05
7.42362e-05
7.45753e-05
7.48864e-05
7.51547e-05
7.53588e-05
7.54702e-05
7.54527e-05
7.52616e-05
7.48437e-05
7.41383e-05
7.30801e-05
7.16063e-05
6.96686e-05
6.72521e-05
6.44001e-05
6.12356e-05
5.79661e-05