/*--------------------------------*- C++ -*----------------------------------*\
  =========                 |
  \\      /  F ield         | OpenFOAM: The Open Source CFD Toolbox
   \\    /   O peration     | Website:  https://openfoam.org
    \\  /    A nd           | Version:  13
     \\/     M anipulation  |
\*---------------------------------------------------------------------------*/
FoamFile
{
    format      ascii;
    class       surfaceScalarField;
    location    "9.1";
    object      phi;
}
// * * * * * * * * * * * * * * * * * * * * * * * * * * * * * * * * * * * * * //

dimensions      [0 3 -1 0 0 0 0];

internalField   nonuniform List<scalar> 
12640
(
1.70708e-09
-1.70701e-09
1.566e-08
-1.39529e-08
4.01597e-08
-2.44998e-08
6.83724e-08
-2.82127e-08
9.3779e-08
-2.54065e-08
1.12736e-07
-1.89571e-08
1.23886e-07
-1.11502e-08
1.2818e-07
-4.29325e-09
1.27972e-07
2.07698e-10
1.25655e-07
2.31724e-09
1.23239e-07
2.41545e-09
1.2202e-07
1.21904e-09
1.22396e-07
-3.75977e-10
1.24084e-07
-1.68821e-09
1.26219e-07
-2.13491e-09
1.27852e-07
-1.63288e-09
1.28086e-07
-2.33512e-10
1.26398e-07
1.68787e-09
1.21906e-07
4.4917e-09
1.13717e-07
8.18948e-09
1.01284e-07
1.24322e-08
8.40026e-08
1.72817e-08
6.1431e-08
2.25716e-08
3.33776e-08
2.80535e-08
-2.00716e-10
3.35783e-08
-3.94973e-08
3.92966e-08
-8.60068e-08
4.65095e-08
-1.42238e-07
5.62317e-08
-2.11146e-07
6.89079e-08
-2.94856e-07
8.37093e-08
-3.92168e-07
9.73122e-08
-4.99352e-07
1.07184e-07
-6.12797e-07
1.13445e-07
-7.28998e-07
1.16202e-07
-8.44922e-07
1.15924e-07
-9.5794e-07
1.13017e-07
-1.06592e-06
1.07977e-07
-1.16713e-06
1.01213e-07
-1.26023e-06
9.31005e-08
-1.34418e-06
8.39458e-08
-1.41811e-06
7.39355e-08
-1.48136e-06
6.32482e-08
-1.53331e-06
5.19502e-08
-1.57338e-06
4.00739e-08
-1.60097e-06
2.75869e-08
-1.61607e-06
1.50979e-08
-1.61865e-06
2.58476e-09
-1.60683e-06
-1.18261e-08
-1.58154e-06
-2.52882e-08
-1.54159e-06
-3.99509e-08
-1.48721e-06
-5.43744e-08
-1.41824e-06
-6.89746e-08
-1.33505e-06
-8.31883e-08
-1.23813e-06
-9.69233e-08
-1.12813e-06
-1.09999e-07
-1.00601e-06
-1.22119e-07
-8.73242e-07
-1.32767e-07
-7.31699e-07
-1.41544e-07
-5.83798e-07
-1.47901e-07
-4.32453e-07
-1.51344e-07
-2.8122e-07
-1.51233e-07
-1.3395e-07
-1.4727e-07
5.35578e-09
-1.39306e-07
1.33462e-07
-1.28106e-07
2.45483e-07
-1.12021e-07
3.37728e-07
-9.22449e-08
4.07051e-07
-6.9323e-08
4.51064e-07
-4.40135e-08
4.68563e-07
-1.7499e-08
4.58394e-07
1.01688e-08
4.2373e-07
3.46646e-08
3.67208e-07
5.65221e-08
2.95133e-07
7.20752e-08
2.17532e-07
7.76009e-08
1.44779e-07
7.27526e-08
8.41898e-08
6.05893e-08
3.94513e-08
4.47385e-08
1.10717e-08
2.83796e-08
-9.47267e-10
1.20189e-08
-9.47267e-10
1.08079e-08
-1.25149e-08
4.43269e-08
-4.74718e-08
9.05894e-08
-7.07623e-08
1.3766e-07
-7.52835e-08
1.77858e-07
-6.56047e-08
2.07397e-07
-4.84961e-08
2.25713e-07
-2.94658e-08
2.33841e-07
-1.24216e-08
2.33614e-07
4.34742e-10
2.27413e-07
8.51858e-09
2.17531e-07
1.22974e-08
2.05538e-07
1.32119e-08
1.91916e-07
1.32459e-08
1.76078e-07
1.41499e-08
1.56964e-07
1.69788e-08
1.3343e-07
2.19016e-08
1.04541e-07
2.86551e-08
6.90094e-08
3.72197e-08
2.5586e-08
4.79151e-08
-2.72858e-08
6.10613e-08
-9.16879e-08
7.68343e-08
-1.69398e-07
9.49915e-08
-2.61611e-07
1.14784e-07
-3.69181e-07
1.35624e-07
-4.92664e-07
1.57061e-07
-6.31752e-07
1.78385e-07
-7.83774e-07
1.98531e-07
-9.44357e-07
2.16814e-07
-1.10793e-06
2.32478e-07
-1.26862e-06
2.44399e-07
-1.42303e-06
2.51723e-07
-1.57017e-06
2.54327e-07
-1.70864e-06
2.51913e-07
-1.8372e-06
2.44768e-07
-1.95489e-06
2.33612e-07
-2.06106e-06
2.19187e-07
-2.15525e-06
2.02163e-07
-2.23717e-06
1.83137e-07
-2.30662e-06
1.62547e-07
-2.36346e-06
1.40791e-07
-2.40759e-06
1.18065e-07
-2.43891e-06
9.45603e-08
-2.45732e-06
7.0361e-08
-2.46278e-06
4.55422e-08
-2.45532e-06
2.01181e-08
-2.43421e-06
-6.00588e-09
-2.39961e-06
-3.20174e-08
-2.35193e-06
-5.95057e-08
-2.29009e-06
-8.71282e-08
-2.21472e-06
-1.15322e-07
-2.1254e-06
-1.43693e-07
-2.02225e-06
-1.72121e-07
-1.90521e-06
-2.00231e-07
-1.77452e-06
-2.27613e-07
-1.63086e-06
-2.5366e-07
-1.47539e-06
-2.77595e-07
-1.3094e-06
-2.98753e-07
-1.13481e-06
-3.16133e-07
-9.53976e-07
-3.28735e-07
-7.6963e-07
-3.35691e-07
-5.84833e-07
-3.36029e-07
-4.03037e-07
-3.29066e-07
-2.27806e-07
-3.14537e-07
-6.34351e-08
-2.92476e-07
8.72342e-08
-2.6269e-07
2.20693e-07
-2.25703e-07
3.33605e-07
-1.82236e-07
4.23408e-07
-1.33817e-07
4.87714e-07
-8.1805e-08
5.26239e-07
-2.83558e-08
5.3716e-07
2.37436e-08
5.21311e-07
7.23712e-08
4.80702e-07
1.12684e-07
4.16195e-07
1.42108e-07
3.31638e-07
1.57309e-07
2.37503e-07
1.54725e-07
1.46251e-07
1.3599e-07
7.03075e-08
1.04323e-07
1.97156e-08
6.26109e-08
1.87683e-08
2.04417e-08
-3.29566e-08
6.76484e-08
-9.46785e-08
1.20434e-07
-1.23548e-07
1.6679e-07
-1.2164e-07
2.02306e-07
-1.0112e-07
2.26064e-07
-7.22544e-08
2.38792e-07
-4.21943e-08
2.41491e-07
-1.51199e-08
2.35349e-07
6.57658e-09
2.21865e-07
2.2002e-08
2.02433e-07
3.17299e-08
1.77625e-07
3.80197e-08
1.47238e-07
4.36332e-08
1.10436e-07
5.09518e-08
6.60412e-08
6.13735e-08
1.26118e-08
7.53309e-08
-5.16057e-08
9.28726e-08
-1.28436e-07
1.1405e-07
-2.1943e-07
1.38909e-07
-3.25816e-07
1.67447e-07
-4.48049e-07
1.99067e-07
-5.8573e-07
2.32673e-07
-7.37757e-07
2.66811e-07
-9.01576e-07
2.99443e-07
-1.07365e-06
3.29134e-07
-1.24963e-06
3.54371e-07
-1.42519e-06
3.74086e-07
-1.59627e-06
3.87893e-07
-1.75928e-06
3.95488e-07
-1.91169e-06
3.96806e-07
-2.05204e-06
3.92075e-07
-2.17945e-06
3.81736e-07
-2.29398e-06
3.66446e-07
-2.39609e-06
3.46876e-07
-2.48609e-06
3.23614e-07
-2.56435e-06
2.97449e-07
-2.63117e-06
2.6898e-07
-2.68679e-06
2.38756e-07
-2.73136e-06
2.07124e-07
-2.76502e-06
1.74444e-07
-2.7878e-06
1.40852e-07
-2.7997e-06
1.06459e-07
-2.80065e-06
7.13129e-08
-2.79054e-06
3.54254e-08
-2.76911e-06
-1.30755e-09
-2.73642e-06
-3.87015e-08
-2.69148e-06
-7.69536e-08
-2.63475e-06
-1.16239e-07
-2.56562e-06
-1.5625e-07
-2.48396e-06
-1.96984e-07
-2.38952e-06
-2.38135e-07
-2.28219e-06
-2.79447e-07
-2.16197e-06
-3.2046e-07
-2.02903e-06
-3.60549e-07
-1.88386e-06
-3.98834e-07
-1.72719e-06
-4.34258e-07
-1.56015e-06
-4.658e-07
-1.38416e-06
-4.92117e-07
-1.20119e-06
-5.11702e-07
-1.01379e-06
-5.23095e-07
-8.24808e-07
-5.25012e-07
-6.37589e-07
-5.16285e-07
-4.55752e-07
-4.96375e-07
-2.83012e-07
-4.65217e-07
-1.225e-07
-4.23202e-07
2.27348e-08
-3.70939e-07
1.50092e-07
-3.09593e-07
2.57088e-07
-2.40812e-07
3.42318e-07
-1.67035e-07
4.04973e-07
-9.10108e-08
4.44344e-07
-1.5628e-08
4.59837e-07
5.68782e-08
4.50459e-07
1.22062e-07
4.17403e-07
1.75164e-07
3.62689e-07
2.12023e-07
2.89029e-07
2.28385e-07
2.03191e-07
2.21829e-07
1.15819e-07
1.91695e-07
4.06216e-08
1.37808e-07
5.939e-08
2.83944e-08
-6.1351e-08
8.19871e-08
-1.48271e-07
1.32184e-07
-1.73744e-07
1.70467e-07
-1.59923e-07
1.95673e-07
-1.26326e-07
2.09075e-07
-8.56565e-08
2.11905e-07
-4.50243e-08
2.05304e-07
-8.51873e-09
1.90057e-07
2.18235e-08
1.66621e-07
4.54376e-08
1.34767e-07
6.35841e-08
9.39742e-08
7.88126e-08
4.34564e-08
9.41511e-08
-1.77357e-08
1.12144e-07
-9.07171e-08
1.34355e-07
-1.76868e-07
1.61482e-07
-2.77657e-07
1.93661e-07
-3.94347e-07
2.3074e-07
-5.27468e-07
2.7203e-07
-6.76481e-07
3.16461e-07
-8.39494e-07
3.62079e-07
-1.01327e-06
4.0645e-07
-1.19388e-06
4.47419e-07
-1.37695e-06
4.82513e-07
-1.55831e-06
5.10495e-07
-1.73403e-06
5.3009e-07
-1.90062e-06
5.40677e-07
-2.05545e-06
5.42723e-07
-2.19723e-06
5.37273e-07
-2.32564e-06
5.25209e-07
-2.44092e-06
5.07361e-07
-2.5437e-06
4.84514e-07
-2.63463e-06
4.57374e-07
-2.71444e-06
4.26685e-07
-2.78383e-06
3.93005e-07
-2.84334e-06
3.56957e-07
-2.89336e-06
3.19005e-07
-2.9342e-06
2.7959e-07
-2.96603e-06
2.38956e-07
-2.98891e-06
1.97324e-07
-3.00283e-06
1.54777e-07
-3.00773e-06
1.11351e-07
-3.00341e-06
6.69913e-08
-2.98962e-06
2.16447e-08
-2.9662e-06
-2.47348e-08
-2.9327e-06
-7.21976e-08
-2.88876e-06
-1.20899e-07
-2.83409e-06
-1.70907e-07
-2.76822e-06
-2.22117e-07
-2.69082e-06
-2.74382e-07
-2.60155e-06
-3.2741e-07
-2.50011e-06
-3.80881e-07
-2.38631e-06
-4.34263e-07
-2.26003e-06
-4.86826e-07
-2.12137e-06
-5.37502e-07
-1.97076e-06
-5.84863e-07
-1.80902e-06
-6.27542e-07
-1.63723e-06
-6.63905e-07
-1.45696e-06
-6.91973e-07
-1.27029e-06
-7.09761e-07
-1.07978e-06
-7.15522e-07
-8.88553e-07
-7.07515e-07
-7.00294e-07
-6.84635e-07
-5.19159e-07
-6.46351e-07
-3.48833e-07
-5.93527e-07
-1.92402e-07
-5.2737e-07
-5.27457e-08
-4.4925e-07
6.80111e-08
-3.61569e-07
1.68259e-07
-2.67283e-07
2.47037e-07
-1.69788e-07
3.04053e-07
-7.26445e-08
3.40053e-07
2.0878e-08
3.54923e-07
1.07193e-07
3.48168e-07
1.81918e-07
3.19728e-07
2.40464e-07
2.70519e-07
2.77593e-07
2.04329e-07
2.88019e-07
1.27023e-07
2.69001e-07
4.91407e-08
2.15691e-07
1.08531e-07
3.4468e-08
-9.5819e-08
8.71984e-08
-2.01002e-07
1.28444e-07
-2.1499e-07
1.55041e-07
-1.86521e-07
1.67877e-07
-1.39162e-07
1.69228e-07
-8.70073e-08
1.60477e-07
-3.62732e-08
1.42349e-07
9.60915e-09
1.14996e-07
4.91759e-08
7.79432e-08
8.24907e-08
3.02056e-08
1.11322e-07
-2.94141e-08
1.38432e-07
-1.02082e-07
1.66819e-07
-1.88876e-07
1.98938e-07
-2.90811e-07
2.36289e-07
-4.0873e-07
2.79402e-07
-5.43042e-07
3.27974e-07
-6.93449e-07
3.81147e-07
-8.58395e-07
4.36976e-07
-1.03472e-06
4.92786e-07
-1.21854e-06
5.45902e-07
-1.40526e-06
5.9317e-07
-1.59053e-06
6.32688e-07
-1.7701e-06
6.62086e-07
-1.93965e-06
6.80043e-07
-2.09669e-06
6.8713e-07
-2.24042e-06
6.84403e-07
-2.37089e-06
6.73191e-07
-2.48857e-06
6.54959e-07
-2.5942e-06
6.30837e-07
-2.68865e-06
6.01805e-07
-2.77273e-06
5.68596e-07
-2.84719e-06
5.31831e-07
-2.91265e-06
4.92154e-07
-2.96972e-06
4.50074e-07
-3.0188e-06
4.06037e-07
-3.0602e-06
3.60406e-07
-3.09414e-06
3.13524e-07
-3.12072e-06
2.65534e-07
-3.13994e-06
2.16552e-07
-3.15171e-06
1.66545e-07
-3.15595e-06
1.15591e-07
-3.15246e-06
6.34938e-08
-3.14087e-06
1.00599e-08
-3.12103e-06
-4.45785e-08
-3.09246e-06
-1.0076e-07
-3.05478e-06
-1.58584e-07
-3.00758e-06
-2.18103e-07
-2.9503e-06
-2.79396e-07
-2.88238e-06
-3.42306e-07
-2.80334e-06
-4.06453e-07
-2.71269e-06
-4.71524e-07
-2.61002e-06
-5.36938e-07
-2.49489e-06
-6.01951e-07
-2.36693e-06
-6.65462e-07
-2.22627e-06
-7.25525e-07
-2.07335e-06
-7.80461e-07
-1.90878e-06
-8.28472e-07
-1.73372e-06
-8.67039e-07
-1.54987e-06
-8.93606e-07
-1.35939e-06
-9.06006e-07
-1.16515e-06
-9.01757e-07
-9.70338e-07
-8.79446e-07
-7.79064e-07
-8.37624e-07
-5.96065e-07
-7.76527e-07
-4.25499e-07
-6.97936e-07
-2.7043e-07
-6.04318e-07
-1.33552e-07
-4.98447e-07
-1.69096e-08
-3.83925e-07
7.83413e-08
-2.65039e-07
1.51841e-07
-1.46144e-07
2.04182e-07
-3.14626e-08
2.3627e-07
7.51043e-08
2.48628e-07
1.6956e-07
2.41506e-07
2.47586e-07
2.15245e-07
3.03854e-07
1.70847e-07
3.32417e-07
1.11409e-07
3.28439e-07
4.4664e-08
2.82436e-07
1.53195e-07
3.79271e-08
-1.33746e-07
8.31718e-08
-2.46246e-07
1.1155e-07
-2.43368e-07
1.24049e-07
-1.99019e-07
1.2361e-07
-1.38723e-07
1.12231e-07
-7.56285e-08
9.08835e-08
-1.49258e-08
5.96814e-08
4.08113e-08
1.8132e-08
9.07253e-08
-3.49213e-08
1.35544e-07
-1.00877e-07
1.77277e-07
-1.81137e-07
2.18692e-07
-2.76879e-07
2.6256e-07
-3.88936e-07
3.10996e-07
-5.17728e-07
3.65081e-07
-6.62995e-07
4.24669e-07
-8.23595e-07
4.88573e-07
-9.97109e-07
5.5466e-07
-1.18001e-06
6.19872e-07
-1.36765e-06
6.80434e-07
-1.55552e-06
7.33768e-07
-1.73863e-06
7.76282e-07
-1.91185e-06
8.05909e-07
-2.07223e-06
8.22464e-07
-2.219e-06
8.26809e-07
-2.35243e-06
8.20564e-07
-2.47334e-06
8.0531e-07
-2.58274e-06
7.82593e-07
-2.68151e-06
7.53734e-07
-2.77049e-06
7.1981e-07
-2.8504e-06
6.81717e-07
-2.92189e-06
6.40087e-07
-2.98558e-06
5.95522e-07
-3.04197e-06
5.48547e-07
-3.09148e-06
4.99578e-07
-3.13439e-06
4.48948e-07
-3.17086e-06
3.96875e-07
-3.20103e-06
3.43701e-07
-3.22502e-06
2.89518e-07
-3.24288e-06
2.34409e-07
-3.25442e-06
1.7809e-07
-3.25974e-06
1.20915e-07
-3.25881e-06
6.25639e-08
-3.25112e-06
2.37074e-09
-3.23704e-06
-5.86596e-08
-3.21576e-06
-1.22048e-07
-3.18684e-06
-1.875e-07
-3.14982e-06
-2.55122e-07
-3.10412e-06
-3.25099e-07
-3.04898e-06
-3.97449e-07
-2.98363e-06
-4.718e-07
-2.90723e-06
-5.47922e-07
-2.81904e-06
-6.2513e-07
-2.71859e-06
-7.02396e-07
-2.60534e-06
-7.78717e-07
-2.47862e-06
-8.52246e-07
-2.33831e-06
-9.20773e-07
-2.18445e-06
-9.82325e-07
-2.01769e-06
-1.03381e-06
-1.83943e-06
-1.07186e-06
-1.65118e-06
-1.09425e-06
-1.45564e-06
-1.0973e-06
-1.25577e-06
-1.07932e-06
-1.05536e-06
-1.03803e-06
-8.58983e-07
-9.72904e-07
-6.72013e-07
-8.84905e-07
-4.98875e-07
-7.77457e-07
-3.42915e-07
-6.54407e-07
-2.06942e-07
-5.19898e-07
-9.29009e-08
-3.7908e-07
-1.54579e-09
-2.37499e-07
6.75233e-08
-1.00532e-07
1.15577e-07
2.70508e-08
1.44208e-07
1.40929e-07
1.54389e-07
2.37405e-07
1.46732e-07
3.11511e-07
1.21696e-07
3.57453e-07
8.15289e-08
3.68606e-07
3.24617e-08
3.31503e-07
1.85656e-07
3.77537e-08
-1.715e-07
7.01032e-08
-2.78596e-07
8.34803e-08
-2.56745e-07
8.11392e-08
-1.96678e-07
6.69331e-08
-1.24517e-07
4.22436e-08
-5.0939e-08
7.36894e-09
1.99488e-08
-3.81797e-08
8.636e-08
-9.54669e-08
1.48012e-07
-1.65907e-07
2.05985e-07
-2.50995e-07
2.62365e-07
-3.51998e-07
3.19696e-07
-4.69728e-07
3.8029e-07
-6.04355e-07
4.45623e-07
-7.55274e-07
5.16001e-07
-9.20889e-07
5.90284e-07
-1.09825e-06
6.65938e-07
-1.28319e-06
7.39597e-07
-1.471e-06
8.07681e-07
-1.65657e-06
8.66008e-07
-1.83392e-06
9.11112e-07
-1.99907e-06
9.41437e-07
-2.15055e-06
9.57384e-07
-2.28847e-06
9.60386e-07
-2.41376e-06
9.52094e-07
-2.52743e-06
9.34244e-07
-2.63057e-06
9.08442e-07
-2.72413e-06
8.76154e-07
-2.80889e-06
8.38499e-07
-2.88551e-06
7.96431e-07
-2.95452e-06
7.50725e-07
-3.01642e-06
7.01984e-07
-3.07165e-06
6.50756e-07
-3.12057e-06
5.97466e-07
-3.1635e-06
5.42502e-07
-3.20071e-06
4.86158e-07
-3.23214e-06
4.28308e-07
-3.25803e-06
3.69595e-07
-3.27852e-06
3.10006e-07
-3.29366e-06
2.49551e-07
-3.30372e-06
1.88144e-07
-3.30841e-06
1.25609e-07
-3.3076e-06
6.17515e-08
-3.30133e-06
-3.8993e-09
-3.2895e-06
-7.04842e-08
-3.27235e-06
-1.39202e-07
-3.24976e-06
-2.10093e-07
-3.22151e-06
-2.83369e-07
-3.18734e-06
-3.59271e-07
-3.14669e-06
-4.38101e-07
-3.09855e-06
-5.19937e-07
-3.04192e-06
-6.04556e-07
-2.97544e-06
-6.91607e-07
-2.89728e-06
-7.80556e-07
-2.80557e-06
-8.70425e-07
-2.69895e-06
-9.58869e-07
-2.57683e-06
-1.04289e-06
-2.43936e-06
-1.1198e-06
-2.28689e-06
-1.18628e-06
-2.1196e-06
-1.23915e-06
-1.93834e-06
-1.2755e-06
-1.74567e-06
-1.28998e-06
-1.54405e-06
-1.28094e-06
-1.33712e-06
-1.24496e-06
-1.12915e-06
-1.18087e-06
-9.25614e-07
-1.08844e-06
-7.32906e-07
-9.70165e-07
-5.5582e-07
-8.31492e-07
-3.97944e-07
-6.77775e-07
-2.62257e-07
-5.14767e-07
-1.50514e-07
-3.49242e-07
-6.29485e-08
-1.88097e-07
1.6925e-09
-3.75902e-08
4.5282e-08
9.73394e-08
7.02512e-08
2.12436e-07
7.8138e-08
3.03624e-07
6.97447e-08
3.65846e-07
4.736e-08
3.90991e-07
1.73167e-08
3.61546e-07
2.02973e-07
3.27916e-08
-2.04291e-07
4.97089e-08
-2.95513e-07
4.69355e-08
-2.53972e-07
2.95279e-08
-1.7927e-07
1.27742e-09
-9.62661e-08
-3.71892e-08
-1.24723e-08
-8.63195e-08
6.90791e-08
-1.47073e-07
1.47114e-07
-2.20775e-07
2.21714e-07
-3.08853e-07
2.94063e-07
-4.12576e-07
3.66087e-07
-5.32774e-07
4.39894e-07
-6.69572e-07
5.17088e-07
-8.22264e-07
5.98315e-07
-9.89065e-07
6.82801e-07
-1.16668e-06
7.679e-07
-1.35065e-06
8.49905e-07
-1.53599e-06
9.24941e-07
-1.71661e-06
9.88298e-07
-1.88726e-06
1.03666e-06
-2.04489e-06
1.06874e-06
-2.18896e-06
1.08551e-06
-2.31994e-06
1.08836e-06
-2.43881e-06
1.07926e-06
-2.54667e-06
1.05995e-06
-2.64461e-06
1.03219e-06
-2.73356e-06
9.97394e-07
-2.81423e-06
9.56818e-07
-2.88716e-06
9.11433e-07
-2.95283e-06
8.62099e-07
-3.01162e-06
8.09516e-07
-3.06391e-06
7.54273e-07
-3.11001e-06
6.96853e-07
-3.15009e-06
6.37553e-07
-3.18442e-06
5.76824e-07
-3.21353e-06
5.15277e-07
-3.23824e-06
4.53011e-07
-3.25859e-06
3.8995e-07
-3.2746e-06
3.26018e-07
-3.28611e-06
2.61055e-07
-3.29331e-06
1.95348e-07
-3.29611e-06
1.28404e-07
-3.29461e-06
6.02508e-08
-3.28889e-06
-9.61121e-09
-3.27911e-06
-8.02684e-08
-3.26521e-06
-1.53107e-07
-3.24709e-06
-2.28212e-07
-3.22457e-06
-3.05889e-07
-3.19744e-06
-3.86396e-07
-3.16555e-06
-4.69991e-07
-3.12855e-06
-5.56942e-07
-3.08597e-06
-6.47137e-07
-3.03712e-06
-7.4045e-07
-2.98126e-06
-8.36422e-07
-2.91728e-06
-9.34406e-07
-2.84235e-06
-1.03379e-06
-2.75247e-06
-1.13277e-06
-2.64387e-06
-1.2284e-06
-2.51504e-06
-1.31511e-06
-2.36675e-06
-1.38744e-06
-2.20112e-06
-1.44113e-06
-2.01868e-06
-1.47242e-06
-1.8217e-06
-1.47792e-06
-1.61364e-06
-1.45302e-06
-1.39851e-06
-1.396e-06
-1.18125e-06
-1.3057e-06
-9.69128e-07
-1.18229e-06
-7.69593e-07
-1.03103e-06
-5.87919e-07
-8.59449e-07
-4.28002e-07
-6.74685e-07
-2.92948e-07
-4.84296e-07
-1.84242e-07
-2.96802e-07
-1.01472e-07
-1.20361e-07
-4.23227e-08
3.81904e-08
-3.56163e-09
1.73675e-07
1.74311e-08
2.82631e-07
2.30496e-08
3.60228e-07
1.62631e-08
3.97778e-07
3.5412e-09
3.74268e-07
2.06514e-07
2.34373e-08
-2.27729e-07
2.35349e-08
-2.95611e-07
4.01989e-09
-2.34457e-07
-2.78809e-08
-1.47369e-07
-7.01703e-08
-5.39766e-08
-1.2279e-07
4.01473e-08
-1.86564e-07
1.32853e-07
-2.62738e-07
2.23288e-07
-3.52648e-07
3.11624e-07
-4.57488e-07
3.98903e-07
-5.78071e-07
4.86671e-07
-7.14542e-07
5.76364e-07
-8.66269e-07
6.68815e-07
-1.03154e-06
7.63583e-07
-1.20688e-06
8.58145e-07
-1.3877e-06
9.48715e-07
-1.56871e-06
1.03092e-06
-1.74374e-06
1.09997e-06
-1.90803e-06
1.15259e-06
-2.05939e-06
1.18801e-06
-2.1974e-06
1.20675e-06
-2.32263e-06
1.21074e-06
-2.4361e-06
1.20183e-06
-2.53892e-06
1.18208e-06
-2.63211e-06
1.15314e-06
-2.7165e-06
1.11659e-06
-2.79275e-06
1.07364e-06
-2.86133e-06
1.0254e-06
-2.92266e-06
9.72767e-07
-2.97712e-06
9.16555e-07
-3.02504e-06
8.57439e-07
-3.0668e-06
7.96028e-07
-3.10287e-06
7.32926e-07
-3.13395e-06
6.6863e-07
-3.1605e-06
6.03377e-07
-3.18232e-06
5.37094e-07
-3.19955e-06
4.70244e-07
-3.21221e-06
4.02609e-07
-3.22056e-06
3.34369e-07
-3.22513e-06
2.65622e-07
-3.22623e-06
1.96455e-07
-3.22433e-06
1.26505e-07
-3.21971e-06
5.56212e-08
-3.21276e-06
-1.65578e-08
-3.20309e-06
-8.99323e-08
-3.19088e-06
-1.65325e-07
-3.17614e-06
-2.42947e-07
-3.15887e-06
-3.23157e-07
-3.13898e-06
-4.06286e-07
-3.11628e-06
-4.92696e-07
-3.09049e-06
-5.82727e-07
-3.06107e-06
-6.76556e-07
-3.02728e-06
-7.7424e-07
-2.98816e-06
-8.75543e-07
-2.94284e-06
-9.79726e-07
-2.89034e-06
-1.08629e-06
-2.82926e-06
-1.19384e-06
-2.75751e-06
-1.30015e-06
-2.66939e-06
-1.40323e-06
-2.55761e-06
-1.49921e-06
-2.4199e-06
-1.57885e-06
-2.25764e-06
-1.63468e-06
-2.07524e-06
-1.66031e-06
-1.87427e-06
-1.654e-06
-1.65927e-06
-1.611e-06
-1.43452e-06
-1.53045e-06
-1.20657e-06
-1.41024e-06
-9.84615e-07
-1.25298e-06
-7.77558e-07
-1.0665e-06
-5.91291e-07
-8.60952e-07
-4.3e-07
-6.45588e-07
-2.96821e-07
-4.29981e-07
-1.92719e-07
-2.24463e-07
-1.1626e-07
-3.82689e-08
-6.38796e-08
1.21295e-07
-3.09535e-08
2.49705e-07
-1.36291e-08
3.42903e-07
-7.00674e-09
3.91155e-07
-5.35534e-09
3.72616e-07
2.01159e-07
1.10006e-08
-2.38729e-07
-6.64199e-09
-2.77968e-07
-4.18208e-08
-1.99278e-07
-8.8323e-08
-1.00867e-07
-1.44729e-07
2.42918e-09
-2.11469e-07
1.06888e-07
-2.89742e-07
2.11126e-07
-3.80828e-07
3.14373e-07
-4.85857e-07
4.16653e-07
-6.05603e-07
5.18649e-07
-7.40241e-07
6.21309e-07
-8.89274e-07
7.25398e-07
-1.0512e-06
8.30742e-07
-1.22269e-06
9.35071e-07
-1.39901e-06
1.03447e-06
-1.57476e-06
1.12447e-06
-1.74425e-06
1.20041e-06
-1.90306e-06
1.25878e-06
-2.04919e-06
1.29871e-06
-2.18209e-06
1.32092e-06
-2.30243e-06
1.32708e-06
-2.41115e-06
1.31947e-06
-2.50937e-06
1.30005e-06
-2.59797e-06
1.27068e-06
-2.67772e-06
1.23289e-06
-2.74917e-06
1.18804e-06
-2.81279e-06
1.13725e-06
-2.86897e-06
1.08158e-06
-2.91813e-06
1.02193e-06
-2.9607e-06
9.59121e-07
-2.99713e-06
8.93873e-07
-3.02791e-06
8.26809e-07
-3.05337e-06
7.58387e-07
-3.07376e-06
6.89022e-07
-3.08939e-06
6.19004e-07
-3.10077e-06
5.48472e-07
-3.10833e-06
4.77804e-07
-3.1127e-06
4.06979e-07
-3.11439e-06
3.36055e-07
-3.1137e-06
2.64932e-07
-3.11073e-06
1.93485e-07
-3.10571e-06
1.21493e-07
-3.09884e-06
4.87436e-08
-3.09034e-06
-2.50559e-08
-3.08014e-06
-1.00127e-07
-3.06852e-06
-1.76953e-07
-3.0556e-06
-2.55862e-07
-3.04151e-06
-3.3725e-07
-3.02629e-06
-4.21503e-07
-3.00995e-06
-5.09035e-07
-2.99244e-06
-6.00242e-07
-2.97353e-06
-6.9546e-07
-2.95285e-06
-7.94919e-07
-2.92975e-06
-8.98647e-07
-2.90304e-06
-1.00644e-06
-2.87138e-06
-1.11795e-06
-2.83302e-06
-1.23221e-06
-2.78606e-06
-1.34711e-06
-2.72842e-06
-1.46088e-06
-2.65754e-06
-1.57009e-06
-2.56587e-06
-1.67052e-06
-2.44365e-06
-1.7569e-06
-2.28927e-06
-1.8147e-06
-2.10666e-06
-1.8366e-06
-1.90179e-06
-1.81586e-06
-1.67862e-06
-1.75362e-06
-1.44287e-06
-1.64599e-06
-1.20297e-06
-1.49288e-06
-9.7032e-07
-1.29915e-06
-7.5564e-07
-1.07563e-06
-5.65531e-07
-8.35696e-07
-4.04402e-07
-5.91109e-07
-2.75152e-07
-3.53713e-07
-1.77794e-07
-1.35627e-07
-1.09471e-07
5.29717e-08
-6.47259e-08
2.04961e-07
-3.76157e-08
3.15793e-07
-2.06413e-08
3.74181e-07
-9.48794e-09
3.61463e-07
1.91671e-07
-3.21383e-09
-2.35515e-07
-3.80684e-08
-2.43114e-07
-8.88277e-08
-1.48519e-07
-1.49598e-07
-4.00967e-08
-2.19726e-07
7.25574e-08
-3.00204e-07
1.87365e-07
-3.92267e-07
3.03189e-07
-4.97071e-07
4.19178e-07
-6.15393e-07
5.34975e-07
-7.47453e-07
6.50709e-07
-8.92882e-07
7.66738e-07
-1.05045e-06
8.82965e-07
-1.21713e-06
9.97424e-07
-1.3883e-06
1.10623e-06
-1.55865e-06
1.20482e-06
-1.72295e-06
1.28876e-06
-1.87701e-06
1.35447e-06
-2.01865e-06
1.40042e-06
-2.1473e-06
1.42736e-06
-2.26337e-06
1.43699e-06
-2.36789e-06
1.4316e-06
-2.46178e-06
1.41337e-06
-2.5459e-06
1.38416e-06
-2.62086e-06
1.34564e-06
-2.68718e-06
1.29921e-06
-2.74528e-06
1.24614e-06
-2.7956e-06
1.18757e-06
-2.8386e-06
1.12458e-06
-2.87479e-06
1.05812e-06
-2.90471e-06
9.8904e-07
-2.92892e-06
9.18082e-07
-2.94796e-06
8.45849e-07
-2.96238e-06
7.7281e-07
-2.97272e-06
6.99364e-07
-2.97951e-06
6.25791e-07
-2.98333e-06
5.52287e-07
-2.98455e-06
4.79027e-07
-2.98355e-06
4.05981e-07
-2.9806e-06
3.33101e-07
-2.97592e-06
2.6025e-07
-2.96969e-06
1.87262e-07
-2.96211e-06
1.13914e-07
-2.95334e-06
3.99703e-08
-2.94355e-06
-3.48448e-08
-2.93285e-06
-1.10831e-07
-2.92144e-06
-1.88364e-07
-2.9095e-06
-2.67796e-07
-2.89723e-06
-3.49525e-07
-2.88478e-06
-4.33951e-07
-2.87231e-06
-5.21504e-07
-2.85995e-06
-6.12607e-07
-2.84774e-06
-7.07665e-07
-2.83563e-06
-8.07028e-07
-2.82333e-06
-9.10947e-07
-2.81021e-06
-1.01956e-06
-2.79535e-06
-1.13281e-06
-2.77737e-06
-1.25018e-06
-2.75387e-06
-1.37062e-06
-2.7222e-06
-1.49254e-06
-2.67938e-06
-1.6129e-06
-2.62208e-06
-1.72782e-06
-2.54611e-06
-1.83287e-06
-2.43974e-06
-1.92106e-06
-2.29486e-06
-1.98149e-06
-2.11315e-06
-1.99757e-06
-1.90351e-06
-1.96327e-06
-1.67062e-06
-1.87888e-06
-1.4225e-06
-1.741e-06
-1.16976e-06
-1.5519e-06
-9.26324e-07
-1.31907e-06
-7.04881e-07
-1.05714e-06
-5.12753e-07
-7.83238e-07
-3.54337e-07
-5.12129e-07
-2.31808e-07
-2.58156e-07
-1.43694e-07
-3.51429e-08
-8.50209e-08
1.46288e-07
-4.83462e-08
2.79118e-07
-2.46229e-08
3.50458e-07
-8.93249e-09
3.45773e-07
1.82739e-07
-1.84341e-08
-2.17081e-07
-7.0023e-08
-1.91525e-07
-1.35364e-07
-8.31774e-08
-2.09652e-07
3.4191e-08
-2.92865e-07
1.5577e-07
-3.86163e-07
2.80663e-07
-4.90767e-07
4.07792e-07
-6.0755e-07
5.35961e-07
-7.36831e-07
6.64257e-07
-8.78363e-07
7.9224e-07
-1.03117e-06
9.19546e-07
-1.19263e-06
1.04443e-06
-1.35842e-06
1.16321e-06
-1.52351e-06
1.27132e-06
-1.68306e-06
1.36438e-06
-1.83309e-06
1.43879e-06
-1.97102e-06
1.49241e-06
-2.09607e-06
1.52548e-06
-2.20857e-06
1.53986e-06
-2.30935e-06
1.53776e-06
-2.3993e-06
1.52155e-06
-2.47913e-06
1.4932e-06
-2.54943e-06
1.45446e-06
-2.61064e-06
1.40686e-06
-2.66324e-06
1.35181e-06
-2.70772e-06
1.29062e-06
-2.74466e-06
1.22451e-06
-2.77471e-06
1.15463e-06
-2.79855e-06
1.08197e-06
-2.81692e-06
1.0074e-06
-2.83049e-06
9.31657e-07
-2.83994e-06
8.553e-07
-2.8459e-06
7.78766e-07
-2.84892e-06
7.02382e-07
-2.84949e-06
6.26361e-07
-2.84802e-06
5.50823e-07
-2.84481e-06
4.75814e-07
-2.84009e-06
4.01261e-07
-2.83405e-06
3.27057e-07
-2.82684e-06
2.53044e-07
-2.81861e-06
1.79037e-07
-2.80951e-06
1.04809e-07
-2.79966e-06
3.01166e-08
-2.78919e-06
-4.53129e-08
-2.77824e-06
-1.21777e-07
-2.76699e-06
-1.9961e-07
-2.75564e-06
-2.79153e-07
-2.74438e-06
-3.60779e-07
-2.73346e-06
-4.44877e-07
-2.7231e-06
-5.31863e-07
-2.71354e-06
-6.2216e-07
-2.70501e-06
-7.16198e-07
-2.69765e-06
-8.14387e-07
-2.6915e-06
-9.17103e-07
-2.6864e-06
-1.02466e-06
-2.68197e-06
-1.13724e-06
-2.67738e-06
-1.25477e-06
-2.67115e-06
-1.37685e-06
-2.66116e-06
-1.50253e-06
-2.64411e-06
-1.62996e-06
-2.61566e-06
-1.75627e-06
-2.57181e-06
-1.87672e-06
-2.50709e-06
-1.98578e-06
-2.41334e-06
-2.07524e-06
-2.27621e-06
-2.1347e-06
-2.09527e-06
-2.14422e-06
-1.87917e-06
-2.09498e-06
-1.6349e-06
-1.98526e-06
-1.37318e-06
-1.81362e-06
-1.10734e-06
-1.58491e-06
-8.54131e-07
-1.31035e-06
-6.28182e-07
-1.00919e-06
-4.37236e-07
-7.03076e-07
-2.85275e-07
-4.10117e-07
-1.72929e-07
-1.47489e-07
-9.66375e-08
6.99958e-08
-4.89202e-08
2.31401e-07
-2.04918e-08
3.22029e-07
-4.60824e-09
3.29889e-07
1.7813e-07
-3.36396e-08
-1.83442e-07
-1.00768e-07
-1.24396e-07
-1.79788e-07
-4.15828e-09
-2.66657e-07
1.21061e-07
-3.61918e-07
2.51031e-07
-4.66768e-07
3.85513e-07
-5.8227e-07
5.23294e-07
-7.08947e-07
6.62638e-07
-8.46707e-07
8.02017e-07
-9.94799e-07
9.40332e-07
-1.151e-06
1.07575e-06
-1.31149e-06
1.20491e-06
-1.47161e-06
1.32334e-06
-1.6269e-06
1.42661e-06
-1.77349e-06
1.51097e-06
-1.90852e-06
1.57381e-06
-2.03075e-06
1.61463e-06
-2.14035e-06
1.63508e-06
-2.23801e-06
1.63751e-06
-2.32451e-06
1.62427e-06
-2.40053e-06
1.59757e-06
-2.46658e-06
1.55925e-06
-2.52313e-06
1.51101e-06
-2.5707e-06
1.45443e-06
-2.6099e-06
1.391e-06
-2.64143e-06
1.32215e-06
-2.66611e-06
1.24919e-06
-2.68478e-06
1.1733e-06
-2.69829e-06
1.09548e-06
-2.70745e-06
1.01656e-06
-2.71299e-06
9.37197e-07
-2.71556e-06
8.57874e-07
-2.71573e-06
7.78935e-07
-2.71395e-06
7.00602e-07
-2.71058e-06
6.22994e-07
-2.7059e-06
5.46144e-07
-2.7001e-06
4.70011e-07
-2.69333e-06
3.94485e-07
-2.68569e-06
3.19421e-07
-2.67729e-06
2.44641e-07
-2.6682e-06
1.6995e-07
-2.65852e-06
9.5124e-08
-2.64832e-06
1.99229e-08
-2.63772e-06
-5.59182e-08
-2.62682e-06
-1.32671e-07
-2.6158e-06
-2.10637e-07
-2.60482e-06
-2.90128e-07
-2.59412e-06
-3.71482e-07
-2.58394e-06
-4.55056e-07
-2.57457e-06
-5.41234e-07
-2.56631e-06
-6.30419e-07
-2.55948e-06
-7.23034e-07
-2.55435e-06
-8.19513e-07
-2.55116e-06
-9.20289e-07
-2.55005e-06
-1.02578e-06
-2.55097e-06
-1.13632e-06
-2.55362e-06
-1.25212e-06
-2.55728e-06
-1.37319e-06
-2.56066e-06
-1.49915e-06
-2.56154e-06
-1.62908e-06
-2.55663e-06
-1.76118e-06
-2.541e-06
-1.89236e-06
-2.50892e-06
-2.01786e-06
-2.4542e-06
-2.12996e-06
-2.36798e-06
-2.22092e-06
-2.23586e-06
-2.27634e-06
-2.05363e-06
-2.27721e-06
-1.82886e-06
-2.21002e-06
-1.57144e-06
-2.07105e-06
-1.29531e-06
-1.86103e-06
-1.01711e-06
-1.58854e-06
-7.56743e-07
-1.26956e-06
-5.30381e-07
-9.29438e-07
-3.45539e-07
-5.94958e-07
-2.05004e-07
-2.88024e-07
-1.07119e-07
-2.78886e-08
-4.57356e-08
1.70017e-07
-1.23535e-08
2.88647e-07
1.5911e-09
3.15944e-07
1.79721e-07
-4.81369e-08
-1.35305e-07
-1.29409e-07
-4.31241e-08
-2.20676e-07
8.71087e-08
-3.19039e-07
2.19424e-07
-4.25026e-07
3.57017e-07
-5.39856e-07
5.00343e-07
-6.64366e-07
6.47804e-07
-7.98743e-07
7.97015e-07
-9.42452e-07
9.45726e-07
-1.09366e-06
1.09154e-06
-1.24909e-06
1.23118e-06
-1.40467e-06
1.3605e-06
-1.5562e-06
1.47487e-06
-1.69992e-06
1.57033e-06
-1.83277e-06
1.64382e-06
-1.95302e-06
1.69406e-06
-2.06051e-06
1.72212e-06
-2.1558e-06
1.73037e-06
-2.23956e-06
1.72127e-06
-2.31244e-06
1.69715e-06
-2.37494e-06
1.66007e-06
-2.42756e-06
1.61187e-06
-2.4709e-06
1.55435e-06
-2.50566e-06
1.4892e-06
-2.53272e-06
1.41806e-06
-2.55302e-06
1.34245e-06
-2.56755e-06
1.26372e-06
-2.57726e-06
1.18301e-06
-2.58305e-06
1.10126e-06
-2.58568e-06
1.01919e-06
-2.58582e-06
9.37345e-07
-2.58404e-06
8.56086e-07
-2.58074e-06
7.75642e-07
-2.57627e-06
6.96131e-07
-2.57086e-06
6.1758e-07
-2.56466e-06
5.39947e-07
-2.55778e-06
4.6313e-07
-2.55029e-06
3.8699e-07
-2.54222e-06
3.11359e-07
-2.53363e-06
2.36043e-07
-2.52452e-06
1.60842e-07
-2.51494e-06
8.55446e-08
-2.50495e-06
9.92926e-09
-2.49459e-06
-6.62711e-08
-2.48398e-06
-1.43279e-07
-2.47326e-06
-2.21365e-07
-2.46258e-06
-3.00805e-07
-2.45217e-06
-3.81895e-07
-2.44227e-06
-4.64949e-07
-2.4332e-06
-5.50306e-07
-2.42529e-06
-6.38331e-07
-2.4189e-06
-7.2942e-07
-2.41442e-06
-8.23998e-07
-2.41219e-06
-9.22514e-07
-2.41254e-06
-1.02543e-06
-2.41564e-06
-1.13321e-06
-2.42153e-06
-1.24624e-06
-2.42993e-06
-1.36479e-06
-2.44017e-06
-1.48892e-06
-2.45095e-06
-1.61829e-06
-2.46015e-06
-1.75198e-06
-2.46438e-06
-1.88813e-06
-2.45874e-06
-2.0235e-06
-2.43588e-06
-2.15282e-06
-2.38861e-06
-2.26819e-06
-2.30657e-06
-2.35838e-06
-2.17542e-06
-2.40835e-06
-1.98878e-06
-2.39667e-06
-1.75273e-06
-2.30709e-06
-1.48058e-06
-2.13318e-06
-1.19002e-06
-1.8791e-06
-9.01712e-07
-1.55787e-06
-6.3901e-07
-1.19214e-06
-4.18571e-07
-8.15397e-07
-2.46721e-07
-4.59875e-07
-1.23986e-07
-1.50623e-07
-4.59062e-08
9.19371e-08
-5.35005e-09
2.48091e-07
7.25172e-09
3.03343e-07
1.86973e-07
-6.13309e-08
-7.3974e-08
-1.54925e-07
5.04702e-08
-2.57235e-07
1.89419e-07
-3.65603e-07
3.27792e-07
-4.80749e-07
4.72163e-07
-6.03787e-07
6.2338e-07
-7.35322e-07
7.79339e-07
-8.75132e-07
9.36825e-07
-1.02176e-06
1.09236e-06
-1.17251e-06
1.24229e-06
-1.324e-06
1.38267e-06
-1.47226e-06
1.50876e-06
-1.61365e-06
1.61626e-06
-1.74499e-06
1.70167e-06
-1.86412e-06
1.76295e-06
-1.97039e-06
1.80034e-06
-2.06416e-06
1.8159e-06
-2.14605e-06
1.81226e-06
-2.21665e-06
1.79187e-06
-2.27649e-06
1.75699e-06
-2.32612e-06
1.70969e-06
-2.36618e-06
1.65194e-06
-2.39753e-06
1.5857e-06
-2.42115e-06
1.51281e-06
-2.43811e-06
1.43502e-06
-2.44952e-06
1.35386e-06
-2.45642e-06
1.27062e-06
-2.45977e-06
1.18635e-06
-2.46037e-06
1.10186e-06
-2.45891e-06
1.01773e-06
-2.45593e-06
9.34359e-07
-2.45182e-06
8.51982e-07
-2.4469e-06
7.70716e-07
-2.44135e-06
6.90584e-07
-2.4353e-06
6.11537e-07
-2.42883e-06
5.33472e-07
-2.42195e-06
4.56246e-07
-2.41466e-06
3.797e-07
-2.40695e-06
3.03655e-07
-2.39882e-06
2.27907e-07
-2.39023e-06
1.52257e-07
-2.3812e-06
7.65087e-08
-2.37175e-06
4.88366e-10
-2.36191e-06
-7.61166e-08
-2.35176e-06
-1.53427e-07
-2.34142e-06
-2.31709e-07
-2.33103e-06
-3.11194e-07
-2.32079e-06
-3.92132e-07
-2.31095e-06
-4.74789e-07
-2.3018e-06
-5.59454e-07
-2.29369e-06
-6.46442e-07
-2.28701e-06
-7.36107e-07
-2.28217e-06
-8.28836e-07
-2.27961e-06
-9.25066e-07
-2.27978e-06
-1.02527e-06
-2.28302e-06
-1.12996e-06
-2.2896e-06
-1.23965e-06
-2.29958e-06