/*--------------------------------*- C++ -*----------------------------------*\
  =========                 |
  \\      /  F ield         | OpenFOAM: The Open Source CFD Toolbox
   \\    /   O peration     | Website:  https://openfoam.org
    \\  /    A nd           | Version:  13
     \\/     M anipulation  |
\*---------------------------------------------------------------------------*/
FoamFile
{
    format      ascii;
    class       volVectorField;
    location    "9.1";
    object      U;
}
// * * * * * * * * * * * * * * * * * * * * * * * * * * * * * * * * * * * * * //

dimensions      [0 1 -1 0 0 0 0];

internalField   nonuniform List<vector> 
6400
(
(-0.000127921 8.3856e-05 0)
(0.000455079 -0.000177667 0)
(0.00213308 -0.00044433 0)
(0.0043441 -0.00056177 0)
(0.00653925 -0.000494435 0)
(0.00836537 -0.000328807 0)
(0.00957561 -0.00013041 0)
(0.0101768 1.77052e-05 0)
(0.0102977 7.18166e-05 0)
(0.0101861 4.93539e-05 0)
(0.00996471 -3.09388e-05 0)
(0.00980651 -0.000139751 0)
(0.00977404 -0.00025236 0)
(0.00986609 -0.000343508 0)
(0.010033 -0.000416703 0)
(0.0101953 -0.000470102 0)
(0.0102776 -0.000503423 0)
(0.0102282 -0.000504654 0)
(0.0100029 -0.000484172 0)
(0.00950698 -0.000442175 0)
(0.00870406 -0.000392914 0)
(0.00753368 -0.000342899 0)
(0.00595415 -0.000295942 0)
(0.00393662 -0.000278564 0)
(0.00144719 -0.000329025 0)
(-0.00148734 -0.000448288 0)
(-0.00490829 -0.000487439 0)
(-0.00904182 -0.000289971 0)
(-0.0140002 0.000258324 0)
(-0.0198305 0.0011565 0)
(-0.0272601 0.0022141 0)
(-0.0355058 0.0031061 0)
(-0.0444196 0.00381981 0)
(-0.0536871 0.00434352 0)
(-0.0630474 0.00468451 0)
(-0.0722632 0.00485873 0)
(-0.0811477 0.00489184 0)
(-0.0895453 0.00480785 0)
(-0.0973398 0.00462968 0)
(-0.104433 0.0043753 0)
(-0.11075 0.00405664 0)
(-0.116229 0.00368224 0)
(-0.120826 0.00325415 0)
(-0.124522 0.00277674 0)
(-0.127293 0.00226534 0)
(-0.128901 0.00179406 0)
(-0.129548 0.00136345 0)
(-0.129325 0.000614329 0)
(-0.1277 6.64325e-05 0)
(-0.125149 -0.000632447 0)
(-0.121306 -0.00126909 0)
(-0.116382 -0.00193905 0)
(-0.110242 -0.00257396 0)
(-0.103004 -0.00319773 0)
(-0.0947043 -0.00380596 0)
(-0.0854203 -0.00438542 0)
(-0.0751889 -0.00488748 0)
(-0.0642016 -0.00531103 0)
(-0.0526148 -0.00562171 0)
(-0.040647 -0.00578876 0)
(-0.0285412 -0.00577477 0)
(-0.016583 -0.00556939 0)
(-0.00500325 -0.00517161 0)
(0.00572751 -0.00465562 0)
(0.0152906 -0.00387548 0)
(0.0235018 -0.00292935 0)
(0.0300366 -0.00186072 0)
(0.0346198 -0.000706375 0)
(0.037278 0.000453926 0)
(0.0374056 0.00164573 0)
(0.0358668 0.00231546 0)
(0.0321865 0.00289037 0)
(0.0268115 0.0030725 0)
(0.0206276 0.00276035 0)
(0.0144075 0.00205032 0)
(0.00894222 0.00120283 0)
(0.00466798 0.000516333 0)
(0.00173432 0.000112337 0)
(0.000119213 -0.000176642 0)
(-0.000244054 -0.000351355 0)
(1.6424e-05 -0.000391776 0)
(0.00184948 -0.00214413 0)
(0.00532864 -0.00359918 0)
(0.00919887 -0.00408351 0)
(0.0127571 -0.00368615 0)
(0.0155856 -0.00279741 0)
(0.0175074 -0.00171691 0)
(0.0185529 -0.000736804 0)
(0.0188472 -4.27908e-05 0)
(0.0185549 0.000335411 0)
(0.0178758 0.000440484 0)
(0.0169802 0.000356622 0)
(0.0159544 0.000206835 0)
(0.0147904 0.000104518 0)
(0.0134158 0.000113257 0)
(0.0117282 0.000245896 0)
(0.0096424 0.000481104 0)
(0.00708891 0.000805941 0)
(0.00395401 0.00123585 0)
(0.000130893 0.00178081 0)
(-0.00449082 0.00244538 0)
(-0.0101517 0.00324953 0)
(-0.0169309 0.00415561 0)
(-0.0249003 0.00515664 0)
(-0.0341073 0.00627083 0)
(-0.0446593 0.00750221 0)
(-0.0564363 0.00887889 0)
(-0.0690827 0.0103983 0)
(-0.0822086 0.0119938 0)
(-0.0952746 0.0134847 0)
(-0.107772 0.0145754 0)
(-0.119896 0.0152398 0)
(-0.131354 0.0154865 0)
(-0.14207 0.0153457 0)
(-0.151945 0.0148887 0)
(-0.160915 0.0141677 0)
(-0.168939 0.0132405 0)
(-0.175985 0.0121518 0)
(-0.18204 0.0109404 0)
(-0.18709 0.00963432 0)
(-0.191121 0.00825109 0)
(-0.194135 0.00680736 0)
(-0.196119 0.00530949 0)
(-0.197074 0.00376846 0)
(-0.196989 0.00219398 0)
(-0.195827 0.000600133 0)
(-0.193607 -0.00103723 0)
(-0.190318 -0.00276834 0)
(-0.185904 -0.00452459 0)
(-0.180429 -0.00631936 0)
(-0.173821 -0.00812673 0)
(-0.166121 -0.00993308 0)
(-0.157297 -0.0117142 0)
(-0.147382 -0.0134398 0)
(-0.13638 -0.0150754 0)
(-0.124389 -0.0165707 0)
(-0.111513 -0.0178901 0)
(-0.0978554 -0.01897 0)
(-0.0836019 -0.0197432 0)
(-0.0689673 -0.020159 0)
(-0.0541667 -0.0201506 0)
(-0.0394604 -0.0196801 0)
(-0.0251325 -0.0187264 0)
(-0.0115 -0.017311 0)
(0.0011549 -0.0153702 0)
(0.012573 -0.0129688 0)
(0.0224826 -0.0101578 0)
(0.0306436 -0.00703237 0)
(0.0368884 -0.00367687 0)
(0.0410469 -0.000278177 0)
(0.0431035 0.00292249 0)
(0.0429386 0.00585625 0)
(0.0406433 0.00825497 0)
(0.0364654 0.00972862 0)
(0.0303913 0.0099365 0)
(0.0229729 0.00896959 0)
(0.0152113 0.00710736 0)
(0.00820781 0.00478258 0)
(0.00304685 0.00229718 0)
(0.000221926 0.000252543 0)
(0.000209455 -0.00166823 0)
(0.00326537 -0.00549522 0)
(0.0076033 -0.00775567 0)
(0.0116436 -0.00801268 0)
(0.0149519 -0.00688238 0)
(0.0173221 -0.00504086 0)
(0.018785 -0.00306698 0)
(0.0194018 -0.00128927 0)
(0.0192498 0.000110068 0)
(0.0184344 0.00104928 0)
(0.0171006 0.0015623 0)
(0.0153244 0.00179567 0)
(0.0131214 0.0019466 0)
(0.0104531 0.00219034 0)
(0.00722815 0.00263564 0)
(0.00334778 0.00330636 0)
(-0.00131761 0.00419599 0)
(-0.00692659 0.00531542 0)
(-0.0136072 0.00668894 0)
(-0.0214807 0.00835065 0)
(-0.0306314 0.0103043 0)
(-0.0410306 0.0124866 0)
(-0.0526571 0.0148156 0)
(-0.0653592 0.0171687 0)
(-0.0788778 0.019419 0)
(-0.0929039 0.0214733 0)
(-0.107062 0.0232309 0)
(-0.121032 0.0246306 0)
(-0.134471 0.0256133 0)
(-0.147124 0.026157 0)
(-0.158831 0.0262549 0)
(-0.169543 0.0259074 0)
(-0.179201 0.025161 0)
(-0.18787 0.0240526 0)
(-0.195548 0.0226315 0)
(-0.202274 0.0209684 0)
(-0.208071 0.0191115 0)
(-0.212966 0.0171057 0)
(-0.216967 0.0149824 0)
(-0.220091 0.0127773 0)
(-0.222345 0.0104993 0)
(-0.223729 0.00816184 0)
(-0.224241 0.00577208 0)
(-0.223873 0.00332943 0)
(-0.222615 0.00083647 0)
(-0.220447 -0.00171199 0)
(-0.217338 -0.00433018 0)
(-0.213277 -0.00701368 0)
(-0.208238 -0.00972951 0)
(-0.202208 -0.012494 0)
(-0.195159 -0.0152789 0)
(-0.187085 -0.0180683 0)
(-0.177975 -0.0208287 0)
(-0.167839 -0.0235176 0)
(-0.156699 -0.0260753 0)
(-0.144604 -0.0284315 0)
(-0.131638 -0.0305172 0)
(-0.117894 -0.0322358 0)
(-0.103498 -0.0334955 0)
(-0.0886447 -0.0342028 0)
(-0.0735517 -0.0342692 0)
(-0.0584521 -0.0336214 0)
(-0.0436347 -0.0322328 0)
(-0.0294023 -0.0301087 0)
(-0.0160243 -0.0272434 0)
(-0.00373172 -0.0236782 0)
(0.00722655 -0.0194884 0)
(0.0166391 -0.0147927 0)
(0.0243708 -0.00974328 0)
(0.0303078 -0.00452439 0)
(0.034436 0.00064002 0)
(0.0367128 0.00551381 0)
(0.037004 0.00975056 0)
(0.0352248 0.0131165 0)
(0.0317188 0.0153064 0)
(0.0265304 0.0157958 0)
(0.0198695 0.0146652 0)
(0.0126292 0.0119931 0)
(0.00589682 0.00790554 0)
(0.000784939 0.00291018 0)
(0.000437593 -0.00366736 0)
(0.00435217 -0.00969785 0)
(0.00877699 -0.0120411 0)
(0.0123118 -0.0114885 0)
(0.0148472 -0.0093504 0)
(0.0163842 -0.00657368 0)
(0.0170271 -0.00373493 0)
(0.0168698 -0.00117745 0)
(0.0159929 0.000901646 0)
(0.0144522 0.00243556 0)
(0.0122452 0.00351011 0)
(0.00934785 0.00431751 0)
(0.00570782 0.00509357 0)
(0.00125384 0.00604206 0)
(-0.00408774 0.00728278 0)
(-0.0104203 0.00886774 0)
(-0.0178651 0.0108129 0)
(-0.0265414 0.0131222 0)
(-0.0365276 0.0157849 0)
(-0.0478334 0.0187645 0)
(-0.060366 0.0219626 0)
(-0.0739182 0.0252299 0)
(-0.0881928 0.0283863 0)
(-0.102817 0.0312615 0)
(-0.117489 0.0337596 0)
(-0.13186 0.0356911 0)
(-0.145635 0.036965 0)
(-0.158538 0.037604 0)
(-0.170411 0.0376715 0)
(-0.181221 0.0372161 0)
(-0.190947 0.0362956 0)
(-0.199652 0.0349499 0)
(-0.207377 0.0332201 0)
(-0.214197 0.0311762 0)
(-0.220149 0.0288667 0)
(-0.225297 0.0263468 0)
(-0.229672 0.0236584 0)
(-0.233301 0.0208444 0)
(-0.236203 0.0179277 0)
(-0.238389 0.0149293 0)
(-0.239861 0.0118602 0)
(-0.240612 0.00872617 0)
(-0.240635 0.00552716 0)
(-0.239914 0.00226172 0)
(-0.23843 -0.00107085 0)
(-0.236155 -0.0044795 0)
(-0.23306 -0.00796821 0)
(-0.229119 -0.0115468 0)
(-0.2243 -0.0151978 0)
(-0.218571 -0.0189155 0)
(-0.211905 -0.0226776 0)
(-0.204277 -0.0264608 0)
(-0.195666 -0.0302255 0)
(-0.186058 -0.0339154 0)
(-0.175452 -0.0374495 0)
(-0.163868 -0.0407309 0)
(-0.151357 -0.0436644 0)
(-0.137998 -0.0461338 0)
(-0.12389 -0.0479976 0)
(-0.109175 -0.0491167 0)
(-0.0940531 -0.0493735 0)
(-0.0787379 -0.0486575 0)
(-0.0634962 -0.0469044 0)
(-0.0486489 -0.0440886 0)
(-0.0345399 -0.0402856 0)
(-0.0214182 -0.0355564 0)
(-0.00951652 -0.0299919 0)
(0.000949682 -0.0237545 0)
(0.00982919 -0.0170579 0)
(0.0170176 -0.0101407 0)
(0.0224711 -0.00324849 0)
(0.0262038 0.00338854 0)
(0.0282693 0.009463 0)
(0.028656 0.0145712 0)
(0.0272437 0.0183694 0)
(0.0240777 0.0205589 0)
(0.0193256 0.0207048 0)
(0.0133978 0.0186646 0)
(0.00697412 0.0142446 0)
(0.0010832 0.00671078 0)
(0.000726494 -0.0062351 0)
(0.00503482 -0.0141268 0)
(0.00891367 -0.01584 0)
(0.0115595 -0.0141515 0)
(0.0131206 -0.0109118 0)
(0.0136758 -0.00718462 0)
(0.0133743 -0.00351937 0)
(0.0123024 -0.000221478 0)
(0.0104956 0.002557 0)
(0.00793916 0.00480546 0)
(0.00456771 0.00664391 0)
(0.000291791 0.00828893 0)
(-0.00498192 0.0099869 0)
(-0.0113419 0.0119433 0)
(-0.0188705 0.0142881 0)
(-0.027646 0.0170792 0)
(-0.0377269 0.020322 0)
(-0.0491304 0.0239802 0)
(-0.0617873 0.0279509 0)
(-0.0755151 0.0320855 0)
(-0.090016 0.0361529 0)
(-0.104931 0.0399561 0)
(-0.119893 0.0433514 0)
(-0.134595 0.0460575 0)
(-0.148648 0.0479525 0)
(-0.16174 0.0490543 0)
(-0.173792 0.0493854 0)
(-0.184747 0.0490072 0)
(-0.194659 0.0480253 0)
(-0.203571 0.0465344 0)
(-0.211547 0.0446158 0)
(-0.218674 0.0423374 0)
(-0.224999 0.0397503 0)
(-0.230582 0.0369067 0)
(-0.235472 0.0338494 0)
(-0.239712 0.0306198 0)
(-0.243325 0.0272521 0)
(-0.246334 0.0237767 0)
(-0.248753 0.0202083 0)
(-0.250584 0.0165605 0)
(-0.251825 0.0128373 0)
(-0.252467 0.00903999 0)
(-0.252497 0.00516037 0)
(-0.251895 0.00119302 0)
(-0.250646 -0.00286425 0)
(-0.248715 -0.00702622 0)
(-0.246069 -0.0112993 0)
(-0.242676 -0.0156905 0)
(-0.238505 -0.0201982 0)
(-0.233502 -0.0248076 0)
(-0.227629 -0.0294978 0)
(-0.220848 -0.0342432 0)
(-0.213117 -0.0389979 0)
(-0.204402 -0.0436968 0)
(-0.19468 -0.0482444 0)
(-0.183931 -0.052516 0)
(-0.172178 -0.0563945 0)
(-0.159466 -0.0597348 0)
(-0.145863 -0.0623542 0)
(-0.131477 -0.0640777 0)
(-0.116473 -0.064748 0)
(-0.101041 -0.0641946 0)
(-0.0854383 -0.0623161 0)
(-0.0699154 -0.059052 0)
(-0.0548528 -0.0544445 0)
(-0.0406552 -0.0486305 0)
(-0.0275719 -0.0417478 0)
(-0.0158345 -0.0340096 0)
(-0.00564169 -0.0256752 0)
(0.00286864 -0.0170477 0)
(0.00963409 -0.00843593 0)
(0.0146724 -0.000128759 0)
(0.0180546 0.00757336 0)
(0.0198513 0.0143478 0)
(0.0200756 0.019824 0)
(0.0187319 0.0235618 0)
(0.0158293 0.0251176 0)
(0.0115824 0.0241769 0)
(0.00635488 0.0201276 0)
(0.000958908 0.0105496 0)
(0.00104438 -0.00920148 0)
(0.00521544 -0.0181759 0)
(0.00811511 -0.0186498 0)
(0.00962481 -0.0157601 0)
(0.0101078 -0.0114212 0)
(0.00962375 -0.00679217 0)
(0.00831706 -0.00232989 0)
(0.0062305 0.0017249 0)
(0.00334482 0.00527963 0)
(-0.000410813 0.00837353 0)
(-0.00514418 0.0111606 0)
(-0.010971 0.0138669 0)
(-0.0179935 0.0167283 0)
(-0.0262922 0.0199331 0)
(-0.0359205 0.0235917 0)
(-0.0468912 0.0277271 0)
(-0.0591548 0.0322811 0)
(-0.0725791 0.0371523 0)
(-0.086931 0.0421056 0)
(-0.10184 0.0468857 0)
(-0.116956 0.0513174 0)
(-0.131921 0.0550472 0)
(-0.146272 0.0578862 0)
(-0.159659 0.0597745 0)
(-0.171945 0.0606756 0)
(-0.183141 0.0606817 0)
(-0.1933 0.0599211 0)
(-0.20249 0.0585237 0)
(-0.210801 0.0566021 0)
(-0.218289 0.0542437 0)
(-0.225028 0.051525 0)
(-0.23107 0.0485006 0)
(-0.236463 0.0452223 0)
(-0.241257 0.0417341 0)
(-0.245486 0.03807 0)
(-0.249178 0.0342599 0)
(-0.252347 0.0303298 0)
(-0.25501 0.0263069 0)
(-0.257176 0.0221996 0)
(-0.258848 0.0180139 0)
(-0.260024 0.0137487 0)
(-0.2607 0.00940201 0)
(-0.260872 0.00495677 0)
(-0.260525 0.000396806 0)
(-0.259668 -0.00430411 0)
(-0.258257 -0.00914463 0)
(-0.256256 -0.0141307 0)
(-0.253624 -0.0192641 0)
(-0.25032 -0.0245507 0)
(-0.246301 -0.0299845 0)
(-0.241494 -0.0355372 0)
(-0.235838 -0.0411781 0)
(-0.229257 -0.0468495 0)
(-0.221695 -0.0524879 0)
(-0.213172 -0.0580474 0)
(-0.203588 -0.0633636 0)
(-0.192896 -0.0682711 0)
(-0.181123 -0.072607 0)
(-0.168298 -0.0761478 0)
(-0.154468 -0.0786753 0)
(-0.139792 -0.0799915 0)
(-0.124396 -0.0798688 0)
(-0.10854 -0.0781833 0)
(-0.0924755 -0.0747769 0)
(-0.0765064 -0.0696447 0)
(-0.0610667 -0.0629135 0)
(-0.0465979 -0.0548409 0)
(-0.0333633 -0.0456679 0)
(-0.0216218 -0.03571 0)
(-0.011573 -0.0253443 0)
(-0.00333141 -0.0149631 0)
(0.00308849 -0.00494024 0)
(0.00776131 0.00438822 0)
(0.0108182 0.0127044 0)
(0.0123708 0.0196842 0)
(0.0124721 0.0249025 0)
(0.0111281 0.0278835 0)
(0.00843952 0.0281612 0)
(0.00474509 0.0248104 0)
(0.000583849 0.0137319 0)
(0.00129748 -0.012305 0)
(0.00483519 -0.0213292 0)
(0.0064127 -0.0203497 0)
(0.00679522 -0.0161628 0)
(0.00611558 -0.01083 0)
(0.00455919 -0.00535122 0)
(0.00219104 -9.06428e-05 0)
(-0.000999704 0.00477853 0)
(-0.00508109 0.00921748 0)
(-0.010159 0.0133029 0)
(-0.0163545 0.0172039 0)
(-0.0237794 0.0211377 0)
(-0.0325181 0.0253123 0)
(-0.0426139 0.0298777 0)
(-0.054056 0.0348922 0)
(-0.0667515 0.0403104 0)
(-0.0805492 0.045992 0)
(-0.0951413 0.0516861 0)
(-0.110137 0.0571707 0)
(-0.125198 0.0620725 0)
(-0.13985 0.0661149 0)
(-0.153609 0.069094 0)
(-0.166281 0.0709306 0)
(-0.177843 0.0716793 0)
(-0.188355 0.0714813 0)
(-0.197893 0.070477 0)
(-0.206544 0.0687969 0)
(-0.214393 0.0665638 0)
(-0.221512 0.063875 0)
(-0.227952 0.0608115 0)
(-0.233765 0.0574389 0)
(-0.23899 0.0538047 0)
(-0.243665 0.0499534 0)
(-0.247825 0.0459211 0)
(-0.251494 0.0417396 0)
(-0.254693 0.0374363 0)
(-0.257435 0.0330379 0)
(-0.259724 0.0285637 0)
(-0.261577 0.0240155 0)
(-0.262994 0.0193977 0)
(-0.264009 0.0146469 0)
(-0.264597 0.00983581 0)
(-0.264756 0.00492527 0)
(-0.264476 -9.54067e-05 0)
(-0.263736 -0.0052571 0)
(-0.262579 -0.0105671 0)
(-0.260987 -0.0160567 0)
(-0.258959 -0.0217542 0)
(-0.256466 -0.0276895 0)
(-0.253488 -0.0338603 0)
(-0.24995 -0.0402146 0)
(-0.245773 -0.0467437 0)
(-0.24087 -0.053407 0)
(-0.235129 -0.0601311 0)
(-0.228355 -0.0667709 0)
(-0.220446 -0.0731647 0)
(-0.211272 -0.079121 0)
(-0.200879 -0.0845203 0)
(-0.189328 -0.0891706 0)
(-0.176495 -0.0927239 0)
(-0.162565 -0.0949642 0)
(-0.147557 -0.0955667 0)
(-0.13176 -0.0943711 0)
(-0.11536 -0.0911684 0)
(-0.0986957 -0.0858877 0)
(-0.082105 -0.078557 0)
(-0.0661356 -0.0694558 0)
(-0.0512686 -0.0589544 0)
(-0.0377879 -0.0474053 0)
(-0.0259767 -0.0352579 0)
(-0.0160356 -0.0230054 0)
(-0.00805179 -0.011134 0)
(-0.00199268 -7.22865e-05 0)
(0.0023014 0.00983049 0)
(0.0050282 0.0182691 0)
(0.0063286 0.0248788 0)
(0.00628608 0.0292137 0)
(0.00496238 0.0306636 0)
(0.00274934 0.028021 0)
(0.000113456 0.0157666 0)
(0.00139326 -0.0151951 0)
(0.00379295 -0.0233196 0)
(0.0041247 -0.0207937 0)
(0.00325693 -0.0153418 0)
(0.00142318 -0.00912035 0)
(-0.00123381 -0.00282311 0)
(-0.00471484 0.00326611 0)
(-0.00907796 0.00902812 0)
(-0.0144235 0.0144604 0)
(-0.020867 0.0196582 0)
(-0.0285189 0.0247872 0)
(-0.0374654 0.0300379 0)
(-0.0477485 0.035572 0)
(-0.0593501 0.0414731 0)
(-0.0721741 0.0477334 0)
(-0.0860366 0.0542031 0)
(-0.100593 0.0606223 0)
(-0.115481 0.0667129 0)
(-0.130255 0.0720936 0)
(-0.144414 0.0764535 0)
(-0.157576 0.0795699 0)
(-0.169642 0.0814324 0)
(-0.180631 0.0821495 0)
(-0.190603 0.0818709 0)
(-0.19965 0.0807339 0)
(-0.20786 0.0788818 0)
(-0.21532 0.0764357 0)
(-0.222091 0.0735033 0)
(-0.228224 0.0701669 0)
(-0.233757 0.0664984 0)
(-0.238727 0.0625554 0)
(-0.243162 0.0583851 0)
(-0.247092 0.0540303 0)
(-0.250534 0.0495296 0)
(-0.253506 0.0449219 0)
(-0.256009 0.0402412 0)
(-0.258166 0.0354087 0)
(-0.259967 0.0304976 0)
(-0.261421 0.0255074 0)
(-0.262525 0.0204398 0)
(-0.26327 0.0153424 0)
(-0.263667 0.0101342 0)
(-0.263717 0.00482859 0)
(-0.263428 -0.000595683 0)
(-0.262798 -0.00614575 0)
(-0.261851 -0.0118429 0)
(-0.26057 -0.0177096 0)
(-0.25895 -0.0237585 0)
(-0.256971 -0.0299966 0)
(-0.254608 -0.0364658 0)
(-0.251852 -0.0432344 0)
(-0.248673 -0.0502813 0)
(-0.245029 -0.0575925 0)
(-0.24086 -0.0651373 0)
(-0.236087 -0.0728814 0)
(-0.230588 -0.0806152 0)
(-0.22408 -0.088091 0)
(-0.216224 -0.0950024 0)
(-0.206703 -0.100913 0)
(-0.195538 -0.105633 0)
(-0.183066 -0.109115 0)
(-0.169079 -0.110801 0)
(-0.153887 -0.110508 0)
(-0.137627 -0.107925 0)
(-0.120644 -0.102935 0)
(-0.103246 -0.0954806 0)
(-0.0858956 -0.0856668 0)
(-0.0693003 -0.0739902 0)
(-0.0539625 -0.0609527 0)
(-0.0402054 -0.0470243 0)
(-0.0283374 -0.032801 0)
(-0.018554 -0.0189004 0)
(-0.0109045 -0.00589295 0)
(-0.00527476 0.0057661 0)
(-0.00142758 0.0157297 0)
(0.000914032 0.0237108 0)
(0.00194882 0.029305 0)
(0.00182153 0.031847 0)
(0.000866243 0.029724 0)
(-0.000271699 0.0165601 0)
(0.00129272 -0.0175688 0)
(0.00232883 -0.0240063 0)
(0.00134208 -0.0198696 0)
(-0.00075802 -0.0133572 0)
(-0.00373091 -0.00629035 0)
(-0.00750661 0.000826221 0)
(-0.012131 0.00778871 0)
(-0.0176959 0.0145172 0)
(-0.0243108 0.0210267 0)
(-0.0320801 0.0274111 0)
(-0.0410866 0.0338136 0)
(-0.0513722 0.0403804 0)
(-0.0629164 0.0472064 0)
(-0.0756446 0.0543101 0)
(-0.0893626 0.0615652 0)
(-0.103697 0.068707 0)
(-0.118297 0.075398 0)
(-0.132687 0.0812732 0)
(-0.146325 0.0859744 0)
(-0.158984 0.089332 0)
(-0.170556 0.0913422 0)
(-0.181071 0.0921471 0)
(-0.190595 0.0918761 0)
(-0.199224 0.0906964 0)
(-0.207044 0.0887453 0)
(-0.214132 0.0861575 0)
(-0.220546 0.0830365 0)
(-0.22633 0.0794753 0)
(-0.231517 0.0755476 0)
(-0.23614 0.0713198 0)
(-0.240228 0.0668473 0)
(-0.243808 0.0621791 0)
(-0.246905 0.0573596 0)
(-0.249571 0.0524017 0)
(-0.251867 0.0473261 0)
(-0.253814 0.0421598 0)
(-0.255378 0.0369859 0)
(-0.256567 0.0317542 0)
(-0.257402 0.0264643 0)
(-0.257904 0.0211125 0)
(-0.25812 0.0156966 0)
(-0.258081 0.0101981 0)
(-0.257815 0.00461313 0)
(-0.257347 -0.00107926 0)
(-0.256687 -0.00689611 0)
(-0.255806 -0.0128677 0)
(-0.254728 -0.0190248 0)
(-0.253446 -0.0253961 0)
(-0.25196 -0.0320056 0)
(-0.250258 -0.0388703 0)
(-0.248323 -0.0460006 0)
(-0.246122 -0.0533994 0)
(-0.243608 -0.0610556 0)
(-0.240717 -0.0689293 0)
(-0.237355 -0.0769454 0)
(-0.233436 -0.0851946 0)
(-0.22894 -0.0936127 0)
(-0.223677 -0.101976 0)
(-0.217395 -0.109863 0)
(-0.209607 -0.116745 0)
(-0.199547 -0.121791 0)
(-0.187472 -0.124893 0)
(-0.173721 -0.125963 0)
(-0.158318 -0.124513 0)
(-0.141613 -0.120332 0)
(-0.123962 -0.113314 0)
(-0.105695 -0.103383 0)
(-0.087485 -0.0908641 0)
(-0.0701786 -0.0764585 0)
(-0.0543417 -0.060834 0)
(-0.040338 -0.0445949 0)
(-0.0284957 -0.028497 0)
(-0.018991 -0.0132805 0)
(-0.0118094 0.000417739 0)
(-0.00673546 0.0121293 0)
(-0.00340796 0.0215578 0)
(-0.00147519 0.0283675 0)
(-0.000624322 0.0318322 0)
(-0.000474564 0.0301263 0)
(-0.00039238 0.0164138 0)
(0.00103709 -0.0188842 0)
(0.000585454 -0.0232805 0)
(-0.00174311 -0.0176424 0)
(-0.00502255 -0.0102053 0)
(-0.0091255 -0.00233307 0)
(-0.0140248 0.00561322 0)
(-0.0197931 0.0134878 0)
(-0.0265382 0.0212332 0)
(-0.0343619 0.0288619 0)
(-0.0433424 0.0364468 0)
(-0.0535205 0.0440918 0)
(-0.0648791 0.0518814 0)
(-0.0773595 0.0598515 0)
(-0.09079 0.0679062 0)
(-0.104802 0.0757729 0)
(-0.119002 0.083106 0)
(-0.132946 0.0895314 0)
(-0.146147 0.0946711 0)
(-0.158371 0.0983751 0)
(-0.169536 0.100666 0)
(-0.179645 0.101639 0)
(-0.188787 0.101469 0)
(-0.197042 0.100315 0)
(-0.204498 0.0983351 0)
(-0.211218 0.0956554 0)
(-0.217255 0.0923927 0)
(-0.222649 0.0886384 0)
(-0.227431 0.084477 0)
(-0.231636 0.0799795 0)
(-0.235294 0.0752108 0)
(-0.238443 0.070226 0)
(-0.241118 0.0650739 0)
(-0.243362 0.0597941 0)
(-0.245193 0.0544344 0)
(-0.246621 0.049017 0)
(-0.247699 0.0435411 0)
(-0.248438 0.0380272 0)
(-0.248903 0.0324699 0)
(-0.249133 0.026885 0)
(-0.249174 0.0212737 0)
(-0.249021 0.0156314 0)
(-0.248697 0.00993804 0)
(-0.248219 0.00417904 0)
(-0.247601 -0.00167036 0)
(-0.246849 -0.00763308 0)
(-0.245971 -0.0137424 0)
(-0.244987 -0.0200252 0)
(-0.243903 -0.0265144 0)
(-0.242728 -0.0332418 0)
(-0.241465 -0.0402402 0)
(-0.240111 -0.0475398 0)
(-0.238658 -0.0551635 0)
(-0.237084 -0.0631243 0)
(-0.235344 -0.0714123 0)
(-0.233367 -0.0799828 0)
(-0.231061 -0.0887497 0)
(-0.228309 -0.0975957 0)
(-0.224934 -0.106354 0)
(-0.220765 -0.115087 0)
(-0.215716 -0.123571 0)
(-0.209368 -0.131159 0)
(-0.201069 -0.137003 0)
(-0.189843 -0.139931 0)
(-0.176331 -0.140183 0)
(-0.160749 -0.137402 0)
(-0.14357 -0.131461 0)
(-0.125104 -0.122125 0)
(-0.105874 -0.109485 0)
(-0.0867146 -0.0940614 0)
(-0.0686518 -0.0768136 0)
(-0.0523436 -0.0586081 0)
(-0.0381909 -0.0402056 0)
(-0.0265271 -0.0225335 0)
(-0.01748 -0.0064454 0)
(-0.0109371 0.00737519 0)
(-0.00653441 0.0184881 0)
(-0.0037624 0.0265845 0)
(-0.00217453 0.0308289 0)
(-0.00118339 0.0295536 0)
(-0.000370056 0.0158038 0)
(0.000709567 -0.0192112 0)
(-0.00133469 -0.0211418 0)
(-0.00493256 -0.0141868 0)
(-0.00935359 -0.00589796 0)
(-0.0145698 0.00274587 0)
(-0.0205671 0.0115227 0)
(-0.0274392 0.0203284 0)
(-0.0352919 0.0291054 0)
(-0.0442062 0.0378442 0)
(-0.0542233 0.0465804 0)
(-0.0653316 0.0553634 0)
(-0.0774854 0.0642275 0)
(-0.0905409 0.0731061 0)
(-0.104161 0.0817333 0)
(-0.117935 0.0897526 0)
(-0.131432 0.0967908 0)
(-0.144245 0.102495 0)
(-0.156105 0.106676 0)
(-0.16692 0.109342 0)
(-0.176693 0.110594 0)
(-0.185494 0.110605 0)
(-0.193412 0.109555 0)
(-0.200516 0.107599 0)
(-0.206868 0.104877 0)
(-0.212508 0.101505 0)
(-0.217476 0.0975857 0)
(-0.221803 0.0932082 0)
(-0.225524 0.0884564 0)
(-0.22868 0.083404 0)
(-0.231311 0.0781186 0)
(-0.233463 0.0726581 0)
(-0.23518 0.0670718 0)
(-0.236507 0.0613986 0)
(-0.237486 0.0556704 0)
(-0.238159 0.0499097 0)
(-0.238575 0.0441326 0)
(-0.238765 0.0383578 0)
(-0.238768 0.0325872 0)
(-0.238603 0.02682 0)
(-0.238295 0.021047 0)
(-0.237854 0.0152577 0)
(-0.237298 0.00943355 0)
(-0.236641 0.00355642 0)
(-0.235895 -0.00239707 0)
(-0.23507 -0.00845038 0)
(-0.234181 -0.0146353 0)
(-0.233244 -0.0209799 0)
(-0.232271 -0.0275164 0)
(-0.231278 -0.0342773 0)
(-0.230277 -0.0412973 0)
(-0.229281 -0.0486102 0)
(-0.228297 -0.0562474 0)
(-0.227328 -0.0642355 0)
(-0.226357 -0.0725925 0)
(-0.225351 -0.0813239 0)
(-0.224252 -0.0904139 0)
(-0.222967 -0.0997934 0)
(-0.221348 -0.10932 0)
(-0.219212 -0.118765 0)
(-0.216312 -0.127858 0)
(-0.212331 -0.136489 0)
(-0.207138 -0.144488 0)
(-0.200111 -0.150728 0)
(-0.190167 -0.15394 0)
(-0.17689 -0.153226 0)
(-0.161191 -0.149102 0)
(-0.143387 -0.14113 0)
(-0.123989 -0.129235 0)
(-0.103708 -0.113661 0)
(-0.083556 -0.0951566 0)
(-0.0647658 -0.0749999 0)
(-0.0480969 -0.0542882 0)
(-0.0339801 -0.033974 0)
(-0.0227213 -0.0151605 0)
(-0.0143584 0.0012006 0)
(-0.00862831 0.0144164 0)
(-0.00493942 0.0240498 0)
(-0.00276821 0.0291366 0)
(-0.00126963 0.028384 0)
(-0.000199654 0.0149643 0)
(0.000118462 -0.0183427 0)
(-0.00334557 -0.0176563 0)
(-0.00810363 -0.00951996 0)
(-0.0136123 -0.000473733 0)
(-0.0198931 0.00890555 0)
(-0.0269295 0.0185013 0)
(-0.0348223 0.0282296 0)
(-0.0436653 0.0380123 0)
(-0.0535086 0.0478014 0)
(-0.0643488 0.0575826 0)
(-0.076149 0.0673609 0)
(-0.0887933 0.0770869 0)
(-0.101986 0.0865108 0)
(-0.11533 0.0952769 0)
(-0.128413 0.103011 0)
(-0.140877 0.109383 0)
(-0.152441 0.114171 0)
(-0.162963 0.117325 0)
(-0.172454 0.118961 0)
(-0.180965 0.119245 0)
(-0.188576 0.118368 0)
(-0.195355 0.116497 0)
(-0.201348 0.113776 0)
(-0.206599 0.110329 0)
(-0.211141 0.106267 0)
(-0.215012 0.101691 0)
(-0.218254 0.0966958 0)
(-0.220918 0.0913692 0)
(-0.223058 0.0857898 0)
(-0.22473 0.0800277 0)
(-0.225992 0.0741416 0)
(-0.226899 0.0681795 0)
(-0.227502 0.0621783 0)
(-0.227849 0.0561672 0)
(-0.227983 0.0501665 0)
(-0.227941 0.0441908 0)
(-0.227748 0.0382479 0)
(-0.227425 0.0323334 0)
(-0.226991 0.0264408 0)
(-0.226458 0.0205581 0)
(-0.225837 0.014671 0)
(-0.225141 0.00876164 0)
(-0.22438 0.00281074 0)
(-0.223564 -0.00320415 0)
(-0.222703 -0.00930689 0)
(-0.221811 -0.015526 0)
(-0.220903 -0.0218898 0)
(-0.219993 -0.0284291 0)
(-0.219101 -0.0351762 0)
(-0.218244 -0.0421652 0)
(-0.217443 -0.0494306 0)
(-0.216715 -0.0570065 0)
(-0.216077 -0.0649242 0)
(-0.215536 -0.0732107 0)
(-0.21509 -0.0818869 0)
(-0.21472 -0.0909632 0)
(-0.214379 -0.100427 0)
(-0.213977 -0.110233 0)
(-0.213373 -0.120277 0)
(-0.212356 -0.130333 0)
(-0.21064 -0.140035 0)
(-0.207853 -0.148937 0)
(-0.203576 -0.156943 0)
(-0.197472 -0.16339 0)
(-0.188517 -0.16663 0)
(-0.175551 -0.16512 0)
(-0.159619 -0.159469 0)
(-0.141038 -0.149216 0)
(-0.120594 -0.134497 0)
(-0.0991909 -0.115744 0)
(-0.0780818 -0.0940073 0)
(-0.0586965 -0.0709354 0)
(-0.0418941 -0.0478968 0)
(-0.0281055 -0.0260759 0)
(-0.0175561 -0.00674988 0)
(-0.0101397 0.0090836 0)
(-0.00532278 0.0207056 0)
(-0.00255402 0.0270292 0)
(-0.000830843 0.0270555 0)
(5.72535e-05 0.0143689 0)
(-0.00047083 -0.0162154 0)
(-0.00530634 -0.0128719 0)
(-0.011136 -0.00372624 0)
(-0.0176641 0.00599791 0)
(-0.024935 0.0160718 0)
(-0.0329211 0.026459 0)
(-0.04172 0.037072 0)
(-0.0514054 0.0477958 0)
(-0.0619906 0.0585324 0)
(-0.0734464 0.0692236 0)
(-0.0856793 0.0798093 0)
(-0.0984407 0.0900548 0)
(-0.111365 0.0996231 0)
(-0.124074 0.108137 0)
(-0.136229 0.115273 0)
(-0.14755 0.120785 0)
(-0.157852 0.124561 0)
(-0.167114 0.126689 0)
(-0.17539 0.127347 0)
(-0.182739 0.126723 0)
(-0.189228 0.125 0)
(-0.1949 0.122331 0)
(-0.199793 0.118849 0)
(-0.203946 0.114677 0)
(-0.207401 0.109929 0)
(-0.210212 0.104715 0)
(-0.212442 0.0991372 0)
(-0.214156 0.093288 0)
(-0.215425 0.0872492 0)
(-0.216315 0.08109 0)
(-0.216887 0.074866 0)
(-0.217199 0.0686204 0)
(-0.217297 0.0623847 0)
(-0.217224 0.0561813 0)
(-0.217012 0.0500236 0)
(-0.216685 0.0439178 0)
(-0.216262 0.0378634 0)
(-0.215756 0.0318531 0)
(-0.215177 0.0258764 0)
(-0.214533 0.0199201 0)
(-0.213832 0.0139685 0)
(-0.213079 0.00800342 0)
(-0.212282 0.00200548 0)
(-0.211447 -0.00404695 0)
(-0.210584 -0.0101766 0)
(-0.209703 -0.0164091 0)
(-0.208819 -0.0227708 0)
(-0.207947 -0.0292903 0)
(-0.207106 -0.0359979 0)
(-0.206318 -0.0429257 0)
(-0.205606 -0.0501075 0)
(-0.204997 -0.0575779 0)
(-0.204513 -0.0653716 0)
(-0.204176 -0.0735218 0)
(-0.204003 -0.0820584 0)
(-0.203999 -0.0910036 0)
(-0.204151 -0.100366 0)
(-0.204422 -0.110135 0)
(-0.204735 -0.120271 0)
(-0.204954 -0.130682 0)
(-0.20486 -0.141189 0)
(-0.20414 -0.151442 0)
(-0.202378 -0.160866 0)
(-0.199018 -0.168829 0)
(-0.193554 -0.175177 0)
(-0.185158 -0.178175 0)
(-0.172411 -0.175833 0)
(-0.156038 -0.168399 0)
(-0.136526 -0.155571 0)
(-0.114924 -0.137698 0)
(-0.0923894 -0.115499 0)
(-0.0704625 -0.090407 0)
(-0.0507595 -0.0645211 0)
(-0.0341983 -0.0394941 0)
(-0.0211533 -0.0168108 0)
(-0.0117057 0.0021637 0)
(-0.00547093 0.0163819 0)
(-0.00194756 0.0245784 0)
(-0.000122271 0.0258491 0)
(0.000355821 0.0142628 0)
(-0.00106375 -0.0129141 0)
(-0.00714347 -0.00690592 0)
(-0.013937 0.00311384 0)
(-0.0213926 0.0134352 0)
(-0.0295585 0.0241514 0)
(-0.0383804 0.0352802 0)
(-0.0479482 0.0467116 0)
(-0.0583104 0.0582801 0)
(-0.0694532 0.0698393 0)
(-0.0813009 0.081275 0)
(-0.0936458 0.092349 0)
(-0.106176 0.102757 0)
(-0.118552 0.112123 0)
(-0.130439 0.120112 0)
(-0.141565 0.126454 0)
(-0.151714 0.130982 0)
(-0.160817 0.133729 0)
(-0.168914 0.134865 0)
(-0.176063 0.134589 0)
(-0.182315 0.13309 0)
(-0.18772 0.130535 0)
(-0.192313 0.12707 0)
(-0.196136 0.122833 0)
(-0.199242 0.117952 0)
(-0.201694 0.112554 0)
(-0.203566 0.106757 0)
(-0.204937 0.100669 0)
(-0.205886 0.0943839 0)
(-0.206488 0.0879803 0)
(-0.206808 0.0815214 0)
(-0.206906 0.0750552 0)
(-0.20683 0.0686164 0)
(-0.206619 0.0622279 0)
(-0.206303 0.0559031 0)
(-0.205903 0.0496477 0)
(-0.205436 0.0434611 0)
(-0.204911 0.0373372 0)
(-0.204335 0.0312661 0)
(-0.203712 0.0252349 0)
(-0.203044 0.0192286 0)
(-0.202335 0.0132316 0)
(-0.201586 0.00722596 0)
(-0.200802 0.00119289 0)
(-0.199986 -0.00488793 0)
(-0.199145 -0.0110371 0)
(-0.198288 -0.0172773 0)
(-0.197428 -0.0236324 0)
(-0.196579 -0.0301276 0)
(-0.195761 -0.0367899 0)
(-0.194996 -0.0436486 0)
(-0.19431 -0.0507347 0)
(-0.193731 -0.0580814 0)
(-0.193289 -0.0657238 0)
(-0.193014 -0.0736981 0)
(-0.192934 -0.0820405 0)
(-0.193071 -0.090784 0)
(-0.193433 -0.0999542 0)
(-0.194014 -0.109563 0)
(-0.194778 -0.1196 0)
(-0.195652 -0.130021 0)
(-0.196502 -0.14073 0)
(-0.197112 -0.151558 0)
(-0.197155 -0.162195 0)
(-0.196164 -0.172069 0)
(-0.193545 -0.180326 0)
(-0.188528 -0.186278 0)
(-0.180313 -0.188722 0)
(-0.167533 -0.18531 0)
(-0.150471 -0.175766 0)
(-0.129867 -0.159955 0)
(-0.107034 -0.138538 0)
(-0.0834403 -0.112586 0)
(-0.0609962 -0.0840882 0)
(-0.0414331 -0.055661 0)
(-0.0256674 -0.0292552 0)
(-0.0139201 -0.00661863 0)
(-0.00599132 0.010842 0)
(-0.00148654 0.0216568 0)
(0.00056593 0.0247987 0)
(0.000566136 0.0146099 0)
(-0.00162599 -0.00850966 0)
(-0.00879072 0.000120452 0)
(-0.016437 0.0108942 0)
(-0.0247169 0.0217337 0)
(-0.0336584 0.0330289 0)
(-0.0431834 0.0448316 0)
(-0.0533697 0.0569917 0)
(-0.0642402 0.0692933 0)
(-0.0757436 0.0815246 0)
(-0.0877017 0.0934134 0)
(-0.0998705 0.104671 0)
(-0.11195 0.11494 0)
(-0.123611 0.123854 0)
(-0.134588 0.131121 0)
(-0.144643 0.136523 0)
(-0.153663 0.140024 0)
(-0.161652 0.14176 0)
(-0.168666 0.141937 0)
(-0.174754 0.140752 0)
(-0.179959 0.138388 0)
(-0.184325 0.135007 0)
(-0.187895 0.13076 0)
(-0.19073 0.125796 0)
(-0.192905 0.120257 0)
(-0.194503 0.114279 0)
(-0.195613 0.107987 0)
(-0.196324 0.101486 0)
(-0.196714 0.0948663 0)
(-0.196856 0.0881976 0)
(-0.196808 0.081533 0)
(-0.19662 0.0749097 0)
(-0.196329 0.0683522 0)
(-0.195963 0.061874 0)
(-0.195541 0.0554806 0)
(-0.195075 0.0491706 0)
(-0.194574 0.0429378 0)
(-0.194039 0.0367725 0)
(-0.193472 0.0306627 0)
(-0.192873 0.0245943 0)
(-0.192239 0.0185508 0)
(-0.19157 0.0125165 0)
(-0.190865 0.00647531 0)
(-0.190125 0.000409091 0)
(-0.189352 -0.00569942 0)
(-0.18855 -0.0118699 0)
(-0.187728 -0.0181218 0)
(-0.186895 -0.0244754 0)
(-0.186065 -0.0309526 0)
(-0.185256 -0.0375765 0)
(-0.18449 -0.0443723 0)
(-0.183793 -0.0513677 0)
(-0.183193 -0.0585927 0)
(-0.182724 -0.0660804 0)
(-0.18242 -0.0738669 0)
(-0.182318 -0.0819909 0)
(-0.182448 -0.090492 0)
(-0.182839 -0.0994083 0)
(-0.183504 -0.108772 0)
(-0.184438 -0.118601 0)
(-0.185602 -0.128888 0)
(-0.18692 -0.139588 0)