/*--------------------------------*- C++ -*----------------------------------*\
  =========                 |
  \\      /  F ield         | OpenFOAM: The Open Source CFD Toolbox
   \\    /   O peration     | Website:  https://openfoam.org
    \\  /    A nd           | Version:  13
     \\/     M anipulation  |
\*---------------------------------------------------------------------------*/
FoamFile
{
    format      ascii;
    class       volScalarField;
    location    "3.9";
    object      epsilon;
}
// * * * * * * * * * * * * * * * * * * * * * * * * * * * * * * * * * * * * * //

dimensions      [0 2 -3 0 0 0 0];

internalField   nonuniform List<scalar> 
6400
(
2.04277e-05
0.000104269
0.000247963
0.00039936
0.000519515
0.000595607
0.000635054
0.00065559
0.000677108
0.000718691
0.000795712
0.000921968
0.00110891
0.00135898
0.00166416
0.00201233
0.00239052
0.00279337
0.00320256
0.00360737
0.00401133
0.00444186
0.00493592
0.00552774
0.00621876
0.00696153
0.007698
0.00843787
0.00919015
0.00997348
0.0107915
0.0116197
0.0124314
0.013226
0.0140082
0.0147974
0.0156005
0.0164335
0.0173035
0.0182213
0.0191907
0.0202197
0.0213163
0.0224872
0.02374
0.0250861
0.0265646
0.0282619
0.03036
0.032563
0.0347867
0.0369885
0.0391266
0.0411386
0.0429567
0.0445087
0.045705
0.0463004
0.0465351
0.0463319
0.0452954
0.0435238
0.0410282
0.0378503
0.0341338
0.0299712
0.0256137
0.0212602
0.0171004
0.013242
0.0100037
0.00734679
0.00517879
0.00349452
0.00226301
0.001408
0.000841529
0.000473989
0.0002192
4.63963e-05
9.95028e-05
9.59469e-05
0.00015371
0.000222527
0.000277599
0.000315154
0.000338841
0.000355631
0.000374128
0.000404755
0.000457994
0.000545167
0.00067773
0.000864075
0.00110857
0.0014145
0.00178547
0.00222756
0.00274525
0.00334601
0.00404225
0.00484194
0.005788
0.00690837
0.00820392
0.00966371
0.0112806
0.0129156
0.0144881
0.015919
0.0171146
0.0180623
0.0187827
0.0192964
0.0196564
0.0198987
0.0200643
0.0201861
0.0202911
0.0203981
0.0205256
0.0206924
0.0209045
0.0211513
0.0214245
0.0217428
0.0221383
0.0226038
0.023136
0.0237379
0.0243684
0.0250327
0.0256894
0.0263229
0.0268892
0.0273497
0.0275799
0.0276452
0.027502
0.0270997
0.0263195
0.0252127
0.0237404
0.0219269
0.0198372
0.017554
0.0151824
0.0128298
0.0105961
0.00855315
0.00680065
0.00531717
0.00405482
0.00298729
0.00210575
0.00140127
0.000862254
0.000483498
0.000248334
0.000243527
0.000219278
0.000171795
0.000222991
0.000280397
0.000319794
0.000345117
0.000364588
0.00038726
0.000423525
0.000486595
0.00059194
0.000758027
0.00100315
0.00134214
0.00178643
0.00234884
0.00304089
0.00387462
0.00485841
0.00599779
0.0072957
0.00874932
0.0103105
0.0118921
0.0133656
0.0145859
0.0154201
0.0159621
0.0162873
0.0164965
0.0166582
0.0167189
0.0166354
0.0164128
0.0161945
0.0159686
0.0157731
0.0156162
0.0155309
0.0154997
0.0155095
0.0156166
0.0157804
0.0160382
0.0163936
0.0168422
0.0173622
0.0179537
0.0186102
0.0193301
0.0200985
0.0209075
0.0217367
0.0225668
0.0233668
0.0241021
0.0247294
0.0251611
0.0253392
0.0253405
0.0249804
0.0242219
0.0230519
0.0214879
0.0196032
0.0174832
0.0152279
0.0129493
0.0107518
0.00872628
0.00694317
0.00542798
0.00417257
0.00314909
0.0023217
0.00165572
0.00112437
0.000705061
0.000439437
0.000637791
0.000381319
0.000294809
0.000352048
0.000408666
0.000444568
0.000470417
0.00049917
0.000544796
0.00062376
0.000756808
0.000970628
0.00129332
0.00174981
0.0023586
0.00313227
0.00407877
0.00520258
0.00649413
0.00792251
0.00943045
0.0109342
0.0123268
0.0134988
0.0143369
0.014775
0.0149642
0.0150231
0.014948
0.0146459
0.0142249
0.0137406
0.0132648
0.012899
0.0126036
0.0123616
0.0121832
0.0120886
0.0120529
0.0120592
0.0121607
0.0123176
0.012551
0.0128485
0.0132192
0.0136586
0.014167
0.0147427
0.0153881
0.0161017
0.0168831
0.0177278
0.0186294
0.0195762
0.0205524
0.0215333
0.0224862
0.0233675
0.0241241
0.0246645
0.0249043
0.0249264
0.0245202
0.0237535
0.0225458
0.0208273
0.0187672
0.0164593
0.0140387
0.0116457
0.00940752
0.00742084
0.00573954
0.00437235
0.00329182
0.00245223
0.00180202
0.00129162
0.000887681
0.00063994
0.0010325
0.000608691
0.000465966
0.000522939
0.000580939
0.000622736
0.000662791
0.000719042
0.000812733
0.000970304
0.0012245
0.00161194
0.00216618
0.00291038
0.00385408
0.0049937
0.00631117
0.0077676
0.00929258
0.0107824
0.0121098
0.0131607
0.0137791
0.014047
0.0141206
0.0140072
0.0136064
0.0129862
0.0123512
0.011765
0.0112727
0.0108246
0.0104654
0.0101868
0.0099742
0.0098257
0.00975211
0.00972558
0.00973075
0.00981026
0.00993446
0.010109
0.0103332
0.0106065
0.0109316
0.0113094
0.0117436
0.0122374
0.0127952
0.0134208
0.0141181
0.0148901
0.0157385
0.0166605
0.0176503
0.0186958
0.019778
0.0208648
0.02191
0.0228587
0.0236421
0.0240856
0.0242301
0.0239708
0.0232731
0.0220764
0.0202701
0.0180323
0.0155227
0.0129157
0.0103896
0.00810015
0.0061528
0.0045875
0.00338459
0.00248679
0.00182193
0.00132643
0.000959619
0.000766002
0.00128839
0.00092966
0.000692279
0.000739071
0.000802626
0.000861993
0.000932887
0.00103964
0.00121341
0.00149254
0.00192047
0.0025382
0.00337363
0.00443304
0.005698
0.00712472
0.00864155
0.0101456
0.0115037
0.012584
0.0131969
0.0134382
0.0134811
0.0132429
0.0126837
0.0119298
0.0111912
0.0105412
0.00995563
0.00946288
0.00905185
0.00871144
0.0084454
0.00823846
0.00808535
0.00797941
0.0079239
0.00790113
0.00789877
0.00794557
0.00801766
0.00812443
0.00826064
0.00842976
0.00863261
0.00887259
0.00915376
0.00948139
0.0098623
0.0103045
0.0108174
0.0114106
0.0120952
0.0128805
0.0137735
0.014777
0.0158869
0.0170908
0.0183615
0.0196593
0.0209261
0.0220702
0.0229562
0.0233717
0.0234443
0.0229589
0.021869
0.0199616
0.0175314
0.0147746
0.0119247
0.009224
0.00686963
0.00497161
0.00354291
0.00252075
0.00180453
0.00130475
0.000957373
0.00081342
0.00137372
0.00137226
0.00097947
0.00100947
0.00108625
0.00117762
0.00129878
0.0014826
0.0017714
0.00221361
0.00285619
0.00373198
0.00484677
0.00617155
0.00764104
0.00915589
0.010588
0.0117933
0.0125731
0.0129038
0.0129767
0.0127619
0.0121706
0.0113463
0.0105336
0.00978557
0.00912817
0.00856816
0.00809041
0.00769534
0.0073674
0.00709958
0.00688365
0.00671002
0.00657385
0.00646907
0.00639224
0.00633816
0.00631154
0.00630265
0.00630709
0.00633786
0.00638515
0.00645493
0.00654607
0.00666269
0.00680757
0.00698514
0.0072016
0.00746431
0.00778268
0.00816803
0.00863436
0.00919981
0.00988457
0.010709
0.0116924
0.01285
0.0141825
0.0156655
0.0172649
0.0189207
0.0205347
0.0219644
0.022889
0.0232416
0.0231574
0.0221348
0.0200986
0.017394
0.0142832
0.0111006
0.00817599
0.00575007
0.00392016
0.00264949
0.00181433
0.00126766
0.000930838
0.000807033
0.00133463
0.00196267
0.00133158
0.00134309
0.00144531
0.00158448
0.00177648
0.00206368
0.00249763
0.00312995
0.00399872
0.00511266
0.00643909
0.00789997
0.00937634
0.0107209
0.0117807
0.0123229
0.0124992
0.0124468
0.0119591
0.0111293
0.0102396
0.00940703
0.00866311
0.00802067
0.00747521
0.00701536
0.00662809
0.00630479
0.00603354
0.00580745
0.00561858
0.00546123
0.00533117
0.00522451
0.0051386
0.00507051
0.00501936
0.00498272
0.00496452
0.00495811
0.00496248
0.00498789
0.00502719
0.00508571
0.00516405
0.00526537
0.00539311
0.00555217
0.00574838
0.00598937
0.00628494
0.00664815
0.00709629
0.0076532
0.00835155
0.00922999
0.0103354
0.011689
0.0133033
0.0151627
0.017187
0.0192893
0.0212816
0.0228629
0.0236177
0.0238169
0.0228882
0.0206491
0.0175462
0.0139618
0.0103684
0.00720106
0.00473049
0.00300846
0.00192037
0.001273
0.000898627
0.00078059
0.00125155
0.00272058
0.00175194
0.00174778
0.0018913
0.00209277
0.00237407
0.00278474
0.00337968
0.00420279
0.00526893
0.00654868
0.00796152
0.00938025
0.0106479
0.0115667
0.0119874
0.0120989
0.0118677
0.0111781
0.0102512
0.00934624
0.00850219
0.00776828
0.00713862
0.00660681
0.00615817
0.00577968
0.00546025
0.00519101
0.0049637
0.00477256
0.00461205
0.00447831
0.00436792
0.0042779
0.0042061
0.0041507
0.00411031
0.00408489
0.00407323
0.00406998
0.00407944
0.00410398
0.00414014
0.00419106
0.00425701
0.00434009
0.00444251
0.00456666
0.00471586
0.00489422
0.00510693
0.00536048
0.00566358
0.00602774
0.00647114
0.0070205
0.00771824
0.00864038
0.00987135
0.011482
0.0134667
0.0158086
0.0183665
0.020955
0.0232114
0.024438
0.0248722
0.024015
0.0214555
0.0178153
0.0136501
0.00961059
0.00623728
0.00379138
0.00223633
0.00135428
0.000901775
0.000749849
0.00117979
0.0036568
0.0022464
0.00223355
0.00242755
0.0027046
0.0030877
0.00362943
0.00437947
0.00536189
0.00655644
0.00788851
0.00923174
0.0104252
0.0112438
0.011595
0.0116727
0.0113054
0.010503
0.00955864
0.00862225
0.00778413
0.00705223
0.00643455
0.00591246
0.005474
0.00510452
0.00479362
0.00453253
0.00431425
0.00413279
0.00398343
0.00386184
0.00376457
0.00368837
0.00363057
0.00358876
0.0035614
0.00354818
0.00354378
0.00354739
0.00356365
0.00358889
0.00362468
0.00367024
0.00372706
0.00379552
0.00387701
0.00397293
0.00408502
0.00421541
0.00436663
0.00454183
0.00474503
0.00498153
0.00525856
0.00558324
0.00596876
0.00643446
0.00701239
0.00775609
0.008759
0.0102098
0.0122113
0.0147566
0.0177501
0.0209422
0.0238871
0.0255986
0.0262302
0.0253511
0.0223155
0.0179883
0.0131681
0.0087168
0.00524298
0.0029283
0.00160211
0.000957875
0.000747945
0.00115441
0.00479358
0.0028269
0.00280328
0.00305351
0.00341292
0.00389995
0.00456348
0.00543835
0.00651899
0.00774442
0.00899789
0.0101227
0.0108858
0.0112019
0.0112505
0.0108049
0.0099611
0.00900517
0.00805977
0.00721222
0.00648658
0.00587239
0.00535966
0.0049296
0.00457074
0.00427138
0.00402356
0.00382013
0.00365515
0.00352332
0.00341996
0.00334077
0.00328202
0.00324031
0.003213
0.00319952
0.00319459
0.00319523
0.00320683
0.00322463
0.00325076
0.00328391
0.0033253
0.00337518
0.00343475
0.00350494
0.00358717
0.00368293
0.00379381
0.00392158
0.004068
0.00423499
0.00442453
0.00463887
0.00488075
0.00515414
0.00546534
0.00582494
0.00624998
0.00676139
0.00740397
0.00826151
0.00948029
0.0113616
0.0140395
0.0174146
0.0212198
0.0248899
0.0270204
0.0277749
0.0267092
0.0229919
0.0178256
0.012346
0.00761421
0.00421004
0.00215047
0.00113235
0.000781546
0.00119007
0.00617552
0.00350886
0.00345414
0.00375984
0.00420036
0.00478106
0.00553945
0.00648765
0.00758567
0.00873449
0.00978878
0.0105208
0.0108221
0.0108557
0.0103971
0.00954944
0.00858118
0.00762896
0.00677221
0.00604202
0.00543086
0.00492177
0.00450022
0.00415107
0.00386457
0.00363131
0.00344425
0.00329656
0.00318227
0.00309579
0.00303212
0.00298683
0.00295609
0.00293742
0.00292856
0.00292561
0.00292672
0.00293514
0.00294881
0.0029676
0.00299241
0.00302348
0.00306201
0.00310894
0.00316565
0.00323351
0.00331412
0.0034092
0.00352052
0.00364995
0.00379932
0.00397039
0.00416471
0.00438355
0.00462778
0.00489802
0.00519509
0.00552113
0.00588176
0.00629016
0.00677174
0.00735933
0.00812668
0.00921896
0.0109184
0.013653
0.0173785
0.0218142
0.0262191
0.0286139
0.029379
0.0278679
0.0231941
0.0170811
0.0110625
0.00628481
0.00316625
0.00152356
0.000899174
0.00133585
0.00772579
0.00426794
0.0041721
0.00452899
0.00504102
0.0056928
0.00650417
0.00746032
0.00848844
0.00946209
0.010171
0.0104686
0.0105045
0.0100676
0.0092502
0.00827915
0.00731511
0.00644574
0.00570452
0.00508904
0.00458117
0.00416393
0.00382347
0.00354774
0.00332781
0.00315501
0.00302199
0.00292161
0.00284749
0.00279391
0.00275594
0.00272952
0.00271151
0.00269969
0.00269236
0.00268877
0.0026876
0.00269029
0.00269717
0.00270835
0.00272526
0.00274853
0.00277959
0.00281963
0.00287018
0.00293278
0.00300918
0.00310123
0.00321096
0.00334048
0.00349201
0.0036677
0.00386955
0.00409915
0.00435744
0.00464441
0.00495898
0.00529914
0.00566288
0.00605047
0.00646914
0.0069412
0.00750539
0.00822283
0.00923662
0.0108406
0.0135972
0.0176968
0.0228031
0.0278419
0.0302842
0.0309179
0.0285188
0.0225929
0.015572
0.0092795
0.00479048
0.00224421
0.00117492
0.00169031
0.00940109
0.00508748
0.00493912
0.00533747
0.00590328
0.00659336
0.00740583
0.00829888
0.00917366
0.00985341
0.0101555
0.0102078
0.00981701
0.00904764
0.00808882
0.00711065
0.00622123
0.00546196
0.00483441
0.00432182
0.00390509
0.00356904
0.00330118
0.00309079
0.0029287
0.00280603
0.00271489
0.00264796
0.00259899
0.00256274
0.00253507
0.00251297
0.00249443
0.00247826
0.00246386
0.00245129
0.00244086
0.00243436
0.0024317
0.00243178
0.00243934
0.00245364
0.00247651
0.00250887
0.0025523
0.0026083
0.00267861
0.00276516
0.00287009
0.00299579
0.00314487
0.0033201
0.00352426
0.00375995
0.0040292
0.00433306
0.00467107
0.00504074
0.00543742
0.00585496
0.00628797
0.00673716
0.0072199
0.00778229
0.0084787
0.00945837
0.0110504
0.0138816
0.0184196
0.0243044
0.0296841
0.0319734
0.0322636
0.0282488
0.0209403
0.0132188
0.00711455
0.00336239
0.00166544
0.00226806
0.0111476
0.00594685
0.00573309
0.00615793
0.00675322
0.00744239
0.00820043
0.00896253
0.00960259
0.00991115
0.0099744
0.00964599
0.00893361
0.00800015
0.0070106
0.00609325
0.00530651
0.0046581
0.00413303
0.00371094
0.00337439
0.00310959
0.00290456
0.00274862
0.002632
0.00254563
0.00248158
0.00243308
0.00239474
0.0023625
0.00233356
0.00230624
0.00227976
0.00225395
0.00222916
0.00220608
0.00218558
0.00216869
0.00215643
0.00215059
0.00214915
0.00215553
0.00217166
0.00219725
0.00223397
0.0022831
0.00234629
0.00242539
0.00252258
0.00264039
0.00278174
0.0029499
0.00314845
0.00338112
0.00365145
0.00396235
0.00431542
0.00471008
0.00514271
0.00560606
0.00608963
0.00658195
0.00707638
0.00758496
0.00815914
0.00885462
0.0098366
0.011483
0.0145033
0.0195682
0.026338
0.031828
0.0337649
0.0330075
0.0267606
0.0180527
0.0101968
0.00492316
0.00237425
0.00301998
0.0129067
0.00682254
0.00652965
0.00696199
0.00755863
0.00820651
0.00885964
0.00943786
0.00974695
0.00981051
0.00955469
0.0089034
0.00800582
0.00701114
0.00606055
0.0052352
0.00455508
0.0040081
0.00357299
0.00322984
0.00296271
0.00275814
0.00260405
0.00248939
0.00240423
0.00233987
0.00228919
0.00224665
0.0022083
0.00217161
0.00213522
0.0020987
0.00206224
0.00202646
0.00199219
0.00196042
0.00193213
0.00190825
0.00188964
0.00187837
0.00187375
0.00187355
0.00188485
0.00190522
0.00193616
0.00197881
0.00203459
0.00210522
0.00219279
0.0022998
0.0024293
0.00258485
0.00277058
0.00299113
0.00325142
0.00355632
0.00390999
0.00431495
0.00477082
0.00527292
0.00581115
0.00637005
0.00693121
0.00748027
0.00802453
0.00862165
0.00933147
0.0103571
0.0121388
0.0155356
0.0212541
0.0289234
0.0339818
0.0353111
0.0323576
0.0236429
0.0141028
0.00698256
0.00331857
0.0038953
0.0146206
0.00768997
0.00730449
0.00772286
0.00829208
0.00886161
0.0093677
0.00966027
0.00972253
0.00953547
0.00895454
0.00810076
0.00710949
0.00612449
0.00524962
0.00452461
0.00394413
0.00348656
0.00312939
0.00285391
0.0026447
0.00248816
0.00237197
0.00228517
0.00221838
0.00216401
0.00211641
0.00207167
0.00202749
0.00198279
0.00193745
0.00189192
0.00184704
0.00180378
0.00176316
0.00172614
0.00169359
0.00166626
0.00164482
0.00163036
0.00162352
0.00162168
0.00162887
0.00164563
0.00167184
0.00170871
0.0017574
0.00181944
0.00189674
0.00199167
0.00210718
0.00224686
0.00241505
0.00261689
0.00285826
0.00314559
0.00348541
0.0038835
0.00434368
0.00486595
0.00544445
0.00606566
0.006708
0.00734472
0.00795322
0.00853835
0.00916255
0.00990476
0.0110148
0.0130537
0.0171099
0.0237981
0.0320733
0.0359322
0.0362657
0.0296212
0.0188941
0.00964121
0.00452801
0.0048437
0.01626
0.0085273
0.00803475
0.00841716
0.00893203
0.00939174
0.0096714
0.00974108
0.00958287
0.00908105
0.0082819
0.00730347
0.00628766
0.00535513
0.00457047
0.00394222
0.00345057
0.00307039
0.00277963
0.0025603
0.00239702
0.00227606
0.00218534
0.00211464
0.00205588
0.0020031
0.00195241
0.00190161
0.00184985
0.00179721
0.00174439
0.00169237
0.00164221
0.00159495
0.0015515
0.00151264
0.00147898
0.00145102
0.00142916
0.00141393
0.00140649
0.00140413
0.00140892
0.00142306
0.00144549
0.00147737
0.00151964
0.00157364
0.00164105
0.00172401
0.00182523
0.00194811
0.00209689
0.00227679
0.00249407
0.00275609
0.00307103
0.00344746
0.00389321
0.00441368
0.00500936
0.00567279
0.00638584
0.0071188
0.00783423
0.00850068
0.00912689
0.00977646
0.0105657
0.0118307
0.0143097
0.0193324
0.0274421
0.03528
0.0378665
0.0352541
0.0245176
0.0130213
0.00603781
0.00582207
0.0177933
0.00931627
0.0087019
0.0090269
0.00946552
0.0097577
0.00984398
0.00969779
0.00928209
0.00854367
0.0075914
0.00655256
0.0055593
0.00470099
0.00400788
0.00346764
0.00305328
0.00273896
0.00250334
0.00232871
0.00219971
0.00210295
0.00202722
0.0019637
0.00190604
0.00185014
0.00179381
0.00173631
0.00167791
0.00161942
0.00156195
0.00150663
0.0014545
0.00140641
0.00136304
0.00132488
0.0012923
0.00126552
0.00124473
0.00123016
0.00122296
0.00122057
0.00122412
0.00123622
0.00125561
0.00128323
0.00131991
0.00136676
0.00142524
0.00149722
0.0015851
0.00169197
0.00182175
0.00197936
0.00217101
0.00240426
0.00268816
0.00303301
0.00344979
0.00394878
0.00453729
0.0052162
0.00597568
0.00679103
0.00762105
0.00841335
0.00912511
0.00976983
0.0104496
0.0113281
0.0128619
0.0160862
0.0223991
0.0321701
0.0381337
0.0389686
0.0306629
0.0172509
0.00787583
0.00684321
0.0191709
0.0100401
0.00929103
0.00954002
0.00986505
0.00999309
0.00989949
0.00955113
0.00888096
0.0079685
0.00692072
0.00586996
0.00492788
0.00415155
0.00354455
0.00308188
0.00273362
0.00247423
0.0022829
0.00214218
0.00203709
0.00195515
0.00188659
0.0018244
0.00176409
0.00170332
0.00164133
0.00157847
0.00151566
0.00145409
0.00139492
0.0013392
0.00128772
0.00124109
0.00119971
0.00116379
0.00113346
0.00110876
0.00108971
0.00107635
0.00106973
0.0010675
0.00107035
0.00108079
0.00109763
0.00112164
0.00115351
0.00119418
0.00124491
0.00130729
0.00138342
0.001476
0.00158851
0.00172544
0.00189252
0.00209706
0.00234816
0.00265686
0.00303598
0.00349939
0.00406025
0.00472791
0.00550324
0.00637266
0.00730243
0.00823643
0.00910454
0.00985406
0.0104894
0.011196
0.0122275
0.0142356
0.0187457
0.0270256
0.0369146
0.0404782
0.036674
0.0224108
0.0101056
0.00789143
0.0203516
0.0106842
0.00979138
0.00994746
0.0101325
0.0101364
0.00985338
0.00928235
0.00842757
0.00738954
0.00629327
0.00526418
0.00438812
0.00369315
0.00316383
0.00276819
0.00247551
0.00226083
0.00210384
0.00198754
0.00189786
0.00182377
0.00175727
0.00169324
0.00162897
0.00156356
0.00149732
0.00143124
0.00136654
0.00130446
0.001246
0.00119197
0.00114288
0.00109905
0.00106062
0.0010276
0.000999942
0.000977554
0.000960354
0.000948271
0.000942249
0.000940194
0.000942508
0.000951509
0.000966173
0.000987087
0.00101485
0.00105026
0.00109439
0.00114862
0.00121472
0.00129503
0.00139257
0.0015113
0.00165635
0.00183441
0.00205412
0.00232639
0.0026647
0.00308494
0.00360442
0.0042396
0.00500177
0.0058905
0.0068854
0.00793843
0.00897172
0.00989149
0.0106718
0.0112656
0.0120406
0.0133371
0.0162032
0.022558
0.0334713
0.0407348
0.0413152
0.0284729
0.0128578
0.00904201
0.021308
0.0112371
0.0101934
0.0102361
0.0103096
0.0101609
0.0097209
0.00895141
0.00795062
0.00683012
0.00572138
0.00473515
0.00393055
0.00331182
0.00285086
0.00251225
0.00226548
0.00208627
0.00195489
0.00185525
0.00177462
0.00170369
0.00163639
0.00156938
0.0015014
0.00143265
0.00136409
0.00129698
0.00123259
0.00117195
0.00111585
0.00106477
0.00101895
0.000978483
0.000943291
0.00091325
0.000888195
0.000867968
0.000852428
0.000841464
0.000835891
0.000833953
0.000835744
0.000843448
0.000856195
0.000874438
0.000898696
0.000929663
0.000968244
0.00101561
0.0010733
0.0011433
0.00122821
0.00133143
0.00145748
0.0016123
0.00180373
0.00204202
0.00234037
0.00271529
0.00318642
0.0037753
0.0045021
0.00537963
0.00640423
0.00754443
0.00873114
0.00985834
0.0108103
0.0115319
0.0120751
0.0130102
0.0148503
0.0193371
0.0284567
0.0398764
0.0435844
0.035215
0.0163833
0.0105108
0.022028
0.0116998
0.0104929
0.0104235
0.0103947
0.0101137
0.00949918
0.00858142
0.00747232
0.00630497
0.00520959
0.004278
0.00354441
0.00299471
0.00259286
0.00230211
0.00209259
0.00194077
0.00182781
0.00173887
0.00166289
0.0015924
0.00152314
0.00145327
0.00138268
0.00131223
0.00124321
0.0011769
0.0011144
0.00105648
0.00100363
0.000956065
0.000913797
0.000876715
0.000844628
0.000817318
0.000794567
0.000776182
0.000762003
0.000751919
0.000746615
0.000744711
0.000745942
0.000752456
0.000763502
0.000779432
0.000800698
0.0008279
0.000861819
0.000903464
0.000954143
0.00101556
0.00108993
0.00118019
0.00129022
0.00142522
0.00159213
0.00180023
0.00206186
0.0023931
0.00281429
0.00334979
0.00402606
0.00486705
0.00588552
0.00707012
0.00837019
0.00968379
0.0108638
0.0118236
0.0124211
0.0129623
0.0142314
0.0171478
0.0242079
0.0369597
0.0443668
0.0417803
0.0208909
0.0124595
0.0225185
0.0120745
0.0106988
0.0105202
0.0103838
0.0099898
0.00922832
0.00819222
0.00700826
0.00582218
0.00475747
0.00388557
0.00321911
0.00273053
0.00237915
0.00212806
0.00194822
0.00181705
0.00171687
0.00163438
0.00156028
0.00148894
0.00141763
0.00134573
0.00127387
0.00120329
0.00113532
0.00107111
0.00101148
0.000956928
0.00090767
0.000863693
0.000824845
0.00079089
0.000761565
0.000736606
0.000715777
0.000698882
0.000685763
0.00067632
0.000671128
0.000669182
0.000669835
0.000675249
0.000684782
0.000698702
0.000717405
0.000741416
0.000771412
0.000808266
0.000853104
0.000907386
0.00097302
0.00105251
0.00114921
0.00126759
0.00141371
0.0015958
0.00182502
0.00211641
0.00248983
0.00297059
0.00358894
0.00437724
0.00536287
0.00655568
0.00792996
0.00940462
0.0108334
0.0120272
0.0128255
0.0132915
0.0140515
0.0159868
0.021192
0.0323208
0.0444202
0.0467125
0.0266633
0.0148448
0.0227896
0.0123611
0.0108168
0.0105264
0.0103173
0.0097949
0.00892395
0.00779931
0.00656881
0.00538515
0.00436164
0.00354998
0.00294501
0.00250974
0.00220101
0.00198238
0.00182583
0.00170988
0.00161829
0.00153939
0.00146568
0.00139313
0.0013203
0.00124741
0.00117557
0.0011061
0.00104025
0.000978899
0.000922616
0.000871628
0.000825922
0.000785324
0.000749566
0.000718349
0.000691372
0.000668364
0.00064909
0.000633366
0.000621048
0.000612049
0.000606839
0.000604791
0.000604901
0.000609297
0.000617485
0.000629656
0.000646157
0.000667449
0.000694128
0.000726956
0.000766911
0.000815256
0.000873633
0.000944203
0.00102983
0.00113438
0.0012631
0.00142317
0.00162451
0.00188077
0.00221057
0.00263876
0.00319707
0.00392308
0.0048554
0.00602281
0.00742566
0.00901078
0.0106466
0.012119
0.01322
0.0137515
0.0141682
0.0154609
0.0189527
0.0280087
0.0429451
0.0491434
0.0340344
0.0175942
0.0228073
0.0125602
0.0108621
0.0104857
0.0101754
0.00955671
0.00860044
0.00741402
0.00616018
0.00499407
0.00401726
0.00326355
0.00271374
0.00232443
0.00205141
0.00185909
0.00172056
0.00161566
0.00152966
0.0014526
0.00137863
0.00130508
0.00123148
0.00115863
0.00108782
0.00102035
0.000957233
0.000899113
0.000846281
0.000798748
0.000756336
0.00071876
0.00068569
0.000656794
0.000631767
0.000610345
0.000592311
0.000577496
0.00056578
0.000557086
0.000551743
0.000549479
0.000549231
0.000552666
0.000559658
0.000570305
0.000584906
0.00060387
0.000627727
0.000657149
0.000692994
0.000736367
0.000788695
0.000851844
0.000928291
0.00102136
0.00113559
0.00127722
0.00145494
0.00168093
0.0019722
0.00235223
0.00285256
0.00351332
0.004381
0.00550027
0.00689702
0.00855133
0.0103643
0.012133
0.0135769
0.0143085
0.0146581
0.0153241
0.0176895
0.0246583
0.0395852
0.0500042
0.0421596
0.0205797
0.022699
0.0126904
0.0108489
0.0103823
0.00998123
0.00928763
0.00826916
0.00704426
0.00578547
0.00464716
0.00371893
0.00301924
0.00251815
0.00216813
0.00192481
0.00175362
0.00162891
0.00153191
0.0014495
0.00137332
0.00129896
0.00122487
0.00115127
0.00107929
0.00101025
0.0009453
0.000885208
0.000830369
0.000780853
0.000736503
0.000697028
0.000662076
0.000631288
0.000604328
0.000580901
0.000560762
0.000543714
0.000529608
0.000518344
0.000509853
0.000504318
0.000501789
0.000501278
0.00050386
0.000509794
0.00051911
0.000532065
0.000549025
0.000570464
0.000596981
0.000629342
0.000668519
0.000715767
0.000772715
0.000841514
0.000925045
0.00102723
0.00115347
0.00131137
0.00151164
0.00176955
0.00210671
0.00255325
0.00314968
0.00394686
0.00500109
0.00636007
0.00803635
0.00996941
0.0119862
0.013786
0.0148336
0.0152528
0.0155642
0.0170922
0.0221988
0.0355268
0.0500101
0.0496454
0.023305
0.0224484
0.0127759
0.0107977
0.0102225
0.00974974
0.00899869
0.00793887
0.0066952
0.00544562
0.0043415
0.00346131
0.00281086
0.00235231
0.00203564
0.00181686
0.00166255
0.00154837
0.00145701
0.00137689
0.00130114
0.00122656
0.00115245
0.00107951
0.00100901
0.000942188
0.000879993
0.000822961
0.000771264
0.000724798
0.000683286
0.000646365
0.000613652
0.00058478
0.000559424
0.000537308
0.000518209
0.000501952
0.000488409
0.000477491
0.000469146
0.000463416
0.000460624
0.000459868
0.000461715
0.000466718
0.00047487
0.000486392
0.000501615
0.000520965
0.000544985
0.000574363
0.000609969
0.000652917
0.000704645
0.000767038
0.000842609
0.000934762
0.0010482
0.00118952
0.00136812
0.00159755
0.00189735
0.00229559
0.00283161
0.00355795
0.00453877
0.00583975
0.00750411
0.00951191
0.0117291
0.0138671
0.0153777
0.0159412
0.0161244
0.0169022
0.0203782
0.0312431
0.0494625
0.054821
0.0251799
0.0220631
0.012811
0.0106937
0.0100268
0.00949193
0.00869913
0.00761609
0.0063699
0.00514007
0.00407368
0.00323937
0.00263307
0.00221133
0.0019228
0.00172419
0.00158331
0.00147714
0.00138983
0.00131122
0.00123577
0.00116125
0.00108761
0.00101582
0.000947182
0.000882794
0.000823388
0.000769287
0.000720484
0.000676744
0.00063771
0.00060298
0.00057216
0.00054489
0.000520865
0.00049983
0.000481585
0.000465974
0.000452885
0.00044224
0.000433998
0.000428146
0.000425073
0.000424086
0.000425305
0.000429491
0.000436623
0.000446893
0.0004606
0.000478133
0.000499989
0.000526791
0.000559328
0.000598602
0.000645898
0.000702887
0.000771779
0.000855552
0.000958304
0.00108579
0.00124622
0.00145153
0.00171921
0.0020749
0.00255574
0.00321379
0.0041173
0.00534514
0.00696718
0.00900467
0.0113743
0.0138399
0.0158334
0.016657
0.0168349
0.017068
0.0194555
0.0279766
0.047119
0.0573426
0.0259402
0.0215544
0.012805
0.0105581
0.00980499
0.00921719
0.00839639
0.00730548
0.00606983
0.00486737
0.0038401
0.00304858
0.00248134
0.0020912
0.00182629
0.00164421
0.00151399
0.00141394
0.00132956
0.00125204
0.00117692
0.00110278
0.00102998
0.000959676
0.000893094
0.000831177
0.000774453
0.000723062
0.000676855
0.000635508
0.000598612
0.000565748
0.000536525
0.000510599
0.000487686
0.000467553
0.00045002
0.000434949
0.000422239
0.000411822
0.00040366
0.000397738
0.000394392
0.000393188
0.000393878
0.000397351
0.000403588
0.00041276
0.000425138
0.00044108
0.000461042
0.0004856
0.000515476
0.000551582
0.000595081
0.000647471
0.00071072
0.000787454
0.00088127
0.000997195
0.00114242
0.00132743
0.00156774
0.00188651
0.00231815
0.00291276
0.00373987
0.0048872
0.0064465
0.00847622
0.0109376
0.0136206
0.0161236
0.0173929
0.0176651
0.017657
0.0190395
0.0258216
0.0437885
0.0581999
0.0260695
0.0209426
0.0127799
0.0104024
0.00956632
0.00893351
0.00809632
0.00701018
0.00579533
0.00462545
0.00363725
0.00288495
0.00235189
0.00198866
0.00174347
0.00157489
0.00145314
0.00135779
0.00127562
0.00119896
0.00112428
0.00105077
0.000979098
0.00091046
0.000845991
0.000786464
0.000732231
0.000683283
0.000639367
0.000600095
0.000565032
0.000533754
0.000505882
0.000481091
0.000459116
0.000439748
0.000422822
0.000408213
0.000395832
0.000385616
0.000377529
0.000371559
0.000367965
0.000366558
0.000366815
0.000369667
0.000375119
0.000383324
0.00039453
0.000409069
0.000427365
0.000449951
0.000477498
0.000510846
0.000551061
0.000599505
0.000657948
0.000728733
0.00081504
0.00092129
0.00105379
0.00122175
0.00143889
0.00172594
0.00211432
0.00265122
0.00340512
0.00446867
0.0059509
0.00794655
0.0104719
0.0133722
0.0162389
0.0180716
0.0185556
0.0183874
0.0189242
0.0239663
0.0405187
0.0581801
0.0257696
0.0202594
0.0127286
0.0102338
0.00931864
0.0086475
0.0078034
0.00673211
0.00554589
0.00441209
0.00346191
0.00274498
0.00224155
0.00190108
0.00167224
0.00151465
0.00139964
0.00130796
0.0012275
0.00115162
0.00107752
0.00100484
0.000934447
0.00086754
0.000805132
0.000747841
0.000695866
0.000649084
0.000607166
0.000569682
0.000536185
0.000506258
0.000479534
0.000455709
0.000434538
0.000415827
0.000399428
0.000385226
0.000373138
0.000363107
0.000355098
0.000349098
0.000345284
0.000343671
0.000343598
0.000345906
0.000350667
0.000358018
0.000368188
0.000381485
0.000398305
0.000419148
0.00044464
0.000475567
0.000512917
0.000557943
0.000612257
0.000677977
0.000757941
0.000856066
0.000977909
0.00113157
0.00132917
0.00158917
0.00193999
0.00242538
0.00311118
0.00409144
0.00548676
0.00742114
0.00996191
0.0130224
0.0162619
0.0186926
0.0195007
0.0193046
0.0192173
0.0227552
0.0373396
0.0565271
0.0251927
0.0195246
0.0126637
0.0100588
0.00906839
0.00836448
0.00752095
0.00647233
0.00532063
0.00422474
0.003311
0.00262577
0.00214771
0.00182629
0.00161094
0.00146225
0.00135262
0.00126383
0.00118478
0.00110964
0.00103623
0.000964522
0.00089549
0.000830294
0.00076983
0.000714577
0.000664613
0.000619727
0.000579536
0.000543588
0.000511431
0.000482657
0.000456917
0.000433923
0.000413448
0.000395311
0.000379376
0.000365537
0.000353717
0.00034386
0.000335933
0.000329921
0.000325912
0.000324062
0.000323772
0.000325608
0.000329762
0.00033636
0.000345611
0.000357804
0.000373311
0.000392603
0.000416271
0.000445056
0.000479884
0.000521923
0.000572663
0.000634037
0.000708609
0.000799881
0.000912779
0.00105446
0.00123562
0.00147266
0.00179113
0.00223111
0.00285484
0.00375527
0.00506021
0.00691785
0.00944253
0.0126102
0.0161394
0.0191997
0.0204189
0.0203386
0.0198482
0.0220348
0.0345055
0.0543915
0.0244332
0.0187545
0.0125998
0.00988536
0.00882142
0.00808877
0.0072514
0.00623124
0.00511812
0.00406109
0.00318187
0.00252477
0.00206821
0.00176256
0.0015582
0.00141669
0.00131136
0.00122489
0.00114703
0.00107266
0.00100003
0.000929371
0.000861706
0.000798141
0.000739463
0.000686033
0.000637835
0.000594594
0.000555889
0.000521256
0.000490247
0.000462463
0.000437571
0.000415299
0.000395432
0.000377803
0.000362282
0.000348772
0.000337197
0.000327504
0.00031966
0.000313649
0.000309484
0.000307416
0.00030694
0.000308375
0.000311998
0.00031793
0.000326365
0.000337574
0.000351909
0.000369815
0.000391857
0.000418734
0.000451327
0.000490735
0.000538353
0.000595969
0.000665928
0.000751391
0.000856762
0.000988388
0.00115574
0.00137336
0.00166414
0.00206451
0.00263243
0.00345783
0.00467157