/*--------------------------------*- C++ -*----------------------------------*\
  =========                 |
  \\      /  F ield         | OpenFOAM: The Open Source CFD Toolbox
   \\    /   O peration     | Website:  https://openfoam.org
    \\  /    A nd           | Version:  13
     \\/     M anipulation  |
\*---------------------------------------------------------------------------*/
FoamFile
{
    format      ascii;
    class       volScalarField;
    location    "3.9";
    object      k;
}
// * * * * * * * * * * * * * * * * * * * * * * * * * * * * * * * * * * * * * //

dimensions      [0 2 -2 0 0 0 0];

internalField   nonuniform List<scalar> 
6400
(
3.99013e-07
2.03672e-06
4.84364e-06
7.80106e-06
1.01481e-05
1.16343e-05
1.24046e-05
1.28055e-05
1.32256e-05
1.40376e-05
1.5542e-05
1.80084e-05
2.16605e-05
2.6546e-05
3.25083e-05
3.93102e-05
4.66986e-05
5.45683e-05
6.25619e-05
7.04694e-05
7.83601e-05
8.67696e-05
9.64206e-05
0.000107981
0.00012148
0.00013599
0.000150376
0.000164829
0.000179524
0.000194825
0.000210804
0.000226982
0.000242837
0.000258356
0.000273634
0.000289048
0.000304735
0.000321007
0.000337999
0.000355927
0.000374863
0.000394962
0.000416381
0.000439253
0.000463723
0.000490018
0.000518898
0.000552056
0.000593047
0.000636075
0.000679512
0.000722519
0.000764282
0.000803581
0.000839092
0.000869403
0.000892765
0.000904392
0.000908975
0.000904997
0.000884744
0.000850134
0.000801382
0.000739301
0.000666705
0.000585394
0.000500279
0.000415242
0.000333991
0.000258628
0.000195383
0.00014349
0.000101145
6.82497e-05
4.41975e-05
2.74989e-05
1.64357e-05
9.25764e-06
4.28141e-06
9.06223e-07
1.94359e-06
1.63934e-05
3.92584e-05
6.18148e-05
7.93677e-05
9.08822e-05
9.76553e-05
0.000101933
0.000106214
0.000112882
0.000124446
0.000143029
0.000169665
0.000204142
0.000245335
0.000291678
0.000341653
0.000393619
0.000446225
0.000498582
0.000551271
0.000607091
0.00067004
0.000743313
0.000826349
0.00091392
0.00100009
0.00108436
0.00116625
0.00124643
0.00132433
0.0013981
0.00146581
0.00152767
0.00158439
0.00163793
0.00168913
0.0017396
0.00179014
0.00184188
0.00189536
0.00195125
0.00201019
0.00207234
0.00213772
0.00220593
0.00227676
0.00234893
0.00242004
0.00249484
0.00257236
0.00265182
0.00273053
0.00280673
0.00287708
0.00293833
0.00298587
0.00300929
0.00301577
0.00300104
0.00295355
0.00287027
0.0027505
0.00259367
0.00240371
0.00218517
0.00194895
0.00170432
0.00145872
0.00122019
0.000990149
0.000776692
0.000588118
0.000428708
0.000300197
0.000200663
0.000127385
7.53925e-05
3.57605e-05
4.75665e-06
4.28323e-06
3.61158e-05
8.36436e-05
0.000125287
0.000155263
0.000174714
0.000187378
0.000197617
0.000209868
0.000228496
0.00025765
0.000300472
0.000358241
0.000430098
0.000513778
0.000606732
0.000706785
0.000811929
0.000920127
0.00102953
0.00113862
0.00124611
0.00135139
0.00145124
0.0015409
0.00161712
0.00167814
0.00172345
0.00175805
0.00178705
0.00181508
0.00184393
0.00187424
0.0019059
0.00193827
0.00197358
0.00201162
0.00205358
0.00209952
0.00215029
0.00220585
0.00226615
0.00233168
0.00240196
0.00247726
0.00255746
0.00264252
0.0027315
0.0028256
0.00292448
0.00302692
0.00313171
0.0032369
0.00334037
0.003439
0.00352917
0.00360635
0.00366498
0.00369372
0.00370048
0.00367666
0.00360997
0.00349972
0.00334307
0.00314176
0.00289773
0.0026243
0.00233325
0.00203275
0.00173435
0.00144788
0.00118128
0.000940693
0.000730045
0.00055091
0.000402821
0.000282798
0.000183811
9.23382e-05
1.24577e-05
7.4486e-06
6.12199e-05
0.00013382
0.000191045
0.000230681
0.000257514
0.000277736
0.000297665
0.000323515
0.000361266
0.000416082
0.0004911
0.000586462
0.000699465
0.000825905
0.000961468
0.00110198
0.00124305
0.00137998
0.00150798
0.00162263
0.00172006
0.00179917
0.00185749
0.00189118
0.00190615
0.00191087
0.00191183
0.00191371
0.0019185
0.00192735
0.00193979
0.00195559
0.0019759
0.00200053
0.00202989
0.00206377
0.00210271
0.00214649
0.0021951
0.00224889
0.00230772
0.00237188
0.00244123
0.00251586
0.00259538
0.00268005
0.00277058
0.00286678
0.00296824
0.00307425
0.00318375
0.00329523
0.00340675
0.00351563
0.00361846
0.00371101
0.00378835
0.00384093
0.00386327
0.00386341
0.0038207
0.00373712
0.00361346
0.00343993
0.0032147
0.00294527
0.00264436
0.00232551
0.00200286
0.0016895
0.0013963
0.00113079
0.000897126
0.000696604
0.000528294
0.000388097
0.000266887
0.000143385
2.01676e-05
1.18904e-05
9.46434e-05
0.000193605
0.000266002
0.000315587
0.000351123
0.000381442
0.000415016
0.000459902
0.000523329
0.000610447
0.000722811
0.000857798
0.0010096
0.0011711
0.00133505
0.00149431
0.00164145
0.00176928
0.00187204
0.0019474
0.00198624
0.00199964
0.00199726
0.00197447
0.00195408
0.0019362
0.00192253
0.00191583
0.0019137
0.0019156
0.00192227
0.00193276
0.00194791
0.00196687
0.00198981
0.00201648
0.00204685
0.00208048
0.00211759
0.00215815
0.00220224
0.00225012
0.00230217
0.00235918
0.00242179
0.00249019
0.00256423
0.00264428
0.00273041
0.00282271
0.00292098
0.00302462
0.00313268
0.00324368
0.00335556
0.00346517
0.00356803
0.00365899
0.00373217
0.00377062
0.00378098
0.00374634
0.00366227
0.00352645
0.00335008
0.00311174
0.00282525
0.00250627
0.00217165
0.0018389
0.00152374
0.00123772
0.000987045
0.000773279
0.000594617
0.00044579
0.000315272
0.000176361
2.51664e-05
1.81608e-05
0.000139076
0.000266494
0.000355015
0.000415939
0.000462214
0.000505552
0.000556734
0.00062539
0.000718953
0.000840909
0.000989495
0.00115805
0.00133685
0.00151525
0.0016829
0.00183028
0.00194844
0.0020304
0.00206871
0.00207831
0.00205704
0.00202313
0.00199092
0.00195811
0.00192978
0.00190544
0.00188664
0.00187301
0.00186243
0.00185648
0.00185424
0.00185416
0.00185887
0.00186575
0.00187535
0.00188723
0.00190133
0.00191755
0.00193623
0.00195748
0.00198156
0.00200878
0.00203938
0.00207357
0.00211185
0.00215465
0.0022026
0.0022565
0.00231717
0.00238546
0.00246231
0.00254833
0.00264384
0.00274864
0.00286185
0.00298217
0.00310679
0.00323177
0.00335159
0.00345799
0.00353851
0.00357494
0.00357881
0.00351974
0.00340126
0.00322473
0.00297456
0.00267016
0.00233012
0.00197711
0.00163402
0.00131962
0.00104536
0.000814777
0.000625342
0.000469935
0.000334707
0.000190257
2.6833e-05
2.68074e-05
0.000196269
0.000354573
0.000460601
0.000534468
0.000593551
0.000652596
0.000724472
0.000819492
0.000943721
0.00109722
0.00127365
0.00146175
0.00164788
0.00181834
0.00196088
0.00206747
0.00212106
0.00213672
0.00211726
0.00207699
0.00203539
0.00198773
0.00194156
0.00189591
0.00185791
0.00182549
0.0017987
0.00177587
0.00175699
0.0017427
0.0017312
0.00172215
0.00171574
0.00171095
0.00170847
0.0017075
0.00170747
0.00170995
0.00171385
0.00171954
0.00172719
0.00173703
0.0017492
0.00176402
0.00178191
0.0018033
0.00182888
0.00185935
0.00189562
0.00193887
0.00199054
0.00205241
0.00212638
0.00221407
0.00231619
0.00243422
0.00256811
0.00271495
0.00287024
0.00302784
0.00318021
0.00331339
0.00340057
0.00343331
0.003411
0.00331855
0.00313692
0.00286838
0.00253478
0.00216259
0.00178302
0.00142575
0.00111229
0.00085209
0.000643372
0.000476939
0.000335233
0.000189382
2.60692e-05
3.83421e-05
0.000267199
0.000458605
0.000583513
0.000671757
0.000745264
0.000821697
0.000915353
0.00103589
0.00118636
0.00136218
0.00155203
0.00174048
0.00191114
0.00204949
0.00213764
0.00217251
0.00217367
0.00213526
0.00208951
0.00202875
0.00196159
0.00189699
0.00183964
0.00179104
0.00174958
0.00171315
0.00168146
0.00165351
0.00162922
0.00160814
0.00158956
0.0015734
0.00155948
0.00154752
0.00153757
0.00152922
0.00152252
0.0015177
0.0015147
0.00151339
0.00151315
0.00151529
0.00151933
0.0015256
0.00153432
0.00154586
0.0015607
0.00157934
0.0016024
0.00163046
0.00166423
0.00170474
0.00175337
0.00181227
0.00188518
0.00197533
0.00208742
0.0022248
0.00238659
0.00256649
0.00276092
0.00295794
0.0031436
0.00328733
0.00335286
0.00335941
0.00328849
0.00309967
0.00280004
0.00242402
0.00200882
0.00159658
0.00122422
0.000914162
0.000670647
0.00048347
0.000331518
0.000184248
2.44459e-05
5.31491e-05
0.000351861
0.000578268
0.000723168
0.0008267
0.000915265
0.00100902
0.00112271
0.00126394
0.00143158
0.00161597
0.00180136
0.00196953
0.00210355
0.00218001
0.00220529
0.00219189
0.00215078
0.00208605
0.00200535
0.00192153
0.001846
0.00178042
0.00172308
0.00167336
0.00162942
0.00159023
0.00155542
0.00152446
0.00149721
0.00147328
0.00145244
0.00143456
0.00141943
0.00140681
0.00139655
0.00138846
0.00138241
0.00137826
0.00137621
0.00137547
0.00137592
0.00137873
0.00138306
0.00138943
0.00139791
0.00140867
0.00142196
0.00143803
0.00145716
0.0014797
0.00150605
0.00153665
0.00157209
0.00161311
0.00166081
0.00171727
0.00178557
0.00187149
0.0019858
0.00214083
0.00233398
0.00255388
0.00279142
0.00302578
0.0032303
0.00333176
0.00335422
0.00329954
0.00309458
0.0027514
0.00232179
0.00185711
0.00141186
0.0010288
0.000727288
0.000502271
0.000331164
0.000176029
2.30435e-05
7.14398e-05
0.000449195
0.000712117
0.000877744
0.000996684
0.00109954
0.00120834
0.00133728
0.00149085
0.00166327
0.00184033
0.00200323
0.00213317
0.00220256
0.0022223
0.00220168
0.00215468
0.0020741
0.00197613
0.00188188
0.00179725
0.00172327
0.00165883
0.00160213
0.00155211
0.00150761
0.0014682
0.00143365
0.00140366
0.0013781
0.00135664
0.00133903
0.00132497
0.00131409
0.00130603
0.00130039
0.00129714
0.00129571
0.00129539
0.00129677
0.00129946
0.00130346
0.0013089
0.00131564
0.0013239
0.00133375
0.00134534
0.00135889
0.00137462
0.00139279
0.0014136
0.00143723
0.00146391
0.00149385
0.00152724
0.00156417
0.00160539
0.00165186
0.00170616
0.00177323
0.00186087
0.00198179
0.00216297
0.00240033
0.00266701
0.00295077
0.00320924
0.00334703
0.00338268
0.00333133
0.00309708
0.00269782
0.00220681
0.00169238
0.00122067
0.000836095
0.000548553
0.000341174
0.000173498
2.25463e-05
9.36488e-05
0.000556522
0.000857808
0.00104437
0.00117778
0.00129254
0.00141192
0.00154874
0.00170395
0.00186744
0.00202173
0.00214713
0.00221366
0.00223139
0.00220977
0.00215402
0.00205974
0.00195045
0.00184702
0.00175365
0.00167207
0.00160102
0.00153877
0.00148399
0.00143592
0.00139401
0.00135807
0.00132788
0.00130311
0.00128339
0.00126823
0.00125708
0.00124936
0.00124468
0.0012425
0.00124181
0.00124247
0.00124474
0.00124785
0.00125206
0.00125714
0.0012632
0.00127028
0.0012785
0.001288
0.00129895
0.00131155
0.00132599
0.00134246
0.00136114
0.00138214
0.00140558
0.00143155
0.0014601
0.00149134
0.00152546
0.00156177
0.0016003
0.00164143
0.00168682
0.00174063
0.00180952
0.0019066
0.00205312
0.00228652
0.00258111
0.00290687
0.00321564
0.00338404
0.00342706
0.00336409
0.00308185
0.0026143
0.00205885
0.00150176
0.00101685
0.000642658
0.000374655
0.000179754
2.32417e-05
0.000120648
0.000670691
0.00101237
0.00121923
0.00136506
0.00148783
0.00161155
0.00174726
0.00189255
0.00203404
0.00215285
0.0022182
0.00223581
0.00221469
0.00215368
0.00204951
0.0019326
0.00181924
0.00171771
0.00162872
0.0015516
0.00148452
0.00142612
0.00137561
0.00133254
0.00129659
0.00126742
0.00124455
0.00122732
0.00121501
0.0012068
0.00120222
0.00120019
0.00119964
0.00120052
0.00120261
0.00120544
0.00120898
0.00121302
0.00121772
0.00122307
0.00122925
0.0012364
0.00124476
0.00125452
0.00126594
0.00127924
0.00129467
0.00131244
0.00133273
0.00135567
0.00138131
0.00140961
0.00144039
0.00147338
0.00150821
0.00154455
0.00158229
0.00162096
0.00165965
0.00169983
0.00174458
0.00180004
0.00187972
0.00200624
0.00221476
0.0025288
0.00288893
0.00324526
0.00342985
0.00347151
0.00337922
0.00302307
0.00247736
0.00186142
0.0012769
0.000797841
0.000447668
0.000202272
2.60871e-05
0.000150935
0.000791431
0.00117243
0.00139792
0.0015531
0.00167888
0.00179965
0.00192475
0.00204917
0.00215784
0.0022215
0.00223966
0.00221909
0.00215558
0.00204633
0.00192343
0.0018014
0.00169085
0.00159461
0.00151144
0.00143987
0.00137836
0.00132603
0.00128235
0.00124688
0.00121904
0.0011981
0.00118314
0.00117313
0.00116724
0.00116446
0.00116349
0.00116341
0.00116458
0.00116627
0.00116836
0.00117067
0.00117327
0.00117622
0.00117969
0.00118387
0.00118899
0.00119528
0.00120302
0.00121247
0.00122389
0.00123757
0.00125377
0.00127275
0.00129474
0.00131992
0.00134839
0.00138014
0.00141499
0.00145257
0.00149226
0.00153321
0.00157444
0.00161513
0.00165495
0.00169206
0.00172912
0.0017678
0.00181383
0.00188174
0.0019919
0.00218261
0.00250566
0.00290096
0.00328936
0.003475
0.00350389
0.00335721
0.00289562
0.00226777
0.00160391
0.00101677
0.000567757
0.000251244
3.30072e-05
0.000183666
0.000915885
0.00133398
0.00157571
0.00173649
0.00185965
0.00196993
0.00207548
0.00216993
0.00222936
0.00224753
0.00222674
0.00216424
0.0020535
0.00192451
0.00179467
0.00167493
0.00157053
0.00148113
0.00140483
0.00134018
0.00128604
0.00124173
0.00120658
0.00117978
0.00116029
0.0011469
0.00113833
0.00113347
0.00113112
0.00113014
0.00112981
0.00112974
0.00113002
0.00113024
0.00113046
0.00113074
0.00113125
0.0011322
0.00113381
0.00113636
0.00114014
0.00114536
0.00115231
0.00116125
0.00117245
0.0011862
0.00120278
0.00122248
0.0012456
0.00127239
0.00130308
0.00133779
0.00137653
0.00141905
0.00146481
0.0015129
0.00156196
0.00161027
0.00165605
0.00169847
0.00173443
0.00176542
0.00179921
0.00184179
0.00190091
0.00200192
0.00218452
0.00251185
0.0029443
0.00334174
0.00351118
0.00351356
0.00325638
0.00267894
0.00197181
0.0012873
0.000730802
0.000325569
4.42899e-05
0.000217788
0.00104079
0.00149281
0.00174789
0.00191016
0.00202501
0.00211773
0.00219612
0.00224722
0.00226351
0.0022411
0.00218154
0.00207155
0.00193826
0.00180028
0.00167122
0.00155765
0.00146095
0.00137935
0.00131099
0.0012546
0.00120917
0.0011738
0.00114738
0.00112859
0.00111593
0.0011079
0.00110308
0.00110026
0.00109843
0.00109685
0.00109519
0.00109332
0.00109124
0.00108894
0.00108662
0.00108448
0.00108284
0.00108205
0.00108186
0.00108296
0.00108567
0.00109005
0.00109637
0.00110486
0.00111577
0.00112935
0.0011459
0.00116572
0.00118915
0.00121653
0.0012482
0.00128449
0.00132561
0.00137161
0.00142227
0.00147697
0.00153454
0.00159315
0.00165028
0.00170297
0.00175073
0.00178938
0.00181212
0.00183748
0.00187655
0.00193156
0.00202851
0.00221005
0.00254837
0.00301398
0.00339778
0.00353891
0.00346256
0.00305167
0.00235238
0.00159189
0.000927365
0.000419442
5.89748e-05
0.000252155
0.00116294
0.00164496
0.00191019
0.00206984
0.00217098
0.0022401
0.00227998
0.00229131
0.0022666
0.00220922
0.00210163
0.00196576
0.00182022
0.00168096
0.00155718
0.00145164
0.00136347
0.00129047
0.00123094
0.00118359
0.00114719
0.00112035
0.00110146
0.00108875
0.00108049
0.00107511
0.00107131
0.00106811
0.00106486
0.00106122
0.0010571
0.00105257
0.00104778
0.00104294
0.00103833
0.00103421
0.00103087
0.00102874
0.00102784
0.0010278
0.00102995
0.00103388
0.00103987
0.00104807
0.00105871
0.00107201
0.00108822
0.00110767
0.00113069
0.00115768
0.0011891
0.00122539
0.001267
0.0013143
0.00136746
0.00142635
0.0014903
0.00155797
0.00162708
0.00169432
0.00175548
0.00180905
0.00184909
0.0018668
0.0018828
0.00191542
0.0019705
0.00206676
0.00225549
0.00262103
0.00311502
0.00344257
0.0035259
0.00333504
0.00272029
0.0019162
0.00114824
0.000526905
7.60709e-05
0.000285639
0.00127929
0.00178706
0.00205932
0.00221276
0.00229485
0.00233111
0.00233776
0.00231042
0.00224826
0.00214504
0.00200807
0.00185597
0.00170604
0.00157046
0.00145432
0.00135772
0.0012786
0.00121472
0.00116437
0.00112598
0.00109785
0.00107807
0.00106464
0.0010556
0.00104924
0.00104418
0.00103943
0.00103437
0.00102871
0.00102242
0.00101562
0.00100855
0.00100148
0.000994697
0.000988503
0.000983167
0.00097893
0.000976153
0.000974898
0.000974654
0.000976607
0.000980484
0.0009864
0.000994499
0.00100494
0.00101792
0.00103365
0.00105243
0.0010746
0.00110057
0.00113081
0.0011659
0.00120642
0.001253
0.00130617
0.00136629
0.00143334
0.00150668
0.00158478
0.00166491
0.00174292
0.00181327
0.00187274
0.00191174
0.00192561
0.00193394
0.00195927
0.00201492
0.00211471
0.00232197
0.00273213
0.00323368
0.0034649
0.00346197
0.00304947
0.00224917
0.00138817
0.000643456
9.45947e-05
0.00031767
0.00138724
0.00191655
0.00219344
0.00233424
0.00239096
0.00240055
0.00237142
0.00230404
0.0022044
0.00206633
0.00190887
0.00174834
0.00159949
0.0014705
0.00136319
0.0012759
0.00120608
0.00115139
0.00110987
0.00107949
0.00105807
0.00104333
0.00103311
0.00102552
0.00101908
0.00101277
0.00100598
0.000998451
0.000990203
0.000981422
0.000972386
0.000963411
0.000954817
0.000946901
0.000939929
0.00093412
0.000929657
0.000926914
0.000925753
0.000925616
0.000927791
0.000931855
0.000937887
0.000946003
0.000956321
0.000968999
0.000984229
0.00100226
0.00102341
0.00104806
0.0010767
0.00110991
0.00114837
0.00119285
0.00124415
0.00130303
0.00137004
0.00144532
0.00152827
0.00161715
0.00170872
0.00179783
0.00187735
0.00194237
0.00197562
0.00198482
0.00198787
0.00200625
0.00206299
0.00217361
0.00241814
0.00288361
0.00333117
0.00347994
0.00328749
0.00257465
0.00164334
0.000765964
0.000113705
0.000347626
0.00148455
0.00203158
0.00230693
0.00243165
0.00246669
0.00244805
0.00238133
0.0022808
0.00214241
0.00198018
0.00180969
0.00164661
0.00150238
0.00138156
0.00128354
0.00120563
0.00114495
0.00109896
0.00106528
0.0010414
0.0010248
0.00101305
0.00100407
0.000996246
0.000988477
0.000980133
0.000970977
0.000961055
0.000950593
0.000939912
0.00092936
0.000919272
0.000909946
0.000901637
0.000894548
0.000888835
0.000884616
0.000882276
0.00088139
0.000881646
0.000884206
0.000888552
0.000894768
0.000902946
0.000913179
0.000925595
0.000940357
0.000957679
0.000977836
0.00100118
0.00102815
0.00105932
0.00109535
0.00113709
0.00118545
0.00124147
0.00130615
0.00138026
0.00146413
0.00155714
0.00165734
0.00176084
0.00186141
0.00195032
0.00201517
0.00204082
0.00204507
0.00204268
0.00205416
0.00211463
0.00224752
0.00255306
0.003073
0.00336975
0.00338784
0.00287479
0.00190955
0.000890557
0.00013365
0.000374542
0.00157037
0.00212861
0.00239883
0.00250701
0.00252424
0.00247476
0.0023737
0.00223719
0.00207145
0.00189173
0.00171423
0.00155276
0.0014153
0.00130336
0.00121467
0.00114587
0.00109379
0.00105553
0.00102827
0.00100917
0.000995528
0.000985023
0.000975847
0.000966771
0.000957101
0.000946581
0.00093527
0.000923422
0.000911385
0.000899532
0.000888208
0.000877712
0.000868286
0.000860117
0.000853339
0.000848048
0.000844328
0.000842486
0.000841884
0.000842688
0.000845583
0.000850185
0.000856554
0.000864771
0.000874912
0.000887085
0.000901431
0.000918133
0.000937427
0.000959617
0.000985098
0.00101437
0.00104808
0.001087
0.00113212
0.00118456
0.0012456
0.00131648
0.00139826
0.0014914
0.00159523
0.00170734
0.00182286
0.00193402
0.00203019
0.00209162
0.00210703
0.0021045
0.0020945
0.00210219
0.00217305
0.00234552
0.00274775
0.00323158
0.00339859
0.00312339
0.00218164
0.00101719
0.000154125
0.000397609
0.0016431
0.00220699
0.00247012
0.00256205
0.0025623
0.00248183
0.00235189
0.00218356
0.00199605
0.00180458
0.00162469
0.0014676
0.00133805
0.00123518
0.00115554
0.00109528
0.0010509
0.00101911
0.00099672
0.000980729
0.000968505
0.000957984
0.000947745
0.000936972
0.000925349
0.000912919
0.000899947
0.000886801
0.000873869
0.000861507
0.000850014
0.000839621
0.000830497
0.00082276
0.000816482
0.000811709
0.00080859
0.000807158
0.000806807
0.000808063
0.000811183
0.000815939
0.00082237
0.000830552
0.000840557
0.000852482
0.000866451
0.000882622
0.000901201
0.000922448
0.000946701
0.000974396
0.00100609
0.00104252
0.00108459
0.00113342
0.00119039
0.00125703
0.0013349
0.00142533
0.00152892
0.00164483
0.00176992
0.0018978
0.00201814
0.00211647
0.00216632
0.00217432
0.00215743
0.0021388
0.00215267
0.00224474
0.00248817
0.00298749
0.00328327
0.00324689
0.00245261
0.00115582
0.000176597
0.000416294
0.00170187
0.00226641
0.0025212
0.00260141
0.00258233
0.00247544
0.00231563
0.00212343
0.00191961
0.00172113
0.00154219
0.00139122
0.00127007
0.00117608
0.00110495
0.00105242
0.00101461
0.000987909
0.000968918
0.00095465
0.000942709
0.0009314
0.000919716
0.000907227
0.000893923
0.000880056
0.000866003
0.000852168
0.000838917
0.00082655
0.000815292
0.000805298
0.000796668
0.000789459
0.000783702
0.00077941
0.000776763
0.000775626
0.000775447
0.000776962
0.000780166
0.000784938
0.000791313
0.000799367
0.000809171
0.00082082
0.000834428
0.000850138
0.000868128
0.000888625
0.000911915
0.00093837
0.000968473
0.00100285
0.00104233
0.00108795
0.00114104
0.00120322
0.00127635
0.00136232
0.00146277
0.00157837
0.00170797
0.00184745
0.00198874
0.00211912
0.00220862
0.00223999
0.00223975
0.00219884
0.00217498
0.002209
0.0023417
0.00271866
0.00316908
0.00328367
0.00272388
0.00132728
0.000205284
0.00043036
0.00174696
0.00230815
0.00255399
0.00262374
0.00258444
0.00245729
0.00227166
0.00206003
0.00184455
0.00164279
0.00146715
0.00132325
0.00121055
0.001125
0.00106166
0.00101587
0.000983443
0.000960513
0.00094366
0.000930072
0.000917691
0.000905231
0.000892074
0.00087811
0.000863548
0.000848761
0.000834164
0.000820135
0.000806982
0.000794927
0.000784116
0.000774637
0.000766531
0.000759815
0.000754489
0.000750551
0.000748178
0.000747192
0.00074709
0.000748653
0.000751791
0.000756441
0.00076264
0.000770468
0.000780001
0.000791335
0.00080458
0.000819869
0.000837363
0.000857259
0.000879807
0.000905321
0.000934211
0.000967013
0.00100443
0.0010474
0.00109714
0.00115522
0.00122355
0.00130437
0.00139997
0.00151222
0.00164168
0.00178634
0.00194024
0.00209212
0.00222474
0.00229942
0.00231436
0.00229144
0.00222964
0.00220663
0.00227197
0.00250018
0.00299598
0.00323806
0.00296173
0.00154225
0.000243343
0.000439942
0.00177928
0.00233368
0.00257019
0.00263028
0.00257674
0.00242728
0.00222233
0.00199576
0.00177256
0.00157034
0.00139951
0.00126309
0.00115859
0.00108087
0.00102446
0.000984387
0.000956175
0.00093588
0.00092019
0.000906581
0.000893384
0.000879705
0.000865263
0.000850183
0.000834812
0.000819569
0.000804851
0.000790975
0.000778171
0.000766581
0.000756284
0.000747308
0.000739657
0.00073332
0.000728284
0.000724542
0.000722237
0.000721256
0.000721136
0.00072256
0.000725495
0.000729901
0.000735819
0.000743334
0.00075253
0.000763505
0.000776371
0.000791255
0.000808309
0.00082771
0.000849677
0.000874482
0.000902472
0.0009341
0.000969966
0.00101087
0.0010579
0.00111248
0.00117647
0.00125218
0.0013423
0.00144956
0.00157603
0.00172194
0.00188407
0.002054
0.00221682
0.00233628
0.00238192
0.00238207
0.00231899
0.00225592
0.00225077
0.00237724
0.00277303
0.003121
0.00309769
0.00179346
0.000289933
0.000445239
0.00179906
0.00234312
0.00257043
0.00262501
0.00255746
0.00239038
0.00217
0.00193243
0.00170469
0.00150407
0.00133894
0.00121006
0.00111329
0.00104268
0.000992315
0.000956927
0.000931901
0.000913323
0.000898101
0.000884063
0.000869927
0.000855148
0.000839708
0.000823891
0.000808109
0.000792773
0.000778224
0.000764704
0.000752363
0.000741274
0.000731455
0.0007229
0.000715584
0.000709485
0.000704587
0.000700886
0.000698469
0.000697363
0.000697139
0.00069828
0.0007009
0.000704965
0.000710516
0.000717647
0.000726449
0.000737024
0.000749487
0.000763966
0.000780606
0.000799573
0.000821067
0.000845325
0.000872647
0.000903418
0.000938144
0.000977509
0.00102244
0.0010742
0.0011345
0.00120557
0.00129022
0.00139167
0.00151305
0.00165642
0.00182101
0.00200114
0.00218412
0.00234903
0.00244337
0.00246282
0.00242627
0.00231725
0.00226633
0.00231693
0.00258615
0.00303778
0.0031456
0.00207575
0.000343637
0.000445585
0.0018082
0.0023412
0.00256258
0.00260965
0.00252802
0.00234835
0.00211644
0.00187133
0.00164157
0.00144398
0.001285
0.00116342
0.00107381
0.00100953
0.000964319
0.000932688
0.000909985
0.000892432
0.000877229
0.000862572
0.000847538
0.000831871
0.00081574
0.000799523
0.00078364
0.00076846
0.000754251
0.000741177
0.000729314
0.00071868
0.000709254
0.000701001
0.000693888
0.000687889
0.000682992
0.000679204
0.000676545
0.0006752
0.000674802
0.000675561
0.000677781
0.000681432
0.000686555
0.000693247
0.000701608
0.000711746
0.000723781
0.000737842
0.000754073
0.000772636
0.000793717
0.000817532
0.000844345
0.000874488
0.000908391
0.000946631
0.000989999
0.00103959
0.00109691
0.00116403
0.0012437
0.00133932
0.00145476
0.00159353
0.00175728
0.00194353
0.00214299
0.0023376
0.00248185
0.00253432
0.00252739
0.00242868
0.00231538
0.00229662
0.00244155
0.00289866
0.00313909
0.00237143
0.000401953
0.000443469
0.00180812
0.00233156
0.00254315
0.00258264
0.00249176
0.00230293
0.00206305
0.00181331
0.0015835
0.00138986
0.00123715
0.00112249
0.00103938
0.000980658
0.000939755
0.000911075
0.000890007
0.000872989
0.000857548
0.000842233
0.000826433
0.000810115
0.000793573
0.00077722
0.000761453
0.000746575
0.000732779
0.000720157
0.000708728
0.000698466
0.000689323
0.000681254
0.000674221
0.000668202
0.000663193
0.000659207
0.000656271
0.000654569
0.000653936
0.000654264
0.000656028
0.000659214
0.000663867
0.000670083
0.000677969
0.00068764
0.00069922
0.000712844
0.000728657
0.000746822
0.000767516
0.000790944
0.000817346
0.000847014
0.000880319
0.000917751
0.00095998
0.00100794
0.00106294
0.00112685
0.0012022
0.00129239
0.00140161
0.00153434
0.00169418
0.00188152
0.0020903
0.00230467
0.00249669
0.00259945
0.00261716
0.00254811
0.00238468
0.00230925
0.00237345
0.00272165
0.00303522
0.00263299
0.000455185
0.000438572
0.00180366
0.00231085
0.00251327
0.0025477
0.00245032
0.00225554
0.00201084
0.00175896
0.00153058
0.00134143
0.00119486
0.0010866
0.00100933
0.000955406
0.000918064
0.00089166
0.000871707
0.000854901
0.000839101
0.00082318
0.00080678
0.000790032
0.000773303
0.000757003
0.00074148
0.00072697
0.000713594
0.000701383
0.000690312
0.000680324
0.000671359
0.000663367
0.000656313
0.000650184
0.000644984
0.000640738
0.000637484
0.000635354
0.000634416
0.000634334
0.000635602
0.000638294
0.000642452
0.00064817
0.000655559
0.00066474
0.000675843
0.000689008
0.000704385
0.00072214
0.000742449
0.000765512
0.000791553
0.000820839
0.000853697
0.000890547
0.00093196
0.000978729
0.00103198
0.00109334
0.00116512
0.00125054
0.00135383
0.00148009
0.0016344
0.00181992
0.00203457
0.00226719
0.00249423
0.00265003
0.00269691
0.00266302
0.00250106
0.00235461
0.00234326
0.00260314
0.00294847
0.0028121
0.000491807
0.000431044
0.00179256
0.00228213
0.0024763
0.00250655
0.00240513
0.00220732
0.00196057
0.00170858
0.00148273
0.00129834
0.00115761
0.0010552
0.000983077
0.000933254
0.000898818
0.000874148
0.000854928
0.000838138
0.000821949
0.000805515
0.000788681
0.000771689
0.000754935
0.000738806
0.000723591
0.000709457
0.000696465
0.000684598
0.000673798
0.000663992
0.000655113
0.000647114
0.000639965
0.000633662
0.000628223
0.000623681
0.000620087
0.000617509
0.000616147
0.000615751
0.000616508
0.000618696
0.00062235
0.000627559
0.000634439
0.000643115
0.000653722
0.000666407
0.000681326
0.00069865
0.00071856
0.000741254
0.000766952
0.000795903
0.000828403
0.000864825
0.000905655
0.000951568
0.00100353
0.00106294
0.00113185
0.00121321
0.00131113
0.00143089
0.00157856
0.00175933
0.0019744
0.00221644
0.00246536
0.00267562
0.00276695
0.00276874
0.00263074
0.00241057
0.0023351
0.0024778
0.00286529
0.00289242
0.000506657
0.000421105
0.0017751
0.0022474
0.00243375
0.00246069
0.00235742
0.00215916
0.00191274
0.00166235
0.0014398
0.00126021
0.00112493
0.00102776
0.000960135
0.000913779
0.000881694
0.000858331
0.000839579
0.000822696
0.000806142
0.000789303
0.000772179
0.000755081
0.00073841
0.000722513
0.000707618
0.000693833
0.000681168
0.00066957
0.00065896
0.000649256
0.000640392
0.000632322
0.000625029
0.000618517
0.000612812
0.000607956
0.000604005
0.000601025
0.000599199
0.000598491
0.000598767
0.000600457
0.000603611
0.000608313
0.000614681
0.000622844
0.000632942
0.000645128
0.000659567
0.000676435
0.00069592
0.000718226
0.000743573
0.000772202
0.000804392
0.000840478
0.000880885
0.000926191
0.000977216
0.00103517
0.00110183
0.00117986
0.00127311
0.00138683
0.00152765
0.00170244
0.00191555
0.00216398
0.00243138
0.00268345
0.00283189
0.00286161
0.00276343
0.0025128
0.00235997
0.00240478
0.00278435
0.00291507
0.000509181
0.000409152
0.00175366
0.00220805
0.002387
0.00241145
0.00230824
0.00211174
0.0018677
0.00162026
0.00140157
0.00122668
0.00109637
0.00100385
0.000940096
0.000896643
0.000866446
0.000844062
0.000825596
0.000808574
0.000791704
0.000774562
0.000757262
0.000740155
0.000723627
0.000707979
0.000693385
0.000679902
0.0006675
0.0006561
0.000645611
0.000635947
0.000627044
0.000618867
0.000611403
0.000604666
0.00059869
0.000593524
0.00058923
0.00058588
0.000583596
0.000582537
0.000582412
0.000583618
0.000586284
0.00059049
0.000596351
0.000603999
0.000613581
0.000625255
0.000639192
0.000655578
0.000674609
0.000696499
0.000721471
0.000749769
0.000781662
0.000817462
0.00085755
0.000902424
0.000952788
0.00100967
0.00107461
0.00114997
0.00123925
0.00134752
0.00148155
0.0016493
0.00185772
0.00210811
0.00238965
0.00267349
0.00288003
0.00294466
0.00288533
0.00264082
0.00240262
0.00237272
0.00266741
0.00290273
0.000503318
0.000395803
0.0017296
0.0021654
0.0023373
0.00235996
0.00225841
0.00206556
0.00182563
0.00158227
0.00136781
0.00119739
0.00107155
0.000983067
0.000922619
0.000881572
0.000852881
0.000831228
0.000812933
0.00079576
0.000778631
0.000761274
0.000743882
0.000726824
0.000710463
0.000695054
0.000680724
0.000667488
0.000655285
0.000644022
0.000633599
0.00062393
0.000614958
0.000606652
0.000599008
0.000592049
0.000585813
0.000580355
0.000575742
0.000572049
0.000569361
0.000567889
0.000567456
0.000568205
0.000570406
0.000574132
0.000579498
0.000586639
0.000595702
0.000606854
0.000620272
0.000636151
0.0006547
0.000676139
0.000700705
0.000728647
0.000760236
0.000795768
0.000835596
0.000880159
0.000930062
0.00098618
0.00104984
0.0011231
0.00120912
0.00131261
0.0014403
0.00160075
0.00180288
0.0020517
0.00234114
0.00264646
0.00290787
0.00301846
0.00300246
0.00278098
0.00246446
0.00236435
0.0025748
0.00285938
0.000492047
0.000381447
0.00170367
0.00212055
0.0022857
0.0023072
0.00220862
0.002021
0.00178662
0.00154821
0.00133822
0.00117203
0.00105012
0.000965097
0.000907418
0.000868343
0.000840845
0.000819738
0.00080154
0.000784226
0.000766895
0.000749392
0.000731964
0.000714984
0.000698788
0.000683591
0.000669479
0.000656435
0.000644377
0.000633201
0.000622804
0.000613103
0.000604044
0.000595605
0.000587788
0.000580621
0.000574147
0.000568425
0.000563522
0.000559516
0.000556485
0.000554611
0.00055389
0.000554229
0.000555993
0.000559263
0.000564152
0.000570795