/*--------------------------------*- C++ -*----------------------------------*\
  =========                 |
  \\      /  F ield         | OpenFOAM: The Open Source CFD Toolbox
   \\    /   O peration     | Website:  https://openfoam.org
    \\  /    A nd           | Version:  13
     \\/     M anipulation  |
\*---------------------------------------------------------------------------*/
FoamFile
{
    format      ascii;
    class       volScalarField;
    location    "3.9";
    object      p;
}
// * * * * * * * * * * * * * * * * * * * * * * * * * * * * * * * * * * * * * //

dimensions      [0 2 -2 0 0 0 0];

internalField   nonuniform List<scalar> 
6400
(
5.1489e-08
1.52385e-05
2.06215e-05
6.66338e-06
-3.06096e-05
-8.75628e-05
-0.000157154
-0.000232564
-0.000308734
-0.000383568
-0.000457209
-0.000532236
-0.000612476
-0.000701752
-0.00080395
-0.000922382
-0.00105963
-0.0012172
-0.00139663
-0.00159901
-0.00182474
-0.00207452
-0.00235036
-0.00265536
-0.00299423
-0.00337124
-0.00378444
-0.00422803
-0.00469048
-0.00514754
-0.00558469
-0.00600124
-0.00639557
-0.00676383
-0.00710169
-0.00740349
-0.00766173
-0.00786725
-0.00800983
-0.00807881
-0.00806353
-0.00795375
-0.00774057
-0.00741735
-0.00698036
-0.00642742
-0.00575263
-0.00494948
-0.00403097
-0.00301188
-0.00189862
-0.000709236
0.000536978
0.00181373
0.00309175
0.00433552
0.00550304
0.00655239
0.00744507
0.00814419
0.00862119
0.00885978
0.00885933
0.00863442
0.00820586
0.00763421
0.00696862
0.00627003
0.0055962
0.00499363
0.00449174
0.00411559
0.0038596
0.00369771
0.00361394
0.00358518
0.00359169
0.00361704
0.00364994
0.00367575
-1.16686e-05
3.78547e-06
5.99055e-06
-1.15147e-05
-5.07452e-05
-0.000107541
-0.000174186
-0.000244292
-0.000313923
-0.000381985
-0.000449349
-0.000518784
-0.000594124
-0.000678741
-0.000775727
-0.000888078
-0.00101869
-0.00116988
-0.00134238
-0.00153693
-0.00175312
-0.001991
-0.00225267
-0.0025403
-0.0028559
-0.00320346
-0.00358897
-0.0040139
-0.00447175
-0.00494766
-0.00541952
-0.00587155
-0.00629922
-0.00669983
-0.00706853
-0.00739897
-0.00768343
-0.00791284
-0.00807733
-0.00816678
-0.00817152
-0.00808221
-0.00789088
-0.00759113
-0.00717805
-0.00664757
-0.00599652
-0.0052311
-0.00435732
-0.00337617
-0.00230196
-0.00115107
5.60413e-05
0.00129435
0.00253395
0.00373981
0.00487479
0.00590027
0.00677745
0.00747286
0.00795842
0.00821752
0.00824844
0.00806447
0.00769221
0.00717693
0.00657107
0.00593238
0.00531488
0.00476558
0.00431692
0.00398173
0.00376083
0.0036373
0.00358986
0.00359638
0.00362603
0.00365854
0.00368856
0.00371329
-2.26396e-05
-5.59522e-06
-7.34725e-06
-3.13128e-05
-7.62182e-05
-0.00013494
-0.000198979
-0.000262081
-0.000321731
-0.00037902
-0.000436152
-0.000496434
-0.000563649
-0.000640683
-0.000729699
-0.000832512
-0.000950661
-0.00108619
-0.00124109
-0.00141758
-0.00161841
-0.0018458
-0.00210287
-0.00239387
-0.00272214
-0.00309008
-0.00349851
-0.0039456
-0.00442511
-0.00492572
-0.00543161
-0.00592736
-0.00640164
-0.00684632
-0.007255
-0.0076207
-0.00793555
-0.00819111
-0.00837859
-0.00848883
-0.00851307
-0.00844343
-0.00827287
-0.00799549
-0.00760703
-0.00710551
-0.00649096
-0.00575727
-0.00491668
-0.00397486
-0.00294195
-0.00183254
-0.000665675
0.000535025
0.00174153
0.00292142
0.00403973
0.00505789
0.00593833
0.00664823
0.00716035
0.00745706
0.00753467
0.0074053
0.00709482
0.00664478
0.00610533
0.0055283
0.00497119
0.00447482
0.00406891
0.00377697
0.00359954
0.00352018
0.00350898
0.00354414
0.00359877
0.00365047
0.00369475
0.00372985
-2.62705e-05
-9.67406e-06
-1.69093e-05
-4.90219e-05
-0.000101467
-0.000162822
-0.000224434
-0.000281165
-0.00033167
-0.000376894
-0.000421123
-0.000468954
-0.000524416
-0.000590482
-0.000668856
-0.000760647
-0.000867304
-0.000991066
-0.00113512
-0.00130351
-0.00150152
-0.00173478
-0.00200945
-0.00232998
-0.00269761
-0.0031135
-0.00357642
-0.00408017
-0.00461397
-0.00516414
-0.00571672
-0.00625815
-0.00677616
-0.00726078
-0.00770419
-0.0080988
-0.00843717
-0.0087119
-0.00891486
-0.00903804
-0.00907397
-0.00901599
-0.008858
-0.00859463
-0.00822252
-0.00774043
-0.00714665
-0.00644148
-0.00562964
-0.00471705
-0.00371287
-0.00263057
-0.00148796
-0.00030688
0.000887072
0.00206391
0.00318915
0.00422506
0.00513463
0.00588332
0.00644333
0.00679466
0.00693003
0.00685944
0.00660771
0.00621261
0.00572224
0.00519013
0.00466979
0.00420557
0.00382852
0.00355809
0.00339896
0.00333973
0.00336102
0.00342675
0.00350846
0.0035869
0.00365296
0.00369894
-1.70007e-05
-5.41143e-06
-2.02593e-05
-6.099e-05
-0.000120863
-0.000184819
-0.000244065
-0.000294412
-0.000335646
-0.00037033
-0.000403376
-0.000440002
-0.000484571
-0.00054007
-0.000608561
-0.000691955
-0.000793066
-0.000915859
-0.00106595
-0.00124994
-0.00147511
-0.0017473
-0.00207065
-0.00244873
-0.00288255
-0.0033695
-0.0039027
-0.00447177
-0.00506344
-0.00566314
-0.00625747
-0.00683431
-0.00738339
-0.00789552
-0.00836214
-0.00877562
-0.00912912
-0.00941577
-0.00962798
-0.00975854
-0.00980191
-0.00975249
-0.00960522
-0.00935513
-0.00899876
-0.00853584
-0.00796508
-0.0072868
-0.00650367
-0.00561983
-0.00464314
-0.00358584
-0.00246459
-0.00129914
-0.000111476
0.00107124
0.00221461
0.00328126
0.00423607
0.00504361
0.00567365
0.00610388
0.00632154
0.00633033
0.00615223
0.00582444
0.00539214
0.0049063
0.0044207
0.00398194
0.00362356
0.00336688
0.00321685
0.00316516
0.00319364
0.00327374
0.00337477
0.00347508
0.00355952
0.00361271
1.19847e-05
1.3667e-05
-1.07403e-05
-6.19704e-05
-0.000128571
-0.000193915
-0.000250533
-0.000295376
-0.00032894
-0.000355307
-0.000380209
-0.000409198
-0.000446863
-0.000496716
-0.000561917
-0.000646284
-0.000755387
-0.000895737
-0.00107502
-0.00130165
-0.00158048
-0.00191788
-0.0023178
-0.0027785
-0.00329498
-0.00385882
-0.00445929
-0.00508558
-0.00572538
-0.00636556
-0.00699375
-0.00759852
-0.00817059
-0.00870158
-0.00918358
-0.00960948
-0.00997268
-0.0102667
-0.0104849
-0.0106204
-0.0106707
-0.0106309
-0.0104969
-0.0102642
-0.00992941
-0.00949415
-0.00895459
-0.00831111
-0.00756588
-0.00672169
-0.00578414
-0.00476235
-0.00367134
-0.00252756
-0.00134913
-0.000162149
0.000999373
0.00210067
0.00311055
0.00399205
0.0047113
0.00524486
0.00557414
0.00569699
0.00562535
0.00539367
0.005046
0.00463042
0.00419795
0.00379656
0.00346298
0.00322033
0.00307646
0.00302591
0.00305243
0.00313139
0.00323551
0.00334082
0.00343089
0.0034856
6.85708e-05
5.70833e-05
2.023e-05
-4.42578e-05
-0.000115596
-0.000181702
-0.000236123
-0.000276853
-0.000305998
-0.000328443
-0.000350394
-0.000377816
-0.000415894
-0.000469386
-0.00054348
-0.000644863
-0.00078148
-0.000962613
-0.00119549
-0.00148787
-0.00184582
-0.00227203
-0.00276338
-0.00331096
-0.00390613
-0.00453979
-0.00520078
-0.00587751
-0.00655819
-0.00723138
-0.00788609
-0.00851215
-0.00910115
-0.00964534
-0.0101374
-0.0105702
-0.0109374
-0.0112335
-0.0114532
-0.0115958
-0.0116566
-0.0116305
-0.0115139
-0.0113039
-0.0109988
-0.0105955
-0.0100927
-0.0094907
-0.00879037
-0.00799555
-0.00711216
-0.00614678
-0.00510661
-0.00400327
-0.00285532
-0.00168508
-0.000516512
0.000620413
0.00169163
0.00265589
0.00348112
0.00414159
0.00461117
0.00488378
0.00496128
0.00486727
0.0046411
0.00432868
0.00397833
0.00363705
0.00334352
0.00312364
0.00298865
0.00293628
0.00295509
0.0030224
0.00311569
0.00321112
0.0032923
0.00334007
0.000160294
0.000132709
7.92294e-05
2.85242e-06
-7.3303e-05
-0.000140737
-0.00019439
-0.000234145
-0.000263383
-0.000287876
-0.000314285
-0.00034912
-0.000398683
-0.000469605
-0.000569438
-0.000707746
-0.000895069
-0.0011394
-0.00144914
-0.00183079
-0.00228498
-0.00280545
-0.00338516
-0.00401451
-0.00468302
-0.0053797
-0.00609329
-0.00681281
-0.00752744
-0.00822696
-0.00890168
-0.00954275
-0.0101424
-0.0106932
-0.0111878
-0.0116207
-0.011988
-0.0122859
-0.012512
-0.0126654
-0.0127379
-0.0127263
-0.0126275
-0.0124395
-0.0121607
-0.0117897
-0.0113258
-0.0107691
-0.0101211
-0.00938521
-0.00856599
-0.00766811
-0.00669406
-0.00565143
-0.00455563
-0.00342428
-0.00227653
-0.0011321
-2.53865e-05
0.00101512
0.0019584
0.00276001
0.00339433
0.00384858
0.00411475
0.00420241
0.00414119
0.00397103
0.00373672
0.00348342
0.00325115
0.00306843
0.00295026
0.00289865
0.00290518
0.00295365
0.00302718
0.0031021
0.00316126
0.00319388
0.000290768
0.000246583
0.000173716
8.49818e-05
3.34642e-06
-6.64826e-05
-0.000122102
-0.000165179
-0.000200542
-0.000234843
-0.000275329
-0.000329385
-0.000404795
-0.000510124
-0.000655586
-0.000852967
-0.00111267
-0.0014424
-0.00184833
-0.00232956
-0.00288053
-0.00349322
-0.00415754
-0.00486188
-0.005595
-0.00634581
-0.00710358
-0.00785813
-0.00859956
-0.00931868
-0.0100069
-0.0106563
-0.0112596
-0.0118097
-0.0123023
-0.0127359
-0.0131073
-0.0134109
-0.0136436
-0.0137999
-0.013878
-0.0138761
-0.0137924
-0.0136258
-0.0133754
-0.0130388
-0.012617
-0.0121097
-0.0115177
-0.0108426
-0.0100863
-0.00925165
-0.00834426
-0.00737187
-0.00634464
-0.00527487
-0.00417397
-0.00305314
-0.00193642
-0.00084905
0.000176471
0.00110748
0.00191981
0.0025735
0.00305667
0.0033648
0.00351158
0.00352503
0.00344466
0.00331081
0.00316364
0.00303562
0.00294576
0.0029007
0.00289662
0.00292366
0.00296838
0.0030153
0.00304536
0.00305966
0.000464852
0.0004018
0.000306561
0.000205481
0.000115957
4.13132e-05
-1.99194e-05
-7.18194e-05
-0.000120745
-0.000174261
-0.000240397
-0.000327661
-0.000445366
-0.000604229
-0.000816198
-0.00109338
-0.00144514
-0.00187558
-0.00238392
-0.00296576
-0.00361184
-0.00431106
-0.00505162
-0.00582176
-0.00661032
-0.00740657
-0.0082004
-0.00898229
-0.00974327
-0.0104751
-0.0111701
-0.0118216
-0.0124237
-0.0129721
-0.0134633
-0.0138933
-0.0142577
-0.0145544
-0.014782
-0.0149369
-0.0150182
-0.0150242
-0.0149543
-0.0148077
-0.014584
-0.0142816
-0.013901
-0.0134425
-0.0129068
-0.0122948
-0.0116075
-0.0108465
-0.0100153
-0.00911851
-0.00816156
-0.0071509
-0.00609591
-0.00501511
-0.00392264
-0.00283095
-0.00175821
-0.000730831
0.000222183
0.00106789
0.00177683
0.00232743
0.00271825
0.0029566
0.00306913
0.00309031
0.00305575
0.00300127
0.00295263
0.00292211
0.00291191
0.00291712
0.00293156
0.00294429
0.00294439
0.00294138
0.000682784
0.000596989
0.000477943
0.000360071
0.000261172
0.000178659
0.000107128
3.9789e-05
-3.13361e-05
-0.00011481
-0.000219577
-0.000355263
-0.000532753
-0.000764113
-0.00106174
-0.00143601
-0.00189171
-0.00242807
-0.00304045
-0.00371975
-0.00445391
-0.00523095
-0.0060386
-0.00686528
-0.00770014
-0.00853292
-0.0093541
-0.0101549
-0.0109272
-0.0116638
-0.0123583
-0.013005
-0.0135993
-0.014138
-0.0146176
-0.0150354
-0.0153884
-0.0156756
-0.0158957
-0.0160472
-0.0161292
-0.0161408
-0.0160818
-0.015952
-0.015751
-0.0154785
-0.0151348
-0.0147203
-0.0142358
-0.013682
-0.0130598
-0.0123703
-0.0116155
-0.0107979
-0.00992012
-0.00898521
-0.00799803
-0.00696706
-0.00590165
-0.00481661
-0.00373224
-0.00265827
-0.00160977
-0.000615215
0.000292094
0.0010846
0.00173378
0.0022291
0.0025731
0.00278702
0.00289877
0.00294106
0.00294761
0.00293985
0.00292822
0.00291474
0.00289971
0.00287841
0.00285128
0.00283302
0.000934926
0.000826241
0.000678579
0.000541388
0.000430769
0.000336935
0.00024965
0.000159404
5.6588e-05
-6.83936e-05
-0.00022534
-0.000424921
-0.000679014
-0.000999761
-0.00139773
-0.00187893
-0.00244356
-0.00308654
-0.00379864
-0.00456797
-0.00538158
-0.00622703
-0.00709215
-0.00796568
-0.0088371
-0.0096967
-0.0105356
-0.011346
-0.0121206
-0.0128535
-0.0135393
-0.0141738
-0.0147535
-0.0152759
-0.0157388
-0.0161402
-0.0164788
-0.0167538
-0.0169645
-0.0171101
-0.0171904
-0.017205
-0.017154
-0.0170376
-0.0168558
-0.0166088
-0.0162971
-0.0159212
-0.015482
-0.0149801
-0.0144163
-0.0137915
-0.0131068
-0.0123633
-0.0115623
-0.0107051
-0.00979381
-0.0088312
-0.00782085
-0.00676892
-0.00568476
-0.00458185
-0.00348271
-0.00239459
-0.00133616
-0.000339693
0.000553987
0.00131411
0.00191798
0.00236117
0.002657
0.00282853
0.00290925
0.00293423
0.00292577
0.00289704
0.0028558
0.00280469
0.00275573
0.00272526
0.00121036
0.00107729
0.000897507
0.000738526
0.000613316
0.000503776
0.000394626
0.000273531
0.000129234
-4.88384e-05
-0.000271124
-0.000548965
-0.00089395
-0.00131648
-0.0018234
-0.00241584
-0.003089
-0.00383361
-0.00463782
-0.00548822
-0.00637159
-0.00727538
-0.00818768
-0.0090976
-0.00999513
-0.0108712
-0.011718
-0.0125284
-0.0132967
-0.014018
-0.0146883
-0.0153046
-0.0158648
-0.0163669
-0.0168098
-0.0171925
-0.0175145
-0.0177755
-0.0179752
-0.0181134
-0.0181903
-0.0182059
-0.0181607
-0.018055
-0.0178891
-0.0176636
-0.0173792
-0.0170366
-0.0166366
-0.01618
-0.0156675
-0.0150997
-0.0144774
-0.0138009
-0.0130705
-0.0122862
-0.0114481
-0.0105563
-0.00961131
-0.00861399
-0.0075661
-0.00647199
-0.0053418
-0.00419166
-0.00303744
-0.00189429
-0.00079902
0.000204521
0.00107455
0.00177464
0.00229102
0.00263115
0.0028169
0.0028896
0.00289165
0.00285072
0.00278689
0.00271127
0.00264666
0.00260833
0.00149435
0.00133484
0.00112099
0.000937026
0.000793816
0.000663821
0.000526471
0.000366559
0.000171181
-7.07349e-05
-0.000370017
-0.000737742
-0.0011838
-0.00171542
-0.00233443
-0.00303668
-0.00381308
-0.00465155
-0.00553849
-0.00645987
-0.00740242
-0.00835373
-0.00930226
-0.0102376
-0.0111506
-0.0120331
-0.0128781
-0.0136802
-0.0144347
-0.0151381
-0.0157879
-0.016382
-0.0169193
-0.0173989
-0.0178204
-0.0181834
-0.018488
-0.0187344
-0.0189225
-0.0190529
-0.0191256
-0.0191411
-0.0191
-0.019003
-0.0188502
-0.0186427
-0.0183813
-0.0180669
-0.0177004
-0.0172825
-0.016814
-0.0162955
-0.0157275
-0.01511
-0.0144425
-0.0137243
-0.0129542
-0.0121306
-0.0112515
-0.0103149
-0.00931887
-0.00826256
-0.00714686
-0.00597576
-0.00476003
-0.00352297
-0.00228312
-0.0010797
3.3192e-05
0.000998239
0.00176534
0.00231237
0.00264441
0.00279361
0.00281834
0.0027704
0.00268623
0.00258989
0.00251436
0.00247029
0.00176777
0.00158108
0.00133031
0.00111965
0.000955141
0.000799866
0.000627945
0.000421376
0.000166514
-0.000148
-0.000533511
-0.000999102
-0.00155194
-0.00219443
-0.00292315
-0.00372945
-0.00460091
-0.00552347
-0.00648251
-0.00746383
-0.0084543
-0.00944178
-0.0104154
-0.0113654
-0.0122836
-0.0131632
-0.0139985
-0.0147853
-0.0155204
-0.0162016
-0.0168275
-0.0173972
-0.0179103
-0.0183667
-0.0187666
-0.0191102
-0.0193979
-0.01963
-0.0198071
-0.0199297
-0.0199982
-0.0200132
-0.0199752
-0.0198849
-0.0197434
-0.0195512
-0.0193092
-0.0190186
-0.0186801
-0.0182948
-0.0178635
-0.0173868
-0.016865
-0.016298
-0.0156852
-0.0150254
-0.0143165
-0.0135559
-0.0127401
-0.011865
-0.0109261
-0.00991898
-0.00884001
-0.00768725
-0.0064623
-0.00517405
-0.00384172
-0.00249657
-0.00118687
2.0419e-05
0.00104932
0.00183759
0.00235841
0.00262681
0.00269955
0.00265479
0.00255267
0.00243793
0.00235222
0.00230082
0.00200993
0.00179546
0.00150772
0.00126864
0.00107959
0.000894192
0.00068153
0.00042213
0.000101797
-0.000292604
-0.000770221
-0.00133767
-0.00199794
-0.00274811
-0.00358023
-0.00448183
-0.00543807
-0.00643354
-0.00745314
-0.00848275
-0.00950951
-0.0105218
-0.0115096
-0.0124643
-0.0133789
-0.0142478
-0.015067
-0.0158335
-0.0165455
-0.0172021
-0.0178026
-0.0183472
-0.0188362
-0.01927
-0.0196492
-0.0199745
-0.0202465
-0.0204657
-0.0206328
-0.0207483
-0.020813
-0.0208275
-0.0207922
-0.020708
-0.0205758
-0.0203964
-0.0201709
-0.0199001
-0.0195853
-0.0192272
-0.0188269
-0.018385
-0.0179019
-0.0173775
-0.0168111
-0.0162014
-0.015546
-0.0148418
-0.0140844
-0.0132686
-0.012388
-0.0114359
-0.010405
-0.00928937
-0.00808527
-0.00679288
-0.00542013
-0.00398933
-0.00254146
-0.00113935
0.000131683
0.00117693
0.00192596
0.00236254
0.00252427
0.00250081
0.00238836
0.00225558
0.00215523
0.00209285
0.00220224
0.00195935
0.0016353
0.00136686
0.00115023
0.000930219
0.000672404
0.000356193
-3.49882e-05
-0.000513045
-0.00108489
-0.00175408
-0.00251785
-0.00336901
-0.00429536
-0.00528145
-0.00631077
-0.00736711
-0.00843524
-0.00950129
-0.0105529
-0.0115793
-0.0125715
-0.0135222
-0.0144257
-0.015278
-0.0160766
-0.0168197
-0.0175067
-0.0181376
-0.0187128
-0.019233
-0.0196989
-0.0201116
-0.0204719
-0.0207807
-0.0210386
-0.0212465
-0.0214049
-0.0215146
-0.0215762
-0.0215903
-0.0215576
-0.0214788
-0.0213548
-0.0211865
-0.0209748
-0.0207209
-0.0204257
-0.0200903
-0.0197157
-0.0193026
-0.0188515
-0.0183623
-0.0178347
-0.0172671
-0.0166574
-0.0160023
-0.0152971
-0.0145359
-0.0137117
-0.012816
-0.0118396
-0.0107733
-0.00960876
-0.00834056
-0.00696852
-0.00550342
-0.00397459
-0.00243632
-0.000969685
0.000320363
0.00132277
0.00197073
0.00227159
0.00230422
0.00219338
0.0020422
0.00191846
0.00184181
0.0023224
0.00205484
0.00169673
0.00139873
0.00115195
0.000894109
0.00058886
0.000212759
-0.000251958
-0.000814391
-0.00147934
-0.00224538
-0.00310562
-0.00404831
-0.00505771
-0.00611616
-0.00720609
-0.00831091
-0.0094155
-0.0105065
-0.0115722
-0.012603
-0.0135911
-0.0145306
-0.0154175
-0.0162492
-0.0170243
-0.0177424
-0.0184039
-0.0190096
-0.0195604
-0.0200577
-0.0205026
-0.0208962
-0.0212397
-0.0215339
-0.0217798
-0.0219781
-0.0221295
-0.0222345
-0.0222939
-0.0223082
-0.022278
-0.0222042
-0.0220875
-0.0219288
-0.0217291
-0.0214894
-0.0212107
-0.0208942
-0.0205408
-0.0201513
-0.0197264
-0.0192661
-0.0187703
-0.0182376
-0.0176662
-0.0170528
-0.0163929
-0.0156807
-0.0149086
-0.0140675
-0.0131471
-0.0121361
-0.0110231
-0.00979843
-0.0084557
-0.00699602
-0.00543576
-0.00381637
-0.00221136
-0.000718617
0.000534347
0.00142963
0.00191826
0.00204982
0.00196209
0.00179482
0.00163814
0.001546
0.00235764
0.00206815
0.001679
0.00135178
0.00107307
0.000776356
0.000422149
-1.60773e-05
-0.000553454
-0.00119784
-0.00195087
-0.00280645
-0.0037535
-0.00477628
-0.00585626
-0.00697429
-0.00811214
-0.00925316
-0.0103826
-0.0114877
-0.0125579
-0.0135847
-0.0145619
-0.015485
-0.0163514
-0.0171599
-0.0179102
-0.0186031
-0.0192397
-0.0198214
-0.0203496
-0.020826
-0.021252
-0.0216289
-0.0219578
-0.0222398
-0.0224757
-0.0226661
-0.0228119
-0.0229135
-0.0229715
-0.0229865
-0.0229591
-0.02289
-0.02278
-0.0226298
-0.0224405
-0.0222129
-0.0219482
-0.0216474
-0.0213115
-0.0209414
-0.0205379
-0.0201012
-0.0196312
-0.019127
-0.0185871
-0.0180086
-0.0173873
-0.0167178
-0.0159925
-0.0152023
-0.0143364
-0.0133824
-0.0123269
-0.0111571
-0.00986251
-0.00843684
-0.0068845
-0.00523169
-0.00354137
-0.00190173
-0.00043217
0.000717206
0.00143518
0.00171814
0.00168543
0.00150716
0.00131152
0.00120457
0.00229672
0.00198905
0.00157275
0.00121751
0.000906805
0.000570504
0.000166175
-0.000332215
-0.00093908
-0.00166083
-0.00249432
-0.00342988
-0.00445233
-0.00554264
-0.00668021
-0.00784492
-0.00901825
-0.0101838
-0.0113273
-0.0124369
-0.0135033
-0.0145194
-0.0154804
-0.0163832
-0.0172268
-0.0180109
-0.0187364
-0.0194048
-0.0200178
-0.0205773
-0.0210851
-0.0215429
-0.0219524
-0.0223149
-0.0226316
-0.0229034
-0.0231311
-0.0233154
-0.0234569
-0.0235562
-0.0236137
-0.0236299
-0.0236054
-0.0235409
-0.0234369
-0.0232944
-0.0231141
-0.0228971
-0.0226443
-0.0223567
-0.0220354
-0.0216814
-0.0212953
-0.0208778
-0.0204287
-0.0199477
-0.0194334
-0.0188836
-0.0182946
-0.0176614
-0.0169772
-0.0162331
-0.0154183
-0.01452
-0.0135239
-0.012415
-0.0111797
-0.00980712
-0.00829215
-0.00664487
-0.00491041
-0.00318121
-0.0015501
-0.000165863
0.000806828
0.00128766
0.00134598
0.00117102
0.0009392
0.000817833
0.00213309
0.00181159
0.00137282
0.000991829
0.000649932
0.000274207
-0.000179061
-0.000734131
-0.00140555
-0.00219714
-0.00310201
-0.00410656
-0.00519206
-0.00633691
-0.00751913
-0.00871802
-0.00991508
-0.0110943
-0.0122423
-0.0133482
-0.0144041
-0.0154042
-0.0163452
-0.0172255
-0.018045
-0.0188047
-0.0195061
-0.0201513
-0.0207425
-0.0212819
-0.0217716
-0.0222132
-0.0226086
-0.0229589
-0.0232654
-0.0235289
-0.0237502
-0.0239299
-0.0240684
-0.0241663
-0.0242239
-0.0242418
-0.0242203
-0.0241602
-0.0240619
-0.0239263
-0.0237541
-0.0235462
-0.0233037
-0.0230274
-0.0227184
-0.0223777
-0.022006
-0.0216041
-0.0211721
-0.0207098
-0.0202163
-0.0196899
-0.0191276
-0.0185249
-0.0178759
-0.0171724
-0.016404
-0.0155583
-0.0146206
-0.0135746
-0.0124043
-0.0110957
-0.00963764
-0.00802762
-0.00628779
-0.00450785
-0.0027739
-0.0012034
1.63922e-05
0.000729932
0.000928291
0.000779656
0.000524017
0.000386048
0.00186503
0.00153443
0.00107853
0.00067478
0.000302858
-0.000111058
-0.000609427
-0.00121634
-0.00194608
-0.0027988
-0.00376461
-0.00482631
-0.00596221
-0.00714883
-0.00836326
-0.00958461
-0.0107947
-0.011978
-0.0131222
-0.0142177
-0.0152577
-0.0162381
-0.0171568
-0.0180133
-0.0188086
-0.0195444
-0.020223
-0.0208467
-0.0214182
-0.0219398
-0.0224135
-0.0228413
-0.0232246
-0.0235649
-0.0238631
-0.02412
-0.0243363
-0.0245125
-0.0246491
-0.0247464
-0.0248047
-0.0248245
-0.0248062
-0.0247503
-0.0246574
-0.0245281
-0.0243631
-0.0241634
-0.0239297
-0.0236631
-0.0233646
-0.0230351
-0.0226755
-0.0222864
-0.0218683
-0.0214213
-0.0209447
-0.0204373
-0.0198969
-0.0193196
-0.0187004
-0.0180321
-0.0173051
-0.0165076
-0.0156253
-0.0146414
-0.0135383
-0.0122993
-0.0109108
-0.00936136
-0.00765351
-0.00584133
-0.00405736
-0.00236198
-0.000927475
3.1784e-05
0.000412665
0.000320342
6.50646e-05
-9.54379e-05
0.00149529
0.00116056
0.000693028
0.000269724
-0.000129982
-0.000579018
-0.00111818
-0.0017714
-0.00255141
-0.00345583
-0.00447158
-0.00557842
-0.00675235
-0.00796855
-0.00920364
-0.0104368
-0.0116503
-0.0128296
-0.0139632
-0.0150429
-0.0160633
-0.0170215
-0.0179164
-0.0187489
-0.0195205
-0.0202336
-0.0208909
-0.0214951
-0.0220489
-0.0225548
-0.0230148
-0.0234307
-0.023804
-0.024136
-0.0244275
-0.0246792
-0.0248918
-0.0250656
-0.025201
-0.0252983
-0.0253578
-0.0253798
-0.0253647
-0.0253129
-0.0252249
-0.0251014
-0.024943
-0.0247505
-0.0245247
-0.0242666
-0.0239771
-0.0236571
-0.0233076
-0.0229293
-0.0225227
-0.0220882
-0.0216255
-0.0211337
-0.0206112
-0.020055
-0.0194609
-0.0188227
-0.0181319
-0.0173778
-0.0165466
-0.0156219
-0.0145854
-0.0134184
-0.012105
-0.0106307
-0.00898396
-0.00717485
-0.0053567
-0.00359615
-0.00199966
-0.000808198
-0.000216591
-0.000208694
-0.000444318
-0.000635508
0.00103037
0.000696967
0.00022293
-0.000216468
-0.000641103
-0.00112082
-0.00169564
-0.00238891
-0.00321089
-0.00415711
-0.00521176
-0.00635207
-0.00755234
-0.00878691
-0.0100323
-0.0112679
-0.0124768
-0.0136452
-0.0147629
-0.0158228
-0.0168209
-0.0177553
-0.0186262
-0.0194349
-0.0201837
-0.0208756
-0.0215134
-0.0221
-0.0226383
-0.0231304
-0.0235786
-0.0239845
-0.0243495
-0.0246747
-0.0249608
-0.0252085
-0.0254183
-0.0255906
-0.0257255
-0.0258233
-0.0258842
-0.0259086
-0.0258966
-0.0258488
-0.0257655
-0.0256473
-0.0254948
-0.0253088
-0.02509
-0.0248393
-0.0245577
-0.024246
-0.0239051
-0.0235359
-0.0231391
-0.022715
-0.0222638
-0.0217849
-0.0212772
-0.0207386
-0.0201655
-0.0195529
-0.0188936
-0.0181778
-0.017393
-0.0165236
-0.0155511
-0.0144556
-0.0132187
-0.0118249
-0.010256
-0.00850551
-0.00665243
-0.00486685
-0.00317286
-0.0017881
-0.000975541
-0.000815828
-0.00101524
-0.0012463
0.000480773
0.000152974
-0.000322268
-0.000773718
-0.00121948
-0.00172568
-0.00233103
-0.00305719
-0.00391268
-0.00489093
-0.00597383
-0.0071367
-0.00835263
-0.00959556
-0.0108421
-0.0120723
-0.0132698
-0.0144219
-0.0155196
-0.0165571
-0.0175313
-0.0184413
-0.0192882
-0.020074
-0.0208015
-0.0214737
-0.0220938
-0.0226647
-0.0231892
-0.0236695
-0.0241075
-0.024505
-0.0248631
-0.0251827
-0.0254646
-0.0257093
-0.0259171
-0.0260884
-0.0262232
-0.0263219
-0.0263845
-0.0264112
-0.0264024
-0.0263583
-0.0262794
-0.0261661
-0.0260191
-0.0258389
-0.0256264
-0.0253824
-0.0251077
-0.0248032
-0.0244699
-0.0241086
-0.0237201
-0.0233049
-0.0228633
-0.0223953
-0.0219
-0.0213761
-0.0208208
-0.02023
-0.0195978
-0.0189157
-0.0181724
-0.0173535
-0.0164412
-0.0154152
-0.0142552
-0.012944
-0.0114632
-0.00979428
-0.00794271
-0.00614501
-0.00441253
-0.0028877
-0.00186932
-0.0015307
-0.00166336
-0.00194465
-0.000140024
-0.0004597
-0.000930793
-0.00139017
-0.00185327
-0.00238167
-0.00301193
-0.00376392
-0.00464459
-0.00564551
-0.00674677
-0.00792229
-0.00914442
-0.010387
-0.0116271
-0.0128452
-0.014026
-0.0151579
-0.0162328
-0.017246
-0.0181955
-0.0190813
-0.0199049
-0.0206689
-0.0213764
-0.0220306
-0.0226347
-0.0231917
-0.0237041
-0.0241741
-0.0246035
-0.0249938
-0.0253461
-0.0256613
-0.0259398
-0.0261822
-0.0263887
-0.0265594
-0.0266946
-0.0267943
-0.0268587
-0.0268879
-0.0268821
-0.0268416
-0.0267668
-0.026658
-0.026516
-0.0263412
-0.0261343
-0.0258962
-0.0256277
-0.0253297
-0.025003
-0.0246487
-0.0242674
-0.0238599
-0.0234266
-0.0229678
-0.0224832
-0.0219717
-0.0214315
-0.0208595
-0.0202506
-0.0195979
-0.0188915
-0.0181182
-0.0172615
-0.0163015
-0.0152163
-0.0139867
-0.0125945
-0.0110153
-0.00923726
-0.00741532
-0.00568256
-0.00407772
-0.00288776
-0.00236832
-0.00240724
-0.00275468
-0.000818003
-0.001127
-0.00158972
-0.00205341
-0.00253009
-0.00307619
-0.00372549
-0.00449647
-0.00539443
-0.0064094
-0.00752012
-0.00869958
-0.00991979
-0.0111548
-0.012382
-0.013583
-0.0147431
-0.0158518
-0.0169021
-0.0178902
-0.018815
-0.019677
-0.0204783
-0.0212219
-0.0219109
-0.0225487
-0.0231385
-0.023683
-0.0241848
-0.0246459
-0.0250679
-0.0254522
-0.0257997
-0.0261112
-0.0263871
-0.0266277
-0.0268333
-0.0270039
-0.0271397
-0.0272406
-0.0273068
-0.0273384
-0.0273354
-0.0272983
-0.0272273
-0.0271228
-0.0269853
-0.0268154
-0.0266137
-0.026381
-0.0261181
-0.0258258
-0.0255051
-0.0251569
-0.024782
-0.0243813
-0.0239554
-0.0235046
-0.0230292
-0.0225285
-0.0220014
-0.0214454
-0.0208569
-0.0202299
-0.019556
-0.0188237
-0.0180177
-0.0171191
-0.016106
-0.0149571
-0.0136535
-0.012171
-0.010494
-0.0086679
-0.00695936
-0.00533635
-0.00402335
-0.00332711
-0.00326107
-0.00368071
-0.00153881
-0.00183468
-0.00228573
-0.00275043
-0.00323683
-0.00379588
-0.00445876
-0.00524238
-0.00615046
-0.00717179
-0.0082842
-0.00946017
-0.0106717
-0.0118932
-0.0131027
-0.0142826
-0.0154192
-0.0165029
-0.0175277
-0.0184905
-0.0193909
-0.0202301
-0.0210104
-0.0217349
-0.022407
-0.02303
-0.0236068
-0.0241403
-0.0246328
-0.0250861
-0.0255017
-0.0258809
-0.0262244
-0.0265329
-0.0268066
-0.027046
-0.027251
-0.0274217
-0.0275581
-0.0276604
-0.0277284
-0.0277622
-0.0277621
-0.0277281
-0.0276607
-0.0275601
-0.0274268
-0.0272613
-0.0270643
-0.0268365
-0.0265787
-0.0262917
-0.0259764
-0.0256337
-0.0252646
-0.02487
-0.0244506
-0.024007
-0.0235397
-0.0230485
-0.0225327
-0.0219909
-0.02142
-0.0208156
-0.0201705
-0.0194747
-0.0187147
-0.0178728
-0.0169279
-0.0158575
-0.0146431
-0.0132645
-0.0116924
-0.00990493
-0.00820793
-0.00662034
-0.00524434
-0.00439643
-0.00423099
-0.00471101
-0.00228759
-0.00256875
-0.00300539
-0.00346753
-0.0039599
-0.00452764
-0.00519918
-0.00598976
-0.00690163
-0.00792269
-0.00903023
-0.0101966
-0.011394
-0.0125974
-0.0137857
-0.0149418
-0.0160531
-0.0171108
-0.0181098
-0.0190478
-0.0199247
-0.0207421
-0.0215027
-0.0222096
-0.0228662
-0.0234757
-0.024041
-0.0245647
-0.0250489
-0.0254954
-0.0259056
-0.0262803
-0.0266205
-0.0269264
-0.0271985
-0.0274368
-0.0276414
-0.0278124
-0.0279497
-0.0280532
-0.028123
-0.028159
-0.0281615
-0.0281305
-0.0280663
-0.0279693
-0.0278399
-0.0276785
-0.0274858
-0.0272625
-0.0270093
-0.0267271
-0.0264167
-0.0260792
-0.0257154
-0.0253263
-0.0249128
-0.0244757
-0.0240156
-0.0235328
-0.0230272
-0.0224977
-0.0219425
-0.0213579
-0.0207383
-0.0200751
-0.0193565
-0.0185662
-0.0176843
-0.0166882
-0.0155582
-0.0142757
-0.0128103
-0.0111375
-0.00943253
-0.00789028
-0.00650206
-0.00554659
-0.00531012
-0.00582384
-0.00305007
-0.00331517
-0.00373506
-0.00419163
-0.00468656
-0.00525914
-0.00593498
-0.00672758
-0.00763786
-0.00865309
-0.00975042
-0.0109024
-0.0120815
-0.0132635
-0.0144279
-0.0155585
-0.0166436
-0.0176752
-0.0186488
-0.0195627
-0.0204172
-0.0212142
-0.0219565
-0.0226472
-0.0232897
-0.023887
-0.024442
-0.0249569
-0.0254339
-0.0258744
-0.0262797
-0.0266507
-0.0269879
-0.0272917
-0.0275624
-0.0277999
-0.0280044
-0.0281757
-0.0283138
-0.0284186
-0.0284901
-0.0285282
-0.0285331
-0.0285048
-0.0284437
-0.02835
-0.0282241
-0.0280665
-0.0278777
-0.0276585
-0.0274096
-0.0271318
-0.026826
-0.0264931
-0.0261341
-0.0257501
-0.025342
-0.0249109
-0.0244574
-0.0239823
-0.0234857
-0.0229673
-0.0224259
-0.0218589
-0.0212618
-0.0206277
-0.0199462
-0.0192029
-0.0183793
-0.0174534
-0.0164036
-0.0152113
-0.0138498
-0.0123019
-0.0106222
-0.00913107
-0.0077614
-0.0067417
-0.00646192
-0.00696428
-0.00381269
-0.00406045
-0.00446171
-0.00491036
-0.0054049
-0.00597897
-0.00665533
-0.00744582
-0.00835015
-0.00935503
-0.0104379
-0.0115718
-0.0127297
-0.0138881
-0.0150271
-0.0161315
-0.0171902
-0.0181961
-0.0191451
-0.0200359
-0.0208693
-0.0216473
-0.0223727
-0.0230487
-0.0236783
-0.0242647
-0.0248103
-0.0253175
-0.025788
-0.0262232
-0.0266243
-0.0269919
-0.0273266
-0.0276286
-0.0278981
-0.028135
-0.0283394
-0.0285111
-0.02865
-0.028756
-0.0288291
-0.0288691
-0.0288762
-0.0288505
-0.0287921
-0.0287014
-0.0285788
-0.0284246
-0.0282395
-0.028024
-0.027779
-0.0275053
-0.0272036
-0.0268751
-0.0265206
-0.0261413
-0.0257383
-0.0253126
-0.0248652
-0.0243971
-0.0239087
-0.0234003
-0.0228712
-0.0223199
-0.0217428
-0.0211346
-0.0204863
-0.0197854
-0.0190151
-0.0181545
-0.0171811
-0.0160778
-0.014824
-0.0133914
-0.011765
-0.010309
-0.00898949
-0.00794625
-0.00762191
-0.00804974
-0.00456296
-0.00479234
-0.00517358
-0.00561238
-0.00610408
-0.0066768
-0.00735054
-0.00813563
-0.00903077
-0.0100215
-0.0110869
-0.0122001
-0.013335
-0.0144684
-0.0155814
-0.0166595
-0.0176923
-0.0186732
-0.0195988
-0.020468
-0.0212817
-0.0220422
-0.0227521
-0.0234146
-0.0240327
-0.0246091
-0.0251464
-0.0256466
-0.0261113
-0.0265419
-0.0269392
-0.0273038
-0.0276363
-0.0279367
-0.0282052
-0.0284417
-0.028646
-0.0288181
-0.0289578
-0.0290649
-0.0291394
-0.0291812
-0.0291903
-0.0291668
-0.029111
-0.0290231
-0.0289034
-0.0287523
-0.0285705
-0.0283585
-0.0281171
-0.0278471
-0.0275493
-0.0272247
-0.0268744
-0.0264995
-0.0261012
-0.0256805
-0.0252388
-0.0247771
-0.0242962
-0.0237968
-0.0232788
-0.0227414
-0.0221823
-0.021597
-0.0209783
-0.0203155
-0.0195933
-0.0187922
-0.0178904
-0.0168704
-0.0157147
-0.0143934
-0.0128731
-0.0114267
-0.0101577
-0.00911994
-0.008737
-0.00905622
-0.00528895
-0.00549973
-0.00586015
-0.00628761
-0.00677445
-0.00734347
-0.00801198
-0.00878895
-0.00967301
-0.010647
-0.0116922
-0.0127834
-0.0138942
-0.0150021
-0.0160892
-0.0171416
-0.0181494
-0.0191066
-0.0200101
-0.0208592
-0.0216548
-0.0223992