/*--------------------------------*- C++ -*----------------------------------*\
  =========                 |
  \\      /  F ield         | OpenFOAM: The Open Source CFD Toolbox
   \\    /   O peration     | Website:  https://openfoam.org
    \\  /    A nd           | Version:  13
     \\/     M anipulation  |
\*---------------------------------------------------------------------------*/
FoamFile
{
    format      ascii;
    class       volVectorField;
    location    "3.9";
    object      U;
}
// * * * * * * * * * * * * * * * * * * * * * * * * * * * * * * * * * * * * * //

dimensions      [0 1 -1 0 0 0 0];

internalField   nonuniform List<vector> 
6400
(
(-7.91285e-05 4.88504e-05 0)
(0.000439949 -0.0001546 0)
(0.00180552 -0.000349672 0)
(0.00358037 -0.000433105 0)
(0.00535346 -0.000385964 0)
(0.00685169 -0.000270256 0)
(0.00788782 -0.000131588 0)
(0.00845832 -2.54432e-05 0)
(0.00866626 1.8009e-05 0)
(0.0086527 5.06668e-06 0)
(0.00856967 -4.43493e-05 0)
(0.0084944 -0.000121476 0)
(0.00849556 -0.000200224 0)
(0.00857237 -0.000270608 0)
(0.00869029 -0.000329849 0)
(0.00879869 -0.000377592 0)
(0.00883878 -0.000410713 0)
(0.00878101 -0.000417177 0)
(0.00857892 -0.000407093 0)
(0.00816047 -0.000379714 0)
(0.00749232 -0.000343919 0)
(0.00651966 -0.000305877 0)
(0.00520685 -0.000267844 0)
(0.00353004 -0.000245313 0)
(0.00146085 -0.000269155 0)
(-0.000994104 -0.000349772 0)
(-0.00381024 -0.000422729 0)
(-0.00717299 -0.000362374 0)
(-0.0111845 -7.43436e-05 0)
(-0.0158708 0.000492838 0)
(-0.0216462 0.0012692 0)
(-0.0283748 0.00204667 0)
(-0.0357753 0.00272411 0)
(-0.0436807 0.00328924 0)
(-0.0518686 0.00372403 0)
(-0.0601425 0.00402606 0)
(-0.0683151 0.00420161 0)
(-0.0762338 0.004265 0)
(-0.0837654 0.00423154 0)
(-0.090807 0.00411704 0)
(-0.0972679 0.00393456 0)
(-0.103077 0.00369276 0)
(-0.108172 0.00339785 0)
(-0.112505 0.00305106 0)
(-0.116041 0.00265486 0)
(-0.118749 0.00222006 0)
(-0.120469 0.00179095 0)
(-0.121226 0.00139602 0)
(-0.121249 0.000774871 0)
(-0.119963 0.000249061 0)
(-0.117803 -0.00038022 0)
(-0.114429 -0.000989091 0)
(-0.110014 -0.00162109 0)
(-0.10444 -0.0022338 0)
(-0.0977917 -0.00282693 0)
(-0.0900793 -0.00339245 0)
(-0.0814647 -0.00394816 0)
(-0.0718971 -0.00443469 0)
(-0.0615961 -0.00485081 0)
(-0.0506935 -0.00515789 0)
(-0.0394118 -0.00532341 0)
(-0.0279924 -0.00531107 0)
(-0.0167225 -0.00510924 0)
(-0.00584934 -0.00471398 0)
(0.00418669 -0.00418256 0)
(0.0130552 -0.00341135 0)
(0.0205423 -0.00248103 0)
(0.0263409 -0.00143561 0)
(0.0302307 -0.00034015 0)
(0.0321325 0.000842425 0)
(0.0317384 0.00167541 0)
(0.0297749 0.00227957 0)
(0.0257382 0.00264611 0)
(0.0205941 0.00256415 0)
(0.0150374 0.00208682 0)
(0.00983059 0.00137872 0)
(0.00551915 0.000714768 0)
(0.00234984 0.000245669 0)
(0.000472636 -6.81918e-05 0)
(-0.000167153 -0.000272624 0)
(4.22097e-05 -0.000393569 0)
(0.00158447 -0.00179476 0)
(0.00442775 -0.0029152 0)
(0.00762821 -0.00330157 0)
(0.0106076 -0.00301482 0)
(0.013013 -0.00234171 0)
(0.014691 -0.00151319 0)
(0.0156543 -0.000751306 0)
(0.0160097 -0.000198378 0)
(0.0158723 0.000118152 0)
(0.0154196 0.000228113 0)
(0.0147408 0.000206945 0)
(0.0139188 0.000135399 0)
(0.0129454 9.17748e-05 0)
(0.0117671 0.000123072 0)
(0.010308 0.000242152 0)
(0.0084979 0.000437712 0)
(0.00628836 0.000702492 0)
(0.00358256 0.00105308 0)
(0.000296069 0.00150104 0)
(-0.00366263 0.00205046 0)
(-0.00846433 0.00270741 0)
(-0.0142098 0.00345414 0)
(-0.0209605 0.00427175 0)
(-0.0287709 0.00516523 0)
(-0.0377004 0.00616667 0)
(-0.0477518 0.00729078 0)
(-0.0586904 0.00851607 0)
(-0.0702553 0.00983688 0)
(-0.0820669 0.011164 0)
(-0.0936551 0.0122935 0)
(-0.104957 0.0131222 0)
(-0.115854 0.013625 0)
(-0.126198 0.0138051 0)
(-0.135878 0.0136836 0)
(-0.144822 0.0133067 0)
(-0.152966 0.0127114 0)
(-0.160273 0.0119386 0)
(-0.166712 0.0110216 0)
(-0.172269 0.00999064 0)
(-0.176926 0.0088675 0)
(-0.180671 0.00766597 0)
(-0.183498 0.00639894 0)
(-0.185391 0.00507336 0)
(-0.186347 0.00369831 0)
(-0.186348 0.0022802 0)
(-0.185363 0.000824652 0)
(-0.183384 -0.000687013 0)
(-0.18043 -0.00228384 0)
(-0.176409 -0.00393104 0)
(-0.171387 -0.00562306 0)
(-0.165291 -0.00734396 0)
(-0.158153 -0.00907607 0)
(-0.149942 -0.0107975 0)
(-0.140679 -0.0124748 0)
(-0.130378 -0.0140723 0)
(-0.119076 -0.0155327 0)
(-0.106908 -0.0168317 0)
(-0.0939663 -0.0178996 0)
(-0.0804368 -0.0186695 0)
(-0.0665253 -0.0190837 0)
(-0.0524484 -0.0190747 0)
(-0.0384671 -0.0186022 0)
(-0.0248658 -0.0176398 0)
(-0.0119585 -0.0161996 0)
(-2.97947e-05 -0.0142358 0)
(0.0106442 -0.0118156 0)
(0.0197851 -0.00898919 0)
(0.0271652 -0.00587511 0)
(0.0326162 -0.00258023 0)
(0.0360113 0.00066162 0)
(0.0372801 0.00364717 0)
(0.03638 0.00623805 0)
(0.0334625 0.00815428 0)
(0.028764 0.00887005 0)
(0.0224627 0.00849708 0)
(0.0154219 0.00714114 0)
(0.00871648 0.00514883 0)
(0.0034186 0.00276595 0)
(0.000308825 0.000612344 0)
(0.000192269 -0.0014781 0)
(0.00267907 -0.00454718 0)
(0.00625269 -0.00636241 0)
(0.00966361 -0.00661839 0)
(0.0124979 -0.00576169 0)
(0.0145678 -0.00431745 0)
(0.0158823 -0.00274554 0)
(0.0164866 -0.00131569 0)
(0.0164468 -0.000170765 0)
(0.0158312 0.000628227 0)
(0.0147555 0.00111056 0)
(0.0132744 0.00138876 0)
(0.011403 0.00160216 0)
(0.00911058 0.00187832 0)
(0.00632464 0.00230056 0)
(0.00296427 0.00289308 0)
(-0.00107406 0.0036548 0)
(-0.00592303 0.00459802 0)
(-0.0116848 0.00574421 0)
(-0.0184612 0.00712202 0)
(-0.0263306 0.00874538 0)
(-0.0352947 0.0105696 0)
(-0.0453474 0.0125403 0)
(-0.0564155 0.0145806 0)
(-0.0683261 0.0165795 0)
(-0.0808371 0.018444 0)
(-0.0936586 0.0201096 0)
(-0.10649 0.0215067 0)
(-0.119068 0.0225893 0)
(-0.13112 0.0233172 0)
(-0.142459 0.0236747 0)
(-0.152979 0.0236575 0)
(-0.1626 0.023277 0)
(-0.171312 0.0225781 0)
(-0.179133 0.0215842 0)
(-0.186072 0.0203385 0)
(-0.192152 0.0188897 0)
(-0.197396 0.0172756 0)
(-0.201821 0.015527 0)
(-0.205437 0.0136697 0)
(-0.208259 0.0117317 0)
(-0.210293 0.00971861 0)
(-0.211538 0.00764117 0)
(-0.211991 0.00550313 0)
(-0.211642 0.00330292 0)
(-0.210481 0.00104087 0)
(-0.208492 -0.00129074 0)
(-0.205632 -0.00370542 0)
(-0.201891 -0.00619944 0)
(-0.197241 -0.00874692 0)
(-0.191663 -0.0113558 0)
(-0.185122 -0.0140043 0)
(-0.17761 -0.0166724 0)
(-0.169109 -0.0193292 0)
(-0.159622 -0.021933 0)
(-0.149164 -0.0244277 0)
(-0.13777 -0.0267391 0)
(-0.125522 -0.0287919 0)
(-0.112503 -0.030491 0)
(-0.0988416 -0.0317427 0)
(-0.0847274 -0.0324474 0)
(-0.0703729 -0.0325131 0)
(-0.0560134 -0.0318642 0)
(-0.0419416 -0.0304715 0)
(-0.0284525 -0.0283259 0)
(-0.0158117 -0.025431 0)
(-0.00425867 -0.0218329 0)
(0.00594298 -0.017615 0)
(0.0145902 -0.0129222 0)
(0.0215608 -0.00792521 0)
(0.0267277 -0.00284279 0)
(0.0301124 0.00210407 0)
(0.031617 0.00659907 0)
(0.0310951 0.0102841 0)
(0.0286284 0.0130309 0)
(0.0245485 0.0142475 0)
(0.0188488 0.0138934 0)
(0.0122952 0.0119213 0)
(0.00588035 0.00833984 0)
(0.000810952 0.00340765 0)
(0.000355855 -0.00310952 0)
(0.00350187 -0.00797708 0)
(0.00718919 -0.00994993 0)
(0.0102115 -0.00959154 0)
(0.0124146 -0.00791724 0)
(0.0137856 -0.0056923 0)
(0.0143993 -0.00339042 0)
(0.014326 -0.00129322 0)
(0.0136208 0.000445804 0)
(0.0123317 0.00177343 0)
(0.0104519 0.00275909 0)
(0.00796003 0.00354934 0)
(0.00481515 0.00431623 0)
(0.000958882 0.00521044 0)
(-0.00367045 0.00632522 0)
(-0.00915895 0.00770765 0)
(-0.0156098 0.00937717 0)
(-0.0231243 0.0113382 0)
(-0.0317746 0.0135911 0)
(-0.0415875 0.0161187 0)
(-0.0525196 0.0188629 0)
(-0.0644342 0.0217087 0)
(-0.0771213 0.0245257 0)
(-0.0903006 0.0271754 0)
(-0.103665 0.0295303 0)
(-0.116958 0.0315003 0)
(-0.129885 0.0329485 0)
(-0.142203 0.0338375 0)
(-0.153706 0.0342087 0)
(-0.164287 0.0341053 0)
(-0.17392 0.0335771 0)
(-0.182601 0.0326625 0)
(-0.190372 0.0313933 0)
(-0.197274 0.0298174 0)
(-0.203358 0.0279838 0)
(-0.208666 0.0259345 0)
(-0.213246 0.02371 0)
(-0.217127 0.0213419 0)
(-0.220331 0.0188609 0)
(-0.22288 0.0162848 0)
(-0.224779 0.01363 0)
(-0.226038 0.0109032 0)
(-0.226647 0.00810575 0)
(-0.226601 0.00523529 0)
(-0.225884 0.00228708 0)
(-0.224478 -0.00074267 0)
(-0.222355 -0.0038622 0)
(-0.219484 -0.00707103 0)
(-0.215838 -0.0103873 0)
(-0.211386 -0.0137996 0)
(-0.206094 -0.017303 0)
(-0.199921 -0.0208728 0)
(-0.192842 -0.0244822 0)
(-0.184833 -0.0280951 0)
(-0.175874 -0.0316596 0)
(-0.165958 -0.0350996 0)
(-0.155093 -0.038315 0)
(-0.143322 -0.0412001 0)
(-0.130713 -0.0436431 0)
(-0.117358 -0.0454934 0)
(-0.1034 -0.0466045 0)
(-0.089036 -0.0468604 0)
(-0.0744716 -0.0461379 0)
(-0.0599901 -0.0443682 0)
(-0.045917 -0.0415346 0)
(-0.0325802 -0.0377116 0)
(-0.0202267 -0.0329441 0)
(-0.0091008 -0.0273533 0)
(0.000583433 -0.0211214 0)
(0.00867782 -0.0144851 0)
(0.0150779 -0.00770692 0)
(0.0197534 -0.00103418 0)
(0.0227136 0.00524619 0)
(0.0240232 0.0107729 0)
(0.0235862 0.0151438 0)
(0.0213469 0.0180631 0)
(0.0175125 0.019093 0)
(0.012383 0.0179607 0)
(0.00653187 0.0143 0)
(0.00100924 0.00705513 0)
(0.000552959 -0.00515848 0)
(0.00400935 -0.0116008 0)
(0.00728917 -0.0131603 0)
(0.00957527 -0.0118946 0)
(0.0109497 -0.00930409 0)
(0.0114712 -0.00627274 0)
(0.0112542 -0.00325855 0)
(0.0103635 -0.000512723 0)
(0.00882051 0.00184412 0)
(0.0066099 0.00380712 0)
(0.00367902 0.00546967 0)
(-4.34316e-05 0.00699445 0)
(-0.00463295 0.00856351 0)
(-0.0101638 0.0103311 0)
(-0.0167066 0.0124007 0)
(-0.024331 0.0148267 0)
(-0.0330976 0.0176241 0)
(-0.043034 0.0207671 0)
(-0.054106 0.0241942 0)
(-0.0661966 0.0278029 0)
(-0.0790936 0.0314373 0)
(-0.0925102 0.0349023 0)
(-0.106154 0.0380721 0)
(-0.119704 0.0407796 0)
(-0.132881 0.0428305 0)
(-0.145376 0.0441827 0)
(-0.156976 0.0448604 0)
(-0.167637 0.0448911 0)
(-0.177326 0.0443422 0)
(-0.186086 0.0433015 0)
(-0.19396 0.0418463 0)
(-0.201006 0.0400443 0)
(-0.207289 0.0379475 0)
(-0.212854 0.0356037 0)
(-0.217751 0.0330517 0)
(-0.222025 0.0303258 0)
(-0.225713 0.027459 0)
(-0.228838 0.0244781 0)
(-0.231421 0.0213984 0)
(-0.233474 0.0182344 0)
(-0.234998 0.0149998 0)
(-0.235999 0.0116891 0)
(-0.236469 0.00829965 0)
(-0.236398 0.00482091 0)
(-0.235767 0.0012427 0)
(-0.234566 -0.00244306 0)
(-0.232753 -0.00624682 0)
(-0.230295 -0.0101733 0)
(-0.227157 -0.0142308 0)
(-0.223302 -0.0184195 0)
(-0.218709 -0.0227478 0)
(-0.213311 -0.0271857 0)
(-0.207063 -0.0316979 0)
(-0.199925 -0.0362453 0)
(-0.19186 -0.0407701 0)
(-0.182837 -0.0451845 0)
(-0.172831 -0.0493646 0)
(-0.161845 -0.053174 0)
(-0.149923 -0.0564776 0)
(-0.137116 -0.0590801 0)
(-0.123523 -0.060798 0)
(-0.109308 -0.0614657 0)
(-0.0946597 -0.0609082 0)
(-0.079826 -0.0590137 0)
(-0.065079 -0.055717 0)
(-0.0508235 -0.0510725 0)
(-0.0374403 -0.0452211 0)
(-0.0251693 -0.0383079 0)
(-0.0142608 -0.0305665 0)
(-0.00490981 -0.0222891 0)
(0.00275291 -0.0138033 0)
(0.00867866 -0.00543051 0)
(0.0128959 0.00251088 0)
(0.0154758 0.00968548 0)
(0.0164629 0.0157352 0)
(0.0158735 0.0202319 0)
(0.0137431 0.0227132 0)
(0.0102416 0.0227721 0)
(0.00565714 0.0196088 0)
(0.000827582 0.0105512 0)
(0.000770615 -0.00748808 0)
(0.00414053 -0.0149481 0)
(0.00663299 -0.0155696 0)
(0.00795152 -0.0133045 0)
(0.00839019 -0.00978082 0)
(0.00799408 -0.00596956 0)
(0.00687802 -0.00225669 0)
(0.00507184 0.00116044 0)
(0.00255521 0.0042087 0)
(-0.000731549 0.006921 0)
(-0.00487617 0.00941558 0)
(-0.00997257 0.0118627 0)
(-0.0161058 0.0144383 0)
(-0.023346 0.0172858 0)
(-0.0317429 0.0204949 0)
(-0.041318 0.0240994 0)
(-0.0520528 0.0280744 0)
(-0.0638593 0.0323239 0)
(-0.076575 0.036709 0)
(-0.0899358 0.0410231 0)
(-0.103621 0.0451022 0)
(-0.117344 0.0487185 0)
(-0.130744 0.0516217 0)
(-0.143432 0.0537235 0)
(-0.155216 0.0549823 0)
(-0.166009 0.0554088 0)
(-0.175833 0.0551002 0)
(-0.184745 0.0541681 0)
(-0.192795 0.0527179 0)
(-0.200061 0.0508421 0)
(-0.20659 0.0486122 0)
(-0.212445 0.0460919 0)
(-0.217676 0.0433261 0)
(-0.222326 0.0403595 0)
(-0.226438 0.0372264 0)
(-0.230045 0.0339526 0)
(-0.23317 0.030563 0)
(-0.235835 0.0270805 0)
(-0.238058 0.0235165 0)
(-0.239842 0.0198781 0)
(-0.241185 0.0161731 0)
(-0.2421 0.0123854 0)
(-0.242577 0.00851054 0)
(-0.24261 0.00453301 0)
(-0.242187 0.000434707 0)
(-0.241308 -0.00380954 0)
(-0.239952 -0.00820859 0)
(-0.238089 -0.012775 0)
(-0.235682 -0.0175134 0)
(-0.232664 -0.0224115 0)
(-0.228995 -0.0274806 0)
(-0.224628 -0.0327129 0)
(-0.219483 -0.0380605 0)
(-0.213482 -0.043471 0)
(-0.206564 -0.0488857 0)
(-0.198716 -0.0542501 0)
(-0.189888 -0.0594401 0)
(-0.179987 -0.0642482 0)
(-0.169042 -0.06853 0)
(-0.157063 -0.0720545 0)
(-0.144086 -0.074581 0)
(-0.130247 -0.0759087 0)
(-0.115679 -0.075799 0)
(-0.100642 -0.0740938 0)
(-0.0853831 -0.0706487 0)
(-0.070214 -0.0654521 0)
(-0.0556269 -0.0586792 0)
(-0.0420203 -0.0505545 0)
(-0.0296671 -0.0413589 0)
(-0.0188352 -0.0314443 0)
(-0.00971417 -0.0212178 0)
(-0.00240004 -0.0110905 0)
(0.00311269 -0.00145516 0)
(0.00691198 0.00732826 0)
(0.00912297 0.0149095 0)
(0.00984461 0.0208938 0)
(0.00913087 0.0247968 0)
(0.007063 0.0260746 0)
(0.00401639 0.0236696 0)
(0.000457784 0.0133175 0)
(0.00095341 -0.00990505 0)
(0.00384519 -0.0176005 0)
(0.00523444 -0.0170275 0)
(0.00556873 -0.0136772 0)
(0.00498361 -0.0092855 0)
(0.00362869 -0.00472747 0)
(0.00155701 -0.000308555 0)
(-0.00124375 0.00383126 0)
(-0.00483237 0.00766308 0)
(-0.00929728 0.0112475 0)
(-0.0147382 0.0147139 0)
(-0.0212486 0.0182265 0)
(-0.0289015 0.0219423 0)
(-0.0377395 0.0259765 0)
(-0.0477625 0.03038 0)
(-0.0589177 0.0351287 0)
(-0.0710846 0.0401489 0)
(-0.0840695 0.0452504 0)
(-0.0975621 0.0502059 0)
(-0.11126 0.0548217 0)
(-0.124798 0.0587748 0)
(-0.137744 0.0618805 0)
(-0.149797 0.064007 0)
(-0.160858 0.065151 0)
(-0.17094 0.0653945 0)
(-0.180087 0.0648529 0)
(-0.188372 0.0636541 0)
(-0.195867 0.0619036 0)
(-0.202643 0.0597051 0)
(-0.208762 0.0571401 0)
(-0.214269 0.0542758 0)
(-0.219214 0.0511677 0)
(-0.223637 0.0478561 0)
(-0.227571 0.0443784 0)
(-0.23105 0.0407661 0)
(-0.234097 0.037045 0)
(-0.236727 0.0332408 0)
(-0.238953 0.0293732 0)
(-0.240777 0.025456 0)
(-0.242289 0.0213816 0)
(-0.243436 0.0172672 0)
(-0.244231 0.0130685 0)
(-0.244663 0.00878591 0)
(-0.244725 0.00440282 0)
(-0.244407 -9.84508e-05 0)
(-0.243689 -0.00474204 0)
(-0.2426 -0.00954236 0)
(-0.241116 -0.0145286 0)
(-0.239231 -0.0197283 0)
(-0.236939 -0.0251746 0)
(-0.234183 -0.0308702 0)
(-0.230949 -0.0368506 0)
(-0.22717 -0.0430414 0)
(-0.222727 -0.0493777 0)
(-0.217506 -0.0558016 0)
(-0.21135 -0.0621947 0)
(-0.20414 -0.0684201 0)
(-0.195748 -0.0742451 0)
(-0.186181 -0.0795655 0)
(-0.175495 -0.0841912 0)
(-0.163558 -0.0877473 0)
(-0.150519 -0.0900128 0)
(-0.136406 -0.090639 0)
(-0.121466 -0.0894467 0)
(-0.105919 -0.0862176 0)
(-0.0900727 -0.080863 0)
(-0.0743425 -0.0734394 0)
(-0.0592956 -0.0642719 0)
(-0.0453558 -0.0537186 0)
(-0.0328475 -0.0421832 0)
(-0.0220489 -0.030159 0)
(-0.0131393 -0.0181682 0)
(-0.00617548 -0.00671359 0)
(-0.00109278 0.00376451 0)
(0.00227994 0.0128935 0)
(0.00413232 0.0203099 0)
(0.0046065 0.0255545 0)
(0.00382488 0.0280064 0)
(0.00211865 0.0262666 0)
(3.86516e-05 0.0149377 0)
(0.00103592 -0.01215 0)
(0.00302834 -0.0192894 0)
(0.00333285 -0.0174208 0)
(0.00257434 -0.0129677 0)
(0.000957947 -0.0077899 0)
(-0.00138458 -0.0025069 0)
(-0.0044559 0.00264553 0)
(-0.00830665 0.00757434 0)
(-0.0130215 0.0122802 0)
(-0.018698 0.0168383 0)
(-0.0254297 0.0213748 0)
(-0.0332915 0.0260336 0)
(-0.0423248 0.0309373 0)
(-0.052522 0.036153 0)
(-0.0638085 0.0416721 0)
(-0.0760715 0.0474149 0)
(-0.0890777 0.0531893 0)
(-0.102486 0.0587766 0)
(-0.115988 0.0638573 0)
(-0.129149 0.0681579 0)
(-0.141536 0.0714447 0)
(-0.152986 0.0736206 0)
(-0.163446 0.0747323 0)
(-0.172942 0.0748926 0)
(-0.181538 0.0742255 0)
(-0.189308 0.0728513 0)
(-0.196334 0.0708945 0)
(-0.202683 0.0684558 0)
(-0.208414 0.0656273 0)
(-0.213574 0.0624799 0)
(-0.218202 0.059075 0)
(-0.222334 0.0554628 0)
(-0.225999 0.0516827 0)
(-0.229223 0.0477724 0)
(-0.232024 0.0437671 0)
(-0.234433 0.0396721 0)
(-0.236523 0.0354725 0)
(-0.238291 0.0312005 0)
(-0.239762 0.0268503 0)
(-0.240891 0.0225149 0)
(-0.24172 0.0180809 0)
(-0.242243 0.0135705 0)
(-0.242474 0.0089632 0)
(-0.242422 0.00424609 0)
(-0.2421 -0.000598796 0)
(-0.241512 -0.00558676 0)
(-0.240651 -0.0107415 0)
(-0.239512 -0.0160896 0)
(-0.238082 -0.0216512 0)
(-0.236342 -0.0274449 0)
(-0.234263 -0.0334749 0)
(-0.231808 -0.0397337 0)
(-0.228934 -0.0463048 0)
(-0.225624 -0.0531969 0)
(-0.221813 -0.060349 0)
(-0.217419 -0.0676973 0)
(-0.212348 -0.0751791 0)
(-0.206378 -0.0824157 0)
(-0.199143 -0.0891397 0)
(-0.190409 -0.0949997 0)
(-0.18013 -0.0997267 0)
(-0.168539 -0.103233 0)
(-0.155487 -0.104967 0)
(-0.141207 -0.104702 0)
(-0.125846 -0.102125 0)
(-0.109715 -0.097066 0)
(-0.0931645 -0.0894645 0)
(-0.0767474 -0.0795307 0)
(-0.0611459 -0.0677758 0)
(-0.0468316 -0.0547017 0)
(-0.0341633 -0.0408565 0)
(-0.0234328 -0.0268825 0)
(-0.0147993 -0.0134228 0)
(-0.0082643 -0.0010546 0)
(-0.00367271 0.00975761 0)
(-0.000774795 0.0186305 0)
(0.000708903 0.0251658 0)
(0.00103972 0.0286917 0)
(0.000502097 0.0275074 0)
(-0.000245734 0.0154499 0)
(0.000983992 -0.013997 0)
(0.00185708 -0.0198744 0)
(0.00100275 -0.0166215 0)
(-0.000848268 -0.0112192 0)
(-0.00348395 -0.00528995 0)
(-0.00682802 0.000719364 0)
(-0.0109214 0.00664225 0)
(-0.0158418 0.0124209 0)
(-0.0216827 0.0180714 0)
(-0.0285345 0.0236672 0)
(-0.0364703 0.0293169 0)
(-0.0455319 0.03513 0)
(-0.0557129 0.0411788 0)
(-0.0669392 0.0474663 0)
(-0.0790917 0.0539254 0)
(-0.0919286 0.0603695 0)
(-0.105119 0.0665439 0)
(-0.118277 0.0721096 0)
(-0.130975 0.0767705 0)
(-0.142857 0.0802827 0)
(-0.153791 0.0826019 0)
(-0.16375 0.0837899 0)
(-0.172753 0.0839572 0)
(-0.180878 0.0832366 0)
(-0.188202 0.0817628 0)
(-0.194802 0.079661 0)
(-0.200748 0.0770428 0)
(-0.206091 0.0739992 0)
(-0.210877 0.0706107 0)
(-0.215143 0.0669416 0)
(-0.218924 0.0630485 0)
(-0.22225 0.0589773 0)
(-0.225149 0.0547669 0)
(-0.227653 0.0504468 0)
(-0.229815 0.0460288 0)
(-0.231644 0.0415532 0)
(-0.233123 0.0370501 0)
(-0.234262 0.0325025 0)
(-0.235112 0.0279053 0)
(-0.235675 0.0232637 0)
(-0.236001 0.0185561 0)
(-0.236101 0.0137881 0)
(-0.236002 0.00894238 0)
(-0.235719 0.0040029 0)
(-0.235269 -0.00105319 0)
(-0.23466 -0.0062508 0)
(-0.233876 -0.0116199 0)
(-0.232932 -0.0171918 0)
(-0.231824 -0.0229989 0)
(-0.230548 -0.0290726 0)
(-0.229092 -0.0354369 0)
(-0.227431 -0.0421066 0)
(-0.225531 -0.0490834 0)
(-0.22335 -0.0563547 0)
(-0.220817 -0.0638899 0)
(-0.217841 -0.0716218 0)
(-0.214294 -0.0794433 0)
(-0.210145 -0.0875369 0)
(-0.205244 -0.0955743 0)
(-0.199365 -0.103241 0)
(-0.192077 -0.109916 0)
(-0.182757 -0.114946 0)
(-0.171565 -0.118109 0)
(-0.158698 -0.119222 0)
(-0.144239 -0.117819 0)
(-0.12843 -0.113591 0)
(-0.111642 -0.10642 0)
(-0.0942642 -0.0962843 0)
(-0.0770617 -0.0836061 0)
(-0.0608525 -0.0691217 0)
(-0.0461668 -0.0535089 0)
(-0.0333987 -0.0374734 0)
(-0.0228424 -0.0218176 0)
(-0.0146153 -0.00729671 0)
(-0.00863491 0.00545457 0)
(-0.00463325 0.0159546 0)
(-0.00222053 0.0238175 0)
(-0.00100251 0.0282575 0)
(-0.000543369 0.0275978 0)
(-0.000300713 0.0152605 0)
(0.000815093 -0.0150284 0)
(0.000438677 -0.019246 0)
(-0.00160738 -0.0146675 0)
(-0.0045071 -0.00843041 0)
(-0.00814782 -0.00178154 0)
(-0.0124938 0.00496063 0)
(-0.0176045 0.0116852 0)
(-0.0235714 0.0183558 0)
(-0.0304839 0.0249874 0)
(-0.0384131 0.031637 0)
(-0.0474004 0.0383819 0)
(-0.0574435 0.0452839 0)
(-0.0684765 0.052352 0)
(-0.0803852 0.0595319 0)
(-0.0929288 0.0666435 0)
(-0.10579 0.0734132 0)
(-0.118556 0.0794925 0)
(-0.130791 0.0845578 0)
(-0.142238 0.0884018 0)
(-0.152737 0.0909656 0)
(-0.162262 0.0923196 0)
(-0.170844 0.0925702 0)
(-0.178554 0.0918675 0)
(-0.185475 0.0903555 0)
(-0.191676 0.0881651 0)
(-0.197221 0.0854114 0)
(-0.20216 0.082193 0)
(-0.206535 0.0785928 0)
(-0.210384 0.0746843 0)
(-0.213738 0.0705286 0)
(-0.216633 0.06618 0)
(-0.219098 0.0616832 0)
(-0.221167 0.0570762 0)
(-0.22287 0.0523909 0)
(-0.224218 0.0476533 0)
(-0.225249 0.042871 0)
(-0.225986 0.0380579 0)
(-0.226491 0.0332183 0)
(-0.226772 0.0283623 0)
(-0.226855 0.023489 0)
(-0.226765 0.0185849 0)
(-0.226521 0.0136424 0)
(-0.226143 0.00864193 0)
(-0.225647 0.0035635 0)
(-0.225048 -0.00161793 0)
(-0.224354 -0.0069291 0)
(-0.223574 -0.0124038 0)
(-0.222724 -0.0180728 0)
(-0.221811 -0.0239713 0)
(-0.220842 -0.0301341 0)
(-0.219817 -0.0365946 0)
(-0.21873 -0.0433847 0)
(-0.217565 -0.0505328 0)
(-0.216297 -0.0580539 0)
(-0.214881 -0.0659444 0)
(-0.213244 -0.0741693 0)
(-0.211279 -0.0826474 0)
(-0.208868 -0.0912472 0)
(-0.205846 -0.0997994 0)
(-0.201983 -0.108185 0)
(-0.197213 -0.116377 0)
(-0.191165 -0.123729 0)
(-0.18323 -0.129304 0)
(-0.172693 -0.132199 0)
(-0.160061 -0.132536 0)
(-0.145387 -0.129769 0)
(-0.129065 -0.12368 0)
(-0.111479 -0.114101 0)
(-0.093189 -0.101173 0)
(-0.0751435 -0.0855559 0)
(-0.0583229 -0.0682602 0)
(-0.0433381 -0.0501677 0)
(-0.0306063 -0.0321664 0)
(-0.0204014 -0.0152228 0)
(-0.0127622 -0.000193889 0)
(-0.00748039 0.0122471 0)
(-0.0041006 0.0216002 0)
(-0.00216121 0.0269501 0)
(-0.000987252 0.0268729 0)
(-0.000223601 0.0147139 0)
(0.000572751 -0.0152701 0)
(-0.00115256 -0.0173949 0)
(-0.00432662 -0.0116206 0)
(-0.0082391 -0.00461103 0)
(-0.0128671 0.00272473 0)
(-0.0181875 0.0101985 0)
(-0.0242755 0.0177399 0)
(-0.0312234 0.0253157 0)
(-0.0391055 0.0329244 0)
(-0.0479646 0.0405932 0)
(-0.0578028 0.0483552 0)
(-0.0685653 0.0562134 0)
(-0.0801499 0.0641225 0)
(-0.0923314 0.0719117 0)
(-0.104798 0.0793055 0)
(-0.117152 0.0859504 0)
(-0.12898 0.0915025 0)
(-0.140041 0.0957721 0)
(-0.150176 0.0986902 0)
(-0.15933 0.100291 0)
(-0.167548 0.10071 0)
(-0.174894 0.100094 0)
(-0.181444 0.0986015 0)
(-0.187267 0.0963696 0)
(-0.192419 0.0935185 0)
(-0.196948 0.0901529 0)
(-0.200894 0.086363 0)
(-0.204295 0.0822282 0)
(-0.207187 0.0778192 0)
(-0.209607 0.0731973 0)
(-0.211592 0.0684164 0)
(-0.21318 0.0635215 0)
(-0.214407 0.0585495 0)
(-0.215312 0.053529 0)
(-0.215929 0.0484829 0)
(-0.216299 0.0434289 0)
(-0.216451 0.0383806 0)
(-0.216422 0.0333396 0)
(-0.216232 0.0283082 0)
(-0.215907 0.0232828 0)
(-0.215466 0.0182491 0)
(-0.214926 0.0131942 0)
(-0.214305 0.00809785 0)
(-0.213619 0.00293825 0)
(-0.212882 -0.00230972 0)
(-0.212107 -0.00767314 0)
(-0.211309 -0.0131856 0)
(-0.210503 -0.0188797 0)
(-0.209704 -0.0247915 0)
(-0.208925 -0.0309573 0)
(-0.208175 -0.0374145 0)
(-0.207461 -0.0441998 0)
(-0.206784 -0.0513489 0)
(-0.206139 -0.0588903 0)
(-0.205506 -0.0668422 0)
(-0.204841 -0.0752068 0)
(-0.204078 -0.0839649 0)
(-0.203115 -0.0930615 0)
(-0.201808 -0.102356 0)
(-0.199956 -0.111626 0)
(-0.197319 -0.120571 0)
(-0.193575 -0.128895 0)
(-0.188547 -0.136592 0)
(-0.181709 -0.142517 0)
(-0.172031 -0.14535 0)
(-0.159563 -0.144715 0)
(-0.144644 -0.14046 0)
(-0.127651 -0.132205 0)
(-0.109141 -0.119936 0)
(-0.0898704 -0.103971 0)
(-0.0709829 -0.0852619 0)
(-0.0536372 -0.0651425 0)
(-0.0385224 -0.0447284 0)
(-0.0260581 -0.0251255 0)
(-0.0164521 -0.0074667 0)
(-0.00961376 0.00731793 0)
(-0.0051241 0.018503 0)
(-0.00248589 0.025039 0)
(-0.00090812 0.0257137 0)
(-2.79607e-05 0.0141258 0)
(0.000140173 -0.0145223 0)
(-0.00283923 -0.0143625 0)
(-0.00704574 -0.0075018 0)
(-0.01192 0.000197623 0)
(-0.0174891 0.00818755 0)
(-0.0237279 0.0163822 0)
(-0.030718 0.0247336 0)
(-0.0385439 0.0331953 0)
(-0.047256 0.0417357 0)
(-0.0568629 0.0503402 0)
(-0.0673214 0.0589878 0)
(-0.0785441 0.0676325 0)
(-0.0903295 0.076112 0)
(-0.102383 0.0841593 0)
(-0.114332 0.0914265 0)
(-0.125801 0.0975648 0)
(-0.136531 0.102361 0)
(-0.146356 0.105727 0)
(-0.155209 0.107679 0)
(-0.163117 0.108345 0)
(-0.170147 0.107892 0)
(-0.176366 0.106477 0)
(-0.18184 0.104251 0)
(-0.186623 0.101339 0)
(-0.190758 0.0978541 0)
(-0.194289 0.0938948 0)
(-0.197255 0.0895496 0)
(-0.199698 0.0848982 0)
(-0.201663 0.0800122 0)
(-0.203195 0.0749542 0)
(-0.204339 0.0697785 0)
(-0.20514 0.0645298 0)
(-0.205642 0.0592443 0)
(-0.205889 0.0539503 0)
(-0.205918 0.0486701 0)
(-0.205765 0.043418 0)
(-0.205459 0.0382014 0)
(-0.205026 0.0330201 0)
(-0.204488 0.0278715 0)
(-0.203865 0.0227468 0)
(-0.203171 0.0176321 0)
(-0.202422 0.0125118 0)
(-0.201632 0.00736547 0)
(-0.200815 0.00217073 0)
(-0.199984 -0.00309781 0)
(-0.199153 -0.0084672 0)
(-0.198337 -0.0139695 0)
(-0.197552 -0.0196376 0)
(-0.196815 -0.0255075 0)
(-0.196143 -0.0316165 0)
(-0.195554 -0.0380038 0)
(-0.195061 -0.0447094 0)
(-0.194679 -0.0517731 0)
(-0.194415 -0.0592309 0)
(-0.194267 -0.0671121 0)
(-0.194219 -0.0754362 0)
(-0.194238 -0.0842086 0)
(-0.194263 -0.0934118 0)
(-0.194194 -0.102988 0)
(-0.19388 -0.112824 0)
(-0.193102 -0.122709 0)
(-0.191565 -0.132273 0)
(-0.188917 -0.141031 0)
(-0.184725 -0.148711 0)
(-0.178628 -0.154707 0)
(-0.169645 -0.157322 0)
(-0.157283 -0.155727 0)
(-0.141977 -0.149731 0)
(-0.124149 -0.138999 0)
(-0.104606 -0.12373 0)
(-0.0843218 -0.104483 0)
(-0.0646922 -0.0825707 0)
(-0.0470326 -0.0597148 0)
(-0.0320892 -0.0372801 0)
(-0.0202309 -0.016656 0)
(-0.0115426 0.000912773 0)
(-0.00571865 0.0144219 0)
(-0.00230521 0.0226442 0)
(-0.000451218 0.0244575 0)
(0.000228981 0.0138266 0)
(-0.000315887 -0.0127455 0)
(-0.0045015 -0.0101917 0)
(-0.00965913 -0.00238425 0)
(-0.0154305 0.00593274 0)
(-0.0218723 0.01454 0)
(-0.0289478 0.0234308 0)
(-0.0367373 0.0325612 0)
(-0.0453096 0.0418576 0)
(-0.0546866 0.0512468 0)
(-0.0648389 0.0606619 0)
(-0.0756942 0.0700383 0)
(-0.0870771 0.0792161 0)
(-0.0987227 0.0879455 0)
(-0.110295 0.0958879 0)
(-0.121443 0.102695 0)
(-0.131897 0.108121 0)
(-0.14147 0.112035 0)
(-0.150084 0.114443 0)
(-0.157744 0.115453 0)
(-0.16451 0.115237 0)
(-0.170448 0.113967 0)
(-0.175617 0.111797 0)
(-0.180071 0.108867 0)
(-0.183853 0.105297 0)
(-0.187009 0.101196 0)
(-0.189583 0.0966628 0)
(-0.191626 0.0917886 0)
(-0.193187 0.0866557 0)
(-0.194321 0.0813372 0)
(-0.195081 0.0758966 0)
(-0.195519 0.0703869 0)
(-0.195684 0.0648512 0)
(-0.195622 0.0593232 0)
(-0.195373 0.0538271 0)
(-0.194972 0.0483798 0)
(-0.194449 0.0429908 0)
(-0.193828 0.0376624 0)
(-0.193129 0.0323911 0)
(-0.192369 0.0271703 0)
(-0.191561 0.0219884 0)
(-0.190718 0.0168306 0)
(-0.18985 0.0116794 0)
(-0.188967 0.00651475 0)
(-0.18808 0.00131432 0)
(-0.187201 -0.00394714 0)
(-0.186341 -0.00929535 0)
(-0.185514 -0.0147606 0)
(-0.184737 -0.0203745 0)
(-0.184028 -0.0261717 0)
(-0.183406 -0.0321888 0)
(-0.182893 -0.0384649 0)
(-0.18251 -0.0450412 0)
(-0.182278 -0.05196 0)
(-0.182216 -0.0592629 0)
(-0.182334 -0.0669888 0)
(-0.182637 -0.0751705 0)
(-0.183113 -0.0838307 0)
(-0.183732 -0.0929741 0)
(-0.184433 -0.102578 0)
(-0.185119 -0.112584 0)
(-0.185633 -0.122874 0)
(-0.185746 -0.133246 0)
(-0.185135 -0.143354 0)
(-0.18339 -0.15261 0)
(-0.179983 -0.160326 0)
(-0.174379 -0.16611 0)
(-0.165717 -0.168237 0)
(-0.153298 -0.165501 0)
(-0.137382 -0.157428 0)
(-0.118559 -0.143854 0)
(-0.0978986 -0.125219 0)
(-0.0766512 -0.102423 0)
(-0.0565235 -0.0772733 0)
(-0.038928 -0.051912 0)
(-0.0245971 -0.0280187 0)
(-0.0138056 -0.00720928 0)
(-0.00641101 0.00917779 0)
(-0.00206008 0.0197267 0)
(9.30327e-05 0.0232195 0)
(0.000446645 0.0139456 0)
(-0.000782909 -0.00997997 0)
(-0.00607004 -0.0049843 0)
(-0.0120824 0.00365406 0)
(-0.0186679 0.0125179 0)
(-0.0258953 0.0216966 0)
(-0.0337048 0.0312407 0)
(-0.0421698 0.0410947 0)
(-0.0513388 0.0511451 0)
(-0.0612024 0.0612646 0)
(-0.071705 0.0713476 0)
(-0.0826986 0.0812218 0)
(-0.0939577 0.0906503 0)
(-0.105182 0.0993107 0)
(-0.116045 0.106852 0)
(-0.126275 0.113001 0)
(-0.135658 0.117572 0)
(-0.144095 0.120541 0)
(-0.151574 0.121999 0)
(-0.158137 0.12211 0)
(-0.163851 0.121057 0)
(-0.168773 0.119008 0)
(-0.172954 0.11611 0)
(-0.176441 0.112498 0)
(-0.179281 0.10829 0)
(-0.181527 0.1036 0)
(-0.183232 0.0985294 0)
(-0.184457 0.093173 0)
(-0.185263 0.0876151 0)
(-0.18571 0.0819289 0)
(-0.185856 0.0761755 0)
(-0.185754 0.0704047 0)
(-0.185452 0.064655 0)
(-0.184992 0.0589542 0)
(-0.184408 0.0533208 0)
(-0.183731 0.0477656 0)
(-0.182982 0.0422923 0)
(-0.18218 0.0368987 0)
(-0.181338 0.0315779 0)
(-0.180467 0.0263203 0)
(-0.179576 0.0211116 0)
(-0.178671 0.0159359 0)
(-0.17776 0.0107751 0)
(-0.176847 0.00560927 0)
(-0.175942 0.000417167 0)
(-0.175052 -0.00482353 0)
(-0.174185 -0.0101397 0)
(-0.173357 -0.0155581 0)
(-0.172582 -0.0211083 0)
(-0.171877 -0.026822 0)
(-0.171265 -0.0327338 0)
(-0.170768 -0.0388811 0)
(-0.170413 -0.0453043 0)
(-0.170225 -0.0520462 0)
(-0.170232 -0.0591514 0)
(-0.170456 -0.0666646 0)
(-0.170915 -0.0746289 0)
(-0.171615 -0.0830815 0)
(-0.172548 -0.0920484 0)
(-0.173683 -0.101536 0)
(-0.174956 -0.111521 0)
(-0.176264 -0.121934 0)
(-0.177442 -0.132646 0)
(-0.178252 -0.14344 0)
(-0.178344 -0.153962 0)
(-0.177248 -0.163613 0)
(-0.174394 -0.171538 0)
(-0.169071 -0.176867 0)
(-0.160406 -0.178175 0)
(-0.147637 -0.173928 0)
(-0.130863 -0.163344 0)
(-0.110904 -0.14645 0)
(-0.0891036 -0.124014 0)
(-0.0670942 -0.0974183 0)
(-0.0468691 -0.0691363 0)
(-0.0298946 -0.0417638 0)
(-0.0167964 -0.017261 0)
(-0.00762413 0.00258486 0)
(-0.00213464 0.0161432 0)
(0.000465955 0.0219469 0)
(0.000621452 0.0143957 0)
(-0.00123326 -0.00628106 0)
(-0.00748532 0.00115748 0)
(-0.0142489 0.0105179 0)
(-0.0215548 0.0198586 0)
(-0.0294607 0.0295524 0)
(-0.037884 0.0396891 0)
(-0.0468861 0.0501879 0)
(-0.0564936 0.0608806 0)
(-0.0666751 0.0716048 0)
(-0.0773077 0.0821531 0)
(-0.0882055 0.0922795 0)
(-0.0991098 0.101683 0)
(-0.109719 0.110006 0)
(-0.119767 0.116953 0)
(-0.12902 0.122288 0)
(-0.137345 0.125931 0)
(-0.14471 0.127948 0)
(-0.151143 0.128488 0)
(-0.1567 0.127738 0)
(-0.16144 0.125882 0)
(-0.165416 0.123079 0)
(-0.168675 0.119477 0)
(-0.171271 0.115209 0)
(-0.173259 0.110399 0)
(-0.174701 0.105165 0)
(-0.175664 0.0996131 0)
(-0.176215 0.0938401 0)
(-0.17642 0.0879291 0)
(-0.176344 0.0819503 0)
(-0.176042 0.07596 0)
(-0.175565 0.0700015 0)
(-0.174957 0.0641064 0)
(-0.174251 0.0582956 0)
(-0.173477 0.0525809 0)
(-0.172655 0.0469669 0)
(-0.171803 0.0414518 0)
(-0.17093 0.0360291 0)
(-0.170045 0.0306887 0)
(-0.169153 0.0254176 0)
(-0.168257 0.0202015 0)
(-0.16736 0.015023 0)
(-0.166463 0.00986263 0)
(-0.16557 0.00470254 0)
(-0.164683 -0.000477365 0)
(-0.163809 -0.00569792 0)
(-0.162957 -0.0109835 0)
(-0.162135 -0.0163582 0)
(-0.161359 -0.0218482 0)
(-0.160646 -0.027482 0)
(-0.160017 -0.033291 0)
(-0.159496 -0.0393096 0)
(-0.159111 -0.0455757 0)
(-0.158894 -0.052131 0)
(-0.158875 -0.0590206 0)
(-0.159087 -0.0662924 0)
(-0.159557 -0.0739958 0)
(-0.160307 -0.0821791 0)