/*--------------------------------*- C++ -*----------------------------------*\
  =========                 |
  \\      /  F ield         | OpenFOAM: The Open Source CFD Toolbox
   \\    /   O peration     | Website:  https://openfoam.org
    \\  /    A nd           | Version:  13
     \\/     M anipulation  |
\*---------------------------------------------------------------------------*/
FoamFile
{
    format      ascii;
    class       surfaceScalarField;
    location    "10";
    object      phi;
}
// * * * * * * * * * * * * * * * * * * * * * * * * * * * * * * * * * * * * * //

dimensions      [0 3 -1 0 0 0 0];

internalField   nonuniform List<scalar> 
760
(
1.22196e-07
-1.22199e-07
-1.69904e-07
2.921e-07
-1.03676e-06
8.66856e-07
-2.37651e-06
1.33975e-06
-3.78982e-06
1.4133e-06
-5.04788e-06
1.25806e-06
-6.10911e-06
1.06123e-06
-6.94928e-06
8.40171e-07
-7.56203e-06
6.12744e-07
-7.96621e-06
4.04185e-07
-8.17409e-06
2.07878e-07
-8.17348e-06
-6.12309e-10
-7.96379e-06
-2.09691e-07
-7.54335e-06
-4.20437e-07
-6.84486e-06
-6.98495e-07
-5.84693e-06
-9.97928e-07
-4.49416e-06
-1.35276e-06
-2.83312e-06
-1.66104e-06
-1.08886e-06
-1.74426e-06
-1.08886e-06
-4.26665e-07
3.04466e-07
-1.45321e-06
1.31865e-06
-2.83347e-06
2.24711e-06
-4.09605e-06
2.60234e-06
-5.18213e-06
2.49939e-06
-6.13423e-06
2.21017e-06
-6.91122e-06
1.83821e-06
-7.51826e-06
1.44722e-06
-7.97114e-06
1.06562e-06
-8.26207e-06
6.95116e-07
-8.37594e-06
3.21745e-07
-8.31713e-06
-5.9417e-08
-8.09619e-06
-4.30632e-07
-7.67598e-06
-8.40647e-07
-7.05511e-06
-1.31937e-06
-6.18578e-06
-1.86726e-06
-5.03336e-06
-2.50519e-06
-3.53621e-06
-3.15819e-06
-1.73372e-06
-3.54674e-06
-2.82258e-06
-1.03185e-06
1.33632e-06
-2.37321e-06
2.66001e-06
-3.55755e-06
3.43144e-06
-4.54228e-06
3.58707e-06
-5.37466e-06
3.33177e-06
-6.06138e-06
2.89688e-06
-6.59998e-06
2.37681e-06
-6.98074e-06
1.82798e-06
-7.22504e-06
1.30992e-06
-7.33489e-06
8.04973e-07
-7.33327e-06
3.20118e-07
-7.22874e-06
-1.63944e-07
-7.00517e-06
-6.54205e-07
-6.64669e-06
-1.19913e-06
-6.14165e-06
-1.8244e-06
-5.45582e-06
-2.55309e-06
-4.56107e-06
-3.39994e-06
-3.39153e-06
-4.32773e-06
-1.86513e-06
-5.07314e-06
-4.68772e-06
-1.25571e-06
2.59203e-06
-2.48557e-06
3.88986e-06
-3.47982e-06
4.4257e-06
-4.25573e-06
4.36298e-06
-4.86709e-06
3.94312e-06
-5.33086e-06
3.36065e-06
-5.66322e-06
2.70917e-06
-5.89133e-06
2.05609e-06
-6.02266e-06
1.44125e-06
-6.07157e-06
8.5389e-07
-6.03903e-06
2.87578e-07
-5.92637e-06
-2.76608e-07
-5.72149e-06
-8.59082e-07
-5.42324e-06
-1.49738e-06
-5.02205e-06
-2.22558e-06
-4.49438e-06
-3.08076e-06
-3.8073e-06
-4.08702e-06
-2.90519e-06
-5.22984e-06
-1.65887e-06
-6.31946e-06
-6.34659e-06
-1.18099e-06
3.77302e-06
-2.2239e-06
4.93277e-06
-3.0324e-06
5.2342e-06
-3.64221e-06
4.9728e-06
-4.09309e-06
4.394e-06
-4.41311e-06
3.68067e-06
-4.632e-06
2.92806e-06
-4.77517e-06
2.19926e-06
-4.84858e-06
1.51466e-06
-4.85901e-06
8.64323e-07
-4.80683e-06
2.354e-07
-4.69178e-06
-3.91663e-07
-4.51014e-06
-1.04072e-06
-4.26343e-06
-1.74409e-06
-3.94895e-06
-2.54007e-06
-3.55373e-06
-3.47598e-06
-3.04407e-06
-4.59668e-06
-2.35604e-06
-5.91788e-06
-1.39035e-06
-7.28514e-06
-7.73694e-06
-9.71812e-07
4.74484e-06
-1.80735e-06
5.76831e-06
-2.44805e-06
5.8749e-06
-2.9184e-06
5.44315e-06
-3.25331e-06
4.72891e-06
-3.48356e-06
3.91092e-06
-3.63824e-06
3.08275e-06
-3.73506e-06
2.29607e-06
-3.77976e-06
1.55936e-06
-3.77571e-06
8.60276e-07
-3.72283e-06
1.82513e-07
-3.61962e-06
-4.94868e-07
-3.46493e-06
-1.19541e-06
-3.26126e-06
-1.94776e-06
-3.01217e-06
-2.78915e-06
-2.71676e-06
-3.77139e-06
-2.35943e-06
-4.95401e-06
-1.87704e-06
-6.40027e-06
-1.12482e-06
-8.03737e-06
-8.86176e-06
-7.37821e-07
5.48266e-06
-1.35816e-06
6.38865e-06
-1.83755e-06
6.35428e-06
-2.18651e-06
5.79211e-06
-2.43392e-06
4.97633e-06
-2.60471e-06
4.0817e-06
-2.72062e-06
3.19866e-06
-2.79353e-06
2.36897e-06
-2.82829e-06
1.59412e-06
-2.82667e-06
8.58665e-07
-2.78696e-06
1.42799e-07
-2.70654e-06
-5.75285e-07
-2.58384e-06
-1.31811e-06
-2.42164e-06
-2.10996e-06
-2.22761e-06
-2.98319e-06
-2.00857e-06
-3.99042e-06
-1.75883e-06
-5.20375e-06
-1.4272e-06
-6.7319e-06
-9.21857e-07
-8.54271e-06
-9.78361e-06
-4.82264e-07
5.96492e-06
-9.14727e-07
6.82111e-06
-1.24531e-06
6.68487e-06
-1.48887e-06
6.03566e-06
-1.66516e-06
5.15262e-06
-1.79115e-06
4.20769e-06
-1.88043e-06
3.28795e-06
-1.93998e-06
2.42852e-06
-1.97298e-06
1.62711e-06
-1.97988e-06
8.65565e-07
-1.95822e-06
1.21138e-07
-1.9051e-06
-6.28406e-07
-1.81879e-06
-1.40442e-06
-1.70173e-06
-2.22702e-06
-1.56314e-06
-3.12178e-06
-1.4153e-06
-4.13826e-06
-1.2584e-06
-5.36066e-06
-1.05218e-06
-6.93812e-06
-7.12271e-07
-8.88262e-06
-1.04959e-05
-2.59176e-07
6.2241e-06
-4.99786e-07
7.06172e-06
-6.87049e-07
6.87213e-06
-8.34975e-07
6.18359e-06
-9.4756e-07
5.26521e-06
-1.03405e-06
4.29418e-06
-1.10026e-06
3.35417e-06
-1.14867e-06
2.47693e-06
-1.18054e-06
1.65898e-06
-1.19562e-06
8.80642e-07
-1.19206e-06
1.17581e-07
-1.1675e-06
-6.52964e-07
-1.12069e-06
-1.45123e-06
-1.05371e-06
-2.29401e-06
-9.75596e-07
-3.19989e-06
-9.00412e-07
-4.21344e-06
-8.32024e-07
-5.42905e-06
-7.38895e-07
-7.03125e-06
-5.63378e-07
-9.05813e-06
-1.10593e-05
-2.93e-08
6.2534e-06
-1.07045e-07
7.13947e-06
-1.69421e-07
6.93451e-06
-2.21734e-07
6.2359e-06
-2.69764e-07
5.31323e-06
-3.15003e-07
4.33942e-06
-3.56295e-07
3.39546e-06
-3.91683e-07
2.51232e-06
-4.20238e-07
1.68754e-06
-4.41527e-07
9.0193e-07
-4.54934e-07
1.30989e-07
-4.59333e-07
-6.48565e-07
-4.54538e-07
-1.45602e-06
-4.42309e-07
-2.30624e-06
-4.30773e-07
-3.21143e-06
-4.2917e-07
-4.21504e-06
-4.60435e-07
-5.39778e-06
-4.72936e-07
-7.01875e-06
-4.19055e-07
-9.11201e-06
-1.14783e-05
1.86203e-07
6.06719e-06
2.8243e-07
7.04324e-06
3.51878e-07
6.86506e-06
3.80507e-07
6.20728e-06
3.92071e-07
5.30167e-06
3.88351e-07
4.34314e-06
3.74633e-07
3.40917e-06
3.55373e-07
2.53158e-06
3.32716e-07
1.7102e-06
3.06967e-07
9.27679e-07
2.7748e-07
1.60475e-07
2.43792e-07
-6.14876e-07
2.04827e-07
-1.41706e-06
1.58654e-07
-2.26006e-06
9.91197e-08
-3.15189e-06
5.67809e-10
-4.11649e-06
-1.06082e-07
-5.29113e-06
-2.42911e-07
-6.88192e-06
-3.17705e-07
-9.03722e-06
-1.1796e-05
3.89895e-07
5.6773e-06
6.50739e-07
6.7824e-06
8.44483e-07
6.67131e-06
9.66902e-07
6.08486e-06
1.04634e-06
5.22223e-06
1.09167e-06
4.29781e-06
1.11177e-06
3.38908e-06
1.11337e-06
2.52997e-06
1.09977e-06
1.7238e-06
1.07123e-06
9.56219e-07
1.02578e-06
2.05923e-07
9.61414e-07
-5.50511e-07
8.75161e-07
-1.3308e-06
7.64528e-07
-2.14943e-06
6.23388e-07
-3.01075e-06
4.4991e-07
-3.94301e-06
2.20094e-07
-5.06132e-06
-5.05143e-08
-6.61131e-06
-2.02491e-07
-8.88524e-06
-1.19985e-05
5.89118e-07
5.08818e-06
1.00897e-06
6.36255e-06
1.32491e-06
6.35537e-06
1.54668e-06
5.86308e-06
1.70158e-06
5.06733e-06
1.80553e-06
4.19385e-06
1.86845e-06
3.32616e-06
1.89803e-06
2.50039e-06
1.89838e-06
1.72345e-06
1.8699e-06
9.84697e-07
1.80947e-06
2.66362e-07
1.71395e-06
-4.54995e-07
1.57861e-06
-1.19546e-06
1.39956e-06
-1.97039e-06
1.17323e-06
-2.78442e-06
8.96635e-07
-3.66641e-06
5.48076e-07
-4.71276e-06
1.81861e-07
-6.24509e-06
-6.04243e-08
-8.64296e-06
-1.20589e-05
7.61105e-07
4.32708e-06
1.33011e-06
5.79354e-06
1.76527e-06
5.92022e-06
2.10417e-06
5.52418e-06
2.35286e-06
4.81864e-06
2.53121e-06
4.01551e-06
2.65053e-06
3.20684e-06
2.71899e-06
2.43193e-06
2.74115e-06
1.7013e-06
2.7176e-06
1.00825e-06
2.64451e-06
3.39444e-07
2.51714e-06
-3.2762e-07
2.33043e-06
-1.00876e-06
2.07878e-06
-1.71873e-06
1.7583e-06
-2.46394e-06
1.3706e-06
-3.27872e-06
9.05238e-07
-4.24739e-06
4.36241e-07
-5.7761e-06
8.70197e-08
-8.29374e-06
-1.19719e-05
9.06137e-07
3.42094e-06
1.60381e-06
5.09586e-06
2.16431e-06
5.35972e-06
2.63047e-06
5.05802e-06
2.99165e-06
4.45746e-06
3.26175e-06
3.74541e-06
3.4531e-06
3.01549e-06
3.5739e-06
2.31113e-06
3.62834e-06
1.64686e-06
3.61739e-06
1.0192e-06
3.53628e-06
4.20558e-07
3.37789e-06
-1.69236e-07
3.13924e-06
-7.70104e-07
2.81241e-06
-1.3919e-06
2.39198e-06
-2.04352e-06
1.88878e-06
-2.77552e-06
1.29683e-06
-3.65544e-06
7.07048e-07
-5.18632e-06
2.32406e-07
-7.81909e-06
-1.17395e-05
9.26052e-07
2.49489e-06
1.73957e-06
4.28234e-06
2.45003e-06
4.64926e-06
3.06666e-06
4.44139e-06
3.57056e-06
3.95356e-06
3.961e-06
3.35498e-06
4.24732e-06
2.72916e-06
4.43903e-06
2.11943e-06
4.54008e-06
1.54581e-06
4.55249e-06
1.00678e-06
4.4732e-06
4.99852e-07
4.29049e-06
1.34697e-08
4.00417e-06
-4.8378e-07
3.60642e-06
-9.94154e-07
3.08883e-06
-1.52593e-06
2.47245e-06
-2.15913e-06
1.74958e-06
-2.93257e-06
1.03381e-06
-4.47055e-06
4.3115e-07
-7.21644e-06
-1.13084e-05
8.37558e-07
1.65733e-06
1.72885e-06
3.39105e-06
2.60589e-06
3.77222e-06
3.39159e-06
3.65569e-06
4.05598e-06
3.28917e-06
4.59081e-06
2.82015e-06
4.99413e-06
2.32584e-06
5.27438e-06
1.83918e-06
5.43604e-06
1.38414e-06
5.48276e-06
9.60061e-07
5.41334e-06
5.69271e-07
5.23054e-06
1.9627e-07
4.912e-06
-1.65235e-07
4.4697e-06
-5.51857e-07
3.88345e-06
-9.39675e-07
3.17967e-06
-1.45535e-06
2.34924e-06
-2.10214e-06
1.50582e-06
-3.62713e-06
7.06959e-07
-6.41758e-06
-1.06014e-05
3.54591e-07
1.30274e-06
1.37486e-06
2.37079e-06
2.44259e-06
2.70448e-06
3.43794e-06
2.66034e-06
4.2966e-06
2.43051e-06
5.00324e-06
2.11351e-06
5.5545e-06
1.77458e-06
5.95292e-06
1.44076e-06
6.20672e-06
1.13034e-06
6.32323e-06
8.43555e-07
6.30589e-06
5.86614e-07
6.16556e-06
3.36598e-07
5.89586e-06
1.04461e-07
5.48889e-06
-1.44882e-07
4.92137e-06
-3.7216e-07
4.22062e-06
-7.54603e-07
3.35732e-06
-1.23884e-06
2.42212e-06
-2.69193e-06
1.24068e-06
-5.23614e-06
-9.36072e-06
-5.11152e-07
1.81389e-06
6.14191e-07
1.24545e-06
2.00007e-06
1.31861e-06
3.2752e-06
1.38522e-06
4.38002e-06
1.32568e-06
5.30894e-06
1.18458e-06
6.06465e-06
1.01887e-06
6.64337e-06
8.62044e-07
7.06138e-06
7.12324e-07
7.32751e-06
5.77433e-07
7.46129e-06
4.52832e-07
7.46022e-06
3.37671e-07
7.33386e-06
2.3082e-07
7.07425e-06
1.14729e-07
6.69417e-06
7.91635e-09
6.19032e-06
-2.5075e-07
5.50032e-06
-5.48841e-07
4.5457e-06
-1.73731e-06
2.66671e-06
-3.35715e-06
-6.69401e-06
1.81389e-06
3.05934e-06
4.37794e-06
5.76316e-06
7.08884e-06
8.27342e-06
9.29229e-06
1.01543e-05
1.08667e-05
1.14441e-05
1.18969e-05
1.22346e-05
1.24654e-05
1.25801e-05
1.25881e-05
1.23373e-05
1.17885e-05
1.00512e-05
6.69401e-06
)
;

boundaryField
{
    movingWall
    {
        type            calculated;
        value           uniform 0;
    }
    fixedWalls
    {
        type            calculated;
        value           uniform 0;
    }
    frontAndBack
    {
        type            empty;
    }
}


// ************************************************************************* //
