/*--------------------------------*- C++ -*----------------------------------*\
  =========                 |
  \\      /  F ield         | OpenFOAM: The Open Source CFD Toolbox
   \\    /   O peration     | Website:  https://openfoam.org
    \\  /    A nd           | Version:  13
     \\/     M anipulation  |
\*---------------------------------------------------------------------------*/
FoamFile
{
    format      ascii;
    class       volVectorField;
    location    "10";
    object      U;
}
// * * * * * * * * * * * * * * * * * * * * * * * * * * * * * * * * * * * * * //

dimensions      [0 1 -1 0 0 0 0];

internalField   nonuniform List<vector> 
400
(
(0.00285672 -0.00330837 0)
(0.00152227 -0.000443661 0)
(-0.0074681 0.00427065 0)
(-0.0312579 0.0119625 0)
(-0.0646471 0.014592 0)
(-0.0911596 0.0125985 0)
(-0.11502 0.0107491 0)
(-0.132981 0.00832704 0)
(-0.147282 0.00628483 0)
(-0.15692 0.0039874 0)
(-0.162501 0.00215642 0)
(-0.164577 0.000185151 0)
(-0.16277 -0.00308365 0)
(-0.155649 -0.00521039 0)
(-0.143952 -0.00861911 0)
(-0.125891 -0.0115059 0)
(-0.101923 -0.0149632 0)
(-0.0717291 -0.0168786 0)
(-0.0383487 -0.0152867 0)
(-0.00954458 -0.00425577 0)
(-0.00246763 -0.00142788 0)
(-0.0142761 0.0132045 0)
(-0.0413835 0.0324485 0)
(-0.0703466 0.04122 0)
(-0.0951712 0.0399101 0)
(-0.115604 0.0355966 0)
(-0.132824 0.0299164 0)
(-0.145554 0.024029 0)
(-0.156399 0.0172405 0)
(-0.163418 0.0112868 0)
(-0.167561 0.00537772 0)
(-0.168032 -0.000414576 0)
(-0.165088 -0.00680096 0)
(-0.158473 -0.0138238 0)
(-0.14775 -0.0222855 0)
(-0.132097 -0.0318449 0)
(-0.111265 -0.0427205 0)
(-0.0848977 -0.0524074 0)
(-0.0528643 -0.0550005 0)
(-0.0196998 -0.0363136 0)
(-0.00885695 0.015326 0)
(-0.033168 0.0418934 0)
(-0.0600943 0.0581584 0)
(-0.0828016 0.0621411 0)
(-0.101124 0.0581512 0)
(-0.116092 0.0506349 0)
(-0.12801 0.0414953 0)
(-0.137057 0.0319253 0)
(-0.143207 0.023348 0)
(-0.146303 0.0146901 0)
(-0.147355 0.00616953 0)
(-0.146151 -0.00251624 0)
(-0.143099 -0.0115386 0)
(-0.137094 -0.0214182 0)
(-0.128356 -0.0327979 0)
(-0.116056 -0.0461014 0)
(-0.0997338 -0.0616706 0)
(-0.0788701 -0.0786023 0)
(-0.0519094 -0.0908702 0)
(-0.0226327 -0.0793078 0)
(-0.0128474 0.0398421 0)
(-0.0385592 0.0661535 0)
(-0.0617872 0.0787443 0)
(-0.0793373 0.0793467 0)
(-0.0928777 0.072664 0)
(-0.10333 0.0625484 0)
(-0.110962 0.050865 0)
(-0.116379 0.0389228 0)
(-0.119701 0.0274745 0)
(-0.121437 0.0164447 0)
(-0.121591 0.00590734 0)
(-0.120124 -0.00465832 0)
(-0.116958 -0.0156854 0)
(-0.111862 -0.0278035 0)
(-0.104808 -0.0416479 0)
(-0.0954151 -0.0578525 0)
(-0.0829907 -0.0767688 0)
(-0.0666209 -0.0978706 0)
(-0.044392 -0.116777 0)
(-0.0204899 -0.114505 0)
(-0.0128724 0.0629006 0)
(-0.0361281 0.0877692 0)
(-0.0548587 0.0961925 0)
(-0.0686112 0.0932264 0)
(-0.0787622 0.0834702 0)
(-0.0860643 0.0706123 0)
(-0.0911047 0.0565722 0)
(-0.0945566 0.0427027 0)
(-0.0966095 0.0295831 0)
(-0.0974318 0.0171354 0)
(-0.0970004 0.00515477 0)
(-0.095318 -0.00681775 0)
(-0.0923354 -0.0192374 0)
(-0.0880082 -0.0327877 0)
(-0.0823385 -0.0482374 0)
(-0.0752361 -0.0664749 0)
(-0.0661829 -0.0882507 0)
(-0.0537888 -0.113573 0)
(-0.0359994 -0.138744 0)
(-0.0180653 -0.144101 0)
(-0.0108726 0.084105 0)
(-0.0299001 0.106418 0)
(-0.0446156 0.110766 0)
(-0.0553323 0.104137 0)
(-0.0628721 0.0913565 0)
(-0.0680951 0.0760828 0)
(-0.071644 0.0602495 0)
(-0.0740537 0.0450439 0)
(-0.0754121 0.0307711 0)
(-0.0757993 0.0172186 0)
(-0.0752219 0.00410037 0)
(-0.0736548 -0.00899336 0)
(-0.0710581 -0.0225264 0)
(-0.0674342 -0.0371223 0)
(-0.0628474 -0.0535631 0)
(-0.0573662 -0.0728573 0)
(-0.0508566 -0.0961154 0)
(-0.0419134 -0.124167 0)
(-0.0301883 -0.155134 0)
(-0.0123469 -0.168227 0)
(-0.00889103 0.101658 0)
(-0.0224814 0.121282 0)
(-0.0336987 0.122221 0)
(-0.0416384 0.112422 0)
(-0.0471159 0.0971732 0)
(-0.0509204 0.080047 0)
(-0.0535468 0.0629135 0)
(-0.0553553 0.0467135 0)
(-0.0563936 0.031546 0)
(-0.056717 0.0171396 0)
(-0.0563047 0.00314291 0)
(-0.0550997 -0.0108708 0)
(-0.053046 -0.0253518 0)
(-0.0501546 -0.0408291 0)
(-0.046529 -0.0580185 0)
(-0.042316 -0.0779899 0)
(-0.0376866 -0.102061 0)
(-0.0312154 -0.132079 0)
(-0.0242783 -0.167025 0)
(-0.00993062 -0.188054 0)
(-0.0059365 0.114552 0)
(-0.0149434 0.132325 0)
(-0.0230245 0.130672 0)
(-0.0284345 0.118504 0)
(-0.0322333 0.101472 0)
(-0.0349529 0.083029 0)
(-0.0369177 0.0649582 0)
(-0.0383419 0.0480215 0)
(-0.0392421 0.0322054 0)
(-0.0396421 0.0171774 0)
(-0.0394997 0.00251666 0)
(-0.0387454 -0.0122227 0)
(-0.0373191 -0.027465 0)
(-0.0352349 -0.043648 0)
(-0.0326147 -0.0613575 0)
(-0.0296247 -0.0816396 0)
(-0.026691 -0.106037 0)
(-0.0223238 -0.137251 0)
(-0.0195309 -0.174962 0)
(-0.00634016 -0.203777 0)
(-0.00365831 0.122547 0)
(-0.00795406 0.139252 0)
(-0.0129012 0.13599 0)
(-0.0159864 0.122511 0)
(-0.0183152 0.104403 0)
(-0.0200916 0.0851688 0)
(-0.021478 0.0665128 0)
(-0.0225723 0.0490942 0)
(-0.0233577 0.0328504 0)
(-0.02383 0.0173988 0)
(-0.0239472 0.00226946 0)
(-0.0236529 -0.0129979 0)
(-0.0229007 -0.0288036 0)
(-0.0216976 -0.0455114 0)
(-0.0201847 -0.0635584 0)
(-0.0184786 -0.0839173 0)
(-0.0174043 -0.108343 0)
(-0.0146437 -0.140303 0)
(-0.0156439 -0.179964 0)
(-0.00446849 -0.216387 0)
(-0.000221967 0.125804 0)
(-0.00133759 0.143054 0)
(-0.00339461 0.138823 0)
(-0.00424075 0.124691 0)
(-0.00517331 0.106136 0)
(-0.00600648 0.0865536 0)
(-0.00678836 0.0676179 0)
(-0.0075172 0.0499463 0)
(-0.00814212 0.0334661 0)
(-0.00863992 0.0177761 0)
(-0.00898178 0.00238195 0)
(-0.00913822 -0.0131856 0)
(-0.00909396 -0.0293127 0)
(-0.00885293 -0.0463071 0)
(-0.00856791 -0.0644698 0)
(-0.00820046 -0.0846527 0)
(-0.00927629 -0.108759 0)
(-0.00782326 -0.141011 0)
(-0.0124821 -0.182065 0)
(-0.00192043 -0.226058 0)
(0.00209542 0.124243 0)
(0.00469283 0.142869 0)
(0.00587624 0.138654 0)
(0.00706998 0.124822 0)
(0.0075286 0.10644 0)
(0.00770163 0.0870224 0)
(0.0075976 0.0681694 0)
(0.00730485 0.0505034 0)
(0.00690239 0.0339932 0)
(0.00642532 0.0182638 0)
(0.00588706 0.00282792 0)
(0.00528713 -0.0127866 0)
(0.00459804 -0.0289557 0)
(0.00381757 -0.0459603 0)
(0.00274232 -0.0639892 0)
(0.00165336 -0.0837252 0)
(-0.00172974 -0.107418 0)
(-0.00145819 -0.139401 0)
(-0.0100337 -0.182076 0)
(-0.00012062 -0.233298 0)
(0.00416684 0.119425 0)
(0.0106758 0.139704 0)
(0.0144173 0.136528 0)
(0.0178868 0.123758 0)
(0.0199683 0.105773 0)
(0.021304 0.0867718 0)
(0.0220346 0.0682198 0)
(0.0222969 0.0507603 0)
(0.0222003 0.0344122 0)
(0.0217948 0.0188482 0)
(0.0210806 0.00360794 0)
(0.020036 -0.0117775 0)
(0.0185828 -0.0276812 0)
(0.016735 -0.0443808 0)
(0.0142416 -0.0619861 0)
(0.0113738 -0.0810237 0)
(0.00570046 -0.103938 0)
(0.00484343 -0.135347 0)
(-0.00806715 -0.179808 0)
(0.00263047 -0.238021 0)
(0.00647464 0.109883 0)
(0.0162152 0.132735 0)
(0.0230181 0.130917 0)
(0.0284193 0.120074 0)
(0.0323622 0.103296 0)
(0.0350233 0.0852175 0)
(0.0367679 0.0673835 0)
(0.0377487 0.0504724 0)
(0.0380828 0.0345836 0)
(0.0378302 0.0194629 0)
(0.0369766 0.00470606 0)
(0.035497 -0.010132 0)
(0.0332439 -0.025409 0)
(0.0302795 -0.0414306 0)
(0.0261682 -0.0582709 0)
(0.0214875 -0.0764807 0)
(0.013504 -0.0981591 0)
(0.0110506 -0.129053 0)
(-0.00633495 -0.175621 0)
(0.00570014 -0.240601 0)
(0.00841918 0.096541 0)
(0.0212082 0.123736 0)
(0.030787 0.124322 0)
(0.0383966 0.115114 0)
(0.0444557 0.0998425 0)
(0.0488027 0.0828453 0)
(0.0518622 0.0659075 0)
(0.0538151 0.0497556 0)
(0.0547732 0.0345568 0)
(0.0548077 0.0201313 0)
(0.0538835 0.00614509 0)
(0.0519956 -0.00781971 0)
(0.0488956 -0.0220912 0)
(0.0447706 -0.0370187 0)
(0.0388661 -0.0527071 0)
(0.0323295 -0.0697424 0)
(0.0217753 -0.0899936 0)
(0.0175584 -0.120718 0)
(-0.00420296 -0.169781 0)
(0.0100582 -0.241251 0)
(0.0102249 0.079598 0)
(0.0255634 0.109939 0)
(0.0376564 0.113435 0)
(0.0477003 0.106393 0)
(0.0560576 0.0933595 0)
(0.0624645 0.0781563 0)
(0.0671894 0.0627025 0)
(0.0704225 0.0478376 0)
(0.072249 0.0338129 0)
(0.0727626 0.0205273 0)
(0.0718817 0.00774035 0)
(0.0696557 -0.00492729 0)
(0.065684 -0.017729 0)
(0.0604055 -0.0310877 0)
(0.0525646 -0.0451464 0)
(0.0441694 -0.0607096 0)
(0.0306843 -0.0793803 0)
(0.0247359 -0.110105 0)
(-0.00176504 -0.162093 0)
(0.0151981 -0.240685 0)
(0.0104091 0.0599452 0)
(0.0278201 0.0959368 0)
(0.0421588 0.102468 0)
(0.0548807 0.0971889 0)
(0.066095 0.0860633 0)
(0.0751918 0.0726426 0)
(0.0821169 0.0587865 0)
(0.0870523 0.0453963 0)
(0.0900756 0.0327918 0)
(0.0913357 0.0209192 0)
(0.0906792 0.0096501 0)
(0.0882944 -0.00140799 0)
(0.0835168 -0.0123223 0)
(0.0772273 -0.0236697 0)
(0.0674337 -0.0355956 0)
(0.0573452 -0.049362 0)
(0.040721 -0.066182 0)
(0.0332961 -0.0972647 0)
(0.00144007 -0.15242 0)
(0.0219579 -0.237814 0)
(0.00896287 0.0403326 0)
(0.0270312 0.0753133 0)
(0.0438408 0.0842377 0)
(0.0595931 0.0815601 0)
(0.0739981 0.0731996 0)
(0.0862542 0.0625479 0)
(0.095866 0.0512122 0)
(0.102917 0.0401278 0)
(0.107431 0.0297449 0)
(0.10972 0.0200254 0)
(0.109439 0.0109465 0)
(0.107226 0.00210856 0)
(0.101928 -0.00643938 0)
(0.0951522 -0.0152894 0)
(0.083827 -0.0244614 0)
(0.072771 -0.0359969 0)
(0.0532956 -0.0503547 0)
(0.044983 -0.082057 0)
(0.00666085 -0.140394 0)
(0.031038 -0.229429 0)
(-0.00183877 0.0248269 0)
(0.0186433 0.0608418 0)
(0.0384417 0.0690108 0)
(0.0583036 0.0672937 0)
(0.0767992 0.0608451 0)
(0.0927511 0.0525783 0)
(0.105555 0.0439614 0)
(0.115322 0.035332 0)
(0.121904 0.0272429 0)
(0.125926 0.0197573 0)
(0.126749 0.0129654 0)
(0.125631 0.00653774 0)
(0.12089 0.00058261 0)
(0.115215 -0.00572024 0)
(0.103957 -0.0120075 0)
(0.0938257 -0.0209407 0)
(0.0728952 -0.0325213 0)
(0.0647906 -0.0643737 0)
(0.0196708 -0.123191 0)
(0.0464996 -0.205827 0)
(-0.0151206 0.0294811 0)
(-0.00118249 0.0286129 0)
(0.0265328 0.0342144 0)
(0.0525915 0.0357289 0)
(0.0761146 0.0337425 0)
(0.0966394 0.0296812 0)
(0.11363 0.0250441 0)
(0.127325 0.0205452 0)
(0.137302 0.0163595 0)
(0.144524 0.012433 0)
(0.148259 0.00901108 0)
(0.15003 0.00557781 0)
(0.148149 0.00272988 0)
(0.145135 -0.00105929 0)
(0.136924 -0.00421395 0)
(0.130236 -0.0105668 0)
(0.112387 -0.0194979 0)
(0.106091 -0.047159 0)
(0.0592627 -0.093822 0)
(0.0780218 -0.156305 0)
(0.0393922 0.0383133 0)
(0.0456791 0.0275088 0)
(0.0701157 0.0249183 0)
(0.100757 0.0252248 0)
(0.127682 0.0243619 0)
(0.152671 0.022372 0)
(0.174624 0.0198232 0)
(0.194146 0.0174843 0)
(0.209915 0.0151567 0)
(0.223492 0.0132411 0)
(0.233495 0.0112933 0)
(0.241885 0.00980245 0)
(0.246959 0.00807143 0)
(0.250761 0.00679165 0)
(0.251258 0.00485896 0)
(0.24865 0.00214021 0)
(0.239265 0.00186315 0)
(0.22359 -0.0103406 0)
(0.172877 -0.0134262 0)
(0.14585 -0.0652419 0)
)
;

boundaryField
{
    movingWall
    {
        type            fixedValue;
        value           uniform (1 0 0);
    }
    fixedWalls
    {
        type            noSlip;
    }
    frontAndBack
    {
        type            empty;
    }
}


// ************************************************************************* //
