/*--------------------------------*- C++ -*----------------------------------*\
  =========                 |
  \\      /  F ield         | OpenFOAM: The Open Source CFD Toolbox
   \\    /   O peration     | Website:  https://openfoam.org
    \\  /    A nd           | Version:  13
     \\/     M anipulation  |
\*---------------------------------------------------------------------------*/
FoamFile
{
    format      ascii;
    class       volScalarField;
    location    "7.8";
    object      k;
}
// * * * * * * * * * * * * * * * * * * * * * * * * * * * * * * * * * * * * * //

dimensions      [0 2 -2 0 0 0 0];

internalField   nonuniform List<scalar> 
6400
(
5.55539e-07
2.85418e-06
6.93645e-06
1.11753e-05
1.43735e-05
1.61763e-05
1.68444e-05
1.69323e-05
1.70606e-05
1.77239e-05
1.92942e-05
2.23047e-05
2.70217e-05
3.35295e-05
4.14788e-05
5.04273e-05
5.99191e-05
6.97756e-05
7.95349e-05
8.89719e-05
9.84705e-05
0.000108852
0.000121211
0.000136188
0.000153153
0.000170284
0.000187302
0.000204195
0.000221481
0.000239625
0.000258383
0.000277115
0.000295525
0.000313662
0.000331997
0.000350636
0.000369971
0.00039012
0.000411333
0.000433674
0.000457305
0.000482408
0.000509124
0.000537786
0.000568612
0.000602664
0.000641907
0.000690568
0.000739668
0.000789663
0.000838661
0.000886262
0.000930966
0.000971531
0.00100647
0.00103397
0.00104811
0.00105373
0.00105199
0.00103203
0.000996634
0.000945833
0.000880219
0.000802356
0.000713832
0.000619142
0.000522879
0.000428784
0.000340325
0.000261555
0.000197472
0.000143684
0.000100227
6.69948e-05
4.30665e-05
2.67588e-05
1.61185e-05
9.26071e-06
4.38041e-06
9.33421e-07
2.68688e-06
2.25899e-05
5.48025e-05
8.5653e-05
0.000108468
0.000122106
0.000128685
0.000131486
0.00013408
0.000139603
0.000151546
0.000173706
0.000207213
0.000251349
0.000303998
0.000362487
0.000424457
0.000487535
0.00054996
0.000611127
0.000673156
0.000740456
0.000818522
0.000909813
0.00101035
0.00111117
0.00120927
0.0013027
0.00139236
0.0014793
0.00156175
0.00163866
0.00170865
0.00177255
0.0018328
0.00189022
0.00194682
0.00200345
0.00206144
0.00212134
0.00218386
0.00224968
0.00231889
0.00239174
0.00246754
0.00254624
0.0026261
0.00270427
0.00278767
0.00287341
0.0029616
0.00304889
0.00313367
0.00321226
0.00328131
0.00333672
0.00336655
0.00337624
0.00336563
0.00332131
0.00323936
0.00311935
0.00295968
0.00276359
0.00253578
0.00228469
0.00202161
0.00175488
0.00149214
0.00123794
0.000995931
0.000775853
0.000584274
0.000423966
0.000295668
0.000197491
0.000126226
7.61242e-05
3.69419e-05
4.93646e-06
5.88023e-06
4.90362e-05
0.000113938
0.000168301
0.000205311
0.000227228
0.000239462
0.000248016
0.000258913
0.000278082
0.000311293
0.000363193
0.000435368
0.000525932
0.000630857
0.000745984
0.000868102
0.000994577
0.0011229
0.00125097
0.00137715
0.0015007
0.00161946
0.00172816
0.0018219
0.00189683
0.00195029
0.0019876
0.00201637
0.0020436
0.00207353
0.00210528
0.00213965
0.00217389
0.0022118
0.00225239
0.00229747
0.00234692
0.00240177
0.00246202
0.00252747
0.00259877
0.00267535
0.00275735
0.0028447
0.00293728
0.0030343
0.00313712
0.00324545
0.00335772
0.00347293
0.00358885
0.00370327
0.00381287
0.00391388
0.00400155
0.00407068
0.00410903
0.00412084
0.00410325
0.0040411
0.00393378
0.00377689
0.00357245
0.00332281
0.00303544
0.00272678
0.00240574
0.00208267
0.001768
0.00147065
0.00119734
0.000953073
0.000740266
0.000559838
0.000411038
0.000290598
0.000190963
9.71255e-05
1.32086e-05
1.02182e-05
8.24454e-05
0.000179054
0.000251584
0.000299099
0.000328677
0.000348833
0.000368079
0.000394767
0.000437039
0.000502087
0.000594269
0.000713254
0.000854283
0.00101055
0.00117557
0.00134366
0.00150927
0.00166638
0.00180918
0.00193203
0.002033
0.00210944
0.00215419
0.00217319
0.00217758
0.00217244
0.00216922
0.00216841
0.00217326
0.0021838
0.00219761
0.00221656
0.00224032
0.00226942
0.00230354
0.00234332
0.00238863
0.00243945
0.00249609
0.00255852
0.00262703
0.00270146
0.00278181
0.00286767
0.00295939
0.00305788
0.00316287
0.00327394
0.00339024
0.00351075
0.00363387
0.00375749
0.00387875
0.0039941
0.00409908
0.00418847
0.00425501
0.004287
0.00429329
0.00425751
0.00417694
0.00405293
0.00387996
0.003654
0.003376
0.00306291
0.00272527
0.00237866
0.00203731
0.0017133
0.0014154
0.00114875
0.000915404
0.000715396
0.000547111
0.000406193
0.000283002
0.000154208
2.20049e-05
1.63998e-05
0.000127109
0.000256223
0.000346169
0.000404367
0.000443044
0.000474131
0.000508982
0.000558454
0.000632431
0.000737997
0.000876934
0.00104463
0.00123185
0.0014279
0.00162266
0.00180684
0.00197162
0.00210786
0.00221138
0.00227115
0.00229415
0.00229585
0.00226542
0.00223481
0.00220727
0.00218483
0.00216961
0.00216238
0.00216001
0.00216123
0.00216792
0.00217917
0.00219469
0.00221434
0.0022381
0.00226585
0.00229729
0.0023324
0.00237141
0.00241435
0.00246168
0.00251419
0.00257259
0.00263782
0.00271001
0.00278883
0.0028748
0.00296809
0.00306879
0.00317673
0.00329137
0.00341173
0.00353627
0.00366285
0.00378813
0.00390749
0.00401534
0.00410505
0.00416105
0.00418158
0.00416216
0.00408502
0.00395233
0.00377225
0.0035354
0.003241
0.00290737
0.00255186
0.002193
0.001848
0.00153023
0.00124744
0.00100213
0.000793437
0.000618253
0.000470752
0.000338758
0.000192975
2.80919e-05
2.52227e-05
0.000186346
0.00034995
0.000458137
0.000528461
0.000578534
0.000624098
0.000679613
0.000758096
0.000869664
0.00101882
0.00120228
0.00140959
0.00162629
0.00183731
0.00202878
0.0021886
0.00230951
0.00237418
0.00239545
0.00238226
0.00233704
0.00229214
0.00224795
0.00220708
0.00217138
0.00214214
0.00211898
0.00210038
0.00208539
0.002073
0.00206535
0.00206124
0.00205969
0.00205964
0.00206324
0.00206901
0.00207762
0.00208907
0.00210385
0.0021222
0.00214477
0.00217145
0.00220277
0.00223928
0.00228147
0.00233013
0.00238622
0.00245072
0.00252476
0.00260929
0.00270516
0.00281289
0.00293236
0.00306251
0.0032017
0.00334736
0.00349474
0.00363807
0.00376793
0.0038754
0.00393259
0.00394884
0.00390587
0.003797
0.00362556
0.0033752
0.00306319
0.00270746
0.00233138
0.00195956
0.00161324
0.0013064
0.00104442
0.000825991
0.000645866
0.000495793
0.000361183
0.000210197
3.03371e-05
3.7463e-05
0.000262074
0.000462559
0.000590318
0.000674466
0.000738382
0.000801846
0.000882142
0.000993166
0.00114292
0.00133076
0.00154676
0.00177424
0.00199399
0.0021879
0.00234094
0.00243351
0.0024681
0.00246533
0.00241582
0.00236209
0.00229891
0.00223778
0.00217652
0.00212227
0.00207524
0.00203424
0.00199732
0.00196386
0.00193441
0.00190902
0.0018864
0.00186602
0.0018477
0.0018315
0.00181784
0.00180637
0.00179754
0.00179153
0.00178872
0.00178792
0.00179015
0.00179609
0.00180553
0.00181923
0.00183737
0.00186089
0.00189045
0.00192729
0.00197282
0.00202895
0.00209766
0.00218126
0.00228197
0.00240107
0.00253856
0.00269613
0.0028701
0.00305509
0.00324417
0.00342927
0.00359463
0.0037153
0.00376728
0.00376955
0.00368229
0.00351946
0.00325409
0.00291286
0.00252242
0.00211562
0.00172504
0.00137616
0.00108203
0.000843162
0.000652306
0.000496812
0.000359814
0.00020911
2.94675e-05
5.38378e-05
0.000355314
0.000594679
0.000743348
0.000842905
0.00092269
0.00100634
0.00111302
0.00125552
0.00143732
0.00165098
0.00187966
0.00210139
0.00229397
0.00243918
0.00251078
0.00252925
0.00249781
0.00244204
0.00236595
0.00228198
0.00219404
0.0021158
0.00204533
0.00198514
0.00192982
0.00187936
0.00183246
0.0017892
0.00174946
0.0017129
0.00167917
0.0016483
0.00162037
0.00159552
0.00157379
0.00155493
0.00153903
0.00152605
0.00151598
0.0015088
0.00150528
0.00150411
0.00150555
0.00151136
0.00152043
0.00153389
0.00155191
0.00157513
0.00160404
0.00163964
0.00168303
0.00173589
0.00180074
0.00188185
0.00198536
0.00211489
0.00227576
0.00246771
0.0026817
0.0029148
0.00315238
0.00337875
0.00356936
0.00366971
0.00369741
0.00364041
0.00347923
0.00318495
0.00279978
0.00236158
0.0019151
0.00150236
0.00115211
0.000873754
0.000659494
0.000492374
0.00035127
0.000202379
2.73967e-05
7.48466e-05
0.000465846
0.00074565
0.000916293
0.00103234
0.00112888
0.00123281
0.00136371
0.00153126
0.00173278
0.00195373
0.00217159
0.00236157
0.00249652
0.00255625
0.00256433
0.00251978
0.00245093
0.0023538
0.00224264
0.00213912
0.00204763
0.00196596
0.00189223
0.00182565
0.00176336
0.00170579
0.0016523
0.00160324
0.0015585
0.0015181
0.00148202
0.00145033
0.0014229
0.00139953
0.00138002
0.00136417
0.00135174
0.00134245
0.00133628
0.00133334
0.00133242
0.00133366
0.00133826
0.00134552
0.00135548
0.00136841
0.00138439
0.00140374
0.00142669
0.00145375
0.0014855
0.00152268
0.00156631
0.0016179
0.00167975
0.00175555
0.00185204
0.00198177
0.00216224
0.00238999
0.00265398
0.00293876
0.00322382
0.00347902
0.00363102
0.00368198
0.00365145
0.00348497
0.00314915
0.00270769
0.00221253
0.00172284
0.00129017
0.000943276
0.000683958
0.000492959
0.000338344
0.000188794
2.50531e-05
0.00010068
0.000591933
0.00091346
0.00110685
0.00123952
0.00135192
0.00147328
0.00162215
0.00180359
0.00200828
0.00221565
0.00239991
0.00252806
0.00258105
0.00258423
0.00253718
0.00245076
0.00232963
0.00220193
0.002086
0.0019817
0.00188897
0.00180487
0.00172792
0.00165717
0.00159172
0.00153218
0.00147844
0.00143086
0.00138934
0.00135381
0.00132399
0.00129955
0.00128002
0.00126488
0.00125361
0.00124567
0.00124108
0.00123907
0.00123862
0.00124061
0.00124451
0.00125034
0.00125814
0.00126775
0.00127928
0.00129286
0.00130864
0.00132685
0.00134773
0.00137143
0.00139827
0.00142857
0.00146277
0.00150133
0.00154496
0.0015952
0.0016548
0.00172883
0.00182635
0.00196307
0.00217037
0.00244999
0.00277167
0.0031132
0.00343205
0.00363623
0.00370878
0.00369383
0.00351043
0.00312087
0.00261325
0.00205715
0.00152774
0.00108351
0.000747458
0.000509285
0.000333566
0.000176468
2.31222e-05
0.000131811
0.000729791
0.001095
0.00131139
0.00145953
0.00158474
0.00171772
0.00187481
0.00205589
0.00224572
0.0024198
0.0025427
0.00259239
0.00259346
0.00254596
0.00244507
0.00230691
0.00216789
0.00203799
0.00192281
0.00181944
0.00172641
0.00164152
0.00156418
0.00149416
0.00143157
0.00137688
0.00133
0.00129086
0.00125893
0.00123362
0.00121416
0.00119974
0.00118956
0.00118293
0.00117966
0.00117847
0.00117846
0.00118108
0.00118479
0.0011902
0.00119691
0.0012051
0.00121473
0.0012259
0.00123873
0.00125335
0.0012699
0.00128851
0.00130929
0.00133236
0.00135784
0.00138585
0.00141659
0.00145037
0.00148742
0.00152774
0.00157205
0.00162193
0.00168094
0.00175702
0.00186467
0.00202879
0.00229417
0.00264617
0.00303415
0.0034169
0.00366993
0.00376037
0.00374756
0.00353009
0.00307375
0.00249284
0.00187848
0.00132081
0.000878154
0.000560561
0.000343556
0.000173099
2.2447e-05
0.000169635
0.000875022
0.00128657
0.00152517
0.00168612
0.00181907
0.00195543
0.00210884
0.00227434
0.00243244
0.00254919
0.00259728
0.00259812
0.0025512
0.00244193
0.00229286
0.00214158
0.00200014
0.00187309
0.00176054
0.00165928
0.00156815
0.00148613
0.00141338
0.00135006
0.0012963
0.00125198
0.00121644
0.00118886
0.00116814
0.00115319
0.00114289
0.00113628
0.00113299
0.00113168
0.00113151
0.00113315
0.00113589
0.00113995
0.00114495
0.00115118
0.00115855
0.00116728
0.00117746
0.00118925
0.00120283
0.00121838
0.00123604
0.00125597
0.00127828
0.00130303
0.00133024
0.00135982
0.00139161
0.00142542
0.00146108
0.00149861
0.00153839
0.0015804
0.00162501
0.00167495
0.00173662
0.00182391
0.0019611
0.00219016
0.00255591
0.0029838
0.0034283
0.00372027
0.0038215
0.00379357
0.00351892
0.00298176
0.00232479
0.00166445
0.00109689
0.000670696
0.000380819
0.00018042
2.32497e-05
0.000211621
0.00102773
0.00148404
0.0017427
0.00191244
0.00204652
0.00217661
0.00231381
0.0024495
0.00255639
0.0026025
0.00260389
0.00255767
0.002446
0.00229018
0.00212712
0.0019737
0.00183566
0.00171339
0.00160497
0.00150821
0.00142272
0.00134828
0.00128512
0.00123306
0.00119153
0.0011595
0.00113562
0.00111847
0.00110662
0.00109881
0.00109403
0.00109167
0.00109072
0.00109053
0.00109137
0.00109326
0.00109591
0.00109949
0.001104
0.00110967
0.0011166
0.001125
0.00113504
0.00114691
0.00116082
0.00117697
0.00119554
0.00121672
0.00124065
0.00126747
0.00129721
0.0013298
0.00136505
0.00140258
0.00144184
0.00148216
0.00152293
0.00156391
0.00160566
0.00164793
0.00169221
0.00174445
0.00181693
0.00193381
0.00213854
0.00249841
0.00296496
0.00346347
0.00377796
0.00387763
0.00381284
0.00345132
0.0028185
0.0020945
0.00140835
0.000855153
0.00046505
0.000206488
2.66456e-05
0.000256568
0.00118423
0.00168245
0.00195812
0.00213175
0.00225952
0.0023734
0.00248266
0.00257364
0.00261489
0.00261618
0.00256943
0.00245956
0.00230028
0.0021273
0.00196125
0.00181165
0.00167962
0.00156361
0.00146169
0.00137281
0.00129698
0.00123396
0.00118336
0.0011441
0.0011147
0.00109343
0.00107851
0.00106833
0.00106152
0.00105704
0.00105411
0.00105222
0.00105101
0.00105044
0.00105032
0.00105097
0.00105239
0.00105477
0.00105823
0.00106298
0.00106918
0.00107703
0.00108672
0.00109843
0.00111237
0.00112875
0.00114777
0.00116966
0.00119463
0.00122287
0.00125455
0.00128972
0.00132834
0.00137013
0.00141456
0.00146077
0.00150759
0.00155371
0.00159806
0.0016406
0.00168213
0.00172276
0.00176796
0.00183043
0.00193494
0.00212762
0.0024776
0.00297906
0.00352297
0.0038334
0.00391384
0.00378705
0.00329528
0.0025688
0.00179307
0.00111259
0.000605105
0.000263075
3.48156e-05
0.000303006
0.00134039
0.00187669
0.00216573
0.00233789
0.002452
0.00254051
0.00261046
0.00264242
0.00264065
0.00259075
0.00248476
0.00232475
0.00214388
0.00196526
0.00180273
0.00165999
0.00153568
0.00142791
0.00133538
0.00125756
0.00119413
0.00114417
0.00110625
0.00107842
0.00105858
0.00104471
0.00103502
0.00102813
0.00102298
0.00101889
0.00101544
0.00101241
0.00100977
0.0010076
0.00100612
0.00100549
0.0010054
0.00100659
0.00100913
0.00101309
0.00101868
0.00102606
0.0010354
0.00104687
0.00106065
0.00107694
0.00109597
0.00111797
0.0011432
0.00117193
0.00120443
0.00124094
0.00128161
0.00132643
0.00137513
0.0014271
0.00148119
0.00153574
0.00158862
0.00163769
0.00168182
0.00172136
0.00175877
0.00180067
0.00185629
0.00195484
0.00214172
0.002495
0.0030311
0.00360148
0.00387621
0.00391782
0.00368765
0.00303901
0.00221876
0.00142622
0.000793209
0.000348354
4.78822e-05
0.000349561
0.00149224
0.00206209
0.00236056
0.00252577
0.00261968
0.00267293
0.00269366
0.00268306
0.00262655
0.00252418
0.00236519
0.00217848
0.00198782
0.00181102
0.00165563
0.00152159
0.00140674
0.00130944
0.00122871
0.00116377
0.00111341
0.00107572
0.0010484
0.00102899
0.00101525
0.00100527
0.00099762
0.000991301
0.000985684
0.000980441
0.000975458
0.000970766
0.000966488
0.000962796
0.000959871
0.000958083
0.000957368
0.000957405
0.000959358
0.000962814
0.000967995
0.000975049
0.000984101
0.000995308
0.00100883
0.00102485
0.00104358
0.00106526
0.00109016
0.00111859
0.0011509
0.00118746
0.0012286
0.00127459
0.00132555
0.00138128
0.00144112
0.00150376
0.00156704
0.00162798
0.00168317
0.00173073
0.00176951
0.00179898
0.00183696
0.00189143
0.00198795
0.0021775
0.00254932
0.00312805
0.00368364
0.00391258
0.00387808
0.00345705
0.00265444
0.00177602
0.00101787
0.000454878
6.46845e-05
0.000395285
0.00163539
0.00223491
0.00253942
0.0026908
0.00275436
0.00276947
0.00274693
0.0026818
0.00258122
0.00242352
0.00223273
0.00203095
0.00183884
0.00166835
0.00152218
0.00139836
0.00129465
0.00120954
0.00114177
0.00108973
0.00105115
0.00102334
0.00100355
0.000989277
0.000978508
0.00096976
0.00096205
0.00095481
0.000947779
0.000940908
0.000934282
0.000928061
0.000922432
0.000917589
0.000913715
0.00091108
0.000909847
0.000909538
0.00091096
0.000914164
0.000919091
0.000925921
0.000934746
0.000945702
0.00095893
0.000974593
0.000992882
0.00101402
0.00103828
0.00106597
0.00109746
0.00113319
0.00117359
0.00121917
0.00127031
0.0013273
0.00139005
0.00145793
0.00152946
0.00160204
0.00167179
0.00173386
0.00178588
0.00182459
0.00184478
0.00187787
0.00193324
0.00203202
0.00223327
0.00263871
0.00326152
0.00375921
0.0039178
0.00374338
0.00307198
0.00214815
0.00127002
0.000576401
8.41706e-05
0.000439248
0.00176864
0.00239178
0.00269488
0.00282628
0.00286122
0.00283988
0.002769
0.00265867
0.0025023
0.00230836
0.00209667
0.00188872
0.00170067
0.00153914
0.00140359
0.00129126
0.00119988
0.00112764
0.0010725
0.00103184
0.00100261
0.00098173
0.000966448
0.000954584
0.000944583
0.000935449
0.000926641
0.000917941
0.000909347
0.000900978
0.000893016
0.00088566
0.000879104
0.000873525
0.000869076
0.000865952
0.000864438
0.000863977
0.000865055
0.000868099
0.000872844
0.000879483
0.000888095
0.000898799
0.00091172
0.000927004
0.000944823
0.00096538
0.000988918
0.00101573
0.00104618
0.00108069
0.00111976
0.00116397
0.00121392
0.0012702
0.00133324
0.00140313
0.00147927
0.00156006
0.00164242
0.00172148
0.00179073
0.0018473
0.00188039
0.00189534
0.00192295
0.00198055
0.00208678
0.0023118
0.00277567
0.00344063
0.00380484
0.00385358
0.00344467
0.00253273
0.00154568
0.000709003
0.000105418
0.000479767
0.00188851
0.00252761
0.00282441
0.00293373
0.00294465
0.00288078
0.00276238
0.00260614
0.00240763
0.00218701
0.00196337
0.00175568
0.00157515
0.00142416
0.00130023
0.00120019
0.0011215
0.00106162
0.00101757
0.000985956
0.000963325
0.000946632
0.00093348
0.000922179
0.00091168
0.000901431
0.000891234
0.000881109
0.000871197
0.000861693
0.0008528
0.000844708
0.000837585
0.000831574
0.000826797
0.000823378
0.000821684
0.000821123
0.000821934
0.000824807
0.000829363
0.000835786
0.000844157
0.000854583
0.000867183
0.000882089
0.000899457
0.000919468
0.000942338
0.000968332
0.000997771
0.00103105
0.00106866
0.00111117
0.00115928
0.00121375
0.00127534
0.00134467
0.001422
0.00150681
0.00159731
0.00168987
0.00177854
0.00185499
0.00191241
0.00193753
0.00194815
0.00197139
0.00203326
0.00215374
0.00242319
0.00297242
0.00360143
0.00384791
0.00368418
0.00290868
0.00184112
0.00085018
0.000127748
0.000515384
0.00199202
0.00264031
0.00292791
0.00301814
0.00300201
0.00289636
0.00273754
0.00253418
0.00230429
0.00206548
0.00183687
0.00163382
0.00146292
0.00132342
0.00121165
0.00112407
0.0010575
0.00100855
0.000973438
0.000948337
0.000929829
0.000915216
0.000902607
0.000890835
0.000879298
0.000867784
0.000856319
0.000845051
0.000834181
0.000823911
0.000814426
0.000805884
0.000798417
0.000792135
0.000787133
0.000783495
0.000781603
0.00078093
0.000781449
0.000784083
0.00078839
0.000794537
0.000802613
0.00081272
0.000824973
0.000839497
0.000856437
0.000875957
0.00089825
0.000923546
0.000952128
0.000984345
0.00102063
0.00106154
0.00110773
0.00116003
0.00121934
0.00128663
0.00136274
0.0014481
0.00154219
0.00164295
0.00174597
0.00184383
0.00192601
0.00197941
0.00199579
0.00200158
0.00202303
0.00209146
0.00223791
0.00258253
0.00321961
0.00368675
0.00377023
0.00325584
0.00215096
0.000995216
0.000151092
0.000545303
0.00207801
0.00272951
0.00300624
0.00308067
0.00303458
0.00288999
0.00268952
0.00245156
0.00219778
0.00194787
0.00171948
0.00152394
0.0013639
0.00123633
0.00113677
0.0010611
0.00100538
0.000965421
0.000936954
0.000916121
0.000899826
0.000885881
0.000872924
0.000860246
0.000847588
0.000834957
0.000822501
0.000810418
0.000798907
0.000788148
0.00077829
0.000769455
0.000761742
0.000755236
0.000750013
0.00074614
0.000743972
0.000743146
0.000743315
0.000745611
0.000749594
0.000755393
0.000763109
0.000772845
0.000784716
0.000798844
0.000815366
0.000834437
0.00085623
0.00088095
0.000908844
0.000940213
0.000975436
0.001015
0.0010595
0.00110973
0.00116662
0.00123129
0.00130492
0.0013886
0.00148289
0.00158724
0.00169913
0.001813
0.00191931
0.00200333
0.00204461
0.00205358
0.00205492
0.00207716
0.0021575
0.00235077
0.00281916
0.00347574
0.00374561
0.00351014
0.00246445
0.00114202
0.000175199
0.000569094
0.00214649
0.00279628
0.00306119
0.00312092
0.00304515
0.00286894
0.00262979
0.00236322
0.00209217
0.0018368
0.00161232
0.00142608
0.00127746
0.00116183
0.00107399
0.00100915
0.000962596
0.000929574
0.000905701
0.000887378
0.000871994
0.000857899
0.000844205
0.000830556
0.000816917
0.00080342
0.000790258
0.000777627
0.000765699
0.000754617
0.000744494
0.000735422
0.000727478
0.000720731
0.000715245
0.000711084
0.000708521
0.000707431
0.000707302
0.000709125
0.000712712
0.000718097
0.000725394
0.000734709
0.000746157
0.000759863
0.000775962
0.0007946
0.000815942
0.000840172
0.00086751
0.000898216
0.000932618
0.000971129
0.00101428
0.00106278
0.00111749
0.00117955
0.00125027
0.00133111
0.00142338
0.0015278
0.00164364
0.00176768
0.00189292
0.00200771
0.00208366
0.00210878
0.00211069
0.00210503
0.00213461
0.00223814
0.00251657
0.00312466
0.00357969
0.0036203
0.00278036
0.00130335
0.000201712
0.000586685
0.00219814
0.002842
0.00309463
0.00314084
0.00303871
0.00283022
0.00256187
0.00227293
0.00199027
0.00173377
0.00151571
0.00133974
0.00120265
0.00109856
0.00102154
0.000966092
0.000926888
0.000898937
0.000878013
0.000860956
0.000845693
0.000831062
0.000816549
0.000802042
0.000787639
0.000773519
0.000759874
0.000746874
0.000734654
0.000723324
0.000712967
0.000703655
0.000695452
0.000688416
0.000682613
0.000678106
0.000675046
0.000673591
0.000673214
0.000674467
0.000677598
0.000682519
0.00068935
0.0006982
0.000709188
0.000722441
0.000738095
0.000756296
0.000777201
0.000800986
0.000827849
0.000858023
0.000891792
0.00092951
0.000971635
0.00101877
0.0010717
0.00113147
0.0011994
0.00127708
0.00136626
0.0014685
0.00158452
0.00171306
0.00184942
0.00198374
0.00209989
0.00216175
0.00217348
0.00216073
0.00214886
0.00219697
0.00235063
0.00279182
0.0034213
0.00363817
0.00309005
0.00150405
0.00023579
0.00059837
0.00223397
0.00286772
0.00310687
0.00314022
0.00301896
0.00278192
0.00248939
0.00218355
0.00189394
0.00163951
0.00142945
0.00126415
0.00113833
0.00104503
0.000977633
0.00093001
0.000896465
0.000872032
0.000852844
0.000836254
0.000820697
0.000805411
0.000790154
0.000774964
0.000759998
0.000745442
0.000731462
0.000718192
0.000705736
0.000694174
0.000683572
0.000673989
0.000665482
0.00065811
0.000651936
0.00064703
0.000643467
0.000641576
0.000640931
0.000641586
0.00064422
0.000648644
0.000654976
0.000663328
0.000673823
0.000686591
0.000701772
0.000719512
0.000739969
0.000763313
0.000789734
0.000819447
0.000852702
0.000889809
0.00093116
0.000977268
0.00102882
0.00108674
0.00115226
0.00122695
0.00131275
0.00141176
0.00152582
0.00165559
0.00179907
0.00194974
0.00209465
0.00219711
0.00223397
0.00223438
0.00220217
0.00219162
0.00227148
0.00253198
0.003148
0.00352628
0.00333404
0.00175873
0.000281794
0.000604159
0.00225432
0.00287457
0.00310348
0.0031288
0.00298453
0.00272651
0.00241508
0.00209716
0.0018043
0.00155419
0.00135303
0.00119837
0.00108323
0.00099975
0.000940651
0.000899341
0.000869993
0.000847881
0.000829599
0.00081301
0.000796985
0.00078107
0.000765201
0.000749494
0.000734124
0.000719255
0.000705021
0.000691525
0.000678843
0.000667038
0.000656164
0.000646276
0.000637431
0.000629688
0.000623114
0.000617778
0.000613753
0.00061136
0.000610423
0.000610518
0.00061262
0.000616532
0.000622348
0.000630181
0.000640157
0.000652411
0.000667084
0.000684329
0.000704307
0.000727189
0.000753162
0.000782431
0.000815229
0.000851833
0.000892585
0.000937923
0.000988437
0.00104493
0.00110848
0.00118058
0.00126314
0.00135849
0.00146911
0.00159695
0.0017421
0.00190076
0.00206285
0.00220995
0.00228992
0.00230483
0.00227582
0.00223703
0.00224698
0.00239225
0.0028672
0.00338769
0.00344932
0.0020632
0.000339513
0.000603772
0.00226197
0.00286961
0.00308887
0.00310263
0.00294121
0.00266663
0.00234111
0.00201519
0.00172193
0.00147765
0.00128575
0.00114137
0.00103613
0.000961359
0.000909229
0.000872872
0.000846541
0.000825878
0.00080797
0.000791144
0.000774618
0.000758159
0.000741809
0.000725718
0.000710049
0.000694938
0.000680487
0.000666774
0.000653858
0.000641791
0.000630624
0.000620412
0.000611213
0.000603091
0.000596117
0.000590364
0.000585913
0.000582967
0.000581625
0.000581372
0.00058289
0.000586288
0.000591584
0.000598889
0.000608328
0.000620041
0.000634174
0.000650885
0.00067034
0.000692718
0.000718208
0.000747014
0.000779361
0.000815508
0.000855759
0.000900498
0.000950229
0.00100564
0.00106767
0.00113766
0.00121742
0.0013093
0.00141615
0.0015409
0.00168549
0.00184903
0.00202504
0.00219875
0.002326
0.00237083
0.00236459
0.00229169
0.00225688
0.00232203
0.0026264
0.00324662
0.00347729
0.00240584
0.000406514
0.000600532
0.00225992
0.00285345
0.00305902
0.00306408
0.0028909
0.00260436
0.00226908
0.00193857
0.00164705
0.00140948
0.00122682
0.00109215
0.000995886
0.000928669
0.000882266
0.000849711
0.000825487
0.000805668
0.000787817
0.000770653
0.000753661
0.000736754
0.000720033
0.00070365
0.000687746
0.000672427
0.000657771
0.000643838
0.000630677
0.000618336
0.000606867
0.000596327
0.000586779
0.00057829
0.000570934
0.000564788
0.000559936
0.000556467
0.000554705
0.000554175
0.000555132
0.000558026
0.00056281
0.000569585
0.000578479
0.00058963
0.000603193
0.00061933
0.000638216
0.000660037
0.000684991
0.000713288
0.000745153
0.000780838
0.000820626
0.000864861
0.000913982
0.000968574
0.00102946
0.00109779
0.0011752
0.00126395
0.00136696
0.00148767
0.00162927
0.00179313
0.00197592
0.00216592
0.00233948
0.00242988
0.00244461
0.00238993
0.00230718
0.00229886
0.00246641
0.00302259
0.00339503
0.00274674
0.000475673
0.000593393
0.00225114
0.00282354
0.00301894
0.00301689
0.00283565
0.00254135
0.00220016
0.00186785
0.00157959
0.00134918
0.00117543
0.00104973
0.000961462
0.000900688
0.000858912
0.000829223
0.000806428
0.000787052
0.000769082
0.000751557
0.000734158
0.00071689
0.000699877
0.00068326
0.000667154
0.000651641
0.000636783
0.000622626
0.000609215
0.000596601
0.000584836
0.000573983
0.000564106
0.000555278
0.000547572
0.000541065
0.000535836
0.000531962
0.000529773
0.000528985
0.000529438
0.000531849
0.000536136
0.000542389
0.000550734
0.000561313
0.00057428
0.000589807
0.000608077
0.000629285
0.000653642
0.000681367
0.000712696
0.000747879
0.000787195
0.000830963
0.000879573
0.000933533
0.000993545
0.00106061
0.00113617
0.0012223
0.00132185
0.00143848
0.0015763
0.00173863
0.00192554
0.00213004
0.00233359
0.00247471
0.00251713
0.00249111
0.002368
0.0023087
0.00238713
0.00281424
0.00326083
0.00301526
0.000531189
0.000582304
0.0022327
0.00278483
0.00297141
0.002963
0.00277715
0.00247891
0.00213513
0.00180329
0.00151934
0.00129615
0.00113081
0.00101324
0.000931975
0.000876612
0.000838522
0.00081096
0.000789106
0.000769916
0.000751739
0.000733868
0.000716121
0.000698558
0.000681306
0.00066449
0.0006482
0.000632501
0.00061744
0.000603061
0.000589409
0.000576534
0.000564495
0.000553357
0.000543189
0.000534064
0.000526054
0.000519235
0.000513681
0.000509467
0.000506876
0.000505841
0.000505875
0.00050783
0.000511641
0.000517388
0.000525189
0.000535188
0.000547542
0.000562429
0.00058004
0.000600583
0.00062428
0.000651366
0.000682089
0.000716711
0.000755513
0.000798804
0.000846944
0.000900384
0.000959727
0.00102583
0.00109995
0.00118394
0.00128046
0.00139315
0.00152653
0.00168517
0.00187159
0.00208245
0.00230351
0.00249589
0.00258163
0.00258543
0.00247705
0.00235525
0.00235019
0.00264102
0.00313592
0.00314253
0.000556636
0.000567882
0.00220756
0.00273928
0.00291785
0.00290437
0.00271687
0.00241801
0.00207453
0.00174496
0.00146597
0.00124982
0.00109221
0.000981901
0.000906677
0.000855802
0.000820615
0.000794611
0.000773354
0.000754188
0.000735769
0.000717581
0.000699537
0.000681726
0.000664271
0.000647275
0.000630812
0.000614931
0.000599676
0.000585086
0.000571208
0.000558099
0.00054582
0.000534438
0.000524024
0.000514652
0.000506393
0.000499319
0.000493504
0.00048902
0.000486049
0.000484708
0.000484495
0.000486009
0.000489369
0.000494627
0.000501896
0.000511315
0.000523047
0.000537271
0.00055419
0.00057402
0.000596999
0.000623378
0.000653423
0.000687413
0.000725639
0.000768413
0.000816081
0.000869055
0.000927864
0.000993245
0.00106628
0.00114859
0.0012426
0.0013518
0.00148089
0.00163536
0.00181988
0.00203483
0.00227049
0.00250067
0.00263953
0.00266935
0.00259214
0.0024087
0.00234127
0.00248949
0.00302941
0.00317833
0.000561014
0.000550941
0.00217782
0.00268861
0.00285973
0.0028426
0.00265597
0.00235939
0.00201863
0.00169276
0.00141909
0.00120959
0.00105897
0.000955028
0.00088495
0.000837754
0.000804832
0.000779954
0.000759054
0.000739816
0.000721146
0.000702672
0.000684372
0.000666347
0.00064871
0.000631548
0.00061492
0.000598868
0.000583431
0.00056865
0.000554575
0.000541266
0.000528788
0.000517209
0.000506601
0.000497036
0.000488584
0.000481313
0.000475292
0.000470588
0.000467289
0.000465666
0.000465256
0.000466378
0.000469317
0.00047411
0.000480862
0.00048971
0.000500816
0.000514366
0.000530566
0.000549647
0.000571859
0.00059747
0.000626768
0.000660051
0.000697629
0.000739827
0.000786992
0.000839513
0.000897865
0.000962686
0.0010349
0.00111592
0.0012079
0.00131407
0.00143905
0.00158877
0.00176942
0.0019845
0.00222937
0.00248433
0.0026803
0.00274461
0.00270665
0.00251134
0.00237078
0.00241611
0.00286355
0.00315043
0.000549846
0.000532151
0.00214525
0.00263443
0.00279847
0.00277903
0.0025954
0.00230354
0.00196757
0.00164651
0.00137829
0.00117492
0.00103049
0.000932041
0.000866286
0.000822074
0.000790902
0.000766826
0.000746118
0.000726754
0.000707839
0.000689107
0.00067058
0.000652364
0.000634561
0.000617245
0.000600464
0.000584255
0.000568656
0.000553712
0.000539475
0.000526006
0.000513374
0.000501648
0.000490899
0.000481195
0.000472603
0.000465186
0.000459005
0.00045412
0.000450591
0.000448702
0.000448114
0.000448895
0.000451447
0.000455801
0.000462055
0.000470345
0.000480832
0.000493703
0.000509172
0.000527477
0.000548884
0.000573677
0.000602165
0.000634671
0.000671528
0.000713083
0.000759693
0.000811742
0.000869671
0.000934044
0.00100566
0.00108571
0.0011761
0.00127977
0.00140111
0.00154621
0.0017223
0.00193535
0.00218468
0.00245487
0.00269999
0.00281112
0.0028088
0.00263058
0.00241429
0.00238626
0.00271787
0.00307935
0.000530948
0.000512135
0.00211057
0.00257795
0.00273531
0.00271473
0.00253589
0.00225082
0.00192133
0.00160594
0.00134316
0.00114533
0.00100625
0.000912451
0.000850271
0.00080845
0.000778616
0.0007551
0.000734474
0.000714955
0.000695805
0.00067684
0.00065811
0.000639721
0.000621766
0.000604307
0.000587388
0.000571042
0.000555308
0.000540232
0.00052587
0.000512286
0.000499547
0.000487723
0.000476882
0.00046709
0.000458407
0.00045089
0.000444595
0.000439572
0.000435876
0.000433748
0.000432996
0.000433485