/*--------------------------------*- C++ -*----------------------------------*\
  =========                 |
  \\      /  F ield         | OpenFOAM: The Open Source CFD Toolbox
   \\    /   O peration     | Website:  https://openfoam.org
    \\  /    A nd           | Version:  13
     \\/     M anipulation  |
\*---------------------------------------------------------------------------*/
FoamFile
{
    format      ascii;
    class       volScalarField;
    location    "7.8";
    object      nut;
}
// * * * * * * * * * * * * * * * * * * * * * * * * * * * * * * * * * * * * * //

dimensions      [0 2 -1 0 0 0 0];

internalField   nonuniform List<scalar> 
6400
(
9.76587e-10
5.01739e-09
1.21937e-08
1.96451e-08
2.52672e-08
2.84364e-08
2.96108e-08
2.97654e-08
2.99909e-08
3.11567e-08
3.39169e-08
3.92086e-08
4.75001e-08
5.89393e-08
7.29126e-08
8.86423e-08
1.05327e-07
1.22653e-07
1.39808e-07
1.56396e-07
1.73093e-07
1.91342e-07
2.13066e-07
2.39394e-07
2.69216e-07
2.99329e-07
3.29243e-07
3.58939e-07
3.89325e-07
4.21218e-07
4.54191e-07
4.87119e-07
5.1948e-07
5.51362e-07
5.83592e-07
6.16357e-07
6.50345e-07
6.85764e-07
7.23053e-07
7.62325e-07
8.03864e-07
8.47991e-07
8.94954e-07
9.45337e-07
9.99523e-07
1.05938e-06
1.12836e-06
1.2139e-06
1.30021e-06
1.3881e-06
1.47422e-06
1.5579e-06
1.63648e-06
1.70778e-06
1.76919e-06
1.81753e-06
1.8424e-06
1.85228e-06
1.84921e-06
1.81412e-06
1.75189e-06
1.66259e-06
1.54725e-06
1.41038e-06
1.25477e-06
1.08833e-06
9.19114e-07
7.53713e-07
5.98219e-07
4.59759e-07
3.47113e-07
2.52565e-07
1.76177e-07
1.17763e-07
7.57019e-08
4.70366e-08
2.83331e-08
1.62786e-08
7.69996e-09
1.64079e-09
4.72329e-09
3.33677e-07
1.20084e-06
2.02472e-06
2.63432e-06
2.99475e-06
3.16323e-06
3.22707e-06
3.27058e-06
3.35544e-06
3.55747e-06
3.94032e-06
4.47324e-06
5.0884e-06
5.72329e-06
6.31655e-06
6.82419e-06
7.19913e-06
7.42873e-06
7.5288e-06
7.58009e-06
7.64899e-06
7.80241e-06
8.0669e-06
8.38149e-06
8.59236e-06
8.79506e-06
9.02692e-06
9.3341e-06
9.75475e-06
1.02947e-05
1.08885e-05
1.15315e-05
1.21938e-05
1.28945e-05
1.36184e-05
1.43752e-05
1.51588e-05
1.59763e-05
1.68228e-05
1.76925e-05
1.85909e-05
1.95148e-05
2.04905e-05
2.14823e-05
2.24587e-05
2.33924e-05
2.42293e-05
2.50948e-05
2.59714e-05
2.68578e-05
2.77362e-05
2.85922e-05
2.94048e-05
3.01518e-05
3.08833e-05
3.13419e-05
3.1637e-05
3.18361e-05
3.18137e-05
3.14582e-05
3.07993e-05
2.98115e-05
2.84833e-05
2.68173e-05
2.48652e-05
2.27239e-05
2.04161e-05
1.79736e-05
1.53278e-05
1.24346e-05
9.64326e-06
7.18075e-06
5.15026e-06
3.5734e-06
2.4319e-06
1.62738e-06
1.05308e-06
4.76898e-07
8.6774e-09
1.03369e-08
8.63517e-07
3.48962e-06
6.06443e-06
8.03848e-06
9.32574e-06
1.0057e-05
1.04364e-05
1.06686e-05
1.09322e-05
1.13614e-05
1.20282e-05
1.29055e-05
1.38946e-05
1.48699e-05
1.57244e-05
1.641e-05
1.69029e-05
1.72031e-05
1.73261e-05
1.72935e-05
1.72003e-05
1.71254e-05
1.71071e-05
1.71814e-05
1.74364e-05
1.77533e-05
1.80757e-05
1.84226e-05
1.879e-05
1.92744e-05
1.9953e-05
2.09359e-05
2.19336e-05
2.30675e-05
2.42561e-05
2.5525e-05
2.68144e-05
2.81576e-05
2.95925e-05
3.0985e-05
3.24208e-05
3.38276e-05
3.51627e-05
3.64387e-05
3.76886e-05
3.89019e-05
4.01232e-05
4.13531e-05
4.2583e-05
4.3805e-05
4.50071e-05
4.61736e-05
4.72843e-05
4.83128e-05
4.92247e-05
5.00184e-05
5.05574e-05
5.08023e-05
5.09721e-05
5.08071e-05
5.03236e-05
4.94805e-05
4.81603e-05
4.62838e-05
4.38646e-05
4.10978e-05
3.79711e-05
3.44976e-05
3.07145e-05
2.66744e-05
2.25165e-05
1.84388e-05
1.46431e-05
1.13024e-05
8.47474e-06
6.22868e-06
4.29454e-06
1.79117e-06
2.32183e-08
1.79626e-08
1.41463e-06
5.46631e-06
9.34339e-06
1.23466e-05
1.44152e-05
1.57053e-05
1.64424e-05
1.68813e-05
1.72532e-05
1.77523e-05
1.84994e-05
1.94723e-05
2.05329e-05
2.15227e-05
2.23302e-05
2.28973e-05
2.32218e-05
2.33336e-05
2.32909e-05
2.31596e-05
2.30491e-05
2.30252e-05
2.31235e-05
2.3175e-05
2.31849e-05
2.31531e-05
2.3539e-05
2.42679e-05
2.52375e-05
2.65143e-05
2.77241e-05
2.89216e-05
3.02007e-05
3.15131e-05
3.28028e-05
3.40979e-05
3.54574e-05
3.67459e-05
3.80241e-05
3.92525e-05
4.04638e-05
4.16278e-05
4.27526e-05
4.38322e-05
4.48837e-05
4.59365e-05
4.69905e-05
4.80426e-05
4.90872e-05
5.01173e-05
5.11229e-05
5.20912e-05
5.30055e-05
5.38459e-05
5.45888e-05
5.52082e-05
5.56855e-05
5.59367e-05
5.60038e-05
5.58544e-05
5.53576e-05
5.45761e-05
5.37912e-05
5.25061e-05
5.05873e-05
4.82188e-05
4.5359e-05
4.20835e-05
3.8441e-05
3.44755e-05
3.02519e-05
2.58778e-05
2.15164e-05
1.73711e-05
1.36067e-05
1.03325e-05
7.25059e-06
3.00927e-06
3.86806e-08
2.88291e-08
2.12323e-06
7.58638e-06
1.25696e-05
1.62937e-05
1.8807e-05
2.03493e-05
2.12076e-05
2.16965e-05
2.21377e-05
2.27837e-05
2.37187e-05
2.48405e-05
2.59545e-05
2.68871e-05
2.75415e-05
2.78991e-05
2.80007e-05
2.79015e-05
2.77224e-05
2.74627e-05
2.72831e-05
2.71219e-05
2.64917e-05
2.64239e-05
2.69367e-05
2.78754e-05
2.90027e-05
3.01573e-05
3.14526e-05
3.27143e-05
3.39396e-05
3.51438e-05
3.63181e-05
3.74045e-05
3.84185e-05
3.94356e-05
4.0384e-05
4.12029e-05
4.19733e-05
4.26613e-05
4.32997e-05
4.3904e-05
4.45016e-05
4.51164e-05
4.5747e-05
4.63748e-05
4.70112e-05
4.76575e-05
4.83173e-05
4.89921e-05
4.96823e-05
5.03861e-05
5.10988e-05
5.18133e-05
5.25173e-05
5.31931e-05
5.38104e-05
5.43364e-05
5.47149e-05
5.48648e-05
5.47806e-05
5.42683e-05
5.31659e-05
5.23638e-05
5.12202e-05
4.94148e-05
4.71102e-05
4.4371e-05
4.12495e-05
3.77833e-05
3.39967e-05
2.99241e-05
2.56525e-05
2.13859e-05
1.72947e-05
1.34496e-05
9.46607e-06
3.86012e-06
4.93806e-08
4.43388e-08
3.07551e-06
1.00872e-05
1.60918e-05
2.03225e-05
2.30175e-05
2.45657e-05
2.5379e-05
2.5881e-05
2.64481e-05
2.72899e-05
2.83871e-05
2.95575e-05
3.05862e-05
3.13214e-05
3.17039e-05
3.17523e-05
3.15938e-05
3.11683e-05
3.08456e-05
3.03105e-05
2.94275e-05
2.92773e-05
2.99675e-05
3.09223e-05
3.19288e-05
3.30798e-05
3.42293e-05
3.53301e-05
3.63908e-05
3.73006e-05
3.81634e-05
3.89535e-05
3.96392e-05
4.01838e-05
4.06673e-05
4.10532e-05
4.14327e-05
4.17181e-05
4.19664e-05
4.21864e-05
4.2396e-05
4.25891e-05
4.27718e-05
4.29516e-05
4.31263e-05
4.33029e-05
4.34892e-05
4.36942e-05
4.39284e-05
4.42033e-05
4.45306e-05
4.49228e-05
4.53888e-05
4.59294e-05
4.65401e-05
4.7232e-05
4.79757e-05
4.87413e-05
4.94732e-05
5.01578e-05
5.06096e-05
5.07714e-05
5.06272e-05
4.97884e-05
4.93182e-05
4.81201e-05
4.63687e-05
4.41243e-05
4.14757e-05
3.84986e-05
3.52253e-05
3.16387e-05
2.77083e-05
2.35797e-05
1.93825e-05
1.52611e-05
1.07751e-05
4.26947e-06
5.33274e-08
6.58557e-08
4.31464e-06
1.29992e-05
1.9909e-05
2.44496e-05
2.71324e-05
2.85438e-05
2.92535e-05
2.97787e-05
3.04785e-05
3.14576e-05
3.25917e-05
3.36559e-05
3.44529e-05
3.48806e-05
3.49376e-05
3.4461e-05
3.40051e-05
3.35352e-05
3.2345e-05
3.20041e-05
3.24743e-05
3.33168e-05
3.40711e-05
3.49543e-05
3.5835e-05
3.67224e-05
3.7488e-05
3.81505e-05
3.8733e-05
3.92412e-05
3.96612e-05
3.99823e-05
4.02128e-05
4.0367e-05
4.04738e-05
4.05313e-05
4.0563e-05
4.05376e-05
4.05165e-05
4.04977e-05
4.0422e-05
4.03591e-05
4.0266e-05
4.01777e-05
4.00684e-05
3.99575e-05
3.98371e-05
3.97182e-05
3.96064e-05
3.95168e-05
3.94663e-05
3.94829e-05
3.96074e-05
3.98722e-05
4.0238e-05
4.08019e-05
4.15531e-05
4.24608e-05
4.345e-05
4.45314e-05
4.55602e-05
4.64841e-05
4.69389e-05
4.7031e-05
4.65156e-05
4.62879e-05
4.5089e-05
4.3243e-05
4.08821e-05
3.81567e-05
3.51807e-05
3.19922e-05
2.85063e-05
2.45979e-05
2.05631e-05
1.61793e-05
1.10752e-05
4.25957e-06
5.17988e-08
9.46403e-08
5.85933e-06
1.625e-05
2.3915e-05
2.85842e-05
3.11242e-05
3.23357e-05
3.29366e-05
3.34834e-05
3.42586e-05
3.52507e-05
3.62624e-05
3.70617e-05
3.74854e-05
3.74857e-05
3.69505e-05
3.64737e-05
3.54197e-05
3.46711e-05
3.46162e-05
3.51403e-05
3.55202e-05
3.61332e-05
3.67345e-05
3.74567e-05
3.80615e-05
3.8597e-05
3.89996e-05
3.93161e-05
3.95462e-05
3.97016e-05
3.97869e-05
3.98153e-05
3.98033e-05
3.9765e-05
3.97119e-05
3.96442e-05
3.95676e-05
3.94806e-05
3.93957e-05
3.92605e-05
3.91684e-05
3.9107e-05
3.89097e-05
3.8789e-05
3.86147e-05
3.84457e-05
3.82539e-05
3.80501e-05
3.78256e-05
3.75832e-05
3.73177e-05
3.70273e-05
3.67065e-05
3.63836e-05
3.62197e-05
3.62081e-05
3.65137e-05
3.72202e-05
3.80871e-05
3.92821e-05
4.06136e-05
4.20016e-05
4.32935e-05
4.40836e-05
4.42677e-05
4.40984e-05
4.40225e-05
4.26547e-05
4.05488e-05
3.79044e-05
3.49277e-05
3.1801e-05
2.85846e-05
2.50583e-05
2.10376e-05
1.66844e-05
1.12473e-05
4.14897e-06
4.81586e-08
1.31571e-07
7.69165e-06
1.97492e-05
2.79525e-05
3.26339e-05
3.49589e-05
3.59505e-05
3.64403e-05
3.69691e-05
3.77185e-05
3.85832e-05
3.93345e-05
3.9768e-05
3.96071e-05
3.91061e-05
3.86011e-05
3.72793e-05
3.67654e-05
3.67999e-05
3.68482e-05
3.71024e-05
3.75142e-05
3.80066e-05
3.84497e-05
3.8873e-05
3.91597e-05
3.93699e-05
3.94814e-05
3.95407e-05
3.95501e-05
3.9532e-05
3.94966e-05
3.94581e-05
3.94239e-05
3.93968e-05
3.93769e-05
3.93615e-05
3.93484e-05
3.93305e-05
3.92921e-05
3.92646e-05
3.92456e-05
3.91649e-05
3.90813e-05
3.89926e-05
3.88705e-05
3.87347e-05
3.85709e-05
3.83827e-05
3.81612e-05
3.79072e-05
3.76134e-05
3.72733e-05
3.68812e-05
3.64247e-05
3.59028e-05
3.53127e-05
3.46744e-05
3.41246e-05
3.42582e-05
3.49833e-05
3.61396e-05
3.76406e-05
3.92931e-05
4.09349e-05
4.19648e-05
4.22277e-05
4.23057e-05
4.23404e-05
4.07065e-05
3.8253e-05
3.52014e-05
3.18465e-05
2.84541e-05
2.50375e-05
2.12352e-05
1.67193e-05
1.09955e-05
3.85868e-06
4.4039e-08
1.76981e-07
9.73106e-06
2.33224e-05
3.19428e-05
3.65424e-05
3.86116e-05
3.93727e-05
3.97271e-05
4.01643e-05
4.07702e-05
4.13798e-05
4.17679e-05
4.14963e-05
4.09306e-05
4.03413e-05
3.9246e-05
3.86693e-05
3.84157e-05
3.81652e-05
3.83019e-05
3.85316e-05
3.88317e-05
3.91109e-05
3.93141e-05
3.94548e-05
3.95008e-05
3.95095e-05
3.94816e-05
3.94559e-05
3.94363e-05
3.944e-05
3.94677e-05
3.95215e-05
3.9596e-05
3.96848e-05
3.97791e-05
3.98672e-05
3.99597e-05
4.00161e-05
4.00455e-05
4.00986e-05
4.00861e-05
4.00592e-05
4.00054e-05
3.99279e-05
3.98222e-05
3.9695e-05
3.95438e-05
3.93728e-05
3.91813e-05
3.896e-05
3.8703e-05
3.83982e-05
3.80277e-05
3.75852e-05
3.7044e-05
3.63866e-05
3.56028e-05
3.47133e-05
3.37837e-05
3.28672e-05
3.28107e-05
3.38055e-05
3.5281e-05
3.71856e-05
3.90874e-05
4.0382e-05
4.07436e-05
4.09093e-05
4.09471e-05
3.90226e-05
3.61469e-05
3.26078e-05
2.88011e-05
2.50421e-05
2.11946e-05
1.66755e-05
1.07237e-05
3.58503e-06
4.06445e-08
2.31706e-07
1.1808e-05
2.68326e-05
3.57983e-05
4.02643e-05
4.20553e-05
4.25678e-05
4.27376e-05
4.29914e-05
4.33396e-05
4.35895e-05
4.32242e-05
4.25627e-05
4.18951e-05
4.09574e-05
4.02656e-05
3.96503e-05
3.93349e-05
3.91972e-05
3.92978e-05
3.94074e-05
3.9527e-05
3.95898e-05
3.95965e-05
3.95695e-05
3.952e-05
3.94923e-05
3.9492e-05
3.95404e-05
3.96319e-05
3.97675e-05
3.99351e-05
4.0125e-05
4.0324e-05
4.05237e-05
4.07451e-05
4.08883e-05
4.09748e-05
4.11588e-05
4.12197e-05
4.12912e-05
4.13056e-05
4.13008e-05
4.12586e-05
4.11869e-05
4.10826e-05
4.09489e-05
4.07848e-05
4.05916e-05
4.03689e-05
4.01167e-05
3.98354e-05
3.95246e-05
3.91835e-05
3.88088e-05
3.83798e-05
3.78406e-05
3.71431e-05
3.6266e-05
3.52013e-05
3.39968e-05
3.27898e-05
3.17156e-05
3.19745e-05
3.3476e-05
3.54159e-05
3.75685e-05
3.91167e-05
3.95738e-05
3.9744e-05
3.96449e-05
3.7364e-05
3.39988e-05
2.99378e-05
2.56314e-05
2.13799e-05
1.66578e-05
1.07028e-05
3.51436e-06
3.94574e-08
2.98195e-07
1.37269e-05
3.01884e-05
3.94613e-05
4.37642e-05
4.5259e-05
4.54917e-05
4.54114e-05
4.53865e-05
4.53768e-05
4.48993e-05
4.41224e-05
4.33976e-05
4.25332e-05
4.17329e-05
4.07915e-05
4.02802e-05
3.99921e-05
3.98634e-05
3.98503e-05
3.98127e-05
3.97721e-05
3.96988e-05
3.96269e-05
3.95817e-05
3.95836e-05
3.96543e-05
3.9789e-05
3.99868e-05
4.02304e-05
4.05078e-05
4.08012e-05
4.10984e-05
4.14189e-05
4.17049e-05
4.18928e-05
4.20956e-05
4.23108e-05
4.24744e-05
4.25837e-05
4.26724e-05
4.27155e-05
4.27286e-05
4.27026e-05
4.26422e-05
4.25455e-05
4.24142e-05
4.2248e-05
4.20474e-05
4.18124e-05
4.15425e-05
4.12368e-05
4.08934e-05
4.05098e-05
4.00833e-05
3.96117e-05
3.90936e-05
3.85243e-05
3.78385e-05
3.69375e-05
3.57714e-05
3.43965e-05
3.292e-05
3.15704e-05
3.07493e-05
3.20039e-05
3.39004e-05
3.62859e-05
3.80092e-05
3.85242e-05
3.86095e-05
3.8243e-05
3.55038e-05
3.16172e-05
2.70262e-05
2.21553e-05
1.70627e-05
1.09403e-05
3.65752e-06
4.08681e-08
3.72e-07
1.56264e-05
3.33784e-05
4.28983e-05
4.70129e-05
4.81911e-05
4.81017e-05
4.76986e-05
4.73058e-05
4.66466e-05
4.57182e-05
4.49506e-05
4.40505e-05
4.3117e-05
4.19481e-05
4.11475e-05
4.06806e-05
4.03777e-05
4.01913e-05
4.00564e-05
3.99139e-05
3.97982e-05
3.97091e-05
3.96866e-05
3.97439e-05
3.98888e-05
4.01174e-05
4.04118e-05
4.07561e-05
4.1129e-05
4.15147e-05
4.19012e-05
4.22945e-05
4.26543e-05
4.29549e-05
4.32247e-05
4.34726e-05
4.37137e-05
4.39166e-05
4.40638e-05
4.41802e-05
4.42546e-05
4.42919e-05
4.42881e-05
4.42449e-05
4.4161e-05
4.40371e-05
4.38732e-05
4.36698e-05
4.34273e-05
4.31457e-05
4.28245e-05
4.2462e-05
4.20548e-05
4.1598e-05
4.10854e-05
4.05106e-05
3.98706e-05
3.91682e-05
3.84056e-05
3.74781e-05
3.62634e-05
3.47631e-05
3.30803e-05
3.14099e-05
3.01154e-05
3.07378e-05
3.26452e-05
3.51588e-05
3.69641e-05
3.74618e-05
3.73831e-05
3.65368e-05
3.32625e-05
2.88716e-05
2.36773e-05
1.81004e-05
1.17346e-05
4.11463e-06
4.68368e-08
4.51009e-07
1.74696e-05
3.63597e-05
4.60768e-05
4.9985e-05
5.08247e-05
5.03662e-05
4.95688e-05
4.86118e-05
4.74623e-05
4.66425e-05
4.55467e-05
4.44809e-05
4.31326e-05
4.20563e-05
4.13385e-05
4.08687e-05
4.05243e-05
4.02717e-05
4.00661e-05
3.99033e-05
3.98189e-05
3.98218e-05
3.99355e-05
4.0153e-05
4.04634e-05
4.08456e-05
4.12759e-05
4.17346e-05
4.22028e-05
4.26679e-05
4.31194e-05
4.35493e-05
4.39477e-05
4.43204e-05
4.46479e-05
4.49518e-05
4.51969e-05
4.54402e-05
4.56532e-05
4.5802e-05
4.59145e-05
4.5983e-05
4.60062e-05
4.59837e-05
4.5914e-05
4.5797e-05
4.56327e-05
4.54217e-05
4.51653e-05
4.4865e-05
4.4522e-05
4.41371e-05
4.37092e-05
4.32346e-05
4.27061e-05
4.21129e-05
4.14417e-05
4.0681e-05
3.98291e-05
3.89028e-05
3.78839e-05
3.66027e-05
3.4974e-05
3.31413e-05
3.12722e-05
2.97471e-05
2.97076e-05
3.15781e-05
3.41582e-05
3.59227e-05
3.62758e-05
3.60612e-05
3.43334e-05
3.06042e-05
2.55594e-05
1.97011e-05
1.29988e-05
4.97541e-06
6.11973e-08
5.32641e-07
1.92145e-05
3.90927e-05
4.89719e-05
5.26629e-05
5.3148e-05
5.22834e-05
5.09785e-05
4.95429e-05
4.85881e-05
4.71292e-05
4.59231e-05
4.43895e-05
4.3059e-05
4.20624e-05
4.13789e-05
4.08854e-05
4.0508e-05
4.02297e-05
4.0034e-05
3.99408e-05
3.99725e-05
4.0129e-05
4.0409e-05
4.07881e-05
4.12435e-05
4.17487e-05
4.22813e-05
4.28237e-05
4.33621e-05
4.38871e-05
4.43918e-05
4.48711e-05
4.53215e-05
4.57428e-05
4.61426e-05
4.6518e-05
4.68101e-05
4.70643e-05
4.73391e-05
4.75547e-05
4.77034e-05
4.78125e-05
4.78666e-05
4.78687e-05
4.78148e-05
4.77046e-05
4.75371e-05
4.73131e-05
4.70339e-05
4.67022e-05
4.63214e-05
4.58952e-05
4.54271e-05
4.49184e-05
4.43669e-05
4.37646e-05
4.3096e-05
4.23386e-05
4.14664e-05
4.04604e-05
3.93284e-05
3.80748e-05
3.6657e-05
3.49947e-05
3.30325e-05
3.10542e-05
2.92761e-05
2.88376e-05
3.06193e-05
3.32945e-05
3.48022e-05
3.48814e-05
3.45087e-05
3.17872e-05
2.7261e-05
2.14798e-05
1.45557e-05
5.97608e-06
8.41655e-08
6.14477e-07
2.08244e-05
4.15526e-05
5.15742e-05
5.5038e-05
5.51715e-05
5.38001e-05
5.21304e-05
5.08359e-05
4.89857e-05
4.75292e-05
4.57949e-05
4.42044e-05
4.29188e-05
4.19768e-05
4.13021e-05
4.07965e-05
4.04255e-05
4.01857e-05
4.00775e-05
4.01181e-05
4.03081e-05
4.06316e-05
4.10668e-05
4.15821e-05
4.21515e-05
4.27505e-05
4.33614e-05
4.39711e-05
4.45704e-05
4.51534e-05
4.57159e-05
4.6255e-05
4.67686e-05
4.7255e-05
4.77115e-05
4.81538e-05
4.85548e-05
4.8822e-05
4.91227e-05
4.94387e-05
4.96239e-05
4.97795e-05
4.98694e-05
4.99006e-05
4.98669e-05
4.97669e-05
4.95989e-05
4.93623e-05
4.9058e-05
4.86884e-05
4.82577e-05
4.7772e-05
4.72384e-05
4.66644e-05
4.60555e-05
4.54133e-05
4.47316e-05
4.39929e-05
4.31663e-05
4.22092e-05
4.10776e-05
3.97877e-05
3.83142e-05
3.65143e-05
3.47338e-05
3.27806e-05
3.06947e-05
2.8701e-05
2.8069e-05
2.97899e-05
3.2395e-05
3.37371e-05
3.3239e-05
3.22244e-05
2.8445e-05
2.30452e-05
1.61506e-05
7.00749e-06
1.13701e-07
6.94853e-07
2.22497e-05
4.37372e-05
5.39222e-05
5.70803e-05
5.66815e-05
5.50685e-05
5.33328e-05
5.1208e-05
4.93869e-05
4.74293e-05
4.55604e-05
4.39641e-05
4.27276e-05
4.18218e-05
4.11589e-05
4.06769e-05
4.03655e-05
4.02252e-05
4.02563e-05
4.04583e-05
4.08108e-05
4.12848e-05
4.18491e-05
4.24724e-05
4.31312e-05
4.38063e-05
4.4485e-05
4.51584e-05
4.58209e-05
4.64685e-05
4.70982e-05
4.7707e-05
4.82922e-05
4.88504e-05
4.93777e-05
4.98815e-05
5.03599e-05
5.0704e-05
5.10272e-05
5.14108e-05
5.16567e-05
5.18552e-05
5.19862e-05
5.20507e-05
5.20433e-05
5.19608e-05
5.18003e-05
5.15594e-05
5.12375e-05
5.08355e-05
5.03565e-05
4.98065e-05
4.9194e-05
4.85303e-05
4.78278e-05
4.70978e-05
4.63475e-05
4.55743e-05
4.47609e-05
4.38698e-05
4.28413e-05
4.16013e-05
4.01898e-05
3.85231e-05
3.62877e-05
3.43112e-05
3.23722e-05
3.01617e-05
2.79806e-05
2.74235e-05
2.90666e-05
3.1259e-05
3.21645e-05
3.13966e-05
2.89949e-05
2.4201e-05
1.75732e-05
7.93763e-06
1.47954e-07
7.72132e-07
2.3524e-05
4.5646e-05
5.58438e-05
5.8622e-05
5.80788e-05
5.64723e-05
5.4148e-05
5.16037e-05
4.93768e-05
4.72058e-05
4.5267e-05
4.36929e-05
4.25028e-05
4.16315e-05
4.10054e-05
4.05922e-05
4.03887e-05
4.03881e-05
4.05789e-05
4.09404e-05
4.14382e-05
4.20375e-05
4.27061e-05
4.34172e-05
4.4152e-05
4.48966e-05
4.56426e-05
4.63841e-05
4.71167e-05
4.78371e-05
4.85415e-05
4.92261e-05
4.98864e-05
5.05178e-05
5.11154e-05
5.16813e-05
5.22315e-05
5.26539e-05
5.30069e-05
5.34335e-05
5.3749e-05
5.39865e-05
5.41603e-05
5.42611e-05
5.42858e-05
5.42294e-05
5.40875e-05
5.38562e-05
5.35323e-05
5.31143e-05
5.26027e-05
5.20011e-05
5.13169e-05
5.05614e-05
4.975e-05
4.89012e-05
4.80334e-05
4.71608e-05
4.62869e-05
4.53961e-05
4.44455e-05
4.3358e-05
4.20243e-05
4.05083e-05
3.84432e-05
3.59618e-05
3.37591e-05
3.1792e-05
2.93859e-05
2.69945e-05
2.68728e-05
2.86118e-05
3.00604e-05
3.01611e-05
2.90417e-05
2.49204e-05
1.86828e-05
8.69126e-06
1.85303e-07
8.43357e-07
2.46097e-05
4.71792e-05
5.73272e-05
5.98631e-05
5.95014e-05
5.73059e-05
5.44465e-05
5.18217e-05
4.92271e-05
4.69097e-05
4.49459e-05
4.34088e-05
4.22662e-05
4.14438e-05
4.08895e-05
4.05854e-05
4.05211e-05
4.0676e-05
4.1023e-05
4.15267e-05
4.21472e-05
4.28499e-05
4.36059e-05
4.43942e-05
4.52008e-05
4.6016e-05
4.68339e-05
4.76497e-05
4.84589e-05
4.92571e-05
5.00391e-05
5.07994e-05
5.15324e-05
5.22325e-05
5.28944e-05
5.35156e-05
5.41281e-05
5.46177e-05
5.49953e-05
5.5456e-05
5.58334e-05
5.61065e-05
5.63204e-05
5.64585e-05
5.6519e-05
5.64959e-05
5.63838e-05
5.61771e-05
5.58703e-05
5.54587e-05
5.49396e-05
5.43125e-05
5.3581e-05
5.27535e-05
5.18441e-05
5.08731e-05
4.98653e-05
4.88474e-05
4.78422e-05
4.68602e-05
4.58893e-05
4.48827e-05
4.37482e-05
4.23429e-05
4.06058e-05
3.81193e-05
3.54565e-05
3.30879e-05
3.10116e-05
2.82644e-05
2.58036e-05
2.61919e-05
2.80831e-05
2.91298e-05
2.79978e-05
2.51538e-05
1.94336e-05
9.26398e-06
2.24555e-07
9.05966e-07
2.54797e-05
4.83339e-05
5.84431e-05
6.10935e-05
6.05245e-05
5.80035e-05
5.48352e-05
5.17832e-05
4.89856e-05
4.65766e-05
4.46182e-05
4.31278e-05
4.20417e-05
4.12921e-05
4.08427e-05
4.06744e-05
4.07614e-05
4.10684e-05
4.15559e-05
4.21814e-05
4.29054e-05
4.36965e-05
4.45312e-05
4.53935e-05
4.62733e-05
4.71634e-05
4.80584e-05
4.89528e-05
4.9841e-05
5.07165e-05
5.15726e-05
5.24024e-05
5.31993e-05
5.39576e-05
5.46719e-05
5.53383e-05
5.59966e-05
5.65441e-05
5.69349e-05
5.74171e-05
5.78459e-05
5.81488e-05
5.83973e-05
5.85705e-05
5.86676e-05
5.86823e-05
5.86086e-05
5.84395e-05
5.81675e-05
5.77853e-05
5.72863e-05
5.66656e-05
5.59215e-05
5.5057e-05
5.40816e-05
5.30122e-05
5.18744e-05
5.07006e-05
4.95267e-05
4.83846e-05
4.7292e-05
4.62383e-05
4.51702e-05
4.39769e-05
4.24806e-05
4.04102e-05
3.75895e-05
3.47702e-05
3.23048e-05
3.00023e-05
2.69614e-05
2.48856e-05
2.55296e-05
2.67433e-05
2.69308e-05
2.50796e-05
1.9833e-05
9.62363e-06
2.65591e-07
9.58559e-07
2.61397e-05
4.91604e-05
5.93192e-05
6.20093e-05
6.12556e-05
5.8304e-05
5.49521e-05
5.1641e-05
4.86896e-05
4.62308e-05
4.42989e-05
4.28648e-05
4.18506e-05
4.11989e-05
4.08779e-05
4.08563e-05
4.10919e-05
4.15377e-05
4.21475e-05
4.28775e-05
4.36916e-05
4.45631e-05
4.54736e-05
4.64112e-05
4.73676e-05
4.83363e-05
4.93107e-05
5.02839e-05
5.1248e-05
5.21948e-05
5.31159e-05
5.40038e-05
5.48516e-05
5.56536e-05
5.64052e-05
5.71028e-05
5.7788e-05
5.83868e-05
5.87784e-05
5.92646e-05
5.97343e-05
6.00595e-05
6.03349e-05
6.05386e-05
6.067e-05
6.07235e-05
6.06927e-05
6.057e-05
6.03466e-05
6.00128e-05
5.95589e-05
5.89755e-05
5.82554e-05
5.73951e-05
5.63967e-05
5.52707e-05
5.40376e-05
5.27291e-05
5.13867e-05
5.00572e-05
4.87828e-05
4.75879e-05
4.64614e-05
4.53372e-05
4.40735e-05
4.23897e-05
3.97972e-05
3.68201e-05
3.39333e-05
3.1355e-05
2.86412e-05
2.52711e-05
2.41829e-05
2.5162e-05
2.5867e-05
2.44059e-05
1.98813e-05
9.78469e-06
3.07969e-07
1.00038e-06
2.65926e-05
4.97133e-05
5.99143e-05
6.2694e-05
6.17898e-05
5.86875e-05
5.49649e-05
5.143e-05
4.83661e-05
4.5889e-05
4.39991e-05
4.26327e-05
4.1708e-05
4.11742e-05
4.09931e-05
4.11168e-05
4.14899e-05
4.20588e-05
4.27749e-05
4.35969e-05
4.44932e-05
4.54421e-05
4.64289e-05
4.7444e-05
4.84794e-05
4.95274e-05
5.05797e-05
5.16269e-05
5.26591e-05
5.36666e-05
5.46403e-05
5.55722e-05
5.64561e-05
5.72867e-05
5.80608e-05
5.87759e-05
5.94649e-05
6.00966e-05
6.04988e-05
6.0963e-05
6.14638e-05
6.18029e-05
6.20966e-05
6.2324e-05
6.24849e-05
6.25745e-05
6.2587e-05
6.25145e-05
6.23477e-05
6.20754e-05
6.16855e-05
6.1165e-05
6.05014e-05
5.96847e-05
5.87088e-05
5.75754e-05
5.6296e-05
5.48957e-05
5.3414e-05
5.19031e-05
5.04222e-05
4.90248e-05
4.77415e-05
4.65602e-05
4.54066e-05
4.41267e-05
4.1972e-05
3.89064e-05
3.59149e-05
3.28904e-05
3.01486e-05
2.67962e-05
2.35762e-05
2.32914e-05
2.36497e-05
2.33976e-05
1.97689e-05
9.92906e-06
3.54575e-07
1.0313e-06
2.68553e-05
5.00238e-05
6.02535e-05
6.32041e-05
6.2042e-05
5.8814e-05
5.48842e-05
5.11756e-05
4.80345e-05
4.55628e-05
4.37276e-05
4.24409e-05
4.16213e-05
4.12173e-05
4.11772e-05
4.14374e-05
4.19343e-05
4.26117e-05
4.34222e-05
4.43281e-05
4.53029e-05
4.63286e-05
4.73929e-05
4.84866e-05
4.96007e-05
5.07254e-05
5.18497e-05
5.29622e-05
5.40514e-05
5.51066e-05
5.61187e-05
5.70801e-05
5.79853e-05
5.88306e-05
5.96139e-05
6.03345e-05
6.10069e-05
6.16488e-05
6.20769e-05
6.24959e-05
6.30175e-05
6.33631e-05
6.36659e-05
6.39091e-05
6.40927e-05
6.42131e-05
6.42652e-05
6.42419e-05
6.41338e-05
6.39294e-05
6.36148e-05
6.31747e-05
6.25924e-05
6.18519e-05
6.09396e-05
5.98472e-05
5.85755e-05
5.71384e-05
5.55668e-05
5.39101e-05
5.22341e-05
5.0611e-05
4.91032e-05
4.77387e-05
4.64854e-05
4.52251e-05
4.37305e-05
4.10895e-05
3.78718e-05
3.47745e-05
3.15056e-05
2.84935e-05
2.45186e-05
2.25378e-05
2.25743e-05
2.26655e-05
1.9652e-05
1.02874e-05
4.14477e-07
1.05184e-06
2.69524e-05
5.008e-05
6.03064e-05
6.33757e-05
6.23194e-05
5.8849e-05
5.47395e-05
5.0898e-05
4.77085e-05
4.526e-05
4.34901e-05
4.22946e-05
4.15911e-05
4.13206e-05
4.14155e-05
4.18005e-05
4.2408e-05
4.31822e-05
4.40786e-05
4.50639e-05
4.61154e-05
4.72179e-05
4.83599e-05
4.95312e-05
5.07204e-05
5.19154e-05
5.31029e-05
5.42696e-05
5.54032e-05
5.64926e-05
5.75293e-05
5.85066e-05
5.94201e-05
6.02675e-05
6.10479e-05
6.17621e-05
6.24119e-05
6.30491e-05
6.35055e-05
6.38662e-05
6.43933e-05
6.47412e-05
6.50445e-05
6.52951e-05
6.54933e-05
6.5637e-05
6.57221e-05
6.57427e-05
6.56903e-05
6.55535e-05
6.53181e-05
6.49673e-05
6.44817e-05
6.38407e-05
6.3024e-05
6.20142e-05
6.08005e-05
5.93837e-05
5.77815e-05
5.60333e-05
5.42021e-05
5.23705e-05
5.06279e-05
4.90481e-05
4.76603e-05
4.64212e-05
4.51907e-05
4.30545e-05
3.98373e-05
3.67057e-05
3.33269e-05
2.97694e-05
2.61081e-05
2.22496e-05
2.1291e-05
2.1104e-05
1.93484e-05
1.09268e-05
4.95343e-07
1.06202e-06
2.68801e-05
4.98769e-05
6.02356e-05
6.35111e-05
6.23572e-05
5.87921e-05
5.45507e-05
5.06122e-05
4.73976e-05
4.49857e-05
4.32903e-05
4.21948e-05
4.1613e-05
4.14735e-05
4.16939e-05
4.21916e-05
4.28983e-05
4.37604e-05
4.4737e-05
4.57987e-05
4.69259e-05
4.81044e-05
4.93223e-05
5.05672e-05
5.18254e-05
5.30821e-05
5.43221e-05
5.55312e-05
5.66966e-05
5.78079e-05
5.88573e-05
5.98393e-05
6.07508e-05
6.15906e-05
6.23589e-05
6.30569e-05
6.36863e-05
6.42995e-05
6.47911e-05
6.51084e-05
6.55962e-05
6.5952e-05
6.62479e-05
6.64978e-05
6.67021e-05
6.68601e-05
6.69695e-05
6.70257e-05
6.70215e-05
6.69466e-05
6.67875e-05
6.65269e-05
6.61442e-05
6.56156e-05
6.49158e-05
6.40197e-05
6.29057e-05
6.15612e-05
5.99879e-05
5.82096e-05
5.62775e-05
5.42714e-05
5.22925e-05
5.04432e-05
4.87958e-05
4.73567e-05
4.60356e-05
4.4625e-05
4.18324e-05
3.84337e-05
3.51397e-05
3.15298e-05
2.76755e-05
2.31778e-05
2.0876e-05
1.96713e-05
1.88612e-05
1.16118e-05
5.96804e-07
1.06134e-06
2.67071e-05
4.96209e-05
6.00133e-05
6.35092e-05
6.22919e-05
5.86654e-05
5.4334e-05
5.03298e-05
4.71086e-05
4.47434e-05
4.31292e-05
4.21393e-05
4.16797e-05
4.16647e-05
4.19997e-05
4.25991e-05
4.33959e-05
4.43392e-05
4.53917e-05
4.65275e-05
4.77287e-05
4.8981e-05
5.02708e-05
5.15832e-05
5.29021e-05
5.42106e-05
5.54924e-05
5.67326e-05
5.7919e-05
5.9042e-05
6.0095e-05
6.10739e-05
6.19767e-05
6.28036e-05
6.3556e-05
6.42363e-05
6.48476e-05
6.54206e-05
6.59241e-05
6.62363e-05
6.66596e-05
6.70184e-05
6.73013e-05
6.75428e-05
6.77446e-05
6.79076e-05
6.80311e-05
6.81124e-05
6.81459e-05
6.81233e-05
6.8032e-05
6.78559e-05
6.75739e-05
6.71612e-05
6.65888e-05
6.5826e-05
6.48423e-05
6.36123e-05
6.21218e-05
6.03761e-05
5.84088e-05
5.62887e-05
5.4119e-05
5.20247e-05
5.01236e-05
4.8485e-05
4.70897e-05
4.58084e-05
4.36388e-05
4.02014e-05
3.70454e-05
3.31061e-05
2.90207e-05
2.46779e-05
2.07572e-05
1.91643e-05
1.84518e-05
1.22371e-05
7.14579e-07
1.05564e-06
2.6438e-05
4.91916e-05
5.95966e-05
6.32932e-05
6.21232e-05
5.84835e-05
5.41018e-05
5.00592e-05
4.68458e-05
4.45344e-05
4.30061e-05
4.2124e-05
4.17832e-05
4.18838e-05
4.23231e-05
4.30147e-05
4.38938e-05
4.49128e-05
4.60377e-05
4.7245e-05
4.85173e-05
4.98393e-05
5.11952e-05
5.25677e-05
5.39383e-05
5.52888e-05
5.66022e-05
5.78641e-05
5.9063e-05
6.01904e-05
6.1241e-05
6.22122e-05
6.31033e-05
6.39153e-05
6.46507e-05
6.53128e-05
6.5906e-05
6.64362e-05
6.69425e-05
6.72624e-05
6.76134e-05
6.79688e-05
6.82344e-05
6.84608e-05
6.8652e-05
6.88106e-05
6.89376e-05
6.90323e-05
6.90913e-05
6.91083e-05
6.90728e-05
6.89702e-05
6.87805e-05
6.84789e-05
6.80349e-05
6.74139e-05
6.65788e-05
6.54934e-05
6.41287e-05
6.24708e-05
6.05315e-05
5.83595e-05
5.60467e-05
5.37237e-05
5.15364e-05
4.9603e-05
4.79602e-05
4.65172e-05
4.50348e-05
4.20385e-05
3.85428e-05
3.50244e-05
3.06932e-05
2.61219e-05
2.09707e-05
1.86723e-05
1.74472e-05
1.28807e-05
8.36151e-07
1.04309e-06
2.61127e-05
4.85062e-05
5.906e-05
6.29463e-05
6.1867e-05
5.8259e-05
5.38639e-05
4.98064e-05
4.66123e-05
4.43594e-05
4.29188e-05
4.21435e-05
4.19154e-05
4.21222e-05
4.26561e-05
4.34315e-05
4.43864e-05
4.54764e-05
4.66701e-05
4.79454e-05
4.92847e-05
5.06709e-05
5.20859e-05
5.35101e-05
5.49235e-05
5.6307e-05
5.76438e-05
5.892e-05
6.01254e-05
6.12528e-05
6.22984e-05
6.32605e-05
6.41395e-05
6.49373e-05
6.56567e-05
6.63009e-05
6.68737e-05
6.73786e-05
6.78771e-05
6.82064e-05
6.84869e-05
6.88325e-05
6.90775e-05
6.92832e-05
6.94566e-05
6.96019e-05
6.97219e-05
6.98181e-05
6.98895e-05
6.9932e-05
6.99378e-05
6.98945e-05
6.97841e-05
6.95828e-05
6.92603e-05
6.87801e-05
6.81007e-05
6.7178e-05
6.59701e-05
6.44452e-05
6.25925e-05
6.04365e-05
5.80489e-05
5.55547e-05
5.31186e-05
5.09079e-05
4.90344e-05
4.74951e-05
4.61344e-05
4.36145e-05
4.0018e-05
3.69484e-05
3.21078e-05
2.74146e-05
2.22622e-05
1.85469e-05
1.63208e-05
1.33718e-05
9.33739e-07
1.0236e-06
2.56916e-05
4.77505e-05
5.8433e-05
6.2481e-05
6.15364e-05
5.8002e-05
5.36275e-05
4.95759e-05
4.64097e-05
4.42176e-05
4.28645e-05
4.21922e-05
4.20693e-05
4.23728e-05
4.29923e-05
4.38441e-05
4.4869e-05
4.60252e-05
4.72836e-05
4.86225e-05
5.00233e-05
5.14672e-05
5.29337e-05
5.44016e-05
5.58497e-05
5.72587e-05
5.86125e-05
5.98981e-05
6.11067e-05
6.22326e-05
6.32729e-05
6.42273e-05
6.50968e-05
6.58836e-05
6.65907e-05
6.72214e-05
6.77788e-05
6.82662e-05
6.87423e-05
6.90852e-05
6.9307e-05
6.96368e-05
6.98586e-05
7.00391e-05
7.01884e-05
7.03122e-05
7.04154e-05
7.05016e-05
7.05722e-05
7.06259e-05
7.06576e-05
7.06577e-05
7.06107e-05
7.04949e-05
7.02814e-05
6.99337e-05
6.94079e-05
6.86545e-05
6.76218e-05
6.62625e-05
6.45441e-05
6.24638e-05
6.0066e-05
5.74556e-05
5.47969e-05
5.22857e-05
5.009e-05
4.82762e-05
4.6757e-05
4.49334e-05
4.14027e-05
3.84152e-05
3.40616e-05
2.89198e-05
2.36192e-05
1.89936e-05
1.56807e-05
1.3567e-05
9.78473e-07
9.98247e-07
2.51668e-05
4.68824e-05
5.77106e-05
6.19199e-05
6.11436e-05
5.77208e-05
5.3398e-05
4.93707e-05
4.62389e-05
4.41079e-05
4.28397e-05
4.22648e-05
4.22384e-05
4.26295e-05
4.33266e-05
4.42479e-05
4.5337e-05
4.65545e-05
4.78728e-05
4.927e-05
5.07262e-05
5.22207e-05
5.37312e-05
5.52352e-05
5.6711e-05
5.81398e-05
5.95062e-05
6.07986e-05
6.20095e-05
6.31344e-05
6.41718e-05
6.51218e-05
6.59862e-05
6.67673e-05
6.7468e-05
6.80913e-05
6.86405e-05
6.9119e-05
6.95615e-05
6.98989e-05
7.01007e-05
7.04044e-05
7.06007e-05
7.07525e-05
7.08723e-05
7.09676e-05
7.10452e-05
7.11108e-05
7.11684e-05
7.12194e-05
7.12618e-05
7.12888e-05
7.12882e-05
7.1241e-05
7.11206e-05
7.08918e-05
7.05103e-05
6.99238e-05
6.90737e-05
6.79005e-05
6.63523e-05
6.44004e-05
6.2058e-05
5.94018e-05
5.65833e-05
5.3815e-05
5.1318e-05
4.92359e-05
4.75492e-05
4.60334e-05
4.29675e-05
3.97126e-05
3.60337e-05
3.01715e-05
2.46948e-05
1.89719e-05
1.58103e-05
1.35555e-05
9.86169e-07
9.68467e-07
2.46079e-05
4.59277e-05
5.68996e-05
6.1279e-05
6.06995e-05
5.74221e-05
5.31795e-05
4.91928e-05
4.61002e-05
4.40286e-05
4.28408e-05
4.23561e-05
4.24175e-05
4.28874e-05
4.36543e-05
4.46385e-05
4.57861e-05
4.70597e-05
4.84323e-05
4.98818e-05
5.13868e-05
5.29248e-05
5.44722e-05
5.60057e-05
5.75037e-05
5.89481e-05
6.03246e-05
6.16231e-05
6.28371e-05
6.39636e-05
6.50017e-05
6.59523e-05
6.68172e-05
6.75987e-05
6.82992e-05
6.89213e-05
6.94678e-05
6.99417e-05
7.03521e-05
7.06833e-05
7.08746e-05
7.11503e-05
7.13201e-05
7.14408e-05
7.1527e-05
7.1588e-05
7.16325e-05
7.16682e-05
7.17018e-05
7.17374e-05
7.17761e-05
7.18145e-05
7.18435e-05
7.18474e-05
7.18026e-05
7.16761e-05
7.1425e-05
7.0996e-05
7.03267e-05
6.93485e-05
6.79941e-05
6.62104e-05
6.39789e-05
6.13412e-05
5.84214e-05