/*--------------------------------*- C++ -*----------------------------------*\
  =========                 |
  \\      /  F ield         | OpenFOAM: The Open Source CFD Toolbox
   \\    /   O peration     | Website:  https://openfoam.org
    \\  /    A nd           | Version:  13
     \\/     M anipulation  |
\*---------------------------------------------------------------------------*/
FoamFile
{
    format      ascii;
    class       volScalarField;
    location    "7.8";
    object      p;
}
// * * * * * * * * * * * * * * * * * * * * * * * * * * * * * * * * * * * * * //

dimensions      [0 2 -2 0 0 0 0];

internalField   nonuniform List<scalar> 
6400
(
2.59656e-09
1.99351e-05
2.88199e-05
1.33652e-05
-3.16537e-05
-0.000101062
-0.000185131
-0.000274671
-0.000363379
-0.000448177
-0.000529761
-0.00061235
-0.000700657
-0.000799846
-0.000915089
-0.00105048
-0.00120896
-0.00139218
-0.00160144
-0.00183739
-0.00210044
-0.00239199
-0.00271498
-0.00307395
-0.0034753
-0.00392384
-0.00441428
-0.0049377
-0.00547147
-0.00598088
-0.00646103
-0.0069198
-0.00735525
-0.00776466
-0.00814266
-0.00848058
-0.00876702
-0.00898878
-0.00913197
-0.00918278
-0.00912805
-0.00895653
-0.00866001
-0.00823423
-0.00767676
-0.00697978
-0.00613549
-0.00516141
-0.00407432
-0.00288133
-0.00160305
-0.000260767
0.00111638
0.00249579
0.0038369
0.00509442
0.00622401
0.00718408
0.00793506
0.0084457
0.00869771
0.00868914
0.00843385
0.00795161
0.00730543
0.00654559
0.00573781
0.00494527
0.00422468
0.00360605
0.00312405
0.00278948
0.00257214
0.00244617
0.0023922
0.00238647
0.00240975
0.00244684
0.00248708
0.0025145
-1.50862e-05
5.25092e-06
9.45304e-06
-1.10147e-05
-5.89046e-05
-0.000128251
-0.000208337
-0.000290605
-0.000370081
-0.000445445
-0.000518808
-0.000594244
-0.000676578
-0.000770536
-0.000879985
-0.00100848
-0.00115929
-0.00133489
-0.0015359
-0.00176252
-0.00201375
-0.00229019
-0.00259506
-0.00293091
-0.00330088
-0.00371225
-0.00417246
-0.00467999
-0.0052209
-0.00577094
-0.0063022
-0.00680533
-0.00728233
-0.00773009
-0.00814286
-0.00851191
-0.00882607
-0.00907273
-0.00923879
-0.00931165
-0.00927929
-0.0091316
-0.00886085
-0.00846117
-0.00792764
-0.00725635
-0.00645441
-0.00552916
-0.00448232
-0.00333142
-0.00209449
-0.000794755
0.000539799
0.00187572
0.00317522
0.00439809
0.00550159
0.0064439
0.00718897
0.00770669
0.00797832
0.00800086
0.00778694
0.00736326
0.00677621
0.00608054
0.00533809
0.00460817
0.00394395
0.00338693
0.00295548
0.00265684
0.00247765
0.00239402
0.00238131
0.00241229
0.00245603
0.00249511
0.00252782
0.00255373
-3.11974e-05
-8.66466e-06
-1.0171e-05
-3.98446e-05
-9.5758e-05
-0.000167652
-0.000243777
-0.000315983
-0.000381658
-0.000442481
-0.000502204
-0.000565777
-0.000638198
-0.000723209
-0.000823312
-0.000940348
-0.00107587
-0.00123214
-0.00141136
-0.00161629
-0.00185053
-0.00211725
-0.00242083
-0.00276619
-0.00315761
-0.00359764
-0.00408668
-0.00462079
-0.00518914
-0.00577417
-0.00635595
-0.00691859
-0.00745277
-0.00795197
-0.0084092
-0.00881537
-0.00916022
-0.00943279
-0.0096214
-0.00971464
-0.00970233
-0.0095756
-0.00932732
-0.00895231
-0.00844771
-0.00781276
-0.00704329
-0.00615243
-0.00514653
-0.00403827
-0.00284436
-0.00158647
-0.000291147
0.00101031
0.00228247
0.00348703
0.00458222
0.00552685
0.00628548
0.00682909
0.00713818
0.00720747
0.00704882
0.0066886
0.00616935
0.00554375
0.00486668
0.00420217
0.00359707
0.00308865
0.00270131
0.00244847
0.0023178
0.00228056
0.00230503
0.00236717
0.00243703
0.00249541
0.00254311
0.0025805
-3.96412e-05
-1.81508e-05
-2.72059e-05
-6.81044e-05
-0.000134136
-0.000209155
-0.000281579
-0.000344896
-0.00039778
-0.000442532
-0.000485333
-0.000532879
-0.000590656
-0.000662378
-0.00074976
-0.000853626
-0.00097539
-0.00111788
-0.00128498
-0.00148225
-0.00171675
-0.00199636
-0.00232842
-0.00271554
-0.00316009
-0.00366332
-0.00422122
-0.00482333
-0.00545394
-0.00609637
-0.00673407
-0.00735183
-0.00793738
-0.00848158
-0.008976
-0.0094114
-0.00977882
-0.0100686
-0.0102706
-0.0103749
-0.0103731
-0.0102573
-0.010021
-0.00966015
-0.00917288
-0.00855778
-0.00781567
-0.00695197
-0.0059739
-0.00489328
-0.00372586
-0.0024918
-0.00121552
7.44019e-05
0.00134462
0.00255707
0.00367096
0.00464614
0.00544524
0.00603815
0.00640385
0.00653304
0.00643493
0.00613571
0.00567501
0.00510209
0.00447385
0.00384972
0.00328015
0.00280322
0.00244297
0.00221016
0.00209711
0.00208751
0.00215157
0.0022488
0.0023507
0.00243958
0.00251142
0.00256135
-3.35847e-05
-1.96708e-05
-3.88866e-05
-9.13227e-05
-0.000166885
-0.00024476
-0.0003135
-0.000368092
-0.000408574
-0.000439303
-0.000467485
-0.000500688
-0.000544854
-0.000603654
-0.000679244
-0.000773476
-0.000889502
-0.00103307
-0.00121126
-0.00143222
-0.00170571
-0.00203739
-0.00243202
-0.00289392
-0.00342249
-0.00401178
-0.00465167
-0.00532769
-0.00602231
-0.0067193
-0.00740322
-0.00806153
-0.0086836
-0.00925897
-0.00977847
-0.0102334
-0.0106152
-0.010915
-0.0111247
-0.011236
-0.0112411
-0.011134
-0.0109085
-0.0105609
-0.0100903
-0.00949621
-0.00877935
-0.00794232
-0.00699092
-0.00593593
-0.00479262
-0.00357928
-0.00231718
-0.00103099
0.000248132
0.00148134
0.00262854
0.00365205
0.0045137
0.00518041
0.00562885
0.00584522
0.00583243
0.00561168
0.00522332
0.00471431
0.00413924
0.00355571
0.00301636
0.00256166
0.0022184
0.00199694
0.00189357
0.00189192
0.00196672
0.00208459
0.00221234
0.00232909
0.00242378
0.0024831
-4.23375e-06
-4.41719e-06
-3.60958e-05
-0.000102376
-0.000186096
-0.000265061
-0.000329775
-0.000376691
-0.000407108
-0.000427046
-0.000444871
-0.000468572
-0.00050427
-0.00055633
-0.000628591
-0.000725538
-0.000853734
-0.00102198
-0.00124119
-0.00151848
-0.00186151
-0.00227757
-0.00276818
-0.00333031
-0.00395521
-0.00463091
-0.00534524
-0.00608431
-0.00683267
-0.00757512
-0.00829753
-0.00898823
-0.009637
-0.0102343
-0.0107715
-0.0112401
-0.0116316
-0.0119386
-0.0121544
-0.0122722
-0.0122852
-0.0121895
-0.0119795
-0.0116513
-0.0112067
-0.0106433
-0.0099609
-0.00916145
-0.00824908
-0.00723207
-0.00612435
-0.00494065
-0.00369787
-0.00241711
-0.00112954
0.000125351
0.00131175
0.00239636
0.00333837
0.00410098
0.00465997
0.00499586
0.00510625
0.00500223
0.00471891
0.00430365
0.00380858
0.00328769
0.00279377
0.00237019
0.00204632
0.00183547
0.00173608
0.00173452
0.00180751
0.00192675
0.00206173
0.00218917
0.00229379
0.00235633
5.87543e-05
4.09377e-05
-7.10415e-06
-9.0236e-05
-0.000179242
-0.000258566
-0.000320065
-0.000361534
-0.000386231
-0.000401388
-0.000415925
-0.000438131
-0.000474794
-0.000532035
-0.000616723
-0.000736478
-0.000901641
-0.00112402
-0.00141196
-0.0017742
-0.00221732
-0.00274244
-0.00334088
-0.00400206
-0.00471597
-0.0054706
-0.00625229
-0.00704715
-0.00784147
-0.00862188
-0.00937586
-0.0100926
-0.0107623
-0.0113763
-0.0119265
-0.0124043
-0.0128013
-0.0131129
-0.0133337
-0.0134583
-0.0134837
-0.0134048
-0.0132173
-0.012918
-0.0125066
-0.0119797
-0.0113382
-0.0105855
-0.00972701
-0.00876884
-0.00771624
-0.00657979
-0.00537479
-0.00412333
-0.00285095
-0.00158524
-0.00035636
0.00079955
0.00183361
0.00271257
0.00341016
0.00389902
0.00417228
0.00423118
0.00410022
0.0038206
0.0034425
0.00301766
0.00259642
0.00222347
0.00193099
0.00173572
0.00163932
0.00163364
0.00169605
0.0018036
0.00192896
0.00204894
0.00214816
0.00220555
0.000165489
0.000127086
5.71272e-05
-3.98958e-05
-0.000134411
-0.00021517
-0.000275569
-0.00031593
-0.000341188
-0.000359653
-0.000380684
-0.000413034
-0.000464859
-0.000545113
-0.00066369
-0.000832057
-0.00106213
-0.00136557
-0.00175081
-0.00222418
-0.00278232
-0.00341697
-0.00411774
-0.00487297
-0.00566979
-0.00649527
-0.00733619
-0.00817967
-0.00901329
-0.00982511
-0.0106041
-0.0113405
-0.0120248
-0.0126482
-0.0132029
-0.0136815
-0.0140809
-0.0143976
-0.0146263
-0.0147627
-0.0148034
-0.0147422
-0.0145766
-0.0143044
-0.0139258
-0.0134382
-0.0128433
-0.0121448
-0.0113475
-0.0104556
-0.0094708
-0.00840091
-0.00725952
-0.00606445
-0.00483323
-0.0035834
-0.00234141
-0.00114606
-2.8256e-05
0.000983349
0.00183842
0.00250894
0.00298191
0.00324685
0.0033177
0.00322247
0.00300522
0.00271542
0.0024002
0.00210426
0.00186206
0.00169399
0.00160609
0.00159275
0.00163919
0.00172658
0.00182976
0.00192958
0.00200885
0.00205156
0.000321299
0.000262112
0.000167349
5.64096e-05
-4.47406e-05
-0.000128396
-0.000191587
-0.000236757
-0.000270696
-0.00030272
-0.000342696
-0.000400277
-0.000485691
-0.00061096
-0.000789346
-0.00103293
-0.00135452
-0.00176541
-0.00226853
-0.00285968
-0.00353167
-0.00427307
-0.00507078
-0.00591141
-0.00678186
-0.00766921
-0.00856113
-0.00944561
-0.0103112
-0.0111471
-0.0119434
-0.0126908
-0.0133802
-0.014004
-0.0145571
-0.0150377
-0.0154442
-0.0157691
-0.0160071
-0.0161535
-0.0162035
-0.0161562
-0.0160108
-0.0157668
-0.0154195
-0.0149727
-0.0144267
-0.0137831
-0.0130441
-0.012213
-0.0112957
-0.010299
-0.0092327
-0.00810961
-0.00694267
-0.00574212
-0.00452556
-0.00331956
-0.00214556
-0.00104334
-4.78931e-05
0.000821125
0.00151336
0.00201643
0.00233099
0.00246957
0.00246044
0.00234805
0.00217571
0.00198609
0.00181679
0.00169192
0.00162194
0.00160576
0.00163432
0.00169389
0.0017667
0.00183736
0.00188595
0.00190966
0.00053361
0.00045121
0.000328893
0.000202687
9.22928e-05
2.53258e-06
-6.83807e-05
-0.000125762
-0.000178264
-0.000236162
-0.000310028
-0.000410796
-0.000551271
-0.000746305
-0.0010097
-0.00135365
-0.00178999
-0.00232295
-0.00294848
-0.00365815
-0.00444047
-0.00528104
-0.00616637
-0.00708277
-0.00801745
-0.00895785
-0.00989227
-0.0108094
-0.0116988
-0.0125504
-0.0133554
-0.0141058
-0.0147956
-0.0154204
-0.0159753
-0.0164566
-0.0168586
-0.0171768
-0.0174089
-0.0175538
-0.0176092
-0.0175737
-0.0174468
-0.0172284
-0.0169156
-0.0165102
-0.0160136
-0.015427
-0.0147522
-0.0139915
-0.013149
-0.0122297
-0.0112398
-0.0101863
-0.00907759
-0.00792731
-0.00675415
-0.00557338
-0.00439679
-0.00324526
-0.00214256
-0.00112528
-0.000229103
0.000528862
0.00111218
0.00152327
0.00176896
0.00187822
0.00188901
0.0018391
0.0017668
0.00170279
0.00166307
0.00165187
0.001665
0.00169529
0.00173332
0.00176734
0.00178226
0.00178708
0.000804598
0.00069322
0.000541964
0.000395248
0.000273474
0.000173214
8.82502e-05
9.82319e-06
-7.26598e-05
-0.00017044
-0.00029489
-0.000458818
-0.000677179
-0.000965283
-0.00133621
-0.00180036
-0.00236333
-0.00302336
-0.00377132
-0.00459444
-0.00547875
-0.00640945
-0.00737282
-0.00835537
-0.00934455
-0.0103283
-0.0112955
-0.0122356
-0.0131391
-0.0139975
-0.0148033
-0.01555
-0.0162329
-0.0168477
-0.0173907
-0.017859
-0.0182489
-0.0185578
-0.0187842
-0.0189273
-0.0189861
-0.0189598
-0.0188482
-0.0186511
-0.0183679
-0.0179995
-0.0175471
-0.0170123
-0.0163968
-0.0157029
-0.0149335
-0.0140922
-0.0131832
-0.0122105
-0.0111791
-0.0100962
-0.00897127
-0.00781532
-0.00664621
-0.00548361
-0.00433726
-0.00322352
-0.00216206
-0.00119251
-0.000342004
0.000355524
0.000889556
0.00126379
0.00150025
0.00162913
0.00168355
0.00169895
0.00170193
0.00170406
0.00170802
0.00171156
0.00171407
0.00170889
0.00169191
0.00168021
0.00112224
0.000981204
0.000794667
0.000624578
0.000488173
0.000373025
0.000266796
0.00015742
3.251e-05
-0.00011999
-0.000312679
-0.000559666
-0.000876531
-0.00127734
-0.00177245
-0.00236764
-0.00306247
-0.00384875
-0.00471325
-0.00564157
-0.00661852
-0.00762942
-0.00866043
-0.00969832
-0.0107308
-0.0117464
-0.0127346
-0.0136861
-0.0145927
-0.0154473
-0.0162438
-0.0169776
-0.0176448
-0.0182423
-0.0187677
-0.0192191
-0.0195944
-0.0198921
-0.0201112
-0.0202512
-0.0203115
-0.020292
-0.0201926
-0.0200137
-0.0197555
-0.019419
-0.0190053
-0.0185161
-0.017953
-0.0173181
-0.016614
-0.0158434
-0.0150091
-0.0141141
-0.0131615
-0.0121553
-0.0110992
-0.00999806
-0.00885917
-0.00769287
-0.00651507
-0.00534728
-0.00419191
-0.00306681
-0.00199989
-0.00103502
-0.00020711
0.000461011
0.000964079
0.00131413
0.00153443
0.00165552
0.00171455
0.00173776
0.0017377
0.00171955
0.00168963
0.00164871
0.00160514
0.00157927
0.00147238
0.00129996
0.0010735
0.000877177
0.000722421
0.000586533
0.000450914
0.000300079
0.000120086
-0.000102067
-0.000379476
-0.000727129
-0.00115928
-0.00168683
-0.00231586
-0.00304642
-0.00387141
-0.00477789
-0.00575068
-0.00677438
-0.00783344
-0.00891326
-0.01
-0.0110809
-0.0121439
-0.0131786
-0.0141757
-0.0151272
-0.0160264
-0.0168679
-0.0176475
-0.0183617
-0.0190081
-0.0195847
-0.0200901
-0.020523
-0.0208823
-0.0211675
-0.021378
-0.0215135
-0.0215739
-0.0215594
-0.0214703
-0.0213069
-0.0210702
-0.020761
-0.0203807
-0.0199309
-0.0194133
-0.0188299
-0.0181827
-0.0174741
-0.0167061
-0.0158807
-0.015
-0.0140657
-0.0130797
-0.0120434
-0.0109586
-0.00982732
-0.00865402
-0.00744813
-0.00622645
-0.0050047
-0.00379136
-0.00261654
-0.00152378
-0.00056044
0.000236062
0.000847138
0.00127663
0.00154327
0.00168123
0.0017353
0.00173536
0.00169978
0.00164307
0.00157346
0.00151057
0.00147584
0.00183682
0.00163019
0.00136188
0.00113476
0.000957159
0.000794223
0.00062079
0.000418147
0.000171039
-0.000133805
-0.000510483
-0.000972922
-0.0015322
-0.00219488
-0.00296098
-0.00382433
-0.00477275
-0.00579049
-0.00686126
-0.00796902
-0.00909814
-0.0102341
-0.0113634
-0.0124738
-0.0135544
-0.0145959
-0.0155906
-0.0165323
-0.0174161
-0.0182381
-0.0189956
-0.0196866
-0.0203097
-0.0208639
-0.0213484
-0.0217626
-0.0221061
-0.0223788
-0.0225805
-0.0227114
-0.0227713
-0.0227607
-0.0226802
-0.0225302
-0.0223119
-0.0220262
-0.0216746
-0.0212585
-0.0207798
-0.0202403
-0.019642
-0.0189866
-0.018276
-0.0175115
-0.0166943
-0.015825
-0.0149037
-0.01393
-0.012903
-0.0118216
-0.0106844
-0.00949082
-0.00824383
-0.00695409
-0.00564483
-0.00432692
-0.00302763
-0.00180393
-0.000714572
0.000185299
0.000864356
0.00132245
0.00157939
0.00168358
0.00169201
0.00164207
0.00156306
0.0014717
0.00139649
0.00135658
0.00219074
0.00194861
0.00163464
0.00137518
0.00117066
0.000974406
0.000755026
0.000491392
0.000167207
-0.000231833
-0.000719408
-0.00130629
-0.00199939
-0.0027987
-0.0036985
-0.00468733
-0.00574936
-0.00686719
-0.0080238
-0.00920274
-0.0103885
-0.0115669
-0.0127251
-0.0138519
-0.0149379
-0.0159756
-0.016959
-0.0178837
-0.0187465
-0.0195451
-0.0202781
-0.0209445
-0.0215437
-0.0220756
-0.0225399
-0.0229365
-0.0232653
-0.0235264
-0.0237202
-0.0238467
-0.0239062
-0.0238991
-0.0238262
-0.023688
-0.0234856
-0.0232201
-0.022893
-0.0225057
-0.0220599
-0.0215575
-0.0210003
-0.0203899
-0.0197279
-0.0190154
-0.0182529
-0.0174404
-0.0165772
-0.0156613
-0.0146903
-0.0136607
-0.0125683
-0.0114089
-0.0101791
-0.00887877
-0.00751397
-0.00609981
-0.00466329
-0.00323765
-0.0018918
-0.000701463
0.000259497
0.000951914
0.00137794
0.00157104
0.00160279
0.00154491
0.0014459
0.00133616
0.00125334
0.00120938
0.00250684
0.00222975
0.00186998
0.00157607
0.0013404
0.0011045
0.000832138
0.000500115
9.05236e-05
-0.000411874
-0.00101759
-0.00173344
-0.00256002
-0.00349162
-0.00451721
-0.00562094
-0.00678448
-0.00798943
-0.00921826
-0.0104544
-0.0116827
-0.0128897
-0.0140637
-0.0151952
-0.0162766
-0.0173022
-0.0182679
-0.0191711
-0.0200099
-0.0207835
-0.0214914
-0.0221335
-0.0227099
-0.0232209
-0.0236665
-0.0240472
-0.024363
-0.0246142
-0.0248011
-0.0249242
-0.0249836
-0.02498
-0.0249139
-0.0247861
-0.0245977
-0.0243497
-0.0240436
-0.0236807
-0.0232629
-0.0227916
-0.0222688
-0.021696
-0.0210745
-0.0204053
-0.0196889
-0.0189249
-0.018112
-0.0172478
-0.0163288
-0.01535
-0.0143054
-0.0131882
-0.0119916
-0.0107101
-0.00934132
-0.00788807
-0.00636578
-0.00480775
-0.00326422
-0.00181794
-0.000567432
0.00039971
0.00104242
0.00137583
0.00146467
0.00141037
0.0012937
0.00116657
0.00107614
0.00102528
0.00276558
0.0024498
0.00204496
0.00171498
0.0014439
0.00116306
0.000832786
0.00042697
-7.51694e-05
-0.000685965
-0.00141192
-0.00225493
-0.00320952
-0.00426487
-0.00540497
-0.00661062
-0.0078619
-0.0091397
-0.0104262
-0.0117052
-0.0129622
-0.0141849
-0.0153634
-0.0164899
-0.017559
-0.0185667
-0.0195108
-0.0203901
-0.021204
-0.0219527
-0.0226364
-0.0232557
-0.0238111
-0.0243032
-0.0247324
-0.0250992
-0.0254039
-0.0256469
-0.0258284
-0.0259489
-0.0260089
-0.0260087
-0.025949
-0.0258307
-0.0256547
-0.025422
-0.025134
-0.024792
-0.0243977
-0.0239526
-0.0234585
-0.0229168
-0.0223288
-0.0216955
-0.0210172
-0.0202936
-0.0195233
-0.0187037
-0.0178309
-0.0168994
-0.0159024
-0.0148313
-0.013677
-0.0124302
-0.011083
-0.00963194
-0.00808081
-0.00644814
-0.00477545
-0.00313281
-0.00162362
-0.000367573
0.000539519
0.00106906
0.00126521
0.0012376
0.00111084
0.000965471
0.000860824
0.000797195
0.00293112
0.00258439
0.00213787
0.00177144
0.0014617
0.00113292
0.000741136
0.000256326
-0.000340709
-0.00105948
-0.00190328
-0.00286716
-0.00394078
-0.0051081
-0.00634905
-0.00764209
-0.0089662
-0.0103019
-0.0116315
-0.0129393
-0.0142121
-0.0154394
-0.016613
-0.0177273
-0.0187787
-0.0197652
-0.0206858
-0.0215405
-0.02233
-0.0230549
-0.0237163
-0.0243149
-0.0248516
-0.0253273
-0.0257423
-0.0260974
-0.026393
-0.0266293
-0.0268067
-0.0269257
-0.0269867
-0.0269902
-0.0269366
-0.026827
-0.026662
-0.0264428
-0.0261705
-0.0258465
-0.0254723
-0.0250493
-0.0245791
-0.0240632
-0.0235029
-0.022899
-0.022252
-0.0215616
-0.0208266
-0.0200446
-0.0192117
-0.0183225
-0.0173697
-0.0163444
-0.0152362
-0.0140335
-0.0127247
-0.0113008
-0.00975792
-0.0081025
-0.00636076
-0.00458951
-0.00288077
-0.00135829
-0.000161724
0.00061565
0.000979604
0.00102182
0.000896862
0.000732641
0.000602715
0.00052162
0.00299109
0.00261635
0.00213168
0.00172909
0.00137934
0.00100081
0.000544691
-2.01486e-05
-0.000710659
-0.00153414
-0.00248854
-0.00356395
-0.0047446
-0.00600984
-0.00733653
-0.0087015
-0.0100831
-0.0114618
-0.0128203
-0.0141442
-0.0154218
-0.0166444
-0.0178062
-0.0189032
-0.0199337
-0.0208971
-0.0217938
-0.0226247
-0.0233911
-0.0240942
-0.0247354
-0.0253157
-0.0258362
-0.0262977
-0.0267009
-0.0270463
-0.0273344
-0.0275656
-0.0277401
-0.0278585
-0.027921
-0.0279282
-0.0278806
-0.0277789
-0.027624
-0.0274168
-0.0271583
-0.02685
-0.0264929
-0.0260887
-0.0256387
-0.0251444
-0.0246069
-0.0240272
-0.0234058
-0.0227426
-0.0220366
-0.0212857
-0.0204866
-0.019634
-0.018721
-0.0177387
-0.0166764
-0.0155213
-0.0142601
-0.0128797
-0.0113704
-0.00972892
-0.00796704
-0.006125
-0.00428326
-0.00255038
-0.00107345
-6.94627e-06
0.000578611
0.000742166
0.000646515
0.000464446
0.000297319
0.000197615
0.00293044
0.00253234
0.00201437
0.0015773
0.0011874
0.000757512
0.000236362
-0.00040555
-0.00118501
-0.00210629
-0.00316178
-0.00433664
-0.00561017
-0.00695793
-0.00835454
-0.00977579
-0.0111998
-0.0126072
-0.0139818
-0.0153107
-0.0165839
-0.017795
-0.0189397
-0.0200163
-0.0210243
-0.0219643
-0.0228378
-0.0236462
-0.0243914
-0.0250749
-0.0256982
-0.0262626
-0.0267692
-0.0272187
-0.027612
-0.0279496
-0.0282318
-0.0284591
-0.0286317
-0.0287501
-0.0288145
-0.0288256
-0.0287836
-0.0286894
-0.0285437
-0.0283472
-0.0281011
-0.0278064
-0.0274644
-0.0270763
-0.0266435
-0.0261673
-0.0256489
-0.0250892
-0.0244889
-0.0238479
-0.0231656
-0.0224404
-0.0216693
-0.0208479
-0.0199697
-0.0190265
-0.0180077
-0.0169004
-0.0156902
-0.0143619
-0.0129018
-0.0113001
-0.00955576
-0.00769006
-0.00577024
-0.00389315
-0.00218487
-0.000827067
3.085e-05
0.000377735
0.000348688
0.000151903
-5.92121e-05
-0.000176421
0.00274036
0.00232451
0.00177915
0.00131031
0.00088041
0.000399736
-0.000183176
-0.000897786
-0.00175992
-0.00276932
-0.00391411
-0.00517453
-0.00652559
-0.00793996
-0.00939069
-0.010853
-0.0123051
-0.0137284
-0.0151079
-0.0164325
-0.0176943
-0.0188886
-0.0200132
-0.0210675
-0.0220526
-0.0229698
-0.0238213
-0.024609
-0.025335
-0.0260011
-0.0266088
-0.0271595
-0.0276542
-0.0280938
-0.0284789
-0.0288101
-0.0290877
-0.0293121
-0.0294837
-0.0296026
-0.0296693
-0.0296841
-0.0296477
-0.0295604
-0.029423
-0.0292363
-0.0290012
-0.0287187
-0.0283898
-0.0280159
-0.027598
-0.0271373
-0.0266351
-0.0260922
-0.0255094
-0.0248867
-0.024224
-0.0235198
-0.022772
-0.0219768
-0.0211286
-0.0202199
-0.0192409
-0.0181792
-0.0170202
-0.0157477
-0.0143453
-0.0127995
-0.0111005
-0.00925005
-0.00728983
-0.00533049
-0.00345849
-0.00184034
-0.000685098
-0.00010276
-1.98908e-05
-0.000212929
-0.000467023
-0.000600287
0.0024185
0.00199098
0.00142475
0.000927449
0.000459181
-6.98021e-05
-0.000709939
-0.00149085
-0.00242677
-0.00351335
-0.00473429
-0.00606546
-0.00747841
-0.00894367
-0.0104333
-0.0119224
-0.0133896
-0.0148175
-0.0161927
-0.0175057
-0.0187508
-0.0199249
-0.0210274
-0.022059
-0.0230215
-0.023917
-0.0247481
-0.025517
-0.0262259
-0.0268766
-0.0274708
-0.0280097
-0.0284943
-0.0289255
-0.0293039
-0.0296299
-0.029904
-0.0301263
-0.0302973
-0.0304172
-0.0304863
-0.030505
-0.0304737
-0.0303929
-0.0302633
-0.0300855
-0.0298603
-0.0295887
-0.0292716
-0.0289101
-0.0285053
-0.0280582
-0.0275699
-0.0270414
-0.0264734
-0.0258662
-0.0252197
-0.0245331
-0.0238046
-0.0230313
-0.0222086
-0.02133
-0.0203866
-0.0193671
-0.0182574
-0.0170408
-0.0156995
-0.0142173
-0.0125802
-0.0107775
-0.00881868
-0.00680658
-0.00483957
-0.00302576
-0.00158982
-0.000731046
-0.000476651
-0.000639157
-0.000924239
-0.00107375
0.00196821
0.00153537
0.000954895
0.000432866
-7.0879e-05
-0.000643634
-0.00133527
-0.00217527
-0.0031748
-0.00432636
-0.00560958
-0.00699654
-0.00845609
-0.00995731
-0.0114718
-0.0129748
-0.0144459
-0.0158689
-0.0172322
-0.0185282
-0.0197529
-0.0209048
-0.0219843
-0.0229933
-0.0239341
-0.0248093
-0.0256216
-0.0263735
-0.0270672
-0.0277045
-0.0282869
-0.0288156
-0.0292917
-0.0297159
-0.0300887
-0.0304105
-0.0306817
-0.0309027
-0.0310736
-0.0311946
-0.0312662
-0.0312886
-0.0312622
-0.0311875
-0.031065
-0.0308954
-0.0306793
-0.0304176
-0.0301111
-0.0297607
-0.0293675
-0.0289325
-0.0284565
-0.0279406
-0.0273854
-0.0267914
-0.0261587
-0.0254869
-0.0247748
-0.02402
-0.023219
-0.0223664
-0.0214545
-0.0204732
-0.0194093
-0.0182468
-0.0169672
-0.0155519
-0.0139845
-0.0122493
-0.0103378
-0.00829186
-0.00627639
-0.00433883
-0.00266567
-0.00151982
-0.00104727
-0.00114307
-0.00142984
-0.00160165
0.00139785
0.000966051
0.000377498
-0.000164653
-0.000699768
-0.00131129
-0.00204797
-0.00293827
-0.00399079
-0.00519481
-0.00652642
-0.00795467
-0.00944643
-0.0109699
-0.0124966
-0.0140023
-0.0154678
-0.0168783
-0.0182241
-0.0194992
-0.0207011
-0.0218296
-0.0228862
-0.0238731
-0.0247934
-0.0256497
-0.026445
-0.0271816
-0.0278617
-0.0284871
-0.0290592
-0.0295792
-0.030048
-0.0304661
-0.0308342
-0.0311526
-0.0314216
-0.0316416
-0.0318127
-0.0319351
-0.0320091
-0.0320351
-0.0320133
-0.0319443
-0.0318284
-0.0316663
-0.0314585
-0.0312058
-0.030909
-0.0305688
-0.0301861
-0.0297619
-0.029297
-0.0287922
-0.0282484
-0.0276661
-0.0270455
-0.0263866
-0.0256885
-0.0249497
-0.0241673
-0.0233371
-0.0224528
-0.0215056
-0.0204837
-0.019372
-0.0181524
-0.0168048
-0.0153108
-0.0136532
-0.0118115
-0.00978285
-0.00772662
-0.00572947
-0.00388654
-0.00247745
-0.00175362
-0.00172278
-0.00198862
-0.00219477
0.000719837
0.000295368
-0.000295
-0.00085245
-0.00141404
-0.0020589
-0.00283398
-0.00376561
-0.00486023
-0.00610432
-0.00747103
-0.00892706
-0.0104379
-0.0119714
-0.0134993
-0.0149984
-0.0164506
-0.0178428
-0.0191669
-0.0204185
-0.0215963
-0.0227012
-0.0237352
-0.0247011
-0.025602
-0.026441
-0.0272206
-0.0279435
-0.0286115
-0.0292264
-0.0297894
-0.0303018
-0.0307641
-0.0311771
-0.0315412
-0.0318567
-0.0321239
-0.0323432
-0.0325146
-0.0326384
-0.0327148
-0.0327442
-0.0327268
-0.032663
-0.0325533
-0.0323981
-0.032198
-0.0319536
-0.0316656
-0.0313347
-0.0309617
-0.0305474
-0.0300926
-0.0295981
-0.0290646
-0.0284928
-0.0278831
-0.0272356
-0.02655
-0.0258251
-0.0250591
-0.0242485
-0.0233885
-0.0224715
-0.0214875
-0.0204227
-0.0192599
-0.0179787
-0.0165587
-0.0149812
-0.0132242
-0.0112683
-0.00917486
-0.00715407
-0.00521736
-0.00359644
-0.00261365
-0.00239515
-0.00261762
-0.00286992
-4.87712e-05
-0.000461837
-0.00104757
-0.00161551
-0.00219912
-0.00287185
-0.00367784
-0.00464184
-0.00576799
-0.0070404
-0.00842991
-0.0099015
-0.0114199
-0.0129529
-0.0144729
-0.0159577
-0.0173907
-0.0187604
-0.02006
-0.0212866
-0.0224398
-0.0235212
-0.0245333
-0.0254793
-0.0263622
-0.0271851
-0.0279506
-0.0286609
-0.0293181
-0.0299235
-0.0304786
-0.0309841
-0.0314408
-0.0318492
-0.0322098
-0.0325229
-0.0327886
-0.0330074
-0.0331792
-0.0333044
-0.0333831
-0.0334157
-0.0334023
-0.0333434
-0.0332394
-0.0330906
-0.0328976
-0.0326609
-0.0323811
-0.0320588
-0.0316947
-0.0312896
-0.0308442
-0.0303592
-0.0298353
-0.0292733
-0.0286736
-0.0280366
-0.0273622
-0.0266498
-0.0258983
-0.0251053
-0.0242667
-0.0233767
-0.0224267
-0.0214047
-0.0202949
-0.0190776
-0.0177309
-0.016235
-0.0145699
-0.0127047
-0.0106247
-0.00858239
-0.00661544
-0.0048498
-0.00363039
-0.00319447
-0.0033341
-0.00364831
-0.0008891
-0.00128827
-0.00186442
-0.00243853
-0.00303921
-0.00373391
-0.00456354
-0.0055512
-0.00669894
-0.0079889
-0.00939019
-0.0108667
-0.0123828
-0.0139065
-0.0154113
-0.016876
-0.0182855
-0.0196296
-0.0209031
-0.022104
-0.0232327
-0.0242912
-0.0252825
-0.0262096
-0.0270757
-0.0278838
-0.0286362
-0.0293352
-0.0299825
-0.0305795
-0.0311272
-0.0316266
-0.0320783
-0.0324827
-0.0328402
-0.0331511
-0.0334156
-0.0336339
-0.0338062
-0.0339326
-0.0340135
-0.034049
-0.0340394
-0.0339851
-0.0338863
-0.0337434
-0.033557
-0.0333274
-0.0330552
-0.032741
-0.0323853
-0.0319888
-0.0315521
-0.0310761
-0.0305613
-0.0300084
-0.0294182
-0.0287909
-0.028127
-0.0274263
-0.026688
-0.0259107
-0.0250914
-0.0242257
-0.0233063
-0.0223231
-0.021262
-0.0201046
-0.018829
-0.0174134
-0.0158371
-0.0140697
-0.0120814
-0.0100071
-0.00804421
-0.00620841
-0.0047989
-0.00413943
-0.00415537
-0.00455784
-0.00178294
-0.00216592
-0.00272856
-0.00330448
-0.00391728
-0.00462817
-0.00547473
-0.00647807
-0.00763841
-0.00893639
-0.0103399
-0.0118123
-0.0133179
-0.0148255
-0.0163094
-0.0177498
-0.0191327
-0.0204496
-0.0216962
-0.0228713
-0.0239759
-0.0250124
-0.0259839
-0.0268933
-0.0277438
-0.0285381
-0.0292786
-0.0299672
-0.0306054
-0.0311947
-0.0317358
-0.0322297
-0.0326767
-0.0330774
-0.0334321
-0.0337411
-0.0340044
-0.0342223
-0.0343951
-0.0345228
-0.0346056
-0.0346438
-0.0346377
-0.0345875
-0.0344935
-0.0343562
-0.0341758
-0.0339529
-0.0336878
-0.033381
-0.0330332
-0.0326448
-0.0322165
-0.031749
-0.0312428
-0.0306988
-0.0301175
-0.0294997
-0.0288457
-0.0281558
-0.0274299
-0.0266671
-0.0258654
-0.0250215
-0.0241298
-0.0231819
-0.0221655
-0.021064
-0.0198564
-0.0185191
-0.0170307
-0.0153661
-0.0134913
-0.011421
-0.00947863
-0.00763883
-0.00610222
-0.00523015
-0.00510776
-0.00561318
-0.00271184
-0.00307668
-0.0036224
-0.00419586
-0.0048162
-0.00553807
-0.00639551
-0.00740748
-0.00857259
-0.00987043
-0.0112683
-0.0127292
-0.014218
-0.0157041
-0.017163
-0.0185761
-0.0199308
-0.0212196
-0.0224392
-0.023589
-0.0246703
-0.0256859
-0.0266385
-0.0275314
-0.0283674
-0.029149
-0.0298784
-0.0305574
-0.0311873
-0.0317694
-0.0323045
-0.0327932
-0.0332361
-0.0336334
-0.0339855
-0.0342926
-0.0345549
-0.0347724
-0.0349455
-0.0350743
-0.0351589
-0.0351996
-0.0351967
-0.0351503
-0.0350608
-0.0349285
-0.0347537
-0.0345369
-0.0342784
-0.0339787
-0.0336383
-0.0332576
-0.0328372
-0.0323778
-0.03188
-0.0313444
-0.0307719
-0.0301631
-0.0295188
-0.0288393
-0.0281251
-0.0273758
-0.0265903
-0.0257664
-0.0248999
-0.023984
-0.0230084
-0.0219584
-0.0208145
-0.0195534
-0.0181537
-0.0165941
-0.0148332
-0.012829
-0.0108862
-0.0090884
-0.00749403
-0.00645005
-0.00621364
-0.00679944
-0.00365792
-0.00400251
-0.00452839
-0.00509602
-0.00571985
-0.00644796
-0.00731095
-0.00832548
-0.00948876
-0.0107797
-0.0121655
-0.0136092
-0.0150763
-0.0165372
-0.0179684
-0.0193526
-0.0206783
-0.021939
-0.023132
-0.0242573
-0.0253165
-0.0263121
-0.0272472
-0.0281246
-0.028947
-0.0297168
-0.0304359
-0.031106
-0.0317283
-0.0323038
-0.0328333
-0.0333173
-0.0337562
-0.0341504
-0.0345
-0.0348054
-0.0350666
-0.0352838
-0.0354572
-0.0355869
-0.0356731
-0.0357161
-0.035716
-0.0356731
-0.0355876
-0.0354599
-0.0352904
-0.0350792
-0.0348269
-0.0345337
-0.0342002
-0.0338268
-0.033414
-0.0329624
-0.0324726
-0.0319453
-0.0313813
-0.0307814
-0.0301463
-0.0294769
-0.0287739
-0.0280374
-0.0272671
-0.0264617
-0.0256182
-0.0247315
-0.0237931
-0.0227903
-0.0217056
-0.0205167
-0.0192007
-0.0177367
-0.0160899
-0.0142199
-0.0122688
-0.0105217
-0.00892335
-0.0077662
-0.00746209
-0.00808531
-0.00460368
-0.00492626
-0.00543001
-0.00598914
-0.00661302
-0.00734334
-0.00820733
-0.00921938
-0.0103755
-0.0116543
-0.013023
-0.0144453
-0.0158875
-0.0173208
-0.0187228
-0.0200774
-0.0213741
-0.0226072
-0.0237746
-0.0248764
-0.0259146
-0.0268915
-0.0278101
-0.0286731
-0.0294829
-0.0302418
-0.0309514
-0.0316132
-0.0322284
-0.0327978
-0.033322
-0.0338016
-0.0342368
-0.034628
-0.0349754
-0.0352792
-0.0355393
-0.0357562
-0.0359298
-0.0360603
-0.0361479
-0.0361928
-0.0361953
-0.0361555
-0.0360738
-0.0359503
-0.0357855
-0.0355795
-0.0353329
-0.0350458
-0.0347188
-0.0343523
-0.0339467
-0.0335025
-0.0330204
-0.0325011
-0.0319454
-0.0313541
-0.0307281
-0.0300686
-0.0293763
-0.028652
-0.027896
-0.0271078
-0.0262856
-0.0254256
-0.0245212
-0.0235617
-0.0225317
-0.0214105
-0.0201744
-0.0188022
-0.0172677
-0.0155363
-0.0136154
-0.0119137
-0.0103494
-0.0091362
-0.00879157
-0.00939433
-0.00553294
-0.0058323
-0.00631237
-0.00686072
-0.0074818
-0.00821101
-0.00907229
-0.0100779
-0.0112229
-0.0124853
-0.0138334
-0.0152316
-0.0166467
-0.0180511
-0.0194234
-0.0207486
-0.022017
-0.0232236
-0.0243665
-0.0254463
-0.0264647
-0.0274242
-0.0283275
-0.029177
-0.0299752
-0.0307239
-0.0314247
-0.0320789
-0.0326874
-0.0332511
-0.0337705
-0.0342459
-0.0346778
-0.0350662
-0.0354114
-0.0357136
-0.0359728
-0.0361892
-0.0363629
-0.0364941
-0.0365829
-0.0366296
-0.0366344
-0.0365974
-0.0365189
-0.0363993
-0.0362388
-0.0360376
-0.0357962
-0.0355148
-0.0351938
-0.0348337
-0.0344348
-0.0339977
-0.033523
-0.0330114
-0.0324637
-0.0318808
-0.0312638
-0.0306138
-0.0299319
-0.0292193
-0.0284769
-0.0277047
-0.0269022
-0.0260667
-0.0251932
-0.0242731
-0.0232931
-0.0222343
-0.021074
-0.0197916
-0.0183664
-0.0167566
-0.0149265
-0.0132447
-0.0117279
-0.0105032
-0.0101094
-0.0106118
-0.00643022
-0.00670651
-0.00716195
-0.00769779
-0.00831379
-0.00903922
-0.00989487
-0.010891
-0.0120222
-0.0132654
-0.0145903
-0.0159627
-0.0173499
-0.0187252
-0.0200683
-0.0213649
-0.0226062
-0.0237876
-0.0249075
-0.0259667
-0.0269667
-0.0279101
-0.0287992
-0.0296364
-0.0304238
-0.0311631
-0.0318557
-0.0325028
-0.0331053