/*--------------------------------*- C++ -*----------------------------------*\
  =========                 |
  \\      /  F ield         | OpenFOAM: The Open Source CFD Toolbox
   \\    /   O peration     | Website:  https://openfoam.org
    \\  /    A nd           | Version:  13
     \\/     M anipulation  |
\*---------------------------------------------------------------------------*/
FoamFile
{
    format      ascii;
    class       surfaceScalarField;
    location    "7.8";
    object      phi;
}
// * * * * * * * * * * * * * * * * * * * * * * * * * * * * * * * * * * * * * //

dimensions      [0 3 -1 0 0 0 0];

internalField   nonuniform List<scalar> 
12640
(
1.69427e-09
-1.69432e-09
1.54535e-08
-1.37592e-08
3.96177e-08
-2.41642e-08
6.74745e-08
-2.78568e-08
9.26012e-08
-2.51267e-08
1.11395e-07
-1.87937e-08
1.22503e-07
-1.1108e-08
1.26845e-07
-4.34248e-09
1.26741e-07
1.04269e-10
1.24532e-07
2.20904e-09
1.22204e-07
2.32771e-09
1.21033e-07
1.17121e-09
1.21418e-07
-3.85282e-10
1.23085e-07
-1.66663e-09
1.2519e-07
-2.10452e-09
1.26802e-07
-1.61286e-09
1.27043e-07
-2.40229e-10
1.2539e-07
1.65301e-09
1.20974e-07
4.41571e-09
1.12904e-07
8.06985e-09
1.00629e-07
1.22754e-08
8.35509e-08
1.70776e-08
6.12332e-08
2.23178e-08
3.34892e-08
2.77439e-08
2.83158e-10
3.32061e-08
-3.85692e-08
3.88523e-08
-8.4494e-08
4.59248e-08
-1.3993e-07
5.5436e-08
-2.07792e-07
6.7862e-08
-2.90264e-07
8.2472e-08
-3.86267e-07
9.60031e-08
-4.92163e-07
1.05895e-07
-6.04426e-07
1.12263e-07
-7.19608e-07
1.15182e-07
-8.34714e-07
1.15106e-07
-9.47133e-07
1.12419e-07
-1.05474e-06
1.07604e-07
-1.1558e-06
1.01064e-07
-1.24897e-06
9.31668e-08
-1.33318e-06
8.42166e-08
-1.40759e-06
7.44016e-08
-1.47149e-06
6.38997e-08
-1.52427e-06
5.2782e-08
-1.56536e-06
4.10891e-08
-1.59414e-06
2.87861e-08
-1.61046e-06
1.63148e-08
-1.61445e-06
3.98906e-09
-1.60413e-06
-1.03148e-08
-1.58039e-06
-2.37467e-08
-1.5421e-06
-3.8288e-08
-1.48939e-06
-5.27032e-08
-1.4221e-06
-6.72924e-08
-1.34055e-06
-8.15555e-08
-1.24519e-06
-9.53596e-08
-1.13668e-06
-1.08508e-07
-1.01593e-06
-1.20745e-07
-8.84375e-07
-1.31559e-07
-7.43825e-07
-1.40549e-07
-5.96663e-07
-1.47163e-07
-4.45767e-07
-1.50895e-07
-2.94645e-07
-1.51122e-07
-1.47141e-07
-1.47505e-07
-7.26601e-09
-1.39875e-07
1.21632e-07
-1.28898e-07
2.34783e-07
-1.13151e-07
3.28388e-07
-9.36053e-08
3.99192e-07
-7.08042e-08
4.44757e-07
-4.55645e-08
4.6379e-07
-1.9033e-08
4.55172e-07
8.61792e-09
4.21956e-07
3.32158e-08
3.66693e-07
5.52631e-08
2.95642e-07
7.10512e-08
2.18335e-07
7.73066e-08
1.45709e-07
7.26265e-08
8.50517e-08
6.06571e-08
4.01299e-08
4.49218e-08
1.15275e-08
2.86024e-08
-7.15625e-10
1.22431e-08
-7.15625e-10
1.06839e-08
-1.23782e-08
4.37786e-08
-4.68539e-08
8.94998e-08
-6.98854e-08
1.3608e-07
-7.44366e-08
1.75908e-07
-6.4955e-08
2.05216e-07
-4.81016e-08
2.23426e-07
-2.93184e-08
2.31557e-07
-1.24731e-08
2.3141e-07
2.51148e-10
2.25341e-07
8.27797e-09
2.15612e-07
1.20561e-08
2.03779e-07
1.30049e-08
1.9032e-07
1.30733e-08
1.74668e-07
1.39853e-08
1.55778e-07
1.67858e-08
1.32513e-07
2.1652e-08
1.03941e-07
2.83315e-08
6.87864e-08
3.6808e-08
2.58048e-08
4.73973e-08
-2.65421e-08
6.04168e-08
-9.03065e-08
7.60399e-08
-1.67258e-07
9.4029e-08
-2.58586e-07
1.13646e-07
-3.65131e-07
1.34289e-07
-4.87444e-07
1.55519e-07
-6.25242e-07
1.7665e-07
-7.75955e-07
1.96637e-07
-9.35314e-07
2.14795e-07
-1.09785e-06
2.30401e-07
-1.25773e-06
2.4235e-07
-1.41152e-06
2.49791e-07
-1.55822e-06
2.52598e-07
-1.69643e-06
2.50468e-07
-1.82489e-06
2.4365e-07
-1.94264e-06
2.32848e-07
-2.04901e-06
2.1879e-07
-2.14353e-06
2.02131e-07
-2.22593e-06
1.83462e-07
-2.29598e-06
1.63216e-07
-2.35355e-06
1.41789e-07
-2.39853e-06
1.1938e-07
-2.43081e-06
9.61773e-08
-2.45029e-06
7.22657e-08
-2.45693e-06
4.77262e-08
-2.45074e-06
2.26e-08
-2.43093e-06
-3.50233e-09
-2.39776e-06
-2.91747e-08
-2.35161e-06
-5.6468e-08
-2.29136e-06
-8.39982e-08
-2.21756e-06
-1.12081e-07
-2.12987e-06
-1.40398e-07
-2.02835e-06
-1.68811e-07
-1.91294e-06
-1.96965e-07
-1.78385e-06
-2.2445e-07
-1.64167e-06
-2.50687e-07
-1.48753e-06
-2.74883e-07
-1.32273e-06
-2.96366e-07
-1.1491e-06
-3.14177e-07
-9.68999e-07
-3.27264e-07
-7.85123e-07
-3.34772e-07
-6.00505e-07
-3.3574e-07
-4.18581e-07
-3.29429e-07
-2.42942e-07
-3.15513e-07
-7.78186e-08
-2.94021e-07
7.38016e-08
-2.64771e-07
2.08472e-07
-2.28276e-07
3.22709e-07
-1.85041e-07
4.13962e-07
-1.36818e-07
4.79798e-07
-8.48685e-08
5.19751e-07
-3.13354e-08
5.32123e-07
2.08444e-08
5.1754e-07
6.9846e-08
4.77987e-07
1.10604e-07
4.14699e-07
1.40595e-07
3.31107e-07
1.56219e-07
2.376e-07
1.54164e-07
1.46645e-07
1.35877e-07
7.07037e-08
1.04544e-07
1.99036e-08
6.30433e-08
1.91879e-08
2.01972e-08
-3.25753e-08
6.68539e-08
-9.35107e-08
1.191e-07
-1.22132e-07
1.65032e-07
-1.20369e-07
2.00251e-07
-1.00174e-07
2.23831e-07
-7.16815e-08
2.36483e-07
-4.19703e-08
2.39194e-07
-1.51847e-08
2.33145e-07
6.3002e-09
2.19819e-07
2.16038e-08
2.00597e-07
3.12788e-08
1.76051e-07
3.75509e-08
1.45982e-07
4.31419e-08
1.09563e-07
5.0404e-08
6.56218e-08
6.07274e-08
1.27208e-08
7.4553e-08
-5.08855e-08
9.19378e-08
-1.27014e-07
1.12936e-07
-2.17207e-07
1.37591e-07
-3.22688e-07
1.65898e-07
-4.43918e-07
1.9727e-07
-5.80512e-07
2.30623e-07
-7.31385e-07
2.64518e-07
-8.94036e-07
2.96941e-07
-1.06499e-06
3.26476e-07
-1.23997e-06
3.51627e-07
-1.41466e-06
3.71332e-07
-1.58507e-06
3.85203e-07
-1.74761e-06
3.92939e-07
-1.89973e-06
3.94467e-07
-2.03995e-06
3.90015e-07
-2.16736e-06
3.80005e-07
-2.28198e-06
3.6509e-07
-2.38426e-06
3.45933e-07
-2.47451e-06
3.23099e-07
-2.5531e-06
2.97375e-07
-2.62031e-06
2.69344e-07
-2.67641e-06
2.39557e-07
-2.72154e-06
2.08352e-07
-2.75584e-06
1.76086e-07
-2.77936e-06
1.429e-07
-2.79209e-06
1.08902e-07
-2.79396e-06
7.41419e-08
-2.78486e-06
3.86223e-08
-2.7645e-06
2.23992e-09
-2.7331e-06
-3.48994e-08
-2.68944e-06
-7.28313e-08
-2.63407e-06
-1.11843e-07
-2.5664e-06
-1.51664e-07
-2.48623e-06
-1.92251e-07
-2.39332e-06
-2.33308e-07
-2.28755e-06
-2.74587e-07
-2.16887e-06
-3.15643e-07
-2.03745e-06
-3.55871e-07
-1.89372e-06
-3.94416e-07
-1.73839e-06
-4.30212e-07
-1.57253e-06
-4.62222e-07
-1.39757e-06
-4.89139e-07
-1.21541e-06
-5.09421e-07
-1.02858e-06
-5.21604e-07
-8.39895e-07
-5.24426e-07
-6.52672e-07
-5.16653e-07
-4.70537e-07
-4.97648e-07
-2.97222e-07
-4.67337e-07
-1.3591e-07
-4.26083e-07
1.02602e-08
-3.74446e-07
1.3884e-07
-3.13621e-07
2.47114e-07
-2.45091e-07
3.33632e-07
-1.71387e-07
3.97574e-07
-9.52769e-08
4.38103e-07
-1.96854e-08
4.54818e-07
5.31315e-08
4.46568e-07
1.18853e-07
4.14782e-07
1.72381e-07
3.60964e-07
2.10036e-07
2.88076e-07
2.27052e-07
2.02801e-07
2.21152e-07
1.15754e-07
1.91591e-07
4.06539e-08
1.38143e-07
5.98419e-08
2.80461e-08
-6.06214e-08
8.10664e-08
-1.46531e-07
1.30808e-07
-1.71874e-07
1.68776e-07
-1.58336e-07
1.93786e-07
-1.25184e-07
2.07091e-07
-8.49869e-08
2.09912e-07
-4.47904e-08
2.03378e-07
-8.65075e-09
1.88272e-07
2.14063e-08
1.65054e-07
4.48209e-08
1.33503e-07
6.28307e-08
9.31021e-08
7.79515e-08
4.30686e-08
9.31753e-08
-1.7551e-08
1.11024e-07
-8.98772e-08
1.33054e-07
-1.7529e-07
1.59966e-07
-2.75255e-07
1.91902e-07
-3.91032e-07
2.28713e-07
-5.23155e-07
2.69713e-07
-6.71103e-07
3.13847e-07
-8.33021e-07
3.59188e-07
-1.00571e-06
4.03315e-07
-1.1853e-06
4.44105e-07
-1.36745e-06
4.79095e-07
-1.54804e-06
5.07058e-07
-1.72314e-06
5.26729e-07
-1.88928e-06
5.37473e-07
-2.0438e-06
5.39725e-07
-2.18539e-06
5.3453e-07
-2.31369e-06
5.22765e-07
-2.42894e-06
5.05262e-07
-2.53174e-06
4.82806e-07
-2.62274e-06
4.56089e-07
-2.70266e-06
4.25854e-07
-2.77221e-06
3.92647e-07
-2.83192e-06
3.57089e-07
-2.88221e-06
3.19636e-07
-2.92338e-06
2.80723e-07
-2.95562e-06
2.40591e-07
-2.97899e-06
1.99456e-07
-2.99349e-06
1.57403e-07
-2.99906e-06
1.14467e-07
-2.99551e-06
7.05957e-08
-2.98261e-06
2.57233e-08
-2.96015e-06
-2.02218e-08
-2.92777e-06
-6.72815e-08
-2.88501e-06
-1.15584e-07
-2.83163e-06
-1.65227e-07
-2.76714e-06
-2.16152e-07
-2.69118e-06
-2.68218e-07
-2.60338e-06
-3.21101e-07
-2.50346e-06
-3.74505e-07
-2.3912e-06
-4.27908e-07
-2.26646e-06
-4.80607e-07
-2.12931e-06
-5.31571e-07
-1.98012e-06
-5.79406e-07
-1.81968e-06
-6.22658e-07
-1.64905e-06
-6.59767e-07
-1.46974e-06
-6.88736e-07
-1.28382e-06
-7.07517e-07
-1.09382e-06
-7.14428e-07
-9.0281e-07
-7.07664e-07
-7.14435e-07
-6.86023e-07
-5.32873e-07
-6.48898e-07
-3.61862e-07
-5.97094e-07
-2.04516e-07
-5.31792e-07
-6.38198e-08
-4.54317e-07
5.80969e-08
-3.67008e-07
1.59557e-07
-2.72847e-07
2.39533e-07
-1.75253e-07
2.97676e-07
-7.78282e-08
3.34711e-07
1.60965e-08
3.5061e-07
1.02954e-07
3.44759e-07
1.78232e-07
3.17249e-07
2.37546e-07
2.68819e-07
2.75482e-07
2.03281e-07
2.8669e-07
1.26482e-07
2.6839e-07
4.89505e-08
2.15674e-07
1.08792e-07
3.4037e-08
-9.46584e-08
8.62607e-08
-1.98755e-07
1.27179e-07
-2.12792e-07
1.53585e-07
-1.84741e-07
1.66336e-07
-1.37935e-07
1.67687e-07
-8.6338e-08
1.59013e-07
-3.61161e-08
1.41038e-07
9.32388e-09
1.13916e-07
4.85288e-08
7.71796e-08
8.1557e-08
2.9856e-08
1.10154e-07
-2.92465e-08
1.37054e-07
-1.01296e-07
1.65225e-07
-1.87379e-07
1.97107e-07
-2.88518e-07
2.34193e-07
-4.05564e-07
2.77012e-07
-5.3893e-07
3.25268e-07
-6.88333e-07
3.78117e-07
-8.52249e-07
4.33629e-07
-1.02755e-06
4.89151e-07
-1.21041e-06
5.42043e-07
-1.39625e-06
5.89152e-07
-1.58075e-06
6.28606e-07
-1.75969e-06
6.58037e-07
-1.92874e-06
6.76114e-07
-2.0854e-06
6.83383e-07
-2.22881e-06
6.80881e-07
-2.35901e-06
6.69933e-07
-2.47648e-06
6.52e-07
-2.58194e-06
6.28218e-07
-2.67624e-06
5.99566e-07
-2.76021e-06
5.66779e-07
-2.8346e-06
5.3047e-07
-2.90002e-06
4.91281e-07
-2.95709e-06
4.49714e-07
-3.00622e-06
4.06215e-07
-3.04772e-06
3.61144e-07
-3.08183e-06
3.14834e-07
-3.10867e-06
2.67424e-07
-3.12824e-06
2.19026e-07
-3.14044e-06
1.69607e-07
-3.14521e-06
1.19239e-07
-3.14235e-06
6.77347e-08
-3.13156e-06
1.4933e-08
-3.1126e-06
-3.91819e-08
-3.08503e-06
-9.4855e-08
-3.04843e-06
-1.52187e-07
-3.00242e-06
-2.11227e-07
-2.94648e-06
-2.72093e-07
-2.87997e-06
-3.3473e-07
-2.80241e-06
-3.98667e-07
-2.71329e-06
-4.63619e-07
-2.61218e-06
-5.29015e-07
-2.49866e-06
-5.94128e-07
-2.37234e-06
-6.57895e-07
-2.23321e-06
-7.18536e-07
-2.08176e-06
-7.74108e-07
-1.91856e-06
-8.22968e-07
-1.74464e-06
-8.62649e-07
-1.56177e-06
-8.90391e-07
-1.37203e-06
-9.04165e-07
-1.17828e-06
-9.01416e-07
-9.83657e-07
-8.80649e-07
-7.92218e-07
-8.40337e-07
-6.08688e-07
-7.80625e-07
-4.37348e-07
-7.03132e-07
-2.81305e-07
-6.1036e-07
-1.43294e-07
-5.05019e-07
-2.54479e-08
-3.90693e-07
7.09895e-08
-2.71691e-07
1.45616e-07
-1.52455e-07
1.98965e-07
-3.72525e-08
2.31973e-07
6.99463e-08
2.45112e-07
1.65093e-07
2.38744e-07
2.43914e-07
2.13195e-07
3.01032e-07
1.69441e-07
3.30443e-07
1.10572e-07
3.27259e-07
4.43195e-08
2.81927e-07
1.53112e-07
3.74568e-08
-1.32115e-07
8.23268e-08
-2.43625e-07
1.10516e-07
-2.40982e-07
1.22955e-07
-1.9718e-07
1.22542e-07
-1.37522e-07
1.11263e-07
-7.50589e-08
9.00874e-08
-1.49404e-08
5.91323e-08
4.02789e-08
1.79126e-08
8.97485e-08
-3.4718e-08
1.34188e-07
-1.00151e-07
1.75587e-07
-1.79787e-07
2.1669e-07
-2.74809e-07
2.60248e-07
-3.86065e-07
3.08362e-07
-5.13986e-07
3.62114e-07
-6.58326e-07
4.21351e-07
-8.17961e-07
4.84904e-07
-9.90506e-07
5.50662e-07
-1.17247e-06
6.15589e-07
-1.35924e-06
6.75922e-07
-1.54631e-06
7.29115e-07
-1.72874e-06
7.71586e-07
-1.9014e-06
8.0126e-07
-2.06129e-06
8.17932e-07
-2.20763e-06
8.22451e-07
-2.34067e-06
8.16417e-07
-2.46119e-06
8.01408e-07
-2.57023e-06
7.78975e-07
-2.66867e-06
7.50436e-07
-2.75733e-06
7.16874e-07
-2.83694e-06
6.79182e-07
-2.90816e-06
6.37995e-07
-2.97161e-06
5.93917e-07
-3.0278e-06
5.47469e-07
-3.07714e-06
4.99061e-07
-3.11994e-06
4.49015e-07
-3.15637e-06
3.97569e-07
-3.18658e-06
3.45048e-07
-3.21069e-06
2.91535e-07
-3.22876e-06
2.37096e-07
-3.24061e-06
1.81452e-07
-3.24632e-06
1.24958e-07
-3.24583e-06
6.72443e-08
-3.23882e-06
7.91594e-09
-3.22539e-06
-5.26111e-08
-3.20496e-06
-1.15277e-07
-3.17706e-06
-1.80089e-07
-3.14117e-06
-2.4712e-07
-3.09678e-06
-3.16486e-07
-3.04304e-06
-3.88463e-07
-2.97923e-06
-4.62485e-07
-2.90446e-06
-5.38387e-07
-2.81794e-06
-6.15531e-07
-2.71914e-06
-6.92927e-07
-2.60756e-06
-7.69475e-07
-2.48255e-06
-8.43547e-07
-2.34391e-06
-9.12748e-07
-2.19171e-06
-9.75171e-07
-2.02635e-06
-1.02801e-06
-1.84932e-06
-1.06742e-06
-1.66212e-06
-1.09137e-06
-1.46736e-06
-1.09618e-06
-1.26797e-06
-1.08004e-06
-1.06775e-06
-1.04056e-06
-8.71127e-07
-9.77248e-07
-6.83552e-07
-8.90707e-07
-5.09555e-07
-7.84356e-07
-3.52524e-07
-6.6205e-07
-2.15357e-07
-5.2786e-07
-1.00085e-07
-3.86962e-07
-7.55544e-09
-2.44985e-07
6.25721e-08
-1.0738e-07
1.11531e-07
2.09871e-08
1.409e-07
1.35724e-07
1.51736e-07
2.33078e-07
1.44684e-07
3.08085e-07
1.20218e-07
3.54909e-07
8.06009e-08
3.66876e-07
3.208e-08
3.30448e-07
1.85192e-07
3.73038e-08
-1.69419e-07
6.94406e-08
-2.75761e-07
8.27692e-08
-2.54311e-07
8.04911e-08
-1.94902e-07
6.64175e-08
-1.23449e-07
4.19274e-08
-5.05688e-08
7.32169e-09
1.96653e-08
-3.78818e-08
8.54824e-08
-9.47395e-08
1.46606e-07
-1.6466e-07
2.04108e-07
-2.49134e-07
2.60061e-07
-3.49437e-07
3.16992e-07
-4.66388e-07
3.77199e-07
-6.00174e-07
4.42149e-07
-7.50207e-07
5.12146e-07
-9.14912e-07
5.86056e-07
-1.09137e-06
6.61364e-07
-1.27544e-06
7.34728e-07
-1.46243e-06
8.02579e-07
-1.64727e-06
8.6076e-07
-1.82397e-06
9.05815e-07
-1.98856e-06
9.36178e-07
-2.13951e-06
9.52212e-07
-2.27693e-06
9.55354e-07
-2.40172e-06
9.47234e-07
-2.51489e-06
9.29592e-07
-2.61752e-06
9.04036e-07
-2.71058e-06
8.72032e-07
-2.79484e-06
8.34704e-07
-2.87098e-06
7.9301e-07
-2.93953e-06
7.47729e-07
-3.001e-06
6.99463e-07
-3.05584e-06
6.48763e-07
-3.10442e-06
5.9605e-07
-3.14708e-06
5.41715e-07
-3.18405e-06
4.85985e-07
-3.21532e-06
4.28845e-07
-3.24115e-06
3.70872e-07
-3.26166e-06
3.12042e-07
-3.27693e-06
2.52376e-07
-3.28725e-06
1.91765e-07
-3.29231e-06
1.30015e-07
-3.29201e-06
6.69519e-08
-3.28608e-06
1.9881e-09
-3.27492e-06
-6.37788e-08
-3.25842e-06
-1.31774e-07
-3.23656e-06
-2.01952e-07
-3.20912e-06
-2.74562e-07
-3.1758e-06
-3.49799e-07
-3.13628e-06
-4.27988e-07
-3.08946e-06
-5.09301e-07
-3.03432e-06
-5.93533e-07
-2.96952e-06
-6.80331e-07
-2.8933e-06
-7.69143e-07
-2.8037e-06
-8.59078e-07
-2.69914e-06
-9.48103e-07
-2.57896e-06
-1.03293e-06
-2.44334e-06
-1.11079e-06
-2.29268e-06
-1.17867e-06
-2.12699e-06
-1.23311e-06
-1.94715e-06
-1.27121e-06
-1.75565e-06
-1.28768e-06
-1.55484e-06
-1.28085e-06
-1.34846e-06
-1.24694e-06
-1.14064e-06
-1.18506e-06
-9.36782e-07
-1.09457e-06
-7.43387e-07
-9.77751e-07
-5.6535e-07
-8.40087e-07
-4.0631e-07
-6.869e-07
-2.69358e-07
-5.23915e-07
-1.56357e-07
-3.57986e-07
-6.76384e-08
-1.96099e-07
-2.02867e-09
-4.46226e-08
4.2344e-08
9.13516e-08
6.79405e-08
2.07481e-07
7.63416e-08
2.99684e-07
6.8441e-08
3.6281e-07
4.65346e-08
3.88782e-07
1.69764e-08
3.60006e-07
2.02168e-07
3.24303e-08
-2.01849e-07
4.92869e-08
-2.92618e-07
4.66046e-08
-2.51628e-07
2.9372e-08
-1.77669e-07
1.35694e-09
-9.54336e-08
-3.68141e-08
-1.23977e-08
-8.55798e-08
6.8431e-08
-1.45894e-07
1.45797e-07
-2.19077e-07
2.19789e-07
-3.06556e-07
2.91587e-07
-4.09602e-07
3.63108e-07
-5.29057e-07
4.36447e-07
-6.65058e-07
5.13199e-07
-8.16915e-07
5.94006e-07
-9.8286e-07
6.78092e-07
-1.15963e-06
7.62824e-07
-1.34277e-06
8.4451e-07
-1.52734e-06
9.19297e-07
-1.70725e-06
9.8249e-07
-1.87727e-06
1.03077e-06
-2.0343e-06
1.06285e-06
-2.17779e-06
1.07966e-06
-2.30818e-06
1.0826e-06
-2.42644e-06
1.07362e-06
-2.53366e-06
1.05446e-06
-2.63096e-06
1.02689e-06
-2.71925e-06
9.92324e-07
-2.79925e-06
9.52031e-07
-2.87153e-06
9.06985e-07
-2.93656e-06
8.58048e-07
-2.99476e-06
8.05928e-07
-3.04651e-06
7.51208e-07
-3.09211e-06
6.94365e-07
-3.13175e-06
6.3569e-07
-3.16573e-06
5.75693e-07
-3.19466e-06
5.14914e-07
-3.21924e-06
4.53431e-07
-3.23953e-06
3.91162e-07
-3.25554e-06
3.28054e-07
-3.26709e-06
2.63925e-07
-3.2744e-06
1.99073e-07
-3.27741e-06
1.3302e-07
-3.27626e-06
6.58065e-08
-3.27087e-06
-3.40284e-09
-3.26164e-06
-7.30065e-08
-3.2484e-06
-1.45021e-07
-3.23102e-06
-2.19323e-07
-3.20936e-06
-2.96231e-07
-3.1831e-06
-3.76056e-07
-3.15217e-06
-4.58917e-07
-3.11617e-06
-5.45304e-07
-3.07468e-06
-6.35022e-07
-3.02703e-06
-7.27981e-07
-2.97243e-06
-8.23743e-07
-2.90987e-06
-9.21636e-07
-2.83694e-06
-1.02103e-06
-2.74944e-06
-1.12042e-06
-2.6434e-06
-1.21683e-06
-2.51707e-06
-1.305e-06
-2.37097e-06
-1.37922e-06
-2.20701e-06
-1.43517e-06
-2.02629e-06
-1.4684e-06
-1.83058e-06
-1.47655e-06
-1.62353e-06
-1.45399e-06
-1.40906e-06
-1.39954e-06
-1.19197e-06
-1.31166e-06
-9.79449e-07
-1.19027e-06
-7.79103e-07
-1.04043e-06
-5.96355e-07
-8.69648e-07
-4.35165e-07
-6.85105e-07
-2.98777e-07
-4.94374e-07
-1.88784e-07
-3.06091e-07
-1.0488e-07
-1.28526e-07
-4.48554e-08
3.13269e-08
-5.46632e-09
1.68092e-07
1.60483e-08
2.78169e-07
2.20815e-08
3.56777e-07
1.57048e-08
3.95159e-07
3.35894e-09
3.72352e-07
2.05527e-07
2.32195e-08
-2.25069e-07
2.33998e-08
-2.92798e-07
4.09935e-09
-2.32328e-07
-2.75294e-08
-1.46041e-07
-6.94885e-08
-5.34746e-08
-1.21717e-07
3.98312e-08
-1.85036e-07
1.3175e-07
-2.60687e-07
2.21448e-07
-3.50006e-07
3.09108e-07
-4.54192e-07
3.95773e-07
-5.74065e-07
4.82981e-07
-7.09781e-07
5.72162e-07
-8.60722e-07
6.6414e-07
-1.02518e-06
7.58468e-07
-1.19972e-06
8.52631e-07
-1.37976e-06
9.42856e-07
-1.56003e-06
1.02479e-06
-1.73437e-06
1.09363e-06
-1.89801e-06
1.14613e-06
-2.04873e-06
1.18149e-06
-2.18609e-06
1.20021e-06
-2.31064e-06
1.20422e-06
-2.42339e-06
1.19535e-06
-2.52545e-06
1.17568e-06
-2.61785e-06
1.14686e-06
-2.70144e-06
1.11048e-06
-2.77688e-06
1.06776e-06
-2.84467e-06
1.01982e-06
-2.90524e-06
9.6756e-07
-2.95899e-06
9.11792e-07
-3.00625e-06
8.53195e-07
-3.04742e-06
7.92379e-07
-3.08301e-06
7.29955e-07
-3.11371e-06
6.66385e-07
-3.13988e-06
6.01864e-07
-3.16136e-06
5.36399e-07
-3.17829e-06
4.70361e-07
-3.19072e-06
4.03585e-07
-3.19891e-06
3.3625e-07
-3.20344e-06
2.68458e-07
-3.20464e-06
2.00265e-07
-3.2029e-06
1.31285e-07
-3.19847e-06
6.1372e-08
-3.19194e-06
-9.92989e-09
-3.18265e-06
-8.22942e-08
-3.17093e-06
-1.56742e-07
-3.15679e-06
-2.33462e-07
-3.14021e-06
-3.12815e-07
-3.12112e-06
-3.95142e-07
-3.09927e-06
-4.80771e-07
-3.07446e-06
-5.70115e-07
-3.04613e-06
-6.63348e-07
-3.01355e-06
-7.60558e-07
-2.97575e-06
-8.61547e-07
-2.93172e-06
-9.65663e-07
-2.88062e-06
-1.07214e-06
-2.82102e-06
-1.18002e-06
-2.751e-06
-1.28685e-06
-2.66537e-06
-1.39063e-06
-2.55671e-06
-1.48787e-06
-2.42186e-06
-1.57002e-06
-2.26191e-06
-1.62834e-06
-2.08149e-06
-1.65697e-06
-1.88217e-06
-1.65331e-06
-1.66838e-06
-1.61333e-06
-1.44436e-06
-1.53568e-06
-1.21661e-06
-1.41801e-06
-9.94182e-07
-1.26287e-06
-7.86182e-07
-1.07765e-06
-5.98697e-07
-8.7259e-07
-4.36028e-07
-6.57043e-07
-3.01443e-07
-4.40676e-07
-1.96029e-07
-2.3394e-07
-1.18466e-07
-4.62362e-08
-6.52892e-08
1.14915e-07
-3.18503e-08
2.4473e-07
-1.41688e-08
3.39095e-07
-7.22916e-09
3.88219e-07
-5.36104e-09
3.70484e-07
2.00166e-07
1.09406e-08
-2.36009e-07
-6.48368e-09
-2.75374e-07
-4.13432e-08
-1.97468e-07
-8.7473e-08
-9.99108e-08
-1.43455e-07
2.50747e-09
-2.09719e-07
1.06095e-07
-2.87458e-07
2.09488e-07
-3.77952e-07
3.11942e-07
-4.82339e-07
4.13495e-07
-6.01398e-07
5.14832e-07
-7.35315e-07
6.16898e-07
-8.83601e-07
7.20449e-07
-1.04476e-06
8.25304e-07
-1.21549e-06
9.29191e-07
-1.39106e-06
1.0282e-06
-1.56609e-06
1.11788e-06
-1.73489e-06
1.19358e-06
-1.89303e-06
1.25177e-06
-2.03847e-06
1.29157e-06
-2.17065e-06
1.31368e-06
-2.29021e-06
1.31977e-06
-2.39812e-06
1.31212e-06
-2.49546e-06
1.29269e-06
-2.58316e-06
1.26337e-06
-2.66197e-06
1.22567e-06
-2.73249e-06
1.181e-06
-2.79519e-06
1.13046e-06
-2.85049e-06
1.07512e-06
-2.89882e-06
1.01589e-06
-2.94061e-06
9.53581e-07
-2.97633e-06
8.88916e-07
-3.00646e-06
8.22508e-07
-3.0313e-06
7.54795e-07
-3.05112e-06
6.8621e-07
-3.06626e-06
6.17004e-07
-3.07723e-06
5.47362e-07
-3.08448e-06
4.77614e-07
-3.08865e-06
4.07754e-07
-3.09022e-06
3.3782e-07
-3.08946e-06
2.67701e-07
-3.08648e-06
1.97279e-07
-3.08152e-06
1.26329e-07
-3.07477e-06
5.46214e-08
-3.06654e-06
-1.81556e-08
-3.05667e-06
-9.21725e-08
-3.04543e-06
-1.67974e-07
-3.03301e-06
-2.45887e-07
-3.0195e-06
-3.26321e-07
-3.00498e-06
-4.09665e-07
-2.98941e-06
-4.96339e-07
-2.97276e-06
-5.86764e-07
-2.95483e-06
-6.81287e-07
-2.93522e-06
-7.80168e-07
-2.9133e-06
-8.83467e-07
-2.88797e-06
-9.90992e-07
-2.85773e-06
-1.10237e-06
-2.82097e-06
-1.21678e-06
-2.77561e-06
-1.33221e-06
-2.71971e-06
-1.44654e-06
-2.65075e-06
-1.55683e-06
-2.56223e-06
-1.65854e-06
-2.44334e-06
-1.74723e-06
-2.29201e-06
-1.8083e-06
-2.11165e-06
-1.83368e-06
-1.9088e-06
-1.81618e-06
-1.68698e-06
-1.7575e-06
-1.45211e-06
-1.65288e-06
-1.21245e-06
-1.50253e-06
-9.79236e-07
-1.31086e-06
-7.63459e-07
-1.08837e-06
-5.71989e-07
-8.48513e-07
-4.09378e-07
-6.03288e-07
-2.78643e-07
-3.64675e-07
-1.79954e-07
-1.44925e-07
-1.10593e-07
4.55544e-08
-6.51754e-08
1.99312e-07
-3.76878e-08
3.11608e-07
-2.05083e-08
3.7104e-07
-9.31622e-09
3.59292e-07
1.9085e-07
-3.12439e-09
-2.32885e-07
-3.76273e-08
-2.40871e-07
-8.79653e-08
-1.4713e-07
-1.48272e-07
-3.96044e-08
-2.17894e-07
7.21299e-08
-2.97818e-07
1.86018e-07
-3.8928e-07
3.00951e-07
-4.93443e-07
4.16105e-07
-6.11088e-07
5.31141e-07
-7.42446e-07
6.4619e-07
-8.87156e-07
7.61607e-07
-1.04399e-06
8.77286e-07
-1.20994e-06
9.91252e-07
-1.38038e-06
1.09963e-06
-1.55002e-06
1.19785e-06
-1.71363e-06
1.28149e-06
-1.86699e-06
1.34695e-06
-2.0079e-06
1.39268e-06
-2.13577e-06
1.41944e-06
-2.25099e-06
1.4289e-06
-2.35459e-06
1.42337e-06
-2.44751e-06
1.40504e-06
-2.53061e-06
1.37579e-06
-2.60453e-06
1.33729e-06
-2.6698e-06
1.29095e-06
-2.72688e-06
1.23807e-06
-2.77621e-06
1.17979e-06
-2.81827e-06
1.11718e-06
-2.85358e-06
1.05119e-06
-2.88268e-06
9.82677e-07
-2.90612e-06
9.1236e-07
-2.92445e-06
8.40837e-07
-2.93823e-06
7.68571e-07
-2.94798e-06
6.95964e-07
-2.95426e-06
6.2328e-07
-2.95762e-06
5.50724e-07
-2.95845e-06
4.78451e-07
-2.95713e-06
4.06433e-07
-2.95392e-06
3.34606e-07
-2.94905e-06
2.62832e-07
-2.94271e-06
1.90946e-07
-2.9351e-06
1.18717e-07
-2.92638e-06
4.59014e-08
-2.91676e-06
-2.77837e-08
-2.90629e-06
-1.02636e-07
-2.89521e-06
-1.79055e-07
-2.8837e-06
-2.57398e-07
-2.87194e-06
-3.38076e-07
-2.86011e-06
-4.21497e-07
-2.84835e-06
-5.08104e-07
-2.83678e-06
-5.98335e-07
-2.82545e-06
-6.92612e-07
-2.81431e-06
-7.91305e-07
-2.8031e-06
-8.94685e-07
-2.79119e-06
-1.0029e-06
-2.77764e-06
-1.11592e-06
-2.76112e-06
-1.2333e-06
-2.73934e-06
-1.35399e-06
-2.70944e-06
-1.47643e-06
-2.66845e-06
-1.59781e-06
-2.61318e-06
-1.71381e-06
-2.5397e-06
-1.82072e-06
-2.43705e-06
-1.91095e-06
-2.29572e-06
-1.975e-06
-2.11697e-06
-1.99493e-06
-1.90966e-06
-1.96481e-06
-1.67839e-06
-1.88415e-06
-1.43128e-06
-1.74964e-06
-1.17877e-06
-1.56337e-06
-9.34681e-07
-1.33246e-06
-7.11965e-07
-1.07123e-06
-5.18343e-07
-7.9691e-07
-3.58335e-07
-5.24683e-07
-2.34271e-07
-2.68989e-07
-1.44834e-07
-4.38825e-08
-8.52346e-08
1.39713e-07
-4.80534e-08
2.74426e-07
-2.41771e-08
3.47163e-07
-8.59532e-09
3.4371e-07
1.82255e-07
-1.81842e-08
-2.14701e-07
-6.93125e-08
-1.89743e-07
-1.34144e-07
-8.22987e-08
-2.07887e-07
3.41386e-08
-2.90519e-07
1.54762e-07
-3.83199e-07
2.78698e-07
-4.8715e-07
4.04902e-07
-6.03255e-07
5.3221e-07
-7.31841e-07
6.59726e-07
-8.72666e-07
7.87015e-07
-1.02476e-06
9.13704e-07
-1.18551e-06
1.03803e-06
-1.35059e-06
1.15633e-06
-1.51497e-06
1.26401e-06
-1.67383e-06
1.3567e-06
-1.82313e-06
1.43079e-06
-1.96029e-06
1.48411e-06
-2.08451e-06
1.5169e-06
-2.1961e-06
1.53102e-06
-2.29588e-06
1.52868e-06
-2.38476e-06
1.51226e-06
-2.46349e-06
1.48377e-06
-2.53265e-06
1.44495e-06
-2.59273e-06
1.39737e-06
-2.64422e-06
1.34244e-06
-2.68762e-06
1.28148e-06
-2.72353e-06
1.21571e-06
-2.75261e-06
1.14626e-06
-2.77554e-06
1.07413e-06
-2.79304e-06
1.00018e-06
-2.80581e-06
9.25124e-07
-2.8145e-06
8.49527e-07
-2.81975e-06
7.73819e-07
-2.82211e-06
6.98325e-07
-2.82207e-06
6.23247e-07
-2.82006e-06
5.4871e-07
-2.81635e-06
4.74745e-07
-2.8112e-06
4.0128e-07
-2.8048e-06
3.282e-07
-2.79731e-06
2.55344e-07
-2.78889e-06
1.82525e-07
-2.77967e-06
1.09505e-07
-2.76981e-06
3.60336e-08
-2.75942e-06
-3.81663e-08
-2.74866e-06
-1.13402e-07
-2.73769e-06
-1.90022e-07
-2.72671e-06
-2.68378e-07
-2.71593e-06
-3.48853e-07
-2.70558e-06
-4.31849e-07
-2.69589e-06
-5.17794e-07
-2.6871e-06
-6.07129e-07
-2.67941e-06
-7.00298e-07
-2.67299e-06
-7.97728e-07
-2.66786e-06
-8.99813e-07
-2.66388e-06
-1.00688e-06
-2.66066e-06
-1.11914e-06
-2.65741e-06
-1.23655e-06
-2.65268e-06
-1.35872e-06
-2.64434e-06
-1.48477e-06
-2.62926e-06
-1.6129e-06
-2.60282e-06
-1.74025e-06
-2.56121e-06
-1.86232e-06
-2.49901e-06
-1.97315e-06
-2.4087e-06
-2.06531e-06
-2.27548e-06
-2.12815e-06
-2.09804e-06
-2.14226e-06
-1.88465e-06
-2.09753e-06
-1.64226e-06
-1.99203e-06
-1.38161e-06
-1.82401e-06
-1.11595e-06
-1.59812e-06
-8.61925e-07
-1.32526e-06
-6.34546e-07
-1.02429e-06
-4.41995e-07
-7.17233e-07
-2.88366e-07
-4.22619e-07
-1.74488e-07
-1.5776e-07
-9.69777e-08
6.22028e-08
-4.85012e-08
2.2595e-07
-1.99341e-08
3.18596e-07
-4.29504e-09
3.28071e-07
1.7796e-07
-3.32532e-08
-1.81448e-07
-9.98199e-08
-1.23176e-07
-1.78248e-07
-3.87031e-09
-2.645e-07
1.20391e-07
-3.59116e-07
2.49377e-07
-4.63294e-07
3.82876e-07
-5.78105e-07
5.19713e-07
-7.04078e-07
6.58184e-07
-8.41132e-07
7.9678e-07
-9.88519e-07
9.34401e-07
-1.14402e-06
1.06921e-06
-1.3038e-06
1.19781e-06
-1.46323e-06
1.31576e-06
-1.61781e-06
1.41859e-06
-1.76366e-06
1.50256e-06
-1.89789e-06
1.56502e-06
-2.01924e-06
1.60546e-06
-2.12787e-06
1.62554e-06
-2.22447e-06
1.62762e-06
-2.30985e-06
1.61406e-06
-2.38468e-06
1.5871e-06
-2.44952e-06
1.5486e-06
-2.50486e-06
1.50029e-06
-2.55125e-06
1.44375e-06
-2.58929e-06
1.38048e-06
-2.61973e-06
1.31191e-06
-2.64335e-06
1.23933e-06
-2.66103e-06
1.16393e-06
-2.67358e-06
1.08668e-06
-2.68182e-06
1.00842e-06
-2.68649e-06
9.29786e-07
-2.68822e-06
8.51263e-07
-2.68759e-06
7.73191e-07
-2.68506e-06
6.95792e-07
-2.68099e-06
6.19177e-07
-2.67566e-06
5.43381e-07
-2.66927e-06
4.68355e-07
-2.66198e-06
3.93986e-07
-2.6539e-06
3.20126e-07
-2.64515e-06
2.4659e-07
-2.6358e-06
1.73177e-07
-2.62595e-06
9.96541e-08
-2.61569e-06
2.57734e-08
-2.60512e-06
-4.87354e-08
-2.59437e-06
-1.24158e-07
-2.58358e-06
-2.00807e-07
-2.57295e-06
-2.79007e-07
-2.5627e-06
-3.59107e-07
-2.55307e-06
-4.41478e-07
-2.54435e-06
-5.26517e-07
-2.53683e-06
-6.14644e-07
-2.53083e-06
-7.06297e-07
-2.52664e-06
-8.01927e-07
-2.52446e-06
-9.01984e-07
-2.52445e-06
-1.0069e-06
-2.52655e-06
-1.11704e-06
-2.53047e-06
-1.23263e-06
-2.53549e-06
-1.3537e-06
-2.54036e-06
-1.4799e-06
-2.54292e-06
-1.61034e-06
-2.53988e-06
-1.74329e-06
-2.52651e-06
-1.8757e-06
-2.4968e-06
-2.00286e-06
-2.44481e-06
-2.1173e-06
-2.36185e-06
-2.21111e-06
-2.23392e-06
-2.27018e-06
-2.05555e-06
-2.27591e-06
-1.83386e-06
-2.21372e-06
-1.57849e-06
-2.07938e-06
-1.30347e-06
-1.87314e-06
-1.02533e-06
-1.6034e-06
-7.63915e-07
-1.28571e-06
-5.36001e-07
-9.45147e-07
-3.49487e-07
-6.09133e-07
-2.07303e-07
-2.99944e-07
-1.0802e-07
-3.70798e-08
-4.56771e-08
1.63607e-07
-1.19133e-08
2.84833e-07
1.91284e-09
3.14245e-07
1.79872e-07
-4.76318e-08
-1.33816e-07
-1.28257e-07
-4.25507e-08
-2.18858e-07
8.67301e-08
-3.16542e-07
2.18075e-07
-4.2183e-07
3.54666e-07
-5.35947e-07
4.96993e-07
-6.59735e-07
6.43501e-07
-7.93393e-07
7.91841e-07
-9.3639e-07
9.39777e-07
-1.08689e-06
1.0849e-06
-1.24161e-06
1.22393e-06
-1.39649e-06
1.35269e-06
-1.54731e-06
1.46657e-06
-1.69028e-06
1.56156e-06
-1.82231e-06
1.63458e-06
-1.94165e-06
1.68436e-06
-2.04814e-06
1.71195e-06
-2.14232e-06
1.71972e-06
-2.2249e-06
1.7102e-06
-2.29654e-06
1.68569e-06
-2.35777e-06
1.64833e-06
-2.40912e-06
1.59996e-06
-2.45121e-06
1.54238e-06
-2.48477e-06
1.47731e-06
-2.51067e-06
1.40638e-06
-2.52985e-06
1.33109e-06
-2.5433e-06
1.25278e-06
-2.55196e-06
1.17259e-06
-2.55673e-06
1.09145e-06
-2.55837e-06
1.01006e-06
-2.55756e-06
9.28975e-07
-2.55484e-06
8.48548e-07
-2.55066e-06
7.6901e-07
-2.54535e-06
6.90477e-07
-2.53915e-06
6.12974e-07
-2.53222e-06
5.36456e-07
-2.52468e-06
4.60817e-07
-2.51661e-06
3.85911e-07
-2.50805e-06
3.11572e-07
-2.49905e-06
2.37593e-07
-2.48964e-06
1.63765e-07
-2.47986e-06
8.98728e-08
-2.46976e-06
1.56765e-08
-2.45942e-06
-5.90823e-08
-2.44892e-06
-1.34654e-07
-2.43841e-06
-2.11318e-07
-2.42805e-06
-2.89363e-07
-2.41807e-06
-3.69095e-07
-2.4087e-06
-4.50843e-07
-2.40026e-06
-5.3496e-07
-2.39307e-06
-6.21829e-07
-2.38751e-06
-7.11859e-07
-2.38395e-06
-8.05493e-07
-2.38273e-06
-9.03198e-07
-2.38417e-06
-1.00546e-06
-2.38846e-06
-1.11275e-06
-2.39562e-06
-1.22548e-06
-2.40537e-06
-1.34395e-06
-2.41704e-06
-1.46823e-06
-2.42936e-06
-1.59802e-06
-2.44023e-06
-1.73242e-06
-2.44632e-06
-1.86961e-06
-2.44277e-06
-2.00641e-06
-2.42241e-06
-2.13766e-06
-2.37793e-06
-2.2556e-06
-2.29944e-06
-2.34867e-06
-2.1725e-06
-2.40284e-06
-1.99004e-06
-2.39619e-06
-1.75736e-06
-2.31205e-06
-1.48741e-06
-2.14309e-06
-1.19794e-06
-1.89287e-06
-9.09469e-07
-1.57417e-06
-6.45493e-07
-1.20912e-06
-4.23407e-07
-8.31219e-07
-2.49898e-07
-4.73452e-07
-1.25674e-07
-1.61304e-07
-4.64626e-08
8.43949e-08
-5.28856e-09
2.43659e-07
7.43223e-09
3.01524e-07
1.87305e-07
-6.07255e-08
-7.30904e-08
-1.53599e-07
5.03229e-08
-2.55182e-07
1.88313e-07
-3.62818e-07
3.25711e-07
-4.77223e-07
4.69071e-07
-5.99514e-07
6.19284e-07
-7.30307e-07
7.74293e-07
-8.69386e-07
9.30921e-07
-1.0153e-06
1.08569e-06
-1.16534e-06
1.23494e-06
-1.31611e-06
1.3747e-06
-1.46365e-06
1.50023e-06
-1.60427e-06
1.6072e-06
-1.73478e-06
1.69207e-06
-1.85299e-06
1.75279e-06
-1.95823e-06
1.78961e-06
-2.05088e-06
1.80459e-06
-2.13155e-06
1.8004e-06
-2.20086e-06
1.77951e-06
-2.25939e-06
1.74422e-06
-2.3077e-06
1.69664e-06
-2.34648e-06
1.63873e-06
-2.37657e-06
1.57247e-06
-2.39896e-06
1.49971e-06
-2.41474e-06
1.42216e-06
-2.425e-06
1.34135e-06
-2.43078e-06
1.25856e-06
-2.43301e-06
1.17483e-06
-2.43253e-06
1.09096e-06
-2.43e-06
1.00753e-06
-2.42597e-06
9.24946e-07
-2.42086e-06
8.43436e-07
-2.41497e-06
7.63119e-07
-2.40851e-06
6.84017e-07
-2.40161e-06
6.06079e-07
-2.39435e-06
5.292e-07
-2.38677e-06
4.53232e-07
-2.37887e-06
3.78006e-07
-2.37064e-06
3.03344e-07
-2.36208e-06
2.29033e-07
-2.35317e-06
1.54857e-07
-2.34392e-06
8.06208e-08
-2.33435e-06
6.10786e-09
-2.3245e-06
-6.89326e-08
-2.31445e-06
-1.44707e-07
-2.3043e-06
-2.21463e-07
-2.29422e-06
-2.99449e-07
-2.28438e-06
-3.78926e-07
-2.27505e-06
-4.60176e-07
-2.26651e-06
-5.43502e-07
-2.2591e-06
-6.29236e-07
-2.25322e-06
-7.17744e-07
-2.24928e-06
-8.09434e-07
-2.24772e-06
-9.04758e-07
-2.24896e-06
-1.00421e-06
-2.25338e-06
-1.10832e-06
-2.26123e-06
-1.21763e-06