/*--------------------------------*- C++ -*----------------------------------*\
  =========                 |
  \\      /  F ield         | OpenFOAM: The Open Source CFD Toolbox
   \\    /   O peration     | Website:  https://openfoam.org
    \\  /    A nd           | Version:  13
     \\/     M anipulation  |
\*---------------------------------------------------------------------------*/
FoamFile
{
    format      ascii;
    class       volVectorField;
    location    "7.8";
    object      U;
}
// * * * * * * * * * * * * * * * * * * * * * * * * * * * * * * * * * * * * * //

dimensions      [0 1 -1 0 0 0 0];

internalField   nonuniform List<vector> 
6400
(
(-0.000125405 8.23626e-05 0)
(0.000449821 -0.000174775 0)
(0.00210407 -0.000436999 0)
(0.00428606 -0.000553042 0)
(0.00645519 -0.000487737 0)
(0.00826296 -0.000325931 0)
(0.00946505 -0.000131611 0)
(0.0100668 1.39512e-05 0)
(0.0101951 6.77147e-05 0)
(0.0100908 4.56628e-05 0)
(0.00987901 -3.26313e-05 0)
(0.00972595 -0.000139123 0)
(0.00969572 -0.000249247 0)
(0.009787 -0.000338708 0)
(0.00995154 -0.000410746 0)
(0.0101117 -0.000463554 0)
(0.0101935 -0.000496899 0)
(0.0101455 -0.000498934 0)
(0.00992446 -0.000479694 0)
(0.00943634 -0.000439006 0)
(0.00864397 -0.000390448 0)
(0.00748807 -0.000340911 0)
(0.00592665 -0.0002944 0)
(0.00393169 -0.000276589 0)
(0.00146997 -0.000325242 0)
(-0.00143362 -0.000442211 0)
(-0.00481139 -0.000486318 0)
(-0.00888961 -0.000301732 0)
(-0.0137834 0.000226072 0)
(-0.019516 0.00110198 0)
(-0.0268425 0.00214547 0)
(-0.0349815 0.00302991 0)
(-0.0437941 0.00374259 0)
(-0.0529715 0.00427051 0)
(-0.0622575 0.00461954 0)
(-0.0714162 0.00480398 0)
(-0.0802622 0.00484842 0)
(-0.0886392 0.00477619 0)
(-0.0964309 0.00460968 0)
(-0.103538 0.00436678 0)
(-0.109886 0.00405946 0)
(-0.115411 0.00369645 0)
(-0.120069 0.00328021 0)
(-0.123838 0.00281483 0)
(-0.126687 0.00231363 0)
(-0.128416 0.00183743 0)
(-0.129146 0.00140256 0)
(-0.129048 0.000688291 0)
(-0.127545 0.000133309 0)
(-0.125126 -0.00055359 0)
(-0.121415 -0.00119246 0)
(-0.116626 -0.00186033 0)
(-0.110621 -0.00249819 0)
(-0.103512 -0.00312319 0)
(-0.0953269 -0.00373097 0)
(-0.0861624 -0.00431525 0)
(-0.0760336 -0.00482526 0)
(-0.0651325 -0.00525759 0)
(-0.0536153 -0.00558108 0)
(-0.0416939 -0.00576214 0)
(-0.0296107 -0.0057657 0)
(-0.017649 -0.00557779 0)
(-0.00604891 -0.00519696 0)
(0.00473843 -0.00468744 0)
(0.0143885 -0.00392533 0)
(0.0226985 -0.00299034 0)
(0.0293454 -0.00192604 0)
(0.0340492 -0.000773866 0)
(0.0368328 0.000386439 0)
(0.0370848 0.00160154 0)
(0.0356548 0.00226402 0)
(0.0321067 0.00284776 0)
(0.0268175 0.00304602 0)
(0.0206858 0.0027481 0)
(0.0144833 0.00205352 0)
(0.00901743 0.00121561 0)
(0.00473191 0.000529732 0)
(0.00178003 0.000121048 0)
(0.000147012 -0.000169643 0)
(-0.000237731 -0.000346833 0)
(1.72089e-05 -0.000387936 0)
(0.00182681 -0.00211508 0)
(0.00526255 -0.00355152 0)
(0.00909055 -0.00403412 0)
(0.0126143 -0.0036472 0)
(0.0154186 -0.00277342 0)
(0.0173268 -0.00170856 0)
(0.0183681 -0.000741 0)
(0.0186663 -5.4222e-05 0)
(0.0183826 0.000321174 0)
(0.0177155 0.00042746 0)
(0.0168326 0.000347599 0)
(0.0158196 0.000202125 0)
(0.0146693 0.000102347 0)
(0.0133109 0.000111138 0)
(0.0116431 0.000241649 0)
(0.00958077 0.000473457 0)
(0.00705498 0.000793859 0)
(0.00395264 0.00121849 0)
(0.000167709 0.00175773 0)
(-0.00440937 0.00241587 0)
(-0.010013 0.00321154 0)
(-0.016727 0.00410865 0)
(-0.0246207 0.00509815 0)
(-0.0337408 0.00619782 0)
(-0.0441904 0.00741309 0)
(-0.0558608 0.00877074 0)
(-0.0684028 0.0102682 0)
(-0.0814373 0.0118454 0)
(-0.0944358 0.0133303 0)
(-0.106874 0.0144254 0)
(-0.118954 0.0151026 0)
(-0.130384 0.0153694 0)
(-0.141085 0.0152518 0)
(-0.150958 0.0148204 0)
(-0.159938 0.0141256 0)
(-0.167985 0.0132242 0)
(-0.175064 0.0121607 0)
(-0.181162 0.010973 0)
(-0.186265 0.00968957 0)
(-0.19036 0.00832792 0)
(-0.193447 0.00690468 0)
(-0.195513 0.00542614 0)
(-0.196558 0.00390376 0)
(-0.196569 0.00234682 0)
(-0.195513 0.000765077 0)
(-0.193399 -0.000863163 0)
(-0.190234 -0.00257844 0)
(-0.185942 -0.00432709 0)
(-0.180594 -0.00611429 0)
(-0.174114 -0.00791835 0)
(-0.166545 -0.00972434 0)
(-0.157851 -0.0115094 0)
(-0.148064 -0.0132429 0)
(-0.13719 -0.0148909 0)
(-0.125309 -0.0164022 0)
(-0.112534 -0.0177418 0)
(-0.0989636 -0.0188492 0)
(-0.0847769 -0.0196537 0)
(-0.0701909 -0.0201048 0)
(-0.0554164 -0.0201365 0)
(-0.0407124 -0.0197071 0)
(-0.0263638 -0.0187931 0)
(-0.0126863 -0.0174118 0)
(3.78248e-05 -0.0155074 0)
(0.0115448 -0.0131359 0)
(0.0215554 -0.0103398 0)
(0.0298262 -0.00722549 0)
(0.036191 -0.00387269 0)
(0.0404668 -0.000467041 0)
(0.0426421 0.002746 0)
(0.0425863 0.00569837 0)
(0.040395 0.00811925 0)
(0.0362813 0.00969798 0)
(0.0303165 0.00990661 0)
(0.0229659 0.00896286 0)
(0.015239 0.00712161 0)
(0.00824661 0.00481029 0)
(0.00307224 0.00232871 0)
(0.000227406 0.00027895 0)
(0.000207486 -0.00164949 0)
(0.00322522 -0.00542521 0)
(0.0075161 -0.00766288 0)
(0.0115183 -0.00792575 0)
(0.0147978 -0.00681612 0)
(0.0171491 -0.00500041 0)
(0.0186017 -0.0030507 0)
(0.0192157 -0.00129283 0)
(0.0190682 9.26006e-05 0)
(0.0182628 0.00102451 0)
(0.0169438 0.00153576 0)
(0.0151866 0.00177054 0)
(0.0130069 0.00192282 0)
(0.0103666 0.00216542 0)
(0.00717504 0.00260621 0)
(0.00333374 0.00326976 0)
(-0.00128619 0.0041503 0)
(-0.00684283 0.00525894 0)
(-0.0134635 0.00661954 0)
(-0.0212689 0.00826574 0)
(-0.0303428 0.0102017 0)
(-0.0406588 0.0123654 0)
(-0.0521943 0.0146749 0)
(-0.0648025 0.0170094 0)
(-0.0782286 0.0192436 0)
(-0.0921681 0.0212851 0)
(-0.10625 0.0230356 0)
(-0.120158 0.0244348 0)
(-0.133552 0.0254229 0)
(-0.146175 0.0259779 0)
(-0.157867 0.0260937 0)
(-0.168575 0.0257682 0)
(-0.178236 0.0250489 0)
(-0.186915 0.0239713 0)
(-0.19461 0.0225819 0)
(-0.201359 0.0209515 0)
(-0.207185 0.0191268 0)
(-0.212114 0.017153 0)
(-0.216158 0.0150606 0)
(-0.219329 0.0128848 0)
(-0.221638 0.0106355 0)
(-0.223085 0.00832545 0)
(-0.223667 0.00596239 0)
(-0.223376 0.00354573 0)
(-0.222203 0.00107708 0)
(-0.22013 -0.00144923 0)
(-0.217122 -0.00404897 0)
(-0.213168 -0.00671658 0)
(-0.208242 -0.0094213 0)
(-0.20233 -0.0121758 0)
(-0.195402 -0.0149553 0)
(-0.187452 -0.0177433 0)
(-0.178466 -0.0205075 0)
(-0.168453 -0.0232066 0)
(-0.157433 -0.0257827 0)
(-0.145449 -0.0281644 0)
(-0.132583 -0.0302823 0)
(-0.118928 -0.0320425 0)
(-0.104607 -0.0333489 0)
(-0.0898083 -0.0341097 0)
(-0.0747505 -0.0342371 0)
(-0.0596635 -0.0336534 0)
(-0.0448335 -0.0323238 0)
(-0.0305664 -0.0302557 0)
(-0.017133 -0.0274422 0)
(-0.004764 -0.0239212 0)
(0.00628168 -0.0197625 0)
(0.0157877 -0.015085 0)
(0.0236226 -0.0100416 0)
(0.0296649 -0.00481828 0)
(0.0338876 0.000359438 0)
(0.0362599 0.00526163 0)
(0.0366476 0.00953912 0)
(0.0349716 0.0129076 0)
(0.0315396 0.0151729 0)
(0.0264296 0.0157168 0)
(0.0198233 0.0146335 0)
(0.0126177 0.0119995 0)
(0.00589903 0.0079404 0)
(0.000787143 0.00294975 0)
(0.000431386 -0.00362431 0)
(0.00429933 -0.00958028 0)
(0.00868258 -0.0119067 0)
(0.0121877 -0.0113711 0)
(0.0147027 -0.00926404 0)
(0.016228 -0.00652142 0)
(0.0168666 -0.00371441 0)
(0.0167114 -0.00118351 0)
(0.0158426 0.000875889 0)
(0.014316 0.00239717 0)
(0.0121298 0.00346448 0)
(0.00926032 0.00426722 0)
(0.00565553 0.00503803 0)
(0.00124408 0.00597855 0)
(-0.00404833 0.00720808 0)
(-0.0103253 0.00877906 0)
(-0.0177078 0.010708 0)
(-0.0263147 0.012999 0)
(-0.0362243 0.015641 0)
(-0.0474471 0.0185982 0)
(-0.0598923 0.0217733 0)
(-0.0733562 0.025019 0)
(-0.0875454 0.0281568 0)
(-0.102091 0.0310181 0)
(-0.116696 0.0335088 0)
(-0.131009 0.035442 0)
(-0.144742 0.0367242 0)
(-0.157616 0.0373757 0)
(-0.169469 0.0374602 0)
(-0.180268 0.0370254 0)
(-0.189989 0.0361302 0)
(-0.198693 0.0348144 0)
(-0.206422 0.0331166 0)
(-0.213249 0.0311076 0)
(-0.219211 0.0288342 0)
(-0.224374 0.0263515 0)
(-0.228767 0.0237007 0)
(-0.232421 0.0209238 0)
(-0.235353 0.0180442 0)
(-0.237574 0.0150821 0)
(-0.239088 0.0120488 0)
(-0.23989 0.00894998 0)
(-0.239971 0.00578555 0)
(-0.239315 0.00255322 0)
(-0.237906 -0.000749478 0)
(-0.235715 -0.00412974 0)
(-0.232711 -0.0075898 0)
(-0.22887 -0.0111444 0)
(-0.224158 -0.0147773 0)
(-0.218542 -0.0184814 0)
(-0.211992 -0.0222341 0)
(-0.204485 -0.0260133 0)
(-0.195996 -0.0297805 0)
(-0.186512 -0.0334819 0)
(-0.176028 -0.0370391 0)
(-0.164561 -0.0403546 0)
(-0.15216 -0.0433304 0)
(-0.138899 -0.0458532 0)
(-0.124877 -0.0477808 0)
(-0.110231 -0.0489714 0)
(-0.0951586 -0.0493104 0)
(-0.0798744 -0.0486814 0)
(-0.064638 -0.0470138 0)
(-0.0497678 -0.0442768 0)
(-0.0356135 -0.0405433 0)
(-0.0224278 -0.0358732 0)
(-0.0104481 -0.0303544 0)
(0.000107179 -0.0241415 0)
(0.0090832 -0.0174527 0)
(0.0163692 -0.0105288 0)
(0.0219159 -0.00361893 0)
(0.0257364 0.0030483 0)
(0.0278797 0.00916429 0)
(0.0283482 0.0143197 0)
(0.0270119 0.0181723 0)
(0.0239118 0.0204203 0)
(0.0192199 0.0206243 0)
(0.0133392 0.0186366 0)
(0.00694719 0.0142593 0)
(0.00107829 0.00674157 0)
(0.00071451 -0.00616008 0)
(0.00497512 -0.0139639 0)
(0.0088232 -0.0156733 0)
(0.0114496 -0.0140136 0)
(0.0129995 -0.0108141 0)
(0.0135512 -0.00712846 0)
(0.0132527 -0.0035014 0)
(0.0121897 -0.00023604 0)
(0.0103979 0.00251667 0)
(0.00786314 0.00474578 0)
(0.00452084 0.00656952 0)
(0.000282298 0.00820183 0)
(-0.00494576 0.00988651 0)
(-0.0112523 0.0118275 0)
(-0.0187206 0.0141542 0)
(-0.0274292 0.0169246 0)
(-0.0374372 0.0201444 0)
(-0.0487625 0.0237779 0)
(-0.0613373 0.0277231 0)
(-0.0749821 0.0318332 0)
(-0.0894029 0.0358798 0)
(-0.104242 0.0396658 0)
(-0.119138 0.0430514 0)
(-0.133784 0.0457558 0)
(-0.147792 0.0476563 0)
(-0.16085 0.0487689 0)
(-0.172874 0.0491163 0)
(-0.183806 0.0487579 0)
(-0.1937 0.0477991 0)
(-0.202597 0.0463344 0)
(-0.21056 0.0444448 0)
(-0.217677 0.0421991 0)
(-0.223994 0.0396471 0)
(-0.229572 0.0368411 0)
(-0.23446 0.0338231 0)
(-0.238702 0.0306345 0)
(-0.24232 0.0273089 0)
(-0.245341 0.0238765 0)
(-0.247777 0.0203513 0)
(-0.249632 0.0167467 0)
(-0.250904 0.0130669 0)
(-0.251584 0.00931299 0)
(-0.251661 0.00547636 0)
(-0.251117 0.00155075 0)
(-0.249935 -0.00246921 0)
(-0.248079 -0.00659476 0)
(-0.245518 -0.0108321 0)
(-0.242214 -0.01519 0)
(-0.238144 -0.0196701 0)
(-0.233252 -0.0242603 0)
(-0.227494 -0.0289352 0)
(-0.220834 -0.0336722 0)
(-0.213228 -0.0384268 0)
(-0.204641 -0.0431364 0)
(-0.195046 -0.0477088 0)
(-0.184427 -0.0520212 0)
(-0.172793 -0.0559482 0)
(-0.160195 -0.0593538 0)
(-0.146694 -0.0620533 0)
(-0.132393 -0.0638636 0)
(-0.117458 -0.0646348 0)
(-0.102075 -0.0641922 0)
(-0.0865015 -0.0624252 0)
(-0.0709818 -0.0592678 0)
(-0.0558891 -0.0547545 0)
(-0.041638 -0.0490173 0)
(-0.0284854 -0.0421924 0)
(-0.0166628 -0.0344891 0)
(-0.00637579 -0.0261667 0)
(0.00223175 -0.0175303 0)
(0.00909156 -0.00889397 0)
(0.0142162 -0.000549866 0)
(0.0176749 0.0071974 0)
(0.0195397 0.0140222 0)
(0.0198256 0.01956 0)
(0.0185403 0.0233636 0)
(0.0156935 0.024985 0)
(0.0114957 0.0241058 0)
(0.00630821 0.0201075 0)
(0.000948782 0.0105576 0)
(0.0010268 -0.0090892 0)
(0.0051567 -0.0179768 0)
(0.00803785 -0.0184634 0)
(0.00953894 -0.0156119 0)
(0.0100202 -0.0113213 0)
(0.00954107 -0.0067402 0)
(0.00824501 -0.00232195 0)
(0.00617491 0.00169445 0)
(0.00331201 0.00521697 0)
(-0.000413721 0.00828424 0)
(-0.00510927 0.0110485 0)
(-0.01089 0.0137337 0)
(-0.0178586 0.0165737 0)
(-0.0260961 0.0197558 0)
(-0.0356573 0.0233899 0)
(-0.0465558 0.0274988 0)
(-0.0587433 0.0320253 0)
(-0.0720895 0.0368695 0)
(-0.0863644 0.0417984 0)
(-0.101201 0.0465572 0)
(-0.116249 0.0509742 0)
(-0.131155 0.0546963 0)
(-0.145457 0.0575355 0)
(-0.158802 0.0594305 0)
(-0.171052 0.0603446 0)
(-0.182215 0.0603673 0)
(-0.192343 0.0596259 0)
(-0.201504 0.0582507 0)
(-0.209787 0.0563541 0)
(-0.217249 0.0540242 0)
(-0.223963 0.0513367 0)
(-0.229982 0.0483466 0)
(-0.235354 0.045106 0)
(-0.24013 0.041658 0)
(-0.244344 0.0380364 0)
(-0.248025 0.0342713 0)
(-0.251188 0.0303889 0)
(-0.253851 0.0264148 0)
(-0.256023 0.0223572 0)
(-0.257708 0.0182213 0)
(-0.258905 0.0140067 0)
(-0.259608 0.00971043 0)
(-0.259815 0.00531448 0)
(-0.259512 0.000804516 0)
(-0.258705 -0.00384137 0)
(-0.257356 -0.00863433 0)
(-0.255433 -0.0135782 0)
(-0.252885 -0.0186709 0)
(-0.249679 -0.0239214 0)
(-0.245767 -0.0293291 0)
(-0.241079 -0.0348612 0)
(-0.23555 -0.0404917 0)
(-0.229105 -0.0461633 0)
(-0.221679 -0.0518109 0)
(-0.213273 -0.0573796 0)
(-0.203838 -0.0627405 0)
(-0.19328 -0.0677007 0)
(-0.181636 -0.0721089 0)
(-0.168939 -0.0757459 0)
(-0.155213 -0.0783732 0)
(-0.140628 -0.0798093 0)
(-0.125306 -0.0798168 0)
(-0.109501 -0.0782664 0)
(-0.0934648 -0.0749931 0)
(-0.0774972 -0.0699877 0)
(-0.0620188 -0.0633552 0)
(-0.0474919 -0.0553606 0)
(-0.0341797 -0.046237 0)
(-0.022346 -0.0362983 0)
(-0.0121982 -0.0259237 0)
(-0.00385854 -0.0155123 0)
(0.00265199 -0.00544343 0)
(0.00740387 0.00394069 0)
(0.0105262 0.0123175 0)
(0.0121335 0.0193635 0)
(0.0122847 0.0246516 0)
(0.0109887 0.0277022 0)
(0.00834323 0.0280438 0)
(0.00469283 0.0247493 0)
(0.000573556 0.0137113 0)
(0.0012769 -0.0121547 0)
(0.004785 -0.0211075 0)
(0.00635665 -0.0201533 0)
(0.00673985 -0.0160156 0)
(0.00606798 -0.0107369 0)
(0.00452466 -0.00531144 0)
(0.00217498 -0.00010045 0)
(-0.000991502 0.00472426 0)
(-0.00504214 0.00912423 0)
(-0.0100822 0.0131755 0)
(-0.0162322 0.0170458 0)
(-0.0236043 0.0209507 0)
(-0.0322836 0.0250969 0)
(-0.0423143 0.0296336 0)
(-0.053687 0.034619 0)
(-0.06631 0.0400077 0)
(-0.0800344 0.0456608 0)
(-0.0945555 0.0513295 0)
(-0.109483 0.056793 0)
(-0.124481 0.0616798 0)
(-0.139077 0.0657151 0)
(-0.15279 0.0686952 0)
(-0.165419 0.0705383 0)
(-0.176939 0.0712981 0)
(-0.187413 0.0711143 0)
(-0.19691 0.070127 0)
(-0.20552 0.0684669 0)
(-0.213329 0.0662566 0)
(-0.220407 0.0635937 0)
(-0.226808 0.0605595 0)
(-0.232583 0.0572199 0)
(-0.237772 0.0536219 0)
(-0.242415 0.0498105 0)
(-0.246545 0.0458218 0)
(-0.25019 0.0416876 0)
(-0.253368 0.0374351 0)
(-0.256094 0.0330907 0)
(-0.258375 0.0286718 0)
(-0.260226 0.0241805 0)
(-0.261646 0.0196209 0)
(-0.26268 0.0149279 0)
(-0.263293 0.0101742 0)
(-0.263485 0.00532042 0)
(-0.263239 0.000357493 0)
(-0.262545 -0.00474149 0)
(-0.261439 -0.00999179 0)
(-0.259898 -0.0154204 0)
(-0.257935 -0.0210588 0)
(-0.255505 -0.0269283 0)
(-0.252606 -0.0330711 0)
(-0.249168 -0.0393997 0)
(-0.245104 -0.0459099 0)
(-0.240326 -0.0525634 0)
(-0.234725 -0.0592927 0)
(-0.228123 -0.0659653 0)
(-0.22038 -0.0724096 0)
(-0.211376 -0.0784267 0)
(-0.201111 -0.083883 0)
(-0.189725 -0.0886448 0)
(-0.177028 -0.0923141 0)
(-0.163213 -0.094688 0)
(-0.148312 -0.0954407 0)
(-0.132595 -0.0944049 0)
(-0.116246 -0.0913557 0)
(-0.0996192 -0.0862377 0)
(-0.0830206 -0.079042 0)
(-0.0670066 -0.0700383 0)
(-0.0520755 -0.0596065 0)
(-0.0385085 -0.0480895 0)
(-0.0265978 -0.0359381 0)
(-0.0165535 -0.0236521 0)
(-0.00847138 -0.0117245 0)
(-0.00232467 -0.000592679 0)
(0.00203947 0.00938475 0)
(0.00482041 0.0178984 0)
(0.00616544 0.0245836 0)
(0.0061626 0.0289898 0)
(0.00487811 0.0305064 0)
(0.00270045 0.0279161 0)
(0.000106438 0.0157148 0)
(0.00137339 -0.0150114 0)
(0.00375807 -0.0230871 0)
(0.00409351 -0.0205995 0)
(0.00323655 -0.0152047 0)
(0.00141895 -0.00904232 0)
(-0.00121702 -0.00280334 0)
(-0.0046718 0.00323077 0)
(-0.00900297 0.00894216 0)
(-0.0143103 0.0143287 0)
(-0.0207089 0.0194855 0)
(-0.0283096 0.0245769 0)
(-0.0371991 0.0297924 0)
(-0.0474202 0.0352928 0)
(-0.0589564 0.0411613 0)
(-0.0717122 0.04739 0)
(-0.0855058 0.0538297 0)
(-0.0999952 0.060222 0)
(-0.114819 0.0662907 0)
(-0.129533 0.0716557 0)
(-0.143639 0.0760073 0)
(-0.156753 0.0791226 0)
(-0.168772 0.0809895 0)
(-0.179714 0.0817139 0)
(-0.189638 0.0814462 0)
(-0.198635 0.0803223 0)
(-0.206794 0.0784864 0)
(-0.214201 0.0760595 0)
(-0.220918 0.0731496 0)
(-0.226999 0.0698397 0)
(-0.23248 0.0662018 0)
(-0.237401 0.062294 0)
(-0.241791 0.0581638 0)
(-0.245678 0.0538541 0)
(-0.249083 0.0494042 0)
(-0.25202 0.044853 0)
(-0.254504 0.0402189 0)
(-0.256651 0.0354443 0)
(-0.258444 0.0305951 0)
(-0.259894 0.0256696 0)
(-0.261002 0.0206679 0)
(-0.261752 0.015638 0)
(-0.262161 0.0104981 0)
(-0.262232 0.00526149 0)
(-0.26197 -9.61246e-05 0)
(-0.261378 -0.00558893 0)
(-0.260479 -0.0112262 0)
(-0.259253 -0.0170374 0)
(-0.257696 -0.0230373 0)
(-0.255788 -0.0292368 0)
(-0.253501 -0.0356325 0)
(-0.250821 -0.0423441 0)
(-0.247725 -0.0493458 0)
(-0.244171 -0.0566247 0)
(-0.240101 -0.0641464 0)
(-0.235434 -0.0718747 0)
(-0.230066 -0.0796525 0)
(-0.223729 -0.0871873 0)
(-0.216087 -0.0942046 0)
(-0.206768 -0.100243 0)
(-0.195804 -0.105105 0)
(-0.183463 -0.108716 0)
(-0.16962 -0.110565 0)
(-0.154556 -0.11046 0)
(-0.13838 -0.108056 0)
(-0.121467 -0.103256 0)
(-0.104109 -0.0959753 0)
(-0.0867479 -0.0862984 0)
(-0.0700995 -0.074713 0)
(-0.0546873 -0.0617282 0)
(-0.0408336 -0.0478073 0)
(-0.0288583 -0.0335525 0)
(-0.018968 -0.0195889 0)
(-0.0112194 -0.00649641 0)
(-0.00550759 0.0052559 0)
(-0.00159839 0.0153106 0)
(0.000787275 0.0233753 0)
(0.00185488 0.0290448 0)
(0.00176054 0.0316533 0)
(0.000835445 0.0295841 0)
(-0.000270831 0.0164848 0)
(0.00127712 -0.0173602 0)
(0.00231222 -0.0237748 0)
(0.00133865 -0.0196885 0)
(-0.000741924 -0.013238 0)
(-0.00369064 -0.00623514 0)
(-0.00743771 0.00081829 0)
(-0.0120285 0.00772028 0)
(-0.0175543 0.0143923 0)
(-0.0241246 0.0208502 0)
(-0.031844 0.0271876 0)
(-0.0407956 0.0335472 0)
(-0.0510223 0.0400744 0)
(-0.0625047 0.0468635 0)
(-0.075169 0.0539324 0)
(-0.0888221 0.0611553 0)
(-0.103092 0.0682684 0)
(-0.117631 0.0749355 0)
(-0.131964 0.080793 0)
(-0.145548 0.0854836 0)
(-0.158157 0.088837 0)
(-0.169678 0.0908469 0)
(-0.180139 0.0916546 0)
(-0.189607 0.091389 0)
(-0.198178 0.0902172 0)
(-0.205936 0.0882769 0)
(-0.21296 0.0857035 0)
(-0.219309 0.0826009 0)
(-0.225028 0.0790627 0)
(-0.230153 0.0751629 0)
(-0.234717 0.0709686 0)
(-0.23875 0.0665351 0)
(-0.24228 0.0619115 0)
(-0.245331 0.0571418 0)
(-0.247966 0.0522337 0)
(-0.250233 0.0472152 0)
(-0.252152 0.0421192 0)
(-0.253688 0.037011 0)
(-0.254855 0.0318453 0)
(-0.255674 0.0266242 0)
(-0.256167 0.0213437 0)
(-0.256387 0.0160011 0)
(-0.256358 0.0105775 0)
(-0.256108 0.00506925 0)
(-0.255663 -0.000547917 0)
(-0.255035 -0.00629467 0)
(-0.254189 -0.0121948 0)
(-0.253155 -0.0182825 0)
(-0.251925 -0.0245873 0)
(-0.250498 -0.0311362 0)
(-0.248862 -0.0379472 0)
(-0.247 -0.0450321 0)
(-0.244881 -0.0523921 0)
(-0.242458 -0.0600198 0)
(-0.239668 -0.0678791 0)
(-0.236418 -0.0758986 0)
(-0.232601 -0.0841061 0)
(-0.228216 -0.0925405 0)
(-0.223081 -0.100935 0)
(-0.216959 -0.108925 0)
(-0.209391 -0.115956 0)
(-0.199619 -0.121244 0)
(-0.18771 -0.124495 0)
(-0.174156 -0.125793 0)
(-0.158887 -0.124542 0)
(-0.142301 -0.120583 0)
(-0.124726 -0.113774 0)
(-0.106504 -0.104028 0)
(-0.0882829 -0.0916461 0)
(-0.0709133 -0.0773144 0)
(-0.0549896 -0.0617178 0)
(-0.0408782 -0.045456 0)
(-0.0289223 -0.0292945 0)
(-0.0193062 -0.0139823 0)
(-0.0120251 -0.00017013 0)
(-0.00687417 0.0116556 0)
(-0.00349569 0.0211826 0)
(-0.00153037 0.0280772 0)
(-0.000654195 0.0316082 0)
(-0.000482117 0.0299623 0)
(-0.000385793 0.0163337 0)
(0.00102711 -0.0186672 0)
(0.000587833 -0.0230619 0)
(-0.00171843 -0.0174831 0)
(-0.0049704 -0.0101122 0)
(-0.0090416 -0.00230816 0)
(-0.013905 0.00557032 0)
(-0.019633 0.0133795 0)
(-0.026333 0.0210634 0)
(-0.0341073 0.0286356 0)
(-0.0430344 0.0361692 0)
(-0.053156 0.0437677 0)
(-0.0644557 0.051515 0)
(-0.0768755 0.0594464 0)
(-0.0902446 0.0674656 0)
(-0.104195 0.0753008 0)
(-0.118337 0.0826073 0)
(-0.132224 0.0890125 0)
(-0.145371 0.0941377 0)
(-0.157541 0.0978325 0)
(-0.168651 0.100118 0)
(-0.1787 0.101088 0)
(-0.187778 0.100917 0)
(-0.195965 0.0997646 0)
(-0.20335 0.0977891 0)
(-0.209995 0.095118 0)
(-0.215958 0.0918688 0)
(-0.221277 0.0881334 0)
(-0.225987 0.0839971 0)
(-0.230122 0.079531 0)
(-0.233717 0.0748002 0)
(-0.236805 0.0698598 0)
(-0.239426 0.0647579 0)
(-0.241621 0.0595335 0)
(-0.243402 0.0542363 0)
(-0.244789 0.048881 0)
(-0.24583 0.043472 0)
(-0.24654 0.0380263 0)
(-0.246985 0.0325418 0)
(-0.247203 0.0270329 0)
(-0.247239 0.0215 0)
(-0.24708 0.0159373 0)
(-0.246758 0.0103239 0)
(-0.246287 0.00464485 0)
(-0.245685 -0.00112477 0)
(-0.244956 -0.00700673 0)
(-0.244107 -0.013038 0)
(-0.243158 -0.0192447 0)
(-0.242118 -0.0256609 0)
(-0.240995 -0.0323185 0)
(-0.239789 -0.0392512 0)
(-0.238501 -0.0464917 0)
(-0.237121 -0.0540633 0)
(-0.235628 -0.0619816 0)
(-0.233979 -0.0702399 0)
(-0.232104 -0.0787982 0)
(-0.229909 -0.0875719 0)
(-0.227277 -0.0964426 0)
(-0.224039 -0.105249 0)
(-0.219993 -0.113984 0)
(-0.215085 -0.122538 0)
(-0.208924 -0.130296 0)
(-0.200917 -0.136393 0)
(-0.189959 -0.139596 0)
(-0.176637 -0.140058 0)
(-0.161237 -0.137533 0)
(-0.144196 -0.131844 0)
(-0.125814 -0.122726 0)
(-0.106641 -0.110284 0)
(-0.0874662 -0.0949883 0)
(-0.0693289 -0.0777918 0)
(-0.0529204 -0.0595798 0)
(-0.0386505 -0.0411201 0)
(-0.0268656 -0.0233488 0)
(-0.0177021 -0.00713122 0)
(-0.0110614 0.00682861 0)
(-0.00659077 0.0180679 0)
(-0.00377861 0.0262664 0)
(-0.00217008 0.030584 0)
(-0.00116758 0.029378 0)
(-0.000358298 0.015727 0)
(0.000705239 -0.0189942 0)
(-0.00131356 -0.0209463 0)
(-0.00488103 -0.0140572 0)
(-0.00926705 -0.00583855 0)
(-0.0144444 0.00273334 0)
(-0.0203994 0.0114383 0)
(-0.0272253 0.0201743 0)
(-0.0350282 0.0288859 0)
(-0.0438895 0.0375648 0)
(-0.0538513 0.0462469 0)
(-0.0649027 0.0549815 0)
(-0.0769984 0.0638019 0)
(-0.0899951 0.0726411 0)
(-0.103556 0.0812331 0)
(-0.117272 0.0892223 0)
(-0.130714 0.0962365 0)
(-0.143472 0.101922 0)
(-0.155275 0.106087 0)
(-0.16603 0.108742 0)
(-0.175738 0.109984 0)
(-0.184468 0.109986 0)
(-0.192311 0.10893 0)
(-0.199334 0.106972 0)
(-0.205603 0.104253 0)
(-0.211159 0.100888 0)
(-0.216044 0.096983 0)
(-0.22029 0.0926267 0)
(-0.223934 0.0879034 0)
(-0.227017 0.0828867 0)
(-0.22958 0.077644 0)
(-0.231668 0.0722326 0)
(-0.233326 0.066701 0)
(-0.234599 0.0610874 0)
(-0.235528 0.0554238 0)
(-0.236158 0.0497314 0)
(-0.236535 0.0440277 0)
(-0.236692 0.0383292 0)
(-0.236665 0.0326384 0)
(-0.236478 0.0269526 0)
(-0.236152 0.0212629 0)
(-0.235698 0.0155587 0)
(-0.235137 0.00982072 0)
(-0.23448 0.00402996 0)
(-0.233743 -0.00183693 0)
(-0.232935 -0.00780302 0)
(-0.232068 -0.0139025 0)
(-0.231161 -0.0201639 0)
(-0.230226 -0.0266204 0)
(-0.229278 -0.0333048 0)
(-0.22833 -0.0402525 0)
(-0.227394 -0.0474992 0)
(-0.226478 -0.0550771 0)
(-0.225582 -0.0630146 0)
(-0.224693 -0.0713312 0)
(-0.223779 -0.0800338 0)
(-0.22278 -0.0891092 0)
(-0.221607 -0.0984973 0)
(-0.220114 -0.10806 0)
(-0.218114 -0.117575 0)
(-0.215363 -0.126767 0)
(-0.211536 -0.135427 0)
(-0.206512 -0.143565 0)
(-0.199716 -0.150039 0)
(-0.19012 -0.153605 0)
(-0.177075 -0.153157 0)
(-0.161606 -0.149345 0)
(-0.143954 -0.141638 0)
(-0.124661 -0.129982 0)
(-0.104439 -0.114608 0)
(-0.0842686 -0.0962162 0)
(-0.0653915 -0.076079 0)
(-0.0486085 -0.0553234 0)
(-0.0343657 -0.0349141 0)
(-0.022978 -0.0159632 0)
(-0.0144962 0.000558649 0)
(-0.00867425 0.0139329 0)
(-0.00492878 0.0236989 0)
(-0.00273364 0.0288779 0)
(-0.00123185 0.0282122 0)
(-0.000183737 0.0149112 0)
(0.000123508 -0.0181405 0)
(-0.00330622 -0.0174938 0)
(-0.00802706 -0.00942793 0)
(-0.0134939 -0.000454903 0)
(-0.0197295 0.0088492 0)
(-0.026718 0.0183697 0)
(-0.0345598 0.0280251 0)
(-0.0433494 0.0377397 0)
(-0.0531375 0.0474669 0)
(-0.0639214 0.0571927 0)
(-0.075665 0.0669217 0)
(-0.0882522 0.0766035 0)
(-0.101388 0.0859881 0)
(-0.114675 0.0947199 0)
(-0.127703 0.102425 0)
(-0.14011 0.108773 0)
(-0.151615 0.11354 0)
(-0.162073 0.116675 0)
(-0.171494 0.118293 0)
(-0.179929 0.118561 0)
(-0.187457 0.11767 0)
(-0.194148 0.115789 0)
(-0.200051 0.113062 0)
(-0.205211 0.109617 0)
(-0.209662 0.105563 0)
(-0.213445 0.101004 0)
(-0.216603 0.0960335 0)
(-0.219188 0.0907397 0)
(-0.221252 0.0852006 0)
(-0.222853 0.0794858 0)
(-0.224048 0.0736531 0)
(-0.224892 0.0677499 0)
(-0.225437 0.0618128 0)
(-0.225729 0.0558708 0)
(-0.225813 0.0499437 0)
(-0.225725 0.044046 0)
(-0.225489 0.0381844 0)
(-0.22513 0.0323544 0)
(-0.224664 0.0265487 0)
(-0.224105 0.0207552 0)
(-0.223465 0.0149596 0)
(-0.222757 0.00914323 0)
(-0.221991 0.00328609 0)
(-0.221177 -0.00263456 0)
(-0.220328 -0.00864297 0)
(-0.219454 -0.0147691 0)
(-0.218572 -0.0210418 0)
(-0.217697 -0.0274932 0)
(-0.216846 -0.0341562 0)
(-0.216039 -0.0410657 0)
(-0.215295 -0.0482579 0)
(-0.214632 -0.0557678 0)
(-0.214065 -0.0636283 0)
(-0.213603 -0.0718676 0)
(-0.213243 -0.0805078 0)
(-0.212965 -0.0895604 0)
(-0.212726 -0.0990163 0)
(-0.212437 -0.108832 0)
(-0.211959 -0.118908 0)
(-0.211084 -0.129036 0)
(-0.209525 -0.138856 0)
(-0.206918 -0.147904 0)
(-0.202817 -0.156005 0)
(-0.196935 -0.162689 0)
(-0.188309 -0.166279 0)
(-0.175641 -0.165132 0)
(-0.159964 -0.159811 0)
(-0.141564 -0.149857 0)
(-0.121239 -0.135386 0)
(-0.0998944 -0.116828 0)
(-0.0787564 -0.0951811 0)
(-0.059271 -0.0720867 0)
(-0.042343 -0.0489671 0)
(-0.0284203 -0.0270088 0)
(-0.017738 -0.00750791 0)
(-0.0102075 0.00851214 0)
(-0.00531235 0.0203033 0)
(-0.0024957 0.0267627 0)
(-0.000797947 0.0268994 0)
(7.37062e-05 0.014342 0)
(-0.000458428 -0.0160393 0)
(-0.00525103 -0.0127507 0)
(-0.0110372 -0.00367865 0)
(-0.0175173 0.00597003 0)
(-0.0247374 0.0159662 0)
(-0.0326707 0.0262756 0)
(-0.0414149 0.0368135 0)
(-0.0510442 0.0474678 0)
(-0.0615729 0.0581416 0)
(-0.0729722 0.0687771 0)
(-0.0851488 0.0793136 0)
(-0.0978539 0.089515 0)
(-0.110722 0.0990442 0)
(-0.123375 0.107525 0)
(-0.135473 0.114631 0)
(-0.146733 0.120115 0)
(-0.156968 0.123864 0)
(-0.166157 0.125967 0)
(-0.174351 0.1266 0)
(-0.181613 0.125954 0)
(-0.188008 0.124212 0)
(-0.193584 0.121529 0)
(-0.198379 0.118041 0)
(-0.202436 0.113871 0)
(-0.205797 0.109135 0)
(-0.208519 0.103941 0)
(-0.210662 0.0983919 0)
(-0.212295 0.0925798 0)
(-0.213486 0.0865854 0)
(-0.2143 0.0804772 0)
(-0.214801 0.0743102 0)
(-0.215044 0.0681271 0)
(-0.215077 0.0619592 0)
(-0.214942 0.0558287 0)
(-0.214671 0.0497485 0)
(-0.21429 0.0437247 0)
(-0.213818 0.0377563 0)
(-0.213267 0.0318357 0)
(-0.21265 0.025952 0)
(-0.211975 0.0200916 0)
(-0.211249 0.0142384 0)
(-0.210479 0.00837367 0)
(-0.209672 0.00247733 0)
(-0.208836 -0.0034727 0)
(-0.20798 -0.0095001 0)
(-0.207115 -0.0156314 0)
(-0.206254 -0.021894 0)
(-0.205414 -0.0283174 0)
(-0.204613 -0.0349328 0)
(-0.203873 -0.0417735 0)
(-0.203217 -0.0488745 0)
(-0.20267 -0.0562717 0)
(-0.202257 -0.0640012 0)
(-0.201999 -0.0720976 0)
(-0.20191 -0.0805921 0)
(-0.201997 -0.0895087 0)
(-0.202247 -0.0988578 0)
(-0.202623 -0.10863 0)
(-0.20305 -0.118787 0)
(-0.203394 -0.12924 0)
(-0.203442 -0.139816 0)
(-0.202883 -0.150186 0)
(-0.201304 -0.159772 0)
(-0.198155 -0.167927 0)
(-0.192912 -0.174474 0)
(-0.184828 -0.177857 0)
(-0.172422 -0.17591 0)
(-0.156329 -0.168851 0)
(-0.137025 -0.156348 0)
(-0.115549 -0.138728 0)
(-0.0930696 -0.116711 0)
(-0.0710959 -0.0916694 0)
(-0.051278 -0.0657137 0)
(-0.0345842 -0.0405627 0)
(-0.0214014 -0.0176978 0)
(-0.011827 0.00148555 0)
(-0.00549545 0.0159103 0)
(-0.00191299 0.024292 0)
(-8.45595e-05 0.0257102 0)
(0.000367343 0.0142653 0)
(-0.00104467 -0.012774 0)
(-0.00707453 -0.00683327 0)
(-0.0138189 0.00311095 0)
(-0.0212209 0.0133552 0)
(-0.0293313 0.0239919 0)
(-0.0380966 0.0350412 0)
(-0.0476067 0.0463964 0)
(-0.057911 0.057895 0)
(-0.0689965 0.0693917 0)
(-0.0807877 0.0807722 0)
(-0.0930763 0.0917972 0)
(-0.10555 0.102161 0)
(-0.117869 0.111488 0)
(-0.129699 0.119442 0)
(-0.140763 0.12575 0)
(-0.150843 0.130244 0)
(-0.15987 0.132957 0)
(-0.167882 0.13406 0)
(-0.174939 0.133753 0)
(-0.181094 0.132225 0)
(-0.186397 0.129648 0)
(-0.190888 0.126169 0)
(-0.19461 0.121926 0)
(-0.197618 0.11705 0)
(-0.199975 0.111667 0)
(-0.201756 0.105894 0)
(-0.203039 0.0998389 0)
(-0.203903 0.0935941 0)
(-0.204422 0.0872378 0)
(-0.204663 0.0808326 0)
(-0.204682 0.074426 0)
(-0.204531 0.0680524 0)
(-0.204247 0.0617348 0)
(-0.203861 0.0554864 0)
(-0.203396 0.0493126 0)
(-0.202868 0.0432125 0)
(-0.202287 0.0371797 0)
(-0.201662 0.0312042 0)
(-0.200996 0.0252727 0)
(-0.200292 0.0193695 0)
(-0.199555 0.0134784 0)
(-0.198786 0.00758108 0)
(-0.19799 0.00165777 0)
(-0.19717 -0.0043122 0)
(-0.196334 -0.0103507 0)
(-0.19549 -0.0164815 0)
(-0.194651 -0.0227289 0)
(-0.193833 -0.0291196 0)
(-0.193053 -0.0356816 0)
(-0.192334 -0.0424451 0)
(-0.191702 -0.0494426 0)
(-0.191185 -0.0567084 0)
(-0.190813 -0.0642791 0)
(-0.190615 -0.0721923 0)
(-0.19062 -0.0804855 0)
(-0.190848 -0.0891935 0)
(-0.191308 -0.0983436 0)
(-0.191994 -0.10795 0)
(-0.192869 -0.118003 0)
(-0.193861 -0.128461 0)
(-0.194839 -0.139231 0)
(-0.195589 -0.150145 0)
(-0.195788 -0.160906 0)
(-0.194977 -0.170963 0)
(-0.19257 -0.179466 0)
(-0.1878 -0.185612 0)
(-0.179898 -0.188445 0)
(-0.167477 -0.18546 0)
(-0.150723 -0.176332 0)
(-0.130345 -0.160866 0)
(-0.107643 -0.139703 0)
(-0.0840951 -0.113906 0)
(-0.0615824 -0.0854044 0)
(-0.04189 -0.0568577 0)
(-0.0259889 -0.0302747 0)
(-0.0141102 -0.00741229 0)
(-0.00607305 0.0102858 0)
(-0.00149425 0.0213299 0)
(0.000584901 0.0246624 0)
(0.000574635 0.0146309 0)
(-0.00160121 -0.00841423 0)
(-0.00871013 0.000138336 0)
(-0.0163025 0.0108356 0)
(-0.0245242 0.0215971 0)
(-0.0334063 0.0328116 0)
(-0.0428715 0.044534 0)
(-0.052998 0.0566178 0)
(-0.0638095 0.0688502 0)
(-0.0752548 0.0810199 0)
(-0.0871559 0.0928541 0)
(-0.0992679 0.104062 0)
(-0.11129 0.114287 0)
(-0.122893 0.123161 0)
(-0.133807 0.130388 0)
(-0.143792 0.13575 0)
(-0.152734 0.139209 0)
(-0.160637 0.140903 0)
(-0.167556 0.141039 0)
(-0.173543 0.139816 0)
(-0.178644 0.13742 0)
(-0.182903 0.134016 0)
(-0.186369 0.129756 0)
(-0.189102 0.124789 0)
(-0.191178 0.119258 0)
(-0.19268 0.113299 0)
(-0.193697 0.107033 0)
(-0.194316 0.100568 0)
(-0.194617 0.0939904 0)
(-0.194671 0.0873708 0)
(-0.194537 0.0807617 0)
(-0.194265 0.0742001 0)
(-0.193892 0.0677105 0)
(-0.193446 0.0613064 0)
(-0.192949 0.0549931 0)
(-0.192412 0.0487692 0)
(-0.191845 0.0426284 0)
(-0.191251 0.0365603 0)
(-0.190631 0.0305525 0)
(-0.189987 0.024591 0)
(-0.189315 0.0186584 0)
(-0.188616 0.0127381 0)
(-0.187889 0.00681358 0)
(-0.187136 0.000865863 0)
(-0.186357 -0.00512397 0)
(-0.185559 -0.0111755 0)
(-0.184748 -0.0173094 0)
(-0.183936 -0.0235471 0)
(-0.183134 -0.0299114 0)
(-0.182362 -0.0364267 0)
(-0.181641 -0.0431193 0)
(-0.180996 -0.0500181 0)
(-0.180456 -0.0571544 0)
(-0.180055 -0.0645628 0)
(-0.179827 -0.0722807 0)
(-0.179808 -0.0803483 0)
(-0.180029 -0.0888067 0)
(-0.180518 -0.0976958 0)
(-0.181288 -0.107049 0)
(-0.182332 -0.116887 0)
(-0.183616 -0.127204 0)