# vtk DataFile Version 2.0
tracks
ASCII
DATASET POLYDATA
POINTS 12025 float
-0.0206 0.000999967 1e-05 -0.02058 0.00099997 1e-05 -0.02056 0.000999974 1e-05 -0.02054 0.00099998
1e-05 -0.02052 0.000999989 1e-05 -0.0205 0.001 1e-05 -0.0202034 0.00100016 1e-05
-0.0199069 0.0010006 1e-05 -0.0196103 0.00100132 1e-05 -0.0193137 0.0010023 1e-05 -0.0190172
0.00100355 1e-05 -0.0187132 0.00100506 1e-05 -0.0184093 0.00100666 1e-05 -0.0181054 0.00100834
1e-05 -0.0178015 0.00101011 1e-05 -0.0174976 0.00101196 1e-05 -0.0172058 0.00101381 1e-05
-0.016914 0.00101569 1e-05 -0.0166222 0.00101759 1e-05 -0.0163305 0.00101952 1e-05 -0.0160387
0.00102149 1e-05 -0.015883 0.00102256 1e-05 -0.0157274 0.00102363 1e-05 -0.0155718 0.00102472
1e-05 -0.0154161 0.00102581 1e-05 -0.0152744 0.00102682 1e-05 -0.0151472 0.00102773 1e-05
-0.0150199 0.00102865 1e-05 -0.0148926 0.00102957 1e-05 -0.0147654 0.0010305 1e-05 -0.0146381
0.00103144 1e-05 -0.0143692 0.00103344 1e-05 -0.0141002 0.00103546 1e-05 -0.0138313 0.00103751
1e-05 -0.0135624 0.00103959 1e-05 -0.0132934 0.00104169 1e-05 -0.0130353 0.00104373 1e-05
-0.0127771 0.00104577 1e-05 -0.0125189 0.00104781 1e-05 -0.0122607 0.00104986 1e-05 -0.0120025
0.00105191 1e-05 -0.0117547 0.00105389 1e-05 -0.0115068 0.00105585 1e-05 -0.0112589 0.0010578
1e-05 -0.0110111 0.00105974 1e-05 -0.0107632 0.00106168 1e-05 -0.0105252 0.00106353 1e-05
-0.0102873 0.00106537 1e-05 -0.0100493 0.0010672 1e-05 -0.00981133 0.00106902 1e-05 -0.00957337
0.00107083 1e-05 -0.00934491 0.00107257 1e-05 -0.00911645 0.00107429 1e-05 -0.00888799 0.00107599
1e-05 -0.00865954 0.00107767 1e-05 -0.00843108 0.00107934 1e-05 -0.00821175 0.00108095 1e-05
-0.00799242 0.00108252 1e-05 -0.00777309 0.00108408 1e-05 -0.00755376 0.00108562 1e-05 -0.00733443
0.00108715 1e-05 -0.00712387 0.00108862 1e-05 -0.0069133 0.00109006 1e-05 -0.00670273 0.00109149
1e-05 -0.00649216 0.00109292 1e-05 -0.0062816 0.00109433 1e-05 -0.00607944 0.00109569 1e-05
-0.00587729 0.00109703 1e-05 -0.00567514 0.00109837 1e-05 -0.00547298 0.0010997 1e-05 -0.00527083
0.00110103 1e-05 -0.00507675 0.00110232 1e-05 -0.00488267 0.00110358 1e-05 -0.0046886 0.00110484
1e-05 -0.00449452 0.00110609 1e-05 -0.00430044 0.00110734 1e-05 -0.00411412 0.00110856 1e-05
-0.0039278 0.00110975 1e-05 -0.00374147 0.00111093 1e-05 -0.00355515 0.00111209 1e-05 -0.00336883
0.00111325 1e-05 -0.00318995 0.00111437 1e-05 -0.00301107 0.00111545 1e-05 -0.00283219 0.00111652
1e-05 -0.00265331 0.00111756 1e-05 -0.00247443 0.00111859 1e-05 -0.0023027 0.00111959 1e-05
-0.00213097 0.00112054 1e-05 -0.00195924 0.00112147 1e-05 -0.0017875 0.00112237 1e-05 -0.00161577
0.00112326 1e-05 -0.0014509 0.00112411 1e-05 -0.00128603 0.00112491 1e-05 -0.00112116 0.00112569
1e-05 -0.000956288 0.00112644 1e-05 -0.000791418 0.00112716 1e-05 -0.000633135 0.00112786 1e-05
-0.000474851 0.00112851 1e-05 -0.000316567 0.00112912 1e-05 -0.000158283 0.00112972 1e-05 0
0.00113029 1e-05 0.000105677 0.00113068 1e-05 0.000211355 0.00113104 1e-05 0.000317033 0.00113139
1e-05 0.00042271 0.00113173 1e-05 0.000528387 0.00113206 1e-05 0.000634886 0.0011324 1e-05
0.000741386 0.00113273 1e-05 0.000847885 0.00113304 1e-05 0.000954384 0.00113336 1e-05 0.00106088
0.00113367 1e-05 0.00116821 0.00113399 1e-05 0.00127554 0.00113429 1e-05 0.00138286 0.00113458
1e-05 0.00149019 0.00113487 1e-05 0.00159752 0.00113515 1e-05 0.00170568 0.00113544 1e-05
0.00181384 0.00113571 1e-05 0.001922 0.00113596 1e-05 0.00203016 0.00113621 1e-05 0.00213833
0.00113645 1e-05 0.00224733 0.0011367 1e-05 0.00235633 0.00113693 1e-05 0.00246533 0.00113715
1e-05 0.00257434 0.00113736 1e-05 0.00268334 0.00113757 1e-05 0.00279319 0.00113777 1e-05
0.00290304 0.00113796 1e-05 0.00301289 0.00113814 1e-05 0.00312274 0.00113832 1e-05 0.00323259
0.00113848 1e-05 0.00334329 0.00113865 1e-05 0.003454 0.00113881 1e-05 0.0035647 0.00113895
1e-05 0.0036754 0.0011391 1e-05 0.00378611 0.00113923 1e-05 0.00389767 0.00113936 1e-05
0.00400924 0.00113948 1e-05 0.0041208 0.0011396 1e-05 0.00423237 0.00113971 1e-05 0.00434393
0.00113981 1e-05 0.00445636 0.00113992 1e-05 0.00456879 0.00114001 1e-05 0.00468123 0.0011401
1e-05 0.00479366 0.00114019 1e-05 0.00490609 0.00114027 1e-05 0.0050194 0.00114035 1e-05
0.0051327 0.00114042 1e-05 0.00524601 0.00114049 1e-05 0.00535931 0.00114056 1e-05 0.00547262
0.00114062 1e-05 0.00558681 0.00114069 1e-05 0.005701 0.00114075 1e-05 0.00581518 0.00114081
1e-05 0.00592937 0.00114086 1e-05 0.00604356 0.00114092 1e-05 0.00615863 0.00114098 1e-05
0.00627371 0.00114103 1e-05 0.00638878 0.00114108 1e-05 0.00650386 0.00114113 1e-05 0.00661893
0.00114118 1e-05 0.0067349 0.00114124 1e-05 0.00685087 0.00114129 1e-05 0.00696684 0.00114134
1e-05 0.00708281 0.00114139 1e-05 0.00719878 0.00114144 1e-05 0.00731565 0.00114149 1e-05
0.00743252 0.00114155 1e-05 0.00754939 0.0011416 1e-05 0.00766626 0.00114166 1e-05 0.00778313
0.00114171 1e-05 0.00790091 0.00114177 1e-05 0.00801869 0.00114183 1e-05 0.00813647 0.00114189
1e-05 0.00825425 0.00114195 1e-05 0.00837203 0.00114202 1e-05 0.00849073 0.00114208 1e-05
0.00860942 0.00114215 1e-05 0.00872812 0.00114222 1e-05 0.00884682 0.00114229 1e-05 0.00896551
0.00114236 1e-05 0.00908513 0.00114244 1e-05 0.00920475 0.00114251 1e-05 0.00932437 0.00114259
1e-05 0.00944398 0.00114267 1e-05 0.0095636 0.00114275 1e-05 0.00968172 0.00114283 1e-05
0.00979984 0.00114291 1e-05 0.00991795 0.00114299 1e-05 0.0100361 0.00114307 1e-05 0.0101552
0.00114315 1e-05 0.0101574 0.00114315 1e-05 0.0101596 0.00114315 1e-05 0.0101619 0.00114316
1e-05 0.0101641 0.00114316 1e-05 0.0101663 0.00114316 1e-05 0.0102878 0.00114324 1e-05
0.0104093 0.00114332 1e-05 0.0105308 0.00114341 1e-05 0.0106523 0.00114349 1e-05 0.0107738
0.00114357 1e-05 0.0108962 0.00114364 1e-05 0.0110186 0.00114372 1e-05 0.0111411 0.00114379
1e-05 0.0112635 0.00114387 1e-05 0.0113859 0.00114394 1e-05 0.0115093 0.001144 1e-05
0.0116327 0.00114406 1e-05 0.0117561 0.00114412 1e-05 0.0118795 0.00114418 1e-05 0.0120028
0.00114423 1e-05 0.0121272 0.00114427 1e-05 0.0122515 0.00114431 1e-05 0.0123759 0.00114434
1e-05 0.0125002 0.00114437 1e-05 0.0126245 0.0011444 1e-05 0.0127498 0.0011444 1e-05
0.0128752 0.00114441 1e-05 0.0130005 0.00114441 1e-05 0.0131258 0.00114441 1e-05 0.0132511
0.00114439 1e-05 0.0133774 0.00114436 1e-05 0.0135036 0.00114433 1e-05 0.0136299 0.00114428
1e-05 0.0137562 0.00114423 1e-05 0.0138825 0.00114417 1e-05 0.0140098 0.00114409 1e-05
0.014137 0.001144 1e-05 0.0142643 0.0011439 1e-05 0.0143915 0.00114379 1e-05 0.0145188
0.00114367 1e-05 0.0146471 0.00114352 1e-05 0.0147753 0.00114337 1e-05 0.0149036 0.00114321
1e-05 0.0150318 0.00114303 1e-05 0.0151601 0.00114284 1e-05 0.0152893 0.00114263 1e-05
0.0154186 0.0011424 1e-05 0.0155478 0.00114216 1e-05 0.0156771 0.0011419 1e-05 0.0158063
0.00114163 1e-05 0.0159366 0.00114135 1e-05 0.0160668 0.00114104 1e-05 0.0161971 0.00114071
1e-05 0.0163273 0.00114037 1e-05 0.0164576 0.00114001 1e-05 0.0165889 0.00113964 1e-05
0.0167201 0.00113924 1e-05 0.0168514 0.00113882 1e-05 0.0169827 0.00113839 1e-05 0.0171139
0.00113793 1e-05 0.0172462 0.00113747 1e-05 0.0173785 0.00113697 1e-05 0.0175108 0.00113646
1e-05 0.0176431 0.00113592 1e-05 0.0177754 0.00113536 1e-05 0.0179087 0.00113481 1e-05
0.018042 0.00113421 1e-05 0.0181753 0.00113359 1e-05 0.0183087 0.00113295 1e-05 0.018442
0.00113229 1e-05 0.0185763 0.00113164 1e-05 0.0187107 0.00113094 1e-05 0.018845 0.00113021
1e-05 0.0189794 0.00112946 1e-05 0.0191137 0.0011287 1e-05 0.0192491 0.00112795 1e-05
0.0193845 0.00112715 1e-05 0.0195199 0.00112631 1e-05 0.0196553 0.00112545 1e-05 0.0197907
0.00112459 1e-05 0.0199272 0.00112374 1e-05 0.0200636 0.00112283 1e-05 0.0202001 0.00112188
1e-05 0.0203365 0.00112092 1e-05 0.020473 0.00111995 1e-05 0.0206105 0.001119 1e-05
0.020748 0.00111799 1e-05 0.0208855 0.00111694 1e-05 0.021023 0.00111586 1e-05 0.0211606
0.0011148 1e-05 0.0212991 0.00111375 1e-05 0.0214377 0.00111264 1e-05 0.0215763 0.00111148
1e-05 0.0217149 0.00111031 1e-05 0.0218535 0.00110915 1e-05 0.0219931 0.001108 1e-05
0.0221328 0.0011068 1e-05 0.0222724 0.00110555 1e-05 0.0224121 0.00110427 1e-05 0.0225517
0.00110302 1e-05 0.0226925 0.00110179 1e-05 0.0228332 0.0011005 1e-05 0.022974 0.00109915
1e-05 0.0231147 0.00109779 1e-05 0.0232555 0.00109646 1e-05 0.0233973 0.00109515 1e-05
0.0235391 0.00109378 1e-05 0.023681 0.00109235 1e-05 0.0238228 0.00109091 1e-05 0.0239647
0.0010895 1e-05 0.0241076 0.00108811 1e-05 0.0242505 0.00108667 1e-05 0.0243935 0.00108517
1e-05 0.0245364 0.00108365 1e-05 0.0246794 0.00108217 1e-05 0.0248234 0.00108072 1e-05
0.0249675 0.00107921 1e-05 0.0251115 0.00107764 1e-05 0.0252556 0.00107607 1e-05 0.0253996
0.00107453 1e-05 0.0255448 0.00107301 1e-05 0.02569 0.00107145 1e-05 0.0258351 0.00106982
1e-05 0.0259803 0.00106819 1e-05 0.0261255 0.0010666 1e-05 0.0262718 0.00106503 1e-05
0.0264181 0.00106341 1e-05 0.0265644 0.00106173 1e-05 0.0267107 0.00106005 1e-05 0.026857
0.00105841 1e-05 0.0270044 0.0010568 1e-05 0.0271519 0.00105513 1e-05 0.0272993 0.00105342
1e-05 0.0274467 0.0010517 1e-05 0.0275942 0.00105001 1e-05 0.0277428 0.00104836 1e-05
0.0278914 0.00104666 1e-05 0.0280399 0.00104491 1e-05 0.0281885 0.00104316 1e-05 0.0283371
0.00104145 1e-05 0.0284869 0.00103976 1e-05 0.0286366 0.00103802 1e-05 0.0287863 0.00103625
1e-05 0.0289361 0.00103448 1e-05 0.0290858 0.00103273 1e-05 0.0292367 0.00103101 1e-05
0.0293876 0.00102925 1e-05 0.0295385 0.00102746 1e-05 0.0296894 0.00102567 1e-05 0.0298403
0.0010239 1e-05 0.0299924 0.00102216 1e-05 0.0301445 0.00102037 1e-05 0.0302966 0.00101856
1e-05 0.0304486 0.00101676 1e-05 0.0306007 0.00101497 1e-05 0.030754 0.0010132 1e-05
0.0309072 0.00101139 1e-05 0.0310605 0.00100957 1e-05 0.0312138 0.00100775 1e-05 0.031367
0.00100594 1e-05 0.0315215 0.00100415 1e-05 0.0316759 0.00100232 1e-05 0.0318304 0.00100049
1e-05 0.0319848 0.000998657 1e-05 0.0321393 0.000996828 1e-05 0.0322949 0.000995018 1e-05
0.0324506 0.000993173 1e-05 0.0326062 0.000991329 1e-05 0.0327619 0.000989486 1e-05 0.0329175
[...]
POINT_DATA 12025
FIELD attributes 4
age 1 12025 float
-9.99867e-06 -7.99876e-06 -5.99894e-06 -3.9992e-06 -1.99956e-06 0 2.96502e-05 5.92797e-05 8.88886e-05 0.000118477 0.000148045
0.000178313 0.000208559 0.000238781 0.000268979 0.000299151 0.000328088 0.000357011 0.000385917 0.000414805 0.000443675
0.000459064 0.000474449 0.00048983 0.000505206 0.000519202 0.00053177 0.000544334 0.000556896 0.000569454 0.00058201
0.000608534 0.000635046 0.000661546 0.000688032 0.000714505 0.000739906 0.000765299 0.000790679 0.000816049 0.000841406
0.000865734 0.00089006 0.000914376 0.000938683 0.000962981 0.000986291 0.0010096 0.00103291 0.00105621 0.0010795
0.00110184 0.00112419 0.00114653 0.00116886 0.00119119 0.00121262 0.00123404 0.00125547 0.00127689 0.0012983
0.00131885 0.0013394 0.00135995 0.00138049 0.00140104 0.00142075 0.00144046 0.00146017 0.00147989 0.00149959
0.0015185 0.00153742 0.00155633 0.00157524 0.00159415 0.00161229 0.00163043 0.00164857 0.00166671 0.00168485
0.00170226 0.00171966 0.00173706 0.00175446 0.00177186 0.00178857 0.00180526 0.00182196 0.00183865 0.00185534
0.00187137 0.00188739 0.00190341 0.00191943 0.00193545 0.00195083 0.00196621 0.00198158 0.00199695 0.00201233
0.0020226 0.00203286 0.00204313 0.00205339 0.00206366 0.00207401 0.00208436 0.0020947 0.00210504 0.00211539
0.00212583 0.00213625 0.00214668 0.00215711 0.00216754 0.00217805 0.00218856 0.00219907 0.00220958 0.00222009
0.00223069 0.00224128 0.00225187 0.00226246 0.00227305 0.00228374 0.00229441 0.00230509 0.00231577 0.00232644
0.00233721 0.00234798 0.00235874 0.0023695 0.00238027 0.00239112 0.00240197 0.00241283 0.00242368 0.00243453
0.00244548 0.00245642 0.00246736 0.00247831 0.00248925 0.00250029 0.00251133 0.00252236 0.0025334 0.00254444
0.00255558 0.00256671 0.00257784 0.00258898 0.00260011 0.00261135 0.00262258 0.00263381 0.00264505 0.00265628
0.00266762 0.00267895 0.00269029 0.00270163 0.00271298 0.00272442 0.00273586 0.00274731 0.00275876 0.00277021
0.00278177 0.00279333 0.00280489 0.00281645 0.00282803 0.0028397 0.00285138 0.00286306 0.00287475 0.00288644
0.00289824 0.00291004 0.00292186 0.00293367 0.0029455 0.00295719 0.00296889 0.00298059 0.00299231 0.00300413
0.00300435 0.00300457 0.00300479 0.00300502 0.00300524 0.00301731 0.00302939 0.00304148 0.00305358 0.00306569
0.00307792 0.00309015 0.00310239 0.00311465 0.00312691 0.00313932 0.00315171 0.00316411 0.00317652 0.00318895
0.00320153 0.00321408 0.00322665 0.00323923 0.00325183 0.00326459 0.00327732 0.00329007 0.00330282 0.0033156
0.00332855 0.00334146 0.00335439 0.00336733 0.00338029 0.00339343 0.00340653 0.00341965 0.00343278 0.00344593
0.00345928 0.00347257 0.00348589 0.00349922 0.00351257 0.00352612 0.00353961 0.00355313 0.00356667 0.00358022
0.00359398 0.00360769 0.00362142 0.00363516 0.00364893 0.0036629 0.00367683 0.00369077 0.00370474 0.00371872
0.00373291 0.00374706 0.00376122 0.00377541 0.00378963 0.00380404 0.00381842 0.00383281 0.00384723 0.00386168
0.00387632 0.00389094 0.00390557 0.00392022 0.00393491 0.00394978 0.00396464 0.00397951 0.0039944 0.00400933
0.00402444 0.00403954 0.00405465 0.00406978 0.00408496 0.00410031 0.00411566 0.00413102 0.0041464 0.00416183
0.00417742 0.00419302 0.00420863 0.00422427 0.00423995 0.00425579 0.00427165 0.00428752 0.00430341 0.00431935
0.00433544 0.00435155 0.00436768 0.00438384 0.00440003 0.00441638 0.00443276 0.00444915 0.00446557 0.00448203
0.00449864 0.00451527 0.00453193 0.00454862 0.00456534 0.00458221 0.00459912 0.00461605 0.004633 0.00464999
0.00466713 0.0046843 0.0047015 0.00471873 0.00473598 0.00475339 0.00477083 0.00478831 0.00480581 0.00482333
0.00484101 0.00485872 0.00487647 0.00489425 0.00491204 0.00492999 0.00494798 0.00496601 0.00498405 0.00500212
0.00502035 0.00503861 0.00505691 0.00507523 0.00509357 0.00511208 0.00513062 0.00514919 0.00516779 0.0051864
0.00520518 0.005224 0.00524284 0.00526171 0.0052806 0.00529965 0.00531875 0.00533787 0.00535701 0.00537618
0.0053955 0.00541487 0.00543427 0.00545368 0.00547312 0.00549272 0.00551237 0.00553203 0.00555172 0.00557143
0.0055913 0.00561122 0.00563115 0.00565111 0.00567109 0.00569124 0.00571143 0.00573163 0.00575186 0.00577211
0.00579253 0.00581298 0.00583346 0.00585395 0.00587447 0.00589516 0.00591588 0.00593662 0.00595739 0.00597817
0.00599068 0.0060032 0.00601572 0.00602826 0.00604066 0.00604917 0.00605768 0.0060662 0.00607471 0.00608323
0.00610447 0.00612572 0.006147 0.0061683 0.00618961 0.00621111 0.00623264 0.00625418 0.00627574 0.00629733
0.00631909 0.00634088 0.00636269 0.00638453 0.00640638 0.00642841 0.00645046 0.00647254 0.00649464 0.00651676
0.00653905 0.00656138 0.00658372 0.00660609 0.00662847 0.00665103 0.00667362 0.00669623 0.00671887 0.00674152
0.00676434 0.0067872 0.00681008 0.00683298 0.0068559 0.00687899 0.00690211 0.00692526 0.00694843 0.00697161
0.00699497 0.00701836 0.00704178 0.00706522 0.00708867 0.0071123 0.00713596 0.00715965 0.00718336 0.00720707
0.00723097 0.0072549 0.00727887 0.00730285 0.00732684 0.00735101 0.00737521 0.00739945 0.00742371 0.00744797
0.00747241 0.00749689 0.00752141 0.00754594 0.00757047 0.00759519 0.00761995 0.00764474 0.00766955 0.00769436
0.00771937 0.0077444 0.00776948 0.00779456 0.00781966 0.00784494 0.00787027 0.00789562 0.00792099 0.00794637
0.00797194 0.00799755 0.00802319 0.00804885 0.00807451 0.00810038 0.00812628 0.00815221 0.00817816 0.00820411
0.00823027 0.00825647 0.00828269 0.00830893 0.00833518 0.00836164 0.00838814 0.00841466 0.00844119 0.00846774
0.00849451 0.00852131 0.00854813 0.00857497 0.00860183 0.0086289 0.00865601 0.00868314 0.00871029 0.00873746
0.00876485 0.00879227 0.00881972 0.00884718 0.00887466 0.00890237 0.00893012 0.00895788 0.00898566 0.00901347
0.00903554 0.00905763 0.00907973 0.00910185 0.00912284 0.00912905 0.00913527 0.00914149 0.00914771 0.00915394
0.00918231 0.00921071 0.00923914 0.00926759 0.00929606 0.00932478 0.00935352 0.00938229 0.00941109 0.00943991
0.00946897 0.00949807 0.00952719 0.00955634 0.00958551 0.00961493 0.00964438 0.00967386 0.00970337 0.00973291
0.00976268 0.0097925 0.00982235 0.00985223 0.00988213 0.00991227 0.00994246 0.00997269 0.0100029 0.0100332
0.0100637 0.0100943 0.0101249 0.0101556 0.0101862 0.0102171 0.0102481 0.0102791 0.0103101 0.0103411
0.0103724 0.0104038 0.0104352 0.0104666 0.0104981 0.0105298 0.0105615 0.0105933 0.0106251 0.010657
0.0106891 0.0107213 0.0107535 0.0107857 0.010818 0.0108505 0.0108831 0.0109157 0.0109484 0.0109811
0.011014 0.011047 0.0110801 0.0111131 0.0111463 0.0111796 0.0112131 0.0112466 0.0112801 0.0113136
0.0113475 0.0113813 0.0114152 0.0114492 0.0114832 0.0114931 0.011503 0.0115129 0.0115229 0.0115326
0.0115571 0.0115815 0.011606 0.0116305 0.0116551 0.0116898 0.0117246 0.0117594 0.0117943 0.0118292
0.0118645 0.0118997 0.011935 0.0119704 0.0120058 0.0120415 0.0120773 0.0121131 0.0121489 0.0121848
0.012221 0.0122573 0.0122936 0.01233 0.0123664 0.0124031 0.0124399 0.0124767 0.0125136 0.0125505
0.0125877 0.012625 0.0126623 0.0126997 0.0127372 0.0127749 0.0128128 0.0128507 0.0128886 0.0129266
0.0129649 0.0130032 0.0130417 0.0130802 0.0131187 0.0131576 0.0131965 0.0132355 0.0132745 0.0133136
0.0133487 0.0133839 0.0134192 0.0134544 0.0134879 0.0134926 0.0134973 0.013502 0.0135067 0.0135114
0.0135514 0.0135915 0.0136317 0.0136719 0.0137121 0.0137527 0.0137934 0.0138341 0.0138749 0.0139158
0.013957 0.0139982 0.0140396 0.014081 0.0141224 0.0141642 0.0142061 0.0142481 0.0142901 0.0143322
0.0143746 0.0144171 0.0144597 0.0145024 0.0145451 0.0145882 0.0146314 0.0146746 0.0147179 0.0147613
0.014805 0.0148489 0.0148928 0.0149367 0.0149808 0.0150252 0.0150697 0.0151143 0.0151589 0.0152036
0.0152316 0.0152595 0.0152875 0.0153155 0.0153428 0.0153602 0.0153777 0.0153951 0.0154126 0.0154301
0.0154759 0.0155218 0.0155678 0.0156138 0.0156599 0.0157065 0.0157531 0.0157997 0.0158465 0.0158933
0.0159406 0.0159879 0.0160353 0.0160828 0.0161304 0.0161784 0.0162265 0.0162747 0.0163229 0.0163712
0.01642 0.0164689 0.0165178 0.0165668 0.0166159 0.0166655 0.0167151 0.0167649 0.0168147 0.0168646
0.016915 0.0169654 0.017016 0.0170666 0.0171174 0.0171399 0.0171624 0.0171849 0.0172074 0.0172297
0.0172586 0.0172875 0.0173165 0.0173455 0.0173745 0.0174266 0.0174787 0.017531 0.0175834 0.0176358
0.0176888 0.0177419 0.017795 0.0178483 0.0179016 0.0179556 0.0180096 0.0180636 0.0181178 0.0181721
0.018227 0.018282 0.018337 0.0183922 0.0184475 0.0185034 0.0185593 0.0186154 0.0186716 0.0187279
0.0187848 0.0188418 0.0188989 0.0189562 0.0190136 0.0190499 0.0190863 0.0191228 0.0191593 0.019195
0.0192169 0.0192389 0.0192609 0.0192829 0.0193049 0.019364 0.0194232 0.0194825 0.019542 0.0196017
0.0196619 0.0197223 0.0197829 0.0198435 0.0199044 0.0199659 0.0200275 0.0200892 0.0201511 0.0202132
0.020276 0.0203389 0.0204019 0.0204651 0.0205285 0.0205926 0.0206569 0.0207213 0.0207858 0.0208506
0.0209161 0.0209817 0.0210476 0.0211136 0.0211798 0.0211861 0.0211924 0.0211988 0.0212051 0.0212114
0.0212721 0.0213329 0.0213939 0.0214551 0.0215165 0.0215849 0.0216536 0.0217224 0.0217914 0.0218607
0.0219308 0.022001 0.0220715 0.0221422 0.0222131 0.0222848 0.0223568 0.0224289 0.0225013 0.022574
0.0226475 0.0227212 0.0227952 0.0228694 0.0229439 0.023004 0.0230643 0.0231248 0.0231855 0.0232436
0.0232596 0.0232755 0.0232915 0.0233075 0.0233235 0.0234008 0.0234783 0.0235562 0.0236343 0.0237127
0.0237921 0.0238717 0.0239516 0.0240318 0.0241124 0.0241939 0.0242757 0.0243578 0.0244402 0.0245231
0.0246068 0.0246909 0.0247754 0.0248602 0.0249454 0.0250131 0.0250811 0.0251493 0.0252177 0.0252832
0.0253026 0.025322 0.0253414 0.0253608 0.0253803 0.0254691 0.0255582 0.0256477 0.0257375 0.0258279
0.0259193 0.0260111 0.0261033 0.026196 0.0262891 0.0263833 0.026478 0.0265731 0.0266687 0.0267647
0.026862 0.0269597 0.0270579 0.0271565 0.0272557 0.0272734 0.027291 0.0273087 0.0273264 0.0273439
0.0274271 0.0275107 0.0275945 0.0276787 0.0277633 0.0278671 0.0279714 0.0280762 0.0281816 0.0282876
0.0283948 0.0285027 0.0286111 0.0287201 0.0288298 0.0289408 0.0290524 0.0291647 0.0292775 0.0293911
0.0294027 0.0294143 0.0294259 0.0294375 0.029449 0.0295527 0.0296569 0.0297617 0.0298669 0.0299728
0.0300918 0.0302116 0.030332 0.0304531 0.030575 0.0306984 0.0308225 0.0309473 0.0310728 0.0311992
0.0312844 0.03137 0.0314559 0.0315421 0.031626 0.0316701 0.0317142 0.0317584 0.0318027 0.0318471
0.0319797 0.032113 0.0322472 0.032382 0.0325178 0.0326551 0.0327933 0.0329323 0.0330721 0.0332127
0.0333504 0.0334891 0.0336284 0.0337684 0.0339047 0.0339103 0.0339159 0.0339215 0.0339271 0.0339327
0.0340802 0.0342284 0.0343775 0.0345273 0.034678 0.0348304 0.0349838 0.035138 0.035293 0.0354488
0.0356065 0.035765 0.0359244 0.0360846 0.0362456 0.036259 0.0362725 0.0362859 0.0362994 0.0363128
0.0364627 0.0366133 0.0367646 0.0369166 0.0370693 0.0372376 0.0374068 0.0375769 0.0377478 0.0379195
0.0380932 0.0382679 0.0384434 0.0386197 0.0387968 0.0387999 0.038803 0.0388061 0.0388092 0.0388123
0.0389886 0.0391656 0.0393434 0.0395219 0.0397012 0.0398858 0.0400712 0.0402576 0.0404447 0.0406324
0.0407982 0.0409647 0.0411318 0.0412995 0.0414696 0.0414937 0.0415178 0.041542 0.0415661 0.0415903
0.0417855 0.0419815 0.0421782 0.0423756 0.0425736 0.0427737 0.0429747 0.0431764 0.0433788 0.0435816
0.0437298 0.0438785 0.0440275 0.0441768 0.0443301 0.0443867 0.0444434 0.0445001 0.0445568 0.0446136
0.0448231 0.0450333 0.0452441 0.0454554 0.0456669 0.0458805 0.0460947 0.0463096 0.0465248 0.0467401
0.0468847 0.0470296 0.0471747 0.0473199 0.0474723 0.047544 0.0476157 0.0476874 0.0477592 0.047831
0.0480515 0.0482723 0.0484935 0.0487149 0.048936 0.0491593 0.049383 0.0496071 0.0498311 0.0500543
0.0501823 0.0503104 0.0504385 0.0505666 0.0507001 0.050787 0.0508739 0.0509608 0.0510477 0.0511346
0.0513587 0.0515826 0.0518063 0.0520297 0.0522523 0.0524382 0.052624 0.0528097 0.052995 0.0531966
0.053238 0.0532794 0.0533208 0.0533622 0.0534035 0.0536412 0.0538784 0.0541151 0.0543511 0.0545858
0.054829 0.0550715 0.0553132 0.0555539 0.055793 0.0558082 0.0558234 0.0558386 0.0558537 0.0558691
0.0561012 0.0563324 0.0565625 0.0567916 0.0570191 0.0572698 0.0575192 0.0577672 0.0580138 0.0582583
0.0583654 0.0584723 0.0585789 0.0586851 0.0588007 0.058942 0.0590827 0.0592228 0.0593624 0.0595013
0.0597543 0.0600055 0.0602547 0.0605019 0.0607468 0.0609992 0.0612494 0.0614975 0.0617434 0.0619869
0.0620127 0.0620384 0.0620642 0.0620899 0.0621163 0.06234 0.0625618 0.0627816 0.0629996 0.0632157
0.0634638 0.0637095 0.0639527 0.0641935 0.0644317 0.0646766 0.064919 0.0651587 0.0653959 0.0656305
0.0657094 0.065788 0.0658663 0.0659444 0.06603 0.0661877 0.0663442 0.0664995 0.0666538 0.0668069
0.0670438 0.0672781 0.0675097 0.0677386 0.0679651 0.0681976 0.0684274 0.0686545 0.068879 0.0691011
0.069329 0.0695542 0.0697767 0.0699966 0.0702141 0.0703665 0.0705175 0.0706674 0.070816 0.0709992
0.07106 0.0711207 0.0711811 0.0712413 0.0713013 0.0715198 0.0717356 0.0719488 0.0721595 0.0723678
0.0725817 0.0727929 0.0730016 0.0732078 0.0734115 0.0736206 0.073827 0.0740308 0.0742321 0.0744314
0.0746361 0.0748384 0.0750384 0.0752357 0.0754304 0.0756298 0.0758263 0.0760203 0.0762122 0.0764023
0.0765982 0.0767922 0.0769829 0.0771705 0.0773551 0.0774582 0.0775602 0.0776618 0.0777628 0.0778273
0.0779171 0.0780064 0.078095 0.0781832 0.0782707 -9.9999e-06 -7.99991e-06 -5.99992e-06 -3.99994e-06 -1.99997e-06
0 2.96563e-05 5.93111e-05 8.89635e-05 0.000118613 0.000148258 0.000178633 0.000209003 0.000239367 0.000269725
0.000300077 0.000329207 0.000358331 0.000387447 0.000416556 0.000445659 0.000473591 0.000501517 0.000529436 0.000557349
0.000585255 0.00061204 0.000638819 0.000665592 0.000692359 0.00071912 0.000744806 0.000770487 0.000796162 0.000821831
0.000847495 0.000872128 0.000896757 0.00092138 0.000945998 0.000970611 0.000994236 0.00101786 0.00104147 0.00106508
0.00108869 0.00111135 0.00113401 0.00115666 0.00117931 0.00120195 0.00122369 0.00124542 0.00126715 0.00128888
0.0013106 0.00133146 0.00135231 0.00137315 0.001394 0.00141484 0.00143484 0.00145485 0.00147485 0.00149484
0.00151484 0.00153403 0.00155322 0.00157241 0.0015916 0.00161078 0.0016292 0.00164761 0.00166602 0.00168443
0.00170284 0.00172051 0.00173818 0.00175584 0.00177351 0.00179117 0.00180813 0.00182508 0.00184203 0.00185898
0.00187593 0.0018922 0.00190847 0.00192474 0.001941 0.00195727 0.00197288 0.00198849 0.00200411 0.00201972
0.00203533 0.00204575 0.00205617 0.00206659 0.00207701 0.00208743 0.00209793 0.00210844 0.00211894 0.00212944
0.00213994 0.00215052 0.0021611 0.00217168 0.00218226 0.00219284 0.0022035 0.00221416 0.00222482 0.00223549
0.00224615 0.00225689 0.00226763 0.00227838 0.00228912 0.00229986 0.00231069 0.00232152 0.00233234 0.00234317
0.002354 0.00236491 0.00237582 0.00238673 0.00239764 0.00240855 0.00241954 0.00243054 0.00244153 0.00245252
0.00246352 0.0024746 0.00248568 0.00249676 0.00250784 0.00251892 0.00253009 0.00254125 0.00255242 0.00256358
0.00257475 0.002586 0.00259726 0.00260851 0.00261976 0.00263102 0.00264236 0.0026537 0.00266504 0.00267638
0.00268772 0.00269915 0.00271058 0.00272201 0.00273344 0.00274487 0.00275638 0.0027679 0.00277942 0.00279094
0.00280246 0.00281406 0.00282567 0.00283728 0.00284888 0.00286049 0.00287219 0.00288389 0.00289558 0.00290728
0.00291898 0.00293076 0.00294255 0.00295434 0.00296612 0.00297791 0.00298979 0.00300166 0.00301354 0.00302542
0.00303729 0.00304926 0.00306123 0.0030732 0.00308517 0.00309713 0.00310919 0.00312125 0.00313331 0.00314537
0.00315743 0.00316958 0.00318173 0.00319388 0.00320603 0.00321818 0.00323042 0.00324267 0.00325491 0.00326715
0.00327939 0.00329173 0.00330406 0.0033164 0.00332873 0.00334107 0.0033535 0.00336593 0.00337835 0.00339078
0.00340321 0.00341573 0.00342825 0.00344078 0.0034533 0.00346582 0.00347844 0.00349105 0.00350367 0.00351629
0.0035289 0.00354162 0.00355433 0.00356704 0.00357975 0.00359246 0.00360527 0.00361808 0.00363089 0.0036437
0.00365651 0.00366941 0.00368232 0.00369522 0.00370813 0.00372103 0.00372962 0.00373821 0.0037468 0.00375539
0.00376391 0.00376834 0.00377277 0.0037772 0.00378163 0.00378606 0.00379916 0.00381226 0.00382537 0.00383847
0.00385157 0.00386478 0.00387798 0.00389119 0.00390439 0.00391759 0.0039309 0.0039442 0.00395751 0.00397082
0.00398412 0.00399753 0.00401094 0.00402434 0.00403775 0.00405116 0.00406467 0.00407818 0.0040917 0.00410521
0.00411872 0.00413234 0.00414595 0.00415957 0.00417319 0.0041868 0.00420053 0.00421425 0.00422797 0.00424169
0.00425541 0.00426924 0.00428307 0.0042969 0.00431073 0.00432456 0.00433849 0.00435243 0.00436637 0.0043803
0.00439424 0.00440829 0.00442233 0.00443638 0.00445042 0.00446446 0.00447862 0.00449277 0.00450693 0.00452108
0.00453523 0.0045495 0.00456376 0.00457803 0.00459229 0.00460655 0.00462093 0.0046353 0.00464968 0.00466405
0.00467843 0.00469291 0.0047074 0.00472188 0.00473637 0.00475085 0.00476545 0.00478005 0.00479465 0.00480925
0.00482384 0.00483855 0.00485326 0.00486797 0.00488268 0.00489739 0.00491222 0.00492704 0.00494187 0.00495669
0.00497151 0.00498645 0.00500139 0.00501632 0.00503126 0.0050462 0.00506125 0.0050763 0.00509135 0.0051064
0.00512145 0.00513662 0.00515179 0.00516696 0.00518212 0.00519729 0.00521257 0.00522785 0.00524314 0.00525842
0.0052737 0.0052891 0.0053045 0.0053199 0.00533529 0.00535069 0.00536621 0.00538173 0.00539724 0.00541276
0.00542827 0.00544391 0.00545954 0.00547518 0.00549081 0.00550644 0.0055222 0.00553795 0.0055537 0.00556945
0.00558521 0.00560108 0.00561695 0.00563283 0.0056487 0.00566457 0.00568057 0.00569656 0.00571256 0.00572855
0.00574454 0.00576066 0.00577678 0.0057929 0.00580901 0.00582513 0.00584137 0.00585761 0.00587385 0.00589009
0.00590633 0.00591571 0.00592509 0.00593447 0.00594384 0.00595315 0.00596015 0.00596715 0.00597415 0.00598116
0.00598816 0.00600465 0.00602114 0.00603764 0.00605413 0.00607062 0.00608724 0.00610386 0.00612049 0.00613711
0.00615373 0.00617048 0.00618723 0.00620398 0.00622073 0.00623749 0.00625438 0.00627126 0.00628814 0.00630502
0.00632191 0.00633894 0.00635595 0.00637297 0.00638999 0.006407 0.00642417 0.00644132 0.00645848 0.00647563
0.00649278 0.0065101 0.00652739 0.00654468 0.00656197 0.00657927 0.00659673 0.00661417 0.0066316 0.00664903
0.00666647 0.00668408 0.00670167 0.00671924 0.00673681 0.00675441 0.00677217 0.00678991 0.00680762 0.00682534
0.00684309 0.00686101 0.0068789 0.00689676 0.00691463 0.00693253 0.00695061 0.00696866 0.00698668 0.00700471
0.00702277 0.00704101 0.00705922 0.0070774 0.00709558 0.00711381 0.00713222 0.00715059 0.00716894 0.00718729
0.00720568 0.00722425 0.0072428 0.00726131 0.00727983 0.00729839 0.00731714 0.00733586 0.00735454 0.00737324
0.00739197 0.0074109 0.00742979 0.00744866 0.00746754 0.00748646 0.00750556 0.00752464 0.0075437 0.00756277
0.00758186 0.00760116 0.00762041 0.00763967 0.00765893 0.00767822 0.0076977 0.00771714 0.0077366 0.00775606
0.00777554 0.00779521 0.00781486 0.00783452 0.00785419 0.00787387 0.00789374 0.0079136 0.00793346 0.00795334
0.00797323 0.00799331 0.00801337 0.00803345 0.00805355 0.00807365 0.00808313 0.0080926 0.00810208 0.00811156
0.00812086 0.00813172 0.00814257 0.00815343 0.0081643 0.00817517 0.00819567 0.00821618 0.00823671 0.00825725
0.0082778 0.00829854 0.00831928 0.00834004 0.00836081 0.00838159 0.00840258 0.00842355 0.00844454 0.00846555
0.00848657 0.00850781 0.00852902 0.00855025 0.0085715 0.00859277 0.00861426 0.00863574 0.00865721 0.0086787
0.00870023 0.00872199 0.00874372 0.00876545 0.00878718 0.00880898 0.008831 0.00885301 0.00887498 0.00889698
0.00891904 0.00894134 0.00896361 0.00898586 0.00900813 0.00903047 0.00905304 0.00907559 0.00909812 0.00912067
0.00914329 0.00916614 0.00918898 0.00921179 0.00923462 0.00925752 0.00928066 0.00930378 0.00932689 0.00935003
0.00937322 0.00939665 0.00942007 0.00944349 0.00946693 0.00949042 0.00951415 0.00953786 0.0095616 0.00958536
0.00960914 0.00963318 0.00965721 0.00968126 0.00970534 0.00972945 0.00975379 0.00977814 0.00980252 0.00982693
0.00985137 0.00986066 0.00986995 0.00987925 0.00988855 0.0098977 0.00991313 0.00992857 0.00994402 0.00995949