/*--------------------------------*- C++ -*----------------------------------*\
  =========                 |
  \\      /  F ield         | OpenFOAM: The Open Source CFD Toolbox
   \\    /   O peration     | Website:  https://openfoam.org
    \\  /    A nd           | Version:  13
     \\/     M anipulation  |
\*---------------------------------------------------------------------------*/
FoamFile
{
    format      ascii;
    class       volScalarField;
    location    "3.5";
    object      nut;
}
// * * * * * * * * * * * * * * * * * * * * * * * * * * * * * * * * * * * * * //

dimensions      [0 2 -1 0 0 0 0];

internalField   nonuniform List<scalar> 
1600
(
9.8e-09
4.06032e-08
8.52995e-08
1.05162e-07
1.11521e-07
1.20659e-07
1.42119e-07
1.74578e-07
2.07436e-07
2.42194e-07
3.20238e-07
4.51786e-07
5.60311e-07
6.45958e-07
7.60627e-07
9.04854e-07
1.06192e-06
1.22094e-06
1.39371e-06
1.57369e-06
1.77209e-06
1.98716e-06
2.23082e-06
2.50862e-06
2.84187e-06
3.19874e-06
3.52058e-06
3.82522e-06
4.06541e-06
4.19931e-06
4.24826e-06
4.1012e-06
3.68057e-06
2.99007e-06
2.11866e-06
1.21961e-06
5.59047e-07
2.23447e-07
7.00474e-08
1.4359e-08
4.52709e-08
1.36059e-06
4.1092e-06
5.50733e-06
5.9618e-06
5.89663e-06
5.91956e-06
5.87447e-06
5.58835e-06
5.3245e-06
5.80744e-06
6.99077e-06
8.12549e-06
8.92519e-06
9.94899e-06
1.12739e-05
1.28584e-05
1.43511e-05
1.59764e-05
1.75293e-05
1.9104e-05
2.05918e-05
2.20915e-05
2.34108e-05
2.43917e-05
2.51597e-05
2.5966e-05
2.65268e-05
2.67974e-05
2.65035e-05
2.62499e-05
2.43594e-05
2.19044e-05
1.83784e-05
1.37696e-05
9.22677e-06
4.57119e-06
1.8905e-06
6.91215e-07
3.29825e-08
1.20758e-07
3.40086e-06
9.02234e-06
1.17759e-05
1.27408e-05
1.33501e-05
1.42736e-05
1.48506e-05
1.51621e-05
1.54765e-05
1.56046e-05
1.53508e-05
1.57236e-05
1.6167e-05
1.78717e-05
2.00211e-05
2.21383e-05
2.42655e-05
2.63784e-05
2.84626e-05
3.03041e-05
3.19567e-05
3.3171e-05
3.40665e-05
3.46975e-05
3.51311e-05
3.53082e-05
3.51387e-05
3.45237e-05
3.3064e-05
3.10963e-05
2.92127e-05
2.525e-05
2.11505e-05
1.47747e-05
9.39789e-06
4.35675e-06
2.22927e-06
8.65886e-07
2.99566e-08
2.62083e-07
6.75968e-06
1.42841e-05
1.71631e-05
1.80931e-05
1.88944e-05
1.97856e-05
2.00588e-05
2.00207e-05
1.84711e-05
1.7458e-05
1.87091e-05
2.0839e-05
2.33071e-05
2.63676e-05
2.87272e-05
3.11679e-05
3.33217e-05
3.54425e-05
3.69e-05
3.81811e-05
3.90066e-05
3.9549e-05
3.98543e-05
3.99636e-05
3.98179e-05
3.93671e-05
3.86028e-05
3.74708e-05
3.57804e-05
3.35555e-05
3.11686e-05
2.73373e-05
2.36053e-05
1.8609e-05
1.17102e-05
4.43232e-06
1.82258e-06
7.13445e-07
2.34963e-08
4.91447e-07
1.14303e-05
1.9687e-05
2.18769e-05
2.24317e-05
2.30889e-05
2.3004e-05
2.27061e-05
2.06752e-05
2.01324e-05
2.25788e-05
2.50125e-05
2.78468e-05
3.07213e-05
3.36231e-05
3.59862e-05
3.8482e-05
4.02756e-05
4.18138e-05
4.2853e-05
4.36658e-05
4.41635e-05
4.44614e-05
4.44642e-05
4.42386e-05
4.37537e-05
4.30021e-05
4.19079e-05
4.04107e-05
3.84287e-05
3.59904e-05
3.3506e-05
2.99357e-05
2.58531e-05
2.14878e-05
1.61393e-05
8.7096e-06
2.58677e-06
6.95196e-07
2.70286e-08
8.38918e-07
1.62964e-05
2.46811e-05
2.59736e-05
2.59526e-05
2.55146e-05
2.51119e-05
2.31188e-05
2.25044e-05
2.51702e-05
2.82447e-05
3.12239e-05
3.40857e-05
3.69519e-05
3.9807e-05
4.2261e-05
4.42427e-05
4.5787e-05
4.70332e-05
4.7924e-05
4.85769e-05
4.89512e-05
4.91128e-05
4.9056e-05
4.88567e-05
4.85667e-05
4.81786e-05
4.76258e-05
4.66822e-05
4.46657e-05
4.19935e-05
3.92896e-05
3.56977e-05
3.04983e-05
2.44756e-05
1.88582e-05
1.23456e-05
3.85401e-06
9.66015e-07
4.65266e-08
1.29001e-06
2.04147e-05
2.89243e-05
2.9261e-05
2.81142e-05
2.74938e-05
2.53827e-05
2.44135e-05
2.70134e-05
3.05254e-05
3.3682e-05
3.63145e-05
3.9239e-05
4.25481e-05
4.50785e-05
4.71667e-05
4.88448e-05
5.01696e-05
5.12257e-05
5.20247e-05
5.25872e-05
5.29017e-05
5.29872e-05
5.28336e-05
5.25019e-05
5.20453e-05
5.14891e-05
5.08772e-05
5.02846e-05
4.9632e-05
4.76405e-05
4.42902e-05
4.17151e-05
3.76647e-05
3.12052e-05
2.27895e-05
1.4899e-05
7.34072e-06
1.56536e-06
9.73168e-08
1.78696e-06
2.40845e-05
3.19768e-05
3.13328e-05
3.03296e-05
2.77644e-05
2.62901e-05
2.80611e-05
3.18844e-05
3.52677e-05
3.77056e-05
4.07571e-05
4.41733e-05
4.70275e-05
4.91343e-05
5.10058e-05
5.26171e-05
5.40749e-05
5.52272e-05
5.60313e-05
5.64832e-05
5.66073e-05
5.64831e-05
5.62165e-05
5.58182e-05
5.52979e-05
5.46956e-05
5.40195e-05
5.32343e-05
5.23456e-05
5.15698e-05
4.92088e-05
4.50944e-05
4.22237e-05
3.75034e-05
2.9692e-05
1.95021e-05
9.31557e-06
2.03454e-06
2.08794e-07
2.22922e-06
2.65826e-05
3.37355e-05
3.34407e-05
3.07663e-05
2.85232e-05
2.85533e-05
3.2439e-05
3.61028e-05
3.8864e-05
4.15462e-05
4.494e-05
4.81344e-05
5.05582e-05
5.28322e-05
5.49827e-05
5.67911e-05
5.81811e-05
5.90336e-05
5.96104e-05
5.9917e-05
6.00076e-05
5.98911e-05
5.95518e-05
5.90193e-05
5.834e-05
5.75775e-05
5.6789e-05
5.59998e-05
5.5161e-05
5.41071e-05
5.29911e-05
4.98216e-05
4.57788e-05
4.23138e-05
3.56143e-05
2.54397e-05
1.39499e-05
3.47618e-06
5.51715e-07
2.58126e-06
2.82487e-05
3.56727e-05
3.5263e-05
3.15145e-05
2.98179e-05
3.23352e-05
3.62494e-05
3.95143e-05
4.18448e-05
4.5043e-05
4.84683e-05
5.16197e-05
5.43563e-05
5.67711e-05
5.88015e-05
6.02964e-05
6.1453e-05
6.2353e-05
6.31377e-05
6.36143e-05
6.37896e-05
6.36737e-05
6.32517e-05
6.25495e-05
6.16201e-05
6.05471e-05
5.94372e-05
5.83947e-05
5.74749e-05
5.66179e-05
5.55762e-05
5.37792e-05
4.92044e-05
4.62309e-05
4.09863e-05
3.07215e-05
1.78632e-05
5.95858e-06
1.14155e-06
2.81062e-06
2.92112e-05
3.69358e-05
3.58372e-05
3.25307e-05
3.19568e-05
3.57127e-05
3.93478e-05
4.21499e-05
4.47775e-05
4.84243e-05
5.19744e-05
5.51554e-05
5.78446e-05
5.99923e-05
6.18684e-05
6.35429e-05
6.49955e-05
6.61209e-05
6.69707e-05
6.77933e-05
6.80665e-05
6.79889e-05
6.75136e-05
6.66518e-05
6.54433e-05
6.39723e-05
6.23729e-05
6.08154e-05
5.94619e-05
5.83869e-05
5.74838e-05
5.63924e-05
5.35356e-05
4.89522e-05
4.53987e-05
3.64404e-05
2.2815e-05
7.8396e-06
1.76808e-06
2.95094e-06
2.9794e-05
3.81575e-05
3.67849e-05
3.35797e-05
3.4809e-05
3.85029e-05
4.19083e-05
4.45372e-05
4.77588e-05
5.16355e-05
5.51776e-05
5.81179e-05
6.05594e-05
6.28653e-05
6.50819e-05
6.70246e-05
6.88133e-05
7.0219e-05
7.12185e-05
7.22385e-05
7.26859e-05
7.26698e-05
7.2187e-05
7.12239e-05
6.97944e-05
6.79591e-05
6.58472e-05
6.36655e-05
6.16711e-05
6.00846e-05
5.89479e-05
5.79712e-05
5.62648e-05
5.15261e-05
4.84366e-05
4.09711e-05
2.73301e-05
1.07773e-05
2.3614e-06
2.95369e-06
2.97848e-05
3.84957e-05
3.76575e-05
3.4972e-05
3.72345e-05
4.08195e-05
4.41522e-05
4.68019e-05
5.04655e-05
5.43856e-05
5.77181e-05
6.05429e-05
6.32617e-05
6.59201e-05
6.83979e-05
7.06503e-05
7.27216e-05
7.44379e-05
7.55517e-05
7.66611e-05
7.72714e-05
7.73215e-05
7.68702e-05
7.58853e-05
7.43488e-05
7.22771e-05
6.97562e-05
6.69784e-05
6.42539e-05
6.19529e-05
6.03523e-05
5.94208e-05
5.86301e-05
5.50313e-05
5.07788e-05
4.50573e-05
3.16728e-05
1.3158e-05
2.87746e-06
2.91772e-06
2.96151e-05
3.89738e-05
3.8372e-05
3.64508e-05
3.91847e-05
4.27582e-05
4.60638e-05
4.89117e-05
5.28154e-05
5.66757e-05
5.98861e-05
6.29468e-05
6.60258e-05
6.89623e-05
7.17195e-05
7.42395e-05
7.65e-05
7.84526e-05
7.9628e-05
8.07047e-05
8.14119e-05
8.15074e-05
8.11047e-05
8.01692e-05
7.86556e-05
7.65289e-05
7.38039e-05
7.06031e-05
6.72119e-05
6.40764e-05
6.16692e-05
6.02186e-05
5.94493e-05
5.74925e-05
5.25624e-05
4.82277e-05
3.55417e-05
1.58852e-05
3.39884e-06
2.82938e-06
2.91668e-05
3.90255e-05
3.89553e-05
3.78137e-05
4.07595e-05
4.43762e-05
4.7718e-05
5.08157e-05
5.48645e-05
5.85789e-05
6.19097e-05
6.53541e-05
6.86946e-05
7.18954e-05
7.48877e-05
7.75922e-05
7.9936e-05
8.19201e-05
8.31876e-05
8.4083e-05
8.47947e-05
8.48891e-05
8.45235e-05
8.36785e-05
8.2295e-05
8.02941e-05
7.76111e-05
7.42625e-05
7.04413e-05
6.65899e-05
6.33361e-05
6.11815e-05
6.00305e-05
5.8857e-05
5.43868e-05
5.07188e-05
3.90276e-05
1.82017e-05
3.88502e-06
2.67768e-06
2.84515e-05
3.87999e-05
3.93734e-05
3.90012e-05
4.20237e-05
4.57138e-05
4.91541e-05
5.24713e-05
5.65871e-05
6.0271e-05
6.38928e-05
6.75966e-05
7.11776e-05
7.45888e-05
7.77355e-05
8.05208e-05
8.28651e-05
8.47189e-05
8.59956e-05
8.66625e-05
8.726e-05
8.72897e-05
8.69236e-05
8.61721e-05
8.4981e-05
8.32443e-05
8.08264e-05
7.76222e-05
7.36739e-05
6.93216e-05
6.52687e-05
6.23495e-05
6.09504e-05
6.04338e-05
5.63032e-05
5.24748e-05
4.18658e-05
2.06988e-05
4.38597e-06
2.49625e-06
2.7597e-05
3.83449e-05
3.96582e-05
3.99136e-05
4.30183e-05
4.68101e-05
5.03668e-05
5.39045e-05
5.80155e-05
6.17941e-05
6.57089e-05
6.96058e-05
7.33738e-05
7.6923e-05
8.01381e-05
8.29113e-05
8.51628e-05
8.68504e-05
8.79326e-05
8.84691e-05
8.87899e-05
8.86978e-05
8.82792e-05
8.75931e-05
8.66079e-05
8.52128e-05
8.32241e-05
8.04252e-05
7.66777e-05
7.2122e-05
6.73815e-05
6.34881e-05
6.12671e-05
6.05309e-05
5.8189e-05
5.37942e-05
4.42382e-05
2.29107e-05
4.87014e-06
2.28659e-06
2.66377e-05
3.77115e-05
3.979e-05
4.05832e-05
4.37737e-05
4.76764e-05
5.13613e-05
5.50863e-05
5.92006e-05
6.31495e-05
6.72588e-05
7.13065e-05
7.51965e-05
7.88116e-05
8.20226e-05
8.47169e-05
8.68177e-05
8.82948e-05
8.91691e-05
8.94682e-05
8.95205e-05
8.9239e-05
8.87165e-05
8.80512e-05
8.72459e-05
8.62066e-05
8.47311e-05
8.25222e-05
7.92716e-05
7.48718e-05
6.97451e-05
6.50033e-05
6.19027e-05
6.06549e-05
5.94156e-05
5.46112e-05
4.63102e-05
2.51503e-05
5.37096e-06
2.07024e-06
2.56056e-05
3.69186e-05
3.97492e-05
4.10327e-05
4.43019e-05
4.83074e-05
5.21317e-05
5.60126e-05
6.01578e-05
6.42638e-05
6.84919e-05
7.26358e-05
7.65849e-05
8.0206e-05
8.33629e-05
8.59425e-05
8.7874e-05
8.91406e-05
8.97886e-05
8.98117e-05
8.96145e-05
8.91209e-05
8.84619e-05
8.77749e-05
8.71025e-05
8.63824e-05
8.54226e-05
8.38865e-05
8.13334e-05
7.73991e-05
7.21939e-05
6.67369e-05
6.26868e-05
6.0917e-05
6.00067e-05
5.54316e-05
4.80154e-05
2.71506e-05
5.86199e-06
1.83717e-06
2.45891e-05
3.60298e-05
3.95581e-05
4.13151e-05
4.46303e-05
4.87155e-05
5.26782e-05
5.66811e-05
6.08683e-05
6.50829e-05
6.93685e-05
7.35518e-05
7.75059e-05
8.10895e-05
8.41649e-05
8.66209e-05
8.83916e-05
8.94674e-05
8.99012e-05
8.97291e-05
8.92292e-05
8.85811e-05
8.77774e-05
8.70434e-05
8.64554e-05
8.59894e-05
8.54859e-05
8.46088e-05
8.28422e-05
7.96053e-05
7.46414e-05
6.86886e-05
6.36465e-05
6.12067e-05
6.0687e-05
5.62267e-05
4.94731e-05
2.91437e-05
6.36698e-06
1.65281e-06
2.32469e-05
3.50189e-05
3.92149e-05
4.13725e-05
4.47485e-05
4.88631e-05
5.29618e-05
5.70779e-05
6.13101e-05
6.55769e-05
6.98636e-05
7.40341e-05
7.79501e-05
8.14681e-05
8.44524e-05
8.67952e-05
8.84328e-05
8.93572e-05
8.96205e-05
8.93199e-05
8.85993e-05
8.78019e-05
8.68945e-05
8.61148e-05
8.55763e-05
8.5295e-05
8.51559e-05
8.48537e-05
8.38553e-05
8.14355e-05
7.69798e-05
7.0792e-05
6.47585e-05
6.13221e-05
6.06699e-05
5.70799e-05
5.06453e-05
3.09759e-05
6.8642e-06
1.49596e-06
2.17421e-05
3.37398e-05
3.88113e-05
4.13694e-05
4.4715e-05
4.88439e-05
5.30306e-05
5.71956e-05
6.14505e-05
6.57104e-05
6.99779e-05
7.40865e-05
7.79281e-05
8.13625e-05
8.42573e-05
8.65072e-05
8.80491e-05
8.88743e-05
8.90341e-05
8.86364e-05
8.78524e-05
8.69091e-05
8.59797e-05
8.51731e-05
8.4668e-05
8.45165e-05
8.46506e-05
8.48078e-05
8.44818e-05
8.28862e-05
7.91241e-05
7.29871e-05
6.61035e-05
6.15341e-05
6.03412e-05
5.78801e-05
5.17259e-05
3.27381e-05
7.36948e-06
1.35675e-06
2.02079e-05
3.21414e-05
3.81991e-05
4.09767e-05
4.43465e-05
4.85517e-05
5.28454e-05
5.70352e-05
6.12844e-05
6.5489e-05
6.97128e-05
7.37277e-05
7.74643e-05
8.08024e-05
8.36116e-05
8.57864e-05
8.72656e-05
8.80437e-05
8.81729e-05
8.77592e-05
8.6953e-05
8.59148e-05
8.50232e-05
8.41718e-05
8.36549e-05
8.36381e-05
8.40229e-05
8.45739e-05
8.48398e-05
8.40702e-05
8.11731e-05
7.51484e-05
6.76204e-05
6.19166e-05
5.99854e-05
5.84178e-05
5.27137e-05
3.43499e-05
7.86563e-06
1.22884e-06
1.86304e-05
3.04397e-05
3.73125e-05
4.07356e-05
4.40746e-05
4.79643e-05
5.24001e-05
5.66484e-05
6.07855e-05
6.49129e-05
6.90663e-05
7.2977e-05
7.65901e-05
7.98201e-05
8.25219e-05
8.45972e-05
8.60267e-05
8.68131e-05
8.70022e-05
8.66798e-05
8.59679e-05
8.50059e-05
8.42737e-05
8.34612e-05
8.29107e-05
8.3035e-05
8.36119e-05
8.44232e-05
8.50559e-05
8.48087e-05
8.26328e-05
7.71836e-05
6.91635e-05
6.24381e-05
5.97095e-05
5.86716e-05
5.36003e-05
3.58936e-05
8.36217e-06
1.10883e-06
1.7045e-05
2.8606e-05
3.59989e-05
4.03729e-05
4.35999e-05
4.75438e-05
5.15786e-05
5.59683e-05
6.0059e-05
6.40456e-05
6.80754e-05
7.18745e-05
7.53327e-05
7.83716e-05
8.09749e-05
8.30936e-05
8.46147e-05
8.55177e-05
8.58327e-05
8.56117e-05
8.49605e-05
8.40301e-05
8.34453e-05
8.28198e-05
8.24325e-05
8.26807e-05
8.33812e-05
8.4342e-05
8.51714e-05
8.52021e-05
8.3432e-05
7.89736e-05
7.06059e-05
6.29666e-05
5.95033e-05
5.8647e-05
5.43203e-05
3.7391e-05
8.8452e-06
9.94274e-07
1.54745e-05
2.67577e-05
3.44691e-05
3.97162e-05
4.29534e-05
4.68292e-05
5.08288e-05
5.48422e-05
5.89676e-05
6.29203e-05
6.67804e-05
7.0375e-05
7.36507e-05
7.66752e-05
7.92946e-05
8.14142e-05
8.29628e-05
8.3944e-05
8.43275e-05
8.41959e-05
8.36854e-05
8.28893e-05
8.24359e-05
8.19396e-05
8.16432e-05
8.2015e-05
8.28848e-05
8.40642e-05
8.51847e-05
8.56516e-05
8.44732e-05
8.00727e-05
7.18578e-05
6.34053e-05
5.9269e-05
5.85813e-05
5.4911e-05
3.88429e-05
9.31794e-06
8.84363e-07
1.39546e-05
2.49723e-05
3.27827e-05
3.89118e-05
4.22188e-05
4.58306e-05
5.00265e-05
5.38191e-05
5.75858e-05
6.13436e-05
6.50371e-05
6.85512e-05
7.18023e-05
7.47331e-05
7.72525e-05
7.93053e-05
8.08823e-05
8.19061e-05
8.24123e-05
8.24754e-05
8.21808e-05
8.15674e-05
8.12517e-05
8.09209e-05
8.07864e-05
8.13064e-05
8.23467e-05
8.3707e-05
8.49975e-05
8.56448e-05
8.47902e-05
8.10114e-05
7.29108e-05
6.36824e-05
5.87874e-05
5.82241e-05
5.53174e-05
4.02179e-05
9.76943e-06
7.78274e-07
1.25001e-05
2.31057e-05
3.09896e-05
3.74863e-05
4.142e-05
4.48859e-05
4.88035e-05
5.28816e-05
5.64442e-05
5.98228e-05
6.32466e-05
6.65842e-05
6.9692e-05
7.24662e-05
7.49011e-05
7.69387e-05
7.85405e-05
7.96363e-05
8.02855e-05
8.05235e-05
8.04381e-05
8.00463e-05
7.98675e-05
7.97173e-05
7.97815e-05
8.04576e-05
8.16535e-05
8.31564e-05
8.4549e-05
8.52611e-05
8.45419e-05
8.11842e-05
7.3236e-05
6.3705e-05
5.80047e-05
5.76405e-05
5.55771e-05
4.15089e-05
1.02013e-05
6.76546e-07
1.11414e-05
2.13819e-05
2.91945e-05
3.57691e-05
4.04537e-05
4.38919e-05
4.7477e-05
5.14546e-05
5.52757e-05
5.86882e-05
6.18005e-05
6.47767e-05
6.7577e-05
7.01729e-05
7.25059e-05
7.45031e-05
7.60307e-05
7.71883e-05
7.79467e-05
7.83461e-05
7.84614e-05
7.83129e-05
7.82629e-05
7.82924e-05
7.85707e-05
7.93876e-05
8.06947e-05
8.22725e-05
8.36821e-05
8.43452e-05
8.35927e-05
8.04551e-05
7.30202e-05
6.34042e-05
5.68689e-05
5.6745e-05
5.56737e-05
4.26905e-05
1.0606e-05
5.83603e-07
9.97256e-06
1.99399e-05
2.73726e-05
3.38768e-05
3.94059e-05
4.28718e-05
4.6314e-05
4.98502e-05
5.35971e-05
5.71146e-05
6.0252e-05
6.30834e-05
6.5687e-05
6.80536e-05
7.01561e-05
7.19573e-05
7.3445e-05
7.46184e-05
7.54525e-05
7.59864e-05
7.629e-05
7.63326e-05
7.64154e-05
7.66256e-05
7.71071e-05
7.80122e-05
7.93453e-05
8.08852e-05
8.2188e-05
8.26775e-05
8.17483e-05
7.86604e-05
7.19167e-05
6.23098e-05
5.53536e-05
5.55405e-05
5.55895e-05
4.3748e-05
1.09849e-05
5.03464e-07
9.00824e-06
1.87714e-05
2.53785e-05
3.18002e-05
3.76912e-05
4.19015e-05
4.52639e-05
4.85839e-05
5.183e-05
5.5167e-05
5.82579e-05
6.10281e-05
6.35106e-05
6.57296e-05
6.76897e-05
6.93799e-05
7.08165e-05
7.19783e-05
7.28493e-05
7.34835e-05
7.39515e-05
7.40919e-05
7.43158e-05
7.47037e-05
7.52854e-05
7.61928e-05
7.74194e-05
7.87543e-05
7.97776e-05
7.9949e-05
7.86771e-05
7.53651e-05
6.93634e-05
6.00481e-05
5.35245e-05
5.39303e-05
5.52488e-05
4.46067e-05
1.1336e-05
4.40151e-07
8.39096e-06
1.78564e-05
2.39889e-05
3.0121e-05
3.57151e-05
4.07553e-05
4.42911e-05
4.75505e-05
5.06457e-05
5.35054e-05
5.62688e-05
5.88816e-05
6.12388e-05
6.33363e-05
6.51858e-05
6.679e-05
6.81611e-05
6.92938e-05
7.01621e-05
7.0882e-05
7.13893e-05
7.16109e-05
7.19227e-05
7.24078e-05
7.29464e-05
7.36975e-05
7.46145e-05
7.55199e-05
7.60484e-05
7.57601e-05
7.40291e-05
7.06967e-05
6.54378e-05
5.71646e-05
5.07781e-05
5.19339e-05
5.47024e-05
4.52551e-05
1.16684e-05
3.93441e-07
8.12875e-06
1.71154e-05
2.30335e-05
2.87735e-05
3.41793e-05
3.91155e-05
4.3482e-05
4.67895e-05
4.97632e-05
5.2476e-05
5.4946e-05
5.7178e-05
5.92269e-05
6.10938e-05
6.27819e-05
6.42699e-05
6.55581e-05
6.66309e-05
6.74415e-05
6.81833e-05
6.85849e-05
6.88198e-05
6.90908e-05
6.94571e-05
6.97333e-05
7.00739e-05
7.04129e-05
7.06393e-05
7.04613e-05
6.962e-05
6.76348e-05
6.43789e-05
5.99059e-05
5.33593e-05
4.83196e-05
4.95917e-05
5.41569e-05
4.50879e-05
1.19885e-05
3.70973e-07
8.43247e-06
1.6706e-05
2.25873e-05
2.75331e-05
3.30043e-05
3.80187e-05
4.23165e-05
4.63106e-05
4.95106e-05
5.2129e-05
5.4423e-05
5.64282e-05
5.81963e-05
5.97618e-05
6.11372e-05
6.23442e-05
6.33634e-05
6.41974e-05
6.47835e-05
6.52368e-05
6.53918e-05
6.5389e-05
6.53182e-05
6.51488e-05
6.48513e-05
6.44941e-05
6.40073e-05
6.33969e-05
6.2431e-05
6.11103e-05
5.89955e-05
5.61329e-05
5.23243e-05
4.79222e-05
4.54406e-05
4.83444e-05
5.32808e-05
4.45713e-05
1.23441e-05
3.90224e-07
9.14778e-06
1.65307e-05
2.2119e-05
2.76304e-05
3.2453e-05
3.74629e-05
4.19297e-05
4.57711e-05
4.92107e-05
5.21808e-05
5.4453e-05
5.63477e-05
5.79143e-05
5.919e-05
6.01937e-05
6.09618e-05
6.141e-05
6.15476e-05
6.14311e-05
6.10518e-05
6.03887e-05
5.99229e-05
5.91314e-05
5.8027e-05
5.69818e-05
5.58411e-05
5.45648e-05
5.33072e-05
5.18476e-05
5.049e-05
4.8743e-05
4.70233e-05
4.47191e-05
4.26743e-05
4.21049e-05
4.57526e-05
5.17402e-05
4.38082e-05
1.25651e-05
4.6539e-07
1.10238e-05
1.79094e-05
2.366e-05
2.84411e-05
3.34868e-05
3.84777e-05
4.32036e-05
4.7444e-05
5.07376e-05
5.35168e-05
5.57061e-05
5.69598e-05
5.76506e-05
5.78741e-05
5.76968e-05
5.72165e-05
5.64387e-05
5.54664e-05
5.43553e-05
5.29549e-05
5.17534e-05
5.04805e-05
4.88006e-05
4.71333e-05
4.55391e-05
4.41131e-05
4.27612e-05
4.16376e-05
4.0561e-05
3.99833e-05
3.93755e-05
3.94053e-05
3.921e-05
3.99377e-05
4.11574e-05
4.58359e-05
5.01285e-05
4.18609e-05
1.26458e-05
5.86858e-07
1.27819e-05
1.96938e-05
2.50009e-05
3.02008e-05
3.51406e-05
3.96386e-05
4.33802e-05
4.65014e-05
4.85479e-05
4.99703e-05
5.10443e-05
5.13139e-05
5.10013e-05
5.0271e-05
4.92124e-05
4.79783e-05
4.63331e-05
4.48443e-05
4.32634e-05
4.16972e-05
4.00256e-05
3.8417e-05
3.70207e-05
3.58202e-05
3.48046e-05
3.4092e-05
3.36315e-05
3.35746e-05
3.38366e-05
3.45746e-05
3.55381e-05
3.71446e-05
3.88296e-05
4.10817e-05
4.35216e-05
4.73896e-05
4.80589e-05
4.01073e-05
1.25981e-05
8.58756e-07
1.58832e-05
2.1021e-05
2.56582e-05
3.00893e-05
3.39521e-05
3.71043e-05
3.93786e-05
4.09795e-05
4.18108e-05
4.20195e-05
4.18764e-05
4.14172e-05
4.0673e-05
3.96859e-05
3.86873e-05
3.76217e-05
3.65114e-05
3.55431e-05
3.46944e-05
3.40179e-05
3.3481e-05
3.31051e-05
3.29229e-05
3.29612e-05
3.32189e-05
3.37085e-05
3.44594e-05
3.54501e-05
3.67501e-05
3.83023e-05
4.02122e-05
4.23761e-05
4.46483e-05
4.70503e-05
4.89982e-05
5.04921e-05
4.63444e-05
3.6759e-05
1.20291e-05
1.51114e-06
1.86627e-05
2.19147e-05
2.64306e-05
2.99057e-05
3.26228e-05
3.46903e-05
3.61706e-05
3.71946e-05
3.78648e-05
3.82346e-05
3.84131e-05
3.84866e-05
3.85203e-05
3.85158e-05
3.85357e-05
3.85948e-05
3.86934e-05
3.88603e-05
3.9101e-05
3.94309e-05
3.98507e-05
4.03681e-05
4.09826e-05
4.16883e-05
4.25094e-05
4.34019e-05
4.44388e-05
4.551e-05
4.67598e-05
4.80107e-05
4.94143e-05
5.09343e-05
5.22677e-05
5.33166e-05
5.2751e-05
5.03838e-05
4.39345e-05
2.91686e-05
1.08448e-05
1.02178e-06
1.71031e-06
2.48154e-06
3.34176e-06
4.14732e-06
4.85874e-06
5.47002e-06
5.98583e-06
6.41063e-06
6.75799e-06
7.03218e-06
7.24886e-06
7.41497e-06
7.54822e-06
7.65195e-06
7.74009e-06
7.81503e-06
7.88676e-06
7.95636e-06
8.02962e-06
8.11167e-06
8.19895e-06
8.30805e-06
8.41826e-06
8.56772e-06
8.70738e-06
8.91016e-06
9.08411e-06
9.35119e-06
9.55994e-06
9.89094e-06
1.01246e-05
1.04859e-05
1.07468e-05
1.12392e-05
1.15775e-05
1.19867e-05
1.19329e-05
1.14742e-05
9.56333e-06
)
;

boundaryField
{
    movingWall
    {
        type            nutkWallFunction;
        Cmu             0.09;
        kappa           0.41;
        E               9.8;
        value           uniform 0;
    }
    fixedWalls
    {
        type            nutkWallFunction;
        Cmu             0.09;
        kappa           0.41;
        E               9.8;
        value           uniform 0;
    }
    frontAndBack
    {
        type            empty;
    }
}


// ************************************************************************* //
