/*--------------------------------*- C++ -*----------------------------------*\
  =========                 |
  \\      /  F ield         | OpenFOAM: The Open Source CFD Toolbox
   \\    /   O peration     | Website:  https://openfoam.org
    \\  /    A nd           | Version:  13
     \\/     M anipulation  |
\*---------------------------------------------------------------------------*/
FoamFile
{
    format      ascii;
    class       surfaceScalarField;
    location    "3.5";
    object      phi;
}
// * * * * * * * * * * * * * * * * * * * * * * * * * * * * * * * * * * * * * //

dimensions      [0 3 -1 0 0 0 0];

internalField   nonuniform List<scalar> 
3120
(
6.04945e-08
-6.04967e-08
1.54962e-07
-9.44678e-08
2.34177e-07
-7.92153e-08
2.75323e-07
-4.11459e-08
2.85563e-07
-1.02397e-08
2.80562e-07
5.00088e-09
2.72049e-07
8.51254e-09
2.61668e-07
1.03808e-08
2.389e-07
2.2768e-08
1.95746e-07
4.31541e-08
1.2163e-07
7.41164e-08
-1.25293e-08
1.34159e-07
-2.22382e-07
2.09853e-07
-5.35109e-07
3.12727e-07
-9.43838e-07
4.08729e-07
-1.38747e-06
4.43633e-07
-1.81083e-06
4.23356e-07
-2.19126e-06
3.80436e-07
-2.51784e-06
3.26578e-07
-2.78853e-06
2.7069e-07
-3.00259e-06
2.14062e-07
-3.16014e-06
1.57551e-07
-3.25972e-06
9.9574e-08
-3.30064e-06
4.09258e-08
-3.27731e-06
-2.33384e-08
-3.18743e-06
-8.98787e-08
-3.02695e-06
-1.6048e-07
-2.78735e-06
-2.39601e-07
-2.46715e-06
-3.20195e-07
-2.06235e-06
-4.04797e-07
-1.57592e-06
-4.86429e-07
-1.02769e-06
-5.48231e-07
-4.59635e-07
-5.68058e-07
6.45424e-08
-5.24178e-07
4.75323e-07
-4.1078e-07
6.40846e-07
-1.65524e-07
5.45959e-07
9.48871e-08
3.49714e-07
1.96246e-07
1.43565e-07
2.06149e-07
1.43565e-07
1.07689e-07
-1.68185e-07
2.35491e-07
-2.2227e-07
3.20614e-07
-1.64338e-07
3.52303e-07
-7.28347e-08
3.41498e-07
5.65004e-10
2.92586e-07
5.39125e-08
2.14667e-07
8.64322e-08
9.63404e-08
1.28707e-07
-8.6842e-08
2.0595e-07
-3.69354e-07
3.25667e-07
-7.72887e-07
4.77649e-07
-1.27771e-06
6.38984e-07
-1.83242e-06
7.64562e-07
-2.3566e-06
8.36906e-07
-2.79167e-06
8.43798e-07
-3.15085e-06
8.02816e-07
-3.45998e-06
7.3249e-07
-3.72086e-06
6.41311e-07
-3.9351e-06
5.40818e-07
-4.10222e-06
4.37814e-07
-4.22294e-06
3.34778e-07
-4.29685e-06
2.31462e-07
-4.32566e-06
1.28377e-07
-4.30301e-06
1.8278e-08
-4.23414e-06
-9.22024e-08
-4.11078e-06
-2.13245e-07
-3.92683e-06
-3.44423e-07
-3.67771e-06
-4.88726e-07
-3.353e-06
-6.44908e-07
-2.95107e-06
-8.06721e-07
-2.47237e-06
-9.65129e-07
-1.92253e-06
-1.09807e-06
-1.32386e-06
-1.16672e-06
-7.11725e-07
-1.13632e-06
-1.75949e-07
-9.46556e-07
2.1757e-07
-5.59043e-07
3.42913e-07
-3.04563e-08
2.79541e-07
2.59618e-07
1.28714e-07
3.56976e-07
2.72278e-07
1.25984e-07
-2.94169e-07
2.20198e-07
-3.16485e-07
2.53628e-07
-1.97768e-07
2.32278e-07
-5.14849e-08
1.58704e-07
7.41389e-08
3.13293e-08
1.81287e-07
-1.76436e-07
2.94197e-07
-4.88741e-07
4.41012e-07
-9.13244e-07
6.30454e-07
-1.42715e-06
8.39568e-07
-1.97203e-06
1.02254e-06
-2.47724e-06
1.14419e-06
-2.91591e-06
1.20323e-06
-3.27884e-06
1.19984e-06
-3.57606e-06
1.14102e-06
-3.81954e-06
1.0463e-06
-4.01808e-06
9.31032e-07
-4.17977e-06
8.02995e-07
-4.30822e-06
6.69269e-07
-4.40656e-06
5.36154e-07
-4.475e-06
4.03223e-07
-4.51413e-06
2.7059e-07
-4.52056e-06
1.34806e-07
-4.49304e-06
-9.24515e-09
-4.43173e-06
-1.53509e-07
-4.33406e-06
-3.10921e-07
-4.19527e-06
-4.8321e-07
-4.01111e-06
-6.72886e-07
-3.77401e-06
-8.82001e-07
-3.47291e-06
-1.10783e-06
-3.09908e-06
-1.33896e-06
-2.6459e-06
-1.55126e-06
-2.11658e-06
-1.69605e-06
-1.5347e-06
-1.71819e-06
-9.283e-07
-1.55296e-06
-3.76932e-07
-1.11041e-06
-2.78108e-08
-3.79578e-07
5.77655e-08
1.74041e-07
3.63022e-08
3.78439e-07
3.08581e-07
9.93794e-08
-3.93549e-07
1.28397e-07
-3.45503e-07
8.62725e-08
-1.55643e-07
-1.39757e-08
4.87633e-08
-1.8095e-07
2.41113e-07
-4.33561e-07
4.33899e-07
-7.87548e-07
6.48184e-07
-1.23732e-06
8.90783e-07
-1.74695e-06
1.14008e-06
-2.2602e-06
1.35282e-06
-2.72083e-06
1.48317e-06
-3.10387e-06
1.52723e-06
-3.4091e-06
1.50846e-06
-3.6486e-06
1.43934e-06
-3.84015e-06
1.33257e-06
-3.99474e-06
1.20089e-06
-4.11924e-06
1.05554e-06
-4.22212e-06
9.05875e-07
-4.30769e-06
7.54836e-07
-4.37394e-06
6.02399e-07
-4.41856e-06
4.47846e-07
-4.44168e-06
2.93709e-07
-4.4421e-06
1.35234e-07
-4.4212e-06
-3.01463e-08
-4.37624e-06
-1.98474e-07
-4.30537e-06
-3.81785e-07
-4.20578e-06
-5.82803e-07
-4.07436e-06
-8.04304e-07
-3.90838e-06
-1.04799e-06
-3.70388e-06
-1.31232e-06
-3.45407e-06
-1.58877e-06
-3.14203e-06
-1.8633e-06
-2.73531e-06
-2.10276e-06
-2.22724e-06
-2.22627e-06
-1.62858e-06
-2.15162e-06
-9.65385e-07
-1.7736e-06
-3.61154e-07
-9.83808e-07
-9.35167e-08
-9.35958e-08
-1.3858e-08
2.98781e-07
2.94723e-07
3.89032e-08
-4.32452e-07
-1.82475e-08
-2.88352e-07
-1.43427e-07
-3.04637e-08
-3.30581e-07
2.35917e-07
-5.95683e-07
5.06215e-07
-9.50014e-07
7.8823e-07
-1.38557e-06
1.08374e-06
-1.86863e-06
1.37384e-06
-2.34576e-06
1.61721e-06
-2.75989e-06
1.76695e-06
-3.09215e-06
1.81543e-06
-3.35524e-06
1.79032e-06
-3.55973e-06
1.71294e-06
-3.71789e-06
1.5975e-06
-3.84284e-06
1.45752e-06
-3.94477e-06
1.30282e-06
-4.02806e-06
1.13882e-06
-4.09141e-06
9.69231e-07
-4.13554e-06
7.98963e-07
-4.16238e-06
6.29239e-07
-4.17619e-06
4.61653e-07
-4.17725e-06
2.94769e-07
-4.16725e-06
1.25235e-07
-4.14744e-06
-4.995e-08
-4.11362e-06
-2.323e-07
-4.06599e-06
-4.29414e-07
-4.00351e-06
-6.45278e-07
-3.92374e-06
-8.84079e-07
-3.82287e-06
-1.14886e-06
-3.69544e-06
-1.43974e-06
-3.53363e-06
-1.75058e-06
-3.32941e-06
-2.06752e-06
-3.06654e-06
-2.36563e-06
-2.69953e-06
-2.59328e-06
-2.19467e-06
-2.65648e-06
-1.5413e-06
-2.42697e-06
-7.53208e-07
-1.7719e-06
-1.76393e-07
-6.7041e-07
-9.47124e-09
1.31859e-07
2.85251e-07
-4.91353e-08
-3.83317e-07
-1.91682e-07
-1.45805e-07
-3.9379e-07
1.71643e-07
-6.60265e-07
5.02393e-07
-1.00074e-06
8.46687e-07
-1.40853e-06
1.19603e-06
-1.85605e-06
1.53125e-06
-2.29724e-06
1.81503e-06
-2.67883e-06
1.9988e-06
-2.97742e-06
2.06554e-06
-3.20736e-06
2.04537e-06
-3.3844e-06
1.96736e-06
-3.5184e-06
1.84695e-06
-3.61903e-06
1.69812e-06
-3.69279e-06
1.53128e-06
-3.74401e-06
1.35404e-06
-3.77696e-06
1.17177e-06
-3.79639e-06
9.88654e-07
-3.80599e-06
8.08565e-07
-3.80804e-06
6.31292e-07
-3.80295e-06
4.56565e-07
-3.79103e-06
2.82842e-07
-3.7732e-06
1.07407e-07
-3.75043e-06
-7.27202e-08
-3.72156e-06
-2.61164e-07
-3.68779e-06
-4.6319e-07
-3.64941e-06
-6.83658e-07
-3.60586e-06
-9.27632e-07
-3.55533e-06
-1.19939e-06
-3.49395e-06
-1.50112e-06
-3.41385e-06
-1.83067e-06
-3.30245e-06
-2.17893e-06
-3.14428e-06
-2.5238e-06
-2.91252e-06
-2.82504e-06
-2.55472e-06
-3.01428e-06
-2.01091e-06
-2.97078e-06
-1.24017e-06
-2.54265e-06
-3.88565e-07
-1.52201e-06
-2.012e-08
-2.36586e-07
2.65131e-07
-1.37993e-07
-2.45324e-07
-3.58763e-07
7.49651e-08
-6.26013e-07
4.38894e-07
-9.50705e-07
8.27085e-07
-1.33036e-06
1.22634e-06
-1.74368e-06
1.60935e-06
-2.1541e-06
1.94167e-06
-2.51318e-06
2.17411e-06
-2.79104e-06
2.27666e-06
-2.99813e-06
2.27263e-06
-3.15286e-06
2.2001e-06
-3.26495e-06
2.07945e-06
-3.34275e-06
1.92475e-06
-3.39375e-06
1.74912e-06
-3.42393e-06
1.56147e-06
-3.43833e-06
1.36844e-06
-3.44142e-06
1.17486e-06
-3.43684e-06
9.84075e-07
-3.42613e-06
7.97864e-07
-3.41067e-06
6.15823e-07
-3.3913e-06
4.37197e-07
-3.3687e-06
2.6024e-07
-3.34373e-06
8.24438e-08
-3.31728e-06
-9.91677e-08
-3.29004e-06
-2.88409e-07
-3.26331e-06
-4.89924e-07
-3.2382e-06
-7.0876e-07
-3.21544e-06
-9.50394e-07
-3.19479e-06
-1.22004e-06
-3.17416e-06
-1.52176e-06
-3.14816e-06
-1.85667e-06
-3.10693e-06
-2.22016e-06
-3.03347e-06
-2.59726e-06
-2.90167e-06
-2.95683e-06
-2.67346e-06
-3.2425e-06
-2.28349e-06
-3.36075e-06
-1.66486e-06
-3.16128e-06
-7.52055e-07
-2.43482e-06
-8.45174e-08
-9.04124e-07
1.80614e-07
-2.14062e-07
-3.12617e-08
-4.93351e-07
3.54254e-07
-8.10193e-07
7.55736e-07
-1.16705e-06
1.18394e-06
-1.55158e-06
1.61087e-06
-1.93748e-06
1.99525e-06
-2.28332e-06
2.28752e-06
-2.55396e-06
2.44474e-06
-2.74974e-06
2.47244e-06
-2.89101e-06
2.4139e-06
-2.98985e-06
2.29893e-06
-3.05362e-06
2.14322e-06
-3.09044e-06
1.96157e-06
-3.10703e-06
1.76572e-06
-3.10887e-06
1.5633e-06
-3.10044e-06
1.36001e-06
-3.08524e-06
1.15966e-06
-3.06554e-06
9.64374e-07
-3.04243e-06
7.74763e-07
-3.01681e-06
5.90197e-07
-2.98925e-06
4.09639e-07
-2.96035e-06
2.31341e-07
-2.93094e-06
5.30365e-08
-2.90189e-06
-1.2822e-07
-2.87449e-06
-3.15809e-07
-2.85043e-06
-5.13988e-07
-2.8315e-06
-7.27686e-07
-2.81936e-06
-9.62531e-07
-2.81491e-06
-1.2245e-06
-2.81744e-06
-1.51922e-06
-2.82349e-06
-1.85061e-06
-2.82529e-06
-2.21837e-06
-2.80816e-06
-2.61439e-06
-2.74821e-06
-3.01678e-06
-2.61019e-06
-3.38052e-06
-2.34602e-06
-3.62491e-06
-1.89045e-06
-3.61685e-06
-1.14911e-06
-3.17616e-06
-2.44506e-07
-1.80873e-06
-6.38924e-08
-2.6316e-07
2.31898e-07
-5.86834e-07
6.77927e-07
-9.31848e-07
1.10075e-06
-1.29557e-06
1.54767e-06
-1.66154e-06
1.97685e-06
-2.00007e-06
2.33378e-06
-2.27509e-06
2.56254e-06
-2.47282e-06
2.64247e-06
-2.61038e-06
2.61e-06
-2.70426e-06
2.50778e-06
-2.76247e-06
2.35715e-06
-2.79272e-06
2.17347e-06
-2.80261e-06
1.97146e-06
-2.798e-06
1.7611e-06
-2.78365e-06
1.54896e-06
-2.76322e-06
1.33958e-06
-2.73911e-06
1.13554e-06
-2.71264e-06
9.37909e-07
-2.68448e-06
7.46602e-07
-2.65505e-06
5.6077e-07
-2.62458e-06
3.79165e-07
-2.59335e-06
2.00107e-07
-2.56198e-06
2.16694e-08
-2.53115e-06
-1.59049e-07
-2.50231e-06
-3.44653e-07
-2.47734e-06
-5.38959e-07
-2.45854e-06
-7.46482e-07
-2.44837e-06
-9.72704e-07
-2.44885e-06
-1.22401e-06
-2.46077e-06
-1.5073e-06
-2.48249e-06
-1.8289e-06
-2.50835e-06
-2.19251e-06
-2.52668e-06
-2.59606e-06
-2.51641e-06
-3.02705e-06
-2.44448e-06
-3.45245e-06
-2.26634e-06
-3.80306e-06
-1.94638e-06
-3.93681e-06
-1.40766e-06
-3.71488e-06
-4.74471e-07
-2.74192e-06
-5.38363e-07
-2.94264e-07
5.26163e-07
-6.38001e-07
1.02166e-06
-9.88848e-07
1.4516e-06
-1.33916e-06
1.89798e-06
-1.67228e-06
2.30996e-06
-1.95856e-06
2.62006e-06
-2.17018e-06
2.77416e-06
-2.31463e-06
2.78692e-06
-2.41165e-06
2.70702e-06
-2.47188e-06
2.56801e-06
-2.50264e-06
2.38791e-06
-2.51193e-06
2.18275e-06
-2.50645e-06
1.96598e-06
-2.49125e-06
1.74591e-06
-2.47024e-06
1.52795e-06
-2.44605e-06
1.31538e-06
-2.42018e-06
1.10968e-06
-2.39337e-06
9.11099e-07
-2.36583e-06
7.19057e-07
-2.3375e-06
5.32442e-07
-2.30818e-06
3.4984e-07
-2.27776e-06
1.69688e-07
-2.24642e-06
-9.66478e-09
-2.21479e-06
-1.90685e-07
-2.18408e-06
-3.75362e-07
-2.1562e-06
-5.66836e-07
-2.13371e-06
-7.6897e-07
-2.11961e-06
-9.86807e-07
-2.11684e-06
-1.22679e-06
-2.12748e-06
-1.49666e-06
-2.15157e-06
-1.8048e-06
-2.18561e-06
-2.15846e-06
-2.22077e-06
-2.5609e-06
-2.24038e-06
-3.00745e-06
-2.21541e-06
-3.47741e-06
-2.10245e-06
-3.91603e-06
-1.86634e-06
-4.17292e-06
-1.45159e-06
-4.12963e-06
-7.16792e-07
-3.47671e-06
-1.25515e-06
-3.03166e-07
8.29329e-07
-6.48326e-07
1.36682e-06
-9.89019e-07
1.79229e-06
-1.31492e-06
2.22388e-06
-1.60958e-06
2.60462e-06
-1.84182e-06
2.8523e-06
-2.00311e-06
2.93545e-06
-2.11165e-06
2.89546e-06
-2.18043e-06
2.77579e-06
-2.21807e-06
2.60565e-06
-2.23222e-06
2.40206e-06
-2.23045e-06
2.18098e-06
-2.21845e-06
1.95399e-06
-2.20044e-06
1.7279e-06
-2.1794e-06
1.50691e-06
-2.15715e-06
1.29313e-06
-2.13458e-06
1.08711e-06
-2.11188e-06
8.88395e-07
-2.08876e-06
6.95936e-07
-2.0647e-06
5.08389e-07
-2.03913e-06
3.24269e-07
-2.0116e-06
1.42154e-07
-1.98187e-06
-3.9391e-08
-1.9505e-06
-2.22058e-07
-1.91836e-06
-4.07502e-07
-1.8872e-06
-5.97997e-07
-1.85956e-06
-7.96611e-07
-1.83868e-06
-1.00768e-06
-1.82817e-06
-1.2373e-06
-1.83122e-06
-1.49362e-06
-1.84941e-06
-1.78661e-06
-1.88113e-06
-2.12675e-06
-1.91982e-06
-2.52221e-06
-1.95256e-06
-2.97471e-06
-1.95587e-06
-3.4741e-06
-1.88917e-06
-3.98273e-06
-1.69537e-06
-4.36671e-06
-1.3631e-06
-4.4619e-06
-8.24591e-07
-4.01522e-06
-2.07975e-06
-2.94243e-07
1.12357e-06
-6.25616e-07
1.6982e-06
-9.44443e-07
2.11112e-06
-1.23876e-06
2.51819e-06
-1.49136e-06
2.85722e-06
-1.67569e-06
3.03664e-06
-1.80292e-06
3.06268e-06
-1.88587e-06
2.97841e-06
-1.93537e-06
2.82529e-06
-1.95921e-06
2.62949e-06
-1.96495e-06
2.40781e-06
-1.95925e-06
2.17528e-06
-1.94684e-06
1.94158e-06
-1.93113e-06
1.71219e-06
-1.91436e-06
1.49013e-06
-1.89767e-06
1.27644e-06
-1.88137e-06
1.07081e-06
-1.86515e-06
8.7218e-07
-1.84833e-06
6.79108e-07
-1.83004e-06
4.90098e-07
-1.80945e-06
3.03682e-07
-1.78588e-06
1.18581e-07
-1.75894e-06
-6.63279e-08
-1.72882e-06
-2.52179e-07
-1.6962e-06
-4.40121e-07
-1.66252e-06
-6.31674e-07
-1.63007e-06
-8.29061e-07
-1.60201e-06
-1.03575e-06
-1.5822e-06
-1.25711e-06
-1.57465e-06
-1.50116e-06
-1.5824e-06
-1.77886e-06
-1.60573e-06
-2.10342e-06
-1.64027e-06
-2.48767e-06
-1.67557e-06
-2.93941e-06
-1.6931e-06
-3.45656e-06
-1.661e-06
-4.01483e-06
-1.5073e-06
-4.52041e-06
-1.23813e-06
-4.73106e-06
-7.59132e-07
-4.49423e-06
-2.83888e-06
-2.71253e-07
1.39483e-06
-5.77955e-07
2.0049e-06
-8.67615e-07
2.40078e-06
-1.12702e-06
2.7776e-06
-1.33684e-06
3.06704e-06
-1.48514e-06
3.18494e-06
-1.5871e-06
3.16464e-06
-1.65178e-06
3.04309e-06
-1.68878e-06
2.8623e-06
-1.70527e-06
2.64597e-06
-1.70825e-06
2.41079e-06
-1.70329e-06
2.17032e-06
-1.69427e-06
1.93256e-06
-1.68389e-06
1.7018e-06
-1.67368e-06
1.47993e-06
-1.6642e-06
1.26697e-06
-1.65528e-06
1.06189e-06
-1.64625e-06
8.63143e-07
-1.63615e-06
6.69007e-07
-1.62393e-06
4.77883e-07
-1.60863e-06
2.88384e-07
-1.58946e-06
9.94046e-08
-1.5659e-06
-8.98824e-08
-1.53791e-06
-2.80167e-07
-1.50595e-06
-4.72085e-07
-1.47113e-06
-6.66494e-07
-1.43537e-06
-8.64824e-07
-1.40148e-06
-1.06963e-06
-1.37321e-06
-1.28538e-06
-1.35493e-06
-1.51944e-06
-1.35077e-06
-1.78302e-06
-1.36288e-06
-2.09131e-06
-1.38905e-06
-2.46149e-06
-1.4208e-06
-2.90767e-06
-1.44271e-06
-3.43465e-06
-1.42855e-06
-4.02899e-06
-1.31868e-06
-4.63028e-06
-1.07904e-06
-4.97071e-06
-6.71097e-07
-4.90217e-06
-3.50998e-06
-2.38759e-07
1.63358e-06
-5.13348e-07
2.27949e-06
-7.69408e-07
2.65684e-06
-9.92866e-07
3.00106e-06
-1.16291e-06
3.23709e-06
-1.28429e-06
3.30632e-06
-1.36655e-06
3.24689e-06
-1.4185e-06
3.09504e-06
-1.44793e-06
2.89173e-06
-1.46144e-06
2.65948e-06
-1.46516e-06
2.41451e-06
-1.46362e-06
2.16878e-06
-1.45997e-06
1.92891e-06
-1.4562e-06
1.69803e-06
-1.45322e-06
1.47695e-06
-1.45112e-06
1.26487e-06
-1.4494e-06
1.06017e-06
-1.44717e-06
8.60914e-07
-1.44337e-06
6.65204e-07
-1.43688e-06
4.71395e-07
-1.42668e-06
2.78189e-07
-1.41195e-06
8.46673e-08
-1.39209e-06
-1.09737e-07
-1.36691e-06
-3.05347e-07
-1.33666e-06
-5.02333e-07
-1.30218e-06
-7.00977e-07
-1.265e-06
-9.02007e-07
-1.2275e-06
-1.10713e-06
-1.19304e-06
-1.31984e-06
-1.16591e-06
-1.54656e-06
-1.15085e-06
-1.79808e-06
-1.15154e-06
-2.09063e-06
-1.16811e-06
-2.44492e-06
-1.19442e-06
-2.88136e-06
-1.2173e-06
-3.41177e-06
-1.2136e-06
-4.03269e-06
-1.14278e-06
-4.7011e-06
-9.2784e-07
-5.18565e-06
-5.78163e-07
-5.25185e-06
-4.08814e-06
-2.00963e-07
1.83455e-06
-4.3882e-07
2.51734e-06
-6.59082e-07
2.8771e-06
-8.45763e-07
3.18774e-06
-9.81822e-07
3.37315e-06
-1.08134e-06
3.40583e-06
-1.14852e-06
3.31408e-06
-1.19139e-06
3.13791e-06
-1.21648e-06
2.91682e-06
-1.22962e-06
2.67261e-06
-1.23592e-06
2.4208e-06
-1.23899e-06
2.17185e-06
-1.24124e-06
1.93116e-06
-1.24404e-06
1.70082e-06
-1.24782e-06
1.48072e-06
-1.25234e-06
1.26939e-06
-1.2569e-06
1.06474e-06
-1.26056e-06
8.64574e-07
-1.26224e-06
6.66878e-07
-1.26084e-06
4.69997e-07
-1.25536e-06
2.72706e-07
-1.24494e-06
7.42537e-08
-1.22898e-06
-1.25703e-07
-1.20715e-06
-3.27177e-07
-1.17954e-06
-5.29936e-07
-1.14677e-06
-7.33755e-07
-1.11002e-06
-9.38748e-07
-1.07128e-06
-1.14587e-06
-1.03343e-06
-1.3577e-06
-1.0004e-06
-1.57959e-06
-9.77038e-07
-1.82144e-06
-9.68087e-07
-2.09958e-06
-9.75758e-07
-2.43725e-06
-9.96262e-07
-2.86086e-06
-1.01787e-06
-3.39016e-06
-1.02029e-06
-4.03027e-06
-9.72217e-07
-4.74917e-06
-7.94777e-07
-5.36308e-06
-4.9996e-07
-5.54666e-06
-4.5881e-06
-1.59437e-07
1.99398e-06
-3.58263e-07
2.71617e-06
-5.41624e-07
3.06046e-06
-6.92628e-07
3.33874e-06
-8.01759e-07
3.48228e-06
-8.82453e-07
3.48652e-06
-9.37054e-07
3.36869e-06
-9.73034e-07
3.17389e-06
-9.95629e-07
2.93942e-06
-1.00964e-06
2.68663e-06
-1.01912e-06
2.43029e-06
-1.02684e-06
2.17957e-06
-1.03453e-06
1.93885e-06
-1.04304e-06
1.70933e-06
-1.05244e-06
1.49013e-06
-1.06233e-06
1.27928e-06
-1.07195e-06
1.07436e-06
-1.08036e-06
8.72986e-07
-1.08656e-06
6.73075e-07
-1.08952e-06
4.72965e-07
-1.0883e-06
2.71483e-07
-1.08205e-06
6.80015e-08
-1.07012e-06
-1.37636e-07
-1.05211e-06
-3.45186e-07
-1.02798e-06
-5.54067e-07
-9.98126e-07
-7.63605e-07
-9.63506e-07
-9.73368e-07
-9.2573e-07
-1.18365e-06
-8.87231e-07
-1.39619e-06
-8.51469e-07
-1.61535e-06
-8.23052e-07
-1.84986e-06
-8.07258e-07
-2.11537e-06
-8.08046e-07
-2.43646e-06
-8.24237e-07
-2.84467e-06
-8.46095e-07
-3.3683e-06
-8.563e-07
-4.02007e-06
-8.28469e-07
-4.777e-06
-6.8344e-07
-5.50811e-06
-4.25007e-07
-5.8051e-06
-5.01311e-06
-1.17378e-07
2.11136e-06
-2.75167e-07
2.87396e-06
-4.22433e-07
3.20773e-06
-5.40625e-07
3.45693e-06
-6.26166e-07
3.56782e-06
-6.89407e-07
3.54977e-06
-7.33512e-07
3.41279e-06
-7.64014e-07
3.20439e-06
-7.84961e-07
2.96037e-06
-8.00121e-07
2.70179e-06
-8.12528e-07
2.44269e-06
-8.24179e-07
2.19122e-06
-8.36234e-07
1.95091e-06
-8.49125e-07
1.72222e-06
-8.62729e-07
1.50373e-06
-8.7655e-07
1.2931e-06
-8.8987e-07
1.08768e-06
-9.01845e-07
8.84962e-07
-9.11581e-07
6.82811e-07
-9.18169e-07
4.79553e-07
-9.20729e-07
2.74043e-07
-9.1845e-07
6.57227e-08
-9.10664e-07
-1.45423e-07
-8.96908e-07
-3.58943e-07
-8.77016e-07
-5.73959e-07
-8.51221e-07
-7.894e-07
-8.20252e-07
-1.00434e-06
-7.85435e-07
-1.21846e-06
-7.48824e-07
-1.43281e-06
-7.13403e-07
-1.65077e-06
-6.83346e-07
-1.87992e-06
-6.63968e-07
-2.13475e-06
-6.60398e-07
-2.44003e-06
-6.73939e-07
-2.83112e-06
-6.97219e-07
-3.34502e-06
-7.14184e-07
-4.0031e-06
-6.98945e-07
-4.79224e-06
-5.93343e-07
-5.61372e-06
-3.73782e-07
-6.02466e-06
-5.38689e-06
-7.32102e-08
2.18457e-06
-1.91762e-07
2.99251e-06
-3.04361e-07
3.32033e-06
-3.91901e-07
3.54447e-06
-4.56039e-07
3.63196e-06
-5.03525e-07
3.59725e-06
-5.38149e-07
3.44741e-06
-5.63756e-07
3.23e-06
-5.83168e-07
2.97978e-06
-5.99087e-07
2.71771e-06
-6.1361e-07
2.45722e-06
-6.28055e-07
2.20567e-06
-6.43097e-07
1.96595e-06
-6.58879e-07
1.738e-06
-6.7516e-07
1.52001e-06
-6.91454e-07
1.30939e-06
-7.07136e-07
1.10336e-06
-7.21498e-07
8.99325e-07
-7.33791e-07
6.95103e-07
-7.43239e-07
4.89001e-07
-7.49069e-07
2.79872e-07
-7.50527e-07
6.71814e-08
-7.46951e-07
-1.48999e-07
-7.37829e-07
-3.68065e-07
-7.22888e-07
-5.889e-07
-7.02204e-07
-8.10084e-07
-6.76305e-07
-1.03024e-06
-6.46268e-07
-1.2485e-06
-6.13824e-07
-1.46525e-06
-5.81543e-07
-1.68305e-06
-5.53126e-07
-1.90834e-06
-5.33647e-07
-2.15423e-06
-5.28874e-07
-2.4448e-06
-5.42106e-07
-2.81789e-06
-5.68651e-07
-3.31848e-06
-5.93874e-07
-3.97788e-06
-5.91091e-07
-4.79502e-06
-5.15309e-07
-5.6895e-06
-3.27669e-07
-6.2123e-06
-5.71456e-06
-3.22819e-08
2.21685e-06
-1.10397e-07
3.07063e-06
-1.88752e-07
3.39868e-06
-2.4792e-07
3.60364e-06
-2.92185e-07
3.67623e-06
-3.24873e-07
3.62994e-06
-3.50423e-07
3.47296e-06
-3.71124e-07
3.2507e-06
-3.88576e-07
2.99723e-06
-4.04436e-07
2.73357e-06
-4.19955e-07
2.47274e-06
-4.35854e-07
2.22157e-06
-4.52413e-07
1.98251e-06
-4.69575e-07
1.75516e-06
-4.87052e-07
1.53749e-06
-5.04422e-07
1.32676e-06
-5.21187e-07
1.12012e-06
-5.36801e-07
9.14938e-07
-5.50678e-07
7.08981e-07
-5.62204e-07
5.00527e-07
-5.70739e-07
2.88406e-07
-5.75623e-07
7.20657e-08
-5.76232e-07
-1.48389e-07
-5.72037e-07
-3.7226e-07
-5.6268e-07
-5.98257e-07
-5.48088e-07
-8.24676e-07
-5.2859e-07
-1.04973e-06
-5.05021e-07
-1.27207e-06
-4.78816e-07
-1.49145e-06
-4.52165e-07
-1.7097e-06
-4.28293e-07
-1.93221e-06
-4.11854e-07
-2.17067e-06
-4.08812e-07
-2.44784e-06
-4.24019e-07
-2.80269e-06
-4.55377e-07
-3.28712e-06
-4.89595e-07
-3.94366e-06
-5.01488e-07
-4.78313e-06
-4.52807e-07
-5.73818e-06
-2.94115e-07
-6.37099e-06
-6.00867e-06
1.23909e-08
2.20446e-06
-2.9454e-08
3.11247e-06
-7.57776e-08
3.445e-06
-1.09313e-07
3.63718e-06
-1.34569e-07
3.70148e-06
-1.5302e-07
3.64839e-06
-1.69422e-07
3.48937e-06
-1.84731e-07
3.26601e-06
-1.99434e-07
3.01193e-06
-2.14172e-07
2.7483e-06
-2.29431e-07
2.488e-06
-2.45401e-07
2.23754e-06
-2.62041e-07
1.99915e-06
-2.79156e-07
1.77228e-06
-2.9646e-07
1.55479e-06
-3.13621e-07
1.34393e-06
-3.30285e-07
1.13679e-06
-3.46078e-07
9.30731e-07
-3.60599e-07
7.23502e-07
-3.73411e-07
5.1334e-07
-3.84037e-07
2.99032e-07
-3.91951e-07
7.99799e-08
-3.9661e-07
-1.4373e-07
-3.9751e-07
-3.71359e-07
-3.94242e-07
-6.01525e-07
-3.86604e-07
-8.32315e-07
-3.74729e-07
-1.06161e-06
-3.59201e-07
-1.2876e-06
-3.41157e-07
-1.5095e-06
-3.22419e-07
-1.72844e-06
-3.05751e-07
-1.94888e-06
-2.95309e-07
-2.18111e-06
-2.96907e-07
-2.44625e-06
-3.1646e-07
-2.78313e-06
-3.54254e-07
-3.24932e-06
-3.98436e-07
-3.89948e-06
-4.25611e-07
-4.75596e-06
-3.99371e-07
-5.76442e-06
-2.64897e-07
-6.50546e-06
-6.27357e-06
5.19687e-08
2.15249e-06
4.87703e-08
3.11567e-06
3.32324e-08
3.46054e-06
2.31193e-08
3.64729e-06
1.68413e-08
3.70776e-06
1.193e-08
3.6533e-06
5.14767e-09
3.49615e-06
-3.5787e-09
3.27473e-06
-1.42324e-08
3.02259e-06
-2.65974e-08
2.76067e-06
-4.02935e-08
2.50169e-06
-5.49886e-08
2.25223e-06
-7.03712e-08
2.01453e-06
-8.61466e-08
1.78805e-06
-1.02051e-07
1.5707e-06
-1.17855e-07
1.35973e-06
-1.33356e-07
1.15229e-06
-1.48357e-07
9.45732e-07
-1.62647e-07
7.37792e-07
-1.75982e-07
5.26675e-07
-1.88069e-07
3.11119e-07
-1.98555e-07
9.04661e-08
-2.07024e-07
-1.35261e-07
-2.13044e-07
-3.65339e-07
-2.16204e-07
-5.98366e-07
-2.16204e-07
-8.32314e-07
-2.13e-07
-1.06481e-06
-2.06923e-07
-1.29368e-06
-1.98791e-07
-1.51763e-06
-1.90044e-07
-1.73719e-06
-1.82982e-07
-1.95594e-06
-1.81226e-07
-2.18287e-06
-1.90216e-07
-2.43726e-06
-2.1642e-07
-2.75693e-06
-2.62277e-07
-3.20347e-06
-3.17698e-07
-3.84406e-06
-3.60531e-07
-4.71312e-06
-3.56756e-07
-5.76819e-06
-2.42887e-07
-6.61933e-06
-6.51646e-06
9.14625e-08
2.06103e-06
1.24967e-07
3.08216e-06
1.3898e-07
3.44653e-06
1.52372e-07
3.6339e-06
1.65428e-07
3.6947e-06
1.74813e-07
3.64392e-06
1.771e-07
3.49386e-06
1.74808e-07
3.27703e-06
1.68672e-07
3.02872e-06
1.59731e-07
2.76961e-06
1.48836e-07
2.51259e-06
1.36669e-07
2.2644e-06
1.23756e-07
2.02745e-06
1.10465e-07
1.80134e-06
9.70279e-08
1.58414e-06
8.35698e-08
1.37319e-06
7.01467e-08
1.16571e-06
5.67802e-08
9.59098e-07
4.34894e-08
7.51083e-07
3.03182e-08
5.39846e-07
1.73593e-08
3.24078e-07
4.77344e-09
1.03052e-07
-7.19299e-09
-1.23295e-07
-1.82277e-08
-3.54304e-07
-2.79669e-08
-5.88627e-07
-3.60693e-08
-8.24212e-07
-4.23495e-08
-1.05853e-06
-4.68989e-08
-1.28913e-06
-5.021e-08
-1.51432e-06
-5.33174e-08
-1.73408e-06
-5.80272e-08
-1.95123e-06
-6.7389e-08
-2.1735e-06
-8.63565e-08
-2.41829e-06
-1.21547e-07
-2.72174e-06
-1.77073e-07
-3.14794e-06
-2.44709e-07
-3.77642e-06
-3.02713e-07
-4.65512e-06
-3.19961e-07
-5.75095e-06
-2.24006e-07
-6.71529e-06
-6.74046e-06
1.30115e-07
1.93092e-06
1.98938e-07
3.01334e-06
2.40721e-07
3.40475e-06
2.75732e-07
3.59889e-06
3.07331e-07
3.66311e-06
3.31417e-07
3.61983e-06
3.44264e-07
3.48102e-06
3.49962e-07
3.27133e-06
3.49905e-07
3.02878e-06
3.45744e-07
2.77377e-06
3.38909e-07
2.51942e-06
3.3046e-07
2.27285e-06
3.2112e-07
2.03679e-06
3.11324e-07
1.81114e-06
3.01273e-07
1.59419e-06
2.90996e-07
1.38347e-06
2.80408e-07
1.1763e-06
2.69366e-07
9.7014e-07
2.57703e-07
7.62746e-07
2.45265e-07
5.52284e-07
2.31937e-07
3.37406e-07
2.17674e-07
1.17314e-07
2.02528e-07
-1.08148e-07
1.86658e-07
-3.38434e-07
1.70327e-07
-5.72296e-07
1.53864e-07
-8.07749e-07
1.37547e-07
-1.04221e-06
1.21488e-07
-1.27307e-06
1.05506e-07
-1.49834e-06
8.89821e-08
-1.71756e-06
7.06311e-08
-1.93288e-06
4.80168e-08
-2.15089e-06
1.6756e-08
-2.38703e-06
-2.96486e-08
-2.67533e-06
-9.64255e-08
-3.08116e-06
-1.77571e-07
-3.69528e-06
-2.51221e-07
-4.58147e-06
-2.8716e-07
-5.71501e-06
-2.09889e-07
-6.79256e-06
-6.95035e-06
1.66447e-07
1.76447e-06
2.69907e-07
2.90988e-06
3.38683e-07
3.33597e-06
3.95422e-07
3.54215e-06
4.43401e-07
3.61513e-06
4.81992e-07
3.58124e-06
5.0733e-07
3.45568e-06
5.2247e-07
3.25619e-06
5.29894e-07
3.02136e-06
5.31921e-07
2.77174e-06
5.30458e-07
2.52089e-06
5.26907e-07
2.2764e-06
5.22185e-07
2.04151e-06
5.168e-07
1.81652e-06
5.10935e-07
1.60005e-06
5.04537e-07
1.38986e-06
4.97399e-07
1.18344e-06
4.89223e-07
9.78316e-07
4.7967e-07
7.72299e-07
4.68396e-07
5.63558e-07
4.55087e-07
3.50715e-07
4.39493e-07
1.32909e-07
4.21462e-07
-9.01169e-08
4.0098e-07
-3.17952e-07
3.7817e-07
-5.49486e-07
3.5328e-07
-7.82859e-07
3.26624e-07
-1.01556e-06
2.98458e-07
-1.2449e-06
2.68871e-07
-1.46875e-06
2.3765e-07
-1.68634e-06
2.04042e-07
-1.89927e-06
1.66278e-07
-2.11313e-06
1.20705e-07
-2.34145e-06
6.11328e-08
-2.61576e-06
-1.85451e-08
-3.00149e-06
-1.14245e-07
-3.59958e-06
-2.04404e-07
-4.49131e-06
-2.5747e-07
-5.66194e-06
-1.99602e-07
-6.85043e-06
-7.14995e-06
1.99537e-07
1.56493e-06
3.3633e-07
2.77309e-06
4.31049e-07
3.24125e-06
5.0816e-07
3.46504e-06
5.7333e-07
3.54996e-06
6.27514e-07
3.52705e-06
6.66421e-07
3.41677e-06
6.92317e-07
3.23029e-06
7.08688e-07
3.00499e-06
7.18368e-07
2.76206e-06
7.23648e-07
2.51561e-06
7.2621e-07
2.27383e-06
7.27149e-07
2.04057e-06
7.27051e-07
1.81662e-06
7.26099e-07
1.601e-06
7.24185e-07
1.39178e-06
7.20999e-07
1.18662e-06
7.16112e-07
9.83203e-07
7.09027e-07
7.79384e-07
6.99229e-07
5.73357e-07
6.86216e-07
3.63727e-07
6.69544e-07
1.49581e-07
6.48859e-07
-6.94317e-08
6.23967e-07
-2.93061e-07
5.94833e-07
-5.20352e-07
5.61576e-07
-7.49602e-07
5.24463e-07
-9.78445e-07
4.83825e-07
-1.20426e-06
4.39964e-07
-1.42489e-06
3.93042e-07
-1.63941e-06
3.42848e-07
-1.84907e-06
2.88319e-07
-2.0586e-06
2.266e-07
-2.27973e-06
1.51985e-07
-2.54115e-06
5.78538e-08
-2.90736e-06
-5.33658e-08
-3.48836e-06
-1.60384e-07
-4.38429e-06
-2.27945e-07
-5.59438e-06
-1.93044e-07
-6.88533e-06
-7.343e-06
2.27609e-07
1.33732e-06
3.95987e-07
2.60471e-06
5.15971e-07
3.12127e-06
6.13152e-07
3.36786e-06
6.96026e-07
3.46708e-06
7.65283e-07
3.4578e-06
8.19505e-07
3.36255e-06
8.58267e-07
3.19153e-06
8.85551e-07
2.9777e-06
9.04653e-07
2.74296e-06
9.18229e-07
2.50203e-06
9.28236e-07
2.26383e-06
9.3595e-07
2.03286e-06
9.42048e-07
1.81052e-06
9.46736e-07
1.59632e-06
9.49873e-07
1.38864e-06
9.51078e-07
1.18542e-06
9.49816e-07
9.84465e-07
9.45462e-07
7.83738e-07
9.3735e-07
5.81468e-07
9.24817e-07
3.76261e-07
9.07239e-07
1.67159e-07
8.84075e-07
-4.62671e-08
8.54947e-07
-2.63933e-07
8.19632e-07
-4.85037e-07
7.78081e-07
-7.08052e-07
7.30468e-07
-9.30831e-07
6.77143e-07
-1.15094e-06
6.18568e-07
-1.36631e-06
5.55232e-07
-1.57608e-06
4.87464e-07
-1.78131e-06
4.14894e-07
-1.98603e-06
3.35431e-07
-2.20027e-06
2.44103e-07
-2.44982e-06
1.33803e-07
-2.79706e-06
4.95316e-09
-3.35951e-06
-1.1975e-07
-4.25959e-06
-2.02984e-07
-5.51114e-06
-1.84498e-07
-6.90381e-06
-7.52749e-06
2.47932e-07
1.08939e-06
4.4553e-07
2.40711e-06
5.90387e-07
2.97641e-06
7.07783e-07
3.25046e-06
8.08387e-07
3.36648e-06
8.94057e-07
3.37213e-06
9.64704e-07
3.2919e-06
1.0184e-06
3.13783e-06
1.05887e-06
2.93724e-06
1.08957e-06
2.71226e-06
1.11336e-06
2.47824e-06
1.13242e-06
2.24476e-06
1.14822e-06
2.01706e-06
1.16155e-06
1.7972e-06
1.17267e-06
1.58519e-06
1.18146e-06
1.37985e-06
1.1875e-06
1.17938e-06
1.19019e-06
9.81783e-07
1.18879e-06
7.85139e-07
1.18252e-06
5.87736e-07
1.17058e-06
3.88195e-07
1.15221e-06
1.85536e-07
1.12665e-06
-2.07115e-08
1.0934e-06
-2.30679e-07
1.052e-06
-4.43638e-07
1.00223e-06
-6.58279e-07
9.44127e-07
-8.72732e-07
8.78031e-07
-1.08484e-06
8.04506e-07
-1.29279e-06
7.24295e-07
-1.49587e-06
6.3815e-07
-1.69516e-06
5.4641e-07
-1.89429e-06
4.47928e-07
-2.10179e-06
3.38529e-07
-2.34042e-06
2.1119e-07
-2.66972e-06
6.49663e-08
-3.21328e-06
-7.97022e-08
-4.11492e-06
-1.79932e-07
-5.41091e-06
-1.77205e-07
-6.90654e-06
-7.7047e-06
2.55908e-07
8.33485e-07
4.79807e-07
2.18321e-06
6.50001e-07
2.80622e-06
7.88421e-07
3.11204e-06
9.07346e-07
3.24755e-06
1.01086e-06
3.26861e-06
1.09908e-06
3.20369e-06
1.17006e-06
3.06684e-06
1.22627e-06
2.88103e-06
1.27107e-06
2.66747e-06
1.30741e-06
2.4419e-06
1.33755e-06
2.21462e-06
1.36308e-06
1.99153e-06
1.38493e-06
1.77534e-06
1.40349e-06
1.56663e-06
1.41868e-06
1.36466e-06
1.43008e-06
1.16797e-06
1.43706e-06
9.74798e-07
1.43885e-06
7.83352e-07
1.43457e-06
5.92015e-07
1.42332e-06
3.99443e-07
1.40422e-06
2.04635e-07
1.37628e-06
7.23112e-09
1.33896e-06
-1.9336e-07
1.29151e-06
-3.96191e-07
1.23356e-06
-6.00321e-07
1.16499e-06
-8.04169e-07
1.08609e-06
-1.00594e-06
9.97489e-07
-1.20419e-06
9.00114e-07
-1.39849e-06
7.95064e-07
-1.59011e-06
6.83286e-07
-1.78251e-06
5.64572e-07
-1.98307e-06
4.35754e-07
-2.2116e-06
2.90402e-07
-2.52437e-06
1.26195e-07
-3.04908e-06
-3.72082e-08
-3.95152e-06
-1.53652e-07
-5.29447e-06
-1.72917e-07
-6.88728e-06
-7.87762e-06
2.45939e-07
5.87546e-07
4.93557e-07
1.93559e-06
6.90057e-07
2.60972e-06
8.50562e-07
2.95153e-06
9.88929e-07
3.10918e-06
1.11156e-06
3.14598e-06
1.21922e-06
3.09602e-06
1.30998e-06
2.97608e-06
1.38488e-06
2.80613e-06
1.44664e-06
2.60571e-06
1.49813e-06
2.39041e-06
1.54168e-06
2.17107e-06
1.57896e-06
1.95425e-06
1.611e-06
1.7433e-06
1.63828e-06
1.53935e-06
1.66082e-06
1.34213e-06
1.67827e-06
1.15052e-06
1.69003e-06
9.63037e-07
1.69531e-06
7.78072e-07
1.6932e-06
5.94127e-07
1.68272e-06
4.09929e-07
1.66284e-06
2.24509e-07
1.63272e-06
3.73511e-08
1.59125e-06
-1.51882e-07
1.53773e-06
-3.42677e-07
1.47159e-06
-5.34182e-07
1.39259e-06
-7.25164e-07
1.30091e-06
-9.14265e-07
1.19721e-06
-1.10049e-06
1.08257e-06
-1.28385e-06
9.58324e-07
-1.46586e-06
8.25873e-07
-1.65006e-06
6.85905e-07
-1.84311e-06
5.36557e-07
-2.06225e-06
3.72289e-07
-2.3601e-06
1.90589e-07
-2.86738e-06
1.13177e-08
-3.77225e-06
-1.3052e-07
-5.15263e-06
-1.68502e-07
-6.84929e-06
-8.04612e-06
2.12613e-07
3.74933e-07
4.82802e-07
1.66541e-06
7.04964e-07
2.38756e-06
8.88572e-07
2.76793e-06
1.04805e-06
2.94971e-06
1.19126e-06
3.00277e-06
1.32043e-06
2.96686e-06
1.43359e-06
2.86291e-06
1.5305e-06
2.70923e-06
1.61268e-06
2.52352e-06
1.6825e-06
2.32059e-06
1.74222e-06
2.11134e-06
1.7936e-06
1.90287e-06
1.83779e-06
1.69912e-06
1.87537e-06
1.50177e-06
1.9065e-06
1.311e-06
1.93092e-06
1.1261e-06
1.94811e-06
9.45844e-07
1.95733e-06
7.68858e-07
1.95765e-06
5.93799e-07
1.94809e-06
4.19497e-07
1.92757e-06
2.45023e-07
1.89508e-06
6.98453e-08
1.84947e-06
-1.06275e-07
1.78988e-06
-2.83082e-07
1.71559e-06
-4.59896e-07
1.62624e-06
-6.35816e-07
1.52195e-06
-8.09972e-07
1.40336e-06
-9.81904e-07
1.27162e-06
-1.15211e-06
1.12819e-06
-1.32244e-06
9.74802e-07