/*--------------------------------*- C++ -*----------------------------------*\
  =========                 |
  \\      /  F ield         | OpenFOAM: The Open Source CFD Toolbox
   \\    /   O peration     | Website:  https://openfoam.org
    \\  /    A nd           | Version:  13
     \\/     M anipulation  |
\*---------------------------------------------------------------------------*/
FoamFile
{
    format      ascii;
    class       volScalarField;
    location    "0.4";
    object      epsilon;
}
// * * * * * * * * * * * * * * * * * * * * * * * * * * * * * * * * * * * * * //

dimensions      [0 2 -3 0 0 0 0];

internalField   nonuniform List<scalar> 
6400
(
0.000145018
0.000671872
0.00133409
0.00194824
0.00247603
0.00292143
0.00329515
0.00360728
0.00386643
0.00408001
0.00425452
0.00439577
0.00450898
0.00459884
0.00466953
0.00472472
0.0047676
0.00480086
0.00482675
0.0048471
0.00486337
0.00487672
0.00488803
0.00489794
0.00490697
0.00491546
0.00492367
0.00493179
0.00493994
0.00494822
0.00495668
0.00496537
0.00497432
0.00498356
0.00499309
0.00500294
0.00501311
0.0050236
0.00503441
0.00504555
0.00505701
0.00506879
0.00508086
0.0050932
0.00510577
0.00511849
0.00513129
0.00514461
0.00515862
0.00517279
0.00518704
0.00520127
0.00521532
0.00522899
0.00524198
0.00525391
0.00526426
0.00527235
0.00527714
0.00527806
0.00527347
0.00526168
0.00524077
0.00520846
0.00516207
0.00509857
0.00501456
0.00490626
0.00476951
0.00459976
0.00439204
0.00414092
0.00384041
0.0034838
0.00306362
0.00257177
0.00200117
0.00135361
0.000673315
0.00014483
0.000673558
0.000640324
0.000935101
0.00123756
0.00150017
0.00171953
0.00190033
0.0020482
0.00216828
0.00226503
0.00234231
0.00240346
0.0024514
0.00248864
0.00251732
0.00253927
0.00255602
0.0025688
0.00257863
0.00258629
0.00259239
0.00259741
0.00260168
0.00260546
0.00260893
0.00261222
0.00261541
0.00261857
0.00262173
0.00262493
0.00262817
0.00263147
0.00263484
0.00263827
0.00264177
0.00264534
0.00264897
0.00265267
0.00265643
0.00266024
0.0026641
0.00266801
0.00267195
0.00267592
0.0026799
0.00268388
0.00268791
0.00269213
0.00269654
0.00270097
0.00270538
0.00270972
0.00271395
0.002718
0.00272178
0.00272515
0.00272795
0.00272986
0.00273051
0.00272976
0.00272692
0.00272135
0.00271225
0.00269866
0.00267944
0.00265324
0.0026185
0.00257344
0.00251601
0.00244389
0.00235444
0.00224467
0.00211112
0.00194992
0.0017563
0.00152511
0.00125193
0.000940539
0.000640045
0.000670285
0.00134943
0.000940597
0.00109016
0.00129166
0.0014768
0.00163414
0.00176428
0.0018703
0.00195569
0.00202378
0.00207753
0.00211955
0.00215208
0.00217704
0.00219604
0.0022104
0.00222122
0.00222937
0.00223555
0.00224029
0.00224401
0.00224701
0.00224953
0.00225172
0.00225371
0.00225557
0.00225736
0.00225913
0.00226089
0.00226266
0.00226446
0.00226629
0.00226815
0.00227004
0.00227197
0.00227394
0.00227594
0.00227798
0.00228005
0.00228215
0.00228429
0.00228644
0.00228863
0.00229083
0.00229306
0.00229531
0.00229761
0.0023
0.00230244
0.00230489
0.00230733
0.00230974
0.00231208
0.00231431
0.00231638
0.0023182
0.00231968
0.00232054
0.00232067
0.00231986
0.00231774
0.00231387
0.00230772
0.00229866
0.00228589
0.00226849
0.00224537
0.00221525
0.0021766
0.00212771
0.00206657
0.00199087
0.00189792
0.00178457
0.00164783
0.00148495
0.0012956
0.00108981
0.000934614
0.00132911
0.00199088
0.00125088
0.00129582
0.00143359
0.0015728
0.00169598
0.00179973
0.001885
0.0019538
0.00200849
0.00205153
0.00208507
0.00211094
0.00213072
0.00214571
0.00215699
0.00216544
0.00217177
0.00217652
0.00218012
0.0021829
0.00218509
0.00218689
0.00218842
0.00218977
0.00219101
0.00219219
0.00219334
0.00219448
0.00219562
0.00219677
0.00219795
0.00219915
0.00220037
0.00220163
0.00220291
0.00220422
0.00220557
0.00220694
0.00220834
0.00220978
0.00221124
0.00221273
0.00221426
0.00221581
0.00221741
0.00221906
0.00222077
0.00222251
0.00222428
0.00222604
0.00222779
0.00222949
0.00223113
0.00223264
0.00223397
0.00223504
0.00223561
0.00223563
0.0022349
0.00223317
0.00223008
0.00222523
0.00221811
0.00220811
0.00219448
0.00217631
0.00215257
0.00212203
0.00208328
0.00203468
0.00197438
0.00190034
0.00181048
0.00170281
0.0015764
0.00143391
0.00129203
0.00123658
0.00193707
0.00255469
0.00152297
0.00148502
0.0015761
0.00168283
0.00178178
0.00186705
0.00193791
0.00199554
0.00204172
0.00207818
0.00210663
0.0021286
0.00214541
0.00215816
0.00216775
0.00217493
0.00218029
0.00218429
0.0021873
0.00218959
0.00219137
0.00219279
0.00219396
0.00219497
0.00219588
0.00219671
0.00219752
0.00219831
0.00219909
0.00219989
0.0022007
0.00220153
0.00220238
0.00220326
0.00220416
0.0022051
0.00220606
0.00220705
0.00220807
0.00220913
0.00221022
0.00221135
0.00221251
0.00221372
0.00221497
0.00221627
0.00221762
0.002219
0.0022204
0.00222182
0.00222324
0.00222462
0.00222595
0.00222719
0.00222828
0.00222914
0.00222958
0.00222955
0.0022289
0.00222738
0.00222474
0.00222062
0.00221459
0.00220615
0.00219467
0.00217941
0.00215949
0.00213388
0.00210138
0.00206064
0.00201018
0.00194843
0.0018739
0.00178558
0.00168392
0.00157375
0.00147774
0.0014982
0.0024572
0.00304018
0.00175306
0.00164754
0.00170244
0.00178444
0.0018651
0.00193652
0.00199684
0.00204639
0.00208633
0.00211801
0.00214283
0.00216204
0.00217676
0.00218794
0.00219637
0.00220269
0.0022074
0.00221092
0.00221355
0.00221553
0.00221704
0.00221822
0.00221917
0.00221996
0.00222064
0.00222126
0.00222184
0.0022224
0.00222296
0.00222352
0.00222409
0.00222469
0.0022253
0.00222594
0.00222661
0.0022273
0.00222803
0.00222879
0.00222959
0.00223043
0.0022313
0.00223221
0.00223317
0.00223417
0.00223521
0.0022363
0.00223744
0.00223861
0.0022398
0.00224102
0.00224224
0.00224344
0.0022446
0.00224568
0.00224663
0.00224738
0.00224774
0.00224771
0.00224711
0.00224577
0.00224344
0.00223982
0.00223455
0.00222718
0.00221718
0.0022039
0.00218659
0.00216436
0.00213621
0.00210099
0.00205751
0.00200456
0.00194116
0.00186699
0.00178351
0.00169738
0.00163492
0.00171604
0.00289409
0.00345499
0.00194561
0.00178379
0.0018099
0.00187262
0.0019391
0.00199979
0.00205193
0.00209523
0.00213039
0.00215844
0.0021805
0.00219766
0.00221085
0.00222091
0.00222852
0.00223423
0.00223851
0.00224169
0.00224406
0.00224583
0.00224717
0.00224818
0.00224898
0.00224962
0.00225015
0.00225061
0.00225104
0.00225144
0.00225183
0.00225223
0.00225264
0.00225306
0.0022535
0.00225397
0.00225446
0.00225499
0.00225554
0.00225613
0.00225676
0.00225743
0.00225814
0.00225889
0.00225969
0.00226054
0.00226144
0.00226238
0.00226336
0.00226439
0.00226545
0.00226654
0.00226763
0.00226871
0.00226976
0.00227073
0.0022716
0.00227227
0.0022726
0.00227257
0.00227203
0.00227081
0.00226871
0.00226546
0.00226074
0.00225416
0.00224523
0.0022334
0.002218
0.00219826
0.00217331
0.00214219
0.00210391
0.00205755
0.0020025
0.00193894
0.00186914
0.00180122
0.00176439
0.00189474
0.00325859
0.00380754
0.00210586
0.00189664
0.00189948
0.00194693
0.00200228
0.00205457
0.00210028
0.00213866
0.00217006
0.00219526
0.00221519
0.00223074
0.00224275
0.00225194
0.00225891
0.00226417
0.0022681
0.00227103
0.00227321
0.00227483
0.00227603
0.00227693
0.00227762
0.00227815
0.00227857
0.00227892
0.00227923
0.00227951
0.00227979
0.00228006
0.00228034
0.00228064
0.00228095
0.00228129
0.00228166
0.00228205
0.00228248
0.00228295
0.00228345
0.00228399
0.00228458
0.00228522
0.0022859
0.00228664
0.00228742
0.00228826
0.00228914
0.00229006
0.00229103
0.00229201
0.00229302
0.00229401
0.00229497
0.00229588
0.00229668
0.00229731
0.00229762
0.00229759
0.00229709
0.00229598
0.00229406
0.00229109
0.00228678
0.00228079
0.00227267
0.00226193
0.00224797
0.00223011
0.00220758
0.00217956
0.00214522
0.00210385
0.00205511
0.00199955
0.00194001
0.00188622
0.00186931
0.00204
0.00356075
0.0041055
0.00223867
0.00198924
0.00197322
0.00200847
0.00205503
0.00210068
0.00214132
0.00217582
0.00220424
0.00222719
0.00224541
0.00225969
0.00227076
0.00227926
0.00228573
0.00229061
0.00229428
0.00229701
0.00229904
0.00230054
0.00230164
0.00230246
0.00230306
0.00230351
0.00230385
0.00230412
0.00230434
0.00230453
0.00230472
0.0023049
0.00230508
0.00230528
0.0023055
0.00230574
0.00230601
0.00230631
0.00230664
0.002307
0.00230741
0.00230786
0.00230836
0.0023089
0.0023095
0.00231014
0.00231084
0.0023116
0.0023124
0.00231325
0.00231414
0.00231505
0.00231599
0.00231692
0.00231782
0.00231867
0.00231942
0.00232002
0.00232031
0.00232028
0.00231983
0.00231879
0.00231701
0.00231426
0.00231028
0.00230473
0.00229724
0.00228733
0.00227447
0.00225804
0.00223735
0.00221167
0.00218032
0.00214272
0.00209873
0.00204919
0.00199738
0.00195446
0.00195324
0.00215701
0.00380911
0.00435574
0.00234806
0.00206475
0.00203333
0.00205879
0.00209838
0.00213881
0.00217545
0.00220687
0.00223294
0.00225409
0.00227095
0.00228421
0.00229452
0.00230246
0.00230852
0.00231311
0.00231656
0.00231914
0.00232104
0.00232245
0.00232348
0.00232423
0.00232477
0.00232516
0.00232543
0.00232564
0.00232579
0.00232592
0.00232603
0.00232614
0.00232626
0.00232638
0.00232653
0.00232669
0.00232688
0.0023271
0.00232735
0.00232765
0.00232798
0.00232835
0.00232878
0.00232925
0.00232978
0.00233036
0.002331
0.00233169
0.00233243
0.00233322
0.00233405
0.00233491
0.00233579
0.00233667
0.00233753
0.00233834
0.00233906
0.00233963
0.00233991
0.00233989
0.00233946
0.0023385
0.00233683
0.00233425
0.00233051
0.00232531
0.00231829
0.00230902
0.00229699
0.00228165
0.00226235
0.00223844
0.00220932
0.00217454
0.00213411
0.00208909
0.00204316
0.00200823
0.00201959
0.00225029
0.00401101
0.00456439
0.00243759
0.00212593
0.00208192
0.00209953
0.0021336
0.00216991
0.0022034
0.0022324
0.00225661
0.00227633
0.0022921
0.00230455
0.00231425
0.00232174
0.00232747
0.00233181
0.00233509
0.00233753
0.00233934
0.00234068
0.00234165
0.00234234
0.00234284
0.00234318
0.00234341
0.00234357
0.00234367
0.00234374
0.00234381
0.00234387
0.00234393
0.002344
0.00234408
0.00234419
0.00234432
0.00234448
0.00234467
0.00234491
0.00234518
0.0023455
0.00234587
0.00234629
0.00234676
0.0023473
0.00234788
0.00234853
0.00234922
0.00234997
0.00235076
0.00235159
0.00235243
0.00235327
0.0023541
0.00235487
0.00235557
0.00235612
0.00235641
0.0023564
0.00235599
0.00235508
0.0023535
0.00235105
0.00234751
0.00234258
0.00233592
0.00232713
0.00231573
0.00230119
0.00228293
0.00226034
0.00223287
0.00220017
0.00216235
0.00212066
0.00207911
0.00205017
0.00207136
0.00232373
0.00417293
0.00473699
0.00251034
0.00217514
0.00212088
0.00213222
0.00216194
0.00219501
0.00222605
0.00225314
0.00227588
0.00229447
0.00230939
0.00232118
0.00233039
0.00233751
0.00234297
0.00234712
0.00235025
0.00235259
0.00235432
0.0023556
0.00235652
0.00235718
0.00235764
0.00235795
0.00235815
0.00235827
0.00235833
0.00235837
0.0023584
0.00235842
0.00235844
0.00235847
0.00235851
0.00235857
0.00235866
0.00235877
0.00235892
0.00235911
0.00235934
0.00235962
0.00235995
0.00236033
0.00236077
0.00236127
0.00236182
0.00236243
0.0023631
0.00236382
0.00236458
0.00236538
0.0023662
0.00236702
0.00236782
0.00236858
0.00236926
0.00236981
0.00237011
0.0023701
0.00236973
0.00236886
0.00236735
0.00236501
0.00236162
0.00235689
0.00235051
0.00234207
0.00233114
0.0023172
0.00229969
0.00227805
0.00225177
0.00222056
0.00218462
0.00214534
0.00210698
0.0020825
0.00211123
0.00238073
0.00430065
0.00487854
0.00256899
0.00221444
0.0021519
0.00215826
0.00218455
0.00221511
0.00224422
0.00226984
0.00229143
0.00230913
0.00232336
0.00233464
0.00234346
0.00235028
0.00235552
0.00235951
0.00236252
0.00236478
0.00236645
0.00236768
0.00236857
0.0023692
0.00236964
0.00236993
0.00237011
0.00237019
0.00237022
0.00237024
0.00237024
0.00237025
0.00237025
0.00237025
0.00237025
0.00237028
0.00237033
0.00237042
0.00237054
0.00237069
0.0023709
0.00237115
0.00237145
0.00237181
0.00237222
0.0023727
0.00237323
0.00237383
0.00237448
0.00237518
0.00237593
0.00237672
0.00237753
0.00237834
0.00237914
0.00237989
0.00238057
0.00238112
0.00238143
0.00238144
0.0023811
0.00238028
0.00237883
0.00237657
0.00237329
0.00236872
0.00236254
0.00235437
0.00234377
0.00233025
0.00231327
0.00229229
0.00226685
0.00223667
0.00220203
0.00216444
0.00212835
0.00210709
0.00214148
0.00242424
0.00439938
0.0049936
0.00261592
0.0022456
0.00217641
0.00217886
0.00220248
0.00223109
0.00225871
0.00228318
0.00230388
0.00232089
0.00233459
0.00234545
0.00235396
0.00236055
0.00236562
0.00236947
0.00237239
0.00237458
0.0023762
0.00237739
0.00237826
0.00237887
0.00237929
0.00237957
0.00237973
0.0023798
0.00237981
0.0023798
0.00237979
0.00237978
0.00237977
0.00237977
0.00237976
0.00237977
0.0023798
0.00237986
0.00237996
0.0023801
0.00238029
0.00238053
0.00238081
0.00238116
0.00238157
0.00238203
0.00238256
0.00238315
0.0023838
0.0023845
0.00238525
0.00238604
0.00238686
0.00238767
0.00238848
0.00238924
0.00238993
0.0023905
0.00239083
0.00239087
0.00239056
0.00238978
0.00238839
0.00238621
0.00238302
0.00237856
0.00237252
0.00236453
0.00235416
0.00234093
0.0023243
0.00230377
0.00227886
0.00224937
0.00221559
0.00217911
0.00214457
0.00212558
0.00216408
0.00245681
0.00447382
0.00508633
0.00265317
0.00227014
0.00219566
0.00219505
0.00221661
0.00224371
0.00227021
0.00229379
0.00231381
0.00233028
0.00234357
0.00235411
0.00236237
0.00236878
0.0023737
0.00237746
0.0023803
0.00238243
0.00238402
0.00238518
0.00238603
0.00238663
0.00238704
0.00238731
0.00238746
0.00238752
0.00238752
0.00238751
0.00238749
0.00238747
0.00238745
0.00238745
0.00238744
0.00238744
0.00238746
0.00238752
0.00238761
0.00238775
0.00238793
0.00238817
0.00238846
0.0023888
0.00238921
0.00238968
0.00239022
0.00239082
0.00239148
0.0023922
0.00239297
0.00239377
0.0023946
0.00239544
0.00239627
0.00239705
0.00239777
0.00239836
0.00239874
0.00239881
0.00239855
0.00239781
0.00239647
0.00239435
0.00239123
0.00238686
0.00238093
0.00237306
0.00236283
0.00234977
0.00233336
0.00231309
0.0022885
0.0022594
0.00222614
0.00219035
0.00215678
0.00213929
0.00218065
0.00248061
0.00452814
0.00516042
0.00268254
0.00228935
0.00221067
0.00220771
0.0022277
0.00225366
0.00227929
0.00230221
0.0023217
0.00233776
0.00235073
0.00236102
0.00236909
0.00237535
0.00238017
0.00238385
0.00238663
0.00238872
0.00239028
0.00239143
0.00239226
0.00239285
0.00239326
0.00239353
0.00239368
0.00239374
0.00239375
0.00239373
0.00239371
0.00239369
0.00239368
0.00239367
0.00239367
0.00239367
0.0023937
0.00239376
0.00239386
0.002394
0.00239419
0.00239444
0.00239474
0.0023951
0.00239552
0.00239602
0.00239657
0.0023972
0.00239788
0.00239863
0.00239943
0.00240027
0.00240114
0.00240201
0.00240288
0.0024037
0.00240445
0.00240509
0.00240553
0.00240565
0.00240543
0.00240475
0.00240347
0.0024014
0.00239834
0.00239404
0.00238817
0.00238037
0.00237023
0.00235726
0.00234095
0.00232079
0.00229635
0.00226743
0.00223441
0.00219896
0.00216593
0.00214934
0.00219255
0.00249751
0.00456603
0.00521919
0.00270556
0.00230431
0.00222235
0.00221759
0.00223637
0.00226147
0.00228645
0.00230887
0.00232796
0.00234372
0.00235644
0.00236655
0.00237448
0.00238063
0.00238536
0.00238897
0.00239171
0.00239377
0.00239531
0.00239645
0.00239727
0.00239787
0.00239828
0.00239855
0.00239871
0.00239878
0.0023988
0.00239879
0.00239878
0.00239877
0.00239876
0.00239875
0.00239875
0.00239877
0.00239881
0.00239889
0.002399
0.00239916
0.00239937
0.00239964
0.00239997
0.00240036
0.00240081
0.00240134
0.00240193
0.00240259
0.00240332
0.00240411
0.00240496
0.00240585
0.00240677
0.0024077
0.00240862
0.0024095
0.00241031
0.00241101
0.00241152
0.00241171
0.00241155
0.00241093
0.00240971
0.0024077
0.00240469
0.00240043
0.00239461
0.00238685
0.00237673
0.00236378
0.00234748
0.00232733
0.00230289
0.00227398
0.00224099
0.00220562
0.00217279
0.00215662
0.00220089
0.00250903
0.00459072
0.00526554
0.00272356
0.00231593
0.00223142
0.00222528
0.00224315
0.00226761
0.00229211
0.00231415
0.00233296
0.00234849
0.00236103
0.00237099
0.00237881
0.00238487
0.00238955
0.00239311
0.00239582
0.00239786
0.00239939
0.00240052
0.00240134
0.00240194
0.00240235
0.00240263
0.00240281
0.0024029
0.00240293
0.00240295
0.00240295
0.00240295
0.00240294
0.00240294
0.00240296
0.002403
0.00240306
0.00240316
0.00240331
0.0024035
0.00240374
0.00240404
0.0024044
0.00240483
0.00240533
0.0024059
0.00240654
0.00240726
0.00240804
0.00240889
0.0024098
0.00241076
0.00241175
0.00241276
0.00241376
0.00241472
0.00241561
0.00241639
0.00241699
0.00241727
0.00241719
0.00241665
0.00241549
0.00241354
0.00241059
0.00240637
0.00240056
0.00239281
0.00238268
0.00236969
0.00235333
0.00233309
0.00230855
0.00227951
0.00224638
0.00221087
0.00217796
0.00216184
0.00220653
0.00251633
0.00460429
0.00530199
0.00273763
0.00232497
0.00223848
0.00223128
0.00224847
0.00227245
0.00229659
0.00231836
0.00233695
0.00235231
0.00236472
0.00237458
0.00238232
0.00238833
0.00239295
0.00239649
0.00239917
0.0024012
0.00240272
0.00240385
0.00240468
0.00240528
0.0024057
0.002406
0.00240618
0.0024063
0.00240636
0.0024064
0.00240642
0.00240643
0.00240644
0.00240646
0.0024065
0.00240657
0.00240667
0.0024068
0.00240698
0.0024072
0.00240749
0.00240783
0.00240824
0.00240872
0.00240928
0.00240991
0.00241062
0.0024114
0.00241226
0.00241319
0.00241419
0.00241523
0.00241632
0.00241742
0.00241852
0.00241959
0.00242058
0.00242146
0.00242217
0.00242257
0.00242259
0.00242213
0.00242106
0.00241919
0.00241629
0.0024121
0.00240631
0.00239854
0.00238836
0.00237528
0.0023588
0.0023384
0.00231366
0.00228438
0.00225097
0.00221516
0.00218195
0.00216559
0.00221019
0.0025204
0.00460897
0.00533067
0.0027487
0.00233205
0.00224401
0.00223599
0.00225267
0.00227629
0.00230017
0.00232174
0.00234018
0.00235542
0.00236774
0.00237752
0.0023852
0.00239117
0.00239576
0.00239928
0.00240195
0.00240397
0.00240549
0.00240662
0.00240746
0.00240807
0.0024085
0.00240881
0.00240902
0.00240915
0.00240924
0.0024093
0.00240935
0.00240938
0.00240942
0.00240947
0.00240954
0.00240964
0.00240978
0.00240995
0.00241018
0.00241045
0.00241079
0.00241119
0.00241166
0.0024122
0.00241283
0.00241353
0.00241432
0.00241519
0.00241615
0.00241718
0.00241827
0.00241943
0.00242063
0.00242186
0.00242309
0.00242428
0.00242541
0.00242642
0.00242726
0.00242781
0.00242795
0.00242761
0.00242665
0.00242486
0.00242203
0.00241788
0.00241209
0.00240429
0.00239403
0.00238083
0.00236418
0.00234355
0.00231852
0.0022889
0.0022551
0.00221885
0.00218514
0.00216831
0.00221245
0.00252215
0.00460775
0.0053534
0.00275751
0.00233767
0.00224838
0.00223973
0.00225601
0.00227937
0.00230306
0.00232449
0.00234282
0.00235797
0.00237022
0.00237996
0.0023876
0.00239354
0.00239811
0.00240161
0.00240428
0.0024063
0.00240782
0.00240896
0.00240981
0.00241043
0.00241089
0.00241121
0.00241144
0.0024116
0.00241172
0.0024118
0.00241188
0.00241194
0.00241201
0.0024121
0.00241221
0.00241235
0.00241253
0.00241276
0.00241303
0.00241336
0.00241376
0.00241423
0.00241477
0.0024154
0.0024161
0.0024169
0.00241779
0.00241876
0.00241983
0.00242098
0.00242221
0.0024235
0.00242485
0.00242622
0.00242761
0.00242896
0.00243026
0.00243143
0.00243244
0.00243317
0.00243348
0.00243329
0.00243245
0.00243077
0.00242802
0.00242392
0.00241814
0.00241029
0.00239994
0.00238658
0.00236971
0.00234879
0.00232339
0.00229334
0.00225904
0.00222222
0.00218786
0.00217038
0.00221374
0.00252231
0.00460096
0.00537163
0.00276467
0.00234222
0.00225191
0.00224275
0.00225872
0.00228187
0.00230542
0.00232675
0.002345
0.0023601
0.00237231
0.00238201
0.00238963
0.00239555
0.00240011
0.00240361
0.00240628
0.0024083
0.00240983
0.00241098
0.00241184
0.00241248
0.00241296
0.00241331
0.00241356
0.00241375
0.00241389
0.00241401
0.00241411
0.00241421
0.00241432
0.00241445
0.0024146
0.00241479
0.00241502
0.00241531
0.00241564
0.00241604
0.00241651
0.00241706
0.00241769
0.0024184
0.00241921
0.00242012
0.00242112
0.00242222
0.00242342
0.00242472
0.0024261
0.00242756
0.00242908
0.00243064
0.00243222
0.00243378
0.00243527
0.00243666
0.00243787
0.00243883
0.00243934
0.00243933
0.00243866
0.00243712
0.00243447
0.00243043
0.00242467
0.00241677
0.00240631
0.00239277
0.00237562
0.00235435
0.00232853
0.00229796
0.00226305
0.00222554
0.00219038
0.00217206
0.00221434
0.00252111
0.00458981
0.00538656
0.00277065
0.002346
0.00225484
0.00224525
0.00226097
0.00228396
0.0023074
0.00232866
0.00234686
0.00236192
0.00237409
0.00238378
0.00239138
0.00239729
0.00240185
0.00240535
0.00240802
0.00241006
0.0024116
0.00241276
0.00241364
0.0024143
0.00241479
0.00241517
0.00241545
0.00241566
0.00241584
0.00241599
0.00241613
0.00241627
0.00241642
0.00241659
0.0024168
0.00241704
0.00241733
0.00241768
0.00241809
0.00241856
0.00241912
0.00241975
0.00242048
0.0024213
0.00242223
0.00242326
0.0024244
0.00242565
0.00242701
0.00242848
0.00243005
0.00243171
0.00243344
0.00243523
0.00243704
0.00243884
0.0024406
0.00244224
0.00244371
0.00244492
0.00244572
0.00244593
0.00244547
0.00244411
0.00244161
0.00243766
0.00243192
0.00242398
0.00241339
0.00239963
0.00238218
0.0023605
0.00233416
0.00230297
0.00226735
0.00222901
0.00219291
0.00217357
0.00221453
0.00251895
0.00457508
0.00539914
0.00277581
0.00234926
0.00225735
0.00224738
0.00226288
0.00228574
0.0023091
0.0023303
0.00234846
0.00236349
0.00237565
0.00238533
0.00239293
0.00239884
0.0024034
0.00240691
0.00240959
0.00241163
0.00241318
0.00241436
0.00241526
0.00241594
0.00241646
0.00241686
0.00241717
0.00241741
0.00241762
0.00241781
0.00241799
0.00241817
0.00241837
0.00241859
0.00241885
0.00241916
0.00241951
0.00241993
0.00242042
0.00242098
0.00242163
0.00242237
0.00242321
0.00242416
0.00242522
0.0024264
0.0024277
0.00242912
0.00243067
0.00243235
0.00243414
0.00243603
0.00243802
0.00244008
0.00244218
0.00244429
0.00244635
0.00244831
0.0024501
0.00245164
0.00245277
0.00245329
0.0024531
0.00245198
0.00244966
0.00244583
0.00244014
0.00243217
0.00242144
0.00240744
0.00238963
0.00236747
0.00234053
0.00230863
0.00227216
0.00223286
0.00219567
0.00217514
0.00221454
0.00251611
0.00455736
0.0054101
0.00278044
0.00235218
0.00225957
0.00224926
0.00226457
0.00228731
0.0023106
0.00233175
0.00234988
0.0023649
0.00237705
0.00238672
0.00239432
0.00240024
0.00240481
0.00240832
0.00241101
0.00241307
0.00241464
0.00241583
0.00241675
0.00241745
0.002418
0.00241842
0.00241876
0.00241904
0.00241928
0.00241951
0.00241973
0.00241996
0.00242021
0.00242049
0.00242081
0.00242118
0.00242161
0.00242211
0.00242269
0.00242335
0.00242411
0.00242496
0.00242593
0.00242702
0.00242823
0.00242958
0.00243107
0.0024327
0.00243447
0.00243638
0.00243844
0.00244062
0.00244291
0.0024453
0.00244774
0.00245022
0.00245266
0.00245503
0.00245722
0.00245916
0.0024607
0.00246163
0.00246177
0.00246096
0.00245889
0.00245524
0.00244964
0.00244165
0.00243078
0.00241651
0.00239829
0.00237558
0.00234794
0.00231518
0.00227773
0.0022373
0.00219882
0.00217692
0.0022145
0.00251276
0.00453706
0.00541999
0.00278476
0.00235489
0.00226162
0.00225098
0.0022661
0.00228873
0.00231195
0.00233307
0.00235118
0.00236619
0.00237833
0.00238801
0.00239561
0.00240153
0.00240611
0.00240963
0.00241234
0.00241441
0.00241599
0.00241721
0.00241815
0.00241888
0.00241944
0.0024199
0.00242027
0.00242058
0.00242086
0.00242113
0.00242139
0.00242167
0.00242197
0.00242231
0.0024227
0.00242315
0.00242366
0.00242425
0.00242493
0.0024257
0.00242657
0.00242756
0.00242867
0.00242992
0.00243131
0.00243286
0.00243456
0.00243642
0.00243845
0.00244065
0.00244301
0.00244553
0.00244819
0.00245097
0.00245384
0.00245676
0.00245968
0.00246254
0.00246523
0.00246768
0.00246973
0.00247118
0.00247177
0.00247136
0.00246963
0.00246624
0.00246077
0.00245279
0.00244179
0.00242722
0.00240853
0.00238517
0.0023567
0.00232295
0.00228433
0.00224257
0.00220258
0.00217908
0.00221455
0.00250907
0.00451448
0.00542926
0.00278891
0.00235749
0.00226357
0.0022526
0.00226753
0.00229006
0.00231322
0.0023343
0.00235239
0.00236739
0.00237954
0.00238921
0.00239682
0.00240275
0.00240734
0.00241088
0.0024136
0.00241568
0.00241729
0.00241852
0.00241948
0.00242023
0.00242083
0.00242131
0.00242171
0.00242206
0.00242238
0.00242268
0.002423
0.00242333
0.00242369
0.0024241
0.00242456
0.00242508
0.00242568
0.00242637
0.00242716
0.00242805
0.00242905
0.00243019
0.00243147
0.0024329
0.00243449
0.00243625
0.0024382
0.00244034
0.00244267
0.0024452
0.00244793
0.00245085
0.00245395
0.0024572
0.00246059
0.00246406
0.00246756
0.00247102
0.00247435
0.00247744
0.00248013
0.00248224
0.00248344
0.00248355
0.00248228
0.00247924
0.00247399
0.00246607
0.00245494
0.00244005
0.00242082
0.00239669
0.00236724
0.0023323
0.00229228
0.00224894
0.00220717
0.0021818
0.00221485
0.00250516
0.00448983
0.00543821
0.00279301
0.00236005
0.00226548
0.00225418
0.00226892
0.00229134
0.00231443
0.00233547
0.00235355
0.00236854
0.00238069
0.00239037
0.00239798
0.00240392
0.00240853
0.00241208
0.00241481
0.00241691
0.00241853
0.00241979
0.00242077
0.00242154
0.00242216
0.00242268
0.00242311
0.00242349
0.00242385
0.0024242
0.00242457
0.00242495
0.00242538
0.00242585
0.00242639
0.002427
0.0024277
0.0024285
0.0024294
0.00243042
0.00243158
0.00243288
0.00243434
0.00243597
0.00243779
0.00243981
0.00244204
0.00244449
0.00244717
0.00245009
0.00245325
0.00245665
0.00246027
0.0024641
0.00246811
0.00247225
0.00247647
0.00248069
0.00248482
0.00248872
0.00249223
0.00249516
0.0024972
0.002498
0.00249735
0.0024948
0.00248988
0.00248209
0.00247087
0.00245562
0.00243576
0.00241073
0.0023801
0.00234371
0.00230201
0.00225676
0.00221287
0.00218529
0.00221556
0.00250116
0.00446332
0.00544707
0.00279715
0.00236264
0.00226739
0.00225574
0.00227029
0.00229259
0.00231562
0.00233662
0.00235468
0.00236966
0.00238181
0.00239149
0.00239912
0.00240507
0.00240968
0.00241325
0.00241599
0.00241811
0.00241975
0.00242103
0.00242203
0.00242283
0.00242347
0.00242401
0.00242448
0.0024249
0.0024253
0.0024257
0.00242611
0.00242656
0.00242705
0.0024276
0.00242822
0.00242892
0.00242972
0.00243063
0.00243166
0.00243283
0.00243415
0.00243563
0.0024373
0.00243916
0.00244123
0.00244354
0.00244609
0.00244891
0.002452
0.00245538
0.00245904
0.00246301
0.00246725
0.00247177
0.00247654
0.00248151
0.00248662
0.00249179
0.00249692
0.00250186
0.00250643
0.00251042
0.00251354
0.00251531
0.00251549
0.00251364
0.00250922
0.00250168
0.0024904
0.00247478
0.00245419
0.00242806
0.00239599
0.00235783
0.00231406
0.00226648
0.00222002
0.00218983
0.00221686
0.00249722
0.00443512
0.005456
0.00280139
0.00236529
0.00226934
0.00225733
0.00227167
0.00229385
0.0023168
0.00233777
0.0023558
0.00237078
0.00238292
0.00239261
0.00240024
0.0024062
0.00241083
0.00241441
0.00241717
0.0024193
0.00242096
0.00242225
0.00242328
0.0024241
0.00242477
0.00242534
0.00242583
0.00242629
0.00242673
0.00242718
0.00242765
0.00242815
0.00242871
0.00242934
0.00243005
0.00243085
0.00243176
0.00243279
0.00243397
0.00243529
0.00243679
0.00243847
0.00244036
0.00244248
0.00244484
0.00244748
0.0024504
0.00245363
0.0024572
0.0024611
0.00246537
0.00247
0.002475
0.00248036
0.00248605
0.00249203
0.00249825
0.00250462
0.00251102
0.00251729
0.00252325
0.00252864
0.00253313
0.00253629
0.00253759
0.00253673
0.00253306
0.00252594
0.00251471
0.00249869
0.00247723
0.00244978
0.00241591
0.00237553
0.00232918
0.0022787
0.00222909
0.00219575
0.002219
0.00249349
0.00440547
0.00546514
0.00280578
0.00236803
0.00227134
0.00225896
0.00227308
0.00229513
0.002318
0.00233893
0.00235694
0.0023719
0.00238404
0.00239373
0.00240137
0.00240734
0.00241198
0.00241556
0.00241834
0.00242049
0.00242216
0.00242347
0.00242451
0.00242536
0.00242605
0.00242665
0.00242718
0.00242767
0.00242816
0.00242865
0.00242917
0.00242974
0.00243037
0.00243108
0.00243188
0.00243279
0.00243382
0.00243498
0.00243631
0.0024378
0.00243949
0.0024414
0.00244354
0.00244594
0.00244863
0.00245163
0.00245498
0.00245869
0.0024628
0.00246733
0.0024723
0.00247773
0.00248363
0.00248999
0.00249681
0.00250405
0.00251165
0.00251953
0.00252756
0.00253557
0.00254333
0.00255057
0.00255693
0.00256194
0.0025649
0.00256542
0.00256286
0.00255644
0.0025454
0.002529
0.00250653
0.00247742
0.00244128
0.00239806
0.0023484
0.00229426
0.0022407
0.00220352
0.00222228
0.0024902
0.00437471
0.00547456
0.00281034
0.00237088
0.00227342
0.00226064
0.00227453
0.00229644
0.00231924
0.00234011
0.00235809
0.00237304
0.00238518
0.00239487
0.00240251
0.00240849
0.00241313
0.00241673
0.00241952
0.00242168
0.00242337
0.00242469
0.00242575
0.00242661
0.00242733
0.00242796
0.00242852
0.00242905
0.00242958
0.00243012
0.0024307
0.00243133
0.00243203
0.00243283
0.00243372
0.00243474
0.00243589
0.0024372
0.00243869
0.00244037
0.00244227
0.00244441
0.00244683
0.00244955
0.00245261
0.00245603
0.00245985
0.00246411
0.00246885
0.0024741
0.00247991
0.00248628
0.00249326
0.00250085
0.00250906
0.00251785
0.00252718
0.00253698
0.0025471
0.00255737
0.00256754
0.00257727
0.00258615
0.00259366
0.00259909
0.00260157
0.00260069
0.00259541
0.00258483
0.0025681
0.00254443
0.00251323
0.00247414
0.00242723
0.00237325
0.00231434
0.00225574
0.00221376
0.00222714
0.0024876
0.00434335
0.00548434
0.0028151
0.00237385
0.0022756
0.0022624
0.00227604
0.0022978
0.00232051
0.00234133
0.00235928
0.00237421
0.00238634
0.00239603
0.00240368
0.00240966
0.00241431
0.00241791
0.00242071
0.00242288
0.00242458
0.00242592
0.002427
0.00242788
0.00242862
0.00242927
0.00242986
0.00243043
0.00243099
0.00243158
0.00243222
0.00243292
0.00243369
0.00243457
0.00243557
0.0024367
0.00243798
0.00243944
0.0024411
0.00244298
0.00244511
0.00244752
0.00245024
0.00245332
0.00245677
0.00246066
0.00246503
0.00246992
0.00247539
0.00248149
0.00248826
0.00249577
0.00250405
0.00251313
0.00252303
0.00253377
0.00254529
0.00255753
0.00257037
0.00258362
0.00259699
0.00261011
0.00262248
0.00263349
0.00264237
0.00264794
0.00264948
0.00264608
0.00263644
0.00261954
0.00259447
0.00256059
0.0025176
0.00246572
0.00240595
0.00234071
0.00227551
0.0022274
0.00223419
0.00248632
0.00431214
0.00549453
0.00282008
0.00237697
0.00227787
0.00226423
0.00227761
0.00229922
0.00232183
0.00234259
0.0023605
0.00237542
0.00238754
0.00239722
0.00240487
0.00241085
0.00241551
0.00241912
0.00242192
0.0024241
0.00242581
0.00242716
0.00242825
0.00242915
0.00242991
0.00243058
0.0024312
0.0024318
0.00243241
0.00243304
0.00243373
0.0024345
0.00243535
0.00243632
0.00243742
0.00243867
0.00244009
0.00244171
0.00244355
0.00244564
0.00244802
0.00245072
0.00245377
0.00245723
0.00246114
0.00246555
0.00247053
0.00247614
0.00248245
0.00248953
0.00249746
0.0025063
0.00251614