/*--------------------------------*- C++ -*----------------------------------*\
  =========                 |
  \\      /  F ield         | OpenFOAM: The Open Source CFD Toolbox
   \\    /   O peration     | Website:  https://openfoam.org
    \\  /    A nd           | Version:  13
     \\/     M anipulation  |
\*---------------------------------------------------------------------------*/
FoamFile
{
    format      ascii;
    class       volScalarField;
    location    "0.4";
    object      k;
}
// * * * * * * * * * * * * * * * * * * * * * * * * * * * * * * * * * * * * * //

dimensions      [0 2 -2 0 0 0 0];

internalField   nonuniform List<scalar> 
6400
(
2.81974e-06
1.30661e-05
2.59488e-05
3.78998e-05
4.81729e-05
5.68443e-05
6.41222e-05
7.02025e-05
7.52524e-05
7.94159e-05
8.2819e-05
8.55747e-05
8.77844e-05
8.95392e-05
9.09204e-05
9.19994e-05
9.28381e-05
9.34889e-05
9.39957e-05
9.43942e-05
9.4713e-05
9.49745e-05
9.51959e-05
9.53902e-05
9.55669e-05
9.5733e-05
9.58937e-05
9.60525e-05
9.62119e-05
9.63737e-05
9.65392e-05
9.67091e-05
9.68842e-05
9.70649e-05
9.72514e-05
9.7444e-05
9.76429e-05
9.78481e-05
9.80598e-05
9.82778e-05
9.85021e-05
9.87326e-05
9.89689e-05
9.92106e-05
9.94567e-05
9.97058e-05
9.99567e-05
0.000100217
0.000100492
0.000100769
0.000101048
0.000101327
0.000101602
0.00010187
0.000102124
0.000102357
0.000102559
0.000102717
0.00010281
0.000102827
0.000102736
0.000102504
0.000102093
0.000101459
0.000100551
9.93084e-05
9.76657e-05
9.55492e-05
9.28784e-05
8.95647e-05
8.55119e-05
8.06144e-05
7.4756e-05
6.78064e-05
5.96207e-05
5.00417e-05
3.89326e-05
2.63295e-05
1.30942e-05
2.81606e-06
1.3099e-05
9.98865e-05
0.000189149
0.000262138
0.000320529
0.000367561
0.000405726
0.000436813
0.000462139
0.000482714
0.000499348
0.00051271
0.000523367
0.000531803
0.000538433
0.000543611
0.00054764
0.000550771
0.000553214
0.000555138
0.000556679
0.000557942
0.00055901
0.000559945
0.000560792
0.000561586
0.000562351
0.000563104
0.000563858
0.000564621
0.0005654
0.000566199
0.00056702
0.000567866
0.000568739
0.000569638
0.000570566
0.000571522
0.000572507
0.00057352
0.00057456
0.000575628
0.000576722
0.00057784
0.000578978
0.000580131
0.000581288
0.00058243
0.00058356
0.000584692
0.000585822
0.00058694
0.000588032
0.000589077
0.000590049
0.000590911
0.00059162
0.0005921
0.000592281
0.000592099
0.000591403
0.000590054
0.000587881
0.000584681
0.000580218
0.00057422
0.000566375
0.000556326
0.000543666
0.000527928
0.000508569
0.000484947
0.000456286
0.000421619
0.000379689
0.000328822
0.00026676
0.000190726
9.97635e-05
1.30351e-05
2.62477e-05
0.000190585
0.00033461
0.000442983
0.000527418
0.000594774
0.000649159
0.000693313
0.000729204
0.000758327
0.000781863
0.000800778
0.000815879
0.00082785
0.000837273
0.000844642
0.000850376
0.000854826
0.000858283
0.000860985
0.000863121
0.000864843
0.000866268
0.000867486
0.000868565
0.000869554
0.00087049
0.0008714
0.000872302
0.000873209
0.000874131
0.000875075
0.000876045
0.000877044
0.000878075
0.000879138
0.000880236
0.000881369
0.000882538
0.000883741
0.00088498
0.000886253
0.000887559
0.000888897
0.000890262
0.000891652
0.000893061
0.000894484
0.000895917
0.000897355
0.000898787
0.000900199
0.000901566
0.000902859
0.000904037
0.000905048
0.000905825
0.000906251
0.000906275
0.000905738
0.000904469
0.000902272
0.000898914
0.000894119
0.00088757
0.000878897
0.000867677
0.000853426
0.000835585
0.000813508
0.000786432
0.000753448
0.000713438
0.000664987
0.000606224
0.000534547
0.000446065
0.000334323
0.000188478
2.58512e-05
3.87312e-05
0.000266191
0.000445837
0.000574766
0.000673873
0.000752744
0.00081649
0.000868348
0.000910604
0.000944982
0.000972851
0.000995326
0.00101334
0.00102768
0.00103902
0.00104793
0.00105488
0.00106029
0.0010645
0.00106778
0.00107035
0.00107241
0.00107409
0.00107549
0.00107671
0.00107781
0.00107883
0.00107981
0.00108077
0.00108173
0.0010827
0.00108368
0.0010847
0.00108574
0.00108682
0.00108794
0.00108909
0.00109028
0.00109151
0.00109278
0.00109409
0.00109544
0.00109682
0.00109824
0.0010997
0.00110118
0.0011027
0.00110423
0.00110577
0.00110732
0.00110886
0.00111036
0.0011118
0.00111314
0.00111433
0.0011153
0.00111596
0.00111621
0.00111594
0.00111497
0.00111312
0.00111015
0.00110579
0.00109973
0.00109161
0.001081
0.00106743
0.00105035
0.00102911
0.00100299
0.000971107
0.00093243
0.000885676
0.000829213
0.000760873
0.000677561
0.000574364
0.000442035
0.000260768
3.76811e-05
4.97073e-05
0.000327785
0.000533793
0.000677432
0.000786802
0.00087369
0.000944015
0.00100138
0.00104827
0.00108656
0.00111773
0.00114298
0.00116331
0.00117957
0.0011925
0.0012027
0.00121071
0.00121696
0.00122183
0.00122563
0.0012286
0.00123096
0.00123286
0.00123443
0.00123577
0.00123696
0.00123804
0.00123906
0.00124004
0.00124102
0.001242
0.001243
0.00124403
0.00124508
0.00124617
0.00124729
0.00124846
0.00124966
0.00125091
0.0012522
0.00125353
0.0012549
0.00125632
0.00125777
0.00125926
0.00126079
0.00126234
0.00126391
0.0012655
0.00126709
0.00126865
0.00127017
0.0012716
0.00127291
0.00127403
0.00127488
0.00127534
0.00127534
0.00127472
0.00127329
0.00127083
0.00126711
0.00126182
0.00125462
0.00124512
0.00123286
0.00121734
0.00119796
0.00117404
0.00114478
0.00110927
0.00106638
0.00101474
0.000952597
0.000877568
0.000786191
0.000672724
0.000525704
0.00031839
4.78041e-05
5.91613e-05
0.000378216
0.000604984
0.000760249
0.000877676
0.000970821
0.00104629
0.001108
0.00115861
0.0012001
0.001234
0.00126158
0.0012839
0.00130185
0.00131619
0.00132756
0.00133652
0.00134355
0.00134904
0.00135333
0.00135669
0.00135933
0.00136145
0.00136318
0.00136463
0.00136589
0.00136701
0.00136806
0.00136906
0.00137004
0.00137102
0.00137202
0.00137303
0.00137407
0.00137515
0.00137626
0.00137741
0.00137861
0.00137985
0.00138113
0.00138246
0.00138383
0.00138524
0.0013867
0.00138819
0.00138972
0.00139128
0.00139286
0.00139445
0.00139603
0.00139757
0.00139906
0.00140044
0.00140166
0.00140266
0.00140333
0.00140357
0.00140327
0.00140226
0.00140034
0.00139728
0.00139281
0.00138662
0.00137834
0.00136757
0.00135382
0.00133657
0.00131518
0.00128896
0.00125708
0.00121858
0.00117228
0.00111674
0.00105012
0.000969884
0.000872236
0.000750744
0.000592212
0.000364624
5.6309e-05
6.72416e-05
0.00041978
0.000663331
0.000828153
0.000952252
0.00105059
0.00113034
0.00119569
0.00124944
0.00129366
0.00132993
0.00135957
0.00138366
0.00140312
0.00141873
0.00143118
0.00144104
0.0014488
0.00145488
0.00145964
0.00146336
0.00146628
0.00146861
0.00147049
0.00147204
0.00147337
0.00147454
0.00147561
0.00147661
0.00147759
0.00147855
0.00147953
0.00148052
0.00148153
0.00148258
0.00148367
0.0014848
0.00148596
0.00148718
0.00148843
0.00148974
0.00149109
0.00149248
0.00149391
0.00149539
0.0014969
0.00149844
0.00149999
0.00150155
0.00150309
0.00150459
0.00150601
0.0015073
0.0015084
0.00150924
0.0015097
0.0015097
0.00150907
0.00150765
0.00150523
0.00150155
0.00149635
0.00148928
0.00147997
0.001468
0.00145288
0.00143404
0.00141086
0.0013826
0.00134842
0.00130733
0.00125812
0.00119931
0.00112897
0.00104442
0.000941611
0.000813534
0.00064566
0.000401956
6.34063e-05
7.41113e-05
0.00045417
0.000711461
0.000884267
0.00101402
0.00111679
0.00120023
0.00126873
0.00132523
0.00137184
0.00141022
0.00144169
0.00146738
0.00148822
0.00150502
0.00151846
0.00152916
0.00153761
0.00154425
0.00154945
0.00155353
0.00155672
0.00155925
0.00156127
0.00156293
0.00156432
0.00156552
0.00156661
0.00156761
0.00156857
0.00156952
0.00157046
0.00157142
0.0015724
0.00157341
0.00157446
0.00157555
0.00157668
0.00157785
0.00157907
0.00158033
0.00158164
0.001583
0.00158439
0.00158583
0.0015873
0.0015888
0.00159031
0.00159181
0.00159329
0.00159472
0.00159604
0.00159722
0.00159818
0.00159883
0.00159907
0.00159879
0.00159782
0.00159598
0.00159304
0.00158875
0.00158282
0.00157491
0.00156462
0.00155152
0.0015351
0.00151481
0.00148998
0.00145988
0.00142365
0.00138027
0.00132852
0.00126687
0.00119332
0.00110509
0.000997911
0.000864325
0.000688782
0.000432157
6.92913e-05
7.99194e-05
0.000482655
0.000751264
0.000930785
0.00106539
0.00117201
0.00125867
0.00132995
0.00138888
0.00143763
0.0014779
0.00151104
0.00153818
0.00156028
0.00157817
0.00159255
0.00160402
0.00161312
0.0016203
0.00162593
0.00163034
0.00163379
0.00163651
0.00163867
0.00164042
0.00164187
0.00164311
0.00164421
0.0016452
0.00164615
0.00164706
0.00164797
0.00164889
0.00164983
0.00165079
0.00165179
0.00165283
0.00165391
0.00165503
0.0016562
0.00165742
0.00165868
0.00165998
0.00166133
0.00166271
0.00166413
0.00166557
0.00166701
0.00166845
0.00166985
0.00167118
0.0016724
0.00167344
0.00167424
0.00167468
0.00167469
0.00167411
0.00167278
0.00167051
0.00166706
0.00166218
0.00165554
0.00164681
0.00163558
0.00162141
0.00160379
0.00158213
0.00155579
0.00152401
0.00148592
0.00144049
0.00138648
0.00132232
0.00124597
0.00115455
0.00104363
0.0009054
0.000723542
0.000456533
7.41299e-05
8.47992e-05
0.000506219
0.000784178
0.000969362
0.00110814
0.00121812
0.00130762
0.00138137
0.00144247
0.00149315
0.00153513
0.00156978
0.00159825
0.00162152
0.00164042
0.00165565
0.00166786
0.00167757
0.00168524
0.00169128
0.001696
0.0016997
0.00170261
0.0017049
0.00170674
0.00170825
0.00170952
0.00171062
0.00171161
0.00171253
0.00171341
0.00171428
0.00171515
0.00171604
0.00171695
0.0017179
0.00171888
0.0017199
0.00172097
0.00172208
0.00172323
0.00172443
0.00172568
0.00172696
0.00172828
0.00172963
0.001731
0.00173237
0.00173373
0.00173504
0.00173626
0.00173735
0.00173825
0.00173887
0.0017391
0.00173886
0.00173798
0.00173629
0.00173359
0.00172964
0.00172416
0.00171684
0.00170733
0.00169521
0.00168003
0.00166128
0.00163836
0.00161062
0.0015773
0.00153752
0.00149024
0.0014342
0.00136781
0.00128898
0.00119477
0.00108063
0.000938485
0.00075143
0.000476085
7.80648e-05
8.88699e-05
0.000525648
0.000811338
0.0010013
0.00114366
0.00125659
0.0013486
0.00142455
0.00148761
0.00154003
0.00158355
0.00161958
0.00164927
0.0016736
0.00169343
0.00170946
0.00172234
0.00173262
0.00174076
0.00174718
0.00175221
0.00175614
0.00175922
0.00176164
0.00176356
0.00176512
0.00176641
0.00176751
0.00176849
0.00176938
0.00177023
0.00177106
0.00177188
0.00177272
0.00177357
0.00177446
0.00177538
0.00177634
0.00177734
0.00177839
0.00177948
0.00178061
0.00178179
0.00178301
0.00178426
0.00178553
0.00178682
0.00178811
0.00178937
0.00179058
0.00179169
0.00179265
0.00179339
0.00179381
0.00179384
0.00179334
0.00179215
0.00179011
0.00178698
0.00178254
0.00177649
0.00176852
0.00175826
0.0017453
0.00172917
0.00170936
0.00168527
0.00165625
0.00162152
0.00158019
0.00153123
0.00147336
0.00140497
0.00132396
0.00122731
0.00111039
0.000964945
0.000773626
0.000491617
8.12214e-05
9.22386e-05
0.000541595
0.000833668
0.00102766
0.00117311
0.0012886
0.00138284
0.00146075
0.00152556
0.00157955
0.00162448
0.00166175
0.00169255
0.00171786
0.00173854
0.00175531
0.00176882
0.00177962
0.0017882
0.00179496
0.00180027
0.00180442
0.00180766
0.0018102
0.00181221
0.00181381
0.00181512
0.00181623
0.00181719
0.00181805
0.00181886
0.00181964
0.00182042
0.0018212
0.00182199
0.00182282
0.00182368
0.00182457
0.00182551
0.00182649
0.00182751
0.00182857
0.00182968
0.00183082
0.001832
0.00183319
0.0018344
0.0018356
0.00183677
0.00183787
0.00183885
0.00183968
0.00184025
0.00184049
0.0018403
0.00183954
0.00183805
0.00183565
0.00183212
0.0018272
0.00182061
0.00181202
0.00180105
0.00178729
0.00177028
0.00174948
0.00172431
0.00169409
0.00165806
0.00161534
0.00156485
0.00150534
0.00143517
0.00135221
0.00125344
0.00113412
0.000985902
0.000791093
0.000503794
8.37122e-05
9.50029e-05
0.000554608
0.00085194
0.00104932
0.00119743
0.00131516
0.00141135
0.00149101
0.00155739
0.00161278
0.00165898
0.00169739
0.0017292
0.0017554
0.00177685
0.00179429
0.00180837
0.00181966
0.00182864
0.00183573
0.0018413
0.00184565
0.00184905
0.00185169
0.00185377
0.00185542
0.00185675
0.00185785
0.00185879
0.00185963
0.0018604
0.00186114
0.00186186
0.00186258
0.00186332
0.00186409
0.00186488
0.00186571
0.00186658
0.00186749
0.00186844
0.00186943
0.00187046
0.00187153
0.00187263
0.00187375
0.00187487
0.00187598
0.00187704
0.00187804
0.0018789
0.00187958
0.00187999
0.00188005
0.00187964
0.00187863
0.00187686
0.00187411
0.00187019
0.00186481
0.0018577
0.00184852
0.00183688
0.00182238
0.00180454
0.00178282
0.00175665
0.00172534
0.00168813
0.00164412
0.00159226
0.00153126
0.00145951
0.00137484
0.0012742
0.00115283
0.00100229
0.000804641
0.000513181
8.56385e-05
9.72513e-05
0.000565161
0.000866809
0.00106704
0.00121741
0.00133709
0.001435
0.00151621
0.00158398
0.00164064
0.00168797
0.00172741
0.00176012
0.00178713
0.00180928
0.00182734
0.00184195
0.00185368
0.00186302
0.00187042
0.00187622
0.00188076
0.00188429
0.00188704
0.00188918
0.00189087
0.00189222
0.00189332
0.00189424
0.00189505
0.00189579
0.00189648
0.00189715
0.00189781
0.0018985
0.0018992
0.00189993
0.00190069
0.0019015
0.00190234
0.00190322
0.00190414
0.0019051
0.0019061
0.00190712
0.00190815
0.00190919
0.00191021
0.00191118
0.00191206
0.00191281
0.00191335
0.0019136
0.00191348
0.00191287
0.00191162
0.00190956
0.00190649
0.00190219
0.00189638
0.00188878
0.00187904
0.00186678
0.00185158
0.00183297
0.00181041
0.00178332
0.001751
0.00171271
0.00166754
0.00161443
0.0015521
0.00147893
0.00139275
0.0012905
0.00116738
0.00101489
0.000814954
0.00052026
8.70914e-05
9.90641e-05
0.00057366
0.000878838
0.00108145
0.00123375
0.00135511
0.00145453
0.00153711
0.00160611
0.0016639
0.00171225
0.00175259
0.00178613
0.00181386
0.00183665
0.00185526
0.00187034
0.00188247
0.00189215
0.00189982
0.00190584
0.00191055
0.00191421
0.00191705
0.00191925
0.00192097
0.00192233
0.00192342
0.00192433
0.00192511
0.00192581
0.00192646
0.00192708
0.0019277
0.00192832
0.00192897
0.00192964
0.00193034
0.00193108
0.00193185
0.00193267
0.00193352
0.00193441
0.00193534
0.00193629
0.00193725
0.00193821
0.00193914
0.00194002
0.0019408
0.00194143
0.00194183
0.00194194
0.00194165
0.00194084
0.00193936
0.00193703
0.00193366
0.001929
0.00192279
0.00191473
0.00190447
0.00189163
0.00187579
0.00185646
0.00183313
0.00180518
0.00177195
0.00173266
0.00168644
0.00163221
0.00156869
0.00149426
0.00140675
0.0013031
0.00117849
0.00102439
0.000822613
0.000525447
8.81521e-05
0.000100514
0.000580461
0.000888509
0.0010931
0.00124704
0.00136985
0.00147058
0.00155435
0.00162444
0.00168322
0.00173247
0.00177364
0.0018079
0.00183628
0.00185964
0.00187875
0.00189425
0.00190674
0.00191672
0.00192464
0.00193086
0.00193572
0.00193949
0.00194241
0.00194466
0.00194641
0.00194779
0.00194888
0.00194977
0.00195052
0.00195119
0.00195179
0.00195237
0.00195294
0.00195351
0.0019541
0.00195471
0.00195536
0.00195604
0.00195675
0.00195751
0.0019583
0.00195913
0.00195999
0.00196087
0.00196176
0.00196264
0.00196349
0.00196429
0.00196497
0.00196549
0.00196577
0.00196575
0.0019653
0.00196431
0.00196261
0.00196004
0.00195638
0.00195139
0.00194481
0.00193632
0.00192558
0.00191221
0.00189576
0.00187578
0.00185172
0.001823
0.00178893
0.00174874
0.00170156
0.00164632
0.00158174
0.00150619
0.00141752
0.00131265
0.00118678
0.00103135
0.000828114
0.000529096
8.88922e-05
0.000101664
0.00058587
0.00089624
0.00110248
0.0012578
0.00138184
0.0014837
0.00156851
0.00163956
0.00169921
0.00174926
0.00179114
0.00182605
0.001855
0.00187887
0.00189841
0.0019143
0.00192711
0.00193736
0.00194549
0.00195189
0.00195688
0.00196076
0.00196375
0.00196605
0.00196783
0.00196921
0.0019703
0.00197117
0.0019719
0.00197253
0.0019731
0.00197364
0.00197416
0.00197468
0.00197522
0.00197579
0.00197638
0.00197701
0.00197767
0.00197837
0.00197911
0.00197988
0.00198068
0.0019815
0.00198233
0.00198315
0.00198393
0.00198464
0.00198525
0.00198567
0.00198584
0.00198569
0.0019851
0.00198394
0.00198205
0.00197926
0.00197533
0.00197005
0.00196312
0.00195424
0.00194305
0.00192918
0.00191219
0.0018916
0.00186689
0.00183745
0.00180261
0.00176161
0.00171355
0.0016574
0.00159186
0.00151532
0.00142563
0.00131972
0.00119278
0.00103626
0.000831875
0.000531514
8.9375e-05
0.000102572
0.000590154
0.000902393
0.00110998
0.00126646
0.00139155
0.00149438
0.00158008
0.00165196
0.00171237
0.00176311
0.00180563
0.0018411
0.00187056
0.00189487
0.0019148
0.00193102
0.00194412
0.0019546
0.00196293
0.00196948
0.00197459
0.00197856
0.00198161
0.00198396
0.00198576
0.00198715
0.00198823
0.00198909
0.0019898
0.0019904
0.00199094
0.00199144
0.00199192
0.0019924
0.0019929
0.00199342
0.00199397
0.00199455
0.00199516
0.00199582
0.00199651
0.00199723
0.00199798
0.00199875
0.00199953
0.00200029
0.00200102
0.00200167
0.0020022
0.00200254
0.00200262
0.00200237
0.00200165
0.00200035
0.00199829
0.00199528
0.00199113
0.00198557
0.00197832
0.00196908
0.00195749
0.00194317
0.00192567
0.00190453
0.00187921
0.00184911
0.00181357
0.00177182
0.00172298
0.001666
0.0015996
0.00152219
0.0014316
0.00132478
0.00119693
0.00103951
0.000834244
0.000532915
8.96404e-05
0.000103286
0.000593538
0.000907273
0.00111596
0.00127341
0.00139939
0.00150304
0.0015895
0.00166209
0.00172316
0.00177451
0.00181756
0.00185353
0.00188343
0.00190813
0.0019284
0.00194491
0.00195825
0.00196894
0.00197743
0.00198412
0.00198934
0.00199338
0.00199649
0.00199887
0.0020007
0.00200209
0.00200317
0.00200402
0.00200471
0.00200529
0.0020058
0.00200626
0.00200671
0.00200716
0.00200762
0.00200811
0.00200862
0.00200916
0.00200974
0.00201035
0.00201101
0.00201169
0.00201241
0.00201314
0.00201388
0.0020146
0.00201528
0.00201588
0.00201636
0.00201663
0.00201664
0.0020163
0.00201548
0.00201405
0.00201184
0.00200866
0.0020043
0.00199849
0.00199097
0.0019814
0.00196945
0.00195471
0.00193675
0.0019151
0.00188922
0.00185852
0.00182233
0.00177989
0.00173033
0.0016726
0.00160543
0.00152722
0.00143583
0.00132822
0.00119961
0.00104144
0.000835449
0.000533477
8.97321e-05
0.000103849
0.000596215
0.000911143
0.00112073
0.00127897
0.00140569
0.00151003
0.00159715
0.00167034
0.00173197
0.00178383
0.00182736
0.00186375
0.00189403
0.00191906
0.00193962
0.00195638
0.00196994
0.0019808
0.00198944
0.00199624
0.00200155
0.00200566
0.00200882
0.00201124
0.00201307
0.00201448
0.00201555
0.0020164
0.00201707
0.00201763
0.00201811
0.00201856
0.00201898
0.0020194
0.00201983
0.00202029
0.00202077
0.00202128
0.00202184
0.00202242
0.00202305
0.00202371
0.0020244
0.00202511
0.00202582
0.00202652
0.00202717
0.00202774
0.00202818
0.0020284
0.00202836
0.00202796
0.00202706
0.00202552
0.00202319
0.00201987
0.00201532
0.00200931
0.00200153
0.00199168
0.00197939
0.00196427
0.00194589
0.00192377
0.00189738
0.00186612
0.00182934
0.00178627
0.00173604
0.00167761
0.00160973
0.0015308
0.0014387
0.00133039
0.00120109
0.00104229
0.000835794
0.000533487
8.97086e-05
0.000104295
0.000598344
0.000914222
0.00112454
0.00128343
0.00141076
0.00151568
0.00160334
0.00167705
0.00173915
0.00179144
0.00183537
0.00187212
0.00190272
0.00192804
0.00194885
0.00196582
0.00197956
0.00199058
0.00199934
0.00200624
0.00201162
0.00201579
0.00201899
0.00202143
0.00202329
0.00202469
0.00202577
0.0020266
0.00202727
0.00202781
0.00202828
0.0020287
0.00202911
0.00202951
0.00202992
0.00203036
0.00203082
0.00203132
0.00203185
0.00203242
0.00203304
0.00203368
0.00203436
0.00203506
0.00203576
0.00203645
0.00203709
0.00203765
0.00203807
0.00203827
0.0020382
0.00203775
0.0020368
0.0020352
0.00203277
0.00202933
0.00202464
0.00201844
0.00201045
0.00200034
0.00198776
0.0019723
0.00195354
0.00193099
0.00190412
0.00187234
0.00183499
0.00179133
0.00174047
0.0016814
0.00161286
0.00153327
0.00144051
0.00133155
0.00120166
0.00104236
0.000835483
0.000532994
8.95762e-05
0.000104652
0.000600059
0.000916692
0.00112759
0.00128702
0.00141484
0.00152024
0.00160836
0.00168249
0.00174499
0.00179765
0.00184191
0.00187896
0.00190983
0.00193539
0.00195641
0.00197356
0.00198745
0.00199859
0.00200745
0.00201444
0.00201989
0.0020241
0.00202734
0.0020298
0.00203167
0.00203309
0.00203416
0.00203499
0.00203565
0.00203618
0.00203664
0.00203705
0.00203744
0.00203783
0.00203823
0.00203866
0.00203911
0.0020396
0.00204013
0.0020407
0.00204131
0.00204196
0.00204264
0.00204335
0.00204406
0.00204475
0.00204541
0.00204597
0.0020464
0.0020466
0.00204653
0.00204607
0.00204509
0.00204344
0.00204096
0.00203743
0.00203263
0.00202629
0.00201812
0.00200779
0.00199494
0.00197918
0.00196006
0.00193711
0.0019098
0.00187753
0.00183966
0.00179542
0.00174397
0.00168428
0.00161511
0.00153488
0.0014415
0.00133195
0.00120155
0.0010418
0.000834616
0.000532102
8.93585e-05
0.000104945
0.000601465
0.0009187
0.00113007
0.00128992
0.00141815
0.00152395
0.00161243
0.00168691
0.00174974
0.0018027
0.00184724
0.00188455
0.00191564
0.00194139
0.00196258
0.00197989
0.0019939
0.00200515
0.00201409
0.00202114
0.00202665
0.0020309
0.00203417
0.00203665
0.00203853
0.00203995
0.00204103
0.00204186
0.00204251
0.00204304
0.00204349
0.0020439
0.00204429
0.00204468
0.00204507
0.0020455
0.00204595
0.00204645
0.00204698
0.00204756
0.00204819
0.00204885
0.00204955
0.00205028
0.00205102
0.00205174
0.00205243
0.00205303
0.00205349
0.00205372
0.00205367
0.00205323
0.00205225
0.0020506
0.00204809
0.00204451
0.00203963
0.00203319
0.00202487
0.00201436
0.00200129
0.00198525
0.00196582
0.0019425
0.00191476
0.00188203
0.00184364
0.00179886
0.00174682
0.00168652
0.00161673
0.00153589
0.0014419
0.0013318
0.00120089
0.00104074
0.000833309
0.000530887
8.90709e-05
0.000105192
0.000602648
0.000920367
0.00113211
0.0012923
0.00142087
0.00152697
0.00161576
0.00169053
0.00175362
0.00180684
0.0018516
0.00188911
0.00192038
0.0019463
0.00196763
0.00198505
0.00199917
0.0020105
0.00201951
0.00202662
0.00203217
0.00203645
0.00203974
0.00204224
0.00204413
0.00204556
0.00204665
0.00204748
0.00204813
0.00204866
0.00204911
0.00204952
0.00204991
0.0020503
0.00205071
0.00205114
0.00205161
0.00205212
0.00205267
0.00205327
0.00205393
0.00205462
0.00205536
0.00205613
0.00205691
0.00205769
0.00205843
0.00205909
0.00205961
0.0020599
0.00205991
0.00205951
0.00205858
0.00205696
0.00205446
0.00205088
0.00204597
0.00203945
0.00203104
0.00202038
0.00200712
0.00199085
0.00197112
0.00194745
0.00191932
0.00188614
0.00184725
0.00180191
0.00174929
0.00168838
0.00161797
0.0015365
0.00144191
0.00133124
0.00119983
0.00103928
0.000831646
0.000529409
8.87248e-05
0.000105407
0.000603675
0.000921789
0.00113383
0.0012943
0.00142312
0.00152948
0.00161851
0.00169351
0.00175682
0.00181023
0.00185518
0.00189285
0.00192427
0.00195032
0.00197176
0.00198928
0.00200347
0.00201487
0.00202394
0.00203109
0.00203667
0.00204098
0.00204429
0.0020468
0.0020487
0.00205014
0.00205123
0.00205207
0.00205272
0.00205326
0.00205372
0.00205414
0.00205454
0.00205494
0.00205536
0.00205581
0.0020563
0.00205684
0.00205743
0.00205806
0.00205876
0.0020595
0.0020603
0.00206113
0.00206198
0.00206283
0.00206365
0.00206439
0.00206501
0.0020654
0.00206549
0.00206519
0.00206434
0.00206279
0.00206036
0.00205681
0.00205191
0.00204538
0.00203691
0.00202615
0.00201274
0.00199626
0.00197628
0.00195229
0.00192377
0.00189014
0.00185075
0.00180486
0.00175164
0.00169009
0.00161902
0.00153689
0.00144166
0.0013304
0.00119846
0.00103752
0.000829695
0.00052771
8.83284e-05
0.000105601
0.000604597
0.000923038
0.00113532
0.001296
0.00142504
0.0015316
0.00162082
0.00169601
0.00175949
0.00181306
0.00185815
0.00189595
0.00192748
0.00195363
0.00197516
0.00199275
0.002007
0.00201845
0.00202756
0.00203474
0.00204035
0.00204468
0.002048
0.00205053
0.00205244
0.00205389
0.00205498
0.00205583
0.00205649
0.00205704
0.00205751
0.00205794
0.00205836
0.00205878
0.00205923
0.00205971
0.00206023
0.00206081
0.00206144
0.00206213
0.00206288
0.00206369
0.00206456
0.00206547
0.00206641
0.00206737
0.00206829
0.00206916
0.00206989
0.00207042
0.00207064
0.00207047
0.00206976
0.00206833
0.00206601
0.00206255
0.00205772
0.00205123
0.00204275
0.00203195
0.00201844
0.0020018
0.00198158
0.0019573
0.00192841
0.00189434
0.00185443
0.00180796
0.0017541
0.00169187
0.00162009
0.00153725
0.00144132
0.00132941
0.0011969
0.00103552
0.000827507
0.000525824
8.78875e-05
0.000105782
0.000605455
0.000924174
0.00113665
0.00129751
0.00142671
0.00153343
0.0016228
0.00169813
0.00176174
0.00181543
0.00186063
0.00189854
0.00193016
0.00195638
0.00197797
0.00199561
0.00200991
0.0020214
0.00203054
0.00203774
0.00204337
0.00204772
0.00205105
0.00205359
0.00205551
0.00205696
0.00205807
0.00205892
0.0020596
0.00206016
0.00206065
0.0020611
0.00206155
0.002062
0.00206248
0.00206299
0.00206356
0.00206419
0.00206487
0.00206563
0.00206645
0.00206735
0.00206831
0.00206933
0.00207039
0.00207147
0.00207254
0.00207355
0.00207445
0.00207516
0.00207556
0.00207557
0.00207504
0.0020738
0.00207164
0.00206835
0.00206365
0.00205726
0.00204885
0.00203806
0.00202451
0.00200776
0.00198735
0.0019628
0.00193355
0.00189903
0.00185859
0.0018115
0.00175695
0.00169397
0.0016214
0.00153775
0.00144104
0.00132838
0.00119523
0.00103336
0.000825126
0.00052378
8.74066e-05
0.000105957
0.000606277
0.00092524
0.00113787
0.00129887
0.00142821
0.00153505
0.00162454
0.00169998
0.00176369
0.00181748
0.00186276
0.00190073
0.00193242
0.00195869
0.00198033
0.00199801
0.00201234
0.00202385
0.00203301
0.00204023
0.00204587
0.00205023
0.00205357
0.00205612
0.00205805
0.00205951
0.00206063
0.0020615
0.00206219
0.00206277
0.00206328
0.00206376
0.00206423
0.00206472
0.00206524
0.0020658
0.00206642
0.00206711
0.00206787
0.0020687
0.00206962
0.00207062
0.00207169
0.00207284
0.00207404
0.00207528
0.00207652
0.00207773
0.00207883
0.00207977
0.00208041
0.00208065
0.00208038
0.00207939
0.00207748
0.00207442
0.00206994
0.00206374
0.00205548
0.00204478
0.00203126
0.00201446
0.00199392
0.00196913
0.00193955
0.00190457
0.00186356
0.0018158
0.00176048
0.00169666
0.00162318
0.00153861
0.00144098
0.00132745
0.00119355
0.0010311
0.000822594
0.000521605
8.68895e-05
0.00010613
0.000607086
0.000926268
0.00113904
0.00130015
0.00142958
0.00153653
0.00162611
0.00170162
0.00176542
0.00181927
0.00186461
0.00190264
0.00193437
0.00196068
0.00198234
0.00200005
0.0020144
0.00202592
0.00203509
0.00204232
0.00204796
0.00205233
0.00205568
0.00205823
0.00206017
0.00206164
0.00206278
0.00206366
0.00206437
0.00206497
0.00206551
0.00206602
0.00206653
0.00206706
0.00206763
0.00206825
0.00206893
0.00206969
0.00207053
0.00207146
0.00207248
0.0020736
0.00207481
0.00207612
0.00207749
0.00207892
0.00208038
0.00208182
0.00208318
0.00208439
0.00208534
0.00208589
0.00208594
0.00208529
0.00208373
0.002081
0.00207684
0.00207093
0.00206293
0.00205243
0.00203904
0.00202228
0.00200168
0.00197671
0.00194682
0.00191139
0.00186978
0.00182127
0.00176508
0.00170028
0.00162574
0.00154007
0.00144134
0.00132678
0.00119196
0.00102881
0.000819958
0.000519328
8.63401e-05
0.000106304
0.000607897
0.000927284
0.00114017
0.00130137
0.00143089
0.00153791
0.00162756
0.00170313
0.00176698
0.00182088
0.00186626
0.00190433
0.00193608
0.00196241
0.00198409
0.00200181
0.00201617
0.0020277
0.00203687
0.0020441
0.00204975
0.00205411
0.00205747
0.00206003
0.00206197
0.00206346
0.0020646
0.00206551
0.00206624
0.00206687
0.00206744
0.00206798
0.00206853
0.00206911
0.00206973
0.00207042
0.00207117
0.00207202
0.00207295
0.00207399
0.00207514
0.0020764
0.00207777
0.00207926
0.00208084
0.0020825
0.00208421
0.00208593
0.00208761
0.00208916
0.00209049
0.00209146
0.00209191
0.0020917
0.00209059
0.00208833
0.00208462
0.00207915
0.00207154
0.00206139
0.00204826
0.00203167
0.00201112
0.00198605
0.00195588
0.00192001
0.00187776
0.00182843
0.00177123
0.00170527
0.00162947
0.00154246
0.0014424
0.00132658
0.00119061
0.00102658
0.000817275
0.000516988
8.57631e-05
0.000106483
0.000608723
0.000928306
0.00114129
0.00130258
0.00143216
0.00153923
0.00162893
0.00170456
0.00176844
0.00182237
0.00186778
0.00190586
0.00193762
0.00196396
0.00198565
0.00200337
0.00201772
0.00202925
0.00203842
0.00204565
0.00205129
0.00205566
0.00205901
0.00206158
0.00206353
0.00206503
0.00206619
0.00206711
0.00206787
0.00206852
0.00206913
0.00206971
0.00207031
0.00207094
0.00207162
0.00207238
0.00207322
0.00207416
0.00207521
0.00207637
0.00207766
0.00207908
0.00208064
0.00208234
0.00208416
0.00208609
0.0020881
0.00209017
0.00209222
0.00209419
0.00209598
0.00209746
0.00209845
0.0020988
0.00209829
0.00209665
0.00209358
0.00208872
0.0020817
0.00207209
0.00205942
0.00204318
0.00202283
0.00199778
0.00196743
0.00193114
0.00188822
0.00183796
0.00177959
0.00171224
0.00163488
0.00154623
0.0014445
0.00132708
0.0011897
0.00102454
0.000814627
0.000514639
8.51654e-05
0.000106667
0.000609573
0.000929347
0.00114243
0.00130378
0.00143341
0.00154053
0.00163027
0.00170592
0.00176983
0.00182378
0.0018692
0.00190728
0.00193905
0.00196539
0.00198707
0.00200478
0.00201912
0.00203064
0.0020398
0.00204702
0.00205266
0.00205703
0.00206038
0.00206295
0.00206491
0.00206642
0.00206759
0.00206853
0.00206931
0.00207
0.00207064
0.00207127
0.00207191
0.0020726
0.00207336
0.0020742
0.00207513
0.00207617
0.00207734
0.00207864
0.0020801
0.00208171
0.00208348
0.00208541
0.00208751
0.00208976
0.00209213
0.0020946
0.00209711
0.00209959
0.00210194
0.00210405
0.00210575
0.00210682
0.00210708
0.00210627
0.00210406
0.00210007
0.00209391
0.0020851
0.00207316
0.00205752
0.0020376
0.00201278
0.00198238
0.00194572
0.0019021
0.0018508
0.00179105
0.00172201
0.00164274
0.00155201
0.00144816
0.00132871
0.00118953
0.00102286
0.000812133
0.000512358
8.45574e-05
0.000106857
0.000610452
0.000930418
0.00114359
0.001305
0.00143468
0.00154183
0.00163159
0.00170727
0.00177119
0.00182514
0.00187056
0.00190864
0.0019404
0.00196673
0.00198839
0.00200609
0.00202042
0.00203192
0.00204107
0.00204827
0.0020539
0.00205826
0.00206161
0.00206418
0.00206615
0.00206766
0.00206885
0.00206981
0.00207062
0.00207134
0.00207202
0.00207269
0.00207339
0.00207415
0.00207498
0.0020759
0.00207693
0.0020781
0.0020794
0.00208086
0.00208249
0.00208431
0.00208632
0.00208853
0.00209095
0.00209357
0.00209636
0.00209931
0.00210236
0.00210546
0.0021085
0.00211138
0.00211394
0.00211599
0.00211726
0.00211754
0.00211648
0.00211369
0.00210873
0.00210111
0.00209027
0.00207561
0.00205646
0.00203214
0.00200191
0.00196502
0.00192073
0.00186826
0.00180686
0.00173576
0.00165406
0.00156067
0.00145409
0.00133199
0.00119044
0.00102192
0.000809961
0.000510255
8.39542e-05
0.000107056
0.000611366
0.000931526
0.00114478
0.00130624
0.00143596
0.00154314
0.00163292
0.00170861
0.00177253
0.00182648
0.00187189