/*--------------------------------*- C++ -*----------------------------------*\
  =========                 |
  \\      /  F ield         | OpenFOAM: The Open Source CFD Toolbox
   \\    /   O peration     | Website:  https://openfoam.org
    \\  /    A nd           | Version:  13
     \\/     M anipulation  |
\*---------------------------------------------------------------------------*/
FoamFile
{
    format      ascii;
    class       surfaceScalarField;
    location    "0.4";
    object      phi;
}
// * * * * * * * * * * * * * * * * * * * * * * * * * * * * * * * * * * * * * //

dimensions      [0 3 -1 0 0 0 0];

internalField   nonuniform List<scalar> 
12640
(
5.00992e-10
-5.01132e-10
8.09836e-10
-3.0885e-10
4.99996e-10
3.09832e-10
-4.15082e-10
9.15072e-10
-1.80923e-09
1.39415e-09
-3.55063e-09
1.74139e-09
-5.52863e-09
1.978e-09
-7.66082e-09
2.13219e-09
-9.88796e-09
2.22713e-09
-1.21677e-08
2.27971e-09
-1.44696e-08
2.30191e-09
-1.67719e-08
2.30235e-09
-1.90592e-08
2.28729e-09
-2.13206e-08
2.26141e-09
-2.35488e-08
2.2282e-09
-2.57391e-08
2.1903e-09
-2.78888e-08
2.14968e-09
-2.99965e-08
2.10771e-09
-3.20619e-08
2.06534e-09
-3.4085e-08
2.02312e-09
-3.60663e-08
1.98133e-09
-3.80063e-08
1.93998e-09
-3.99052e-08
1.89892e-09
-4.17631e-08
1.85787e-09
-4.35796e-08
1.8165e-09
-4.5354e-08
1.77438e-09
-4.70851e-08
1.73111e-09
-4.87713e-08
1.68627e-09
-5.04108e-08
1.63943e-09
-5.2001e-08
1.59021e-09
-5.35392e-08
1.53821e-09
-5.50223e-08
1.48309e-09
-5.64468e-08
1.42449e-09
-5.78089e-08
1.3621e-09
-5.91045e-08
1.2956e-09
-6.03292e-08
1.22472e-09
-6.14784e-08
1.14917e-09
-6.25471e-08
1.06871e-09
-6.35302e-08
9.83095e-10
-6.44223e-08
8.92112e-10
-6.52178e-08
7.95562e-10
-6.59111e-08
6.93273e-10
-6.64962e-08
5.85096e-10
-6.69671e-08
4.70877e-10
-6.73175e-08
3.50403e-10
-6.75405e-08
2.22979e-10
-6.76316e-08
9.11604e-11
-6.75849e-08
-4.67168e-11
-6.73934e-08
-1.91512e-10
-6.70508e-08
-3.42577e-10
-6.65513e-08
-4.99501e-10
-6.58892e-08
-6.62159e-10
-6.50588e-08
-8.3038e-10
-6.40549e-08
-1.00392e-09
-6.28724e-08
-1.18247e-09
-6.15068e-08
-1.36562e-09
-5.99539e-08
-1.55287e-09
-5.82103e-08
-1.74366e-09
-5.6273e-08
-1.93727e-09
-5.41403e-08
-2.13264e-09
-5.18119e-08
-2.32849e-09
-4.92885e-08
-2.52337e-09
-4.65731e-08
-2.71539e-09
-4.36708e-08
-2.9023e-09
-4.05894e-08
-3.08139e-09
-3.734e-08
-3.24944e-09
-3.39374e-08
-3.40261e-09
-3.04011e-08
-3.53626e-09
-2.67564e-08
-3.6447e-09
-2.30357e-08
-3.72067e-09
-1.92811e-08
-3.75466e-09
-1.55462e-08
-3.73491e-09
-1.1901e-08
-3.64518e-09
-8.43932e-09
-3.46166e-09
-5.28833e-09
-3.15099e-09
-2.6191e-09
-2.66924e-09
-6.48879e-10
-1.97022e-09
4.06538e-10
-1.05542e-09
4.8701e-10
-8.04736e-11
4.8701e-10
3.11559e-10
-8.12692e-10
-5.56724e-11
5.83772e-11
-1.38537e-09
1.63952e-09
-3.56e-09
3.08969e-09
-6.36045e-09
4.1946e-09
-9.59946e-09
4.9804e-09
-1.31402e-08
5.5187e-09
-1.68827e-08
5.87472e-09
-2.07538e-08
6.09822e-09
-2.46995e-08
6.22541e-09
-2.86798e-08
6.28224e-09
-3.2665e-08
6.28748e-09
-3.66326e-08
6.25494e-09
-4.05661e-08
6.1949e-09
-4.44531e-08
6.11518e-09
-4.82845e-08
6.0217e-09
-5.20537e-08
5.91894e-09
-5.57562e-08
5.81017e-09
-5.93886e-08
5.69769e-09
-6.29484e-08
5.58298e-09
-6.64339e-08
5.46684e-09
-6.98435e-08
5.34955e-09
-7.31755e-08
5.23095e-09
-7.64283e-08
5.11058e-09
-7.95995e-08
4.98778e-09
-8.26869e-08
4.86171e-09
-8.56872e-08
4.73149e-09
-8.85972e-08
4.59618e-09
-9.14126e-08
4.45486e-09
-9.4129e-08
4.30662e-09
-9.67414e-08
4.15057e-09
-9.92441e-08
3.98586e-09
-1.01631e-07
3.8117e-09
-1.03897e-07
3.62733e-09
-1.06033e-07
3.43202e-09
-1.08033e-07
3.22512e-09
-1.0989e-07
3.00599e-09
-1.11596e-07
2.77405e-09
-1.13141e-07
2.52877e-09
-1.14519e-07
2.26969e-09
-1.1572e-07
1.99638e-09
-1.16735e-07
1.70848e-09
-1.17555e-07
1.4057e-09
-1.18172e-07
1.08782e-09
-1.18577e-07
7.54654e-10
-1.1876e-07
4.06288e-10
-1.18711e-07
4.23409e-11
-1.18423e-07
-3.34813e-10
-1.17886e-07
-7.28185e-10
-1.17093e-07
-1.13606e-09
-1.16035e-07
-1.55786e-09
-1.14704e-07
-1.99301e-09
-1.13093e-07
-2.44079e-09
-1.11197e-07
-2.9003e-09
-1.09009e-07
-3.37045e-09
-1.06525e-07
-3.84987e-09
-1.03741e-07
-4.33696e-09
-1.00654e-07
-4.82984e-09
-9.72654e-08
-5.32626e-09
-9.35746e-08
-5.82339e-09
-8.95851e-08
-6.31796e-09
-8.53024e-08
-6.80609e-09
-8.07347e-08
-7.28315e-09
-7.58932e-08
-7.74377e-09
-7.07929e-08
-8.18173e-09
-6.54525e-08
-8.58979e-09
-5.98956e-08
-8.95954e-09
-5.41508e-08
-9.28101e-09
-4.82534e-08
-9.54215e-09
-4.22461e-08
-9.72791e-09
-3.61819e-08
-9.8189e-09
-3.01279e-08
-9.78894e-09
-2.41706e-08
-9.60247e-09
-1.84224e-08
-9.20982e-09
-1.30324e-08
-8.54103e-09
-8.20179e-09
-7.49981e-09
-4.20414e-09
-5.96786e-09
-1.39062e-09
-3.86894e-09
-7.3991e-11
-1.3971e-09
4.13019e-10
-3.0838e-10
-5.04308e-10
-1.63803e-09
1.38802e-09
-3.86613e-09
3.86762e-09
-6.73135e-09
5.95491e-09
-1.0073e-08
7.53621e-09
-1.37726e-08
8.68006e-09
-1.77374e-08
9.48345e-09
-2.18931e-08
1.00304e-08
-2.61806e-08
1.03858e-08
-3.05534e-08
1.05981e-08
-3.49744e-08
1.07033e-08
-3.94147e-08
1.07278e-08
-4.38512e-08
1.06914e-08
-4.82655e-08
1.06092e-08
-5.26432e-08
1.04928e-08
-5.69726e-08
1.03511e-08
-6.12444e-08
1.01908e-08
-6.54513e-08
1.0017e-08
-6.95871e-08
9.8335e-09
-7.36469e-08
9.64276e-09
-7.76263e-08
9.44633e-09
-8.15217e-08
9.24492e-09
-8.53294e-08
9.03862e-09
-8.90458e-08
8.82699e-09
-9.26673e-08
8.60924e-09
-9.61899e-08
8.38431e-09
-9.96094e-08
8.15098e-09
-1.02921e-07
7.90792e-09
-1.0612e-07
7.65378e-09
-1.09201e-07
7.3872e-09
-1.12157e-07
7.10683e-09
-1.14982e-07
6.81139e-09
-1.1767e-07
6.49963e-09
-1.20213e-07
6.17037e-09
-1.22604e-07
5.82248e-09
-1.24834e-07
5.45493e-09
-1.26894e-07
5.06675e-09
-1.28777e-07
4.65702e-09
-1.30474e-07
4.22495e-09
-1.31974e-07
3.76981e-09
-1.33268e-07
3.29098e-09
-1.34348e-07
2.78797e-09
-1.35202e-07
2.26038e-09
-1.35823e-07
1.70794e-09
-1.36198e-07
1.13056e-09
-1.36321e-07
5.28315e-10
-1.36179e-07
-9.87706e-11
-1.35765e-07
-7.49479e-10
-1.35068e-07
-1.4245e-09
-1.34082e-07
-2.12265e-09
-1.32797e-07
-2.84284e-09
-1.31206e-07
-3.58381e-09
-1.29303e-07
-4.34406e-09
-1.27081e-07
-5.12176e-09
-1.24537e-07
-5.91472e-09
-1.21667e-07
-6.72035e-09
-1.18468e-07
-7.53565e-09
-1.14941e-07
-8.35716e-09
-1.11086e-07
-9.18058e-09
-1.06909e-07
-1.00009e-08
-1.02414e-07
-1.08123e-08
-9.76119e-08
-1.16085e-08
-9.25132e-08
-1.23819e-08
-8.71332e-08
-1.31238e-08
-8.14903e-08
-1.38246e-08
-7.56068e-08
-1.44733e-08
-6.95094e-08
-1.5057e-08
-6.32294e-08
-1.55609e-08
-5.68043e-08
-1.59673e-08
-5.02779e-08
-1.62542e-08
-4.37029e-08
-1.6394e-08
-3.71419e-08
-1.63499e-08
-3.06713e-08
-1.60731e-08
-2.43842e-08
-1.54969e-08
-1.83946e-08
-1.45307e-08
-1.28427e-08
-1.30517e-08
-7.90559e-09
-1.0905e-08
-3.8288e-09
-7.94573e-09
-1.02748e-09
-4.19842e-09
-6.14464e-10
-9.22656e-10
4.18349e-10
-3.09884e-09
3.5642e-09
-5.96217e-09
6.73096e-09
-9.2533e-09
9.24603e-09
-1.28742e-08
1.11571e-08
-1.67633e-08
1.25692e-08
-2.08676e-08
1.35877e-08
-2.51391e-08
1.43019e-08
-2.95353e-08
1.4782e-08
-3.40194e-08
1.50822e-08
-3.85602e-08
1.52442e-08
-4.31318e-08
1.52993e-08
-4.77121e-08
1.52718e-08
-5.22831e-08
1.51802e-08
-5.68293e-08
1.5039e-08
-6.13378e-08
1.48596e-08
-6.57977e-08
1.46507e-08
-7.01999e-08
1.44191e-08
-7.45362e-08
1.41699e-08
-7.87999e-08
1.39064e-08
-8.29848e-08
1.36312e-08
-8.70853e-08
1.33455e-08
-9.10964e-08
1.30497e-08
-9.5013e-08
1.27436e-08
-9.88303e-08
1.24265e-08
-1.02543e-07
1.20972e-08
-1.06147e-07
1.17543e-08
-1.09635e-07
1.13963e-08
-1.13003e-07
1.10214e-08
-1.16243e-07
1.06279e-08
-1.19351e-07
1.02141e-08
-1.22318e-07
9.77834e-09
-1.25137e-07
9.31892e-09
-1.27801e-07
8.83429e-09
-1.30301e-07
8.32295e-09
-1.3263e-07
7.7835e-09
-1.34778e-07
7.21463e-09
-1.36736e-07
6.61515e-09
-1.38495e-07
5.98397e-09
-1.40045e-07
5.32014e-09
-1.41377e-07
4.62288e-09
-1.42481e-07
3.89152e-09
-1.43346e-07
3.1256e-09
-1.43963e-07
2.32486e-09
-1.44321e-07
1.48921e-09
-1.44412e-07
6.18846e-10
-1.44225e-07
-2.85805e-10
-1.4375e-07
-1.22404e-09
-1.4298e-07
-2.19517e-09
-1.41904e-07
-3.19786e-09
-1.40517e-07
-4.23042e-09
-1.3881e-07
-5.29081e-09
-1.36777e-07
-6.3766e-09
-1.34414e-07
-7.48483e-09
-1.31717e-07
-8.61204e-09
-1.28683e-07
-9.75416e-09
-1.25312e-07
-1.09066e-08
-1.21606e-07
-1.20638e-08
-1.17567e-07
-1.32194e-08
-1.13201e-07
-1.43661e-08
-1.08518e-07
-1.54957e-08
-1.03528e-07
-1.65989e-08
-9.82443e-08
-1.76652e-08
-9.2685e-08
-1.86831e-08
-8.68703e-08
-1.96394e-08
-8.0824e-08
-2.05196e-08
-7.45741e-08
-2.13069e-08
-6.81526e-08
-2.19824e-08
-6.15965e-08
-2.25234e-08
-5.49481e-08
-2.29027e-08
-4.82559e-08
-2.30861e-08
-4.15755e-08
-2.30303e-08
-3.497e-08
-2.26785e-08
-2.85108e-08
-2.19561e-08
-2.2277e-08
-2.07645e-08
-1.63551e-08
-1.89736e-08
-1.08432e-08
-1.64168e-08
-5.89263e-09
-1.28963e-08
-1.91026e-09
-8.18079e-09
-2.52472e-09
-1.41537e-09
1.83372e-09
-4.22107e-09
6.3699e-09
-7.55952e-09
1.00694e-08
-1.11778e-08
1.28643e-08
-1.50116e-08
1.4991e-08
-1.9033e-08
1.65905e-08
-2.3217e-08
1.77717e-08
-2.75369e-08
1.86218e-08
-3.19655e-08
1.92106e-08
-3.64766e-08
1.95933e-08
-4.10459e-08
1.98134e-08
-4.56515e-08
1.9905e-08
-5.02742e-08
1.98944e-08
-5.48969e-08
1.98028e-08
-5.95045e-08
1.96466e-08
-6.40839e-08
1.9439e-08
-6.86235e-08
1.91903e-08
-7.31129e-08
1.89086e-08
-7.75431e-08
1.86e-08
-8.19058e-08
1.82691e-08
-8.61936e-08
1.7919e-08
-9.03997e-08
1.75516e-08
-9.45178e-08
1.71678e-08
-9.85418e-08
1.67676e-08
-1.02466e-07
1.63505e-08
-1.06284e-07
1.59153e-08
-1.0999e-07
1.54606e-08
-1.13579e-07
1.49847e-08
-1.17043e-07
1.44855e-08
-1.20376e-07
1.39611e-08
-1.23571e-07
1.34095e-08
-1.26622e-07
1.28287e-08
-1.29519e-07
1.22165e-08
-1.32256e-07
1.15711e-08
-1.34824e-07
1.08907e-08
-1.37214e-07
1.01735e-08
-1.39417e-07
9.41787e-09
-1.41424e-07
8.62232e-09
-1.43226e-07
7.7855e-09
-1.44812e-07
6.90627e-09
-1.46173e-07
5.98362e-09
-1.47298e-07
5.0168e-09
-1.48178e-07
4.00526e-09
-1.48801e-07
2.94872e-09
-1.49159e-07
1.84718e-09
-1.49242e-07
7.00955e-10
-1.49038e-07
-4.89314e-10
-1.48539e-07
-1.72265e-09
-1.47737e-07
-2.99773e-09
-1.46622e-07
-4.31268e-09
-1.45187e-07
-5.6651e-09
-1.43426e-07
-7.0521e-09
-1.41333e-07
-8.47014e-09
-1.38902e-07
-9.91506e-09
-1.36132e-07
-1.13819e-08
-1.33022e-07
-1.28651e-08
-1.2957e-07
-1.4358e-08
-1.25781e-07
-1.58533e-08
-1.21658e-07
-1.7342e-08
-1.1721e-07
-1.88147e-08
-1.12445e-07
-2.02604e-08
-1.07377e-07
-2.16672e-08
-1.0202e-07
-2.30219e-08
-9.63932e-08
-2.43098e-08
-9.05178e-08
-2.55148e-08
-8.44182e-08
-2.66191e-08
-7.81223e-08
-2.76028e-08
-7.16614e-08
-2.84433e-08
-6.50706e-08
-2.91142e-08
-5.8389e-08
-2.95843e-08
-5.16592e-08
-2.98159e-08
-4.49281e-08
-2.97615e-08
-3.82452e-08
-2.93614e-08
-3.16622e-08
-2.85392e-08
-2.52302e-08
-2.71965e-08
-1.89989e-08
-2.52049e-08
-1.3023e-08
-2.23927e-08
-7.41291e-09
-1.85064e-08
-2.58099e-09
-1.30127e-08
-5.10572e-09
-1.77846e-09
3.61218e-09
-5.03009e-09
9.62153e-09
-8.72838e-09
1.37677e-08
-1.26146e-08
1.67505e-08
-1.66352e-08
1.90115e-08
-2.07779e-08
2.07333e-08
-2.50349e-08
2.20287e-08
-2.93945e-08
2.29814e-08
-3.3842e-08
2.3658e-08
-3.83606e-08
2.41119e-08
-4.29329e-08
2.43857e-08
-4.75419e-08
2.4514e-08
-5.21716e-08
2.45241e-08
-5.68067e-08
2.4438e-08
-6.14336e-08
2.42735e-08
-6.60395e-08
2.40449e-08
-7.06127e-08
2.37635e-08
-7.51426e-08
2.34385e-08
-7.96196e-08
2.3077e-08
-8.40346e-08
2.26841e-08
-8.83794e-08
2.22638e-08
-9.26464e-08
2.18185e-08
-9.68282e-08
2.13496e-08
-1.00918e-07
2.08574e-08
-1.04909e-07
2.03416e-08
-1.08795e-07
1.98011e-08
-1.12569e-07
1.92346e-08
-1.16224e-07
1.86402e-08
-1.19755e-07
1.80157e-08
-1.23153e-07
1.73591e-08
-1.26411e-07
1.66679e-08
-1.29522e-07
1.59399e-08
-1.32478e-07
1.51727e-08
-1.35271e-07
1.4364e-08
-1.37892e-07
1.35117e-08
-1.40332e-07
1.26138e-08
-1.42583e-07
1.16682e-08
-1.44634e-07
1.06732e-08
-1.46475e-07
9.62719e-09
-1.48098e-07
8.52881e-09
-1.49491e-07
7.37688e-09
-1.50645e-07
6.1705e-09
-1.51549e-07
4.90906e-09
-1.52192e-07
3.59227e-09
-1.52565e-07
2.2202e-09
-1.52657e-07
7.93324e-10
-1.52459e-07
-6.8747e-10
-1.51961e-07
-2.22082e-09
-1.51154e-07
-3.80484e-09
-1.5003e-07
-5.43702e-09
-1.48581e-07
-7.11419e-09
-1.468e-07
-8.83246e-09
-1.44683e-07
-1.05872e-08
-1.42226e-07
-1.23728e-08
-1.39425e-07
-1.41828e-08
-1.3628e-07
-1.60099e-08
-1.32792e-07
-1.78456e-08
-1.28965e-07
-1.96801e-08
-1.24805e-07
-2.15026e-08
-1.20319e-07
-2.33008e-08
-1.15518e-07
-2.50614e-08
-1.10415e-07
-2.67699e-08
-1.05027e-07
-2.84102e-08
-9.93715e-08
-2.99649e-08
-9.3471e-08
-3.14153e-08
-8.73493e-08
-3.27408e-08
-8.10336e-08
-3.39186e-08
-7.45535e-08
-3.49234e-08
-6.79414e-08
-3.57263e-08
-6.1232e-08
-3.62937e-08
-5.44622e-08
-3.65857e-08
-4.76698e-08
-3.65539e-08
-4.08927e-08
-3.61385e-08
-3.41666e-08
-3.52652e-08
-2.75239e-08
-3.38392e-08
-2.09935e-08
-3.17353e-08
-1.46133e-08
-2.8773e-08
-8.48796e-09
-2.46318e-08
-3.05162e-09
-1.8449e-08
-8.15734e-09
-2.03133e-09
5.64351e-09
-5.59609e-09
1.31863e-08
-9.5664e-09
1.7738e-08
-1.36725e-08
2.08567e-08
-1.78594e-08
2.31984e-08
-2.21196e-08
2.49935e-08
-2.64535e-08
2.63626e-08
-3.08592e-08
2.73871e-08
-3.53306e-08
2.81295e-08
-3.98587e-08
2.864e-08
-4.44322e-08
2.89593e-08
-4.90388e-08
2.91206e-08
-5.36658e-08
2.9151e-08
-5.83005e-08
2.90727e-08
-6.29308e-08
2.89038e-08
-6.75451e-08
2.86591e-08
-7.21321e-08
2.83505e-08
-7.66814e-08
2.79879e-08
-8.11832e-08
2.75788e-08
-8.56283e-08
2.71292e-08
-9.00078e-08
2.66434e-08
-9.43136e-08
2.61243e-08
-9.85379e-08
2.55739e-08
-1.02673e-07
2.49926e-08
-1.06712e-07
2.43806e-08
-1.10648e-07
2.37367e-08
-1.14473e-07
2.30598e-08
-1.18181e-07
2.23478e-08
-1.21764e-07
2.15987e-08
-1.25214e-07
2.081e-08
-1.28526e-07
1.99792e-08
-1.31689e-07
1.91036e-08
-1.34698e-07
1.81808e-08
-1.37542e-07
1.7208e-08
-1.40213e-07
1.61829e-08
-1.42702e-07
1.5103e-08
-1.45e-07
1.39661e-08
-1.47097e-07
1.27702e-08
-1.48983e-07
1.15133e-08
-1.50648e-07
1.01939e-08
-1.52082e-07
8.81054e-09
-1.53274e-07
7.36227e-09
-1.54213e-07
5.84837e-09
-1.54889e-07
4.26856e-09
-1.55292e-07
2.62297e-09
-1.55411e-07
9.1224e-10
-1.55236e-07
-8.62459e-10
-1.54757e-07
-2.69935e-09
-1.53966e-07
-4.59601e-09
-1.52854e-07
-6.54922e-09
-1.51413e-07
-8.55497e-09
-1.49637e-07
-1.06083e-08
-1.47521e-07
-1.27034e-08
-1.45061e-07
-1.48333e-08
-1.42254e-07
-1.69898e-08
-1.391e-07
-1.91638e-08
-1.35601e-07
-2.13448e-08
-1.3176e-07
-2.35207e-08
-1.27584e-07
-2.56785e-08
-1.23081e-07
-2.78035e-08
-1.18263e-07
-2.98799e-08
-1.13142e-07
-3.18905e-08
-1.07735e-07
-3.38168e-08
-1.02061e-07
-3.5639e-08
-9.61412e-08
-3.73356e-08
-8.99982e-08
-3.88838e-08
-8.36582e-08
-4.02586e-08
-7.71487e-08
-4.14328e-08
-7.04992e-08
-4.23758e-08
-6.37402e-08
-4.30527e-08
-5.69028e-08
-4.34231e-08
-5.00176e-08
-4.34391e-08
-4.31132e-08
-4.30429e-08
-3.62151e-08
-4.21634e-08
-2.93446e-08
-4.07097e-08
-2.25226e-08
-3.85573e-08
-1.57857e-08
-3.55099e-08
-9.24992e-09
-3.11675e-08
-3.37644e-09
-2.43225e-08
-1.15338e-08
-2.2016e-09
7.84511e-09
-5.9839e-09
1.69686e-08
-1.01582e-08
2.19123e-08
-1.44426e-08
2.51412e-08
-1.87754e-08
2.75311e-08
-2.31475e-08
2.93657e-08
-2.7562e-08
3.0777e-08
-3.20218e-08
3.18468e-08
-3.65267e-08
3.26344e-08
-4.1073e-08
3.31864e-08
-4.56546e-08
3.35408e-08
-5.02631e-08
3.37291e-08
-5.48892e-08
3.37771e-08
-5.95227e-08
3.37062e-08
-6.41532e-08
3.35344e-08
-6.87705e-08
3.32764e-08
-7.33644e-08
3.29444e-08
-7.79248e-08
3.25483e-08
-8.24422e-08
3.20962e-08
-8.69074e-08
3.15943e-08
-9.13114e-08
3.10474e-08
-9.56459e-08
3.04588e-08
-9.99027e-08
2.98306e-08
-1.04074e-07
2.91639e-08
-1.08152e-07
2.84586e-08
-1.12129e-07
2.77141e-08
-1.15998e-07
2.6929e-08
-1.19752e-07
2.61015e-08
-1.23383e-07
2.52293e-08
-1.26883e-07
2.43099e-08
-1.30244e-07
2.33405e-08
-1.33459e-07
2.23184e-08
-1.36519e-07
2.12406e-08
-1.39415e-07
2.01043e-08
-1.42139e-07
1.89066e-08
-1.4468e-07
1.76449e-08
-1.47031e-07
1.63167e-08
-1.4918e-07
1.49195e-08
-1.51118e-07
1.34512e-08
-1.52834e-07
1.191e-08
-1.54318e-07
1.02943e-08
-1.55559e-07
8.60299e-09
-1.56546e-07
6.83518e-09
-1.57268e-07
4.9906e-09
-1.57714e-07
3.06946e-09
-1.57875e-07
1.07256e-09
-1.57738e-07
-9.98652e-10
-1.57296e-07
-3.14198e-09
-1.56537e-07
-5.35442e-09
-1.55454e-07
-7.63205e-09
-1.54039e-07
-9.96997e-09
-1.52286e-07
-1.23622e-08
-1.50188e-07
-1.48015e-08
-1.47741e-07
-1.72795e-08
-1.44945e-07
-1.97864e-08
-1.41797e-07
-2.23112e-08
-1.38301e-07
-2.48412e-08
-1.34459e-07
-2.73623e-08
-1.30279e-07
-2.9859e-08
-1.25768e-07
-3.23144e-08
-1.20938e-07
-3.47101e-08
-1.15802e-07
-3.70264e-08
-1.10376e-07
-3.92426e-08
-1.04679e-07
-4.13363e-08
-9.87303e-08
-4.32842e-08
-9.25529e-08
-4.50612e-08
-8.61707e-08
-4.66408e-08
-7.96094e-08
-4.79941e-08
-7.28955e-08
-4.90897e-08
-6.60559e-08
-4.98923e-08
-5.9117e-08
-5.03619e-08
-5.2104e-08
-5.04521e-08
-4.50396e-08
-5.01073e-08
-3.79434e-08
-4.92596e-08
-3.08327e-08
-4.78203e-08
-2.37282e-08
-4.56618e-08
-1.66735e-08
-4.25646e-08
-9.80229e-09
-3.80388e-08
-3.60284e-09
-3.0522e-08
-1.51366e-08
-2.31254e-09
1.01577e-08
-6.24359e-09
2.08996e-08
-1.05693e-08
2.62379e-08
-1.49967e-08
2.95686e-08
-1.94554e-08
3.19898e-08
-2.39315e-08
3.38418e-08
-2.84274e-08
3.52728e-08
-3.29475e-08
3.6367e-08
-3.74948e-08
3.71817e-08
-4.20694e-08
3.77609e-08
-4.66685e-08
3.81399e-08
-5.12872e-08
3.83478e-08
-5.5919e-08
3.84088e-08
-6.05561e-08
3.83433e-08
-6.51901e-08
3.81684e-08
-6.98119e-08
3.78983e-08
-7.44126e-08
3.75451e-08
-7.89829e-08
3.71186e-08
-8.35138e-08
3.6627e-08
-8.79962e-08
3.60768e-08
-9.24215e-08
3.54727e-08
-9.67811e-08
3.48185e-08
-1.01067e-07
3.41164e-08
-1.05271e-07
3.33677e-08
-1.09385e-07
3.25726e-08
-1.13401e-07
3.17306e-08
-1.17313e-07
3.08404e-08
-1.21111e-07
2.99e-08
-1.24789e-07
2.89072e-08
-1.28339e-07
2.78593e-08
-1.31752e-07
2.67535e-08
-1.3502e-07
2.55865e-08
-1.38135e-07
2.43554e-08
-1.41087e-07
2.30569e-08
-1.43869e-07
2.1688e-08
-1.46469e-07
2.02456e-08
-1.4888e-07
1.87269e-08
-1.51089e-07
1.71291e-08
-1.53088e-07
1.54499e-08
-1.54865e-07
1.36872e-08
-1.5641e-07
1.1839e-08
-1.57711e-07
9.90421e-09
-1.58757e-07
7.88176e-09
-1.59538e-07
5.77134e-09
-1.60042e-07
3.57321e-09
-1.60258e-07
1.28831e-09
-1.60175e-07
-1.08162e-09
-1.59783e-07
-3.534e-09
-1.59072e-07
-6.06525e-09
-1.58033e-07
-8.67073e-09
-1.56659e-07
-1.13446e-08
-1.54941e-07
-1.40798e-08
-1.52875e-07
-1.68678e-08
-1.50455e-07
-1.96987e-08
-1.47681e-07
-2.2561e-08
-1.4455e-07
-2.54418e-08
-1.41065e-07
-2.83264e-08
-1.37229e-07
-3.11983e-08
-1.33048e-07
-3.40399e-08
-1.28531e-07
-3.68317e-08
-1.23688e-07
-3.95531e-08
-1.18532e-07
-4.2182e-08
-1.13079e-07
-4.46953e-08
-1.07347e-07
-4.70687e-08
-1.01355e-07
-4.92767e-08
-9.5123e-08
-5.12927e-08
-8.86753e-08
-5.30885e-08
-8.20349e-08
-5.46345e-08
-7.5226e-08
-5.58986e-08
-6.82728e-08
-5.68456e-08
-6.11984e-08
-5.74363e-08
-5.40247e-08
-5.76258e-08
-4.67712e-08
-5.73608e-08
-3.94556e-08
-5.65752e-08
-3.20957e-08
-5.51802e-08
-2.47169e-08
-5.30406e-08
-1.73737e-08
-4.99077e-08
-1.02184e-08
-4.51941e-08
-3.76482e-09
-3.69755e-08
-1.89014e-08
-2.38141e-09
1.25391e-08
-6.41184e-09
2.49301e-08
-1.08488e-08
3.06749e-08
-1.539e-08
3.41098e-08
-1.99559e-08
3.65557e-08
-2.4527e-08
3.84129e-08
-2.91025e-08
3.98483e-08
-3.36867e-08
4.09511e-08
-3.82835e-08
4.17785e-08
-4.28951e-08
4.23725e-08
-4.75213e-08
4.27661e-08
-5.21595e-08
4.2986e-08
-5.68055e-08
4.30548e-08
-6.14536e-08
4.29915e-08
-6.60971e-08
4.28119e-08
-7.07286e-08
4.25297e-08
-7.534e-08
4.21565e-08
-7.9923e-08
4.17017e-08
-8.44693e-08
4.11733e-08
-8.89704e-08
4.05778e-08
-9.34178e-08
3.99201e-08
-9.78032e-08
3.92039e-08
-1.02118e-07
3.84317e-08
-1.06355e-07
3.76047e-08
-1.10506e-07
3.67235e-08
-1.14563e-07
3.57875e-08
-1.18518e-07
3.47954e-08
-1.22364e-07
3.37454e-08
-1.26091e-07
3.2635e-08
-1.29693e-07
3.14615e-08
-1.33162e-07
3.02218e-08
-1.36488e-07
2.89127e-08
-1.39663e-07
2.75306e-08
-1.42679e-07
2.60722e-08
-1.45525e-07
2.45341e-08
-1.48192e-07
2.29128e-08
-1.5067e-07
2.12053e-08
-1.5295e-07
1.94084e-08
-1.55019e-07
1.75195e-08
-1.56868e-07
1.5536e-08
-1.58485e-07
1.3456e-08
-1.59859e-07
1.12779e-08
-1.60977e-07
9.00066e-09
-1.6183e-07
6.6238e-09
-1.62404e-07
4.14762e-09
-1.62689e-07
1.57318e-09
-1.62673e-07
-1.09754e-09
-1.62346e-07
-3.86156e-09
-1.61696e-07
-6.71477e-09
-1.60715e-07
-9.6518e-09
-1.59394e-07
-1.26659e-08
-1.57725e-07
-1.57489e-08
-1.55702e-07
-1.8891e-08
-1.5332e-07
-2.20807e-08
-1.50576e-07
-2.53049e-08
-1.47469e-07
-2.85486e-08
-1.44e-07
-3.1795e-08
-1.40173e-07
-3.50257e-08
-1.35992e-07
-3.82205e-08
-1.31466e-07
-4.13577e-08
-1.26605e-07
-4.44142e-08
-1.21421e-07
-4.73658e-08
-1.15929e-07
-5.01871e-08
-1.10147e-07
-5.28517e-08
-1.04091e-07
-5.53323e-08
-9.77829e-08
-5.76008e-08
-9.12437e-08
-5.96278e-08
-8.44955e-08
-6.13827e-08
-7.75607e-08
-6.28333e-08
-7.04617e-08
-6.39446e-08
-6.32199e-08
-6.46781e-08
-5.58555e-08
-6.49902e-08
-4.83873e-08
-6.48289e-08
-4.0834e-08
-6.41286e-08
-3.32167e-08
-6.27975e-08
-2.55684e-08
-6.06889e-08
-1.79559e-08
-5.75202e-08
-1.05491e-08
-5.26009e-08
-3.8858e-09
-4.36388e-08
-2.27872e-08
-2.4207e-09
1.49598e-08
-6.51505e-09
2.90244e-08
-1.10332e-08
3.51931e-08
-1.56645e-08
3.87411e-08
-2.03214e-08
4.12125e-08
-2.49781e-08
4.30696e-08
-2.963e-08
4.45003e-08
-3.42797e-08
4.56008e-08
-3.8931e-08
4.64298e-08
-4.35869e-08
4.70284e-08
-4.82485e-08
4.74277e-08
-5.2915e-08
4.76526e-08
-5.7584e-08
4.77238e-08
-6.22514e-08
4.76589e-08
-6.69121e-08
4.74726e-08
-7.15599e-08
4.71775e-08
-7.6188e-08
4.67845e-08
-8.0789e-08
4.63027e-08
-8.53552e-08
4.57396e-08
-8.98788e-08
4.51014e-08
-9.43518e-08
4.43931e-08
-9.87662e-08
4.36183e-08
-1.03114e-07
4.27794e-08
-1.07387e-07
4.18779e-08
-1.11578e-07
4.09142e-08
-1.15678e-07
3.98879e-08
-1.1968e-07
3.87976e-08
-1.23577e-07
3.76415e-08
-1.27359e-07
3.64171e-08
-1.31019e-07
3.51214e-08
-1.34548e-07
3.37512e-08
-1.37938e-07
3.2303e-08
-1.41181e-07
3.0773e-08
-1.44266e-07
2.91576e-08
-1.47185e-07
2.7453e-08
-1.49928e-07
2.56555e-08
-1.52484e-07
2.37614e-08
-1.54843e-07
2.17675e-08
-1.56994e-07
1.96706e-08
-1.58926e-07
1.74679e-08
-1.60627e-07
1.51572e-08
-1.62086e-07
1.27366e-08
-1.6329e-07
1.02048e-08
-1.64227e-07
7.56121e-09
-1.64886e-07
4.80618e-09
-1.65253e-07
1.94081e-09
-1.65318e-07
-1.03273e-09
-1.65069e-07
-4.11111e-09
-1.64494e-07
-7.2897e-09
-1.63583e-07
-1.05624e-08
-1.62327e-07
-1.39217e-08
-1.60718e-07
-1.73582e-08
-1.58748e-07
-2.08608e-08
-1.56412e-07
-2.44165e-08
-1.53707e-07
-2.80106e-08
-1.50629e-07
-3.16259e-08
-1.47181e-07
-3.52438e-08
-1.43363e-07
-3.88435e-08
-1.39181e-07
-4.24025e-08
-1.34642e-07
-4.58968e-08
-1.29755e-07
-4.9301e-08
-1.24532e-07
-5.25886e-08
-1.18987e-07
-5.57319e-08
-1.13137e-07
-5.87025e-08
-1.06997e-07
-6.14715e-08
-1.00589e-07
-6.40091e-08
-9.39319e-08
-6.62848e-08
-8.70473e-08
-6.82674e-08
-7.99565e-08
-6.99241e-08
-7.2681e-08
-7.12201e-08
-6.52417e-08
-7.21174e-08
-5.76589e-08
-7.2573e-08
-4.99527e-08
-7.25351e-08
-4.21444e-08
-7.19369e-08
-3.42606e-08
-7.06813e-08
-2.63427e-08
-6.86069e-08
-1.84703e-08
-6.53926e-08
-1.08298e-08
-6.02414e-08
-3.98188e-09
-5.04867e-08
-2.67691e-08
-2.43903e-09
1.73988e-08
-6.57218e-09
3.31576e-08
-1.11491e-08
3.977e-08
-1.58519e-08
4.3444e-08
-2.05859e-08
4.59465e-08
-2.53195e-08
4.78032e-08
-3.00439e-08
4.92247e-08
-3.47592e-08
5.03161e-08
-3.94683e-08
5.11389e-08
-4.4174e-08
5.17341e-08
-4.88781e-08
5.21318e-08
-5.35809e-08
5.23554e-08
-5.82811e-08
5.24241e-08
-6.29761e-08
5.23539e-08
-6.76618e-08
5.21583e-08
-7.23335e-08
5.18491e-08
-7.69852e-08
5.14362e-08
-8.16105e-08
5.0928e-08
-8.62026e-08
5.03317e-08
-9.07542e-08
4.9653e-08
-9.52579e-08
4.88968e-08
-9.9706e-08
4.80664e-08
-1.04091e-07
4.71643e-08
-1.08405e-07
4.61919e-08
-1.1264e-07
4.51495e-08
-1.16789e-07
4.40367e-08
-1.20843e-07
4.28521e-08
-1.24796e-07
4.15938e-08
-1.28638e-07
4.02592e-08
-1.32362e-07
3.88452e-08
-1.35959e-07
3.73483e-08
-1.3942e-07
3.57647e-08
-1.42738e-07
3.40905e-08
-1.45902e-07
3.23215e-08
-1.48902e-07
3.04537e-08
-1.5173e-07
2.8483e-08
-1.54374e-07
2.64055e-08
-1.56824e-07
2.42172e-08
-1.59068e-07
2.19147e-08
-1.61095e-07
1.94949e-08
-1.62893e-07
1.69551e-08
-1.64449e-07
1.4293e-08
-1.65752e-07
1.15073e-08
-1.66788e-07
8.59716e-09
-1.67544e-07
5.5627e-09
-1.68008e-07
2.4051e-09
-1.68168e-07
-8.73323e-10
-1.6801e-07
-4.26895e-09
-1.67523e-07
-7.77668e-09
-1.66696e-07
-1.13898e-08
-1.65517e-07
-1.50999e-08
-1.63979e-07
-1.88965e-08
-1.62073e-07
-2.27672e-08
-1.59792e-07
-2.66977e-08
-1.57131e-07
-3.06713e-08
-1.54088e-07
-3.4669e-08
-1.50661e-07
-3.86701e-08
-1.46853e-07
-4.26515e-08
-1.42667e-07
-4.65885e-08
-1.3811e-07
-5.04546e-08
-1.33189e-07
-5.42221e-08
-1.27915e-07
-5.7862e-08
-1.22303e-07
-6.13445e-08
-1.16366e-07
-6.46393e-08
-1.10122e-07
-6.77154e-08
-1.03589e-07
-7.05416e-08
-9.67881e-08
-7.30861e-08
-8.97388e-08
-7.53167e-08
-8.24626e-08
-7.72002e-08
-7.49812e-08
-7.87015e-08
-6.73159e-08
-7.97827e-08
-5.94884e-08
-8.04004e-08
-5.15215e-08
-8.05021e-08
-4.34404e-08
-8.00179e-08
-3.52783e-08
-7.88434e-08
-2.70854e-08
-7.67997e-08
-1.89539e-08
-7.35241e-08
-1.10859e-08
-6.81094e-08
-4.06426e-09
-5.75084e-08
-3.08334e-08
-2.44251e-09
1.98413e-08
-6.59716e-09
3.73122e-08
-1.12163e-08
4.43892e-08
-1.59764e-08
4.8204e-08
-2.07762e-08
5.07464e-08
-2.55789e-08
5.26059e-08
-3.03717e-08
5.40175e-08
-3.51518e-08
5.50963e-08
-3.99206e-08
5.59077e-08
-4.46803e-08
5.64938e-08
-4.94327e-08
5.68841e-08
-5.41786e-08
5.71013e-08
-5.89175e-08
5.7163e-08
-6.36478e-08
5.70841e-08
-6.83664e-08
5.6877e-08
-7.30694e-08
5.65522e-08
-7.77521e-08
5.61188e-08
-8.24088e-08
5.55847e-08
-8.70334e-08
5.49563e-08
-9.16193e-08
5.4239e-08
-9.61597e-08
5.34372e-08
-1.00647e-07
5.25541e-08
-1.05075e-07
5.15921e-08
-1.09436e-07
5.05522e-08
-1.13721e-07
4.94349e-08
-1.17924e-07
4.82396e-08
-1.22037e-07
4.69649e-08
-1.26052e-07
4.56086e-08
-1.2996e-07
4.4168e-08
-1.33755e-07
4.26399e-08
-1.37427e-07
4.10204e-08
-1.40968e-07
3.93057e-08
-1.44369e-07
3.74914e-08
-1.4762e-07
3.55729e-08
-1.50713e-07
3.35459e-08
-1.53635e-07
3.14058e-08
-1.56378e-07
2.91482e-08
-1.5893e-07
2.67688e-08
-1.61279e-07
2.42638e-08
-1.63413e-07
2.16294e-08
-1.65321e-07
1.88626e-08
-1.66989e-07
1.59608e-08
-1.68403e-07
1.29222e-08
-1.69552e-07
9.74576e-09
-1.70421e-07
6.43149e-09
-1.70996e-07
2.98046e-09
-1.71265e-07
-6.04961e-10
-1.71213e-07
-4.32092e-09
-1.70827e-07
-8.16193e-09
-1.70096e-07
-1.21207e-08
-1.69008e-07
-1.6188e-08
-1.67552e-07
-2.03523e-08
-1.65719e-07
-2.46002e-08
-1.63502e-07
-2.89156e-08
-1.60893e-07
-3.32801e-08
-1.57889e-07
-3.76731e-08
-1.54487e-07
-4.20713e-08
-1.50689e-07
-4.64498e-08
-1.46496e-07
-5.07812e-08
-1.41914e-07
-5.50367e-08
-1.3695e-07
-5.91861e-08
-1.31614e-07
-6.3198e-08
-1.25919e-07
-6.70402e-08
-1.19878e-07
-7.06803e-08
-1.13508e-07
-7.40852e-08
-1.06827e-07
-7.7222e-08
-9.98559e-08
-8.00575e-08
-9.26143e-08
-8.25584e-08
-8.51242e-08
-8.46904e-08
-7.74079e-08
-8.64178e-08
-6.94886e-08
-8.7702e-08
-6.13904e-08
-8.84986e-08
-5.31394e-08
-8.87531e-08
-4.47661e-08
-8.83912e-08
-3.63105e-08
-8.72991e-08
-2.7832e-08
-8.52781e-08
-1.94347e-08
-8.19215e-08
-1.13358e-08
-7.62082e-08
-4.14107e-09
-6.47032e-08
-3.49744e-08
-2.43601e-09
2.22773e-08
-6.60022e-09
4.14764e-08
-1.12498e-08
4.90387e-08
-1.60561e-08
5.30104e-08
-2.09128e-08
5.56031e-08
-2.57781e-08
5.74712e-08
-3.06354e-08
5.88747e-08
-3.54792e-08
5.994e-08
-4.03088e-08
6.07373e-08
-4.51255e-08
6.13105e-08
-4.99309e-08
6.16895e-08
-5.47256e-08
6.18961e-08
-5.95099e-08
6.19473e-08
-6.42825e-08
6.18567e-08
-6.90413e-08
6.16358e-08
-7.37831e-08
6.1294e-08
-7.8504e-08
6.08397e-08
-8.31992e-08
6.02798e-08
-8.78632e-08
5.96203e-08
-9.24902e-08
5.8866e-08
-9.70739e-08
5.80209e-08
-1.01608e-07
5.70879e-08
-1.06085e-07
5.6069e-08
-1.10498e-07
5.49653e-08
-1.1484e-07
5.3777e-08
-1.19103e-07
5.25032e-08
-1.23281e-07
5.11425e-08
-1.27365e-07
4.96927e-08
-1.31348e-07
4.81507e-08
-1.35221e-07
4.6513e-08
-1.38976e-07
4.47758e-08
-1.42605e-07
4.29346e-08
-1.46098e-07
4.09847e-08
-1.49447e-07
3.89214e-08
-1.52641e-07
3.67397e-08
-1.55669e-07
3.44345e-08
-1.58522e-07
3.2001e-08
-1.61188e-07
2.94344e-08
-1.63654e-07
2.67302e-08
-1.65909e-07
2.38844e-08
-1.6794e-07
2.08932e-08
-1.69733e-07
1.77538e-08
-1.71274e-07
1.44638e-08
-1.7255e-07
1.10218e-08
-1.73547e-07
7.42756e-09
-1.74248e-07
3.682e-09
-1.7464e-07
-2.12535e-10
-1.74709e-07
-4.25209e-09
-1.7444e-07
-8.43088e-09
-1.7382e-07
-1.27411e-08
-1.72835e-07
-1.71728e-08
-1.71474e-07
-2.17136e-08
-1.69725e-07
-2.63488e-08
-1.6758e-07
-3.10608e-08
-1.65031e-07
-3.58296e-08
-1.62071e-07
-4.06326e-08
-1.58698e-07
-4.54445e-08
-1.5491e-07
-5.02379e-08
-1.50708e-07
-5.4983e-08
-1.46096e-07
-5.96486e-08
-1.41081e-07
-6.42016e-08
-1.3567e-07
-6.86083e-08
-1.29877e-07
-7.28339e-08
-1.23713e-07
-7.68435e-08
-1.17197e-07
-8.06018e-08
-1.10345e-07
-8.4074e-08
-1.03177e-07
-8.72249e-08
-9.5716e-08
-9.00198e-08
-8.79834e-08
-9.2423e-08
-8.00036e-08
-9.43975e-08
-7.18021e-08
-9.59034e-08
-6.34062e-08
-9.68945e-08
-5.48464e-08
-9.73129e-08
-4.61589e-08
-9.70787e-08
-3.73907e-08
-9.60672e-08
-2.86108e-08
-9.40581e-08
-1.99342e-08
-9.0598e-08
-1.15937e-08
-8.45488e-08
-4.21831e-09
-7.20785e-08
-3.91928e-08
-2.42314e-09
2.47005e-08
-6.58898e-09
4.56422e-08
-1.12606e-08
5.37103e-08
-1.61053e-08
5.78551e-08
-2.1012e-08
6.05097e-08
-2.59346e-08
6.23937e-08
-3.0853e-08
6.37931e-08
-3.5759e-08
6.4846e-08
-4.065e-08
6.56283e-08
-4.55261e-08
6.61866e-08
-5.03881e-08
6.65514e-08
-5.52366e-08
6.67446e-08
-6.00719e-08
6.67825e-08
-6.48931e-08
6.6678e-08
-6.96987e-08
6.64414e-08
-7.44863e-08
6.60816e-08
-7.92524e-08
6.56058e-08
-8.3993e-08
6.50204e-08
-8.87034e-08
6.43307e-08
-9.33783e-08
6.35409e-08
-9.8012e-08
6.26546e-08
-1.02598e-07
6.16743e-08
-1.07131e-07
6.06018e-08
-1.11604e-07
5.94378e-08
-1.16009e-07
5.81822e-08
-1.2034e-07
5.68343e-08
-1.2459e-07
5.53921e-08
-1.2875e-07
5.38534e-08
-1.32815e-07
5.22148e-08
-1.36774e-07
5.04727e-08
-1.40621e-07
4.86227e-08
-1.44347e-07
4.66602e-08
-1.47942e-07
4.458e-08
-1.51398e-07
4.23769e-08
-1.54703e-07
4.00455e-08
-1.57849e-07
3.75802e-08
-1.60824e-07
3.49755e-08
-1.63615e-07
3.22262e-08
-1.66212e-07
2.93271e-08
-1.68601e-07
2.62735e-08
-1.70769e-07
2.30613e-08
-1.72702e-07
1.96868e-08
-1.74386e-07
1.61473e-08
-1.75805e-07
1.24408e-08
-1.76944e-07
8.56677e-09
-1.77788e-07
4.52578e-09
-1.78321e-07
3.20047e-10
-1.78526e-07
-4.04651e-09
-1.78389e-07
-8.56788e-09
-1.77894e-07
-1.32359e-08
-1.77027e-07
-1.804e-08
-1.75774e-07
-2.29669e-08