/*--------------------------------*- C++ -*----------------------------------*\
  =========                 |
  \\      /  F ield         | OpenFOAM: The Open Source CFD Toolbox
   \\    /   O peration     | Website:  https://openfoam.org
    \\  /    A nd           | Version:  13
     \\/     M anipulation  |
\*---------------------------------------------------------------------------*/
FoamFile
{
    format      ascii;
    class       volScalarField;
    location    "7";
    object      epsilon;
}
// * * * * * * * * * * * * * * * * * * * * * * * * * * * * * * * * * * * * * //

dimensions      [0 2 -3 0 0 0 0];

internalField   nonuniform List<scalar> 
400
(
1.62465e-05
5.09243e-05
0.000233986
0.000529925
0.000741592
0.000898698
0.00102532
0.00114607
0.0012515
0.0013594
0.00146026
0.00156689
0.00167409
0.00174916
0.0017838
0.001788
0.00166136
0.00131472
0.00080758
0.00058356
7.65602e-05
0.000218179
0.000606783
0.000899664
0.000973405
0.00100435
0.00101482
0.00105809
0.0011029
0.00118521
0.00128563
0.00141767
0.00157418
0.00176076
0.00196842
0.00217852
0.0022793
0.00228972
0.0018146
0.00120157
0.000267475
0.000701045
0.000937139
0.000975946
0.000968507
0.000964543
0.000960243
0.000997355
0.00105592
0.00113159
0.00121647
0.00131085
0.0014218
0.00156062
0.00173404
0.00194729
0.00214026
0.00222071
0.00205464
0.00155765
0.000617004
0.000979343
0.00101383
0.000951218
0.000912219
0.000882869
0.000878653
0.000906
0.000936265
0.000968307
0.00100627
0.00106304
0.00115303
0.00128612
0.00148615
0.00176175
0.0020665
0.00220434
0.00217363
0.00178989
0.000899977
0.00112363
0.000994539
0.000881751
0.000806465
0.000768267
0.000749176
0.000738263
0.000724787
0.000719067
0.00072197
0.000757492
0.00083454
0.000974112
0.00120725
0.00156319
0.00203883
0.0023238
0.00236038
0.00196462
0.00106651
0.00112267
0.000937432
0.00078396
0.000704149
0.000651934
0.000607354
0.00056112
0.00051499
0.000484946
0.000473331
0.00048346
0.000547834
0.000679094
0.000921354
0.00133136
0.00195209
0.00249032
0.00262247
0.00210578
0.00110067
0.00108583
0.000849433
0.000696907
0.000614003
0.000547956
0.000482938
0.000416064
0.000355756
0.000314983
0.000297186
0.000295205
0.000340122
0.000448287
0.000668755
0.00108838
0.00181004
0.00264761
0.00292191
0.00221577
0.00108474
0.00100495
0.000767811
0.000625013
0.000541142
0.000466242
0.00039016
0.000316095
0.00025434
0.000213085
0.000194068
0.000189878
0.000216887
0.000294711
0.000473983
0.000861351
0.00161532
0.00273508
0.0032836
0.00230556
0.00104328
0.000908253
0.000696889
0.000568283
0.000486428
0.000408348
0.000329063
0.000255745
0.000198044
0.000160816
0.000143725
0.000139951
0.000157268
0.000209979
0.000344709
0.000684137
0.00145532
0.00276158
0.00363968
0.00236867
0.000959727
0.000826774
0.000639859
0.000525802
0.000447941
0.000371
0.000293642
0.000224332
0.000171996
0.000138785
0.000123138
0.000120255
0.000132531
0.00017023
0.000269624
0.000549635
0.00129098
0.00276248
0.0040172
0.00241692
0.000872224
0.000755146
0.00059421
0.000493675
0.000421471
0.000349231
0.00027632
0.000213646
0.000166711
0.000135938
0.000119473
0.000116112
0.000125523
0.000155423
0.000234841
0.000466903
0.0011521
0.00271946
0.00435294
0.00244049
0.000796556
0.000711177
0.000562835
0.000472451
0.00040543
0.000338241
0.000274056
0.00021615
0.000171541
0.000142004
0.000125915
0.00012235
0.000128811
0.000153037
0.000223465
0.00042756
0.00104743
0.00268273
0.00464807
0.00245096
0.000714012
0.000671213
0.000544812
0.00045902
0.000397402
0.000338482
0.000278252
0.000224954
0.000184277
0.000156729
0.000140731
0.000137324
0.000143065
0.000164406
0.000225253
0.000414205
0.000996381
0.00265941
0.00479855
0.002453
0.000638469
0.000653101
0.000550002
0.000462624
0.00040109
0.000344204
0.000289252
0.000242205
0.00020513
0.000179311
0.000163009
0.00016
0.000165852
0.000187516
0.00024778
0.000425172
0.000978622
0.00265199
0.00485492
0.00244667
0.000550586
0.000625877
0.000560986
0.000476934
0.000415153
0.000359908
0.000309191
0.000265915
0.000231759
0.000208049
0.00019178
0.000190266
0.000197131
0.000221605
0.000287307
0.000473003
0.00100913
0.00268603
0.00479739
0.00241036
0.000463055
0.000612538
0.000586598
0.000518148
0.000452297
0.000395622
0.000345346
0.000302536
0.000268389
0.000245193
0.000228805
0.000229578
0.000239507
0.000271719
0.000353702
0.000573079
0.00113295
0.00280506
0.00452378
0.00233302
0.000360248
0.000556975
0.000593782
0.000572697
0.000524673
0.000468425
0.000414908
0.000368181
0.000331031
0.000305429
0.000292457
0.000297003
0.000316556
0.000371197
0.000498155
0.000813858
0.00145836
0.0030928
0.0040669
0.00220674
0.000240558
0.000498273
0.000655731
0.000707015
0.000694334
0.00064977
0.000589165
0.000535571
0.000495435
0.000473689
0.000479684
0.000507729
0.000572899
0.000710421
0.000986937
0.0016258
0.00242585
0.00370108
0.00380804
0.00202872
0.000272947
0.000513647
0.000876007
0.00104942
0.00111769
0.00112031
0.00111312
0.00111848
0.00114788
0.00121786
0.00135778
0.00158835
0.00190213
0.00241726
0.00305776
0.00404594
0.00466749
0.00445328
0.0037925
0.00177657
0.000196839
0.000311823
0.000574189
0.000826146
0.00102372
0.0011519
0.00122775
0.00127647
0.00130076
0.0013233
0.00133505
0.00135856
0.00137745
0.00141893
0.00144821
0.00151564
0.00158882
0.00166573
0.00164684
0.00146783
)
;

boundaryField
{
    movingWall
    {
        type            epsilonWallFunction;
        value           nonuniform List<scalar> 
20
(
0.000196839
0.000311823
0.000574189
0.000826146
0.00102372
0.0011519
0.00122775
0.00127647
0.00130076
0.0013233
0.00133505
0.00135856
0.00137745
0.00141893
0.00144821
0.00151564
0.00158882
0.00166573
0.00164684
0.00146783
)
;
    }
    fixedWalls
    {
        type            epsilonWallFunction;
        value           nonuniform List<scalar> 
60
(
1.62465e-05
7.65602e-05
0.000267475
0.000617004
0.000899977
0.00106651
0.00110067
0.00108474
0.00104328
0.000959727
0.000872224
0.000796556
0.000714012
0.000638469
0.000550586
0.000463055
0.000360248
0.000240558
0.000272947
0.000196839
0.00058356
0.00120157
0.00155765
0.00178989
0.00196462
0.00210578
0.00221577
0.00230556
0.00236867
0.00241692
0.00244049
0.00245096
0.002453
0.00244667
0.00241036
0.00233302
0.00220674
0.00202872
0.00177657
0.00146783
1.62465e-05
5.09243e-05
0.000233986
0.000529925
0.000741592
0.000898698
0.00102532
0.00114607
0.0012515
0.0013594
0.00146026
0.00156689
0.00167409
0.00174916
0.0017838
0.001788
0.00166136
0.00131472
0.00080758
0.00058356
)
;
    }
    frontAndBack
    {
        type            empty;
    }
}


// ************************************************************************* //
