/*--------------------------------*- C++ -*----------------------------------*\
  =========                 |
  \\      /  F ield         | OpenFOAM: The Open Source CFD Toolbox
   \\    /   O peration     | Website:  https://openfoam.org
    \\  /    A nd           | Version:  13
     \\/     M anipulation  |
\*---------------------------------------------------------------------------*/
FoamFile
{
    format      ascii;
    class       volScalarField;
    location    "7";
    object      nut;
}
// * * * * * * * * * * * * * * * * * * * * * * * * * * * * * * * * * * * * * //

dimensions      [0 2 -1 0 0 0 0];

internalField   nonuniform List<scalar> 
400
(
1.43189e-07
4.49016e-07
2.06003e-06
4.66055e-06
6.51985e-06
7.90051e-06
9.01332e-06
1.00746e-05
1.10014e-05
1.19499e-05
1.28366e-05
1.37742e-05
1.47168e-05
1.53768e-05
1.56814e-05
1.57183e-05
1.46051e-05
1.15576e-05
7.09898e-06
5.12948e-06
6.74269e-07
3.12584e-06
5.84199e-06
1.24501e-05
1.64032e-05
2.23231e-05
2.62236e-05
3.14784e-05
3.55301e-05
3.94439e-05
4.23682e-05
4.45805e-05
4.5528e-05
4.61112e-05
4.58974e-05
4.36746e-05
4.22658e-05
3.41656e-05
1.88593e-05
1.05618e-05
2.35375e-06
1.06532e-05
2.01005e-05
2.69583e-05
3.35008e-05
3.98094e-05
4.51849e-05
5.01461e-05
5.32418e-05
5.57745e-05
5.73228e-05
5.82687e-05
5.83926e-05
5.83173e-05
5.73621e-05
5.4531e-05
5.07655e-05
4.48798e-05
2.56162e-05
1.36919e-05
5.42835e-06
2.26876e-05
3.08323e-05
3.75712e-05
4.38493e-05
4.93212e-05
5.39845e-05
5.74211e-05
6.02138e-05
6.29188e-05
6.42174e-05
6.47231e-05
6.47997e-05
6.4605e-05
6.38291e-05
6.146e-05
5.56359e-05
5.2425e-05
3.40749e-05
1.57335e-05
7.91614e-06
2.99487e-05
3.78527e-05
4.35606e-05
5.01643e-05
5.5882e-05
6.09843e-05
6.43226e-05
6.62635e-05
6.63767e-05
6.60714e-05
6.59568e-05
6.62302e-05
6.66376e-05
6.73155e-05
6.74863e-05
6.13646e-05
5.60755e-05
4.07029e-05
1.72695e-05
9.37888e-06
3.4002e-05
4.12187e-05
4.86104e-05
5.59596e-05
6.14874e-05
6.53418e-05
6.5896e-05
6.56873e-05
6.55419e-05
6.54567e-05
6.52524e-05
6.51283e-05
6.55797e-05
6.69521e-05
6.89345e-05
6.69275e-05
5.97406e-05
4.7088e-05
1.85105e-05
9.6784e-06
3.45855e-05
4.46523e-05
5.28855e-05
5.95183e-05
6.32199e-05
6.53523e-05
6.5314e-05
6.54503e-05
6.58134e-05
6.61683e-05
6.63068e-05
6.55981e-05
6.51172e-05
6.60937e-05
6.91382e-05
7.24558e-05
6.3177e-05
5.21774e-05
1.94775e-05
9.53828e-06
3.55224e-05
4.70727e-05
5.4924e-05
6.07458e-05
6.37602e-05
6.51309e-05
6.5391e-05
6.6439e-05
6.7901e-05
6.90989e-05
6.96012e-05
6.85926e-05
6.67515e-05
6.57103e-05
6.80293e-05
7.3824e-05
6.72974e-05
5.69002e-05
2.02671e-05
9.17368e-06
3.52586e-05
4.75682e-05
5.56459e-05
6.116e-05
6.39096e-05
6.51765e-05
6.60998e-05
6.81764e-05
7.05245e-05
7.21487e-05
7.26173e-05
7.13147e-05
6.91041e-05
6.67925e-05
6.65502e-05
7.13201e-05
7.09577e-05
6.03039e-05
2.08223e-05
8.43919e-06
3.50355e-05
4.75371e-05
5.57503e-05
6.11642e-05
6.39338e-05
6.53356e-05
6.68432e-05
6.93998e-05
7.21069e-05
7.37476e-05
7.39953e-05
7.29461e-05
7.10204e-05
6.84744e-05
6.73652e-05
7.02609e-05
7.29081e-05
6.36079e-05
2.12472e-05
7.67008e-06
3.3231e-05
4.62696e-05
5.49309e-05
6.05572e-05
6.35295e-05
6.53147e-05
6.67268e-05
6.89327e-05
7.13902e-05
7.32061e-05
7.36642e-05
7.30754e-05
7.16498e-05
6.97711e-05
6.8097e-05
7.012e-05
7.46995e-05
6.60465e-05
2.14549e-05
7.00503e-06
3.09794e-05
4.51333e-05
5.38119e-05
5.9899e-05
6.32919e-05
6.45434e-05
6.62169e-05
6.81244e-05
7.01084e-05
7.14339e-05
7.17282e-05
7.16438e-05
7.14191e-05
7.01854e-05
6.87318e-05
6.99236e-05
7.5806e-05
6.7878e-05
2.15473e-05
6.27966e-06
2.72399e-05
4.20864e-05
5.14301e-05
5.78463e-05
6.17629e-05
6.38662e-05
6.52353e-05
6.65911e-05
6.7909e-05
6.89003e-05
6.94165e-05
6.96496e-05
7.01922e-05
7.04285e-05
6.91713e-05
6.95635e-05
7.62065e-05
6.86514e-05
2.15656e-05
5.61576e-06
2.45721e-05
3.92546e-05
4.90063e-05
5.54956e-05
6.05002e-05
6.26327e-05
6.37758e-05
6.47816e-05
6.569e-05
6.65399e-05
6.74087e-05
6.79453e-05
6.90678e-05
7.01814e-05
7.00671e-05
6.94907e-05
7.58523e-05
6.8745e-05
2.15111e-05
4.84367e-06
2.02897e-05
3.45604e-05
4.54277e-05
5.24922e-05
5.83061e-05
6.12244e-05
6.23876e-05
6.32103e-05
6.38558e-05
6.47693e-05
6.55803e-05
6.64214e-05
6.78261e-05
6.92255e-05
6.97825e-05
6.87517e-05
7.45393e-05
6.65116e-05
2.11911e-05
4.07435e-06
1.77218e-05
3.11485e-05
4.20023e-05
4.94854e-05
5.5237e-05
5.91863e-05
6.08125e-05
6.17795e-05
6.22225e-05
6.31711e-05
6.35918e-05
6.43932e-05
6.55578e-05
6.66408e-05
6.85764e-05
6.63807e-05
7.13155e-05
6.36895e-05
2.05116e-05
3.17147e-06
1.3089e-05
2.60369e-05
3.83619e-05
4.61397e-05
5.13307e-05
5.57676e-05
5.77785e-05
5.87142e-05
5.9032e-05
5.95354e-05
5.97771e-05
6.02368e-05
6.08295e-05
6.12707e-05
6.4921e-05
6.29695e-05
6.69227e-05
5.85886e-05
1.94009e-05
2.11814e-06
1.14532e-05
2.4828e-05
3.53584e-05
4.432e-05
4.75637e-05
5.12872e-05
5.32774e-05
5.38779e-05
5.37524e-05
5.3638e-05
5.34767e-05
5.35707e-05
5.49416e-05
5.53893e-05
6.01576e-05
6.32472e-05
6.1451e-05
4.99938e-05
1.78362e-05
2.4013e-06
1.32301e-05
2.39113e-05
3.1362e-05
3.74976e-05
4.11802e-05
4.39694e-05
4.57026e-05
4.75401e-05
4.92418e-05
5.10792e-05
5.2861e-05
5.58967e-05
5.95161e-05
6.36936e-05
6.9725e-05
6.62182e-05
5.99018e-05
4.36861e-05
1.56195e-05
1.73184e-06
2.74288e-06
5.04997e-06
7.26616e-06
9.0034e-06
1.01299e-05
1.07967e-05
1.12254e-05
1.14389e-05
1.16371e-05
1.17403e-05
1.19468e-05
1.21127e-05
1.24767e-05
1.27337e-05
1.33257e-05
1.39688e-05
1.46446e-05
1.44785e-05
1.29044e-05
)
;

boundaryField
{
    movingWall
    {
        type            nutkWallFunction;
        Cmu             0.09;
        kappa           0.41;
        E               9.8;
        value           uniform 0;
    }
    fixedWalls
    {
        type            nutkWallFunction;
        Cmu             0.09;
        kappa           0.41;
        E               9.8;
        value           uniform 0;
    }
    frontAndBack
    {
        type            empty;
    }
}


// ************************************************************************* //
