/*--------------------------------*- C++ -*----------------------------------*\
  =========                 |
  \\      /  F ield         | OpenFOAM: The Open Source CFD Toolbox
   \\    /   O peration     | Website:  https://openfoam.org
    \\  /    A nd           | Version:  13
     \\/     M anipulation  |
\*---------------------------------------------------------------------------*/
FoamFile
{
    format      ascii;
    class       volScalarField;
    location    "1";
    object      epsilon;
}
// * * * * * * * * * * * * * * * * * * * * * * * * * * * * * * * * * * * * * //

dimensions      [0 2 -3 0 0 0 0];

internalField   nonuniform List<scalar> 
400
(
0.000654144
0.000851804
0.00100921
0.00110511
0.0011595
0.00119038
0.00120944
0.00122344
0.00123578
0.00124776
0.00125943
0.00127
0.00127752
0.00127968
0.00126689
0.0012299
0.0011573
0.00103422
0.000847324
0.000655995
0.000852942
0.000687908
0.000739921
0.000788013
0.000817526
0.000833623
0.00084213
0.000846897
0.000849973
0.000852224
0.000853646
0.000854111
0.000853635
0.000850436
0.000840603
0.000820748
0.000787299
0.000738629
0.000695918
0.000852174
0.00103814
0.000735637
0.000741206
0.000768639
0.000789575
0.000802144
0.00080888
0.000812384
0.000814371
0.000815752
0.000816798
0.000817284
0.000817123
0.000814865
0.000808505
0.000796056
0.000775954
0.000755796
0.000758318
0.00100163
0.00116626
0.000788427
0.000768146
0.000784431
0.000800926
0.000811963
0.000818296
0.000821759
0.000823849
0.000825482
0.000827033
0.000828474
0.000829324
0.000828893
0.000825861
0.000819062
0.000807907
0.00079832
0.000815027
0.00107302
0.00125099
0.000828269
0.000795676
0.000805197
0.000818702
0.000828737
0.000835022
0.000838849
0.000841534
0.000843991
0.000846689
0.00084978
0.000852994
0.000855719
0.000857248
0.000856543
0.000852005
0.0008458
0.000857288
0.0010892
0.00130684
0.000856485
0.00081723
0.00082339
0.000835428
0.000845094
0.000851635
0.000856103
0.000859755
0.00086358
0.000868239
0.000874149
0.000881436
0.000890113
0.000899906
0.000909575
0.000914534
0.000910602
0.000901914
0.0010724
0.00134458
0.000876484
0.000833702
0.000838358
0.000849817
0.00085947
0.000866428
0.000871712
0.000876666
0.000882474
0.000890159
0.000900676
0.000914965
0.000934066
0.000958937
0.000989538
0.00101463
0.0010185
0.00097865
0.00105316
0.00137182
0.000891373
0.000846644
0.000850697
0.00086199
0.000871758
0.000879158
0.000885339
0.000891859
0.000900271
0.000912187
0.000929501
0.00095453
0.000990299
0.00104035
0.00110769
0.00118904
0.00123432
0.00119334
0.0011563
0.00139387
0.000903558
0.00085751
0.000861236
0.000872399
0.00088217
0.00088986
0.000896847
0.000905019
0.00091645
0.000933571
0.000959573
0.000998716
0.00105707
0.00114367
0.00127536
0.00148411
0.0017291
0.00182171
0.00171378
0.00141431
0.000914772
0.000867423
0.000870655
0.000881398
0.000890815
0.000898433
0.000905914
0.000915522
0.000929899
0.000952349
0.000987352
0.00104111
0.00112351
0.00125469
0.00149041
0.00197339
0.00272447
0.00304299
0.00288994
0.00143566
0.000926215
0.00087713
0.000879355
0.000889116
0.000897642
0.000904704
0.000912218
0.000922754
0.000939351
0.000965864
0.0010074
0.00107135
0.00117227
0.00135197
0.0017467
0.00264219
0.00384899
0.00431456
0.00408965
0.00145975
0.000938667
0.00088699
0.000887462
0.000895579
0.000902785
0.000909069
0.000916455
0.000927566
0.000945425
0.000973732
0.00101704
0.0010826
0.0011893
0.001406
0.00193166
0.00308085
0.00456465
0.0051984
0.00483218
0.00148842
0.000952596
0.000896982
0.000895077
0.000901361
0.000907816
0.00091455
0.000923221
0.000936135
0.000955748
0.000984732
0.00102586
0.00108438
0.00117989
0.00139384
0.00195382
0.00318353
0.0050097
0.00611438
0.00540595
0.00152235
0.000967792
0.000907199
0.000903239
0.000909911
0.000918887
0.000929589
0.000943595
0.000962614
0.000988052
0.00102077
0.00106079
0.00111012
0.00118679
0.0013685
0.00189048
0.00315185
0.00526616
0.00715857
0.00590406
0.0015644
0.000984282
0.000919571
0.00091812
0.000931844
0.000951737
0.000976754
0.00100769
0.00104523
0.0010892
0.00113774
0.00118708
0.00123393
0.00129062
0.00143149
0.0018777
0.00308681
0.00537833
0.00806622
0.00622982
0.00160878
0.00100329
0.000944356
0.000959249
0.000999101
0.00105288
0.00111851
0.00119549
0.00128286
0.00137822
0.00147605
0.00156677
0.00163939
0.00169633
0.00180102
0.00215764
0.00321566
0.00556338
0.00848021
0.00647942
0.00166197
0.00104277
0.00101718
0.00109366
0.00121268
0.00136026
0.00153257
0.00172648
0.00193746
0.00215949
0.00238123
0.00258572
0.00274958
0.0028606
0.00295033
0.00321283
0.00404152
0.00621773
0.00856115
0.00668021
0.00175267
0.00115867
0.00128488
0.00156676
0.00191687
0.0023156
0.00275339
0.00321929
0.00370016
0.00418395
0.00464984
0.00507928
0.00543254
0.00569532
0.00579775
0.00593879
0.00641467
0.00793312
0.0084995
0.00675442
0.00173585
0.00148823
0.002234
0.00318262
0.00414573
0.00511652
0.00608358
0.0070285
0.00792511
0.00876614
0.00952464
0.0102133
0.0107514
0.0111993
0.0113264
0.0112692
0.0108185
0.0103701
0.00893225
0.00675664
0.00149306
0.00180472
0.00239612
0.00296266
0.00350004
0.0040095
0.0044939
0.00495557
0.00540003
0.00582576
0.00624368
0.00663129
0.00702488
0.00735342
0.00764493
0.0078016
0.00779978
0.00774249
0.00749525
0.00658908
)
;

boundaryField
{
    movingWall
    {
        type            epsilonWallFunction;
        value           nonuniform List<scalar> 
20
(
0.00149306
0.00180472
0.00239612
0.00296266
0.00350004
0.0040095
0.0044939
0.00495557
0.00540003
0.00582576
0.00624368
0.00663129
0.00702488
0.00735342
0.00764493
0.0078016
0.00779978
0.00774249
0.00749525
0.00658908
)
;
    }
    fixedWalls
    {
        type            epsilonWallFunction;
        value           nonuniform List<scalar> 
60
(
0.000654144
0.000852942
0.00103814
0.00116626
0.00125099
0.00130684
0.00134458
0.00137182
0.00139387
0.00141431
0.00143566
0.00145975
0.00148842
0.00152235
0.0015644
0.00160878
0.00166197
0.00175267
0.00173585
0.00149306
0.000655995
0.000852174
0.00100163
0.00107302
0.0010892
0.0010724
0.00105316
0.0011563
0.00171378
0.00288994
0.00408965
0.00483218
0.00540595
0.00590406
0.00622982
0.00647942
0.00668021
0.00675442
0.00675664
0.00658908
0.000654144
0.000851804
0.00100921
0.00110511
0.0011595
0.00119038
0.00120944
0.00122344
0.00123578
0.00124776
0.00125943
0.00127
0.00127752
0.00127968
0.00126689
0.0012299
0.0011573
0.00103422
0.000847324
0.000655995
)
;
    }
    frontAndBack
    {
        type            empty;
    }
}


// ************************************************************************* //
