/*--------------------------------*- C++ -*----------------------------------*\
  =========                 |
  \\      /  F ield         | OpenFOAM: The Open Source CFD Toolbox
   \\    /   O peration     | Website:  https://openfoam.org
    \\  /    A nd           | Version:  13
     \\/     M anipulation  |
\*---------------------------------------------------------------------------*/
FoamFile
{
    format      ascii;
    class       volScalarField;
    location    "1";
    object      k;
}
// * * * * * * * * * * * * * * * * * * * * * * * * * * * * * * * * * * * * * //

dimensions      [0 2 -2 0 0 0 0];

internalField   nonuniform List<scalar> 
400
(
0.000201615
0.000263106
0.000312086
0.000341945
0.000358901
0.000368543
0.00037451
0.000378901
0.000382776
0.000386544
0.00039021
0.000393528
0.000395872
0.000396556
0.00039256
0.000381004
0.000358343
0.000319953
0.000261699
0.000202207
0.000263471
0.000461836
0.000561833
0.00061861
0.00065198
0.00067214
0.000685279
0.00069516
0.00070389
0.000712398
0.000720693
0.00072766
0.000730954
0.000729854
0.000720056
0.000696828
0.000653162
0.000578691
0.000453667
0.000263237
0.000321174
0.000583154
0.000711968
0.000785519
0.000829076
0.000855082
0.000871164
0.000882102
0.000890666
0.000898118
0.000904535
0.000908385
0.000908904
0.00090279
0.000885812
0.000852354
0.00079453
0.000700165
0.000543733
0.000309693
0.000361139
0.000659243
0.000806253
0.000891042
0.000941847
0.00097226
0.00099067
0.00100248
0.0010109
0.00101747
0.00102203
0.00102373
0.0010209
0.00100983
0.00098602
0.000943365
0.000873417
0.000763035
0.000581993
0.000331724
0.000387615
0.000709229
0.000869142
0.000962305
0.00101863
0.00105248
0.00107278
0.00108535
0.00109374
0.00109965
0.00110264
0.0011027
0.00109677
0.00108127
0.00105125
0.00100004
0.000918422
0.000790741
0.000588484
0.000336568
0.000405098
0.000742782
0.000912183
0.00101167
0.0010722
0.00110868
0.00113046
0.0011437
0.00115221
0.00115764
0.00115996
0.00115874
0.00115061
0.00113162
0.00109625
0.00103692
0.000942896
0.000796385
0.000569759
0.000331129
0.000416929
0.000765948
0.000942313
0.0010465
0.00111013
0.00114854
0.0011714
0.0011852
0.00119396
0.00119941
0.00120165
0.00119998
0.00119069
0.00116922
0.00112909
0.00106125
0.000952133
0.000785537
0.00053455
0.000325904
0.000425477
0.000782817
0.000964232
0.00107178
0.00113751
0.00117714
0.00120066
0.00121486
0.00122397
0.00122984
0.00123245
0.00123104
0.00122122
0.00119744
0.0011515
0.00107279
0.000952326
0.000781269
0.000540379
0.000362699
0.000432387
0.000796209
0.000981219
0.00109094
0.00115783
0.00119794
0.00122164
0.00123595
0.00124531
0.0012517
0.00125473
0.00125351
0.00124247
0.00121443
0.00115965
0.00107141
0.000960367
0.000859487
0.000732463
0.000548145
0.000438782
0.00080807
0.000995528
0.00110633
0.00117341
0.00121321
0.00123647
0.00125047
0.00125974
0.00126618
0.00126908
0.00126664
0.00125155
0.00121475
0.00114799
0.0010714
0.00106455
0.0011692
0.001207
0.000923988
0.000445446
0.000819729
0.00100864
0.00111942
0.00118567
0.00122434
0.00124653
0.00125973
0.00126845
0.00127402
0.00127574
0.00126966
0.00124725
0.00119864
0.00113549
0.00112838
0.00131307
0.00162401
0.00169539
0.00129392
0.000452948
0.000832054
0.00102139
0.001131
0.00119544
0.00123234
0.00125316
0.00126545
0.00127353
0.00127778
0.00127779
0.00126702
0.00123551
0.00117732
0.00114208
0.00121376
0.00158101
0.00197329
0.00205492
0.00152028
0.000461866
0.000845476
0.00103412
0.00114144
0.00120352
0.00123878
0.00125894
0.00127156
0.00128038
0.00128499
0.00128415
0.00127029
0.00123392
0.00117661
0.00115747
0.00129268
0.00174994
0.00225797
0.00241435
0.00169917
0.000472407
0.000859957
0.00104671
0.00115123
0.00121179
0.00124762
0.00127018
0.00128622
0.00129917
0.00130806
0.00131009
0.00129759
0.00126147
0.00120972
0.00120088
0.00136244
0.00184791
0.00248642
0.00278725
0.00185251
0.00048547
0.00087557
0.00105941
0.00116276
0.00122617
0.00126789
0.00129893
0.00132561
0.00135063
0.00137306
0.00138708
0.00138658
0.00136151
0.00132056
0.00131719
0.00147445
0.00193909
0.00262405
0.00308831
0.00195216
0.000499251
0.000891517
0.00107522
0.00118533
0.00126086
0.00131993
0.00137264
0.00142432
0.00147674
0.00152835
0.00157315
0.00160183
0.0016043
0.00158327
0.00158161
0.00169706
0.00207052
0.00274029
0.00322708
0.00202906
0.000515773
0.000914523
0.00110947
0.00124334
0.00135272
0.0014529
0.00155248
0.00165488
0.00176001
0.00186587
0.00196691
0.00205028
0.00210166
0.00211278
0.00210607
0.00215364
0.00237637
0.00292258
0.00325118
0.0020893
0.00054411
0.000963567
0.00120633
0.0014119
0.00160173
0.00178624
0.00197323
0.00216254
0.0023501
0.00253184
0.00269942
0.00284504
0.00295201
0.00300785
0.00299938
0.00297898
0.00303139
0.0032783
0.00317217
0.00211093
0.00053888
0.000998809
0.00144682
0.00183173
0.00217234
0.00248219
0.00276578
0.00302543
0.0032622
0.00347832
0.00367034
0.00383984
0.00397153
0.00407091
0.00407767
0.0040457
0.003897
0.00368622
0.0031362
0.00211067
0.000463204
0.000560307
0.000744767
0.000921496
0.00108915
0.00124812
0.00139934
0.00154355
0.00168241
0.00181541
0.00194597
0.00206685
0.00218932
0.00229167
0.00238184
0.00243046
0.00243
0.0024126
0.00233662
0.00205666
)
;

boundaryField
{
    movingWall
    {
        type            kqRWallFunction;
        value           nonuniform List<scalar> 
20
(
0.000463204
0.000560307
0.000744767
0.000921496
0.00108915
0.00124812
0.00139934
0.00154355
0.00168241
0.00181541
0.00194597
0.00206685
0.00218932
0.00229167
0.00238184
0.00243046
0.00243
0.0024126
0.00233662
0.00205666
)
;
    }
    fixedWalls
    {
        type            kqRWallFunction;
        value           nonuniform List<scalar> 
60
(
0.000201615
0.000263471
0.000321174
0.000361139
0.000387615
0.000405098
0.000416929
0.000425477
0.000432387
0.000438782
0.000445446
0.000452948
0.000461866
0.000472407
0.00048547
0.000499251
0.000515773
0.00054411
0.00053888
0.000463204
0.000202207
0.000263237
0.000309693
0.000331724
0.000336568
0.000331129
0.000325904
0.000362699
0.000548145
0.000923988
0.00129392
0.00152028
0.00169917
0.00185251
0.00195216
0.00202906
0.0020893
0.00211093
0.00211067
0.00205666
0.000201615
0.000263106
0.000312086
0.000341945
0.000358901
0.000368543
0.00037451
0.000378901
0.000382776
0.000386544
0.00039021
0.000393528
0.000395872
0.000396556
0.00039256
0.000381004
0.000358343
0.000319953
0.000261699
0.000202207
)
;
    }
    frontAndBack
    {
        type            empty;
    }
}


// ************************************************************************* //
