/*--------------------------------*- C++ -*----------------------------------*\
  =========                 |
  \\      /  F ield         | OpenFOAM: The Open Source CFD Toolbox
   \\    /   O peration     | Website:  https://openfoam.org
    \\  /    A nd           | Version:  13
     \\/     M anipulation  |
\*---------------------------------------------------------------------------*/
FoamFile
{
    format      ascii;
    class       surfaceScalarField;
    location    "1";
    object      phi;
}
// * * * * * * * * * * * * * * * * * * * * * * * * * * * * * * * * * * * * * //

dimensions      [0 3 -1 0 0 0 0];

internalField   nonuniform List<scalar> 
760
(
-2.14043e-08
2.14027e-08
-7.57555e-08
5.43512e-08
-1.48849e-07
7.30938e-08
-2.28249e-07
7.9399e-08
-3.07397e-07
7.9148e-08
-3.83103e-07
7.57063e-08
-4.53547e-07
7.04437e-08
-5.17222e-07
6.36751e-08
-5.7234e-07
5.51182e-08
-6.16466e-07
4.41257e-08
-6.46222e-07
2.97564e-08
-6.58642e-07
1.24199e-08
-6.4862e-07
-1.00226e-08
-6.12089e-07
-3.65301e-08
-5.45906e-07
-6.61835e-08
-4.49543e-07
-9.63634e-08
-3.2764e-07
-1.21903e-07
-1.9387e-07
-1.33769e-07
-7.42144e-08
-1.19656e-07
-7.42145e-08
-5.29811e-08
7.43838e-08
-1.26579e-07
1.27949e-07
-2.09226e-07
1.55741e-07
-2.9607e-07
1.66243e-07
-3.83143e-07
1.66221e-07
-4.67355e-07
1.59918e-07
-5.4626e-07
1.49349e-07
-6.17652e-07
1.35068e-07
-6.79223e-07
1.16689e-07
-7.2832e-07
9.32231e-08
-7.61999e-07
6.34353e-08
-7.76035e-07
2.64553e-08
-7.66995e-07
-1.90626e-08
-7.30685e-07
-7.28402e-08
-6.6403e-07
-1.32838e-07
-5.65876e-07
-1.94518e-07
-4.38661e-07
-2.49118e-07
-2.89988e-07
-2.82442e-07
-1.33381e-07
-2.76262e-07
-2.07596e-07
-7.2663e-08
1.47047e-07
-1.55058e-07
2.10344e-07
-2.39931e-07
2.40614e-07
-3.26747e-07
2.53059e-07
-4.13813e-07
2.53287e-07
-4.98882e-07
2.44987e-07
-5.79682e-07
2.30148e-07
-6.53978e-07
2.09364e-07
-7.19453e-07
1.82164e-07
-7.73541e-07
1.47311e-07
-8.13268e-07
1.03162e-07
-8.34937e-07
4.81244e-08
-8.34749e-07
-1.92507e-08
-8.08113e-07
-9.94765e-08
-7.506e-07
-1.90351e-07
-6.58525e-07
-2.86592e-07
-5.30245e-07
-3.77399e-07
-3.67784e-07
-4.44903e-07
-1.79503e-07
-4.64543e-07
-3.87099e-07
-8.16695e-08
2.28716e-07
-1.70105e-07
2.9878e-07
-2.58256e-07
3.28764e-07
-3.46541e-07
3.41344e-07
-4.34592e-07
3.41338e-07
-5.21142e-07
3.31537e-07
-6.04529e-07
3.13534e-07
-6.82934e-07
2.87769e-07
-7.54388e-07
2.53618e-07
-8.16646e-07
2.09569e-07
-8.6696e-07
1.53476e-07
-9.01784e-07
8.29478e-08
-9.16888e-07
-4.14649e-09
-9.06246e-07
-1.10118e-07
-8.62807e-07
-2.33791e-07
-7.78266e-07
-3.71133e-07
-6.44639e-07
-5.11025e-07
-4.57803e-07
-6.3174e-07
-2.257e-07
-6.96645e-07
-6.128e-07
-8.53709e-08
3.14087e-07
-1.78195e-07
3.91604e-07
-2.70326e-07
4.20896e-07
-3.61736e-07
4.32754e-07
-4.52539e-07
4.32141e-07
-5.42231e-07
4.21229e-07
-6.29894e-07
4.01197e-07
-7.14392e-07
3.72267e-07
-7.94407e-07
3.33633e-07
-8.68307e-07
2.8347e-07
-9.33867e-07
2.19036e-07
-9.87777e-07
1.36857e-07
-1.02527e-06
3.33492e-08
-1.03889e-06
-9.65006e-08
-1.01776e-06
-2.54924e-07
-9.46908e-07
-4.41982e-07
-8.08421e-07
-6.49513e-07
-5.87267e-07
-8.52893e-07
-2.89784e-07
-9.94128e-07
-9.02584e-07
-8.7066e-08
4.01153e-07
-1.83404e-07
4.87942e-07
-2.79661e-07
5.17152e-07
-3.75104e-07
5.28197e-07
-4.69906e-07
5.26943e-07
-5.6409e-07
5.15413e-07
-6.57478e-07
4.94585e-07
-7.49784e-07
4.64573e-07
-8.4062e-07
4.24469e-07
-9.29341e-07
3.72191e-07
-1.01468e-06
3.04371e-07
-1.09411e-06
2.16287e-07
-1.16262e-06
1.01863e-07
-1.21219e-06
-4.69273e-08
-1.22742e-06
-2.39695e-07
-1.18467e-06
-4.84728e-07
-1.04999e-06
-7.84193e-07
-7.85673e-07
-1.11721e-06
-3.8852e-07
-1.39128e-06
-1.2911e-06
-8.83185e-08
4.89472e-07
-1.87875e-07
5.87498e-07
-2.88251e-07
6.17528e-07
-3.88081e-07
6.28027e-07
-4.8745e-07
6.26313e-07
-5.86775e-07
6.14737e-07
-6.86605e-07
5.94415e-07
-7.8763e-07
5.65598e-07
-8.90658e-07
5.27497e-07
-9.96456e-07
4.77989e-07
-1.10534e-06
4.13256e-07
-1.2164e-06
3.27343e-07
-1.32584e-06
2.11305e-07
-1.42596e-06
5.31952e-08
-1.49806e-06
-1.67598e-07
-1.50833e-06
-4.74454e-07
-1.39823e-06
-8.94294e-07
-1.08401e-06
-1.43144e-06
-5.433e-07
-1.93199e-06
-1.8344e-06
-8.98447e-08
5.79317e-07
-1.92687e-07
6.90341e-07
-2.9714e-07
7.21981e-07
-4.0129e-07
7.32177e-07
-5.05116e-07
7.30139e-07
-6.09367e-07
7.18989e-07
-7.15314e-07
7.00361e-07
-8.2471e-07
6.74994e-07
-9.39781e-07
6.42568e-07
-1.06311e-06
6.01322e-07
-1.1973e-06
5.47445e-07
-1.34416e-06
4.74199e-07
-1.50313e-06
3.70272e-07
-1.66724e-06
2.17312e-07
-1.82077e-06
-1.4074e-08
-1.91631e-06
-3.78908e-07
-1.8615e-06
-9.49108e-07
-1.49283e-06
-1.80011e-06
-7.8191e-07
-2.64291e-06
-2.61631e-06
-9.20332e-08
6.7135e-07
-1.98461e-07
7.96768e-07
-3.06895e-07
8.30415e-07
-4.14911e-07
8.40194e-07
-5.2238e-07
8.37608e-07
-6.30352e-07
8.26961e-07
-7.40786e-07
8.10795e-07
-8.565e-07
7.90708e-07
-9.81199e-07
7.67268e-07
-1.11947e-06
7.39594e-07
-1.27662e-06
7.04594e-07
-1.45801e-06
6.5559e-07
-1.66762e-06
5.79879e-07
-1.9043e-06
4.53995e-07
-2.15195e-06
2.33574e-07
-2.35446e-06
-1.76395e-07
-2.35666e-06
-9.46906e-07
-1.94113e-06
-2.21565e-06
-1.08589e-06
-3.49814e-06
-3.70221e-06
-9.52196e-08
7.66569e-07
-2.05723e-07
9.07272e-07
-3.17954e-07
9.42646e-07
-4.28954e-07
9.51194e-07
-5.38483e-07
9.47137e-07
-6.47863e-07
9.3634e-07
-7.59645e-07
9.22577e-07
-8.77554e-07
9.08617e-07
-1.00654e-06
8.96254e-07
-1.15289e-06
8.85942e-07
-1.32424e-06
8.75943e-07
-1.52904e-06
8.60389e-07
-1.77509e-06
8.25934e-07
-2.06487e-06
7.43777e-07
-2.37801e-06
5.46714e-07
-2.61874e-06
6.43354e-08
-2.60954e-06
-9.56107e-07
-2.18087e-06
-2.64431e-06
-1.30399e-06
-4.37502e-06
-5.0062e-06
-9.98894e-08
8.66459e-07
-2.15156e-07
1.02254e-06
-3.30832e-07
1.05832e-06
-4.43385e-07
1.06375e-06
-5.52503e-07
1.05625e-06
-6.59759e-07
1.0436e-06
-7.68145e-07
1.03096e-06
-8.81938e-07
1.02241e-06
-1.00671e-06
1.02103e-06
-1.14946e-06
1.02869e-06
-1.3186e-06
1.04508e-06
-1.52335e-06
1.06514e-06
-1.77149e-06
1.07407e-06
-2.06255e-06
1.03484e-06
-2.36214e-06
8.4631e-07
-2.55736e-06
2.59554e-07
-2.48032e-06
-1.03314e-06
-2.08856e-06
-3.03607e-06
-1.29096e-06
-5.17262e-06
-6.29716e-06
-1.06806e-07
9.73265e-07
-2.2772e-07
1.14345e-06
-3.46118e-07
1.17672e-06
-4.57957e-07
1.17559e-06
-5.63043e-07
1.16134e-06
-6.63292e-07
1.14385e-06
-7.61979e-07
1.12965e-06
-8.63463e-07
1.12389e-06
-9.73018e-07
1.13058e-06
-1.09685e-06
1.15252e-06
-1.24184e-06
1.19007e-06
-1.41455e-06
1.23786e-06
-1.6174e-06
1.27692e-06
-1.84059e-06
1.25803e-06
-2.03816e-06
1.04388e-06
-2.11586e-06
3.37252e-07
-1.99782e-06
-1.15118e-06
-1.71493e-06
-3.31897e-06
-1.15427e-06
-5.73328e-06
-7.45143e-06
-1.17361e-07
1.09063e-06
-2.4472e-07
1.27081e-06
-3.64113e-07
1.29611e-06
-4.71432e-07
1.28291e-06
-5.67164e-07
1.25707e-06
-6.53896e-07
1.23058e-06
-7.35125e-07
1.21088e-06
-8.14888e-07
1.20366e-06
-8.97226e-07
1.21292e-06
-9.86167e-07
1.24146e-06
-1.08512e-06
1.28902e-06
-1.19593e-06
1.34867e-06
-1.31216e-06
1.39314e-06
-1.41813e-06
1.36401e-06
-1.47568e-06
1.10143e-06
-1.45358e-06
3.15148e-07
-1.36703e-06
-1.23773e-06
-1.23234e-06
-3.45366e-06
-9.36978e-07
-6.02864e-06
-8.38841e-06
-1.32605e-07
1.22323e-06
-2.66938e-07
1.40514e-06
-3.83505e-07
1.41268e-06
-4.7966e-07
1.37906e-06
-5.57962e-07
1.33537e-06
-6.22489e-07
1.2951e-06
-6.77031e-07
1.26542e-06
-7.25141e-07
1.25177e-06
-7.68904e-07
1.25668e-06
-8.09695e-07
1.28226e-06
-8.4715e-07
1.32647e-06
-8.77198e-07
1.37872e-06
-8.91424e-07
1.40737e-06
-8.75316e-07
1.3479e-06
-8.16614e-07
1.04273e-06
-7.40348e-07
2.38882e-07
-7.21267e-07
-1.25681e-06
-7.11276e-07
-3.46365e-06
-6.59352e-07
-6.08056e-06
-9.04776e-06
-1.58766e-07
1.382e-06
-2.95533e-07
1.54191e-06
-3.9924e-07
1.51639e-06
-4.71661e-07
1.45148e-06
-5.19788e-07
1.3835e-06
-5.50445e-07
1.32576e-06
-5.67735e-07
1.28271e-06
-5.73461e-07
1.25749e-06
-5.68222e-07
1.25144e-06
-5.50836e-07
1.26487e-06
-5.18309e-07
1.29395e-06
-4.65157e-07
1.32557e-06
-3.85544e-07
1.32776e-06
-2.73342e-07
1.2357e-06
-1.47841e-07
9.17224e-07
-7.05891e-08
1.6163e-07
-9.27006e-08
-1.2347e-06
-2.38547e-07
-3.31781e-06
-3.81472e-07
-5.93764e-06
-9.42924e-06
-1.90339e-07
1.57234e-06
-3.22757e-07
1.67433e-06
-3.92296e-07
1.58593e-06
-4.18526e-07
1.47771e-06
-4.19784e-07
1.38476e-06
-4.02157e-07
1.30814e-06
-3.68093e-07
1.24865e-06
-3.17976e-07
1.20738e-06
-2.51411e-07
1.18488e-06
-1.66222e-07
1.17968e-06
-5.91189e-08
1.18684e-06
7.32624e-08
1.19319e-06
2.31213e-07
1.1698e-06
4.07406e-07
1.0595e-06
5.66101e-07
7.58529e-07
6.29207e-07
9.85243e-08
5.11112e-07
-1.1166e-06
2.04404e-07
-3.0111e-06
-5.00045e-08
-5.68323e-06
-9.47924e-06
-2.74898e-07
1.84723e-06
-3.44031e-07
1.74346e-06
-3.26911e-07
1.56881e-06
-2.74798e-07
1.4256e-06
-1.98981e-07
1.30894e-06
-1.04035e-07
1.21319e-06
7.93566e-09
1.13668e-06
1.36834e-07
1.07848e-06
2.83765e-07
1.03795e-06
4.50299e-07
1.01315e-06
6.37909e-07
9.99234e-07
8.45951e-07
9.85144e-07
1.06726e-06
9.48495e-07
1.28514e-06
8.41624e-07
1.45154e-06
5.92132e-07
1.4788e-06
7.1262e-08
1.25758e-06
-8.95387e-07
7.99573e-07
-2.55309e-06
2.37994e-07
-5.12165e-06
-9.24125e-06
-3.06547e-07
2.15378e-06
-2.32081e-07
1.669e-06
-7.18582e-08
1.40858e-06
1.17062e-07
1.23668e-06
3.22457e-07
1.10355e-06
5.40836e-07
9.9481e-07
7.69625e-07
9.07888e-07
1.00752e-06
8.40579e-07
1.25585e-06
7.89618e-07
1.51679e-06
7.52209e-07
1.79014e-06
7.25881e-07
2.07233e-06
7.02953e-07
2.34953e-06
6.71303e-07
2.60001e-06
5.91145e-07
2.76071e-06
4.31426e-07
2.78845e-06
4.35203e-08
2.46383e-06
-5.70764e-07
1.78128e-06
-1.87054e-06
7.57486e-07
-4.09786e-06
-8.48376e-06
-1.14267e-07
2.26805e-06
2.41682e-07
1.31305e-06
6.81692e-07
9.68574e-07
1.12302e-06
7.95351e-07
1.54943e-06
6.77139e-07
1.95979e-06
5.84448e-07
2.35536e-06
5.12324e-07
2.73771e-06
4.58222e-07
3.10966e-06
4.17668e-07
3.47317e-06
3.88704e-07
3.83192e-06
3.67128e-07
4.18653e-06
3.48341e-07
4.52098e-06
3.36851e-07
4.82566e-06
2.86471e-07
5.02273e-06
2.34357e-07
5.01862e-06
4.76286e-08
4.73128e-06
-2.83419e-07
3.8753e-06
-1.01456e-06
2.16812e-06
-2.39068e-06
-6.31564e-06
2.26805e-06
3.58109e-06
4.54967e-06
5.34502e-06
6.02216e-06
6.60661e-06
7.11893e-06
7.57715e-06
7.99482e-06
8.38352e-06
8.75065e-06
9.09899e-06
9.43584e-06
9.72231e-06
9.95667e-06
1.00043e-05
9.72088e-06
8.70632e-06
6.31564e-06
)
;

boundaryField
{
    movingWall
    {
        type            calculated;
        value           uniform 0;
    }
    fixedWalls
    {
        type            calculated;
        value           uniform 0;
    }
    frontAndBack
    {
        type            empty;
    }
}


// ************************************************************************* //
