/*--------------------------------*- C++ -*----------------------------------*\
  =========                 |
  \\      /  F ield         | OpenFOAM: The Open Source CFD Toolbox
   \\    /   O peration     | Website:  https://openfoam.org
    \\  /    A nd           | Version:  13
     \\/     M anipulation  |
\*---------------------------------------------------------------------------*/
FoamFile
{
    format      ascii;
    class       volScalarField;
    location    "6.4";
    object      epsilon;
}
// * * * * * * * * * * * * * * * * * * * * * * * * * * * * * * * * * * * * * //

dimensions      [0 2 -3 0 0 0 0];

internalField   nonuniform List<scalar> 
6400
(
2.62024e-05
0.00013457
0.000326454
0.000526646
0.000678391
0.000763945
0.00079503
0.000797568
0.000801326
0.000829537
0.000899766
0.00104012
0.0012643
0.00157749
0.00196471
0.0024049
0.00287606
0.00336776
0.00385921
0.00433576
0.00481166
0.00532592
0.0059323
0.00666837
0.00751131
0.00837549
0.00923165
0.0100795
0.0109434
0.0118479
0.0127849
0.0137187
0.0146362
0.0155353
0.0164423
0.0173615
0.0183139
0.0193056
0.0203498
0.0214504
0.0226154
0.0238534
0.0251721
0.0265902
0.0281136
0.0297911
0.0317087
0.0340582
0.0365569
0.039064
0.0415492
0.0439682
0.0462554
0.0483437
0.0501589
0.051611
0.05242
0.0527569
0.0527845
0.0518919
0.0502143
0.047749
0.0445295
0.0406524
0.0362364
0.0314739
0.0266117
0.021845
0.0173546
0.0133214
0.0100622
0.00732553
0.00511196
0.00341525
0.00219319
0.00136051
0.000817517
0.000468172
0.000220869
4.69897e-05
0.000126877
0.000126569
0.00020714
0.000300785
0.000371461
0.000414409
0.000435491
0.000444783
0.000454942
0.000478629
0.000529391
0.000627029
0.000787433
0.00102315
0.00133841
0.00173474
0.00221426
0.00278326
0.00344752
0.00421554
0.00509483
0.00611941
0.00733976
0.00878445
0.0104471
0.0123446
0.0143305
0.0162574
0.018021
0.0195299
0.0206771
0.0215685
0.0221775
0.0225956
0.022862
0.0230331
0.0231507
0.0232482
0.0233502
0.0234755
0.0236465
0.0238697
0.0241591
0.0244731
0.0248415
0.0252881
0.0258191
0.0264227
0.0271106
0.0278306
0.0285966
0.0293582
0.0301017
0.0307787
0.0313499
0.0316928
0.0318169
0.0317461
0.0313909
0.0306461
0.0295269
0.0280185
0.0261054
0.0238638
0.0213732
0.0187346
0.016064
0.0134795
0.0110707
0.00892385
0.007114
0.00556353
0.00423566
0.00310777
0.00217691
0.00142732
0.000870693
0.000488585
0.000253497
0.000248506
0.000277817
0.000230352
0.000308704
0.000389324
0.000438101
0.000462542
0.00047536
0.00048966
0.000519387
0.000581473
0.000699179
0.000899712
0.00120999
0.00164988
0.00223178
0.00296847
0.00387236
0.00495801
0.00623542
0.00771089
0.00938988
0.0112434
0.0131908
0.0150892
0.0167618
0.0179816
0.0187166
0.0191264
0.01933
0.0194662
0.0195564
0.0195045
0.0192071
0.0189235
0.018622
0.0183574
0.0181406
0.0180041
0.0179456
0.0179364
0.0180355
0.0182155
0.0184824
0.0188738
0.0193727
0.0199639
0.0206357
0.0213839
0.0222068
0.0230875
0.0240181
0.0249752
0.0259382
0.0268723
0.0277391
0.0284899
0.0290707
0.0293509
0.0294078
0.0291183
0.0283976
0.0272323
0.0255838
0.0235654
0.0212507
0.0187407
0.0161612
0.0136263
0.0112431
0.00909582
0.00723983
0.00567747
0.00438627
0.00332682
0.00246165
0.00176684
0.00120036
0.000750994
0.000465114
0.000663679
0.0004829
0.000398257
0.00048867
0.000567032
0.000607408
0.000627532
0.000646754
0.000684873
0.00076344
0.000912673
0.0011708
0.00157929
0.00217327
0.00297481
0.0039948
0.00523795
0.00670532
0.00837861
0.0102068
0.0121001
0.0139289
0.01555
0.0168156
0.0175192
0.0178186
0.0178945
0.0178674
0.0175387
0.0170161
0.0164378
0.0157828
0.0152712
0.0148752
0.0145429
0.0142887
0.0141277
0.0140546
0.0140371
0.0141117
0.0142704
0.0145129
0.0148349
0.0152401
0.0157292
0.0162983
0.0169477
0.0176783
0.0184891
0.0193792
0.0203439
0.0213763
0.0224638
0.0235891
0.0247252
0.0258371
0.026878
0.027789
0.0284995
0.02885
0.0289371
0.0286041
0.0278338
0.0266475
0.0248589
0.0226356
0.0200995
0.0173903
0.0146558
0.0120418
0.00966914
0.00761736
0.00591464
0.00454484
0.00346256
0.0026132
0.00194667
0.00141031
0.000973966
0.000695804
0.00110212
0.00077528
0.00063254
0.000723502
0.000800061
0.000842701
0.00087494
0.000923035
0.00101678
0.00119295
0.00149875
0.00198798
0.00270902
0.0036913
0.00494021
0.00644081
0.00815859
0.0100308
0.0119518
0.0137664
0.0153087
0.0163681
0.0168503
0.0169951
0.0169619
0.0165729
0.0158874
0.0150325
0.0142348
0.0135788
0.0129797
0.0124757
0.0120872
0.0117819
0.0115541
0.0114086
0.0113402
0.0113195
0.0113526
0.0114642
0.0116279
0.0118532
0.0121363
0.0124807
0.0128879
0.0133612
0.0139049
0.0145238
0.0152228
0.0160067
0.0168795
0.0178434
0.0188959
0.0200314
0.0212365
0.0224913
0.0237644
0.0250023
0.0261452
0.0271163
0.0277401
0.0279821
0.0278645
0.0271567
0.026024
0.0241489
0.0217538
0.0190056
0.0160813
0.0131744
0.0104711
0.00811275
0.00617117
0.00464631
0.00348612
0.00261238
0.0019549
0.00145301
0.00106629
0.000847141
0.00140245
0.00119341
0.000941638
0.00101776
0.0010965
0.00115537
0.00122044
0.00132715
0.00151965
0.00185273
0.00238975
0.00319059
0.00429269
0.00569691
0.00736512
0.00922315
0.0111595
0.0130229
0.014632
0.0157414
0.0162337
0.0163572
0.0162508
0.0157335
0.0148054
0.0138196
0.0129347
0.0121356
0.0114588
0.0108926
0.0104129
0.0100271
0.00972046
0.00947853
0.00929572
0.00916523
0.00908518
0.00904842
0.00903918
0.00907435
0.00914772
0.00925807
0.0094076
0.00959705
0.00983082
0.010113
0.0104505
0.010851
0.0113247
0.0118827
0.0125374
0.0133026
0.0141897
0.0152085
0.0163633
0.017649
0.0190531
0.0205495
0.0220875
0.02361
0.0250101
0.0261726
0.0268002
0.026991
0.0265721
0.0256538
0.0237114
0.0211517
0.0181513
0.0149472
0.0118119
0.00899358
0.00665354
0.00484283
0.00351856
0.00257374
0.00190487
0.00142
0.00106382
0.000906461
0.0015096
0.00177507
0.00133179
0.00138295
0.00147379
0.0015666
0.00168964
0.00189082
0.00223101
0.00278056
0.00360799
0.00475916
0.00623558
0.00798355
0.00989592
0.0118193
0.0135639
0.014934
0.0156173
0.0158268
0.0157805
0.0152733
0.0142802
0.0131744
0.0121734
0.0112627
0.0104874
0.0098198
0.00926114
0.00878942
0.00839341
0.00806455
0.0077896
0.00756057
0.00737145
0.00721702
0.00709371
0.00699761
0.00692693
0.00688827
0.0068721
0.00687012
0.00690218
0.0069586
0.00704735
0.00716819
0.00732833
0.00753275
0.0077904
0.00811255
0.00851354
0.00901099
0.00962857
0.010391
0.0113246
0.0124456
0.0137784
0.0153342
0.0170858
0.0189805
0.0209688
0.0229259
0.024705
0.0259987
0.0265609
0.0266047
0.0258262
0.0238453
0.0210472
0.0176733
0.0140689
0.0106281
0.00766702
0.0053542
0.00369604
0.00258317
0.00183779
0.00134589
0.00102618
0.000898402
0.00146473
0.00255564
0.00180773
0.00183229
0.00194894
0.00209689
0.00230587
0.00263852
0.00317013
0.00397602
0.00511043
0.0065808
0.00832959
0.0102318
0.0121074
0.013745
0.014842
0.0152987
0.0153824
0.0150517
0.0141834
0.0129946
0.0118598
0.0108258
0.00993392
0.00916235
0.00851009
0.00795117
0.00747655
0.00706889
0.00671975
0.00641946
0.00616025
0.00593703
0.00574557
0.00558269
0.00544538
0.00533096
0.0052385
0.0051672
0.00511493
0.00508768
0.00507771
0.00508128
0.0051168
0.00517253
0.00525702
0.00537156
0.00552231
0.00571361
0.00595304
0.00625047
0.0066197
0.00707988
0.00766048
0.00841047
0.00937265
0.0106078
0.0121648
0.0140307
0.0162162
0.0186334
0.0211501
0.023596
0.0256769
0.0268
0.0271609
0.0266349
0.0245554
0.0213929
0.0174861
0.0133699
0.00957148
0.00647272
0.00422042
0.00274742
0.00184652
0.00128734
0.000964039
0.000862982
0.00136061
0.00356068
0.00237292
0.0023753
0.00253839
0.00276129
0.00308219
0.00357567
0.00432271
0.00538666
0.00678531
0.00846744
0.0103047
0.0121036
0.0136346
0.0145377
0.0148574
0.014878
0.0143095
0.013195
0.0119496
0.0107802
0.00974839
0.00885578
0.00809687
0.00744712
0.00689285
0.00641519
0.00600475
0.00564995
0.00534445
0.00508131
0.00485585
0.00466409
0.00450224
0.00436726
0.00425674
0.00416852
0.00410086
0.00405196
0.00402388
0.004012
0.00400995
0.00402878
0.00406498
0.00411862
0.00419155
0.00428488
0.00440123
0.00454338
0.00471552
0.00492293
0.00517265
0.00547451
0.00584153
0.00629359
0.00685938
0.00758386
0.00854314
0.0098807
0.0116713
0.0139642
0.0166994
0.0197429
0.0228673
0.0257239
0.0275184
0.0282026
0.0279399
0.0256965
0.0219835
0.0174081
0.0127043
0.00855016
0.00537
0.00324477
0.00198885
0.00129513
0.00091821
0.000808013
0.00124556
0.00480129
0.00303455
0.0030243
0.00324834
0.00356414
0.00401505
0.00468129
0.00563623
0.00691259
0.00847425
0.0102028
0.0119062
0.0133495
0.0141577
0.0144237
0.0143326
0.0135948
0.0123675
0.0111101
0.00991591
0.00887837
0.00798993
0.00723367
0.0065905
0.00603988
0.00556882
0.00516495
0.00482068
0.0045281
0.00428184
0.0040762
0.00390672
0.00376896
0.00365909
0.00357352
0.00350916
0.00346327
0.00343545
0.0034228
0.00341956
0.00342927
0.00345229
0.00348772
0.00353533
0.00359579
0.00366965
0.00375817
0.00386283
0.00398557
0.00412884
0.00429578
0.00449054
0.00471868
0.00498797
0.00530708
0.00568942
0.00615658
0.00674403
0.00751046
0.00855224
0.0100564
0.0122509
0.015155
0.0186483
0.0224426
0.0261438
0.0286339
0.0296236
0.0295369
0.0270162
0.0225855
0.0172265
0.0119192
0.00748234
0.00433031
0.002415
0.00140322
0.000921498
0.000762081
0.00115436
0.0062936
0.00380635
0.00378453
0.00407783
0.00449663
0.00508127
0.00590778
0.00702723
0.00842702
0.0100102
0.0115988
0.0129627
0.0137301
0.013982
0.0138178
0.0129948
0.0117371
0.0104377
0.00923842
0.00818557
0.00729661
0.00654245
0.00590379
0.00536184
0.00490206
0.00451436
0.00418974
0.00392113
0.00370135
0.00352428
0.00338371
0.00327424
0.00319079
0.00312901
0.00308522
0.00305713
0.00304353
0.00303888
0.00304148
0.00305645
0.00307963
0.00311258
0.00315485
0.00320731
0.00327064
0.00334598
0.00343466
0.00353805
0.00365774
0.00379541
0.00395289
0.0041322
0.0043357
0.00456636
0.00482849
0.0051288
0.00547828
0.00589539
0.00640622
0.00705518
0.00792821
0.0091767
0.0110958
0.0140138
0.0178431
0.0223021
0.0268895
0.0300777
0.0313415
0.0313085
0.0282664
0.0229375
0.0167283
0.0108819
0.00632061
0.00334837
0.00173039
0.000991432
0.00075558
0.00113174
0.00812149
0.00471682
0.00465335
0.00501494
0.00553543
0.00623966
0.00718809
0.00839761
0.00980404
0.0112557
0.0125372
0.0132883
0.0135406
0.0133592
0.0124961
0.0112639
0.0099362
0.00871365
0.00765015
0.00674982
0.00599628
0.00536137
0.00482893
0.00438387
0.00401535
0.00371408
0.00347124
0.00327863
0.00312819
0.00301266
0.00292534
0.00286058
0.0028136
0.00278064
0.00275898
0.00274823
0.00274414
0.0027439
0.00275327
0.00276933
0.00279264
0.00282398
0.00286402
0.00291389
0.00297468
0.00304779
0.00313475
0.00323714
0.00335667
0.00349512
0.00365426
0.00383579
0.00404122
0.00427184
0.00452874
0.00481322
0.00512771
0.00547774
0.00587571
0.00634639
0.00693396
0.00770397
0.00879967
0.01048
0.0132697
0.0173624
0.0224616
0.0279594
0.0317976
0.0332691
0.0330746
0.029158
0.0227697
0.0157083
0.00950565
0.00506534
0.00245334
0.00121332
0.000796201
0.00118207
0.0101612
0.00572794
0.00561101
0.00603595
0.0066451
0.00743717
0.00844771
0.00965377
0.0109434
0.0121274
0.012866
0.013121
0.0129517
0.0121189
0.0109208
0.00958907
0.008334
0.00724857
0.00633413
0.00557299
0.00494069
0.00441571
0.00398457
0.00363428
0.00335432
0.0031342
0.00296386
0.00283391
0.00273581
0.00266224
0.00260715
0.00256583
0.00253475
0.00251146
0.00249441
0.00248275
0.00247685
0.0024748
0.00247778
0.00248793
0.00250488
0.00252969
0.0025634
0.00260722
0.00266241
0.00273046
0.00281298
0.00291173
0.00302865
0.00316582
0.0033254
0.00350956
0.00372026
0.00395909
0.00422698
0.00452401
0.00484935
0.00520182
0.00558159
0.005994
0.00645677
0.00701181
0.00772994
0.00873695
0.0102992
0.0129399
0.0172438
0.0229712
0.0293994
0.0337404
0.0352885
0.0345882
0.0293957
0.0217917
0.0140091
0.00779177
0.00377612
0.0017145
0.000943358
0.00137586
0.0123526
0.0068166
0.00663309
0.00710913
0.00778266
0.00861671
0.00961672
0.0107217
0.0117842
0.012499
0.0127521
0.0126272
0.0118649
0.0107043
0.00937856
0.00809288
0.00697077
0.00603331
0.00525829
0.00462176
0.00410105
0.00367932
0.00334332
0.0030798
0.00287678
0.00272239
0.00260591
0.00251797
0.00245084
0.00239846
0.00235633
0.00232138
0.00229164
0.00226603
0.00224417
0.00222608
0.0022121
0.00220397
0.0022009
0.00220171
0.00221186
0.00222968
0.00225666
0.00229388
0.00234256
0.0024041
0.00248012
0.00257244
0.00268313
0.00281454
0.00296929
0.00315014
0.00335993
0.0036013
0.00387638
0.00418631
0.00453072
0.00490731
0.00531202
0.00574024
0.0061906
0.00667286
0.00722265
0.0079203
0.00888543
0.0103926
0.0129962
0.0175328
0.0239262
0.0312923
0.0358191
0.0372
0.0355058
0.028624
0.0197332
0.0116274
0.00585341
0.00263004
0.00128785
0.00182294
0.0146247
0.00795513
0.00768994
0.00819764
0.00890214
0.0097236
0.0106364
0.0115487
0.0122125
0.0124568
0.0123907
0.0117153
0.0106137
0.00929734
0.00798288
0.00681343
0.00583791
0.00503992
0.00439091
0.00386739
0.00344949
0.00312146
0.00286859
0.00267647
0.00253191
0.00242294
0.00233958
0.00227385
0.00221984
0.00217342
0.00213199
0.00209407
0.00205907
0.00202694
0.00199804
0.00197292
0.00195223
0.00193671
0.00192833
0.0019253
0.00192791
0.0019408
0.00196207
0.00199344
0.00203576
0.00209037
0.00215874
0.00224264
0.00234418
0.00246584
0.00261049
0.0027814
0.00298219
0.00321664
0.00348842
0.0038006
0.00415496
0.00455113
0.00498578
0.0054522
0.00594126
0.00644513
0.00696607
0.00753372
0.00823289
0.00919408
0.0107092
0.0134069
0.0182991
0.0254659
0.0337222
0.0378652
0.0388405
0.0353415
0.0263848
0.0165788
0.00876962
0.00402186
0.0018851
0.00250876
0.0169059
0.00911306
0.00874897
0.00926282
0.00995896
0.0107101
0.011461
0.0120463
0.0122774
0.0122334
0.0116672
0.0106386
0.00934505
0.00800103
0.00677593
0.00574564
0.00491013
0.00423855
0.00370298
0.0032813
0.00295448
0.00270573
0.00251884
0.00237885
0.00227288
0.00219025
0.00212291
0.00206507
0.00201298
0.00196445
0.00191846
0.00187477
0.00183364
0.00179559
0.00176126
0.00173131
0.00170638
0.00168706
0.00167488
0.00166951
0.00166857
0.00167731
0.00169457
0.00172104
0.00175767
0.00180554
0.00186599
0.00194064
0.0020315
0.00214101
0.0022721
0.00242827
0.00261358
0.00283265
0.00309044
0.00339197
0.00374161
0.00414222
0.0045938
0.00509218
0.00562799
0.0061872
0.0067551
0.00732631
0.00792615
0.00864854
0.00963605
0.0112254
0.0141758
0.0196791
0.0279095
0.0363229
0.0398444
0.0400614
0.0334089
0.0225962
0.0126021
0.00593685
0.00273408
0.00337586
0.0191527
0.0102601
0.00977741
0.0102674
0.0109139
0.0115398
0.0120386
0.0122487
0.0121832
0.0117272
0.0107733
0.00951738
0.00815032
0.00686111
0.00575954
0.00486757
0.00415928
0.00360087
0.00316607
0.00283298
0.00258191
0.00239483
0.00225515
0.00214878
0.00206449
0.00199393
0.00193144
0.00187353
0.00181835
0.00176523
0.00171423
0.00166578
0.00162052
0.00157912
0.00154219
0.00151028
0.00148385
0.0014633
0.00144944
0.00144285
0.00144097
0.00144665
0.00146111
0.00148363
0.00151535
0.00155707
0.00160999
0.00167554
0.00175555
0.00185229
0.00196855
0.00210776
0.0022741
0.00247253
0.00270879
0.00298928
0.00332061
0.00370884
0.00415825
0.00466954
0.00523775
0.00585052
0.00648819
0.00712806
0.00775663
0.0083975
0.00915976
0.010201
0.0119386
0.015298
0.0216434
0.0312457
0.039331
0.0419339
0.0398243
0.0294947
0.0174649
0.00845604
0.00386062
0.0043698
0.0213177
0.0113666
0.0107438
0.0111788
0.0117375
0.0121694
0.0123489
0.0122686
0.0118893
0.0110199
0.00981061
0.00843289
0.00707713
0.00588731
0.00491728
0.00415314
0.00355824
0.00309961
0.00275159
0.00249159
0.00229913
0.00215599
0.00204668
0.00195914
0.00188464
0.00181741
0.00175412
0.00169317
0.00163412
0.00157721
0.00152304
0.00147227
0.00142558
0.00138352
0.00134652
0.00131491
0.00128894
0.0012688
0.00125489
0.00124812
0.00124596
0.00124987
0.00126219
0.00128156
0.00130908
0.00134541
0.00139155
0.00144878
0.00151869
0.0016033
0.00170515
0.00182743
0.00197411
0.00215007
0.00236128
0.00261478
0.00291857
0.00328118
0.00371072
0.00421322
0.00479019
0.00543567
0.00613351
0.00685706
0.00757428
0.0082639
0.00895314
0.00976555
0.0108975
0.0129077
0.0169716
0.0244529
0.0355196
0.0421719
0.0434446
0.0367449
0.023458
0.0117338
0.00531363
0.00544448
0.0233192
0.0124037
0.0116217
0.0119737
0.0123991
0.0125862
0.0125299
0.0121453
0.0113746
0.0102252
0.00884962
0.0074332
0.00614238
0.00507028
0.00422652
0.00357682
0.00308143
0.00270853
0.00243212
0.00222894
0.00207864
0.00196415
0.0018722
0.0017934
0.00172169
0.00165369
0.0015879
0.00152402
0.00146244
0.00140381
0.00134886
0.00129821
0.00125235
0.0012116
0.0011762
0.00114625
0.00112183
0.00110296
0.00108981
0.00108334
0.00108118
0.00108405
0.00109464
0.00111143
0.00113539
0.00116706
0.00120732
0.00125725
0.00131823
0.00139202
0.00148086
0.00158758
0.00171578
0.00187002
0.00205598
0.00228074
0.00255281
0.00288209
0.00327939
0.00375521
0.00431765
0.00496901
0.00570162
0.00649388
0.00730963
0.0081055
0.0088547
0.00959762
0.0104679
0.0117578
0.0142342
0.0194727
0.0287532
0.0400693
0.0446233
0.0431794
0.0304706
0.0159425
0.00713441
0.00656212
0.025083
0.0133443
0.0123903
0.0126336
0.0128638
0.0128664
0.0125158
0.0118447
0.0107577
0.00940225
0.00793687
0.00654116
0.00534444
0.00439252
0.00366409
0.00311491
0.00270512
0.00240342
0.00218335
0.00202183
0.00189974
0.00180226
0.0017189
0.00164301
0.00157094
0.00150112
0.00143333
0.00136801
0.00130588
0.00124766
0.00119394
0.00114516
0.00110157
0.00106328
0.00103032
0.00100264
0.000980178
0.000962867
0.000950705
0.000944672
0.000942607
0.000944778
0.000953891
0.000968507
0.000989421
0.00101712
0.00105234
0.00109601
0.00114933
0.00121381
0.00129138
0.0013845
0.00149635
0.00163098
0.00179359
0.00199082
0.00223099
0.00252438
0.00288312
0.0033207
0.00385049
0.00448286
0.00522064
0.00605313
0.00695061
0.00786338
0.00873359
0.00953219
0.0103295
0.0112802
0.0128293
0.0160819
0.0229572
0.0347479
0.0444017
0.0465328
0.0380256
0.0212349
0.00937006
0.0077338
0.026567
0.0141678
0.0130292
0.0131303
0.0132093
0.0129947
0.012398
0.0114049
0.0100874
0.00859376
0.00709911
0.00576264
0.00467209
0.00383429
0.00320832
0.00274593
0.00240796
0.00216324
0.00198549
0.00185283
0.00174834
0.00165997
0.00158007
0.00150443
0.00143125
0.00136024
0.00129185
0.00122684
0.00116593
0.00110971
0.00105855
0.00101264
0.000972028
0.000936643
0.000906367
0.00088105
0.000860551
0.00084475
0.000833551
0.00082791
0.000825928
0.000827517
0.000835335
0.000848072
0.000866371
0.00089067
0.000921606
0.00095998
0.00100682
0.00106342
0.00113144
0.001213
0.00131085
0.00142852
0.00157061
0.0017431
0.00195371
0.00221232
0.0025313
0.0029255
0.00341164
0.00400642
0.00472258
0.00556268
0.00651069
0.00752451
0.0085357
0.00946963
0.0103042
0.0111435
0.0122242
0.014247
0.0188573
0.0281066
0.0416441
0.0476037
0.0450158
0.0276883
0.0120921
0.00893572
0.0277498
0.0148685
0.0135324
0.0134845
0.0134138
0.0129734
0.0121379
0.0108954
0.00940237
0.0078282
0.00634859
0.00509335
0.00411021
0.00337645
0.00283981
0.00245101
0.00217163
0.00197093
0.00182363
0.00170995
0.00161569
0.00153167
0.00145277
0.00137669
0.00130295
0.00123195
0.00116445
0.0011012
0.00104277
0.000989514
0.00094157
0.000898925
0.000861455
0.000828974
0.00080127
0.000778139
0.0007594
0.000744913
0.000734569
0.00072919
0.000727246
0.000728287
0.000734946
0.000746037
0.000762078
0.000783469
0.00081076
0.000844652
0.000886027
0.000936009
0.000996022
0.00106789
0.00115396
0.0012573
0.00138188
0.00153297
0.00171748
0.00194451
0.00222583
0.00257642
0.00301449
0.00356071
0.00423558
0.00505404
0.00601666
0.00709799
0.00823642
0.00933672
0.0103056
0.0111382
0.0120412
0.0133771
0.0162991
0.0231431
0.0359566
0.0473744
0.0494459
0.0352891
0.015497
0.010287
0.0286252
0.0154493
0.0138983
0.0137071
0.0134788
0.0128663
0.0117828
0.0103475
0.00873062
0.00712221
0.00568771
0.00452374
0.00364297
0.00300168
0.00254169
0.00221406
0.00198124
0.00181344
0.00168724
0.00158547
0.0014968
0.00141467
0.00133598
0.00125984
0.00118652
0.00111676
0.00105132
0.000990797
0.000935535
0.000885655
0.000841104
0.000801711
0.000767238
0.000737426
0.00071202
0.000690791
0.00067355
0.000660152
0.00065049
0.000645264
0.000643313
0.000643826
0.000649436
0.000659077
0.000673161
0.000692051
0.000716233
0.000746321
0.000783088
0.000827508
0.000880815
0.000944579
0.00102082
0.00111216
0.00122205
0.00135503
0.00151718
0.0017166
0.00196411
0.00227393
0.00266434
0.00315779
0.00377971
0.00455477
0.00549926
0.00660853
0.00784155
0.00910889
0.0102833
0.0112595
0.0120351
0.0130577
0.0149208
0.0195407
0.029746
0.0450751
0.0512776
0.0435876
0.019903
0.0120535
0.0292072
0.0159073
0.0141395
0.0138059
0.0134375
0.0126417
0.0113717
0.00978758
0.00809127
0.00648373
0.00511284
0.00404213
0.00325539
0.00269483
0.00229966
0.00202192
0.00182521
0.00168136
0.00156932
0.00147477
0.00138907
0.00130783
0.00122948
0.00115401
0.0010821
0.00101451
0.00095189
0.000894595
0.000842754
0.000796293
0.00075501
0.000718632
0.000686857
0.00065939
0.000635961
0.000616339
0.000600337
0.000587817
0.000578681
0.000573514
0.000571516
0.000571559
0.000576207
0.000584569
0.000596947
0.000613677
0.00063519
0.000662033
0.000694888
0.000734611
0.000782278
0.000839254
0.000907286
0.000988632
0.00108626
0.00120408
0.00134738
0.00152326
0.00174138
0.00201478
0.00236086
0.00280222
0.0033667
0.00408548
0.00498747
0.00608784
0.00737007
0.008765
0.010141
0.0113334
0.0122712
0.0130063
0.014314
0.0172903
0.0249269
0.0402033
0.0516033
0.051138
0.0255942
0.0144261
0.0294969
0.016248
0.0142675
0.0137925
0.0133113
0.0123439
0.0109271
0.00923505
0.00749616
0.00591465
0.00461713
0.00363655
0.0029341
0.00244305
0.00210196
0.0018642
0.00169496
0.00156816
0.00146544
0.00137522
0.00129119
0.00121068
0.00113316
0.00105913
0.000989371
0.000924558
0.000865114
0.000811192
0.000762725
0.000719494
0.0006812
0.000647508
0.000618087
0.000592631
0.000570874
0.000552594
0.000537614
0.000525807
0.000517094
0.000511886
0.00050972
0.000509504
0.000513228
0.000520457
0.000531346
0.000546199
0.000565407
0.000589458
0.000618964
0.000654686
0.000697576
0.000748832
0.000809976
0.000882969
0.000970371
0.00107557
0.00120311
0.00135918
0.00155226
0.00179402
0.00210048
0.00249326
0.00300061
0.00365721
0.00450102
0.00556442
0.00685707
0.00834047
0.00990133
0.0113502
0.0125065
0.0132751
0.0141379
0.0161052
0.021455
0.0339814
0.051021
0.0556848
0.0331495
0.017366
0.0294799
0.0164688
0.0142927
0.0137134
0.0130877
0.011996
0.010468
0.00870388
0.00695163
0.00541298
0.00419227
0.00329574
0.00266756
0.00223566
0.00193913
0.00173298
0.0015843
0.00146948
0.00137285
0.00128532
0.00120248
0.00112292
0.00104679
0.000974786
0.000907651
0.000845885
0.0007897
0.000739059
0.000693747
0.000653449
0.000617805
0.000586452
0.000559052
0.000535305
0.000514956
0.000497796
0.000483663
0.00047244
0.000464055
0.000458768
0.000456425
0.000456006
0.000458908
0.000465132
0.000474715
0.000487929
0.000505129
0.000526759
0.000553371
0.000585653
0.000624455
0.000670844
0.000726164
0.000792135
0.000870982
0.000965643
0.00108005
0.00121956
0.00139156
0.00160636
0.00187836
0.00222758
0.00268132
0.0032753
0.00405278
0.00505887
0.0063262
0.00784882
0.00954693
0.0112407
0.0126768
0.0136309
0.0142351
0.0155896
0.0191421
0.028774
0.0478597
0.0576241
0.0425762
0.020752
0.0293215
0.0166091
0.0142556
0.0135425
0.0128048
0.0116153
0.0100086
0.00820331
0.00646001
0.00497449
0.00382971
0.00300962
0.00244601
0.00206397
0.00180377
0.00162232
0.0014889
0.00138245
0.00128987
0.00120418
0.00112247
0.00104421
0.000969906
0.000900309
0.000836019
0.000777342
0.000724303
0.000676714
0.000634258
0.000596558
0.000563225
0.000533887
0.000508215
0.000485919
0.00046676
0.000450545
0.000437123
0.000426387
0.00041827
0.000412902
0.000410393
0.000409793
0.000411983
0.000417317
0.000425751
0.000437526
0.000452965
0.000472476
0.000496564
0.000525856
0.000561123
0.000603327
0.000653673
0.000713684
0.000785322
0.000871152
0.000974592
0.00110029
0.00125466
0.00144672
0.00168925
0.00200037
0.00240562
0.00294
0.00364911
0.00458661
0.00580396
0.0073268
0.0091157
0.0110182
0.0127497
0.0140386
0.0146736
0.0154563
0.0178664
0.0252892
0.0424725
0.0579929
0.0523399
0.0241689
0.0289705
0.0166883
0.0141552
0.0133074
0.012478
0.0112161
0.00955981
0.00773887
0.00602091
0.00459378
0.00352127
0.00276944
0.00226138
0.00192101
0.0016902
0.0015279
0.00140576
0.0013052
0.00121542
0.00113119
0.00105073
0.000974077
0.000901898
0.000834882
0.000773462
0.000717758
0.000667641
0.000622814
0.000582891
0.000547462
0.000516127
0.000488522
0.000464327
0.000443271
0.000425129
0.000409722
0.00039691
0.000386593
0.000378708
0.000373276
0.000370616
0.000369852
0.000371435
0.000375981
0.000383402
0.000393908
0.000407795
0.000425438
0.000447304
0.000473971
0.000506147
0.000544713
0.000590761
0.000645662
0.000711166
0.000789539
0.000883777
0.000997927
0.00113758
0.00131058
0.00152818
0.00180656
0.00216906
0.00264885
0.00329147
0.00415522
0.0053052
0.00679469
0.00862724
0.0107007
0.0127559
0.0143736
0.0151702
0.0156804
0.0172591
0.0224013
0.0370865
0.0571866
0.0602881
0.0268228
0.0284255
0.0166861
0.0139863
0.0130269
0.0121214
0.0108102
0.00912931
0.00731337
0.00563221
0.00426508
0.00325951
0.00256775
0.00210705
0.00180127
0.00159407
0.00144658
0.00133277
0.00123644
0.00114874
0.00106584
0.000986787
0.000911951
0.000842041
0.000777625
0.000718965
0.000666026
0.000618557
0.000576184
0.000538482
0.000505025
0.000475416
0.000449301
0.000426379
0.000406391
0.00038913
0.000374425
0.000362146
0.000352199
0.00034452
0.000339081
0.000336268
0.000335354
0.000336425
0.000340278
0.000346805
0.000356189
0.0003687
0.000384686
0.000404583
0.000428925
0.000458373
0.00049374
0.000536032
0.000586501
0.000646728
0.000718744
0.000805201
0.000909659
0.001037
0.00119407
0.00139072
0.00164127
0.00196675
0.00239785
0.0029785
0.00376844
0.0048415
0.00627238
0.00810299
0.0102833
0.0125999
0.0146427
0.015731
0.016203
0.0170797
0.0206091
0.0320192
0.0549231
0.0642696
0.0280054
0.0277154
0.0166539
0.0137814
0.0127153
0.0117473
0.0104068
0.00872227
0.00692758
0.00529077
0.00398269
0.00303785
0.00239832
0.00197768
0.00170043
0.00151212
0.00137605
0.00126846
0.00117524
0.00108921
0.00100763
0.000930107
0.000857199
0.000789576
0.000727666
0.000671579
0.000621149
0.00057604
0.000535825
0.000500058
0.00046831
0.000440194
0.00041537
0.00039355
0.000374494
0.000358003
0.000343919
0.000332116
0.000322502
0.000315014
0.00030962
0.000306658
0.000305608
0.000306254
0.000309498
0.000315236
0.000323625
0.000334914
0.000349425
0.000367565
0.000389835
0.000416855
0.000449384
0.000488358
0.000534938
0.000590575
0.00065711
0.000736929
0.000833189
0.000950189
0.00109393
0.00127304
0.00150011
0.00179391
0.00218241
0.00270689
0.00342636
0.00441936
0.00577684
0.007575
0.00981722
0.0123461
0.014764
0.0162702
0.0168344
0.0172469
0.0196748
0.0286564
0.0507836
0.0656884
0.0281956
0.0268803
0.0165779
0.0135504
0.0123841
0.0113659
0.0100128
0.00834186
0.00658085
0.00499295
0.00374128
0.00285061
0.00225597
0.00186897
0.00161511
0.00144188
0.00131465
0.00121175
0.00112091
0.00103632
0.000956064
0.000880136
0.000809169
0.000743756
0.000684189
0.000630443
0.000582256
0.000539226
0.000500897
0.000466811
0.000436546
0.000409725
0.000386024
0.00036517
0.000346933
0.000331126
0.000317597
0.000306225
0.00029692
0.000289618
0.000284285
0.000281196
0.000280025
0.000280323
0.000283036
0.000288078
0.000295585
0.000305785
0.00031898
0.000335548
0.000355963
0.000380808
0.0004108
0.000446819
0.000489952
0.000541549
0.000603307
0.000677399
0.000766666
0.000874929
0.00100749
0.0011719
0.00137926
0.00164618
0.00199787
0.00247244
0.00312648
0.00403974
0.00531362
0.00705185
0.00930882
0.0119994
0.014795
0.0168127
0.0175594
0.0178154
0.0192588
0.0260703
0.0461728
0.0657163
0.027631
0.025955
0.0164726
0.0133037
0.0120437
0.0109854
0.00963336
0.00798969
0.00627165
0.00473492
0.00353599
0.00269292
0.00213648
0.00177748
0.00154269
0.00138146
0.00126109
0.00116179
0.00107286
0.000989574
0.000910642
0.000836309
0.000767224
0.000703882
0.000646454
0.000594805
0.000548597
0.000507387
0.000470698
0.000438073
0.000409096
0.000383404
0.000360686
0.000340681
0.000323171
0.000307976
0.000294949
0.000283973
0.000274957
0.000267836
0.000262571
0.000259372
0.000258091
0.000258116
0.000260367
0.000264796
0.000271521
0.000280753
0.000292771
0.000307931
0.000326681
0.000349571
0.000377283
0.000410651
0.000450703
0.00049871
0.000556258
0.000625354
0.000708592
0.000809415
0.000932534
0.00108463
0.00127546
0.00151972
0.00183993
0.00227089
0.0028658
0.00370327
0.00489061
0.00655247
0.00878633
0.0115719
0.0146589
0.0172621
0.0183029
0.0185004
0.0191554
0.0241936
0.0419202
0.0635723
0.0267259
0.0249689
0.0163528
0.0130504
0.0117023
0.0106124
0.00927216
0.00766628
0.00599786
0.00451285
0.0033625
0.00256075
0.00203638
0.00170046
0.00148113
0.00132943
0.00121442
0.00111793
0.00103057
0.0009485
0.000870869
0.000798082
0.000730766
0.000669321
0.000613809
0.000564012
0.000519537
0.000479909
0.000444644
0.000413287
0.000385432
0.000360727
0.000338873
0.00031962
0.000302757
0.000288112
0.000275541
0.000264928
0.000256183
0.000249239
0.000244054
0.000240758
0.000239332
0.000239192
0.000241034
0.000244921
0.000250955
0.000259326
0.000270293
0.000284192
0.000301446
0.000322577
0.000348234
0.000379213
0.000416493
0.000461285
0.000515086
0.000579778
0.000657764
0.000752186
0.000867289
0.00100901
0.00118599
0.0014112
0.00170469
0.00209789
0.00264009
0.00340694
0.0045079
0.00608307
0.00826864
0.0111058
0.0143955
0.017561
0.0190921
0.0193695
0.0194757
0.0228973
0.0381234
0.0605653
0.0256052
0.023928
0.016236
0.0128006
0.0113673
0.0102519
0.00893166
0.00737139
0.00575702
0.00432326
0.00321705
0.00245069
0.00195287
0.00163573
0.00142881
0.00128466
0.00117385
0.0010796
0.000993594
0.000912657
0.000836276
0.000764945
0.000699252
0.000639508
0.000585689
0.000537511
0.000494539
0.000456281
0.000422249
0.000391992
0.000365113
0.000341271
0.000320178
0.000301591
0.000285307
0.000271156
0.000258998
0.000248718
0.000240224
0.000233448
0.000228343
0.000224965
0.000223404
0.000223136
0.000224631
0.000228044
0.000233466
0.000241072
0.000251103
0.000263874
0.000279786
0.000299334
0.000323138
0.000351959
0.000386738
0.000428631
0.00047907
0.000539842
0.000613203
0.000702065
0.000810302
0.000943255
0.0011086
0.00131784
0.00158877
0.00194962
0.00244556
0.0031481
0.00416572
0.00564812
0.00776401
0.0106204
0.0141029
0.0176901
0.0198456
0.0202918