/*--------------------------------*- C++ -*----------------------------------*\
  =========                 |
  \\      /  F ield         | OpenFOAM: The Open Source CFD Toolbox
   \\    /   O peration     | Website:  https://openfoam.org
    \\  /    A nd           | Version:  13
     \\/     M anipulation  |
\*---------------------------------------------------------------------------*/
FoamFile
{
    format      ascii;
    class       volScalarField;
    location    "6.4";
    object      k;
}
// * * * * * * * * * * * * * * * * * * * * * * * * * * * * * * * * * * * * * //

dimensions      [0 2 -2 0 0 0 0];

internalField   nonuniform List<scalar> 
6400
(
5.11798e-07
2.62849e-06
6.3765e-06
1.02868e-05
1.32507e-05
1.49218e-05
1.5529e-05
1.55786e-05
1.5652e-05
1.62031e-05
1.75749e-05
2.03165e-05
2.46954e-05
3.0813e-05
3.83765e-05
4.69745e-05
5.61775e-05
6.57815e-05
7.53803e-05
8.46883e-05
9.39834e-05
0.000104028
0.000115872
0.000130249
0.000146713
0.000163592
0.000180314
0.000196873
0.000213747
0.000231414
0.000249716
0.000267953
0.000285874
0.000303436
0.00032115
0.000339104
0.000357707
0.000377077
0.000397471
0.000418968
0.000441723
0.000465904
0.00049166
0.000519357
0.000549112
0.000581877
0.000619331
0.000665224
0.000714027
0.000762994
0.000811532
0.000858778
0.000903449
0.000944238
0.000979688
0.00100805
0.00102385
0.00103043
0.00103096
0.00101353
0.00098076
0.000932606
0.000869722
0.000793995
0.000707743
0.000614725
0.000519759
0.00042666
0.000338956
0.000260182
0.000196527
0.000143076
9.98424e-05
6.67036e-05
4.28354e-05
2.65723e-05
1.59671e-05
9.14401e-06
4.31387e-06
9.17775e-07
2.47823e-06
2.08685e-05
5.06532e-05
7.94171e-05
0.000100805
0.000113578
0.000119621
0.000121974
0.000124057
0.000128759
0.000139365
0.000159861
0.000191395
0.000233514
0.000284299
0.000341157
0.000401787
0.000463913
0.00052566
0.000586177
0.000647103
0.000712587
0.000788014
0.000876453
0.000974788
0.00107457
0.00117172
0.00126433
0.00135318
0.00143937
0.00152134
0.00159768
0.00166725
0.0017304
0.00178979
0.00184611
0.00190147
0.00195667
0.00201309
0.00207132
0.00213208
0.00219603
0.00226335
0.00233449
0.00240871
0.00248594
0.00256474
0.00264244
0.00272356
0.00280819
0.00289515
0.00298184
0.00306645
0.00314553
0.00321578
0.00327305
0.00330631
0.00331819
0.00331221
0.00327336
0.00319732
0.00308349
0.00293029
0.00274007
0.0025177
0.00227066
0.00201073
0.00174643
0.00148535
0.00123341
0.000992635
0.00077324
0.000582149
0.000421945
0.000293892
0.000195995
0.000124974
7.5123e-05
3.63481e-05
4.85366e-06
5.42646e-06
4.54067e-05
0.00010594
0.00015721
0.000192249
0.000212866
0.000224057
0.000231486
0.000240925
0.000258078
0.000288626
0.000337391
0.000406248
0.000493613
0.000595637
0.000708191
0.000828078
0.000952692
0.00107946
0.00120616
0.00133105
0.00145332
0.00157103
0.00167942
0.00177357
0.00184955
0.00190456
0.00194255
0.0019713
0.00199769
0.0020263
0.00205677
0.00209014
0.00212311
0.00215969
0.00219879
0.00224229
0.00229005
0.00234308
0.00240145
0.00246506
0.00253437
0.00260908
0.0026891
0.0027745
0.00286512
0.00296002
0.00306071
0.00316691
0.00327744
0.00339106
0.00350585
0.00361963
0.00372926
0.00383106
0.00392042
0.00399214
0.0040352
0.00405012
0.00403834
0.00398305
0.00388323
0.00373427
0.00353753
0.00329532
0.00301373
0.00270977
0.00239241
0.00207196
0.00175916
0.00146312
0.0011907
0.00094712
0.000734863
0.000555032
0.000406851
0.000287072
0.000188192
9.54777e-05
1.29626e-05
9.43227e-06
7.65018e-05
0.000167282
0.000236103
0.000281207
0.000308982
0.000327441
0.000344715
0.000368879
0.000407903
0.000469066
0.000557024
0.000671843
0.00080906
0.000962008
0.00112426
0.00129021
0.00145438
0.00161079
0.00175359
0.00187707
0.00197893
0.00205676
0.00210363
0.00212397
0.00212897
0.00212381
0.0021196
0.00211828
0.00212175
0.00213148
0.00214421
0.00216212
0.00218464
0.00221257
0.00224538
0.00228377
0.00232761
0.00237691
0.00243188
0.0024926
0.00255927
0.00263185
0.00271025
0.00279419
0.00288365
0.0029799
0.00308263
0.00319148
0.00330577
0.00342444
0.00354603
0.00366859
0.00378936
0.00390493
0.00401098
0.00410227
0.00417315
0.00420965
0.00421954
0.00419076
0.004118
0.00400028
0.0038359
0.00361858
0.00334823
0.00304167
0.00270878
0.00236547
0.0020263
0.00170363
0.00140655
0.00114049
0.000907677
0.000708245
0.000540669
0.000400579
0.000278417
0.000151285
2.15261e-05
1.51432e-05
0.000118215
0.000240217
0.000325855
0.000381156
0.000417475
0.000446168
0.000478179
0.000524104
0.000593797
0.000694585
0.000828688
0.000991932
0.00117537
0.00136846
0.00156122
0.00174449
0.00190949
0.00204696
0.00215235
0.00221528
0.00224052
0.00224352
0.00221488
0.00218416
0.00215647
0.00213404
0.00211816
0.00211029
0.00210737
0.0021076
0.00211357
0.00212406
0.00213878
0.00215772
0.00218069
0.00220765
0.00223827
0.00227248
0.00231048
0.00235231
0.00239832
0.00244938
0.00250605
0.00256925
0.00263946
0.0027161
0.0027998
0.00289069
0.00298895
0.00309451
0.00320684
0.00332513
0.0034479
0.00357312
0.00369792
0.00381766
0.00392706
0.00401953
0.00408066
0.00410485
0.00409468
0.00402571
0.00390212
0.00372927
0.0035028
0.0032165
0.00288918
0.00253811
0.00218206
0.00183854
0.00152133
0.00123866
0.00099342
0.000784959
0.000610275
0.000463548
0.000332677
0.000188903
2.7392e-05
2.33105e-05
0.000173816
0.00032907
0.00043235
0.00049927
0.000546422
0.000588911
0.000640792
0.000714911
0.000821513
0.000965501
0.00114412
0.00134737
0.0015611
0.00177044
0.00196165
0.00212271
0.00224598
0.0023142
0.00233758
0.00232844
0.00228424
0.00224012
0.00219664
0.00215559
0.00211975
0.00209018
0.00206628
0.00204732
0.00203193
0.00201922
0.00201181
0.00200795
0.00200659
0.00200694
0.00201087
0.00201695
0.00202577
0.00203731
0.00205201
0.00207015
0.00209229
0.00211823
0.0021486
0.00218384
0.00222453
0.00227131
0.0023252
0.0023872
0.00245835
0.0025398
0.00263239
0.00273675
0.00285297
0.00298018
0.00311656
0.00326018
0.00340635
0.00354998
0.00368155
0.00379241
0.00385763
0.00387937
0.00384734
0.00374779
0.00358694
0.00334704
0.00304385
0.00269459
0.00232264
0.00195283
0.00160681
0.00129932
0.00103648
0.000817502
0.000637339
0.000487746
0.000354119
0.000205265
2.94848e-05
3.46718e-05
0.000245266
0.000436213
0.000558469
0.000638723
0.000699196
0.000759
0.000835067
0.000941253
0.00108585
0.00126873
0.00148054
0.00170506
0.00192339
0.00211753
0.00227228
0.00236883
0.00240648
0.00240754
0.00236072
0.00230864
0.002246
0.00218537
0.00212381
0.00206949
0.00202245
0.00198148
0.00194495
0.00191243
0.00188422
0.00186004
0.00183871
0.00181968
0.00180274
0.00178796
0.00177563
0.00176541
0.00175768
0.00175273
0.00175051
0.00175
0.00175276
0.00175861
0.00176787
0.00178101
0.00179834
0.00182064
0.00184859
0.00188347
0.00192654
0.00197944
0.00204436
0.00212351
0.00221931
0.00233363
0.00246596
0.0026182
0.00278788
0.00296967
0.00315687
0.00334151
0.00350919
0.00363862
0.00369874
0.00370769
0.00363082
0.00348472
0.00323181
0.00290042
0.00251681
0.00211364
0.0017237
0.00137334
0.00107701
0.000836273
0.000644386
0.000488914
0.000352661
0.000204053
2.86085e-05
4.99184e-05
0.000333651
0.00056238
0.000704989
0.000800207
0.000876121
0.000955719
0.00105789
0.00119552
0.00137252
0.00158201
0.00180774
0.00202815
0.00222124
0.0023693
0.00244493
0.00246632
0.00243924
0.00238553
0.00231144
0.00222858
0.0021408
0.00206288
0.00199279
0.00193335
0.00187906
0.00183
0.00178489
0.00174373
0.0017062
0.00167191
0.00164049
0.00161192
0.00158623
0.0015635
0.00154367
0.00152651
0.0015121
0.00150038
0.00149133
0.00148497
0.00148191
0.00148094
0.00148258
0.00148812
0.00149684
0.00150965
0.00152684
0.00154884
0.00157625
0.00160994
0.00165098
0.00170083
0.0017617
0.00183714
0.00193366
0.00205555
0.00220786
0.00239257
0.00260009
0.00282873
0.0030646
0.00329148
0.00348747
0.00360013
0.00363631
0.00358964
0.00344891
0.00316915
0.00279523
0.00236433
0.00192047
0.00150637
0.00115252
0.000870344
0.00065346
0.00048531
0.000344289
0.000197321
2.6575e-05
6.95497e-05
0.000438864
0.000707064
0.000871135
0.000982468
0.00107488
0.00117463
0.00130113
0.00146426
0.00166184
0.00187991
0.00209645
0.00228693
0.00242559
0.00248907
0.00249983
0.00245891
0.00239378
0.0022989
0.00218865
0.00208573
0.00199497
0.00191436
0.00184209
0.00177742
0.00171743
0.00166252
0.00161195
0.00156593
0.00152424
0.00148684
0.00145365
0.00142467
0.0013997
0.00137853
0.00136096
0.00134675
0.00133568
0.00132745
0.00132213
0.00131965
0.00131893
0.00132039
0.00132483
0.00133178
0.0013413
0.0013536
0.00136883
0.00138725
0.00140916
0.001435
0.00146529
0.00150074
0.00154225
0.00159114
0.00164951
0.00172065
0.00181022
0.00192886
0.00209708
0.00231255
0.00256977
0.00284865
0.00313297
0.00339201
0.00355852
0.00361947
0.00360115
0.0034588
0.00313981
0.00271158
0.0022236
0.00173493
0.00129848
0.000945857
0.000681434
0.000487421
0.000332179
0.000184045
2.43278e-05
9.37821e-05
0.000559481
0.000868457
0.00105477
0.00118248
0.0012907
0.00140808
0.00155306
0.00173097
0.00193301
0.00213912
0.00232386
0.00245584
0.00251277
0.00251862
0.00247486
0.00239249
0.00227426
0.00214754
0.00203268
0.0019296
0.00183857
0.00175665
0.00168237
0.00161472
0.00155268
0.00149675
0.00144667
0.00140267
0.00136455
0.00133219
0.00130526
0.00128336
0.00126603
0.00125275
0.00124297
0.00123621
0.00123256
0.00123105
0.00123084
0.00123312
0.0012369
0.00124254
0.00124994
0.00125909
0.00127006
0.00128298
0.00129804
0.00131545
0.00133548
0.0013583
0.00138418
0.00141342
0.00144639
0.00148353
0.00152537
0.0015732
0.00162942
0.00169855
0.00178898
0.0019143
0.00210245
0.00236716
0.00268144
0.0030175
0.00333902
0.00356041
0.00364465
0.00364436
0.00348765
0.00311861
0.00262518
0.0020756
0.00154504
0.00109444
0.00075077
0.000507036
0.000329539
0.000172709
2.25464e-05
0.000122931
0.000692013
0.00104355
0.00125244
0.00139551
0.00151674
0.00164627
0.00180037
0.00197917
0.00216789
0.00234244
0.00246916
0.00252287
0.00252671
0.00248268
0.00238635
0.00225118
0.00211327
0.00198479
0.00187138
0.00177025
0.00168006
0.00159852
0.00152494
0.00145894
0.00140048
0.00134987
0.00130687
0.0012713
0.0012426
0.00122012
0.00120308
0.00119068
0.0011821
0.00117686
0.00117438
0.00117359
0.00117426
0.00117686
0.00118054
0.00118572
0.00119204
0.00119975
0.00120881
0.00121934
0.00123149
0.00124543
0.00126128
0.00127921
0.00129934
0.00132177
0.0013466
0.00137396
0.00140396
0.00143687
0.00147303
0.00151212
0.0015548
0.00160232
0.00165774
0.0017282
0.00182681
0.00197616
0.00221733
0.00255593
0.00293279
0.00331808
0.00359032
0.00369522
0.00369733
0.00351219
0.00307821
0.00251196
0.00190259
0.00134096
0.000889873
0.00056366
0.000341692
0.000170935
2.21045e-05
0.000158634
0.000831702
0.00122877
0.00145955
0.00161551
0.00174493
0.00187867
0.00203027
0.00219496
0.00235358
0.00247405
0.00252618
0.00252986
0.00248654
0.002382
0.00223594
0.00208689
0.00194699
0.0018222
0.00171243
0.00161455
0.00152735
0.00144962
0.00138137
0.00132254
0.00127311
0.00123279
0.00120085
0.00117641
0.00115837
0.00114561
0.00113707
0.001132
0.00112961
0.00112881
0.00112903
0.00113087
0.00113356
0.00113731
0.00114191
0.00114758
0.00115432
0.00116235
0.00117177
0.0011828
0.00119561
0.00121041
0.00122737
0.00124665
0.00126839
0.00129265
0.00131945
0.00134869
0.00138021
0.00141374
0.00144906
0.00148606
0.00152502
0.00156598
0.00160887
0.00165608
0.00171336
0.00179277
0.00191622
0.00212166
0.00246383
0.00287988
0.00332361
0.00363667
0.00375375
0.00374565
0.00350592
0.00299278
0.00234983
0.00169113
0.00111706
0.00068144
0.000383212
0.000179623
2.30873e-05
0.000198474
0.000979037
0.00142015
0.0016708
0.00183579
0.001967
0.00209553
0.00223226
0.00236869
0.00247927
0.00252944
0.00253374
0.00249133
0.00238455
0.00223213
0.00207175
0.00192064
0.00178504
0.00166606
0.00156149
0.00146912
0.00138836
0.00131876
0.00126036
0.00121276
0.00117526
0.00114677
0.00112589
0.00111122
0.00110134
0.00109506
0.0010915
0.00108981
0.00108921
0.00108914
0.00109002
0.00109161
0.00109383
0.00109681
0.00110064
0.00110553
0.00111164
0.00111917
0.00112833
0.00113933
0.0011524
0.00116774
0.00118558
0.0012061
0.0012295
0.00125588
0.00128532
0.00131775
0.00135297
0.00139058
0.00142999
0.00147045
0.00151122
0.0015519
0.00159286
0.00163389
0.00167611
0.00172468
0.00179041
0.00189593
0.00208152
0.00240756
0.0028588
0.00335327
0.00369235
0.00381072
0.00376802
0.00344425
0.0028366
0.00212176
0.00143417
0.000872842
0.000473614
0.000208352
2.68719e-05
0.000241278
0.00113043
0.00161287
0.00188044
0.0020497
0.00217544
0.00228894
0.00239915
0.0024939
0.00253933
0.00254365
0.00250098
0.00239623
0.00224083
0.00207098
0.00190777
0.00176113
0.00163261
0.00152089
0.00142373
0.00133994
0.00126923
0.00121115
0.0011651
0.00112986
0.00110391
0.00108548
0.00107285
0.00106444
0.00105894
0.00105535
0.00105297
0.00105126
0.00104995
0.00104911
0.00104877
0.00104874
0.00104949
0.00105103
0.00105366
0.00105748
0.00106275
0.00106965
0.00107838
0.00108916
0.0011022
0.00111773
0.00113598
0.00115718
0.00118157
0.00120937
0.00124075
0.0012758
0.00131447
0.00135651
0.00140136
0.00144813
0.00149556
0.00154218
0.00158671
0.00162878
0.0016689
0.00170808
0.00175002
0.00180666
0.00190114
0.00207392
0.00238929
0.00287038
0.00340895
0.00374886
0.00384919
0.00374632
0.00329891
0.00258932
0.00181937
0.00113465
0.000618441
0.000268571
3.56035e-05
0.000285658
0.0012819
0.00180196
0.00208291
0.00225121
0.00236422
0.0024536
0.00252726
0.00256318
0.00256532
0.00251965
0.00241904
0.00226343
0.00208625
0.00191094
0.00175182
0.00161294
0.00149317
0.00139051
0.00130333
0.00123088
0.00117255
0.0011272
0.00109329
0.00106882
0.0010517
0.00103994
0.00103184
0.00102605
0.0010216
0.00101786
0.00101446
0.00101124
0.00100822
0.00100554
0.0010033
0.00100189
0.00100134
0.00100137
0.00100301
0.00100603
0.00101064
0.00101706
0.00102543
0.00103594
0.0010488
0.00106421
0.00108241
0.00110366
0.00112823
0.00115643
0.00118854
0.00122483
0.00126548
0.00131051
0.00135969
0.00141238
0.00146743
0.00152309
0.00157708
0.00162698
0.00167123
0.00170975
0.00174424
0.00178318
0.00183438
0.00192313
0.00209006
0.00240736
0.00291745
0.00349252
0.00379348
0.00385551
0.00366057
0.00304555
0.00224032
0.00144896
0.000809272
0.000355814
4.89982e-05
0.000330215
0.00142958
0.00198277
0.00227327
0.00243529
0.0025291
0.00258548
0.00260934
0.00260411
0.00255227
0.00245543
0.00230143
0.00211902
0.00193218
0.0017592
0.00160801
0.00147876
0.00136925
0.00127759
0.00120242
0.00114274
0.00109708
0.00106341
0.0010394
0.00102261
0.00101086
0.00100231
0.000995608
0.00098983
0.000984416
0.000979104
0.000973833
0.000968687
0.000963833
0.00095947
0.000955796
0.000953026
0.000951571
0.00095107
0.000951821
0.000954453
0.000958705
0.000964841
0.000972968
0.000983249
0.000995852
0.00101097
0.00102882
0.00104965
0.00107378
0.00110152
0.00113326
0.0011694
0.00121031
0.00125631
0.00130756
0.0013639
0.00142469
0.0014886
0.00155342
0.001616
0.00167262
0.00172085
0.00176023
0.00178536
0.00181967
0.00187065
0.00195723
0.00212649
0.00246218
0.00301307
0.0035791
0.00382356
0.00382478
0.00344522
0.00266736
0.00179648
0.00103454
0.000463117
6.59336e-05
0.000374101
0.00156922
0.00215145
0.00244817
0.00259747
0.00266242
0.00268019
0.00266273
0.00260341
0.00250871
0.00235657
0.00217077
0.00197341
0.00178556
0.0016196
0.00147846
0.00136019
0.00126233
0.00118303
0.00112069
0.00107347
0.00103898
0.00101448
0.000997261
0.000984889
0.000975441
0.000967521
0.000960236
0.000953094
0.000945907
0.00093869
0.00093158
0.000924777
0.000918503
0.000912971
0.000908376
0.000904897
0.000902982
0.000902263
0.000902592
0.000905093
0.000909212
0.000915222
0.000923202
0.000933288
0.00094562
0.000960368
0.00097773
0.000997943
0.00102129
0.00104812
0.00107882
0.00111385
0.00115374
0.00119899
0.0012501
0.00130737
0.0013708
0.00143979
0.00151289
0.00158745
0.00165945
0.00172369
0.00177691
0.00181558
0.00183339
0.00186125
0.00191288
0.00200107
0.00218096
0.00254878
0.00314748
0.00366707
0.00384808
0.00370233
0.00307202
0.00216404
0.00128575
0.000584374
8.53466e-05
0.000416389
0.00169926
0.00230506
0.00260089
0.00273086
0.00276708
0.00275007
0.00268518
0.00258124
0.00243129
0.00224309
0.00203652
0.00183335
0.00165017
0.00149392
0.00136413
0.00125786
0.00117252
0.00110593
0.00105579
0.00101934
0.000993493
0.000975191
0.000961779
0.000951176
0.000941928
0.00093314
0.000924361
0.000915457
0.000906493
0.000897647
0.000889146
0.000881219
0.000874083
0.000867924
0.000862903
0.000859157
0.000857108
0.000856336
0.000856576
0.000859057
0.000863153
0.000869099
0.00087697
0.000886877
0.000898944
0.000913318
0.000930174
0.000949725
0.000972229
0.000998
0.00102742
0.00106096
0.00109917
0.00114267
0.00119215
0.00124827
0.00131153
0.00138211
0.00145948
0.00154208
0.0016268
0.00170866
0.00178079
0.00183878
0.00187162
0.00188489
0.00190662
0.00195979
0.00205419
0.00225567
0.00268036
0.00332327
0.00372148
0.00379501
0.00342746
0.00254147
0.00155913
0.000715856
0.000106337
0.000455482
0.0018165
0.00243829
0.00272814
0.0028365
0.00284917
0.00279066
0.00267901
0.00253006
0.00233807
0.0021234
0.00190518
0.00170278
0.0015278
0.00138279
0.00126512
0.00117136
0.00109859
0.00104397
0.00100433
0.000976229
0.000956259
0.000941465
0.000929564
0.000918985
0.000908791
0.000898537
0.000888115
0.000877627
0.000867276
0.000857303
0.000847945
0.000839411
0.000831876
0.000825485
0.000820353
0.000816577
0.000814543
0.000813786
0.000814061
0.000816527
0.0008206
0.000826468
0.00083421
0.000843922
0.000855718
0.00086973
0.000886113
0.000905054
0.000926781
0.000951573
0.000979776
0.00101182
0.00104823
0.00108965
0.00113683
0.00119063
0.00125189
0.00132137
0.00139939
0.00148555
0.0015781
0.00167343
0.00176547
0.00184562
0.00190431
0.00192932
0.00193836
0.00195478
0.00201115
0.00211756
0.00235839
0.00287063
0.00350109
0.00376448
0.00363958
0.00290634
0.00185043
0.000854804
0.000128166
0.000489932
0.00191794
0.00254905
0.00283
0.00291918
0.00290592
0.00280634
0.00265495
0.00245919
0.00223616
0.00200359
0.00178083
0.00158367
0.00141899
0.00128598
0.00118075
0.00109939
0.0010384
0.000994145
0.000962772
0.000940491
0.000923979
0.000910665
0.000898792
0.000887323
0.000875774
0.000864041
0.000852237
0.000840583
0.000829331
0.000818716
0.000808941
0.000800168
0.000792526
0.000786113
0.000781007
0.000777273
0.000775265
0.000774522
0.0007748
0.000777189
0.000781173
0.000786899
0.000794453
0.000803928
0.00081543
0.000829083
0.000845029
0.000863434
0.000884498
0.000908464
0.000935633
0.00096638
0.00100118
0.00104063
0.00108546
0.00113658
0.001195
0.00126182
0.00133799
0.00142407
0.00151966
0.00162273
0.00172886
0.00183062
0.00191741
0.00197261
0.00198825
0.00199226
0.00200545
0.00206668
0.00219666
0.00250857
0.00311388
0.00360506
0.00371055
0.00323932
0.00215427
0.000996226
0.00015105
0.000518918
0.00200231
0.00263677
0.00290706
0.00298066
0.00293814
0.00280015
0.0026077
0.00237769
0.00213113
0.00188783
0.0016658
0.00147676
0.00132346
0.00120271
0.00110972
0.00104001
0.000989368
0.000953468
0.000928071
0.00090941
0.000894529
0.000881385
0.000868765
0.000856096
0.00084324
0.000830307
0.000817523
0.000805146
0.000793411
0.000782512
0.000772603
0.000763796
0.000756174
0.000749802
0.000744732
0.000741008
0.000738956
0.000738182
0.00073836
0.000740576
0.000744376
0.000749875
0.000757168
0.000766347
0.000777519
0.000790803
0.000806332
0.00082426
0.000844765
0.000868058
0.000894399
0.00092411
0.000957601
0.000995395
0.00103816
0.00108676
0.00114222
0.0012058
0.00127882
0.00136254
0.00145766
0.00156375
0.00167827
0.00179553
0.00190569
0.00199423
0.00203832
0.0020467
0.00204598
0.00205735
0.00212874
0.00230243
0.00273128
0.00338007
0.00366373
0.00346831
0.00245986
0.00113978
0.000174526
0.000542022
0.00206958
0.00270247
0.00296119
0.00302033
0.00294864
0.00277952
0.00254878
0.00229051
0.00202705
0.00177873
0.00156116
0.00138194
0.00124045
0.00113177
0.00105033
0.000991031
0.000948966
0.000919367
0.000897936
0.000881214
0.000866756
0.000853075
0.000839437
0.000825626
0.000811725
0.000797958
0.000784582
0.000771833
0.000759904
0.000748937
0.000739033
0.000730262
0.000722677
0.000716318
0.000711223
0.000707428
0.000705219
0.000704345
0.000704328
0.00070626
0.000709782
0.00071497
0.000721929
0.000730753
0.000741552
0.000754444
0.000769559
0.000787043
0.000807059
0.000829796
0.00085548
0.000884388
0.000916868
0.000953368
0.000994471
0.00104094
0.00109375
0.00115414
0.00122359
0.00130374
0.00139611
0.0015016
0.00161963
0.00174702
0.00187664
0.00199639
0.00207575
0.00210292
0.00210438
0.00209533
0.00211135
0.00220503
0.00245659
0.0030317
0.00350321
0.00356193
0.00276913
0.00130071
0.000200918
0.000559119
0.00212037
0.00274755
0.0029942
0.00304003
0.00294233
0.00274132
0.00248173
0.00220143
0.00192676
0.00167779
0.00146715
0.00129863
0.00116889
0.00107169
0.00100075
0.000950328
0.000915017
0.000889881
0.000870837
0.000854899
0.000840176
0.000825682
0.000811059
0.000796332
0.000781704
0.000767435
0.000753763
0.000740878
0.000728918
0.000717975
0.000708111
0.000699366
0.000691772
0.000685359
0.000680158
0.000676208
0.000673705
0.0006726
0.000672414
0.000673934
0.000677097
0.000681906
0.000688467
0.000696883
0.000707266
0.000719736
0.000734425
0.000751472
0.000771034
0.000793287
0.000818431
0.00084671
0.00087842
0.000913941
0.00095377
0.000998563
0.00104919
0.0011068
0.00117286
0.00124914
0.00133762
0.00144008
0.00155745
0.0016886
0.00182883
0.00196821
0.00209043
0.00215592
0.00216853
0.00215316
0.00213633
0.00217266
0.00230801
0.00271515
0.00333864
0.00357178
0.00306836
0.00150316
0.000235419
0.000570487
0.00215569
0.00277299
0.00300637
0.00303951
0.00292294
0.00269365
0.00241016
0.00211331
0.0018321
0.00158567
0.00138349
0.00122595
0.00110753
0.00102092
0.000959186
0.000916048
0.000885815
0.000863647
0.000845858
0.000829999
0.000814698
0.000799375
0.000783943
0.000768567
0.000753496
0.000738976
0.0007252
0.000712305
0.000700379
0.000689475
0.000679626
0.000670854
0.000663183
0.000656636
0.000651249
0.000647064
0.000644173
0.000642768
0.00064238
0.000643418
0.000646163
0.00065054
0.000656658
0.000664623
0.000674551
0.000686568
0.000700805
0.000717405
0.00073652
0.000758318
0.000782988
0.000810746
0.000841852
0.000876633
0.000915508
0.000959035
0.00100796
0.00106331
0.00112644
0.00119911
0.00128348
0.00138191
0.00149652
0.00162817
0.00177492
0.00193005
0.00208015
0.00218873
0.00222941
0.00223025
0.00218934
0.00217182
0.00223949
0.00247761
0.00306287
0.00344964
0.00329313
0.00175856
0.000281758
0.000576146
0.00217583
0.00277991
0.00300316
0.00302841
0.00288905
0.00263896
0.00233682
0.00202822
0.00174418
0.00150252
0.00130959
0.00116286
0.00105506
0.000977964
0.000924063
0.000886698
0.000860128
0.000839801
0.000822521
0.000806366
0.000790409
0.000774375
0.000758349
0.000742563
0.000727263
0.000712653
0.000698875
0.000686017
0.000674129
0.000663234
0.000653349
0.000644488
0.00063667
0.000629922
0.000624281
0.000619794
0.000616516
0.000614731
0.000614109
0.000614638
0.000616923
0.000620836
0.00062648
0.000633963
0.000643406
0.000654938
0.000668695
0.000684822
0.000703475
0.000724818
0.000749033
0.000776324
0.000806925
0.000841123
0.000879276
0.000921858
0.000969506
0.0010231
0.00108384
0.00115337
0.00123382
0.00132781
0.00143812
0.00156702
0.00171484
0.00187784
0.00204571
0.00219957
0.00228446
0.00230127
0.00227226
0.00222369
0.00222005
0.00235168
0.00279777
0.00332031
0.00339587
0.00206153
0.000339179
0.000575814
0.00218354
0.00277518
0.002989
0.00300287
0.00284642
0.00257989
0.00226387
0.00194757
0.00166354
0.00142809
0.00124469
0.00110832
0.00101024
0.000941484
0.000894072
0.000861152
0.000837124
0.00081784
0.00080062
0.000784016
0.000767451
0.000750867
0.000734446
0.000718431
0.000703039
0.000688426
0.000674685
0.000661864
0.000649984
0.000639054
0.000629079
0.000620073
0.000612056
0.00060506
0.000599126
0.000594305
0.000590654
0.000588432
0.000587546
0.000587595
0.000589392
0.000592826
0.000597978
0.00060496
0.000613895
0.000624915
0.000638162
0.000653785
0.000671945
0.000692808
0.000716558
0.000743391
0.000773529
0.000807232
0.000844813
0.000886679
0.000933371
0.000985636
0.00104452
0.00111149
0.00118856
0.00127835
0.00138405
0.00150895
0.0016553
0.00182233
0.00200341
0.00218327
0.00231755
0.00236642
0.00236108
0.00228288
0.00223956
0.00229012
0.00256774
0.00317549
0.00341754
0.00239946
0.000405313
0.00057272
0.00218167
0.0027596
0.00295992
0.00296512
0.00279694
0.00251851
0.00219288
0.00187229
0.00159036
0.00136196
0.00118797
0.00106127
0.000971925
0.000910331
0.000868182
0.000838602
0.000816268
0.000797497
0.000780096
0.000763016
0.000745948
0.00072897
0.000712306
0.000696185
0.000680779
0.000666197
0.000652492
0.000639683
0.000627774
0.000616763
0.000606655
0.000597466
0.000589222
0.000581958
0.000575721
0.000570569
0.000566568
0.000563869
0.000562609
0.000562349
0.000563622
0.000566572
0.000571229
0.000577701
0.000586113
0.000596599
0.000609308
0.000624393
0.000642021
0.000662367
0.000685618
0.000711972
0.000741646
0.000774886
0.000811977
0.000853274
0.000899241
0.000950513
0.00100798
0.00107293
0.00114718
0.00123321
0.00133431
0.0014543
0.00159682
0.00176355
0.00195121
0.00214775
0.00232912
0.00242527
0.00244162
0.00238617
0.00228952
0.00227196
0.00242484
0.0029536
0.00332697
0.00272858
0.000472052
0.000565865
0.00217328
0.0027305
0.00292074
0.00291892
0.00274262
0.00245645
0.00212502
0.00180289
0.00152455
0.00130356
0.00113859
0.00102075
0.000939113
0.000883565
0.000845609
0.000818485
0.000797235
0.000778643
0.000760952
0.000743437
0.000725978
0.000708734
0.000691935
0.000675777
0.00066039
0.000645841
0.000632153
0.000619324
0.00060735
0.000596225
0.000585959
0.00057657
0.000568087
0.000560555
0.000554023
0.000548552
0.00054421
0.000541075
0.000539419
0.000538899
0.000539671
0.000542145
0.000546313
0.000552276
0.000560157
0.000570095
0.00058224
0.000596755
0.000613812
0.000633596
0.000656301
0.000682133
0.000711314
0.000744083
0.00078071
0.000821518
0.000866911
0.000917433
0.000973844
0.00103724
0.00110923
0.00119211
0.00128904
0.00140412
0.00154191
0.00170617
0.00189713
0.00210746
0.00231788
0.00246688
0.00251329
0.0024885
0.00235938
0.00228906
0.00235385
0.00275891
0.00320006
0.00298048
0.000523888
0.00055522
0.00215556
0.00269278
0.00287429
0.00286613
0.00268517
0.002395
0.00206107
0.00173962
0.00146585
0.00125229
0.00109576
0.000985893
0.000910952
0.000860434
0.000825773
0.000800423
0.000779829
0.000761219
0.00074321
0.000725324
0.000707572
0.000690154
0.000673285
0.000657124
0.000641762
0.000627231
0.000613534
0.000600659
0.000588594
0.000577339
0.000566904
0.000557313
0.000548601
0.000540815
0.000534007
0.000528239
0.000523576
0.000520087
0.000518035
0.000517265
0.000517587
0.000519605
0.000523298
0.000528759
0.000536109
0.000545489
0.000557053
0.000570969
0.000587418
0.000606593
0.000628701
0.000653959
0.000682596
0.000714858
0.000751011
0.000791357
0.000836261
0.000886194
0.000941807
0.00100404
0.00107427
0.00115456
0.00124787
0.00135824
0.00149072
0.00165045
0.00184034
0.00205694
0.00228507
0.00248553
0.00257717
0.00258229
0.00247124
0.002335
0.00232217
0.00259013
0.00308161
0.00309815
0.000546987
0.000541351
0.0021312
0.00264837
0.00282195
0.00280871
0.00262599
0.00233513
0.00200152
0.0016825
0.00141392
0.00120753
0.00105872
0.000955934
0.000886735
0.000840351
0.000808249
0.00078416
0.000763933
0.000745198
0.000726879
0.000708688
0.00069072
0.000673188
0.000656283
0.000640129
0.000624782
0.000610251
0.000596523
0.000583581
0.000571414
0.000560024
0.000549425
0.000539646
0.000530726
0.000522714
0.000515663
0.000509635
0.000504693
0.000500904
0.000498474
0.000497447
0.000497404
0.000498988
0.000502225
0.000507198
0.000514024
0.000522845
0.000533815
0.00054711
0.000562917
0.000581442
0.000602901
0.000627527
0.000655563
0.000687265
0.000722905
0.000762779
0.000807227
0.000856671
0.000911671
0.000973026
0.00104193
0.00112017
0.00121045
0.00131665
0.00144398
0.00159855
0.00178565
0.00200588
0.00224918
0.00248836
0.0026339
0.00266615
0.00258891
0.00239443
0.00231609
0.00245116
0.00297569
0.00313074
0.000550701
0.000525038
0.00210233
0.00259896
0.00276517
0.00274825
0.00256626
0.00227755
0.00194665
0.00163145
0.00136835
0.00116871
0.00102684
0.000930219
0.000865881
0.000822861
0.000792727
0.000769518
0.000749467
0.000730555
0.000711953
0.000693513
0.000675382
0.000657771
0.000640844
0.000624692
0.000609345
0.000594796
0.000581023
0.000568006
0.000555736
0.000544218
0.000533471
0.000523529
0.000514431
0.000506229
0.000498976
0.000492731
0.000487557
0.000483523
0.000480741
0.000479407
0.000479128
0.0004803
0.000483106
0.000487609
0.000493924
0.000502188
0.000512561
0.00052522
0.000540361
0.000558199
0.000578964
0.000602903
0.000630277
0.000661358
0.000696431
0.000735797
0.000779787
0.000828788
0.000883294
0.00094399
0.00101189
0.00108855
0.00117637
0.00127894
0.00140138
0.00155029
0.00173256
0.0019521
0.00220394
0.0024672
0.00267174
0.00274021
0.0027025
0.0025016
0.00235044
0.00238447
0.00281436
0.00310234
0.000539674
0.000506966
0.00207071
0.00254613
0.00270534
0.00268604
0.0025069
0.00222276
0.00189657
0.00158624
0.00132871
0.00113527
0.000999512
0.000908194
0.000847918
0.000807607
0.000778974
0.000756367
0.000736371
0.000717261
0.000698407
0.000679762
0.000661502
0.000643828
0.000626879
0.000610719
0.000595359
0.000580779
0.000566953
0.000553861
0.000541496
0.000529867
0.000518998
0.000508922
0.000499683
0.00049133
0.000483916
0.000477496
0.000472132
0.000467886
0.000464825
0.000463195
0.000462711
0.000463516
0.000465919
0.000469976
0.000475796
0.000483515
0.000493292
0.000505309
0.000519767
0.000536891
0.000556923
0.000580127
0.000606782
0.00063718
0.000671624
0.000710431
0.000753933
0.000802502
0.000856584
0.000916774
0.000983937
0.00105941
0.00114528
0.00124483
0.00136293
0.00150636
0.00168313
0.00189992
0.00215613
0.00243514
0.00268927
0.0028061
0.00280532
0.00262244
0.00239316
0.00235809
0.00267735
0.00303611
0.000521995
0.000487705
0.00203705
0.00249108
0.00264367
0.00262317
0.00244863
0.00217107
0.00185128
0.0015466
0.00129459
0.00110672
0.000976238
0.000889394
0.000832465
0.000794311
0.000766813
0.000744608
0.000724591
0.000705281
0.000686204
0.000667383
0.000649014
0.000631282
0.000614304
0.000598126
0.000582741
0.000568123
0.000554244
0.000541084
0.00052864
0.000516924
0.00050596
0.000495786
0.000486442
0.000477977
0.000470442