/*--------------------------------*- C++ -*----------------------------------*\
  =========                 |
  \\      /  F ield         | OpenFOAM: The Open Source CFD Toolbox
   \\    /   O peration     | Website:  https://openfoam.org
    \\  /    A nd           | Version:  13
     \\/     M anipulation  |
\*---------------------------------------------------------------------------*/
FoamFile
{
    format      ascii;
    class       volScalarField;
    location    "6.4";
    object      nut;
}
// * * * * * * * * * * * * * * * * * * * * * * * * * * * * * * * * * * * * * //

dimensions      [0 2 -1 0 0 0 0];

internalField   nonuniform List<scalar> 
6400
(
8.99704e-10
4.6207e-09
1.12095e-08
1.80834e-08
2.32939e-08
2.62315e-08
2.72988e-08
2.7386e-08
2.75152e-08
2.84841e-08
3.08959e-08
3.57156e-08
4.34137e-08
5.41682e-08
6.74645e-08
8.25791e-08
9.87572e-08
1.1564e-07
1.32514e-07
1.48876e-07
1.65215e-07
1.82872e-07
2.03693e-07
2.28966e-07
2.57908e-07
2.87578e-07
3.16973e-07
3.46081e-07
3.75743e-07
4.06799e-07
4.38971e-07
4.7103e-07
5.02533e-07
5.33403e-07
5.64542e-07
5.96104e-07
6.28805e-07
6.62854e-07
6.98706e-07
7.36495e-07
7.76494e-07
8.19001e-07
8.64276e-07
9.12965e-07
9.6527e-07
1.02287e-06
1.08871e-06
1.16938e-06
1.25517e-06
1.34124e-06
1.42657e-06
1.50961e-06
1.58814e-06
1.65983e-06
1.72215e-06
1.772e-06
1.79977e-06
1.81133e-06
1.81227e-06
1.78162e-06
1.72401e-06
1.63936e-06
1.52882e-06
1.3957e-06
1.24408e-06
1.08057e-06
9.13637e-07
7.49986e-07
5.95819e-07
4.5735e-07
3.45456e-07
2.51499e-07
1.75503e-07
1.17252e-07
7.52961e-08
4.67089e-08
2.80671e-08
1.60735e-08
7.58303e-09
1.61329e-09
4.35654e-09
3.09669e-07
1.11479e-06
1.88718e-06
2.46202e-06
2.80157e-06
2.95716e-06
3.01044e-06
3.0446e-06
3.11743e-06
3.30199e-06
3.66811e-06
4.18689e-06
4.79653e-06
5.43503e-06
6.03833e-06
6.56154e-06
6.95924e-06
7.21348e-06
7.33578e-06
7.39705e-06
7.46808e-06
7.61427e-06
7.87019e-06
8.18587e-06
8.41843e-06
8.62239e-06
8.8494e-06
9.1449e-06
9.5475e-06
1.0074e-05
1.06513e-05
1.12805e-05
1.19264e-05
1.26106e-05
1.3317e-05
1.40558e-05
1.48214e-05
1.56199e-05
1.64484e-05
1.73016e-05
1.81832e-05
1.90839e-05
2.00418e-05
2.10201e-05
2.19942e-05
2.29292e-05
2.37834e-05
2.46251e-05
2.55019e-05
2.63798e-05
2.72573e-05
2.81141e-05
2.89321e-05
2.9688e-05
3.04221e-05
3.09223e-05
3.12144e-05
3.14539e-05
3.1467e-05
3.11599e-05
3.05409e-05
2.96027e-05
2.83157e-05
2.6692e-05
2.47686e-05
2.26515e-05
2.03644e-05
1.79361e-05
1.53428e-05
1.24654e-05
9.67211e-06
7.20094e-06
5.15591e-06
3.5709e-06
2.42221e-06
1.61442e-06
1.03955e-06
4.69067e-07
8.53189e-09
9.53933e-09
8.05546e-07
3.27207e-06
5.71337e-06
7.59272e-06
8.81669e-06
9.50465e-06
9.84912e-06
1.00581e-05
1.0309e-05
1.07232e-05
1.13869e-05
1.22756e-05
1.32912e-05
1.43072e-05
1.52059e-05
1.59371e-05
1.64755e-05
1.68187e-05
1.69804e-05
1.69814e-05
1.69068e-05
1.68398e-05
1.68226e-05
1.68895e-05
1.71217e-05
1.74423e-05
1.77564e-05
1.80933e-05
1.84509e-05
1.88956e-05
1.952e-05
2.04707e-05
2.1438e-05
2.25423e-05
2.37027e-05
2.49445e-05
2.62158e-05
2.75332e-05
2.89372e-05
3.03226e-05
3.17354e-05
3.31481e-05
3.44824e-05
3.57622e-05
3.70068e-05
3.82131e-05
3.94276e-05
4.06469e-05
4.1873e-05
4.309e-05
4.42915e-05
4.54603e-05
4.65783e-05
4.76198e-05
4.85532e-05
4.93399e-05
4.99289e-05
5.02014e-05
5.04061e-05
5.02797e-05
4.98363e-05
4.90557e-05
4.77934e-05
4.59899e-05
4.36181e-05
4.08917e-05
3.78037e-05
3.43652e-05
3.06206e-05
2.66118e-05
2.24745e-05
1.84059e-05
1.46092e-05
1.12629e-05
8.4317e-06
6.17895e-06
4.2443e-06
1.76395e-06
2.27859e-08
1.65813e-08
1.32258e-06
5.1538e-06
8.84787e-06
1.17169e-05
1.36922e-05
1.492e-05
1.56154e-05
1.60411e-05
1.64075e-05
1.69134e-05
1.76819e-05
1.86924e-05
1.98036e-05
2.085e-05
2.17176e-05
2.2343e-05
2.27209e-05
2.28786e-05
2.28723e-05
2.2766e-05
2.2666e-05
2.26412e-05
2.27337e-05
2.27858e-05
2.27963e-05
2.27202e-05
2.30543e-05
2.37328e-05
2.46483e-05
2.59073e-05
2.70959e-05
2.82841e-05
2.9536e-05
3.0835e-05
3.21183e-05
3.33988e-05
3.47365e-05
3.60321e-05
3.72985e-05
3.85296e-05
3.97366e-05
4.09049e-05
4.20294e-05
4.31132e-05
4.41586e-05
4.5207e-05
4.62561e-05
4.73034e-05
4.83452e-05
4.93731e-05
5.03785e-05
5.13487e-05
5.22678e-05
5.3116e-05
5.387e-05
5.45027e-05
5.49962e-05
5.52828e-05
5.53756e-05
5.52587e-05
5.4833e-05
5.40465e-05
5.32715e-05
5.20628e-05
5.01981e-05
4.78803e-05
4.50588e-05
4.18203e-05
3.82175e-05
3.42916e-05
3.01041e-05
2.57579e-05
2.14145e-05
1.72757e-05
1.35149e-05
1.02401e-05
7.16294e-06
2.96036e-06
3.78392e-08
2.66208e-08
1.98836e-06
7.1781e-06
1.19445e-05
1.55158e-05
1.79278e-05
1.94098e-05
2.02394e-05
2.07232e-05
2.11733e-05
2.18415e-05
2.28145e-05
2.39898e-05
2.51678e-05
2.61678e-05
2.68879e-05
2.73052e-05
2.74563e-05
2.73929e-05
2.7235e-05
2.69838e-05
2.68121e-05
2.6655e-05
2.60297e-05
2.59069e-05
2.63438e-05
2.72657e-05
2.83666e-05
2.95166e-05
3.07935e-05
3.20445e-05
3.32623e-05
3.44637e-05
3.56317e-05
3.67283e-05
3.77407e-05
3.87504e-05
3.97169e-05
4.05414e-05
4.13185e-05
4.2014e-05
4.26552e-05
4.32628e-05
4.38572e-05
4.4464e-05
4.50925e-05
4.57144e-05
4.63446e-05
4.69831e-05
4.76343e-05
4.83002e-05
4.89813e-05
4.96763e-05
5.03811e-05
5.10886e-05
5.17883e-05
5.24634e-05
5.30868e-05
5.36243e-05
5.4025e-05
5.41946e-05
5.4154e-05
5.37096e-05
5.26586e-05
5.18313e-05
5.07619e-05
4.89922e-05
4.67165e-05
4.40081e-05
4.09243e-05
3.74989e-05
3.37537e-05
2.97193e-05
2.54781e-05
2.12276e-05
1.71463e-05
1.33095e-05
9.34138e-06
3.79108e-06
4.81507e-08
4.09783e-08
2.88761e-06
9.57581e-06
1.53427e-05
1.94174e-05
2.20182e-05
2.35191e-05
2.43184e-05
2.48277e-05
2.54167e-05
2.62953e-05
2.74448e-05
2.868e-05
2.97799e-05
3.05863e-05
3.10343e-05
3.11398e-05
3.10277e-05
3.06198e-05
3.02941e-05
2.98306e-05
2.88969e-05
2.87053e-05
2.93319e-05
3.02607e-05
3.12649e-05
3.24003e-05
3.35338e-05
3.46321e-05
3.56851e-05
3.65961e-05
3.74738e-05
3.82832e-05
3.89831e-05
3.95518e-05
4.00569e-05
4.04631e-05
4.08597e-05
4.1166e-05
4.14273e-05
4.16605e-05
4.18803e-05
4.20778e-05
4.22634e-05
4.24431e-05
4.26167e-05
4.27882e-05
4.29673e-05
4.31623e-05
4.33831e-05
4.3642e-05
4.3951e-05
4.43227e-05
4.47679e-05
4.52906e-05
4.58803e-05
4.65506e-05
4.72797e-05
4.80396e-05
4.8774e-05
4.94569e-05
4.99742e-05
5.01818e-05
5.01347e-05
4.92767e-05
4.88352e-05
4.76671e-05
4.5939e-05
4.37188e-05
4.11044e-05
3.81625e-05
3.49238e-05
3.13745e-05
2.7479e-05
2.33698e-05
1.91919e-05
1.50779e-05
1.0609e-05
4.18334e-06
5.18297e-08
6.09508e-08
4.06518e-06
1.23832e-05
1.90461e-05
2.34374e-05
2.60403e-05
2.74206e-05
2.81309e-05
2.86763e-05
2.94115e-05
3.04406e-05
3.16377e-05
3.27736e-05
3.36449e-05
3.41438e-05
3.42596e-05
3.38168e-05
3.33733e-05
3.29607e-05
3.17841e-05
3.14068e-05
3.17927e-05
3.26259e-05
3.33475e-05
3.42239e-05
3.51017e-05
3.59847e-05
3.67616e-05
3.74501e-05
3.80686e-05
3.86106e-05
3.90619e-05
3.94166e-05
3.96787e-05
3.98656e-05
4.00011e-05
4.00854e-05
4.01405e-05
4.01387e-05
4.0131e-05
4.01196e-05
4.00591e-05
3.99998e-05
3.99135e-05
3.98257e-05
3.97176e-05
3.96038e-05
3.94789e-05
3.93553e-05
3.92362e-05
3.91339e-05
3.90658e-05
3.90565e-05
3.91431e-05
3.93813e-05
3.97203e-05
4.02336e-05
4.09409e-05
4.18167e-05
4.27741e-05
4.3833e-05
4.48613e-05
4.58316e-05
4.63561e-05
4.65041e-05
4.59399e-05
4.58328e-05
4.46623e-05
4.28399e-05
4.05212e-05
3.78312e-05
3.48769e-05
3.17034e-05
2.8245e-05
2.43661e-05
2.03347e-05
1.59844e-05
1.09077e-05
4.17116e-06
5.02894e-08
8.77536e-08
5.54235e-06
1.55349e-05
2.29514e-05
2.74835e-05
2.99596e-05
3.11561e-05
3.1772e-05
3.23524e-05
3.31757e-05
3.42282e-05
3.53094e-05
3.61818e-05
3.66761e-05
3.67569e-05
3.62481e-05
3.57838e-05
3.48119e-05
3.40274e-05
3.39022e-05
3.43983e-05
3.47791e-05
3.53777e-05
3.59787e-05
3.67162e-05
3.73412e-05
3.79063e-05
3.83498e-05
3.87122e-05
3.89896e-05
3.91895e-05
3.9318e-05
3.93876e-05
3.94132e-05
3.94091e-05
3.93843e-05
3.93401e-05
3.92824e-05
3.92095e-05
3.91337e-05
3.90086e-05
3.89243e-05
3.88456e-05
3.86619e-05
3.85317e-05
3.83578e-05
3.81849e-05
3.79933e-05
3.77873e-05
3.75627e-05
3.73206e-05
3.70586e-05
3.67739e-05
3.64627e-05
3.61168e-05
3.59039e-05
3.58488e-05
3.60647e-05
3.67189e-05
3.75207e-05
3.86486e-05
3.99649e-05
4.13225e-05
4.26304e-05
4.35256e-05
4.38149e-05
4.35404e-05
4.35974e-05
4.22531e-05
4.02146e-05
3.76296e-05
3.46799e-05
3.15513e-05
2.8326e-05
2.48141e-05
2.08127e-05
1.64659e-05
1.10661e-05
4.06058e-06
4.67149e-08
1.22264e-07
7.30497e-06
1.89427e-05
2.69064e-05
3.14606e-05
3.37367e-05
3.47285e-05
3.52474e-05
3.58227e-05
3.6631e-05
3.75632e-05
3.83863e-05
3.88897e-05
3.88359e-05
3.83547e-05
3.78548e-05
3.6575e-05
3.604e-05
3.60473e-05
3.60781e-05
3.6319e-05
3.67435e-05
3.72446e-05
3.77178e-05
3.81799e-05
3.85126e-05
3.87764e-05
3.89451e-05
3.90611e-05
3.91244e-05
3.91557e-05
3.91651e-05
3.91655e-05
3.91634e-05
3.9162e-05
3.91612e-05
3.91591e-05
3.91538e-05
3.9139e-05
3.9097e-05
3.90658e-05
3.90431e-05
3.89471e-05
3.88599e-05
3.87578e-05
3.86293e-05
3.84842e-05
3.83146e-05
3.81219e-05
3.78995e-05
3.76464e-05
3.73575e-05
3.70262e-05
3.66461e-05
3.62044e-05
3.57e-05
3.51346e-05
3.45214e-05
3.38889e-05
3.39118e-05
3.44672e-05
3.55902e-05
3.69922e-05
3.86314e-05
4.0255e-05
4.14151e-05
4.18065e-05
4.17735e-05
4.19005e-05
4.03601e-05
3.80134e-05
3.50271e-05
3.16834e-05
2.82579e-05
2.48147e-05
2.1013e-05
1.65097e-05
1.08154e-05
3.77287e-06
4.27645e-08
1.64863e-07
9.28365e-06
2.24447e-05
3.08245e-05
3.5308e-05
3.73423e-05
3.81182e-05
3.85152e-05
3.90105e-05
3.96834e-05
4.03638e-05
4.08212e-05
4.06612e-05
4.01379e-05
3.95814e-05
3.8461e-05
3.78939e-05
3.76391e-05
3.73602e-05
3.75015e-05
3.77438e-05
3.80766e-05
3.83931e-05
3.86517e-05
3.88515e-05
3.89623e-05
3.90369e-05
3.90727e-05
3.91054e-05
3.91375e-05
3.91849e-05
3.92484e-05
3.93296e-05
3.94238e-05
3.9525e-05
3.96245e-05
3.97139e-05
3.97992e-05
3.98488e-05
3.9873e-05
3.99071e-05
3.98847e-05
3.98401e-05
3.97734e-05
3.96793e-05
3.95606e-05
3.94193e-05
3.92565e-05
3.90749e-05
3.88764e-05
3.8654e-05
3.83997e-05
3.81032e-05
3.77474e-05
3.73233e-05
3.68065e-05
3.618e-05
3.54317e-05
3.45727e-05
3.36801e-05
3.27959e-05
3.24732e-05
3.32769e-05
3.47008e-05
3.65144e-05
3.83804e-05
3.98438e-05
4.03567e-05
4.04686e-05
4.05212e-05
3.87557e-05
3.60049e-05
3.25298e-05
2.87133e-05
2.48946e-05
2.10058e-05
1.6489e-05
1.06063e-05
3.52266e-06
3.9633e-08
2.16105e-07
1.1323e-05
2.58973e-05
3.46199e-05
3.89781e-05
4.07468e-05
4.12877e-05
4.15127e-05
4.18344e-05
4.22549e-05
4.25761e-05
4.23296e-05
4.17212e-05
4.10944e-05
4.01462e-05
3.94401e-05
3.88599e-05
3.85077e-05
3.83771e-05
3.85051e-05
3.86536e-05
3.88288e-05
3.89535e-05
3.90334e-05
3.90788e-05
3.91021e-05
3.91415e-05
3.92008e-05
3.9299e-05
3.94306e-05
3.95964e-05
3.97852e-05
3.99883e-05
4.01928e-05
4.04023e-05
4.0602e-05
4.07285e-05
4.08373e-05
4.09835e-05
4.1038e-05
4.10874e-05
4.1087e-05
4.10622e-05
4.10029e-05
4.09129e-05
4.07926e-05
4.06438e-05
4.04672e-05
4.02639e-05
4.0034e-05
3.97775e-05
3.94949e-05
3.91858e-05
3.88493e-05
3.8483e-05
3.80759e-05
3.75639e-05
3.69046e-05
3.60693e-05
3.50562e-05
3.39044e-05
3.27299e-05
3.16758e-05
3.15753e-05
3.29511e-05
3.47104e-05
3.68496e-05
3.85713e-05
3.92106e-05
3.92966e-05
3.92762e-05
3.71786e-05
3.39481e-05
2.99382e-05
2.56043e-05
2.12845e-05
1.65247e-05
1.05986e-05
3.48035e-06
3.88559e-08
2.7887e-07
1.31986e-05
2.92022e-05
3.82311e-05
4.24336e-05
4.39175e-05
4.41908e-05
4.41767e-05
4.42272e-05
4.42925e-05
4.39401e-05
4.32217e-05
4.25399e-05
4.16538e-05
4.0865e-05
3.9946e-05
3.94475e-05
3.91536e-05
3.90631e-05
3.91001e-05
3.91259e-05
3.91601e-05
3.91654e-05
3.91749e-05
3.92048e-05
3.92757e-05
3.94038e-05
3.95849e-05
3.98172e-05
4.00851e-05
4.03776e-05
4.06783e-05
4.09898e-05
4.13002e-05
4.15658e-05
4.17446e-05
4.19429e-05
4.21468e-05
4.22815e-05
4.23771e-05
4.2442e-05
4.24653e-05
4.24558e-05
4.24089e-05
4.23275e-05
4.22117e-05
4.20631e-05
4.18823e-05
4.16702e-05
4.14273e-05
4.11536e-05
4.08483e-05
4.05095e-05
4.01345e-05
3.97197e-05
3.92624e-05
3.87609e-05
3.82114e-05
3.75625e-05
3.67076e-05
3.55979e-05
3.42944e-05
3.28719e-05
3.15335e-05
3.05304e-05
3.1467e-05
3.32316e-05
3.55578e-05
3.74332e-05
3.81182e-05
3.81769e-05
3.79393e-05
3.54025e-05
3.16364e-05
2.7078e-05
2.2171e-05
1.70349e-05
1.08929e-05
3.64707e-06
4.05832e-08
3.48906e-07
1.50606e-05
3.23496e-05
4.1624e-05
4.56442e-05
4.68213e-05
4.67832e-05
4.64554e-05
4.61432e-05
4.56166e-05
4.47554e-05
4.40352e-05
4.31297e-05
4.22274e-05
4.10607e-05
4.02846e-05
3.98365e-05
3.95629e-05
3.944e-05
3.9376e-05
3.93157e-05
3.92866e-05
3.92821e-05
3.93383e-05
3.94627e-05
3.96631e-05
3.99332e-05
4.02576e-05
4.06214e-05
4.10053e-05
4.13955e-05
4.17888e-05
4.21708e-05
4.25145e-05
4.28001e-05
4.30703e-05
4.32988e-05
4.35111e-05
4.36963e-05
4.38226e-05
4.39136e-05
4.39644e-05
4.39762e-05
4.39478e-05
4.38802e-05
4.37733e-05
4.36283e-05
4.34461e-05
4.32278e-05
4.29746e-05
4.26872e-05
4.23656e-05
4.20085e-05
4.16125e-05
4.11721e-05
4.06803e-05
4.0129e-05
3.95132e-05
3.88341e-05
3.80962e-05
3.72113e-05
3.60595e-05
3.46326e-05
3.30208e-05
3.14109e-05
3.0135e-05
3.02528e-05
3.20203e-05
3.44225e-05
3.63661e-05
3.7036e-05
3.69437e-05
3.63201e-05
3.32314e-05
2.89219e-05
2.37579e-05
1.8158e-05
1.17748e-05
4.14152e-06
4.72353e-08
4.24151e-07
1.68717e-05
3.52961e-05
4.47659e-05
4.85842e-05
4.94308e-05
4.90324e-05
4.83166e-05
4.75008e-05
4.64307e-05
4.56641e-05
4.45816e-05
4.3555e-05
4.22184e-05
4.11586e-05
4.04754e-05
4.00447e-05
3.97607e-05
3.95909e-05
3.94721e-05
3.94017e-05
3.94056e-05
3.94878e-05
3.96683e-05
3.99375e-05
4.02862e-05
4.0694e-05
4.11403e-05
4.1607e-05
4.20775e-05
4.25403e-05
4.2986e-05
4.34031e-05
4.3784e-05
4.41398e-05
4.44694e-05
4.47476e-05
4.4977e-05
4.51726e-05
4.53821e-05
4.55023e-05
4.55892e-05
4.56306e-05
4.56263e-05
4.5576e-05
4.54791e-05
4.53361e-05
4.51479e-05
4.49161e-05
4.46429e-05
4.43309e-05
4.39825e-05
4.35991e-05
4.31805e-05
4.27231e-05
4.22194e-05
4.16572e-05
4.1021e-05
4.02953e-05
3.94737e-05
3.85687e-05
3.75656e-05
3.63547e-05
3.48006e-05
3.3061e-05
3.13001e-05
2.9786e-05
2.93042e-05
3.09919e-05
3.34231e-05
3.53123e-05
3.58458e-05
3.55756e-05
3.42179e-05
3.05785e-05
2.56213e-05
1.97949e-05
1.30881e-05
5.04072e-06
6.2583e-08
5.02167e-07
1.85912e-05
3.80022e-05
4.76317e-05
5.12368e-05
5.17358e-05
5.09392e-05
4.97751e-05
4.84169e-05
4.75465e-05
4.61135e-05
4.49545e-05
4.34421e-05
4.21325e-05
4.11695e-05
4.05375e-05
4.01073e-05
3.98141e-05
3.96314e-05
3.95305e-05
3.95295e-05
3.96412e-05
3.98634e-05
4.0193e-05
4.06068e-05
4.10848e-05
4.16026e-05
4.21408e-05
4.26832e-05
4.32176e-05
4.37354e-05
4.42301e-05
4.46969e-05
4.51347e-05
4.55441e-05
4.59196e-05
4.62755e-05
4.65953e-05
4.68006e-05
4.70279e-05
4.7247e-05
4.73651e-05
4.74479e-05
4.74732e-05
4.74446e-05
4.73593e-05
4.72172e-05
4.70186e-05
4.67651e-05
4.64596e-05
4.61059e-05
4.57093e-05
4.52748e-05
4.48074e-05
4.43094e-05
4.37795e-05
4.32096e-05
4.25833e-05
4.18757e-05
4.10561e-05
4.00985e-05
3.90014e-05
3.77678e-05
3.63449e-05
3.476e-05
3.29391e-05
3.10814e-05
2.93246e-05
2.85033e-05
3.00808e-05
3.25539e-05
3.42041e-05
3.44447e-05
3.41236e-05
3.16388e-05
2.72465e-05
2.15465e-05
1.46557e-05
6.04442e-06
8.61278e-08
5.80495e-07
2.01835e-05
4.04416e-05
5.02114e-05
5.35957e-05
5.37504e-05
5.2493e-05
5.08686e-05
4.97113e-05
4.79237e-05
4.65082e-05
4.4808e-05
4.32446e-05
4.19946e-05
4.1106e-05
4.05026e-05
4.00817e-05
3.981e-05
3.96708e-05
3.96562e-05
3.97792e-05
4.00342e-05
4.04058e-05
4.08735e-05
4.14085e-05
4.19882e-05
4.25905e-05
4.32e-05
4.3805e-05
4.43976e-05
4.49725e-05
4.55264e-05
4.6057e-05
4.65627e-05
4.70415e-05
4.74895e-05
4.79045e-05
4.83053e-05
4.86052e-05
4.88386e-05
4.91368e-05
4.93172e-05
4.9442e-05
4.9505e-05
4.9503e-05
4.94338e-05
4.92956e-05
4.90878e-05
4.8811e-05
4.84676e-05
4.80619e-05
4.76002e-05
4.70904e-05
4.65419e-05
4.5964e-05
4.53642e-05
4.47452e-05
4.4101e-05
4.34136e-05
4.26496e-05
4.17614e-05
4.06954e-05
3.94545e-05
3.80622e-05
3.61936e-05
3.44574e-05
3.26835e-05
3.07133e-05
2.87092e-05
2.77254e-05
2.92759e-05
3.17402e-05
3.30226e-05
3.28647e-05
3.19753e-05
2.8338e-05
2.30487e-05
1.62248e-05
7.06015e-06
1.15897e-07
6.57642e-07
2.16002e-05
4.26071e-05
5.25369e-05
5.56369e-05
5.52837e-05
5.37032e-05
5.20959e-05
5.00689e-05
4.83003e-05
4.63931e-05
4.45609e-05
4.30036e-05
4.18211e-05
4.0989e-05
4.04157e-05
4.00336e-05
3.98274e-05
3.97846e-05
3.98996e-05
4.01681e-05
4.05679e-05
4.1073e-05
4.16551e-05
4.22866e-05
4.29471e-05
4.36196e-05
4.42934e-05
4.49611e-05
4.56181e-05
4.62614e-05
4.68884e-05
4.74966e-05
4.80828e-05
4.86428e-05
4.91719e-05
4.9665e-05
5.01495e-05
5.05485e-05
5.08164e-05
5.11651e-05
5.1429e-05
5.15957e-05
5.17023e-05
5.17321e-05
5.16854e-05
5.1558e-05
5.13483e-05
5.10552e-05
5.06796e-05
5.02245e-05
4.96955e-05
4.9101e-05
4.84524e-05
4.77639e-05
4.70503e-05
4.63256e-05
4.55984e-05
4.48673e-05
4.41147e-05
4.33011e-05
4.23621e-05
4.12132e-05
3.98662e-05
3.82471e-05
3.6025e-05
3.40383e-05
3.22831e-05
3.01865e-05
2.79834e-05
2.70136e-05
2.85351e-05
3.07714e-05
3.17809e-05
3.09773e-05
2.87969e-05
2.41329e-05
1.75948e-05
7.96099e-06
1.50021e-07
7.31981e-07
2.28628e-05
4.45092e-05
5.44618e-05
5.71828e-05
5.66259e-05
5.51188e-05
5.28928e-05
5.04362e-05
4.82768e-05
4.61573e-05
4.42634e-05
4.27442e-05
4.16278e-05
4.08484e-05
4.03255e-05
4.00195e-05
3.99185e-05
4.00052e-05
4.02644e-05
4.06744e-05
4.12027e-05
4.18188e-05
4.2494e-05
4.32053e-05
4.39365e-05
4.46762e-05
4.54177e-05
4.61567e-05
4.68901e-05
4.7615e-05
4.83281e-05
4.9025e-05
4.97007e-05
5.03494e-05
5.0965e-05
5.15414e-05
5.211e-05
5.25928e-05
5.29076e-05
5.33066e-05
5.3648e-05
5.38588e-05
5.401e-05
5.40756e-05
5.40573e-05
5.39494e-05
5.37488e-05
5.34527e-05
5.30597e-05
5.25703e-05
5.19877e-05
5.13185e-05
5.05732e-05
4.97668e-05
4.89183e-05
4.80493e-05
4.71813e-05
4.63306e-05
4.55016e-05
4.46791e-05
4.38187e-05
4.28396e-05
4.16228e-05
4.01755e-05
3.815e-05
3.57142e-05
3.35024e-05
3.17201e-05
2.9422e-05
2.69819e-05
2.64424e-05
2.79838e-05
2.95564e-05
2.98354e-05
2.87734e-05
2.47811e-05
1.86454e-05
8.67966e-06
1.86918e-07
8.00703e-07
2.39422e-05
4.60406e-05
5.59434e-05
5.84005e-05
5.80474e-05
5.59383e-05
5.31842e-05
5.06486e-05
4.81152e-05
4.58544e-05
4.39478e-05
4.24835e-05
4.1433e-05
4.07164e-05
4.02727e-05
4.0075e-05
4.01035e-05
4.03304e-05
4.07283e-05
4.12636e-05
4.19004e-05
4.26087e-05
4.33635e-05
4.41472e-05
4.49486e-05
4.57605e-05
4.6579e-05
4.74007e-05
4.82222e-05
4.90391e-05
4.98462e-05
5.06369e-05
5.14043e-05
5.21411e-05
5.284e-05
5.34945e-05
5.41389e-05
5.46907e-05
5.50545e-05
5.54989e-05
5.59056e-05
5.61595e-05
5.63522e-05
5.6455e-05
5.6469e-05
5.63882e-05
5.62081e-05
5.59243e-05
5.55329e-05
5.50316e-05
5.44202e-05
5.37013e-05
5.28821e-05
5.19751e-05
5.09988e-05
4.99776e-05
4.89405e-05
4.79177e-05
4.6934e-05
4.60011e-05
4.51068e-05
4.42036e-05
4.31976e-05
4.19404e-05
4.0266e-05
3.78337e-05
3.5233e-05
3.28534e-05
3.09605e-05
2.83519e-05
2.57068e-05
2.57935e-05
2.75319e-05
2.8582e-05
2.76101e-05
2.49491e-05
1.93301e-05
9.21759e-06
2.25291e-07
8.61263e-07
2.48095e-05
4.71972e-05
5.70543e-05
5.96203e-05
5.9068e-05
5.66322e-05
5.35589e-05
5.05946e-05
4.78648e-05
4.5521e-05
4.36349e-05
4.2235e-05
4.12558e-05
4.06204e-05
4.02823e-05
4.02125e-05
4.03778e-05
4.07398e-05
4.12615e-05
4.19041e-05
4.26332e-05
4.3422e-05
4.42508e-05
4.51074e-05
4.59844e-05
4.68775e-05
4.7783e-05
4.86969e-05
4.96139e-05
5.05273e-05
5.14292e-05
5.23111e-05
5.31645e-05
5.39809e-05
5.47528e-05
5.54733e-05
5.61793e-05
5.67889e-05
5.71927e-05
5.76721e-05
5.8131e-05
5.84227e-05
5.86512e-05
5.87889e-05
5.88363e-05
5.87873e-05
5.86367e-05
5.83788e-05
5.80077e-05
5.75182e-05
5.69063e-05
5.61702e-05
5.53119e-05
5.43388e-05
5.32649e-05
5.21126e-05
5.09125e-05
4.97018e-05
4.852e-05
4.74014e-05
4.63637e-05
4.53951e-05
4.44411e-05
4.33925e-05
4.20789e-05
4.00987e-05
3.73242e-05
3.45826e-05
3.20887e-05
2.99631e-05
2.70041e-05
2.46703e-05
2.5114e-05
2.63432e-05
2.66293e-05
2.48355e-05
1.96696e-05
9.53271e-06
2.65518e-07
9.12217e-07
2.54685e-05
4.80253e-05
5.79262e-05
6.05324e-05
5.97888e-05
5.69186e-05
5.3662e-05
5.04398e-05
4.75639e-05
4.51817e-05
4.3338e-05
4.20099e-05
4.11128e-05
4.05779e-05
4.03625e-05
4.04268e-05
4.07242e-05
4.12085e-05
4.18377e-05
4.25732e-05
4.3384e-05
4.42483e-05
4.51518e-05
4.60863e-05
4.70469e-05
4.80294e-05
4.90293e-05
5.00401e-05
5.10538e-05
5.2061e-05
5.30517e-05
5.40155e-05
5.4943e-05
5.58254e-05
5.66554e-05
5.74265e-05
5.8177e-05
5.88352e-05
5.92646e-05
5.9764e-05
6.0263e-05
6.05842e-05
6.08407e-05
6.10084e-05
6.10868e-05
6.10708e-05
6.09549e-05
6.07325e-05
6.03964e-05
5.99391e-05
5.93531e-05
5.86323e-05
5.7773e-05
5.6776e-05
5.56483e-05
5.4406e-05
5.30756e-05
5.1695e-05
5.03112e-05
4.8975e-05
4.77306e-05
4.6601e-05
4.55705e-05
4.45659e-05
4.34379e-05
4.19327e-05
3.9487e-05
3.65878e-05
3.38082e-05
3.11631e-05
2.86262e-05
2.53008e-05
2.38874e-05
2.46912e-05
2.53775e-05
2.40499e-05
1.96684e-05
9.66902e-06
3.06784e-07
9.52831e-07
2.59262e-05
4.85726e-05
5.85249e-05
6.12065e-05
6.03159e-05
5.72847e-05
5.36615e-05
5.02192e-05
4.72399e-05
4.48523e-05
4.30659e-05
4.18175e-05
4.10149e-05
4.05948e-05
4.0509e-05
4.07035e-05
4.11219e-05
4.17142e-05
4.24376e-05
4.32561e-05
4.41438e-05
4.50839e-05
4.60661e-05
4.7085e-05
4.81357e-05
4.9213e-05
5.03096e-05
5.14162e-05
5.25217e-05
5.36143e-05
5.46822e-05
5.57144e-05
5.6701e-05
5.76336e-05
5.85055e-05
5.93112e-05
6.00877e-05
6.07829e-05
6.12283e-05
6.17291e-05
6.22572e-05
6.25984e-05
6.2874e-05
6.30643e-05
6.3169e-05
6.31835e-05
6.31029e-05
6.29205e-05
6.26286e-05
6.2218e-05
6.16787e-05
6.10008e-05
6.01754e-05
5.91961e-05
5.80622e-05
5.67805e-05
5.53692e-05
5.38601e-05
5.22998e-05
5.07471e-05
4.92657e-05
4.79111e-05
4.67128e-05
4.56544e-05
4.46548e-05
4.35507e-05
4.15336e-05
3.86202e-05
3.57829e-05
3.28153e-05
2.99918e-05
2.68477e-05
2.34686e-05
2.30057e-05
2.33148e-05
2.30931e-05
1.95564e-05
9.82549e-06
3.53177e-07
9.82887e-07
2.61915e-05
4.88843e-05
5.88651e-05
6.17087e-05
6.05581e-05
5.74005e-05
5.35691e-05
4.99581e-05
4.69118e-05
4.4543e-05
4.28244e-05
4.16637e-05
4.09663e-05
4.06685e-05
4.07103e-05
4.10255e-05
4.15524e-05
4.22406e-05
4.30486e-05
4.39449e-05
4.49085e-05
4.5927e-05
4.6993e-05
4.81012e-05
4.92457e-05
5.04186e-05
5.16092e-05
5.28051e-05
5.39926e-05
5.51584e-05
5.62895e-05
5.73749e-05
5.84051e-05
5.93726e-05
6.02719e-05
6.1099e-05
6.18782e-05
6.25915e-05
6.30637e-05
6.35411e-05
6.40879e-05
6.44399e-05
6.47251e-05
6.49298e-05
6.50534e-05
6.50931e-05
6.50446e-05
6.49019e-05
6.46573e-05
6.43011e-05
6.38218e-05
6.32066e-05
6.24422e-05
6.15165e-05
6.04201e-05
5.91504e-05
5.77142e-05
5.61328e-05
5.4445e-05
5.2708e-05
5.09943e-05
4.93806e-05
4.79294e-05
4.66652e-05
4.55497e-05
4.44612e-05
4.31765e-05
4.06797e-05
3.75886e-05
3.46695e-05
3.14567e-05
2.84731e-05
2.45347e-05
2.23049e-05
2.22559e-05
2.23916e-05
1.94399e-05
1.02173e-05
4.13823e-07
1.00287e-06
2.62916e-05
4.89446e-05
5.89197e-05
6.18771e-05
6.08241e-05
5.7425e-05
5.34144e-05
4.96765e-05
4.65927e-05
4.42597e-05
4.26169e-05
4.1551e-05
4.09656e-05
4.07906e-05
4.09529e-05
4.13776e-05
4.20018e-05
4.27762e-05
4.36628e-05
4.46348e-05
4.56757e-05
4.6776e-05
4.79292e-05
4.91291e-05
5.03671e-05
5.16317e-05
5.29092e-05
5.41843e-05
5.54416e-05
5.66666e-05
5.78464e-05
5.89702e-05
6.00298e-05
6.10186e-05
6.19324e-05
6.27686e-05
6.35339e-05
6.42556e-05
6.47564e-05
6.51929e-05
6.57454e-05
6.61015e-05
6.63873e-05
6.65974e-05
6.67318e-05
6.67891e-05
6.67663e-05
6.66586e-05
6.64591e-05
6.61583e-05
6.57444e-05
6.5203e-05
6.45178e-05
6.36717e-05
6.26485e-05
6.14358e-05
6.00286e-05
5.8435e-05
5.66807e-05
5.48142e-05
5.29074e-05
5.10503e-05
4.9336e-05
4.78366e-05
4.65732e-05
4.54893e-05
4.44304e-05
4.25155e-05
3.94695e-05
3.64806e-05
3.31678e-05
2.96571e-05
2.6106e-05
2.21635e-05
2.10009e-05
2.07545e-05
1.90861e-05
1.08746e-05
4.95277e-07
1.01282e-06
2.62236e-05
4.87479e-05
5.88513e-05
6.20087e-05
6.08559e-05
5.7359e-05
5.32176e-05
4.93892e-05
4.6291e-05
4.40058e-05
4.24447e-05
4.14787e-05
4.10076e-05
4.0951e-05
4.12242e-05
4.17479e-05
4.246e-05
4.33139e-05
4.42756e-05
4.53229e-05
4.64427e-05
4.7627e-05
4.88687e-05
5.01591e-05
5.14863e-05
5.28354e-05
5.41898e-05
5.55322e-05
5.68461e-05
5.81168e-05
5.93319e-05
6.04815e-05
6.15583e-05
6.2557e-05
6.34742e-05
6.43083e-05
6.50585e-05
6.57725e-05
6.63072e-05
6.67038e-05
6.72291e-05
6.75906e-05
6.7869e-05
6.80758e-05
6.82122e-05
6.82782e-05
6.82725e-05
6.81919e-05
6.80309e-05
6.77811e-05
6.74311e-05
6.69663e-05
6.63687e-05
6.56181e-05
6.46928e-05
6.35719e-05
6.22396e-05
6.06895e-05
5.89314e-05
5.69984e-05
5.49518e-05
5.28813e-05
5.08957e-05
4.91e-05
4.75633e-05
4.62829e-05
4.51586e-05
4.39767e-05
4.13814e-05
3.81105e-05
3.50044e-05
3.1478e-05
2.75423e-05
2.31991e-05
2.07313e-05
1.94469e-05
1.86383e-05
1.15384e-05
5.96213e-07
1.01223e-06
2.60558e-05
4.84965e-05
5.86336e-05
6.20086e-05
6.07862e-05
5.72246e-05
5.29945e-05
4.91071e-05
4.60122e-05
4.37831e-05
4.23073e-05
4.14437e-05
4.10852e-05
4.11398e-05
4.15141e-05
4.21274e-05
4.29199e-05
4.38485e-05
4.48834e-05
4.60061e-05
4.72057e-05
4.84742e-05
4.98027e-05
5.11792e-05
5.25885e-05
5.40126e-05
5.54327e-05
5.68302e-05
5.81884e-05
5.9493e-05
6.07324e-05
6.18978e-05
6.2983e-05
6.39837e-05
6.48975e-05
6.57232e-05
6.64602e-05
6.7153e-05
6.77226e-05
6.80815e-05
6.85615e-05
6.89241e-05
6.91889e-05
6.93846e-05
6.95142e-05
6.95797e-05
6.95813e-05
6.95179e-05
6.93856e-05
6.91779e-05
6.88848e-05
6.84923e-05
6.79825e-05
6.73333e-05
6.65193e-05
6.55137e-05
6.42907e-05
6.28308e-05
6.11271e-05
5.91939e-05
5.70755e-05
5.48521e-05
5.26377e-05
5.05634e-05
4.87461e-05
4.72448e-05
4.60235e-05
4.49358e-05
4.30039e-05
3.97572e-05
3.68078e-05
3.29495e-05
2.89555e-05
2.46587e-05
2.06226e-05
1.89625e-05
1.82417e-05
1.21703e-05
7.12465e-07
1.0068e-06
2.57912e-05
4.80781e-05
5.82241e-05
6.17951e-05
6.06147e-05
5.70368e-05
5.27576e-05
4.88378e-05
4.57599e-05
4.35918e-05
4.22031e-05
4.14416e-05
4.11912e-05
4.13485e-05
4.18146e-05
4.25096e-05
4.33768e-05
4.43765e-05
4.54829e-05
4.66805e-05
4.79592e-05
4.93097e-05
5.07206e-05
5.21766e-05
5.3659e-05
5.51478e-05
5.66224e-05
5.80639e-05
5.9456e-05
6.07851e-05
6.20407e-05
6.32153e-05
6.43037e-05
6.53027e-05
6.62108e-05
6.70279e-05
6.77552e-05
6.84136e-05
6.89936e-05
6.93513e-05
6.97676e-05
7.0125e-05
7.03715e-05
7.05494e-05
7.06644e-05
7.07202e-05
7.0719e-05
7.06615e-05
7.05464e-05
7.03692e-05
7.01219e-05
6.97923e-05
6.93634e-05
6.88129e-05
6.81139e-05
6.72352e-05
6.61438e-05
6.48086e-05
6.32069e-05
6.13331e-05
5.92095e-05
5.68972e-05
5.45012e-05
5.2163e-05
5.00338e-05
4.82274e-05
4.67664e-05
4.55429e-05
4.43111e-05
4.15207e-05
3.82185e-05
3.49228e-05
3.05231e-05
2.6002e-05
2.09254e-05
1.84858e-05
1.71778e-05
1.28022e-05
8.29782e-07
9.94746e-07
2.5472e-05
4.74033e-05
5.76947e-05
6.14528e-05
6.03575e-05
5.68078e-05
5.2516e-05
4.85869e-05
4.55359e-05
4.34314e-05
4.21296e-05
4.14677e-05
4.13188e-05
4.15702e-05
4.21198e-05
4.28898e-05
4.38266e-05
4.48943e-05
4.60705e-05
4.73412e-05
4.86964e-05
5.01247e-05
5.16116e-05
5.31386e-05
5.46847e-05
5.62278e-05
5.77468e-05
5.92231e-05
6.0641e-05
6.19879e-05
6.32548e-05
6.44351e-05
6.55245e-05
6.65208e-05
6.74231e-05
6.82316e-05
6.8948e-05
6.95748e-05
7.0156e-05
7.05234e-05
7.08718e-05
7.12182e-05
7.14431e-05
7.15978e-05
7.16913e-05
7.1729e-05
7.17151e-05
7.16525e-05
7.15422e-05
7.13822e-05
7.11673e-05
7.08875e-05
7.05277e-05
7.0067e-05
6.94782e-05
6.87281e-05
6.77787e-05
6.65902e-05
6.51263e-05
6.33621e-05
6.12966e-05
5.89663e-05
5.64574e-05
5.3909e-05
5.14955e-05
4.93841e-05
4.76727e-05
4.63329e-05
4.51868e-05
4.29368e-05
3.95514e-05
3.67388e-05
3.19508e-05
2.73235e-05
2.226e-05
1.84715e-05
1.61162e-05
1.32612e-05
9.20905e-07
9.76033e-07
2.50614e-05
4.66596e-05
5.70772e-05
6.09933e-05
6.00274e-05
5.65477e-05
5.22768e-05
4.83583e-05
4.53414e-05
4.33009e-05
4.2084e-05
4.15171e-05
4.14624e-05
4.17995e-05
4.24251e-05
4.3264e-05
4.4266e-05
4.53985e-05
4.66417e-05
4.79825e-05
4.94098e-05
5.09098e-05
5.2465e-05
5.40542e-05
5.56543e-05
5.72425e-05
5.87975e-05
6.03014e-05
6.17393e-05
6.31002e-05
6.43759e-05
6.55609e-05
6.66517e-05
6.76465e-05
6.85444e-05
6.93457e-05
7.00509e-05
7.06612e-05
7.1229e-05
7.16116e-05
7.18963e-05
7.22271e-05
7.24281e-05
7.25558e-05
7.26221e-05
7.26344e-05
7.25988e-05
7.25204e-05
7.24028e-05
7.22468e-05
7.20497e-05
7.18047e-05
7.14993e-05
7.11148e-05
7.06254e-05
6.99975e-05
6.91906e-05
6.8159e-05
6.68554e-05
6.52383e-05
6.32836e-05
6.09999e-05
5.84461e-05
5.57439e-05
5.3073e-05
5.06368e-05
4.85966e-05
4.6994e-05
4.56992e-05
4.41281e-05
4.08232e-05
3.81504e-05
3.39218e-05
2.87301e-05
2.3549e-05
1.8857e-05
1.55612e-05
1.34413e-05
9.61512e-07
9.51652e-07
2.45455e-05
4.58045e-05
5.63659e-05
6.04393e-05
5.96365e-05
5.62646e-05
5.20451e-05
4.81544e-05
4.51766e-05
4.31989e-05
4.20632e-05
4.15854e-05
4.16171e-05
4.20319e-05
4.27266e-05
4.36289e-05
4.46916e-05
4.58853e-05
4.71917e-05
4.85981e-05
5.00916e-05
5.16561e-05
5.32712e-05
5.49137e-05
5.65592e-05
5.81844e-05
5.97688e-05
6.1295e-05
6.27497e-05
6.41227e-05
6.5407e-05
6.65978e-05
6.76922e-05
6.86883e-05
6.95855e-05
7.03835e-05
7.10828e-05
7.16841e-05
7.22267e-05
7.26243e-05
7.28611e-05
7.31713e-05
7.3347e-05
7.34449e-05
7.34797e-05
7.34607e-05
7.33957e-05
7.32922e-05
7.31561e-05
7.29911e-05
7.27977e-05
7.2572e-05
7.2305e-05
7.19808e-05
7.15759e-05
7.10582e-05
7.03867e-05
6.95122e-05
6.83798e-05
6.69346e-05
6.51318e-05
6.29522e-05
6.04229e-05
5.76383e-05
5.47685e-05
5.20401e-05
4.96759e-05
4.78044e-05
4.6377e-05
4.51375e-05
4.22898e-05
3.93206e-05
3.58328e-05
2.99183e-05
2.45382e-05
1.88696e-05
1.56926e-05
1.34292e-05
9.68041e-07
9.22976e-07
2.39948e-05
4.48633e-05
5.55673e-05
5.98068e-05
5.91955e-05
5.5965e-05
5.18246e-05
4.7977e-05
4.50417e-05
4.31239e-05
4.20642e-05
4.16687e-05
4.17789e-05
4.22637e-05
4.30211e-05
4.39812e-05
4.51e-05
4.63504e-05
4.77153e-05
4.91815e-05
5.07344e-05
5.23554e-05
5.4022e-05
5.57094e-05
5.73926e-05
5.90484e-05
6.06571e-05
6.22024e-05
6.3672e-05
6.50571e-05
6.63513e-05
6.75505e-05
6.86518e-05
6.96535e-05
7.05545e-05
7.13544e-05
7.20533e-05
7.26525e-05
7.31663e-05
7.35602e-05
7.37818e-05
7.40646e-05
7.42141e-05
7.42808e-05
7.42814e-05
7.42265e-05
7.41261e-05
7.39896e-05
7.38254e-05
7.364e-05
7.3437e-05
7.3216e-05
7.29713e-05
7.26906e-05
7.23536e-05
7.19306e-05
7.13819e-05
7.06572e-05
6.9697e-05
6.84365e-05
6.68136e-05
6.47834e-05
6.23397e-05
5.95411e-05
5.65329e-05
5.35446e-05