/*--------------------------------*- C++ -*----------------------------------*\
  =========                 |
  \\      /  F ield         | OpenFOAM: The Open Source CFD Toolbox
   \\    /   O peration     | Website:  https://openfoam.org
    \\  /    A nd           | Version:  13
     \\/     M anipulation  |
\*---------------------------------------------------------------------------*/
FoamFile
{
    format      ascii;
    class       volScalarField;
    location    "6.4";
    object      p;
}
// * * * * * * * * * * * * * * * * * * * * * * * * * * * * * * * * * * * * * //

dimensions      [0 2 -2 0 0 0 0];

internalField   nonuniform List<scalar> 
6400
(
-9.67727e-09
1.92373e-05
2.79911e-05
1.34679e-05
-2.95487e-05
-9.62296e-05
-0.000177154
-0.000263452
-0.000348936
-0.000430575
-0.000509015
-0.000588267
-0.000672926
-0.000768119
-0.000878866
-0.00100917
-0.00116198
-0.00133906
-0.00154164
-0.00177046
-0.00202601
-0.00230943
-0.00262338
-0.0029722
-0.00336214
-0.00379785
-0.00427602
-0.00478787
-0.00531344
-0.00581725
-0.00629224
-0.00674568
-0.00717566
-0.00757949
-0.00795225
-0.00828592
-0.00856977
-0.00879122
-0.00893686
-0.00899328
-0.00894766
-0.0087888
-0.00850801
-0.00809996
-0.00756118
-0.00688596
-0.00606836
-0.00512009
-0.00405713
-0.00288693
-0.00162875
-0.000303088
0.00106209
0.00243537
0.00377784
0.00504466
0.00619115
0.00717572
0.00795791
0.00850489
0.00879635
0.00882768
0.00861001
0.00816601
0.00754757
0.00680974
0.00601699
0.00523266
0.00451465
0.00389424
0.00340691
0.00306706
0.0028451
0.00271404
0.00265653
0.00264833
0.00266984
0.00270568
0.00274499
0.0027721
-1.45645e-05
5.09777e-06
9.4428e-06
-9.90227e-06
-5.57123e-05
-0.000122392
-0.000199628
-0.00027904
-0.000355763
-0.000428462
-0.000498996
-0.000571317
-0.000650242
-0.000740353
-0.000845444
-0.000968952
-0.00111418
-0.00128366
-0.00147816
-0.00169799
-0.00194232
-0.00221133
-0.00250778
-0.00283448
-0.00319438
-0.003594
-0.00404115
-0.00453555
-0.0050648
-0.0056061
-0.00613077
-0.0066277
-0.00709852
-0.0075403
-0.00794763
-0.00831236
-0.00862389
-0.00887018
-0.00903852
-0.00911664
-0.00909282
-0.00895693
-0.00870097
-0.00831851
-0.00780407
-0.00715367
-0.00637576
-0.00547532
-0.00445307
-0.00332443
-0.0021073
-0.00082369
0.000499466
0.00182996
0.00313058
0.00436165
0.00548111
0.00644665
0.00722122
0.00777356
0.00808287
0.00814381
0.00796672
0.00757733
0.00701856
0.00634377
0.00561588
0.00489401
0.00423219
0.00367294
0.00323749
0.00293358
0.00274962
0.00266142
0.00264408
0.00267234
0.00271476
0.00275321
0.00278559
0.00281139
-3.02258e-05
-8.29633e-06
-9.33964e-06
-3.74988e-05
-9.11199e-05
-0.000160443
-0.000234155
-0.000304144
-0.000367619
-0.000426215
-0.000483481
-0.000544273
-0.00061358
-0.000695158
-0.000791427
-0.000904123
-0.00103477
-0.00118558
-0.00135882
-0.00155711
-0.00178393
-0.00204255
-0.00233706
-0.00267221
-0.00305239
-0.00348003
-0.00395573
-0.00447635
-0.00503205
-0.00560604
-0.00617849
-0.00673307
-0.00725997
-0.00775251
-0.00820398
-0.00860576
-0.00894801
-0.00922017
-0.00941099
-0.00950935
-0.00950522
-0.00938972
-0.00915547
-0.00879694
-0.00831185
-0.00770035
-0.00695318
-0.00608519
-0.00510272
-0.00401651
-0.00284233
-0.00160077
-0.000317297
0.00097785
0.00225006
0.00346169
0.00457137
0.00553765
0.00632422
0.00690079
0.00724622
0.00735281
0.00723017
0.00690295
0.00641125
0.00580679
0.00514377
0.00448726
0.00388483
0.00337516
0.00298301
0.00272449
0.00258824
0.00254723
0.00256734
0.00262625
0.00269468
0.00275249
0.00279975
0.00283672
-3.87881e-05
-1.75074e-05
-2.57956e-05
-6.48785e-05
-0.000128509
-0.000201182
-0.000271528
-0.000333043
-0.00038427
-0.000427256
-0.00046808
-0.000513326
-0.000568442
-0.000637121
-0.000721132
-0.000821199
-0.000938566
-0.00107595
-0.00123712
-0.00142744
-0.00165376
-0.0019237
-0.00224481
-0.00261979
-0.0030511
-0.0035401
-0.0040834
-0.00467128
-0.0052886
-0.0059189
-0.0065458
-0.0071542
-0.00773146
-0.00826837
-0.00875674
-0.00918765
-0.00955251
-0.00984199
-0.0100463
-0.0101558
-0.010162
-0.0100572
-0.00983488
-0.0094904
-0.00902208
-0.00842925
-0.00771033
-0.00687042
-0.00591629
-0.00485821
-0.00371104
-0.0024941
-0.00123095
5.07704e-05
0.00131911
0.00253706
0.00366356
0.00465868
0.00548438
0.00610904
0.00651045
0.00667695
0.00661509
0.00634891
0.00591624
0.00536515
0.00475176
0.00413613
0.00356937
0.00309145
0.00272713
0.00248863
0.00236906
0.00235322
0.00241328
0.00250758
0.00260769
0.00269568
0.00276682
0.00281611
-3.36871e-05
-1.92555e-05
-3.74039e-05
-8.78555e-05
-0.000161059
-0.000236789
-0.000303739
-0.000356817
-0.000395991
-0.000425341
-0.000451935
-0.000483267
-0.000525205
-0.000581369
-0.000653831
-0.00074432
-0.000855763
-0.000993701
-0.00116499
-0.00137754
-0.00164121
-0.00196146
-0.00234315
-0.00279084
-0.00330425
-0.00387798
-0.00450245
-0.00516366
-0.00584441
-0.00652863
-0.00720086
-0.00784868
-0.00846146
-0.00902881
-0.00954175
-0.0099918
-0.0103709
-0.0106707
-0.0108826
-0.0109984
-0.0110114
-0.010915
-0.0107036
-0.010373
-0.0099216
-0.00934905
-0.00865556
-0.00784346
-0.00691713
-0.00588582
-0.00476346
-0.00356844
-0.0023216
-0.00104668
0.000227816
0.00146465
0.00262196
0.00366301
0.0045495
0.00524634
0.00572937
0.0059829
0.00600704
0.0058203
0.00546115
0.00497538
0.00441689
0.00384302
0.00330744
0.00285233
0.00250534
0.00227815
0.00216853
0.00216061
0.00223042
0.00234456
0.00246982
0.00258504
0.0026785
0.00273689
-6.41747e-06
-5.2498e-06
-3.55202e-05
-9.95228e-05
-0.000181025
-0.000258049
-0.000321197
-0.000366847
-0.000396087
-0.000414844
-0.00043126
-0.000453287
-0.000486929
-0.000536416
-0.000605386
-0.000698055
-0.000820724
-0.000981937
-0.00119241
-0.00145948
-0.00179062
-0.0021931
-0.00266887
-0.00321538
-0.0038242
-0.00448384
-0.00518214
-0.00590564
-0.00663924
-0.00736791
-0.00807763
-0.00875677
-0.00939525
-0.00998364
-0.0105135
-0.0109765
-0.0113649
-0.0116714
-0.0118891
-0.0120102
-0.0120308
-0.0119456
-0.0117497
-0.0114391
-0.0110136
-0.0104713
-0.00981217
-0.00903795
-0.00815207
-0.00716087
-0.00607552
-0.00491273
-0.00368881
-0.00242318
-0.00114248
0.000113431
0.00130604
0.00240457
0.00336934
0.00415954
0.00475084
0.00512287
0.00527017
0.00520171
0.00494947
0.00455937
0.00408291
0.00357363
0.00308509
0.00266226
0.00233568
0.00211987
0.00201449
0.00200663
0.00207427
0.00218916
0.00232097
0.00244605
0.00254885
0.00261022
5.31164e-05
3.73147e-05
-8.63953e-06
-8.93037e-05
-0.00017617
-0.000253623
-0.00031364
-0.000353913
-0.000377453
-0.000391391
-0.000404481
-0.000424896
-0.000459273
-0.000513511
-0.000594095
-0.000708306
-0.000866271
-0.0010798
-0.00135711
-0.00170692
-0.00213576
-0.00264554
-0.00322805
-0.00387281
-0.00456991
-0.00530761
-0.00607242
-0.00685078
-0.00762923
-0.00839458
-0.00913453
-0.00983836
-0.0104965
-0.0111003
-0.0116418
-0.0121122
-0.0125047
-0.0128141
-0.013035
-0.0131647
-0.0131977
-0.0131291
-0.0129547
-0.0126719
-0.0122793
-0.011774
-0.0111563
-0.0104282
-0.0095945
-0.00866146
-0.00763596
-0.00652493
-0.00534213
-0.00410745
-0.00284737
-0.00158816
-0.000359071
0.000806873
0.00186019
0.00276229
0.00348882
0.00401217
0.00432121
0.00441648
0.0043185
0.00406617
0.00370929
0.00329865
0.00288502
0.00251467
0.00222115
0.00202227
0.00192095
0.00190868
0.00196603
0.00206889
0.00219059
0.00230772
0.00240458
0.00246051
0.000154938
0.000119019
5.20425e-05
-4.23951e-05
-0.000134682
-0.000213392
-0.000272326
-0.000311357
-0.000335273
-0.000352238
-0.000371448
-0.000401487
-0.000450305
-0.000526523
-0.00063951
-0.000800399
-0.0010214
-0.00131398
-0.00168628
-0.00214503
-0.00268745
-0.00330559
-0.00398928
-0.00472695
-0.00550592
-0.00631332
-0.00713616
-0.00796183
-0.00877808
-0.00957323
-0.0103365
-0.0110582
-0.0117291
-0.0123402
-0.0128841
-0.0133549
-0.0137491
-0.0140627
-0.0142916
-0.0144333
-0.0144805
-0.0144292
-0.0142758
-0.0140179
-0.0136574
-0.0131911
-0.0126194
-0.0119447
-0.0111717
-0.0103056
-0.00935
-0.00830766
-0.00718998
-0.00601421
-0.00479972
-0.00356406
-0.00232688
-0.00112975
-3.86059e-06
0.00102291
0.00190469
0.00260607
0.00311238
0.00341277
0.00351822
0.00345269
0.00325941
0.00298705
0.00268245
0.0023915
0.00215042
0.00198055
0.00188887
0.0018705
0.00191208
0.00199442
0.00209386
0.00219055
0.002267
0.00230813
0.000304323
0.000248173
0.000156982
4.94277e-05
-4.93276e-05
-0.000130927
-0.000192378
-0.000235892
-0.000268058
-0.000298
-0.000335394
-0.000389687
-0.000470854
-0.000590413
-0.000761106
-0.000995105
-0.00130548
-0.00170319
-0.00219136
-0.00276639
-0.00342139
-0.00414496
-0.00492426
-0.00574594
-0.00659705
-0.00746475
-0.00833694
-0.00920185
-0.0100482
-0.0108656
-0.0116442
-0.0123751
-0.0130488
-0.0136589
-0.0142012
-0.0146745
-0.0150751
-0.0153966
-0.0156338
-0.015781
-0.0158362
-0.0157977
-0.0156634
-0.0154316
-0.0151037
-0.0146783
-0.0141555
-0.0135367
-0.0128242
-0.0120207
-0.0111303
-0.0101599
-0.00911795
-0.00801634
-0.00686865
-0.00568622
-0.00448148
-0.00328239
-0.0021116
-0.000999409
1.23991e-05
0.000901244
0.00162506
0.00216085
0.00250958
0.00267975
0.0026974
0.0026057
0.00244734
0.00226598
0.00210035
0.00197592
0.00190401
0.00188449
0.00190873
0.00196387
0.00203279
0.00210011
0.00214585
0.00216807
0.000508404
0.000430072
0.000312042
0.000189932
8.24944e-05
-4.92487e-06
-7.37179e-05
-0.000128926
-0.000178956
-0.000233855
-0.000303973
-0.000400011
-0.000534406
-0.000721485
-0.000974821
-0.00130695
-0.00172986
-0.00224767
-0.00285654
-0.00354858
-0.00431246
-0.00513374
-0.00599902
-0.00689473
-0.00780818
-0.00872697
-0.00963963
-0.0105352
-0.0114033
-0.0122344
-0.0130198
-0.0137519
-0.0144252
-0.0150357
-0.0155785
-0.0160493
-0.0164429
-0.0167558
-0.0169864
-0.0171324
-0.0171921
-0.0171641
-0.0170483
-0.0168449
-0.0165481
-0.0161623
-0.0156879
-0.0151259
-0.0144776
-0.0137448
-0.0129303
-0.0120388
-0.011076
-0.0100484
-0.00896332
-0.00783118
-0.00667241
-0.00550249
-0.00433401
-0.00318374
-0.00207873
-0.00104668
-0.000129727
0.000654799
0.00126864
0.00171031
0.00198403
0.00211744
0.0021458
0.00210791
0.00204257
0.00198153
0.00194192
0.00192895
0.00193911
0.00196589
0.00200036
0.00203104
0.00204342
0.00204696
0.000770341
0.000663563
0.00051824
0.000376381
0.000258044
0.000160596
7.83004e-05
2.77747e-06
-7.62599e-05
-0.000169789
-0.000288941
-0.000446238
-0.000656245
-0.000933942
-0.00129239
-0.00174251
-0.00228997
-0.00293293
-0.00366259
-0.00446651
-0.00533063
-0.00624017
-0.00718148
-0.00814118
-0.0091069
-0.0100667
-0.0110099
-0.0119261
-0.0128063
-0.0136421
-0.0144264
-0.0151531
-0.0158179
-0.0164166
-0.0169458
-0.0174023
-0.0177829
-0.0180856
-0.0183093
-0.0184528
-0.0185152
-0.0184955
-0.0183939
-0.0182106
-0.0179436
-0.0175941
-0.0171633
-0.0166525
-0.016063
-0.0153965
-0.0146554
-0.0138427
-0.0129621
-0.0120173
-0.0110124
-0.00995318
-0.0088493
-0.00771037
-0.00655053
-0.00539327
-0.00424934
-0.00313215
-0.00206452
-0.00107693
-0.00020438
0.000519137
0.00107966
0.00148039
0.00173851
0.00188332
0.00194865
0.00197007
0.00197535
0.00197748
0.00197988
0.0019809
0.00198056
0.00197246
0.00195349
0.00194076
0.00107855
0.000943202
0.000764065
0.000599666
0.000467315
0.000355549
0.000252703
0.000147176
2.69425e-05
-0.000119752
-0.000305243
-0.000543378
-0.000849429
-0.00123737
-0.00171779
-0.00229682
-0.00297404
-0.00374135
-0.00458577
-0.00549295
-0.00644758
-0.00743505
-0.00844161
-0.00945417
-0.0104607
-0.0114499
-0.0124117
-0.0133371
-0.0142182
-0.0150483
-0.0158216
-0.0165337
-0.0171812
-0.0177611
-0.0182714
-0.01871
-0.0190752
-0.0193658
-0.0195811
-0.0197205
-0.0197835
-0.0197698
-0.0196797
-0.0195134
-0.0192708
-0.0189527
-0.0185601
-0.0180943
-0.0175568
-0.0169492
-0.0162735
-0.0155319
-0.0147269
-0.0138609
-0.0129364
-0.0119568
-0.0109256
-0.0098468
-0.00872621
-0.00757361
-0.00640238
-0.00523725
-0.00408271
-0.00295225
-0.00187446
-0.000893278
-4.14067e-05
0.000652735
0.00118047
0.00155037
0.00178582
0.00191694
0.00198089
0.00200598
0.00200542
0.00198579
0.00195402
0.00191107
0.0018662
0.00183962
0.0014193
0.00125402
0.00103665
0.000846893
0.000696862
0.000565073
0.000433727
0.000287895
0.000114052
-0.000100481
-0.000368565
-0.000704988
-0.00112388
-0.00163624
-0.00224844
-0.00296073
-0.00376608
-0.00465157
-0.00560218
-0.00660242
-0.00763667
-0.00869046
-0.0097501
-0.0108029
-0.0118374
-0.0128433
-0.0138117
-0.0147349
-0.0156066
-0.0164218
-0.0171765
-0.0178676
-0.0184928
-0.0190505
-0.0195395
-0.0199585
-0.0203068
-0.020584
-0.0207898
-0.0209238
-0.0209859
-0.0209765
-0.0208957
-0.0207441
-0.0205222
-0.0202308
-0.0198711
-0.0194443
-0.018952
-0.0183956
-0.017777
-0.0170978
-0.0163599
-0.0155647
-0.0147136
-0.0138082
-0.0128495
-0.0118388
-0.0107772
-0.00966659
-0.00851032
-0.00731676
-0.00609942
-0.00488147
-0.0036684
-0.00248543
-0.00137617
-0.000392469
0.000428195
0.0010624
0.00151121
0.00179256
0.00193952
0.00199761
0.00199851
0.00196208
0.00190428
0.00183354
0.00177004
0.00173489
0.00177547
0.00157736
0.00131917
0.00110014
0.000928199
0.000770241
0.00060216
0.000405877
0.00016652
-0.00012877
-0.000493891
-0.000942719
-0.00148637
-0.00213163
-0.00287881
-0.00372183
-0.00464849
-0.00564302
-0.00668918
-0.00777081
-0.00887237
-0.00997949
-0.0110789
-0.0121585
-0.013208
-0.0142183
-0.0151821
-0.0160935
-0.016948
-0.017742
-0.018473
-0.0191394
-0.01974
-0.020274
-0.0207408
-0.0211401
-0.0214716
-0.0217353
-0.0219314
-0.0220598
-0.0221206
-0.0221143
-0.0220414
-0.0219025
-0.0216982
-0.0214297
-0.0210981
-0.0207047
-0.020251
-0.0197385
-0.0191687
-0.0185433
-0.0178634
-0.0171301
-0.0163441
-0.0155055
-0.0146141
-0.0136689
-0.0126688
-0.0116121
-0.0104973
-0.00932345
-0.00809241
-0.00681465
-0.00551064
-0.00419397
-0.00289013
-0.00165448
-0.000546332
0.000376962
0.00107914
0.00155637
0.00182777
0.0019399
0.00195083
0.00190065
0.00182088
0.00172878
0.0016535
0.0016133
0.00212311
0.00189071
0.00158867
0.00133819
0.00114021
0.000949938
0.000737134
0.000481225
0.000166446
-0.00022102
-0.000694819
-0.00126578
-0.00194104
-0.00272085
-0.00359965
-0.00456599
-0.00560394
-0.00669607
-0.00782535
-0.00897531
-0.0101306
-0.0112772
-0.0124027
-0.0134961
-0.0145486
-0.0155528
-0.0165033
-0.0173958
-0.0182275
-0.0189965
-0.0197014
-0.0203418
-0.0209172
-0.0214276
-0.0218731
-0.0222536
-0.0225695
-0.0228208
-0.0230078
-0.0231311
-0.0231907
-0.0231871
-0.023121
-0.0229931
-0.0228042
-0.0225553
-0.0222477
-0.0218827
-0.0214617
-0.0209862
-0.0204577
-0.0198776
-0.019247
-0.0185666
-0.0178367
-0.0170568
-0.0162256
-0.0153412
-0.0144003
-0.0133994
-0.0123339
-0.0111992
-0.00999197
-0.00871139
-0.00736179
-0.00595677
-0.00452549
-0.00309804
-0.00174186
-0.000533185
0.00045131
0.00116709
0.00161312
0.00181971
0.00185724
0.00180046
0.00170079
0.00159024
0.00150751
0.00146295
0.00243607
0.00216941
0.00182286
0.00153895
0.00131079
0.00108198
0.000817399
0.000494486
9.60329e-05
-0.000392834
-0.000982604
-0.00168041
-0.00248714
-0.00339721
-0.00439967
-0.00547859
-0.00661554
-0.00779207
-0.00899065
-0.0101948
-0.0113897
-0.0125621
-0.0137007
-0.0147964
-0.0158419
-0.0168319
-0.0177626
-0.0186317
-0.0194378
-0.0201801
-0.0208585
-0.0214732
-0.0220244
-0.0225127
-0.0229384
-0.023302
-0.0236038
-0.0238443
-0.0240237
-0.0241426
-0.0242014
-0.0242005
-0.0241407
-0.0240226
-0.023847
-0.0236152
-0.0233281
-0.0229872
-0.0225939
-0.0221495
-0.0216555
-0.0211133
-0.0205239
-0.0198878
-0.0192052
-0.0184753
-0.0176965
-0.0168662
-0.0159803
-0.0150337
-0.01402
-0.0129322
-0.0117632
-0.010507
-0.00916052
-0.00772586
-0.00621738
-0.00466671
-0.00312311
-0.00166738
-0.000398321
0.000592587
0.00125991
0.00161369
0.00171385
0.00166275
0.0015462
0.00141837
0.00132734
0.00127524
0.00269217
0.00238928
0.00199917
0.00168033
0.0014178
0.00114511
0.000823743
0.000428505
-6.07458e-05
-0.000656112
-0.00136418
-0.00218726
-0.00312006
-0.00415185
-0.0052666
-0.00644498
-0.00766697
-0.00891347
-0.0101668
-0.0114108
-0.0126315
-0.0138169
-0.0149574
-0.0160457
-0.0170767
-0.0180468
-0.018954
-0.0197974
-0.0205769
-0.0212926
-0.0219454
-0.0225359
-0.0230649
-0.0235331
-0.0239413
-0.02429
-0.0245798
-0.0248111
-0.0249843
-0.0251
-0.0251586
-0.0251605
-0.0251065
-0.0249973
-0.0248336
-0.0246166
-0.0243473
-0.024027
-0.023657
-0.0232388
-0.0227737
-0.022263
-0.0217076
-0.0211082
-0.0204649
-0.0197769
-0.0190425
-0.018259
-0.017422
-0.0165258
-0.0155632
-0.0145255
-0.0134033
-0.0121868
-0.0108677
-0.0094418
-0.00791205
-0.00629546
-0.00463213
-0.0029904
-0.00147166
-0.000195452
0.00073842
0.00129238
0.00150562
0.00148635
0.00136145
0.00121542
0.00110887
0.00104349
0.00286102
0.00252738
0.00209651
0.00174215
0.00144192
0.00112223
0.00074056
0.000267832
-0.000314715
-0.00101634
-0.00184053
-0.00278272
-0.00383267
-0.00497436
-0.00618764
-0.00745081
-0.00874284
-0.0100443
-0.0113377
-0.0126077
-0.0138415
-0.0150288
-0.0161621
-0.017236
-0.0182471
-0.0191939
-0.0200757
-0.0208929
-0.0216462
-0.0223368
-0.0229657
-0.0235342
-0.0240433
-0.0244939
-0.024887
-0.025223
-0.0255028
-0.0257266
-0.025895
-0.0260085
-0.0260675
-0.0260725
-0.0260241
-0.025923
-0.02577
-0.0255661
-0.0253122
-0.0250096
-0.0246596
-0.0242635
-0.0238225
-0.0233379
-0.0228106
-0.0222415
-0.0216304
-0.020977
-0.0202797
-0.0195357
-0.018741
-0.0178898
-0.0169746
-0.0159862
-0.0149139
-0.0137458
-0.01247
-0.011077
-0.00956177
-0.00792978
-0.00620562
-0.00444436
-0.002736
-0.00120204
1.8157e-05
0.0008234
0.00120994
0.0012657
0.00114511
0.000980402
0.000847399
0.000764626
0.00292706
0.00256601
0.00209778
0.00170807
0.00136865
0.00100024
0.000555492
4.01477e-06
-0.000670525
-0.0014753
-0.00240857
-0.00346061
-0.00461573
-0.00585324
-0.00714984
-0.00848229
-0.00982897
-0.0111705
-0.01249
-0.0137733
-0.0150093
-0.0161896
-0.0173086
-0.0183631
-0.0193513
-0.0202731
-0.0211292
-0.0219208
-0.0226495
-0.0233167
-0.0239241
-0.024473
-0.0249647
-0.0254002
-0.0257804
-0.0261059
-0.0263774
-0.0265954
-0.0267603
-0.0268725
-0.0269325
-0.0269407
-0.0268977
-0.0268042
-0.0266609
-0.0264686
-0.0262283
-0.0259412
-0.0256083
-0.025231
-0.0248103
-0.0243476
-0.0238437
-0.0232994
-0.0227149
-0.0220899
-0.021423
-0.020712
-0.0199531
-0.019141
-0.0182684
-0.0173262
-0.0163032
-0.0151865
-0.0139623
-0.0126173
-0.011141
-0.00952913
-0.00779195
-0.0059679
-0.00413587
-0.00240226
-0.000909469
0.000183192
0.000795323
0.000978828
0.000891689
0.000709575
0.000538715
0.00043765
0.00287564
0.00249175
0.00199085
0.00156735
0.00118864
0.000769906
0.000261195
-0.000366159
-0.00112835
-0.00202958
-0.00306247
-0.00421235
-0.00545848
-0.00677634
-0.0081404
-0.00952647
-0.0109128
-0.0122803
-0.0136132
-0.0148989
-0.016128
-0.0172944
-0.0183943
-0.0194262
-0.0203899
-0.0212865
-0.0221176
-0.0228851
-0.023591
-0.0242372
-0.0248255
-0.0253573
-0.025834
-0.0262566
-0.026626
-0.0269429
-0.0272079
-0.0274213
-0.0275837
-0.0276954
-0.0277568
-0.0277684
-0.0277307
-0.0276442
-0.0275097
-0.0273279
-0.0270997
-0.0268262
-0.0265082
-0.0261471
-0.0257438
-0.0252995
-0.0248152
-0.0242916
-0.023729
-0.0231272
-0.0224854
-0.0218017
-0.0210727
-0.0202939
-0.0194587
-0.0185583
-0.0175818
-0.0165163
-0.0153468
-0.0140577
-0.0126349
-0.0110678
-0.00935399
-0.00751306
-0.00561052
-0.00374368
-0.00203096
-0.000652862
0.000233038
0.000604758
0.000588594
0.000393664
0.000179218
6.15859e-05
0.00269799
0.00229669
0.00176884
0.00131417
0.000896266
0.000427634
-0.000141889
-0.000840879
-0.00168457
-0.00267268
-0.00379348
-0.00502731
-0.00634909
-0.00773135
-0.00914708
-0.0105716
-0.0119833
-0.013364
-0.0146993
-0.0159784
-0.0171938
-0.0183412
-0.0194188
-0.0204265
-0.0213654
-0.0222374
-0.0230448
-0.02379
-0.0244753
-0.0251028
-0.0256743
-0.0261914
-0.0266553
-0.027067
-0.0274275
-0.0277373
-0.027997
-0.028207
-0.0283678
-0.0284796
-0.0285428
-0.0285578
-0.0285252
-0.0284453
-0.0283189
-0.0281467
-0.0279293
-0.0276678
-0.027363
-0.027016
-0.0266278
-0.0261994
-0.0257317
-0.0252254
-0.0246811
-0.0240987
-0.0234776
-0.0228163
-0.0221123
-0.0213616
-0.0205584
-0.019695
-0.0187612
-0.0177442
-0.0166291
-0.0153993
-0.0140379
-0.0125308
-0.0108675
-0.0090478
-0.0071107
-0.00516938
-0.00330443
-0.00167681
-0.000498653
0.000111156
0.000213264
2.55466e-05
-0.000230063
-0.000363311
0.00239157
0.00197873
0.00143027
0.000947613
0.000492034
-2.41169e-05
-0.000649991
-0.00141431
-0.00233074
-0.00339487
-0.00459048
-0.00589346
-0.00727522
-0.00870617
-0.0101584
-0.0116072
-0.0130315
-0.0144144
-0.0157429
-0.0170082
-0.0182047
-0.0193299
-0.0203834
-0.0213664
-0.0222809
-0.0231295
-0.023915
-0.0246399
-0.0253068
-0.0259178
-0.0264747
-0.026979
-0.0274319
-0.0278345
-0.0281876
-0.0284916
-0.0287472
-0.0289547
-0.0291144
-0.0292267
-0.0292919
-0.0293104
-0.0292826
-0.029209
-0.0290901
-0.0289265
-0.028719
-0.0284682
-0.0281752
-0.0278407
-0.0274657
-0.0270511
-0.0265978
-0.0261065
-0.0255777
-0.0250116
-0.0244077
-0.0237652
-0.0230821
-0.022355
-0.0215792
-0.020748
-0.0198522
-0.01888
-0.017817
-0.0166462
-0.0153492
-0.0139094
-0.0123125
-0.0105463
-0.00861653
-0.00662486
-0.00467606
-0.00286484
-0.00141471
-0.000530425
-0.000252615
-0.000405344
-0.00068793
-0.000837664
0.00195944
0.00154119
0.000978575
0.000471576
-1.88846e-05
-0.000578094
-0.00125467
-0.00207718
-0.00305628
-0.00418429
-0.00544087
-0.00679803
-0.00822449
-0.00968925
-0.011164
-0.0126243
-0.0140502
-0.0154259
-0.0167404
-0.0179865
-0.0191605
-0.0202615
-0.0212902
-0.0222488
-0.0231399
-0.0239667
-0.0247319
-0.0254386
-0.0260891
-0.0266855
-0.0272296
-0.0277229
-0.0281666
-0.0285614
-0.0289082
-0.0292076
-0.0294598
-0.0296654
-0.0298247
-0.0299378
-0.0300051
-0.030027
-0.0300039
-0.0299361
-0.0298241
-0.0296685
-0.0294699
-0.0292289
-0.0289464
-0.0286232
-0.02826
-0.0278577
-0.027417
-0.0269388
-0.0264234
-0.0258713
-0.0252823
-0.0246557
-0.0239902
-0.0232831
-0.0225307
-0.0217273
-0.020865
-0.0199333
-0.0189186
-0.0178045
-0.0165721
-0.0152023
-0.0136783
-0.011984
-0.0101085
-0.00808674
-0.00609475
-0.00417115
-0.00249511
-0.00132962
-0.000832788
-0.000913645
-0.00119382
-0.00136657
0.0014096
0.000992101
0.000421388
-0.000105465
-0.000626772
-0.00122409
-0.00194499
-0.002817
-0.00384818
-0.0050276
-0.00633127
-0.00772814
-0.00918493
-0.0106698
-0.0121546
-0.0136154
-0.0150335
-0.0163946
-0.0176895
-0.0189128
-0.0200621
-0.0211379
-0.0221419
-0.0230768
-0.0239458
-0.0247523
-0.0254991
-0.0261893
-0.0268251
-0.0274087
-0.0279417
-0.0284255
-0.0288611
-0.0292494
-0.029591
-0.0298864
-0.030136
-0.0303402
-0.0304992
-0.0306134
-0.0306829
-0.0307081
-0.0306893
-0.0306269
-0.0305213
-0.0303731
-0.0301827
-0.0299507
-0.0296778
-0.0293648
-0.0290122
-0.028621
-0.0281917
-0.0277251
-0.0272217
-0.026682
-0.0261059
-0.0254931
-0.0248427
-0.0241529
-0.0234206
-0.0226412
-0.0218083
-0.0209126
-0.0199421
-0.0188812
-0.0177113
-0.0164118
-0.0149639
-0.0133497
-0.011548
-0.00955429
-0.00752186
-0.00554744
-0.00371365
-0.00229421
-0.00154834
-0.0014972
-0.00175304
-0.00196103
0.000754041
0.000343548
-0.000229188
-0.000771167
-0.0013185
-0.00194855
-0.00270717
-0.00361977
-0.0046922
-0.00591066
-0.00724814
-0.00867121
-0.0101453
-0.0116382
-0.0131222
-0.0145743
-0.0159771
-0.017318
-0.0185893
-0.0197872
-0.0209108
-0.0219612
-0.0229409
-0.0238533
-0.0247016
-0.0254893
-0.0262194
-0.0268947
-0.0275175
-0.0280897
-0.0286129
-0.0290883
-0.0295169
-0.0298995
-0.0302366
-0.0305287
-0.0307762
-0.0309794
-0.0311384
-0.0312537
-0.0313253
-0.0313536
-0.031339
-0.0312816
-0.031182
-0.0310405
-0.0308577
-0.0306339
-0.0303699
-0.0300662
-0.0297234
-0.0293423
-0.0289234
-0.0284674
-0.0279749
-0.0274462
-0.0268817
-0.0262813
-0.0256443
-0.0249695
-0.0242548
-0.0234965
-0.0226894
-0.0218257
-0.0208948
-0.0198829
-0.018772
-0.0175413
-0.0161697
-0.014638
-0.0129243
-0.0110093
-0.00894354
-0.00695068
-0.00503455
-0.00341499
-0.00241573
-0.00217527
-0.00238372
-0.00263837
9.38862e-06
-0.000390012
-0.00095844
-0.00151083
-0.00207978
-0.00273717
-0.00352607
-0.00447032
-0.00557346
-0.00681921
-0.00817821
-0.00961532
-0.0110952
-0.0125858
-0.01406
-0.015496
-0.0168777
-0.0181943
-0.0194394
-0.0206106
-0.0217079
-0.0227333
-0.0236898
-0.0245807
-0.0254098
-0.0261802
-0.0268951
-0.027557
-0.028168
-0.0287301
-0.0292445
-0.0297126
-0.030135
-0.0305126
-0.0308458
-0.0311351
-0.0313808
-0.0315831
-0.0317423
-0.0318587
-0.0319323
-0.0319636
-0.0319528
-0.0319002
-0.0318061
-0.0316709
-0.031495
-0.0312788
-0.031023
-0.0307279
-0.0303942
-0.0300223
-0.0296131
-0.0291669
-0.0286844
-0.0281661
-0.0276122
-0.0270229
-0.0263981
-0.0257368
-0.0250377
-0.024298
-0.0235137
-0.0226785
-0.0217833
-0.0208158
-0.0197598
-0.0185951
-0.0172989
-0.0158514
-0.0142324
-0.0124105
-0.0103666
-0.00835048
-0.00641446
-0.00466292
-0.00343542
-0.00298021
-0.00310301
-0.00341982
-0.000805767
-0.00119171
-0.00175094
-0.00230947
-0.00289517
-0.00357404
-0.00438598
-0.00535321
-0.0064771
-0.00773939
-0.00910893
-0.0105494
-0.0120254
-0.013505
-0.0149622
-0.0163764
-0.017733
-0.0190224
-0.0202399
-0.0213838
-0.0224551
-0.0234562
-0.0243904
-0.0252613
-0.0260724
-0.026827
-0.0275279
-0.0281776
-0.0287781
-0.0293309
-0.0298376
-0.030299
-0.0307159
-0.0310891
-0.0314188
-0.0317056
-0.0319497
-0.0321514
-0.0323108
-0.0324282
-0.0325039
-0.0325379
-0.0325307
-0.0324824
-0.0323934
-0.032264
-0.0320945
-0.0318854
-0.0316371
-0.03135
-0.0310247
-0.0306617
-0.0302614
-0.0298244
-0.0293513
-0.0288426
-0.0282987
-0.0277199
-0.0271062
-0.0264574
-0.0257724
-0.0250496
-0.0242857
-0.0234758
-0.0226126
-0.0216854
-0.0206797
-0.0195766
-0.0183536
-0.0169884
-0.0154606
-0.0137395
-0.0117933
-0.00974426
-0.00781788
-0.00600941
-0.00460217
-0.00392814
-0.00392768
-0.00433347
-0.00167361
-0.00204387
-0.00259005
-0.00315042
-0.00374798
-0.00444258
-0.00527087
-0.00625309
-0.00738877
-0.00865806
-0.0100286
-0.0114636
-0.0129276
-0.0143895
-0.0158242
-0.0172125
-0.0185411
-0.0198018
-0.0209909
-0.0221076
-0.0231535
-0.0241313
-0.0250445
-0.0258967
-0.0266912
-0.0274311
-0.0281192
-0.0287578
-0.0293486
-0.0298931
-0.0303927
-0.0308481
-0.0312601
-0.0316292
-0.0319558
-0.0322404
-0.0324831
-0.0326841
-0.0328438
-0.0329622
-0.0330396
-0.0330762
-0.0330722
-0.033028
-0.0329436
-0.0328196
-0.0326561
-0.0324535
-0.0322123
-0.0319327
-0.0316152
-0.0312604
-0.0308686
-0.0304404
-0.0299762
-0.0294767
-0.0289422
-0.0283733
-0.0277702
-0.0271329
-0.0264611
-0.0257535
-0.0250081
-0.0242212
-0.0233868
-0.022496
-0.0215363
-0.0204906
-0.0193372
-0.0180522
-0.0166142
-0.0149986
-0.0131698
-0.0111293
-0.00922025
-0.00741858
-0.00589632
-0.00501809
-0.00488414
-0.00538845
-0.00257608
-0.00292878
-0.00345853
-0.00401653
-0.0046214
-0.00532655
-0.00616515
-0.00715532
-0.00829495
-0.00956312
-0.0109268
-0.012349
-0.0137947
-0.0152337
-0.016642
-0.0180016
-0.0193006
-0.020532
-0.0216928
-0.0227829
-0.0238044
-0.0247601
-0.0256535
-0.0264881
-0.0272672
-0.0279936
-0.02867
-0.0292983
-0.0298802
-0.0304172
-0.0309102
-0.0313601
-0.0317676
-0.032133
-0.0324568
-0.0327393
-0.0329806
-0.0331811
-0.033341
-0.0334603
-0.0335393
-0.0335783
-0.0335773
-0.0335367
-0.0334567
-0.0333375
-0.0331796
-0.032983
-0.0327483
-0.0324757
-0.0321657
-0.0318186
-0.0314348
-0.0310149
-0.0305593
-0.0300685
-0.0295432
-0.0289837
-0.0283907
-0.0277644
-0.0271049
-0.0264116
-0.0256832
-0.0249171
-0.0241087
-0.023251
-0.0223332
-0.02134
-0.0202515
-0.0190441
-0.0176958
-0.0161855
-0.0144721
-0.0125122
-0.0105974
-0.0088388
-0.00726997
-0.00623071
-0.0059902
-0.00656626
-0.00349567
-0.00382877
-0.00433924
-0.00489152
-0.00549966
-0.00621064
-0.00705423
-0.00804628
-0.00918329
-0.0104436
-0.0117941
-0.0131978
-0.0146206
-0.0160331
-0.0174124
-0.0187419
-0.0200107
-0.0212127
-0.0223458
-0.0234104
-0.0244085
-0.0253434
-0.0262182
-0.0270365
-0.0278013
-0.0285153
-0.0291807
-0.0297996
-0.0303734
-0.0309034
-0.0313904
-0.0318353
-0.0322385
-0.0326005
-0.0329216
-0.0332022
-0.0334423
-0.0336423
-0.0338023
-0.0339224
-0.0340029
-0.0340439
-0.0340456
-0.0340084
-0.0339323
-0.0338177
-0.0336647
-0.0334738
-0.0332451
-0.0329791
-0.032676
-0.0323361
-0.03196
-0.031548
-0.0311005
-0.0306182
-0.0301017
-0.0295514
-0.0289682
-0.0283524
-0.0277045
-0.0270246
-0.0263119
-0.025565
-0.0247804
-0.0239527
-0.0230729
-0.0221279
-0.0210996
-0.0199654
-0.0187018
-0.017288
-0.0156893
-0.0138664
-0.0119479
-0.0102409
-0.008675
-0.00753187
-0.00722908
-0.00783591
-0.0044153
-0.00472707
-0.00521598
-0.00575989
-0.00636789
-0.00708068
-0.0079247
-0.00891362
-0.0100427
-0.0112898
-0.0126222
-0.0140034
-0.0154
-0.0167837
-0.0181327
-0.0194315
-0.0206703
-0.0218437
-0.0229501
-0.0239903
-0.0249665
-0.0258818
-0.0267394
-0.0275425
-0.0282941
-0.0289965
-0.029652
-0.0302621
-0.0308284
-0.0313519
-0.0318334
-0.0322735
-0.0326728
-0.0330316
-0.0333503
-0.033629
-0.033868
-0.0340674
-0.0342275
-0.0343483
-0.03443
-0.0344729
-0.0344771
-0.0344428
-0.0343703
-0.0342598
-0.0341115
-0.0339257
-0.0337026
-0.0334426
-0.0331459
-0.032813
-0.032444
-0.0320395
-0.0315999
-0.0311258
-0.0306177
-0.0300764
-0.0295025
-0.0288969
-0.0282602
-0.0275929
-0.026895
-0.0261657
-0.0254029
-0.0246025
-0.0237573
-0.0228563
-0.0218835
-0.0208177
-0.0196349
-0.0183143
-0.0168305
-0.0151477
-0.0132613
-0.0115962
-0.0100711
-0.00887976
-0.00853784
-0.00911829
-0.00531915
-0.0056084
-0.0060742
-0.00660748
-0.0072125
-0.00792377
-0.00876452
-0.0097463
-0.0108636
-0.0120934
-0.013404
-0.0147601
-0.0161286
-0.0174824
-0.0188008
-0.0200692
-0.0212787
-0.0224246
-0.0235057
-0.024523
-0.0254787
-0.0263758
-0.0272174
-0.0280065
-0.0287458
-0.0294376
-0.0300838
-0.0306859
-0.0312452
-0.0317627
-0.032239
-0.0326748
-0.0330705
-0.0334263
-0.0337427
-0.0340197
-0.0342575
-0.0344564
-0.0346164
-0.0347378
-0.0348206
-0.0348651
-0.0348715
-0.0348399
-0.0347706
-0.0346638
-0.0345197
-0.0343386
-0.0341207
-0.0338662
-0.0335755
-0.0332489
-0.0328867
-0.0324893
-0.0320572
-0.0315909
-0.031091
-0.0305582
-0.0299935
-0.0293977
-0.0287717
-0.0281164
-0.0274324
-0.0267195
-0.0259768
-0.0252013
-0.0243875
-0.0235264
-0.022604
-0.0216011
-0.0204946
-0.019264
-0.017889
-0.016328
-0.0145449
-0.012896
-0.011416
-0.0102191
-0.00982865
-0.0103048
-0.00619213
-0.00645894
-0.00690071
-0.00742164
-0.0080214
-0.0087285
-0.00956312
-0.0105348
-0.0116374
-0.0128473
-0.0141337
-0.015463
-0.0168027
-0.0181265
-0.0194147
-0.0206537
-0.0218352
-0.0229552
-0.0240125
-0.0250084
-0.0259451
-0.0268254
-0.0276523
-0.0284285
-0.0291566
-0.0298386
-0.0304762
-0.0310709