/*--------------------------------*- C++ -*----------------------------------*\
  =========                 |
  \\      /  F ield         | OpenFOAM: The Open Source CFD Toolbox
   \\    /   O peration     | Website:  https://openfoam.org
    \\  /    A nd           | Version:  13
     \\/     M anipulation  |
\*---------------------------------------------------------------------------*/
FoamFile
{
    format      ascii;
    class       volVectorField;
    location    "6.4";
    object      U;
}
// * * * * * * * * * * * * * * * * * * * * * * * * * * * * * * * * * * * * * //

dimensions      [0 1 -1 0 0 0 0];

internalField   nonuniform List<vector> 
6400
(
(-0.000122255 8.05221e-05 0)
(0.000428775 -0.000166683 0)
(0.00202583 -0.000418587 0)
(0.00414266 -0.000530748 0)
(0.00625474 -0.000468164 0)
(0.00802191 -0.000312941 0)
(0.00920312 -0.000125915 0)
(0.00979799 1.52857e-05 0)
(0.0099292 6.86348e-05 0)
(0.00982978 4.79035e-05 0)
(0.00962668 -2.7785e-05 0)
(0.0094808 -0.000132153 0)
(0.00945974 -0.000240077 0)
(0.0095595 -0.000327856 0)
(0.00973408 -0.000399529 0)
(0.00990527 -0.000452719 0)
(0.0100012 -0.000487314 0)
(0.00996766 -0.000492362 0)
(0.00977007 -0.000476386 0)
(0.00931546 -0.000438345 0)
(0.00856106 -0.000390046 0)
(0.00745492 -0.000340769 0)
(0.00594991 -0.000294995 0)
(0.00401988 -0.000275241 0)
(0.00162995 -0.00031837 0)
(-0.00120102 -0.000427759 0)
(-0.00446975 -0.000490731 0)
(-0.00841685 -0.000343244 0)
(-0.0131644 0.000132296 0)
(-0.0186805 0.000959303 0)
(-0.0257734 0.00198126 0)
(-0.0337068 0.00286515 0)
(-0.0423326 0.0035875 0)
(-0.0513554 0.00413254 0)
(-0.0605224 0.00450313 0)
(-0.0695976 0.00471066 0)
(-0.0783943 0.00477797 0)
(-0.0867535 0.00472765 0)
(-0.0945563 0.00458161 0)
(-0.101702 0.00435799 0)
(-0.108114 0.00406929 0)
(-0.113729 0.00372478 0)
(-0.118498 0.00332807 0)
(-0.122394 0.00288305 0)
(-0.125376 0.00239924 0)
(-0.127319 0.00191538 0)
(-0.128196 0.00147294 0)
(-0.128292 0.000815308 0)
(-0.127008 0.000248774 0)
(-0.124804 -0.000418164 0)
(-0.121324 -0.00106005 0)
(-0.116762 -0.00172368 0)
(-0.110988 -0.0023654 0)
(-0.104099 -0.00299154 0)
(-0.096114 -0.00359823 0)
(-0.0871565 -0.00418978 0)
(-0.0772088 -0.00471215 0)
(-0.0664622 -0.00515794 0)
(-0.0550737 -0.00550258 0)
(-0.0432425 -0.00570589 0)
(-0.0312115 -0.005738 0)
(-0.0192613 -0.00558031 0)
(-0.00766367 -0.00523015 0)
(0.00320047 -0.00471817 0)
(0.0129893 -0.00399033 0)
(0.0214353 -0.00307256 0)
(0.0282414 -0.00201902 0)
(0.0331227 -0.00087137 0)
(0.0360895 0.00028786 0)
(0.0365321 0.0015367 0)
(0.0352633 0.00218526 0)
(0.0319179 0.00277933 0)
(0.0267605 0.00300343 0)
(0.0207218 0.00272949 0)
(0.0145643 0.00205903 0)
(0.0091088 0.00123432 0)
(0.00481359 0.000548618 0)
(0.00184028 0.000132446 0)
(0.000183946 -0.000161991 0)
(-0.000229505 -0.000342358 0)
(1.36306e-05 -0.000368992 0)
(0.00175405 -0.00203915 0)
(0.00509215 -0.00344026 0)
(0.00884328 -0.0039261 0)
(0.0123193 -0.00356579 0)
(0.0150991 -0.00272153 0)
(0.0170048 -0.00168611 0)
(0.0180537 -0.0007378 0)
(0.0183708 -6.28978e-05 0)
(0.0181126 0.000301758 0)
(0.0174825 0.000405161 0)
(0.0166389 0.000322911 0)
(0.0156717 0.00017505 0)
(0.0145723 7.3047e-05 0)
(0.0132706 7.9529e-05 0)
(0.0116643 0.000208089 0)
(0.00966218 0.000438217 0)
(0.00720653 0.000749915 0)
(0.00418649 0.00116065 0)
(0.000498909 0.00168332 0)
(-0.00396311 0.00232263 0)
(-0.00941017 0.00309493 0)
(-0.0159603 0.00397389 0)
(-0.0236731 0.00494109 0)
(-0.0325964 0.00601307 0)
(-0.0428193 0.00719915 0)
(-0.0542776 0.00852205 0)
(-0.06663 0.00998144 0)
(-0.0795205 0.0115316 0)
(-0.0924402 0.0130216 0)
(-0.104814 0.0141454 0)
(-0.116855 0.0148644 0)
(-0.128274 0.0151808 0)
(-0.138985 0.0151143 0)
(-0.148888 0.0147327 0)
(-0.157915 0.0140854 0)
(-0.166024 0.0132278 0)
(-0.173181 0.0122048 0)
(-0.17937 0.011054 0)
(-0.184578 0.00980508 0)
(-0.188792 0.00847618 0)
(-0.192009 0.00708392 0)
(-0.194221 0.00563498 0)
(-0.195419 0.00414179 0)
(-0.195595 0.00261325 0)
(-0.194715 0.00105008 0)
(-0.192779 -0.000566633 0)
(-0.189823 -0.00225631 0)
(-0.185735 -0.00399271 0)
(-0.180598 -0.0057674 0)
(-0.174335 -0.00756505 0)
(-0.166985 -0.00936958 0)
(-0.158513 -0.0111596 0)
(-0.148944 -0.0129046 0)
(-0.138287 -0.0145715 0)
(-0.126596 -0.0161077 0)
(-0.113997 -0.0174788 0)
(-0.10058 -0.0186306 0)
(-0.0865152 -0.0194854 0)
(-0.0720216 -0.0199926 0)
(-0.0573035 -0.0200882 0)
(-0.0426188 -0.0197256 0)
(-0.0282545 -0.0188768 0)
(-0.0145156 -0.0175435 0)
(-0.00169002 -0.0156991 0)
(0.00994333 -0.0133722 0)
(0.020101 -0.0106066 0)
(0.0285378 -0.00751013 0)
(0.0350818 -0.00416305 0)
(0.0395339 -0.000749602 0)
(0.0418891 0.00247845 0)
(0.0420031 0.00545348 0)
(0.0399726 0.00790873 0)
(0.0359724 0.00959825 0)
(0.03017 0.00983212 0)
(0.0229284 0.00893437 0)
(0.0152636 0.00713049 0)
(0.00829583 0.0048428 0)
(0.00310707 0.00237068 0)
(0.000234079 0.000314197 0)
(0.00019386 -0.00157926 0)
(0.00310412 -0.0052473 0)
(0.00730694 -0.00746951 0)
(0.0112713 -0.00777575 0)
(0.0145443 -0.00672343 0)
(0.0169103 -0.00496102 0)
(0.0183883 -0.00304966 0)
(0.0190381 -0.0013198 0)
(0.0189348 4.70114e-05 0)
(0.0181738 0.000969182 0)
(0.016905 0.00146916 0)
(0.0152044 0.00169442 0)
(0.0130888 0.00183673 0)
(0.0105201 0.00206918 0)
(0.00741379 0.00249879 0)
(0.00366614 0.00315264 0)
(-0.000841748 0.00401755 0)
(-0.0062712 0.00510243 0)
(-0.0127463 0.00642912 0)
(-0.0203879 0.00803341 0)
(-0.0292829 0.00992522 0)
(-0.0394201 0.0120523 0)
(-0.0507657 0.0143311 0)
(-0.0631929 0.016643 0)
(-0.0764564 0.0188646 0)
(-0.0902591 0.0209018 0)
(-0.104238 0.0226599 0)
(-0.118079 0.0240794 0)
(-0.131444 0.0250949 0)
(-0.14407 0.0256878 0)
(-0.155784 0.0258493 0)
(-0.166531 0.0255725 0)
(-0.176238 0.0249078 0)
(-0.184967 0.0238866 0)
(-0.192717 0.0225527 0)
(-0.199525 0.0209756 0)
(-0.205416 0.0192013 0)
(-0.210416 0.017276 0)
(-0.214538 0.0152293 0)
(-0.217797 0.0130959 0)
(-0.220203 0.0108887 0)
(-0.221756 0.00861881 0)
(-0.222455 0.00629556 0)
(-0.222291 0.00391843 0)
(-0.221257 0.00148757 0)
(-0.219345 -0.00100435 0)
(-0.216503 -0.0035761 0)
(-0.212726 -0.00621688 0)
(-0.207989 -0.00890226 0)
(-0.202273 -0.0116393 0)
(-0.195549 -0.0144086 0)
(-0.187807 -0.0171919 0)
(-0.179032 -0.0199602 0)
(-0.16923 -0.0226736 0)
(-0.158415 -0.0252774 0)
(-0.146626 -0.0276987 0)
(-0.133937 -0.0298671 0)
(-0.120441 -0.0316934 0)
(-0.106254 -0.0330748 0)
(-0.0915614 -0.0339216 0)
(-0.0765763 -0.0341464 0)
(-0.0615262 -0.0336664 0)
(-0.0466923 -0.0324332 0)
(-0.032381 -0.0304533 0)
(-0.018869 -0.0277229 0)
(-0.00639403 -0.0242724 0)
(0.00478151 -0.0201646 0)
(0.014434 -0.0155179 0)
(0.0224251 -0.0104869 0)
(0.0286274 -0.00526183 0)
(0.0329959 -7.02507e-05 0)
(0.0355195 0.00486744 0)
(0.0360628 0.00920089 0)
(0.0345471 0.0125935 0)
(0.0312301 0.0149532 0)
(0.0262451 0.0155762 0)
(0.0197318 0.0145659 0)
(0.012587 0.011993 0)
(0.0058952 0.00798247 0)
(0.00078828 0.00300287 0)
(0.000404937 -0.00347852 0)
(0.00415844 -0.00930045 0)
(0.008495 -0.0116683 0)
(0.0120041 -0.011222 0)
(0.0145467 -0.00919633 0)
(0.0161117 -0.00651722 0)
(0.0167962 -0.00375661 0)
(0.0166916 -0.00125864 0)
(0.0158761 0.000778838 0)
(0.014411 0.00228293 0)
(0.0122927 0.00333358 0)
(0.00949856 0.00411905 0)
(0.00597827 0.00487095 0)
(0.00166231 0.00579073 0)
(-0.00352429 0.00699839 0)
(-0.00967621 0.00854224 0)
(-0.0169139 0.0104368 0)
(-0.0253582 0.0126853 0)
(-0.0350915 0.015278 0)
(-0.0461316 0.0181852 0)
(-0.0583982 0.0213183 0)
(-0.0716995 0.0245345 0)
(-0.0857473 0.0276576 0)
(-0.100183 0.0305195 0)
(-0.114706 0.0330263 0)
(-0.12897 0.0349958 0)
(-0.142687 0.0363227 0)
(-0.155568 0.037019 0)
(-0.167444 0.0371507 0)
(-0.178273 0.0367631 0)
(-0.188028 0.0359203 0)
(-0.196766 0.0346596 0)
(-0.204527 0.0330186 0)
(-0.211387 0.0310671 0)
(-0.217383 0.0288506 0)
(-0.222579 0.0264251 0)
(-0.227011 0.0238301 0)
(-0.230709 0.0211073 0)
(-0.233692 0.0182805 0)
(-0.235973 0.0153703 0)
(-0.237557 0.0123896 0)
(-0.238441 0.00934263 0)
(-0.238615 0.00623019 0)
(-0.238066 0.00304778 0)
(-0.236777 -0.000208687 0)
(-0.234725 -0.00354478 0)
(-0.231872 -0.006958 0)
(-0.228193 -0.0104713 0)
(-0.223658 -0.014071 0)
(-0.218233 -0.0177505 0)
(-0.21188 -0.0214862 0)
(-0.204577 -0.0252546 0)
(-0.196299 -0.0290223 0)
(-0.187029 -0.032738 0)
(-0.176759 -0.0363294 0)
(-0.1655 -0.0396979 0)
(-0.153292 -0.0427394 0)
(-0.14021 -0.0453472 0)
(-0.126345 -0.0473772 0)
(-0.111829 -0.0486825 0)
(-0.0968568 -0.0491534 0)
(-0.0816413 -0.0486641 0)
(-0.0664325 -0.0471357 0)
(-0.0515427 -0.0445312 0)
(-0.0373265 -0.0409096 0)
(-0.0240507 -0.0363359 0)
(-0.0119539 -0.0308882 0)
(-0.00126058 -0.0247179 0)
(0.00786393 -0.0180461 0)
(0.0153007 -0.0111187 0)
(0.0209933 -0.0041906 0)
(0.0249539 0.00251345 0)
(0.0272258 0.00868459 0)
(0.0278277 0.0139106 0)
(0.0266177 0.0178427 0)
(0.0236262 0.0201792 0)
(0.0190343 0.0204743 0)
(0.0132323 0.0185711 0)
(0.0068945 0.0142642 0)
(0.00106722 0.00677548 0)
(0.00067393 -0.00592864 0)
(0.00484646 -0.0136167 0)
(0.00869895 -0.0154335 0)
(0.0113621 -0.0138976 0)
(0.012962 -0.0107925 0)
(0.0135681 -0.00717543 0)
(0.0133264 -0.00359743 0)
(0.0123234 -0.00036795 0)
(0.0105961 0.00235665 0)
(0.0081333 0.00456145 0)
(0.00487203 0.00636043 0)
(0.000724768 0.00796587 0)
(-0.00440012 0.00962052 0)
(-0.0105895 0.0115274 0)
(-0.0179249 0.0138144 0)
(-0.0264833 0.0165383 0)
(-0.0363258 0.0197065 0)
(-0.0474771 0.0232863 0)
(-0.0598798 0.0271804 0)
(-0.0733667 0.0312522 0)
(-0.0876561 0.0352806 0)
(-0.102389 0.0390598 0)
(-0.117211 0.0424639 0)
(-0.131811 0.0452061 0)
(-0.145805 0.0471557 0)
(-0.15887 0.0483199 0)
(-0.170906 0.048722 0)
(-0.18185 0.0484169 0)
(-0.191754 0.0475096 0)
(-0.200659 0.0460956 0)
(-0.208627 0.0442567 0)
(-0.215747 0.0420641 0)
(-0.222065 0.0395672 0)
(-0.227645 0.0368182 0)
(-0.232534 0.0338586 0)
(-0.236781 0.0307298 0)
(-0.24041 0.0274646 0)
(-0.243449 0.0240933 0)
(-0.245912 0.0206292 0)
(-0.247801 0.0170859 0)
(-0.249118 0.0134725 0)
(-0.249857 0.00978335 0)
(-0.250008 0.00601369 0)
(-0.249553 0.00215281 0)
(-0.248476 -0.00180739 0)
(-0.246745 -0.00587584 0)
(-0.244321 -0.0100558 0)
(-0.24117 -0.0143586 0)
(-0.237255 -0.0187842 0)
(-0.232555 -0.0233377 0)
(-0.226995 -0.027987 0)
(-0.22054 -0.0327029 0)
(-0.213151 -0.0374513 0)
(-0.204787 -0.042171 0)
(-0.195418 -0.0467783 0)
(-0.185032 -0.051154 0)
(-0.173614 -0.0551563 0)
(-0.161224 -0.0586653 0)
(-0.147912 -0.0614925 0)
(-0.133772 -0.0634424 0)
(-0.118973 -0.064376 0)
(-0.103694 -0.0641128 0)
(-0.0881876 -0.0625292 0)
(-0.0726966 -0.0595504 0)
(-0.0575735 -0.0551912 0)
(-0.0432486 -0.0495819 0)
(-0.0299934 -0.0428525 0)
(-0.018039 -0.0352083 0)
(-0.00760479 -0.0269099 0)
(0.00115458 -0.0182687 0)
(0.00816327 -0.00960597 0)
(0.013427 -0.00121666 0)
(0.0170131 0.00659069 0)
(0.0189954 0.0134897 0)
(0.0193898 0.0191185 0)
(0.0182056 0.0230226 0)
(0.015454 0.0247473 0)
(0.0113393 0.0239668 0)
(0.00622037 0.0200509 0)
(0.000928284 0.010548 0)
(0.000976831 -0.00877689 0)
(0.00506922 -0.0176153 0)
(0.00799733 -0.0182632 0)
(0.00955628 -0.0155509 0)
(0.0101031 -0.0113594 0)
(0.00968774 -0.00684787 0)
(0.00845679 -0.00248049 0)
(0.00645506 0.00149603 0)
(0.00366696 0.00498347 0)
(2.50451e-05 0.00801689 0)
(-0.00457601 0.0107454 0)
(-0.01025 0.0133913 0)
(-0.0170982 0.0161873 0)
(-0.025201 0.0193198 0)
(-0.0346136 0.0228985 0)
(-0.0453524 0.0269479 0)
(-0.057376 0.0314165 0)
(-0.0705652 0.0362134 0)
(-0.0847042 0.0411124 0)
(-0.0994343 0.0458556 0)
(-0.114398 0.050283 0)
(-0.129252 0.0540359 0)
(-0.143538 0.0569234 0)
(-0.15688 0.0588738 0)
(-0.169134 0.0598474 0)
(-0.180294 0.0599261 0)
(-0.190411 0.059235 0)
(-0.199557 0.0579076 0)
(-0.207818 0.0560572 0)
(-0.215255 0.0537743 0)
(-0.22194 0.0511349 0)
(-0.227929 0.0481962 0)
(-0.23327 0.0450098 0)
(-0.238016 0.041619 0)
(-0.242203 0.0380571 0)
(-0.245861 0.0343552 0)
(-0.249008 0.0305399 0)
(-0.251665 0.0266347 0)
(-0.253842 0.0226491 0)
(-0.255539 0.018588 0)
(-0.256758 0.0144549 0)
(-0.257499 0.0102357 0)
(-0.257755 0.00592105 0)
(-0.257516 0.00149234 0)
(-0.256783 -0.00307112 0)
(-0.255527 -0.00778501 0)
(-0.253721 -0.0126552 0)
(-0.251322 -0.0176854 0)
(-0.248278 -0.0228723 0)
(-0.244537 -0.0282214 0)
(-0.240058 -0.0337226 0)
(-0.234746 -0.0393241 0)
(-0.228537 -0.0449876 0)
(-0.221353 -0.0506395 0)
(-0.21316 -0.0562125 0)
(-0.203994 -0.0616417 0)
(-0.193688 -0.0666833 0)
(-0.182285 -0.0712059 0)
(-0.169825 -0.0749965 0)
(-0.1563 -0.0777845 0)
(-0.14189 -0.0794114 0)
(-0.12672 -0.0796321 0)
(-0.111024 -0.0783001 0)
(-0.0950659 -0.075253 0)
(-0.0791217 -0.0704599 0)
(-0.0636005 -0.0639954 0)
(-0.0489929 -0.0561345 0)
(-0.0355621 -0.0470955 0)
(-0.0235832 -0.0371924 0)
(-0.0132804 -0.0268145 0)
(-0.00478639 -0.0163706 0)
(0.00187041 -0.00624601 0)
(0.00675575 0.00321152 0)
(0.00999352 0.0116774 0)
(0.0117005 0.0188219 0)
(0.0119436 0.0242185 0)
(0.0107339 0.0273802 0)
(0.00816466 0.0278245 0)
(0.00459202 0.0246192 0)
(0.000551718 0.0136466 0)
(0.00122902 -0.011783 0)
(0.00475728 -0.0207847 0)
(0.00639996 -0.0200085 0)
(0.00685881 -0.0160298 0)
(0.00626172 -0.0108445 0)
(0.00478993 -0.00548773 0)
(0.00251393 -0.000329929 0)
(-0.000574606 0.00444907 0)
(-0.00453972 0.00880574 0)
(-0.00948413 0.0128125 0)
(-0.0155269 0.0166348 0)
(-0.0227791 0.0204868 0)
(-0.0313259 0.0245752 0)
(-0.0412133 0.0290498 0)
(-0.0524353 0.0339715 0)
(-0.0649055 0.039299 0)
(-0.0784887 0.0449053 0)
(-0.0928943 0.0505478 0)
(-0.107728 0.0560034 0)
(-0.12266 0.0609081 0)
(-0.13722 0.064984 0)
(-0.150925 0.0680213 0)
(-0.163549 0.0699224 0)
(-0.175058 0.0707398 0)
(-0.185511 0.0706064 0)
(-0.194975 0.0696649 0)
(-0.203545 0.0680473 0)
(-0.211304 0.0658779 0)
(-0.218327 0.0632561 0)
(-0.224669 0.0602653 0)
(-0.230382 0.0569719 0)
(-0.235509 0.0534245 0)
(-0.240093 0.0496686 0)
(-0.244167 0.045741 0)
(-0.24776 0.0416747 0)
(-0.25089 0.037498 0)
(-0.253574 0.0332379 0)
(-0.255821 0.0289104 0)
(-0.257641 0.0245227 0)
(-0.259081 0.0199928 0)
(-0.260127 0.0154074 0)
(-0.260772 0.0107361 0)
(-0.261006 0.00597363 0)
(-0.260818 0.00110165 0)
(-0.260195 -0.00389838 0)
(-0.259163 -0.00905054 0)
(-0.257709 -0.0143787 0)
(-0.255832 -0.0199132 0)
(-0.253519 -0.0256834 0)
(-0.250729 -0.0317101 0)
(-0.247448 -0.0380097 0)
(-0.243579 -0.0444786 0)
(-0.239018 -0.0511059 0)
(-0.233663 -0.0578305 0)
(-0.22737 -0.0645432 0)
(-0.219921 -0.0710587 0)
(-0.211241 -0.0771718 0)
(-0.201236 -0.082721 0)
(-0.190155 -0.0876593 0)
(-0.177724 -0.0915147 0)
(-0.16413 -0.0941006 0)
(-0.149447 -0.0951033 0)
(-0.133887 -0.0943209 0)
(-0.117671 -0.0915424 0)
(-0.10113 -0.0866977 0)
(-0.0845449 -0.079733 0)
(-0.0684818 -0.0709016 0)
(-0.0534587 -0.0605929 0)
(-0.0397554 -0.0491334 0)
(-0.0276881 -0.0369867 0)
(-0.0174832 -0.0246654 0)
(-0.00924402 -0.0126699 0)
(-0.00294917 -0.0014462 0)
(0.00153885 0.0086368 0)
(0.0044181 0.017263 0)
(0.00584965 0.0240671 0)
(0.00592385 0.0285897 0)
(0.0047129 0.0302145 0)
(0.00260143 0.0277049 0)
(8.96406e-05 0.0155887 0)
(0.00133955 -0.0146125 0)
(0.00378912 -0.0228326 0)
(0.00421541 -0.0205443 0)
(0.00344793 -0.0152987 0)
(0.00170983 -0.00922634 0)
(-0.0008465 -0.00305568 0)
(-0.00421828 0.00292141 0)
(-0.00846165 0.00858014 0)
(-0.0136729 0.0139141 0)
(-0.0199653 0.0190151 0)
(-0.0274485 0.0240463 0)
(-0.0362096 0.0291972 0)
(-0.0462941 0.0346301 0)
(-0.05769 0.0404317 0)
(-0.0703041 0.046596 0)
(-0.0839679 0.0529872 0)
(-0.0983551 0.0593551 0)
(-0.113097 0.0654237 0)
(-0.127754 0.0708116 0)
(-0.141838 0.0752077 0)
(-0.154939 0.0783805 0)
(-0.166943 0.0803066 0)
(-0.177857 0.08108 0)
(-0.187742 0.0808577 0)
(-0.196685 0.0797719 0)
(-0.204777 0.0779714 0)
(-0.212109 0.0755782 0)
(-0.218744 0.0727024 0)
(-0.224736 0.0694291 0)
(-0.230129 0.0658323 0)
(-0.234961 0.0619714 0)
(-0.239266 0.0578949 0)
(-0.243071 0.0536466 0)
(-0.246398 0.0492678 0)
(-0.249259 0.0447974 0)
(-0.251706 0.0402187 0)
(-0.253815 0.0355262 0)
(-0.255579 0.0307587 0)
(-0.257011 0.0259121 0)
(-0.258095 0.0210606 0)
(-0.25884 0.016116 0)
(-0.259252 0.011085 0)
(-0.259341 0.00595027 0)
(-0.259111 0.000698085 0)
(-0.258572 -0.0046838 0)
(-0.257741 -0.0102169 0)
(-0.2566 -0.0159271 0)
(-0.255141 -0.021833 0)
(-0.253348 -0.0279503 0)
(-0.251197 -0.0342808 0)
(-0.248647 -0.0408442 0)
(-0.245691 -0.0477542 0)
(-0.24229 -0.0549535 0)
(-0.23839 -0.0624144 0)
(-0.233911 -0.0700862 0)
(-0.228763 -0.0779185 0)
(-0.222732 -0.0855323 0)
(-0.215476 -0.0927077 0)
(-0.206553 -0.0989712 0)
(-0.195989 -0.104074 0)
(-0.183904 -0.107885 0)
(-0.170369 -0.110019 0)
(-0.155526 -0.110204 0)
(-0.139549 -0.108112 0)
(-0.122789 -0.103638 0)
(-0.105528 -0.0966521 0)
(-0.0881851 -0.0872203 0)
(-0.0714746 -0.0758042 0)
(-0.0559487 -0.0629142 0)
(-0.0419411 -0.0490157 0)
(-0.0297998 -0.0347305 0)
(-0.0197405 -0.0206926 0)
(-0.0118289 -0.0074907 0)
(-0.00597521 0.00438922 0)
(-0.0019523 0.0145816 0)
(0.000520435 0.0227793 0)
(0.00165669 0.0285733 0)
(0.00162922 0.0312912 0)
(0.000765313 0.0293034 0)
(-0.000273635 0.0163064 0)
(0.00126559 -0.0169703 0)
(0.00240023 -0.0236147 0)
(0.0015297 -0.0197366 0)
(-0.000457403 -0.0134162 0)
(-0.00331688 -0.00650277 0)
(-0.0069757 0.000481178 0)
(-0.0114748 0.00732136 0)
(-0.0169033 0.0139335 0)
(-0.0233683 0.0203294 0)
(-0.0309733 0.0266007 0)
(-0.0398015 0.0328901 0)
(-0.0498984 0.0393452 0)
(-0.0612495 0.0460641 0)
(-0.0737813 0.0530674 0)
(-0.0873127 0.0602392 0)
(-0.101488 0.0673251 0)
(-0.115957 0.0739951 0)
(-0.130241 0.079877 0)
(-0.1438 0.0846147 0)
(-0.156389 0.0880239 0)
(-0.167882 0.0900846 0)
(-0.178301 0.0909363 0)
(-0.187709 0.0907059 0)
(-0.196206 0.0895643 0)
(-0.203875 0.0876494 0)
(-0.210801 0.0851011 0)
(-0.217045 0.0820246 0)
(-0.222653 0.078516 0)
(-0.227668 0.0746515 0)
(-0.232123 0.0704993 0)
(-0.236052 0.0661158 0)
(-0.239484 0.0615506 0)
(-0.242444 0.0568477 0)
(-0.245009 0.0520078 0)
(-0.24721 0.0470681 0)
(-0.249058 0.0420797 0)
(-0.250526 0.0370657 0)
(-0.251635 0.0319997 0)
(-0.252403 0.0268835 0)
(-0.252872 0.0217167 0)
(-0.253081 0.0164814 0)
(-0.253057 0.0111791 0)
(-0.252822 0.00579249 0)
(-0.252394 0.000300653 0)
(-0.2518 -0.00532718 0)
(-0.25101 -0.0111043 0)
(-0.250041 -0.0170696 0)
(-0.248889 -0.0232535 0)
(-0.247555 -0.0296879 0)
(-0.246027 -0.0363949 0)
(-0.244285 -0.0433875 0)
(-0.242303 -0.0506696 0)
(-0.240035 -0.0582336 0)
(-0.237417 -0.0660542 0)
(-0.234364 -0.0740675 0)
(-0.230746 -0.0821702 0)
(-0.226552 -0.0905915 0)
(-0.22165 -0.0989959 0)
(-0.215805 -0.107146 0)
(-0.208638 -0.114405 0)
(-0.199417 -0.120104 0)
(-0.187927 -0.123686 0)
(-0.174684 -0.125296 0)
(-0.159691 -0.124382 0)
(-0.143356 -0.12081 0)
(-0.125943 -0.114352 0)
(-0.107841 -0.104936 0)
(-0.0896429 -0.0928135 0)
(-0.0721922 -0.0786294 0)
(-0.0561316 -0.0630832 0)
(-0.0418503 -0.0468057 0)
(-0.0297161 -0.0305724 0)
(-0.0199204 -0.0151405 0)
(-0.0124719 -0.00117408 0)
(-0.00718273 0.0108219 0)
(-0.00370442 0.0205071 0)
(-0.00166844 0.0275426 0)
(-0.000736385 0.0311822 0)
(-0.000513098 0.0296279 0)
(-0.000378289 0.0161394 0)
(0.00103549 -0.0183487 0)
(0.000721898 -0.0230161 0)
(-0.00147408 -0.0176356 0)
(-0.00462713 -0.0103851 0)
(-0.00860028 -0.00266808 0)
(-0.0133664 0.00513893 0)
(-0.0189943 0.0128819 0)
(-0.0255892 0.0204991 0)
(-0.0332515 0.0280013 0)
(-0.0420598 0.035461 0)
(-0.0520577 0.0429838 0)
(-0.0632334 0.050658 0)
(-0.0755293 0.0585207 0)
(-0.088783 0.0664851 0)
(-0.10264 0.074292 0)
(-0.116717 0.0815985 0)
(-0.130561 0.0880285 0)
(-0.143674 0.0931948 0)
(-0.155816 0.0969397 0)
(-0.166887 0.0992702 0)
(-0.176878 0.100275 0)
(-0.185881 0.100131 0)
(-0.193975 0.098998 0)
(-0.201252 0.0970382 0)
(-0.207778 0.094382 0)
(-0.213615 0.0911504 0)
(-0.218804 0.0874371 0)
(-0.223384 0.08333 0)
(-0.227391 0.0789016 0)
(-0.230862 0.0742179 0)
(-0.233833 0.0693343 0)
(-0.236343 0.0642993 0)
(-0.238436 0.059151 0)
(-0.240114 0.0539411 0)
(-0.241413 0.0486738 0)
(-0.242369 0.0433628 0)
(-0.243015 0.0380173 0)
(-0.243412 0.032644 0)
(-0.243607 0.0272536 0)
(-0.243606 0.0218475 0)
(-0.243429 0.0164091 0)
(-0.243098 0.0109281 0)
(-0.242629 0.00538325 0)
(-0.242045 -0.000250296 0)
(-0.241345 -0.00600445 0)
(-0.240533 -0.0119017 0)
(-0.239636 -0.0179757 0)
(-0.23866 -0.0242601 0)
(-0.237614 -0.0307897 0)
(-0.236499 -0.0375985 0)
(-0.235315 -0.0447198 0)
(-0.234052 -0.0521837 0)
(-0.23269 -0.0600064 0)
(-0.231192 -0.0681894 0)
(-0.229489 -0.0767012 0)
(-0.227482 -0.0854653 0)
(-0.225058 -0.09436 0)
(-0.222062 -0.103235 0)
(-0.218253 -0.111919 0)
(-0.213598 -0.120567 0)
(-0.207765 -0.128553 0)
(-0.200211 -0.134992 0)
(-0.189889 -0.138783 0)
(-0.176922 -0.139577 0)
(-0.161903 -0.137511 0)
(-0.145136 -0.132246 0)
(-0.126943 -0.123511 0)
(-0.107913 -0.111437 0)
(-0.0887595 -0.0963939 0)
(-0.0705209 -0.0793088 0)
(-0.0539478 -0.0611046 0)
(-0.0394928 -0.0425837 0)
(-0.0275135 -0.0246919 0)
(-0.0181587 -0.00830283 0)
(-0.011348 0.00586112 0)
(-0.0067494 0.0173006 0)
(-0.00385168 0.0256698 0)
(-0.00219371 0.0301069 0)
(-0.00115838 0.0290092 0)
(-0.000341159 0.0155261 0)
(0.000737071 -0.0187361 0)
(-0.0011437 -0.0210215 0)
(-0.00459725 -0.0143224 0)
(-0.00887637 -0.00621545 0)
(-0.0139485 0.00227246 0)
(-0.0197989 0.0109047 0)
(-0.026518 0.0195707 0)
(-0.0342102 0.0282103 0)
(-0.0429562 0.0368135 0)
(-0.0527993 0.0454178 0)
(-0.0637323 0.0540765 0)
(-0.0757095 0.0628248 0)
(-0.088595 0.0716038 0)
(-0.102064 0.0801608 0)
(-0.115712 0.0881471 0)
(-0.12911 0.0951837 0)
(-0.141829 0.100904 0)
(-0.153594 0.10511 0)
(-0.1643 0.107804 0)
(-0.173938 0.109072 0)
(-0.182577 0.109091 0)
(-0.190311 0.108043 0)
(-0.19721 0.106089 0)
(-0.203343 0.103374 0)
(-0.208756 0.100017 0)
(-0.213494 0.0961258 0)
(-0.217592 0.0917913 0)
(-0.221092 0.0870998 0)
(-0.224036 0.0821255 0)
(-0.226466 0.0769359 0)
(-0.228428 0.0715882 0)
(-0.229968 0.0661303 0)
(-0.231132 0.0605995 0)
(-0.231959 0.0550279 0)
(-0.2325 0.0494354 0)
(-0.232797 0.0438418 0)
(-0.232886 0.0382597 0)
(-0.232801 0.0326919 0)
(-0.232567 0.0271339 0)
(-0.2322 0.0215785 0)
(-0.231719 0.016011 0)
(-0.23114 0.0104144 0)
(-0.230478 0.00476656 0)
(-0.22975 -0.000955439 0)
(-0.228962 -0.00677351 0)
(-0.228127 -0.0127267 0)
(-0.227262 -0.018843 0)
(-0.226383 -0.0251569 0)
(-0.225504 -0.0317024 0)
(-0.224637 -0.0385157 0)
(-0.223793 -0.0456336 0)
(-0.22298 -0.0530918 0)
(-0.2222 -0.0609202 0)
(-0.221442 -0.0691413 0)
(-0.220674 -0.0777637 0)
(-0.21984 -0.0867786 0)
(-0.218852 -0.0961434 0)
(-0.217575 -0.105729 0)
(-0.21581 -0.115328 0)
(-0.213323 -0.124646 0)
(-0.209802 -0.133367 0)
(-0.205073 -0.141669 0)
(-0.19869 -0.148536 0)
(-0.189732 -0.152691 0)
(-0.177166 -0.152737 0)
(-0.16215 -0.149466 0)
(-0.144798 -0.142216 0)
(-0.125739 -0.131001 0)
(-0.105661 -0.116 0)
(-0.0854965 -0.0978486 0)
(-0.0664939 -0.0777773 0)
(-0.0495272 -0.0569803 0)
(-0.0350814 -0.036458 0)
(-0.0234847 -0.0173306 0)
(-0.0148021 -0.000577359 0)
(-0.00881491 0.013043 0)
(-0.00495707 0.0230254 0)
(-0.00270376 0.0283673 0)
(-0.00118503 0.0278371 0)
(-0.000160241 0.0147393 0)
(0.000176939 -0.0180021 0)
(-0.00310793 -0.0177034 0)
(-0.00771307 -0.00981059 0)
(-0.0130671 -0.000941869 0)
(-0.0191918 0.00828073 0)
(-0.0260702 0.0177278 0)
(-0.0338007 0.0273105 0)
(-0.0424767 0.0369496 0)
(-0.0521494 0.0465987 0)
(-0.0628186 0.0562473 0)
(-0.074447 0.0659009 0)
(-0.0869245 0.0755171 0)
(-0.0999678 0.0848597 0)
(-0.113185 0.0935806 0)
(-0.126163 0.101302 0)
(-0.138527 0.107679 0)
(-0.149983 0.112477 0)
(-0.160381 0.115643 0)
(-0.169724 0.11728 0)
(-0.178055 0.117553 0)
(-0.185462 0.116659 0)
(-0.192015 0.114771 0)
(-0.197767 0.112036 0)
(-0.202769 0.108588 0)
(-0.20706 0.104538 0)
(-0.210683 0.0999928 0)
(-0.213684 0.0950472 0)
(-0.216116 0.0897902 0)
(-0.218035 0.0842999 0)
(-0.219499 0.0786454 0)
(-0.220563 0.0728841 0)
(-0.221284 0.0670627 0)
(-0.221715 0.0612172 0)
(-0.221902 0.0553767 0)
(-0.221891 0.0495603 0)
(-0.221715 0.0437826 0)
(-0.221402 0.0380473 0)
(-0.220974 0.0323498 0)
(-0.22045 0.0266823 0)
(-0.219844 0.0210331 0)
(-0.219169 0.0153859 0)
(-0.218436 0.00972227 0)
(-0.217659 0.00401997 0)
(-0.216847 -0.00174353 0)
(-0.216011 -0.00759221 0)
(-0.215164 -0.0135591 0)
(-0.21432 -0.019674 0)
(-0.213496 -0.0259702 0)
(-0.212709 -0.0324819 0)
(-0.211978 -0.0392453 0)
(-0.211321 -0.046298 0)
(-0.210756 -0.0536777 0)
(-0.210299 -0.0614195 0)
(-0.209959 -0.0695539 0)
(-0.209731 -0.0781043 0)
(-0.209599 -0.0870848 0)
(-0.20952 -0.0964911 0)
(-0.209412 -0.106284 0)
(-0.20914 -0.116374 0)
(-0.208502 -0.126584 0)
(-0.20721 -0.136569 0)
(-0.204917 -0.145854 0)
(-0.20116 -0.154055 0)
(-0.195673 -0.16111 0)
(-0.187651 -0.165313 0)
(-0.175589 -0.164822 0)
(-0.160387 -0.160059 0)
(-0.142352 -0.150652 0)
(-0.12228 -0.136648 0)
(-0.101071 -0.118462 0)
(-0.0799206 -0.0970177 0)
(-0.0602857 -0.0739356 0)
(-0.0431542 -0.0507204 0)
(-0.0290142 -0.0285914 0)
(-0.0181121 -0.00884154 0)
(-0.0103828 0.00746453 0)
(-0.00534183 0.0195277 0)
(-0.00244394 0.0262165 0)
(-0.000729932 0.0265372 0)
(9.9119e-05 0.0142126 0)
(-0.000392135 -0.0160233 0)
(-0.00503696 -0.0130941 0)
(-0.0107035 -0.00417984 0)
(-0.0170654 0.00536903 0)
(-0.0241704 0.0152856 0)
(-0.0319901 0.0255214 0)
(-0.0406206 0.0359854 0)
(-0.050136 0.0465633 0)
(-0.060552 0.0571605 0)
(-0.0718382 0.0677186 0)
(-0.0839056 0.0781842 0)
(-0.0965158 0.0883363 0)
(-0.109311 0.0978456 0)
(-0.121906 0.106333 0)
(-0.133953 0.11346 0)
(-0.145158 0.118969 0)
(-0.155324 0.122738 0)
(-0.164426 0.124851 0)
(-0.172509 0.125479 0)
(-0.179637 0.124818 0)
(-0.185884 0.123057 0)
(-0.191298 0.120354 0)
(-0.195925 0.116852 0)
(-0.199809 0.112676 0)
(-0.203 0.107944 0)
(-0.205554 0.102768 0)
(-0.207535 0.0972486 0)
(-0.209012 0.0914796 0)
(-0.210053 0.0855407 0)
(-0.210724 0.0795001 0)
(-0.211089 0.073412 0)
(-0.211202 0.0673185 0)
(-0.211115 0.0612507 0)
(-0.210866 0.0552303 0)
(-0.210491 0.0492697 0)
(-0.210014 0.0433742 0)
(-0.209455 0.0375415 0)
(-0.208829 0.0317639 0)
(-0.208147 0.0260296 0)
(-0.207418 0.0203247 0)
(-0.206651 0.0146321 0)
(-0.205852 0.00893216 0)
(-0.205029 0.00320357 0)
(-0.20419 -0.0025763 0)
(-0.203343 -0.00843187 0)
(-0.2025 -0.0143914 0)
(-0.201675 -0.0204833 0)
(-0.200882 -0.0267389 0)
(-0.200142 -0.0331904 0)
(-0.199475 -0.0398728 0)
(-0.198904 -0.0468227 0)
(-0.198453 -0.0540783 0)
(-0.198148 -0.0616778 0)
(-0.198008 -0.0696579 0)
(-0.198049 -0.0780522 0)
(-0.198276 -0.0868874 0)
(-0.198677 -0.096177 0)
(-0.199217 -0.105913 0)
(-0.199822 -0.11606 0)
(-0.200365 -0.126536 0)
(-0.200643 -0.137182 0)
(-0.200353 -0.1477 0)
(-0.199081 -0.157541 0)
(-0.19631 -0.166008 0)
(-0.191467 -0.172853 0)
(-0.183932 -0.176835 0)
(-0.172215 -0.175646 0)
(-0.156654 -0.169258 0)
(-0.137777 -0.15737 0)
(-0.116565 -0.140235 0)
(-0.0942131 -0.118573 0)
(-0.0721945 -0.0936835 0)
(-0.0522002 -0.0676681 0)
(-0.0352882 -0.0423697 0)
(-0.0218808 -0.0192487 0)
(-0.0120863 0.000252304 0)
(-0.00558029 0.0150036 0)
(-0.00188684 0.0236881 0)
(-2.52772e-05 0.0253579 0)
(0.000385321 0.014183 0)
(-0.000967101 -0.0128968 0)
(-0.00684759 -0.00731522 0)
(-0.0134733 0.00248489 0)
(-0.0207554 0.0126358 0)
(-0.0287472 0.0231958 0)
(-0.0373968 0.0341727 0)
(-0.0467928 0.0454547 0)
(-0.0569849 0.0568791 0)
(-0.0679581 0.0682985 0)
(-0.0796397 0.0796049 0)
(-0.0918305 0.0905727 0)
(-0.104225 0.100906 0)
(-0.116478 0.110229 0)
(-0.12825 0.118194 0)
(-0.139252 0.12452 0)
(-0.149258 0.129026 0)
(-0.15819 0.131739 0)
(-0.166086 0.132829 0)
(-0.173002 0.132495 0)
(-0.178999 0.130936 0)
(-0.184132 0.128327 0)
(-0.188445 0.124821 0)
(-0.191987 0.120561 0)
(-0.194815 0.11568 0)
(-0.196996 0.110305 0)
(-0.198605 0.104554 0)
(-0.199722 0.0985341 0)
(-0.200425 0.0923384 0)
(-0.200788 0.0860437 0)
(-0.200879 0.0797124 0)
(-0.200755 0.0733914 0)
(-0.200467 0.0671147 0)
(-0.200054 0.0609049 0)
(-0.199547 0.0547749 0)
(-0.19897 0.0487295 0)
(-0.198339 0.0427669 0)
(-0.197666 0.0368801 0)
(-0.196959 0.0310585 0)
(-0.196224 0.0252885 0)
(-0.195463 0.0195531 0)
(-0.194681 0.0138347 0)
(-0.193881 0.00811497 0)
(-0.193065 0.00237251 0)
(-0.19224 -0.00341413 0)
(-0.19141 -0.00926803 0)
(-0.190587 -0.0152141 0)
(-0.18978 -0.0212782 0)
(-0.189007 -0.0274883 0)
(-0.188285 -0.0338738 0)
(-0.187637 -0.0404668 0)
(-0.187087 -0.0473013 0)
(-0.186664 -0.054414 0)
(-0.186397 -0.0618433 0)
(-0.186317 -0.0696291 0)
(-0.186449 -0.0778114 0)
(-0.186816 -0.0864277 0)
(-0.187426 -0.0955083 0)
(-0.188272 -0.10507 0)
(-0.189319 -0.115108 0)
(-0.190495 -0.125583 0)
(-0.191672 -0.136405 0)
(-0.192647 -0.147412 0)
(-0.193104 -0.158322 0)
(-0.1926 -0.168633 0)
(-0.190562 -0.177497 0)
(-0.186239 -0.184025 0)
(-0.178894 -0.187489 0)
(-0.167152 -0.18528 0)
(-0.150996 -0.176923 0)
(-0.131077 -0.162124 0)
(-0.108645 -0.141455 0)
(-0.0852057 -0.115984 0)
(-0.0626 -0.087553 0)
(-0.0427091 -0.0588738 0)
(-0.0265867 -0.03205 0)
(-0.0144771 -0.00884629 0)
(-0.00624842 0.00922426 0)
(-0.00153317 0.0206414 0)
(0.000607362 0.0243005 0)
(0.000589034 0.0145812 0)
(-0.00151445 -0.0086829 0)
(-0.00847958 -0.000484116 0)
(-0.0159526 0.0100805 0)
(-0.0240521 0.0207564 0)
(-0.0328148 0.0318986 0)
(-0.0421643 0.0435512 0)
(-0.0521776 0.0555645 0)
(-0.0628765 0.0677211 0)
(-0.0742118 0.0798175 0)
(-0.0860118 0.0915887 0)
(-0.0980366 0.102755 0)
(-0.109985 0.112964 0)
(-0.121522 0.121838 0)
(-0.132369 0.129075 0)
(-0.142275 0.134442 0)
(-0.151118 0.137894 0)
(-0.1589 0.139566 0)
(-0.165675 0.139665 0)
(-0.171498 0.138399 0)
(-0.176422 0.135958 0)
(-0.180498 0.132514 0)
(-0.183776 0.128224 0)
(-0.186323 0.123241 0)
(-0.188214 0.117707 0)
(-0.189536 0.11176 0)
(-0.190378 0.105521 0)
(-0.190825 0.0990965 0)
(-0.190959 0.0925731 0)
(-0.19085 0.0860205 0)
(-0.190559 0.0794909 0)
(-0.190136 0.0730213 0)
(-0.189618 0.0666357 0)
(-0.189037 0.0603474 0)
(-0.188413 0.0541614 0)
(-0.187759 0.0480755 0)
(-0.187086 0.0420829 0)
(-0.186397 0.0361723 0)
(-0.185694 0.03033 0)
(-0.184978 0.0245418 0)
(-0.184249 0.0187902 0)
(-0.183505 0.0130556 0)
(-0.182746 0.0073212 0)
(-0.181973 0.00156746 0)
(-0.181188 -0.00422618 0)
(-0.180395 -0.0100803 0)
(-0.179603 -0.0160169 0)
(-0.17882 -0.0220586 0)
(-0.178062 -0.0282298 0)
(-0.177345 -0.0345564 0)
(-0.17669 -0.0410663 0)
(-0.176124 -0.0477902 0)
(-0.175675 -0.0547615 0)
(-0.175376 -0.0620168 0)
(-0.175261 -0.0695959 0)
(-0.175367 -0.0775412 0)
(-0.175725 -0.0858967 0)
(-0.176361 -0.0947046 0)
(-0.177289 -0.104001 0)
(-0.178503 -0.113811 0)
(-0.179968 -0.124132 0)