/*--------------------------------*- C++ -*----------------------------------*\
  =========                 |
  \\      /  F ield         | OpenFOAM: The Open Source CFD Toolbox
   \\    /   O peration     | Website:  https://openfoam.org
    \\  /    A nd           | Version:  13
     \\/     M anipulation  |
\*---------------------------------------------------------------------------*/
FoamFile
{
    format      ascii;
    class       volScalarField;
    location    "6.8";
    object      nut;
}
// * * * * * * * * * * * * * * * * * * * * * * * * * * * * * * * * * * * * * //

dimensions      [0 2 -1 0 0 0 0];

internalField   nonuniform List<scalar> 
6400
(
9.26586e-10
4.76102e-09
1.15615e-08
1.86465e-08
2.40076e-08
2.70277e-08
2.81293e-08
2.82344e-08
2.83936e-08
2.94294e-08
3.1965e-08
3.69616e-08
4.48865e-08
5.59047e-08
6.94589e-08
8.47978e-08
1.01144e-07
1.18149e-07
1.35069e-07
1.51443e-07
1.67833e-07
1.85624e-07
2.06692e-07
2.32272e-07
2.61462e-07
2.91231e-07
3.20759e-07
3.50015e-07
3.79867e-07
4.11156e-07
4.43542e-07
4.75852e-07
5.07569e-07
5.38702e-07
5.70124e-07
6.01998e-07
6.35035e-07
6.6944e-07
7.05666e-07
7.43839e-07
7.84237e-07
8.27164e-07
8.72878e-07
9.22016e-07
9.74817e-07
1.03302e-06
1.09971e-06
1.18178e-06
1.26762e-06
1.35416e-06
1.43964e-06
1.5228e-06
1.60128e-06
1.67281e-06
1.73483e-06
1.78423e-06
1.8109e-06
1.82166e-06
1.82181e-06
1.78957e-06
1.73058e-06
1.64453e-06
1.53254e-06
1.39828e-06
1.24555e-06
1.0813e-06
9.1374e-07
7.49703e-07
5.95332e-07
4.57069e-07
3.45111e-07
2.51135e-07
1.75193e-07
1.17024e-07
7.51521e-08
4.66364e-08
2.80448e-08
1.60779e-08
7.59115e-09
1.61563e-09
4.48639e-09
3.18666e-07
1.14768e-06
1.94025e-06
2.52869e-06
2.87616e-06
3.03628e-06
3.09295e-06
3.1302e-06
3.20724e-06
3.39822e-06
3.77083e-06
4.29511e-06
4.90661e-06
5.54292e-06
6.14084e-06
6.65597e-06
7.04266e-06
7.28523e-06
7.39707e-06
7.45283e-06
7.52168e-06
7.66954e-06
7.92807e-06
8.2432e-06
8.46812e-06
8.6719e-06
8.90065e-06
9.20001e-06
9.60862e-06
1.01394e-05
1.07222e-05
1.13555e-05
1.20058e-05
1.26945e-05
1.34055e-05
1.41491e-05
1.49193e-05
1.57227e-05
1.65558e-05
1.74131e-05
1.8299e-05
1.92052e-05
2.01678e-05
2.11494e-05
2.21237e-05
2.3057e-05
2.39061e-05
2.47546e-05
2.5631e-05
2.65112e-05
2.73888e-05
2.82453e-05
2.90617e-05
2.98151e-05
3.05491e-05
3.10367e-05
3.13304e-05
3.15564e-05
3.15593e-05
3.1237e-05
3.06063e-05
2.96529e-05
2.8353e-05
2.6716e-05
2.47846e-05
2.26596e-05
2.0366e-05
1.79334e-05
1.53229e-05
1.2441e-05
9.64947e-06
7.18353e-06
5.14387e-06
3.56364e-06
2.41935e-06
1.61441e-06
1.04102e-06
4.70009e-07
8.54337e-09
9.82592e-09
8.27646e-07
3.35745e-06
5.85263e-06
7.77008e-06
9.01893e-06
9.72305e-06
1.00793e-05
1.0296e-05
1.05509e-05
1.0969e-05
1.16319e-05
1.2514e-05
1.35168e-05
1.45138e-05
1.53912e-05
1.61001e-05
1.66163e-05
1.69389e-05
1.70828e-05
1.70692e-05
1.6987e-05
1.69169e-05
1.68994e-05
1.69693e-05
1.72098e-05
1.75286e-05
1.7845e-05
1.81845e-05
1.85445e-05
1.90022e-05
1.96426e-05
2.06057e-05
2.15796e-05
2.26925e-05
2.38596e-05
2.51084e-05
2.63835e-05
2.77072e-05
2.91189e-05
3.05048e-05
3.1923e-05
3.33336e-05
3.46668e-05
3.5945e-05
3.71908e-05
3.83976e-05
3.96144e-05
4.08366e-05
4.20638e-05
4.32824e-05
4.44843e-05
4.56526e-05
4.67688e-05
4.78071e-05
4.87349e-05
4.9525e-05
5.01003e-05
5.03633e-05
5.05578e-05
5.04209e-05
4.9967e-05
4.91692e-05
4.78889e-05
4.60613e-05
4.36746e-05
4.09358e-05
3.78356e-05
3.43854e-05
3.0628e-05
2.6609e-05
2.24654e-05
1.83948e-05
1.45995e-05
1.12574e-05
8.43047e-06
6.18254e-06
4.24998e-06
1.76669e-06
2.28242e-08
1.70855e-08
1.35784e-06
5.27685e-06
9.04457e-06
1.19673e-05
1.39791e-05
1.52303e-05
1.59395e-05
1.63683e-05
1.67332e-05
1.72325e-05
1.79888e-05
1.8981e-05
2.00685e-05
2.10882e-05
2.19272e-05
2.25246e-05
2.28769e-05
2.3013e-05
2.299e-05
2.28726e-05
2.2768e-05
2.27435e-05
2.28375e-05
2.28885e-05
2.28981e-05
2.28366e-05
2.3188e-05
2.38836e-05
2.48156e-05
2.60789e-05
2.72739e-05
2.84586e-05
2.97188e-05
3.10192e-05
3.23029e-05
3.35862e-05
3.49288e-05
3.62209e-05
3.74897e-05
3.87191e-05
3.99268e-05
4.10935e-05
4.22177e-05
4.33001e-05
4.43473e-05
4.53971e-05
4.64482e-05
4.74972e-05
4.85404e-05
4.95694e-05
5.05754e-05
5.15455e-05
5.24636e-05
5.33098e-05
5.40605e-05
5.46887e-05
5.51868e-05
5.54575e-05
5.55421e-05
5.54164e-05
5.49685e-05
5.41854e-05
5.34137e-05
5.21787e-05
5.02976e-05
4.79633e-05
4.51296e-05
4.18793e-05
3.82636e-05
3.43245e-05
3.01251e-05
2.577e-05
2.14214e-05
1.72814e-05
1.35219e-05
1.025e-05
7.17407e-06
2.96647e-06
3.79441e-08
2.74389e-08
2.04023e-06
7.33888e-06
1.21923e-05
1.58244e-05
1.82753e-05
1.97789e-05
2.06161e-05
2.10972e-05
2.15384e-05
2.21926e-05
2.31459e-05
2.42957e-05
2.54437e-05
2.64119e-05
2.71004e-05
2.74888e-05
2.7616e-05
2.75355e-05
2.73671e-05
2.71103e-05
2.6934e-05
2.67741e-05
2.61463e-05
2.6044e-05
2.65088e-05
2.74357e-05
2.85441e-05
2.96937e-05
3.09754e-05
3.22261e-05
3.34441e-05
3.46426e-05
3.58117e-05
3.69029e-05
3.79143e-05
3.89244e-05
3.98849e-05
4.07067e-05
4.14812e-05
4.21742e-05
4.28145e-05
4.34216e-05
4.40175e-05
4.46275e-05
4.52574e-05
4.5882e-05
4.65151e-05
4.71569e-05
4.78118e-05
4.84815e-05
4.91666e-05
4.98654e-05
5.05738e-05
5.12845e-05
5.19862e-05
5.26629e-05
5.32857e-05
5.38195e-05
5.42136e-05
5.43774e-05
5.43255e-05
5.38583e-05
5.27872e-05
5.19756e-05
5.08838e-05
4.91033e-05
4.68188e-05
4.41002e-05
4.10039e-05
3.75648e-05
3.38055e-05
2.97581e-05
2.55066e-05
2.12515e-05
1.71668e-05
1.33291e-05
9.35941e-06
3.80146e-06
4.83425e-08
4.22394e-08
2.96015e-06
9.77721e-06
1.56394e-05
1.97755e-05
2.24114e-05
2.3927e-05
2.47263e-05
2.52262e-05
2.57999e-05
2.66579e-05
2.77812e-05
2.89855e-05
3.00517e-05
3.08241e-05
3.124e-05
3.13168e-05
3.11819e-05
3.07656e-05
3.04412e-05
2.99414e-05
2.90296e-05
2.88532e-05
2.95082e-05
3.04427e-05
3.14463e-05
3.25843e-05
3.37199e-05
3.4816e-05
3.58689e-05
3.67734e-05
3.76454e-05
3.84468e-05
3.91429e-05
3.97008e-05
4.0201e-05
4.06005e-05
4.09922e-05
4.12942e-05
4.15525e-05
4.17836e-05
4.20022e-05
4.21998e-05
4.23863e-05
4.25674e-05
4.27428e-05
4.29172e-05
4.30996e-05
4.32989e-05
4.35249e-05
4.37897e-05
4.41055e-05
4.44846e-05
4.49377e-05
4.54678e-05
4.60633e-05
4.67421e-05
4.74763e-05
4.82388e-05
4.89719e-05
4.9653e-05
5.01548e-05
5.035e-05
5.02767e-05
4.94151e-05
4.89695e-05
4.77927e-05
4.60578e-05
4.38288e-05
4.12026e-05
3.82482e-05
3.4997e-05
3.14344e-05
2.75264e-05
2.34093e-05
1.92255e-05
1.51105e-05
1.064e-05
4.19902e-06
5.21079e-08
6.28114e-08
4.16183e-06
1.26258e-05
1.93874e-05
2.38363e-05
2.64671e-05
2.7854e-05
2.85568e-05
2.90864e-05
2.98001e-05
3.08024e-05
3.19681e-05
3.30692e-05
3.39049e-05
3.43705e-05
3.44575e-05
3.39928e-05
3.3535e-05
3.31079e-05
3.19194e-05
3.15586e-05
3.19791e-05
3.28154e-05
3.35393e-05
3.44166e-05
3.52914e-05
3.6172e-05
3.69414e-05
3.76187e-05
3.82239e-05
3.87564e-05
3.91973e-05
3.95422e-05
3.97958e-05
3.99738e-05
4.01034e-05
4.01817e-05
4.02328e-05
4.0228e-05
4.0219e-05
4.02071e-05
4.01464e-05
4.00879e-05
4.00026e-05
3.99163e-05
3.98098e-05
3.96981e-05
3.95755e-05
3.94541e-05
3.93377e-05
3.92392e-05
3.91762e-05
3.91742e-05
3.92714e-05
3.95254e-05
3.98663e-05
4.03969e-05
4.11187e-05
4.20067e-05
4.29676e-05
4.40362e-05
4.50641e-05
4.60218e-05
4.65281e-05
4.66552e-05
4.61065e-05
4.59642e-05
4.47864e-05
4.29548e-05
4.06219e-05
3.79185e-05
3.4955e-05
3.17742e-05
2.83048e-05
2.44139e-05
2.03802e-05
1.60209e-05
1.09383e-05
4.18802e-06
5.05869e-08
9.03891e-08
5.6655e-06
1.58163e-05
2.33313e-05
2.79146e-05
3.04106e-05
3.16055e-05
3.22069e-05
3.27653e-05
3.35614e-05
3.45821e-05
3.5628e-05
3.6463e-05
3.69198e-05
3.69678e-05
3.64391e-05
3.59686e-05
3.49557e-05
3.41937e-05
3.4091e-05
3.45948e-05
3.4972e-05
3.55717e-05
3.6169e-05
3.68989e-05
3.75135e-05
3.80668e-05
3.84956e-05
3.88434e-05
3.9107e-05
3.92953e-05
3.94128e-05
3.94733e-05
3.94914e-05
3.94814e-05
3.9453e-05
3.94065e-05
3.93483e-05
3.9276e-05
3.92018e-05
3.90792e-05
3.89964e-05
3.89234e-05
3.87414e-05
3.86151e-05
3.84436e-05
3.82732e-05
3.8083e-05
3.78778e-05
3.76531e-05
3.74105e-05
3.71467e-05
3.68591e-05
3.65439e-05
3.61924e-05
3.60011e-05
3.59526e-05
3.61924e-05
3.68817e-05
3.76858e-05
3.88362e-05
4.01594e-05
4.15254e-05
4.28273e-05
4.36908e-05
4.39481e-05
4.37043e-05
4.37261e-05
4.23726e-05
4.03133e-05
3.77067e-05
3.47455e-05
3.16139e-05
2.8388e-05
2.48692e-05
2.08587e-05
1.65097e-05
1.11024e-05
4.07878e-06
4.70227e-08
1.25851e-07
7.45555e-06
1.92594e-05
2.73167e-05
3.19164e-05
3.42045e-05
3.51873e-05
3.56852e-05
3.62329e-05
3.70094e-05
3.79067e-05
3.86936e-05
3.91621e-05
3.90547e-05
3.8566e-05
3.80639e-05
3.67554e-05
3.6225e-05
3.62413e-05
3.62737e-05
3.65179e-05
3.69337e-05
3.74285e-05
3.78886e-05
3.83361e-05
3.86523e-05
3.88994e-05
3.90515e-05
3.9153e-05
3.92037e-05
3.9225e-05
3.92264e-05
3.92215e-05
3.92165e-05
3.92143e-05
3.92147e-05
3.92153e-05
3.92141e-05
3.92042e-05
3.91699e-05
3.9144e-05
3.91248e-05
3.90386e-05
3.89553e-05
3.88594e-05
3.87346e-05
3.8593e-05
3.84255e-05
3.82336e-05
3.80102e-05
3.77553e-05
3.74629e-05
3.71264e-05
3.67396e-05
3.62898e-05
3.57791e-05
3.52036e-05
3.45828e-05
3.39444e-05
3.40247e-05
3.46177e-05
3.57567e-05
3.71872e-05
3.88333e-05
4.04618e-05
4.15802e-05
4.19321e-05
4.1926e-05
4.20349e-05
4.04687e-05
3.80847e-05
3.50752e-05
3.17238e-05
2.83043e-05
2.48659e-05
2.1062e-05
1.65532e-05
1.08551e-05
3.79197e-06
4.30386e-08
1.69557e-07
9.45833e-06
2.27886e-05
3.12598e-05
3.57825e-05
3.78217e-05
3.85816e-05
3.89516e-05
3.94145e-05
4.00521e-05
4.06963e-05
4.11185e-05
4.09007e-05
4.03558e-05
3.9783e-05
3.86699e-05
3.80903e-05
3.78309e-05
3.75613e-05
3.76967e-05
3.79321e-05
3.825e-05
3.8552e-05
3.87911e-05
3.89723e-05
3.90641e-05
3.91219e-05
3.91429e-05
3.91642e-05
3.91878e-05
3.92301e-05
3.92912e-05
3.93729e-05
3.94699e-05
3.95758e-05
3.96815e-05
3.9778e-05
3.98743e-05
3.99315e-05
3.99607e-05
4.00077e-05
3.99913e-05
3.9956e-05
3.98953e-05
3.98079e-05
3.96937e-05
3.95566e-05
3.93966e-05
3.92169e-05
3.90192e-05
3.87946e-05
3.85367e-05
3.82345e-05
3.78708e-05
3.74366e-05
3.69084e-05
3.6268e-05
3.55041e-05
3.46307e-05
3.37272e-05
3.283e-05
3.25765e-05
3.34344e-05
3.48781e-05
3.67232e-05
3.85978e-05
4.00074e-05
4.04725e-05
4.05915e-05
4.06606e-05
3.88391e-05
3.60479e-05
3.25486e-05
2.87309e-05
2.49268e-05
2.10475e-05
1.65282e-05
1.06272e-05
3.53642e-06
3.98496e-08
2.22152e-07
1.15132e-05
2.6262e-05
3.50746e-05
3.94667e-05
4.12337e-05
4.17523e-05
4.19448e-05
4.22299e-05
4.26127e-05
4.28972e-05
4.25878e-05
4.1951e-05
4.13032e-05
4.03566e-05
3.96437e-05
3.90459e-05
3.87082e-05
3.85718e-05
3.86867e-05
3.88197e-05
3.89743e-05
3.90789e-05
3.91369e-05
3.9163e-05
3.9169e-05
3.9195e-05
3.92443e-05
3.93368e-05
3.94661e-05
3.96329e-05
3.98254e-05
4.00346e-05
4.02468e-05
4.04657e-05
4.06787e-05
4.08144e-05
4.09294e-05
4.10918e-05
4.11545e-05
4.12163e-05
4.12244e-05
4.12093e-05
4.11575e-05
4.10745e-05
4.09594e-05
4.08145e-05
4.064e-05
4.04372e-05
4.02062e-05
3.9947e-05
3.96602e-05
3.93459e-05
3.90033e-05
3.863e-05
3.82108e-05
3.76853e-05
3.70086e-05
3.61553e-05
3.5122e-05
3.39507e-05
3.27634e-05
3.16994e-05
3.16907e-05
3.31163e-05
3.49303e-05
3.70769e-05
3.87388e-05
3.93098e-05
3.94464e-05
3.93929e-05
3.72388e-05
3.39621e-05
2.99329e-05
2.56036e-05
2.13013e-05
1.65512e-05
1.06196e-05
3.48734e-06
3.8969e-08
2.86374e-07
1.34049e-05
2.95837e-05
3.87007e-05
4.29323e-05
4.44087e-05
4.4654e-05
4.46025e-05
4.46131e-05
4.46392e-05
4.42197e-05
4.34692e-05
4.27646e-05
4.18846e-05
4.10798e-05
4.01459e-05
3.96405e-05
3.93476e-05
3.92403e-05
3.9258e-05
3.92618e-05
3.92723e-05
3.92555e-05
3.92444e-05
3.92581e-05
3.93165e-05
3.94371e-05
3.96147e-05
3.98476e-05
4.01193e-05
4.04182e-05
4.07275e-05
4.10492e-05
4.1373e-05
4.16538e-05
4.18426e-05
4.20534e-05
4.22699e-05
4.2421e-05
4.25284e-05
4.2607e-05
4.26418e-05
4.26435e-05
4.2606e-05
4.25328e-05
4.24233e-05
4.2279e-05
4.21003e-05
4.18882e-05
4.16429e-05
4.13646e-05
4.10525e-05
4.0705e-05
4.03196e-05
3.98935e-05
3.94242e-05
3.89108e-05
3.83495e-05
3.76826e-05
3.6807e-05
3.56748e-05
3.43471e-05
3.2905e-05
3.15693e-05
3.05966e-05
3.16321e-05
3.34352e-05
3.5784e-05
3.76169e-05
3.82528e-05
3.83172e-05
3.80393e-05
3.54342e-05
3.16285e-05
2.70571e-05
2.21578e-05
1.70332e-05
1.08997e-05
3.64774e-06
4.06085e-08
3.5788e-07
1.52804e-05
3.2744e-05
4.21048e-05
4.615e-05
4.73142e-05
4.7243e-05
4.68737e-05
4.6519e-05
4.5921e-05
4.50228e-05
4.42772e-05
4.33709e-05
4.24448e-05
4.12704e-05
4.04809e-05
4.00244e-05
3.97385e-05
3.95916e-05
3.95037e-05
3.94183e-05
3.93655e-05
3.93407e-05
3.93808e-05
3.94946e-05
3.96891e-05
3.99582e-05
4.02852e-05
4.06549e-05
4.10472e-05
4.14477e-05
4.18547e-05
4.22525e-05
4.26118e-05
4.29102e-05
4.3196e-05
4.34408e-05
4.36721e-05
4.38739e-05
4.40161e-05
4.41236e-05
4.41889e-05
4.42146e-05
4.41982e-05
4.41407e-05
4.40418e-05
4.39024e-05
4.37229e-05
4.35046e-05
4.32484e-05
4.29551e-05
4.26246e-05
4.22557e-05
4.18455e-05
4.13888e-05
4.08792e-05
4.03097e-05
3.96762e-05
3.89812e-05
3.82289e-05
3.73233e-05
3.61475e-05
3.46921e-05
3.30535e-05
3.14213e-05
3.01419e-05
3.04006e-05
3.22099e-05
3.4649e-05
3.65558e-05
3.71769e-05
3.70771e-05
3.63883e-05
3.32409e-05
2.89044e-05
2.37282e-05
1.81332e-05
1.17573e-05
4.13156e-06
4.70648e-08
4.34581e-07
1.71025e-05
3.56998e-05
4.52544e-05
4.9094e-05
4.99234e-05
4.94875e-05
4.87266e-05
4.78347e-05
4.67217e-05
4.59265e-05
4.48353e-05
4.37814e-05
4.24323e-05
4.13613e-05
4.06626e-05
4.02166e-05
3.99104e-05
3.97127e-05
3.95678e-05
3.94726e-05
3.94559e-05
3.95229e-05
3.96936e-05
3.99588e-05
4.03079e-05
4.07202e-05
4.11741e-05
4.1651e-05
4.21338e-05
4.26109e-05
4.30727e-05
4.35068e-05
4.3905e-05
4.42835e-05
4.46251e-05
4.49278e-05
4.51755e-05
4.53991e-05
4.56234e-05
4.57639e-05
4.58688e-05
4.59271e-05
4.59376e-05
4.59001e-05
4.58133e-05
4.56776e-05
4.54935e-05
4.52625e-05
4.49865e-05
4.46682e-05
4.43097e-05
4.39126e-05
4.34768e-05
4.29991e-05
4.24724e-05
4.18852e-05
4.12232e-05
4.04729e-05
3.96298e-05
3.87092e-05
3.76926e-05
3.64588e-05
3.4869e-05
3.30989e-05
3.13034e-05
2.9788e-05
2.94265e-05
3.11699e-05
3.36518e-05
3.55145e-05
3.59856e-05
3.57252e-05
3.42547e-05
3.05861e-05
2.55995e-05
1.97613e-05
1.30561e-05
5.01944e-06
6.21146e-08
5.13985e-07
1.88304e-05
3.84117e-05
4.81245e-05
5.17474e-05
5.22256e-05
5.13888e-05
5.01449e-05
4.87353e-05
4.78331e-05
4.63825e-05
4.51931e-05
4.36635e-05
4.23397e-05
4.13608e-05
4.07084e-05
4.02555e-05
3.99341e-05
3.97225e-05
3.95965e-05
3.95742e-05
3.96708e-05
3.98841e-05
4.02104e-05
4.06259e-05
4.11095e-05
4.16361e-05
4.21855e-05
4.27414e-05
4.32912e-05
4.38262e-05
4.43397e-05
4.48265e-05
4.52855e-05
4.57178e-05
4.61153e-05
4.65009e-05
4.6829e-05
4.70685e-05
4.73274e-05
4.7562e-05
4.77026e-05
4.78055e-05
4.78486e-05
4.78357e-05
4.77631e-05
4.76306e-05
4.7438e-05
4.71868e-05
4.68796e-05
4.65201e-05
4.61133e-05
4.56644e-05
4.51783e-05
4.46576e-05
4.41011e-05
4.35012e-05
4.28422e-05
4.21001e-05
4.1246e-05
4.02566e-05
3.91348e-05
3.78782e-05
3.64558e-05
3.48508e-05
3.29759e-05
3.10857e-05
2.93222e-05
2.86006e-05
3.02242e-05
3.28189e-05
3.43938e-05
3.45851e-05
3.42433e-05
3.16853e-05
2.72495e-05
2.15226e-05
1.46208e-05
6.02185e-06
8.5469e-08
5.93609e-07
2.04284e-05
4.08544e-05
5.07054e-05
5.41019e-05
5.42306e-05
5.29058e-05
5.12552e-05
5.00213e-05
4.82092e-05
4.67639e-05
4.50402e-05
4.34588e-05
4.21909e-05
4.12806e-05
4.06514e-05
4.02023e-05
3.99003e-05
3.97341e-05
3.96978e-05
3.98051e-05
4.00514e-05
4.04201e-05
4.089e-05
4.14312e-05
4.20202e-05
4.26343e-05
4.3258e-05
4.38791e-05
4.44896e-05
4.50843e-05
4.56595e-05
4.62128e-05
4.67426e-05
4.72464e-05
4.77197e-05
4.81727e-05
4.85994e-05
4.89e-05
4.91815e-05
4.9513e-05
4.97082e-05
4.98595e-05
4.99428e-05
4.99598e-05
4.99063e-05
4.97804e-05
4.95812e-05
4.93089e-05
4.89657e-05
4.85555e-05
4.80846e-05
4.75608e-05
4.69935e-05
4.63921e-05
4.57642e-05
4.51128e-05
4.44324e-05
4.37055e-05
4.28998e-05
4.19689e-05
4.08622e-05
3.95975e-05
3.81577e-05
3.62887e-05
3.4545e-05
3.27213e-05
3.07197e-05
2.87199e-05
2.78391e-05
2.94258e-05
3.19417e-05
3.32425e-05
3.29842e-05
3.20546e-05
2.83707e-05
2.30453e-05
1.61984e-05
7.04203e-06
1.15149e-07
6.72077e-07
2.18456e-05
4.30224e-05
5.30333e-05
5.61303e-05
5.5737e-05
5.41346e-05
5.24564e-05
5.03781e-05
4.85797e-05
4.6641e-05
4.47855e-05
4.32074e-05
4.2002e-05
4.11426e-05
4.05391e-05
4.01262e-05
3.9891e-05
3.9825e-05
3.99235e-05
4.01825e-05
4.05794e-05
4.10867e-05
4.1675e-05
4.23159e-05
4.29883e-05
4.36751e-05
4.43652e-05
4.50512e-05
4.57284e-05
4.63936e-05
4.70441e-05
4.76774e-05
4.82902e-05
4.88782e-05
4.94366e-05
4.99656e-05
5.04805e-05
5.08784e-05
5.12036e-05
5.159e-05
5.18698e-05
5.20674e-05
5.21976e-05
5.225e-05
5.22223e-05
5.21105e-05
5.19123e-05
5.16265e-05
5.12535e-05
5.07961e-05
5.02596e-05
4.96524e-05
4.89859e-05
4.82741e-05
4.75321e-05
4.67739e-05
4.60086e-05
4.52352e-05
4.44365e-05
4.35738e-05
4.2584e-05
4.13852e-05
4.00086e-05
3.83547e-05
3.61103e-05
3.41225e-05
3.23176e-05
3.01907e-05
2.79963e-05
2.71473e-05
2.87025e-05
3.0926e-05
3.19045e-05
3.11095e-05
2.8859e-05
2.41526e-05
1.75856e-05
7.95182e-06
1.49301e-07
7.47563e-07
2.31117e-05
4.49218e-05
5.49441e-05
5.76609e-05
5.70979e-05
5.55292e-05
5.32474e-05
5.07469e-05
4.85475e-05
4.6397e-05
4.44781e-05
4.29341e-05
4.17894e-05
4.09783e-05
4.04229e-05
4.00865e-05
3.996e-05
4.00287e-05
4.02773e-05
4.06834e-05
4.12134e-05
4.18353e-05
4.25195e-05
4.32424e-05
4.39874e-05
4.47431e-05
4.55025e-05
4.62613e-05
4.70162e-05
4.77643e-05
4.85022e-05
4.92256e-05
4.99293e-05
5.06076e-05
5.1254e-05
5.18677e-05
5.247e-05
5.29536e-05
5.33301e-05
5.37712e-05
5.41319e-05
5.43773e-05
5.45562e-05
5.46483e-05
5.46528e-05
5.45641e-05
5.43785e-05
5.40927e-05
5.37052e-05
5.3216e-05
5.26283e-05
5.19483e-05
5.11866e-05
5.03581e-05
4.94819e-05
4.85797e-05
4.76731e-05
4.67788e-05
4.59018e-05
4.50272e-05
4.41115e-05
4.30744e-05
4.17989e-05
4.03192e-05
3.8253e-05
3.57941e-05
3.35807e-05
3.1749e-05
2.94209e-05
2.69961e-05
2.65786e-05
2.81806e-05
2.97156e-05
2.99412e-05
2.88592e-05
2.48243e-05
1.86555e-05
8.68152e-06
1.86337e-07
8.17227e-07
2.41915e-05
4.64477e-05
5.64166e-05
5.88806e-05
5.85087e-05
5.63444e-05
5.35322e-05
5.0944e-05
4.83772e-05
4.60847e-05
4.41502e-05
4.26565e-05
4.1573e-05
4.0822e-05
4.03458e-05
4.01204e-05
4.01283e-05
4.03429e-05
4.07355e-05
4.12713e-05
4.19131e-05
4.26296e-05
4.33952e-05
4.41919e-05
4.50083e-05
4.58372e-05
4.66742e-05
4.7516e-05
4.83592e-05
4.91994e-05
5.00314e-05
5.08489e-05
5.16448e-05
5.24119e-05
5.31429e-05
5.38384e-05
5.45191e-05
5.50746e-05
5.55028e-05
5.59945e-05
5.64253e-05
5.67177e-05
5.69429e-05
5.70764e-05
5.71175e-05
5.70598e-05
5.68984e-05
5.66282e-05
5.62453e-05
5.5747e-05
5.51327e-05
5.44053e-05
5.35717e-05
5.26444e-05
5.16417e-05
5.05882e-05
4.95131e-05
4.84465e-05
4.74139e-05
4.64274e-05
4.54755e-05
4.45111e-05
4.3441e-05
4.21175e-05
4.04011e-05
3.79312e-05
3.53041e-05
3.2925e-05
3.0982e-05
2.83352e-05
2.57432e-05
2.59201e-05
2.77057e-05
2.87551e-05
2.77331e-05
2.50137e-05
1.93617e-05
9.2307e-06
2.24994e-07
8.78529e-07
2.50574e-05
4.75967e-05
5.75203e-05
6.01004e-05
5.95156e-05
5.70219e-05
5.38972e-05
5.0884e-05
4.81177e-05
4.57404e-05
4.38227e-05
4.23887e-05
4.13735e-05
4.0703e-05
4.03344e-05
4.02412e-05
4.03914e-05
4.0746e-05
4.12666e-05
4.19128e-05
4.2649e-05
4.34474e-05
4.42881e-05
4.51583e-05
4.60506e-05
4.69603e-05
4.78838e-05
4.88169e-05
4.97545e-05
5.069e-05
5.1616e-05
5.25242e-05
5.34062e-05
5.42538e-05
5.50595e-05
5.58236e-05
5.65703e-05
5.71875e-05
5.76583e-05
5.81907e-05
5.86798e-05
5.90144e-05
5.92809e-05
5.94541e-05
5.95332e-05
5.95117e-05
5.93836e-05
5.91427e-05
5.87831e-05
5.82991e-05
5.76867e-05
5.69441e-05
5.60733e-05
5.50817e-05
5.39832e-05
5.28002e-05
5.15632e-05
5.03095e-05
4.90789e-05
4.79059e-05
4.68092e-05
4.57778e-05
4.47575e-05
4.36384e-05
4.22455e-05
4.02143e-05
3.74119e-05
3.46418e-05
3.21543e-05
2.99803e-05
2.70004e-05
2.4741e-05
2.52462e-05
2.64716e-05
2.67276e-05
2.49137e-05
1.97206e-05
9.56003e-06
2.65488e-07
9.30064e-07
2.57147e-05
4.84194e-05
5.83881e-05
6.10062e-05
6.02322e-05
5.73079e-05
5.39938e-05
5.07222e-05
4.78069e-05
4.53885e-05
4.35093e-05
4.21436e-05
4.12089e-05
4.06401e-05
4.03978e-05
4.04436e-05
4.07307e-05
4.12117e-05
4.18428e-05
4.25838e-05
4.34029e-05
4.42775e-05
4.5193e-05
4.61407e-05
4.71154e-05
4.8113e-05
4.91288e-05
5.01566e-05
5.11886e-05
5.2216e-05
5.32292e-05
5.42186e-05
5.5175e-05
5.609e-05
5.69565e-05
5.77708e-05
5.85695e-05
5.92418e-05
5.97398e-05
6.02993e-05
6.08356e-05
6.12049e-05
6.15054e-05
6.1714e-05
6.18293e-05
6.18452e-05
6.17556e-05
6.15536e-05
6.12318e-05
6.07824e-05
6.0198e-05
5.94724e-05
5.86022e-05
5.75881e-05
5.64374e-05
5.51661e-05
5.38005e-05
5.23784e-05
5.09467e-05
4.95564e-05
4.82521e-05
4.70582e-05
4.5961e-05
4.489e-05
4.36989e-05
4.21097e-05
3.95956e-05
3.66607e-05
3.38496e-05
3.12211e-05
2.8636e-05
2.52994e-05
2.39815e-05
2.48417e-05
2.55323e-05
2.41625e-05
1.9735e-05
9.7042e-06
3.07107e-07
9.71093e-07
2.61687e-05
4.89651e-05
5.89785e-05
6.16768e-05
6.0749e-05
5.7669e-05
5.39867e-05
5.04939e-05
4.74723e-05
4.50454e-05
4.32198e-05
4.19314e-05
4.10913e-05
4.06401e-05
4.05316e-05
4.07122e-05
4.11244e-05
4.17164e-05
4.24435e-05
4.32686e-05
4.41649e-05
4.51149e-05
4.61081e-05
4.71384e-05
4.8201e-05
4.92903e-05
5.03994e-05
5.15195e-05
5.264e-05
5.37501e-05
5.48389e-05
5.58958e-05
5.69118e-05
5.78787e-05
5.879e-05
5.96401e-05
6.04735e-05
6.11964e-05
6.17052e-05
6.2276e-05
6.28496e-05
6.32448e-05
6.3571e-05
6.38083e-05
6.39551e-05
6.40062e-05
6.3956e-05
6.37974e-05
6.35224e-05
6.31217e-05
6.25856e-05
6.19041e-05
6.10687e-05
6.00735e-05
5.89176e-05
5.76082e-05
5.61634e-05
5.46148e-05
5.30085e-05
5.14029e-05
4.98618e-05
4.84407e-05
4.71701e-05
4.60347e-05
4.49559e-05
4.37744e-05
4.16937e-05
3.87163e-05
3.5832e-05
3.28411e-05
3.00397e-05
2.68407e-05
2.35019e-05
2.31021e-05
2.3422e-05
2.319e-05
1.96238e-05
9.85722e-06
3.53573e-07
1.00144e-06
2.64316e-05
4.92731e-05
5.93129e-05
6.21758e-05
6.09908e-05
5.77787e-05
5.38879e-05
5.02246e-05
4.7133e-05
4.47215e-05
4.29608e-05
4.17591e-05
4.10258e-05
4.07004e-05
4.07239e-05
4.10292e-05
4.1553e-05
4.22426e-05
4.30553e-05
4.39583e-05
4.493e-05
4.5957e-05
4.70317e-05
4.81483e-05
4.93007e-05
5.04812e-05
5.16797e-05
5.28846e-05
5.40834e-05
5.52636e-05
5.64137e-05
5.75232e-05
5.85835e-05
5.95872e-05
6.05286e-05
6.14028e-05
6.22544e-05
6.30174e-05
6.35296e-05
6.40951e-05
6.46969e-05
6.51096e-05
6.54525e-05
6.57106e-05
6.58822e-05
6.59634e-05
6.59493e-05
6.58336e-05
6.56083e-05
6.52638e-05
6.47887e-05
6.41707e-05
6.33969e-05
6.24555e-05
6.13378e-05
6.00411e-05
5.85727e-05
5.69535e-05
5.52219e-05
5.34346e-05
5.16635e-05
4.99853e-05
4.84632e-05
4.71229e-05
4.59276e-05
4.4755e-05
4.33787e-05
4.08175e-05
3.76811e-05
3.47027e-05
3.14724e-05
2.84865e-05
2.4527e-05
2.23846e-05
2.23587e-05
2.24785e-05
1.95084e-05
1.02395e-05
4.14017e-07
1.0216e-06
2.65295e-05
4.9329e-05
5.93625e-05
6.23417e-05
6.12532e-05
5.77976e-05
5.37268e-05
4.99344e-05
4.68022e-05
4.44235e-05
4.27365e-05
4.16299e-05
4.10111e-05
4.08124e-05
4.09603e-05
4.13784e-05
4.20014e-05
4.27783e-05
4.36697e-05
4.46476e-05
4.56949e-05
4.68011e-05
4.79595e-05
4.91632e-05
5.04038e-05
5.16705e-05
5.29503e-05
5.42294e-05
5.54937e-05
5.67301e-05
5.79272e-05
5.90753e-05
6.01663e-05
6.11943e-05
6.21546e-05
6.30436e-05
6.38934e-05
6.46795e-05
6.521e-05
6.57484e-05
6.63691e-05
6.67922e-05
6.71434e-05
6.74137e-05
6.76021e-05
6.7706e-05
6.77218e-05
6.76443e-05
6.74663e-05
6.71786e-05
6.67697e-05
6.62257e-05
6.5531e-05
6.4669e-05
6.36243e-05
6.23849e-05
6.09463e-05
5.93161e-05
5.752e-05
5.56056e-05
5.36438e-05
5.17239e-05
4.9939e-05
4.83622e-05
4.70175e-05
4.58525e-05
4.47167e-05
4.27056e-05
3.95877e-05
3.65503e-05
3.3212e-05
2.96969e-05
2.60993e-05
2.21965e-05
2.1097e-05
2.08641e-05
1.91713e-05
1.08922e-05
4.95333e-07
1.0316e-06
2.64591e-05
4.91283e-05
5.92908e-05
6.24702e-05
6.12801e-05
5.77265e-05
5.35236e-05
4.96384e-05
4.64887e-05
4.41553e-05
4.25488e-05
4.15433e-05
4.1042e-05
4.09655e-05
4.12276e-05
4.17468e-05
4.24589e-05
4.33155e-05
4.42812e-05
4.53328e-05
4.64562e-05
4.76427e-05
4.88845e-05
5.01729e-05
5.14964e-05
5.2841e-05
5.41916e-05
5.55325e-05
5.68491e-05
5.81284e-05
5.93597e-05
6.05342e-05
6.16451e-05
6.26877e-05
6.36584e-05
6.45552e-05
6.53888e-05
6.61847e-05
6.67487e-05
6.72446e-05
6.78698e-05
6.82995e-05
6.86514e-05
6.89257e-05
6.91223e-05
6.92402e-05
6.92773e-05
6.923e-05
6.90926e-05
6.88571e-05
6.85126e-05
6.8045e-05
6.74375e-05
6.66703e-05
6.57228e-05
6.4575e-05
6.32113e-05
6.16255e-05
5.98273e-05
5.78489e-05
5.57506e-05
5.36206e-05
5.15667e-05
4.96939e-05
4.80721e-05
4.67014e-05
4.54836e-05
4.42067e-05
4.15346e-05
3.82157e-05
3.50285e-05
3.15087e-05
2.75693e-05
2.31959e-05
2.07841e-05
1.95156e-05
1.8712e-05
1.15634e-05
5.9649e-07
1.03097e-06
2.6289e-05
4.88742e-05
5.90677e-05
6.24626e-05
6.12055e-05
5.75872e-05
5.32944e-05
4.93476e-05
4.61985e-05
4.3919e-05
4.23976e-05
4.14965e-05
4.1111e-05
4.11491e-05
4.15148e-05
4.2125e-05
4.29179e-05
4.38486e-05
4.48859e-05
4.60102e-05
4.72096e-05
4.84752e-05
4.97977e-05
5.11653e-05
5.25635e-05
5.39759e-05
5.53855e-05
5.67759e-05
5.81326e-05
5.94432e-05
6.06981e-05
6.18895e-05
6.30121e-05
6.40618e-05
6.5036e-05
6.5933e-05
6.67519e-05
6.75451e-05
6.81509e-05
6.86116e-05
6.92081e-05
6.96475e-05
6.9994e-05
7.02647e-05
7.04611e-05
7.05838e-05
7.06325e-05
7.06054e-05
7.04988e-05
7.03066e-05
7.00192e-05
6.96237e-05
6.91031e-05
6.84363e-05
6.75993e-05
6.65658e-05
6.53111e-05
6.3816e-05
6.20734e-05
6.00971e-05
5.79302e-05
5.56513e-05
5.33724e-05
5.1224e-05
4.93237e-05
4.77336e-05
4.64223e-05
4.52476e-05
4.32198e-05
3.99062e-05
3.68818e-05
3.29845e-05
2.89722e-05
2.46645e-05
2.06826e-05
1.90175e-05
1.83119e-05
1.21941e-05
7.13269e-07
1.02542e-06
2.60225e-05
4.84495e-05
5.86513e-05
6.22442e-05
6.10294e-05
5.73947e-05
5.30515e-05
4.907e-05
4.59353e-05
4.37154e-05
4.22815e-05
4.14849e-05
4.12106e-05
4.13541e-05
4.18133e-05
4.2506e-05
4.33731e-05
4.43736e-05
4.548e-05
4.66756e-05
4.79492e-05
4.92907e-05
5.06884e-05
5.21275e-05
5.35909e-05
5.50601e-05
5.65173e-05
5.79461e-05
5.93324e-05
6.06651e-05
6.19356e-05
6.31376e-05
6.42664e-05
6.53189e-05
6.62928e-05
6.71863e-05
6.79978e-05
6.87779e-05
6.94267e-05
6.98557e-05
7.04118e-05
7.08569e-05
7.11937e-05
7.14543e-05
7.16428e-05
7.17613e-05
7.18115e-05
7.17936e-05
7.17063e-05
7.15457e-05
7.13045e-05
7.09715e-05
7.05309e-05
6.99619e-05
6.92386e-05
6.83311e-05
6.72073e-05
6.58369e-05
6.41974e-05
6.22825e-05
6.01136e-05
5.77497e-05
5.52937e-05
5.2885e-05
5.06737e-05
4.87751e-05
4.72157e-05
4.58917e-05
4.45571e-05
4.16886e-05
3.83068e-05
3.49551e-05
3.05639e-05
2.60316e-05
2.09303e-05
1.85546e-05
1.72672e-05
1.28304e-05
8.31949e-07
1.01316e-06
2.57001e-05
4.7768e-05
5.81219e-05
6.18951e-05
6.07677e-05
5.71615e-05
5.28045e-05
4.88114e-05
4.57013e-05
4.3544e-05
4.2198e-05
4.15033e-05
4.13334e-05
4.1573e-05
4.21168e-05
4.28844e-05
4.38202e-05
4.48867e-05
4.60596e-05
4.73239e-05
4.8668e-05
5.00801e-05
5.15458e-05
5.30475e-05
5.45659e-05
5.60814e-05
5.7576e-05
5.90336e-05
6.04415e-05
6.17897e-05
6.30707e-05
6.42795e-05
6.54123e-05
6.64666e-05
6.74403e-05
6.83322e-05
6.91409e-05
6.98986e-05
7.05743e-05
7.09998e-05
7.15046e-05
7.19503e-05
7.22742e-05
7.25196e-05
7.26933e-05
7.27994e-05
7.28414e-05
7.28218e-05
7.27416e-05
7.25996e-05
7.23912e-05
7.21078e-05
7.17357e-05
7.12554e-05
7.06412e-05
6.98613e-05
6.8879e-05
6.76553e-05
6.61541e-05
6.43507e-05
6.22429e-05
5.98653e-05
5.73018e-05
5.46884e-05
5.21976e-05
4.9997e-05
4.81886e-05
4.67515e-05
4.55138e-05
4.31608e-05
3.96925e-05
3.68071e-05
3.1982e-05
2.73433e-05
2.2261e-05
1.84915e-05
1.61838e-05
1.33001e-05
9.25105e-07
9.94101e-07
2.52842e-05
4.7019e-05
5.75015e-05
6.14302e-05
6.04333e-05
5.68975e-05
5.25603e-05
4.85757e-05
4.54978e-05
4.34039e-05
4.2144e-05
4.15466e-05
4.14732e-05
4.18e-05
4.24202e-05
4.32562e-05
4.42556e-05
4.53841e-05
4.66202e-05
4.79491e-05
4.93587e-05
5.08346e-05
5.23599e-05
5.39147e-05
5.54782e-05
5.70306e-05
5.85538e-05
6.0033e-05
6.14567e-05
6.2816e-05
6.41051e-05
6.53195e-05
6.64564e-05
6.75135e-05
6.84892e-05
6.93822e-05
7.01917e-05
7.09239e-05
7.16152e-05
7.2057e-05
7.25066e-05
7.29479e-05
7.3257e-05
7.34832e-05
7.36368e-05
7.37234e-05
7.37484e-05
7.37167e-05
7.36319e-05
7.34954e-05
7.33058e-05
7.30573e-05
7.27393e-05
7.23346e-05
7.1819e-05
7.11607e-05
7.03205e-05
6.92537e-05
6.79137e-05
6.6259e-05
6.42648e-05
6.19381e-05
5.93352e-05
5.6574e-05
5.38308e-05
5.13074e-05
4.91668e-05
4.74577e-05
4.60632e-05
4.43848e-05
4.09959e-05
3.82321e-05
3.3957e-05
2.87782e-05
2.35628e-05
1.89018e-05
1.56025e-05
1.34844e-05
9.66987e-07
9.69316e-07
2.47647e-05
4.61591e-05
5.67862e-05
6.08714e-05
6.00386e-05
5.66109e-05
5.23243e-05
4.83657e-05
4.53253e-05
4.32938e-05
4.21164e-05
4.16102e-05
4.16249e-05
4.20302e-05
4.27195e-05
4.36177e-05
4.46757e-05
4.58621e-05
4.71568e-05
4.85453e-05
5.00137e-05
5.15457e-05
5.31217e-05
5.47204e-05
5.63202e-05
5.79012e-05
5.94462e-05
6.09416e-05
6.23772e-05
6.37457e-05
6.50419e-05
6.62626e-05
6.74051e-05
6.84673e-05
6.94475e-05
7.03435e-05
7.11537e-05
7.1876e-05
7.25697e-05
7.30347e-05
7.34328e-05
7.38661e-05
7.41591e-05
7.43637e-05
7.44929e-05
7.45542e-05
7.45551e-05
7.45023e-05
7.44022e-05
7.4259e-05
7.40744e-05
7.38461e-05
7.35667e-05
7.32222e-05
7.27909e-05
7.22427e-05
7.15379e-05
7.06286e-05
6.94608e-05
6.79799e-05
6.61405e-05
6.39222e-05
6.13495e-05
5.85129e-05
5.55783e-05
5.27688e-05
5.0307e-05
4.83253e-05
4.67827e-05
4.54308e-05
4.24961e-05
3.94421e-05
3.58836e-05
2.99814e-05
2.45786e-05
1.88972e-05
1.57315e-05
1.34719e-05
9.73882e-07
9.402e-07
2.42113e-05
4.52136e-05
5.59831e-05
6.02346e-05
5.95944e-05
5.63085e-05
5.21003e-05
4.81831e-05
4.51837e-05
4.3212e-05
4.21118e-05
4.16895e-05
4.1784e-05
4.22597e-05
4.3011e-05
4.39656e-05
4.50771e-05
4.63164e-05
4.76644e-05
4.91062e-05
5.06262e-05
5.22059e-05
5.3824e-05
5.54581e-05
5.70862e-05
5.86891e-05
6.02506e-05
6.17586e-05
6.32041e-05
6.45809e-05
6.5885e-05
6.71135e-05
6.8264e-05
6.93343e-05
7.03219e-05
7.12242e-05
7.20381e-05
7.27609e-05
7.3446e-05
7.39393e-05
7.42932e-05
7.47156e-05
7.4992e-05
7.51736e-05
7.52756e-05
7.53075e-05
7.52784e-05
7.51973e-05
7.50729e-05
7.49123e-05
7.47204e-05
7.44984e-05
7.42425e-05
7.39422e-05
7.35794e-05
7.31263e-05
7.2545e-05
7.17865e-05
7.07924e-05
6.94984e-05
6.78422e-05
6.57776e-05
6.32961e-05
6.04527e-05
5.73876e-05
5.43254e-05
5.15303e-05