/*--------------------------------*- C++ -*----------------------------------*\
  =========                 |
  \\      /  F ield         | OpenFOAM: The Open Source CFD Toolbox
   \\    /   O peration     | Website:  https://openfoam.org
    \\  /    A nd           | Version:  13
     \\/     M anipulation  |
\*---------------------------------------------------------------------------*/
FoamFile
{
    format      ascii;
    class       volScalarField;
    location    "6.8";
    object      p;
}
// * * * * * * * * * * * * * * * * * * * * * * * * * * * * * * * * * * * * * //

dimensions      [0 2 -2 0 0 0 0];

internalField   nonuniform List<scalar> 
6400
(
3.7531e-09
1.95192e-05
2.83663e-05
1.355e-05
-3.01752e-05
-9.78568e-05
-0.000179948
-0.000267455
-0.000354134
-0.000436919
-0.000516479
-0.000596901
-0.000682827
-0.000779396
-0.000891688
-0.00102374
-0.00117849
-0.00135768
-0.00156255
-0.00179382
-0.00205193
-0.00233811
-0.00265512
-0.00300736
-0.00340115
-0.00384108
-0.00432339
-0.0048392
-0.00536763
-0.00587298
-0.00634932
-0.00680447
-0.00723623
-0.00764188
-0.00801633
-0.00835134
-0.00863596
-0.00885742
-0.00900219
-0.00905676
-0.00900824
-0.00884545
-0.00855988
-0.0081465
-0.00760211
-0.00692034
-0.00609493
-0.00513921
-0.00406937
-0.00289274
-0.00162897
-0.000298774
0.00106956
0.00244427
0.00378598
0.00504971
0.0061909
0.00716797
0.00794073
0.00847686
0.00875663
0.00877621
0.00854748
0.00809276
0.0074664
0.00672253
0.00592581
0.00513966
0.00442149
0.00380214
0.00331684
0.0029788
0.0027583
0.00262853
0.00257196
0.00256436
0.00258623
0.00262226
0.00266168
0.00268878
-1.47612e-05
5.16719e-06
9.49606e-06
-1.02265e-05
-5.67783e-05
-0.000124436
-0.000202732
-0.000283203
-0.000360933
-0.000434594
-0.000506122
-0.000579527
-0.000659629
-0.00075107
-0.000857669
-0.000982902
-0.00113006
-0.00130166
-0.0014984
-0.00172057
-0.00196728
-0.00223883
-0.00253813
-0.00286792
-0.00323122
-0.00363477
-0.00408631
-0.00458515
-0.00511834
-0.00566258
-0.00618924
-0.00668796
-0.00716068
-0.00760431
-0.00801332
-0.00837935
-0.00869159
-0.00893787
-0.00910536
-0.00918171
-0.00915513
-0.00901554
-0.00875503
-0.00836734
-0.00784712
-0.00719029
-0.00640548
-0.00549791
-0.00446864
-0.0033337
-0.00211105
-0.000823021
0.000503133
0.00183486
0.00313481
0.00436315
0.00547762
0.00643606
0.00720174
0.00774376
0.00804193
0.00809158
0.00790376
0.00750458
0.00693779
0.00625735
0.00552552
0.00480194
0.00413997
0.00358186
0.00314796
0.00284589
0.00266356
0.00257669
0.00256028
0.00258899
0.00263149
0.00266988
0.00270218
0.00272791
-3.06259e-05
-8.44251e-06
-9.62309e-06
-3.83163e-05
-9.27796e-05
-0.000163061
-0.000237677
-0.000308483
-0.000372751
-0.000432123
-0.000490232
-0.000551974
-0.000622348
-0.000705106
-0.000802698
-0.000916897
-0.00104924
-0.00120194
-0.00137726
-0.00157786
-0.00180725
-0.00206869
-0.00236635
-0.00270503
-0.00308907
-0.00352092
-0.00400114
-0.00452628
-0.00508618
-0.00566376
-0.00623915
-0.00679615
-0.00732519
-0.00781967
-0.00827279
-0.00867577
-0.00901865
-0.00929072
-0.00948065
-0.00957724
-0.00957042
-0.00945133
-0.00921267
-0.00884904
-0.00835822
-0.00774026
-0.0069863
-0.00611153
-0.0051223
-0.00402981
-0.0028501
-0.00160404
-0.000317426
0.000979229
0.00225109
0.00346034
0.0045655
0.00552518
0.00630334
0.00687009
0.0072048
0.00730047
0.00716737
0.00683068
0.00633131
0.0057217
0.00505352
0.00439582
0.00379323
0.00328433
0.00289395
0.00263734
0.00250283
0.00246311
0.00248404
0.00254337
0.00261179
0.00266945
0.00271661
0.00275355
-3.91924e-05
-1.7787e-05
-2.6325e-05
-6.60665e-05
-0.000130603
-0.00020417
-0.000275301
-0.000337476
-0.000389281
-0.000432858
-0.000474332
-0.000520338
-0.000576344
-0.000646052
-0.000731214
-0.000832587
-0.000951475
-0.00109064
-0.00125391
-0.00144671
-0.00167594
-0.00194931
-0.00227428
-0.0026535
-0.00308938
-0.00358324
-0.00413145
-0.00472404
-0.00534567
-0.0059798
-0.00661001
-0.00722118
-0.00780081
-0.00833975
-0.00882974
-0.00926176
-0.00962714
-0.00991641
-0.0101197
-0.0102274
-0.0102309
-0.0101226
-0.00989586
-0.00954628
-0.00907228
-0.00847312
-0.00774746
-0.00690063
-0.00593959
-0.00487508
-0.00372222
-0.00250055
-0.00123389
4.98821e-05
0.00131843
0.00253446
0.00365701
0.00464609
0.00546382
0.00607904
0.00646995
0.00662555
0.00655318
0.00627755
0.00583699
0.00528001
0.00466238
0.00404483
0.00347773
0.00300047
0.00263763
0.00240095
0.00228328
0.00226905
0.00233014
0.00242492
0.00252513
0.002613
0.00268404
0.00273334
-3.37932e-05
-1.94997e-05
-3.80105e-05
-8.9198e-05
-0.000163314
-0.000239878
-0.000307511
-0.000361139
-0.00040075
-0.000430533
-0.000457617
-0.000489535
-0.000532192
-0.000589228
-0.000662747
-0.000754517
-0.000867549
-0.00100747
-0.00118126
-0.00139686
-0.00166406
-0.0019884
-0.00237468
-0.00282735
-0.00334598
-0.00392496
-0.00455454
-0.00522054
-0.00590567
-0.0065938
-0.0072695
-0.00792034
-0.00853572
-0.00910522
-0.00961984
-0.010071
-0.0104506
-0.01075
-0.0109609
-0.011075
-0.0110853
-0.0109855
-0.0107697
-0.0104338
-0.00997669
-0.00939784
-0.0086976
-0.00787834
-0.00694482
-0.00590675
-0.00477851
-0.00357846
-0.00232753
-0.00104971
0.000225797
0.00146129
0.00261535
0.00365113
0.00453027
0.00521817
0.0056911
0.00593381
0.00594727
0.00575078
0.00538339
0.00489119
0.00432818
0.00375189
0.00321559
0.00276093
0.00241526
0.00218989
0.00208205
0.00207576
0.00214681
0.0022617
0.00238726
0.00250252
0.002596
0.00265447
-5.81048e-06
-5.1006e-06
-3.58649e-05
-0.000100732
-0.000183112
-0.0002609
-0.000324646
-0.000370744
-0.000400359
-0.000419462
-0.000436287
-0.000458813
-0.000493096
-0.000543419
-0.000613507
-0.000707658
-0.000832271
-0.000996002
-0.00120968
-0.00148046
-0.00181588
-0.00222327
-0.00270431
-0.00325624
-0.00387051
-0.00453545
-0.00523895
-0.00596737
-0.00670551
-0.0074383
-0.00815169
-0.00883407
-0.00947536
-0.0100661
-0.0105978
-0.011062
-0.0114508
-0.0117571
-0.0119738
-0.0120934
-0.0121114
-0.0120228
-0.0118225
-0.0115066
-0.0110754
-0.0105269
-0.009861
-0.00907956
-0.00818617
-0.00718766
-0.00609607
-0.00492759
-0.00369861
-0.00242898
-0.00114656
0.000108857
0.00129933
0.00239371
0.00335183
0.00413384
0.00471573
0.00507728
0.00521399
0.00513533
0.00487429
0.00447716
0.0039956
0.00348327
0.00299349
0.0025707
0.00224506
0.00203076
0.00192708
0.00192087
0.00198983
0.00210564
0.00223797
0.00236335
0.00246635
0.00252787
5.49516e-05
3.8425e-05
-8.28769e-06
-8.99136e-05
-0.000177637
-0.000255822
-0.000316399
-0.000357084
-0.000380977
-0.000395261
-0.000408766
-0.000429715
-0.000464806
-0.000520028
-0.000602037
-0.000718202
-0.000878723
-0.00109548
-0.0013767
-0.00173104
-0.00216505
-0.00268034
-0.00326841
-0.00391877
-0.00462145
-0.00536466
-0.0061348
-0.00691826
-0.00770147
-0.00847122
-0.00921515
-0.00992252
-0.0105837
-0.0111901
-0.0117337
-0.0122057
-0.0125989
-0.0129083
-0.0131287
-0.0132565
-0.0132869
-0.0132149
-0.0130364
-0.0127486
-0.0123503
-0.0118387
-0.0112142
-0.0104791
-0.00963849
-0.00869844
-0.00766542
-0.00654742
-0.00535856
-0.00411933
-0.00285596
-0.00159516
-0.000366456
0.000796663
0.00184417
0.00273935
0.00345754
0.00397097
0.0042698
0.00435471
0.00424737
0.00398734
0.00362456
0.00321004
0.00279446
0.00242353
0.00213037
0.00193252
0.00183256
0.00182192
0.00188052
0.00198442
0.00210682
0.00222444
0.0023217
0.0023779
0.00015856
0.000121719
5.36242e-05
-4.18289e-05
-0.000135023
-0.000214496
-0.000273987
-0.000313469
-0.000337796
-0.000355203
-0.000374959
-0.000405714
-0.000455498
-0.000533088
-0.000648052
-0.000811631
-0.0010359
-0.00133249
-0.00170958
-0.00217365
-0.00272171
-0.00334568
-0.00403522
-0.00477877
-0.00556356
-0.0063767
-0.00720514
-0.00803617
-0.00885751
-0.00965741
-0.010425
-0.0111507
-0.011825
-0.012439
-0.0129854
-0.0134578
-0.013853
-0.0141668
-0.0143951
-0.0145348
-0.0145796
-0.014525
-0.0143676
-0.0141047
-0.0137393
-0.0132669
-0.0126885
-0.0120071
-0.0112273
-0.0103542
-0.00939059
-0.00834062
-0.00721639
-0.00603535
-0.0048164
-0.00357722
-0.00233881
-0.00114255
-1.93902e-05
0.00100297
0.0018773
0.00256993
0.00306678
0.00335705
0.00345266
0.00337872
0.00317867
0.00290142
0.0025939
0.00230161
0.00206014
0.00189065
0.00179988
0.00178273
0.00182545
0.00190894
0.00200914
0.00210645
0.00218353
0.00222503
0.000310322
0.000253024
0.000160455
5.16079e-05
-4.81353e-05
-0.000130506
-0.000192589
-0.00023666
-0.000269388
-0.000299981
-0.000338193
-0.000393553
-0.000476141
-0.000597716
-0.000771208
-0.0010087
-0.00132317
-0.00172577
-0.00221947
-0.00280032
-0.00346134
-0.00419108
-0.00497656
-0.00580445
-0.00666172
-0.00753552
-0.00841367
-0.00928432
-0.0101362
-0.0109587
-0.011742
-0.0124772
-0.0131548
-0.013768
-0.0143127
-0.0147876
-0.0151892
-0.015511
-0.0157478
-0.0158939
-0.015947
-0.0159053
-0.0157677
-0.015533
-0.0151986
-0.0147667
-0.0142372
-0.0136114
-0.0128915
-0.0120804
-0.0111827
-0.0102051
-0.0091566
-0.00804923
-0.00689655
-0.00570956
-0.00450179
-0.00330112
-0.00212939
-0.00102009
-1.28835e-05
0.000870449
0.00158521
0.00211164
0.00245062
0.00261184
0.00262189
0.00252427
0.00236197
0.00217824
0.00201136
0.00188651
0.00181487
0.00179601
0.00182121
0.00187734
0.00194712
0.0020152
0.00206167
0.00208429
0.000517492
0.00043762
0.00031793
0.000194213
8.55137e-05
-2.68862e-06
-7.22279e-05
-0.000128179
-0.000179029
-0.00023492
-0.000306293
-0.000403942
-0.000540469
-0.000730451
-0.00098752
-0.00132399
-0.00175185
-0.00227527
-0.00289023
-0.00358856
-0.00435886
-0.00518666
-0.00605854
-0.00696087
-0.00788092
-0.00880624
-0.0097253
-0.010627
-0.011501
-0.0123376
-0.0131281
-0.0138647
-0.0145421
-0.0151559
-0.0157014
-0.0161744
-0.0165695
-0.0168831
-0.0171133
-0.0172582
-0.017316
-0.0172852
-0.0171657
-0.0169574
-0.0166561
-0.0162647
-0.015784
-0.0152151
-0.0145594
-0.013819
-0.012997
-0.012098
-0.0111279
-0.0100935
-0.00900223
-0.00786522
-0.00670277
-0.00553005
-0.00435909
-0.0032084
-0.00210486
-0.00107696
-0.000166101
0.00061092
0.00121608
0.00164916
0.00191499
0.0020414
0.00206471
0.00202326
0.00195564
0.00189331
0.00185327
0.00184045
0.00185114
0.00187866
0.00191394
0.00194546
0.00195857
0.00196249
0.000782907
0.000674369
0.000526756
0.000383037
0.000263495
0.000164877
8.15903e-05
5.04729e-06
-7.51834e-05
-0.000170189
-0.000291197
-0.000450855
-0.000663912
-0.000945489
-0.00130861
-0.00176393
-0.00231712
-0.00296634
-0.00370258
-0.00451321
-0.00538421
-0.00630076
-0.00724915
-0.00821598
-0.0091888
-0.0101557
-0.0111057
-0.0120285
-0.0129149
-0.0137567
-0.0145463
-0.0152779
-0.015947
-0.0165494
-0.0170816
-0.0175405
-0.0179228
-0.0182263
-0.0184499
-0.0185925
-0.0186531
-0.018631
-0.018526
-0.0183383
-0.0180664
-0.0177114
-0.0172745
-0.016757
-0.0161604
-0.0154865
-0.0147378
-0.0139175
-0.0130294
-0.0120773
-0.0110655
-0.01
-0.00889063
-0.00774721
-0.00658497
-0.00542639
-0.00428239
-0.00316648
-0.00210043
-0.00111795
-0.000251565
0.000464829
0.00101796
0.00141087
0.00166263
0.0018027
0.00186454
0.00188366
0.00188778
0.00188947
0.00189197
0.00189345
0.00189377
0.00188648
0.00186815
0.00185578
0.00109482
0.000957276
0.000775297
0.000608699
0.000474815
0.000361764
0.000257679
0.000150773
2.88658e-05
-0.000119922
-0.000308028
-0.000549422
-0.000859514
-0.0012523
-0.00173824
-0.00232329
-0.003007
-0.00378118
-0.00463268
-0.00554711
-0.00650917
-0.00750421
-0.00851842
-0.00953866
-0.0105528
-0.0115495
-0.0125187
-0.0134511
-0.0143388
-0.0151751
-0.0159541
-0.0166714
-0.0173235
-0.0179074
-0.0184208
-0.018862
-0.019229
-0.0195207
-0.0197361
-0.0198748
-0.0199363
-0.0199203
-0.0198271
-0.0196567
-0.0194094
-0.0190859
-0.0186874
-0.0182151
-0.0176706
-0.0170556
-0.0163724
-0.0156231
-0.0148104
-0.0139369
-0.0130052
-0.0120186
-0.0109811
-0.00989649
-0.00877134
-0.00761534
-0.00644216
-0.0052767
-0.00412196
-0.00299284
-0.00191775
-0.000940793
-9.60004e-05
0.000590343
0.0011107
0.00147469
0.00170539
0.00183297
0.00189488
0.00191893
0.00191813
0.00189868
0.00186732
0.00182499
0.00178061
0.00175434
0.00143931
0.00127128
0.00105047
0.000858156
0.000706317
0.000572989
0.000440069
0.000292409
0.000116307
-0.000101063
-0.000372622
-0.000713268
-0.00113718
-0.0016553
-0.00227383
-0.00299292
-0.00380545
-0.00469843
-0.00565671
-0.00666482
-0.00770714
-0.00876911
-0.009837
-0.0108981
-0.0119407
-0.0129545
-0.0139306
-0.0148612
-0.0157399
-0.0165616
-0.0173223
-0.0180189
-0.0186489
-0.0192109
-0.0197033
-0.0201251
-0.0204754
-0.0207539
-0.02096
-0.0210936
-0.0211545
-0.0211429
-0.0210592
-0.0209038
-0.0206774
-0.0203808
-0.0200153
-0.0195821
-0.0190829
-0.0185193
-0.0178931
-0.0172062
-0.0164604
-0.0156574
-0.0147987
-0.0138859
-0.0129202
-0.0119029
-0.0108354
-0.00971948
-0.00855863
-0.00736171
-0.00614326
-0.00492404
-0.00371049
-0.00253012
-0.00142596
-0.000448251
0.000365197
0.000992508
0.00143532
0.00171173
0.00185538
0.00191178
0.00191203
0.0018756
0.00181804
0.0017477
0.00168451
0.0016496
0.00179886
0.00159748
0.00133537
0.0011133
0.000939227
0.000779394
0.000609312
0.000410658
0.000168386
-0.00013053
-0.000500034
-0.000954055
-0.00150368
-0.00215557
-0.00290987
-0.00376041
-0.00469493
-0.00569759
-0.00675209
-0.00784228
-0.00895255
-0.0100685
-0.0111767
-0.0122651
-0.0133232
-0.0143419
-0.0153138
-0.0162329
-0.0170946
-0.0178955
-0.0186328
-0.019305
-0.0199107
-0.0204492
-0.0209198
-0.0213221
-0.0216559
-0.0219211
-0.0221178
-0.0222459
-0.0223057
-0.0222975
-0.0222218
-0.0220793
-0.0218708
-0.0215973
-0.02126
-0.0208603
-0.0203997
-0.01988
-0.0193027
-0.0186694
-0.0179816
-0.0172403
-0.0164463
-0.0155999
-0.0147008
-0.0137484
-0.0127414
-0.0116784
-0.0105577
-0.00937863
-0.00814322
-0.00686206
-0.00555662
-0.00423989
-0.00293736
-0.00170524
-0.00060269
0.000313599
0.00100861
0.00147964
0.00174608
0.00185536
0.00186515
0.00181481
0.0017352
0.00164341
0.0015683
0.0015283
0.00214922
0.00191307
0.00160648
0.00135261
0.00115217
0.000959618
0.00074431
0.000485494
0.00016713
-0.000224793
-0.000703905
-0.00128101
-0.00196314
-0.00275039
-0.00363706
-0.00461163
-0.00565814
-0.00675909
-0.00789742
-0.00905663
-0.0102213
-0.0113774
-0.0125122
-0.0136149
-0.0146764
-0.0156894
-0.0166482
-0.0175488
-0.0183882
-0.0191643
-0.0198759
-0.0205224
-0.0211032
-0.0216184
-0.022068
-0.0224519
-0.0227702
-0.0230232
-0.0232111
-0.0233343
-0.0233931
-0.0233878
-0.0233192
-0.0231879
-0.0229948
-0.0227411
-0.0224279
-0.0220567
-0.0216289
-0.0211463
-0.0206102
-0.0200222
-0.0193835
-0.0186948
-0.0179566
-0.0171684
-0.0163291
-0.0154366
-0.0144881
-0.0134798
-0.0124073
-0.0112662
-0.010053
-0.00876712
-0.00741351
-0.00600591
-0.00457317
-0.0031463
-0.00179326
-0.000590041
0.000387234
0.00109551
0.00153494
0.00173705
0.00177248
0.00171514
0.00161561
0.0015054
0.00142278
0.00137851
0.00246387
0.00219308
0.0018415
0.00155384
0.00132285
0.00109132
0.000823756
0.000497378
9.46353e-05
-0.000399503
-0.000995523
-0.00170036
-0.00251477
-0.00343303
-0.0044441
-0.00553198
-0.0066782
-0.00786427
-0.00907262
-0.0102867
-0.0114916
-0.012674
-0.0138225
-0.0149278
-0.0159828
-0.0169819
-0.0179215
-0.0187991
-0.0196131
-0.020363
-0.0210484
-0.0216695
-0.0222265
-0.0227199
-0.02315
-0.0235172
-0.0238218
-0.0240641
-0.0242446
-0.0243637
-0.0244219
-0.0244194
-0.0243572
-0.0242358
-0.0240563
-0.0238197
-0.0235272
-0.0231802
-0.0227801
-0.0223286
-0.021827
-0.0212768
-0.0206791
-0.0200345
-0.0193433
-0.0186047
-0.0178173
-0.0169784
-0.016084
-0.0151292
-0.0141076
-0.0130121
-0.0118358
-0.0105729
-0.00922045
-0.00778071
-0.00626838
-0.00471574
-0.00317227
-0.00171943
-0.000456078
0.000527268
0.00118676
0.00153397
0.00163037
0.00157807
0.00146143
0.0013339
0.00124317
0.00119154
0.00272106
0.00241336
0.00201771
0.00169472
0.00142897
0.00115317
0.000828394
0.000429076
-6.52013e-05
-0.000666672
-0.00138182
-0.00221271
-0.00315394
-0.00419466
-0.00531873
-0.0065068
-0.00773879
-0.00899555
-0.0102593
-0.0115139
-0.0127452
-0.0139411
-0.0150919
-0.0161904
-0.0172312
-0.0182109
-0.0191274
-0.0199796
-0.0207675
-0.0214912
-0.0221514
-0.0227487
-0.0232838
-0.0237574
-0.0241703
-0.0245229
-0.0248157
-0.0250491
-0.0252236
-0.0253396
-0.0253977
-0.0253983
-0.025342
-0.0252296
-0.0250621
-0.0248404
-0.0245657
-0.0242394
-0.0238628
-0.0234373
-0.0229646
-0.0224457
-0.0218819
-0.0212739
-0.0206216
-0.0199246
-0.0191811
-0.0183884
-0.0175423
-0.0166371
-0.0156656
-0.0146193
-0.0134887
-0.0122641
-0.0109376
-0.00950484
-0.0079692
-0.00634816
-0.00468228
-0.00304045
-0.00152475
-0.00025493
0.000670536
0.00121677
0.00142453
0.00140253
0.00127699
0.00113122
0.00102536
0.000960554
0.00288924
0.0025506
0.00211386
0.00175501
0.00145119
0.00112805
0.000742489
0.000265029
-0.000323258
-0.00103174
-0.00186374
-0.00281445
-0.00387353
-0.00502485
-0.00624816
-0.00752174
-0.00882448
-0.0101369
-0.0114414
-0.0127226
-0.0139675
-0.0151658
-0.0163099
-0.0173944
-0.0184159
-0.0193727
-0.0202642
-0.0210907
-0.0218528
-0.0225517
-0.0231884
-0.0237641
-0.0242796
-0.024736
-0.025134
-0.0254742
-0.0257571
-0.0259833
-0.0261532
-0.0262672
-0.0263258
-0.0263295
-0.0262789
-0.0261749
-0.026018
-0.0258095
-0.0255503
-0.0252417
-0.0248851
-0.0244817
-0.024033
-0.0235402
-0.0230045
-0.0224264
-0.0218062
-0.0211434
-0.0204365
-0.0196828
-0.0188784
-0.0180174
-0.0170926
-0.0160946
-0.0150129
-0.0138357
-0.0125512
-0.0111498
-0.00962702
-0.00798852
-0.00625945
-0.00449549
-0.00278734
-0.00125711
-4.42854e-05
0.000752263
0.0011317
0.00118315
0.00106114
0.000896619
0.000764632
0.000682379
0.00295346
0.00258719
0.00211279
0.00171831
0.00137502
0.00100275
0.000553562
-3.20168e-06
-0.000684146
-0.00149645
-0.00243815
-0.00349937
-0.00466429
-0.00591208
-0.00721941
-0.00856296
-0.00992106
-0.0112742
-0.0126054
-0.0139004
-0.015148
-0.0163398
-0.0174702
-0.0185356
-0.0195347
-0.020467
-0.0213333
-0.0221347
-0.0228726
-0.0235486
-0.0241642
-0.0247207
-0.0252191
-0.0256607
-0.026046
-0.0263759
-0.0266509
-0.0268714
-0.0270378
-0.0271507
-0.0272104
-0.0272174
-0.0271724
-0.0270759
-0.0269288
-0.0267319
-0.0264864
-0.0261932
-0.0258537
-0.0254691
-0.0250407
-0.0245697
-0.0240571
-0.0235037
-0.0229098
-0.0222751
-0.0215983
-0.0208771
-0.020108
-0.0192855
-0.0184025
-0.0174499
-0.0164166
-0.0152899
-0.0140559
-0.0127013
-0.011216
-0.00959596
-0.00785184
-0.00602275
-0.0041882
-0.00245516
-0.000967377
0.000117168
0.000721036
0.000898287
0.000808433
0.000626351
0.00045667
0.000356013
0.00289899
0.00250969
0.00200242
0.00157391
0.001191
0.000767997
0.000254399
-0.000378778
-0.00114796
-0.00205728
-0.0030992
-0.00425886
-0.0055154
-0.00684419
-0.00821965
-0.00961749
-0.0110158
-0.0123956
-0.0137407
-0.0150387
-0.01628
-0.0174583
-0.01857
-0.0196134
-0.0205885
-0.0214961
-0.0223379
-0.0231156
-0.0238313
-0.0244867
-0.0250835
-0.0256232
-0.026107
-0.0265359
-0.0269107
-0.0272322
-0.0275007
-0.0277168
-0.0278809
-0.0279933
-0.0280545
-0.028065
-0.0280253
-0.0279359
-0.0277977
-0.0276114
-0.0273779
-0.0270983
-0.0267737
-0.0264052
-0.0259941
-0.0255415
-0.0250483
-0.0245154
-0.0239431
-0.0233314
-0.0226793
-0.021985
-0.0212453
-0.0204556
-0.0196093
-0.0186978
-0.0177103
-0.0166337
-0.0154534
-0.0141538
-0.0127209
-0.0111443
-0.00942191
-0.00757395
-0.00566664
-0.00379718
-0.00208607
-0.000714273
0.000162986
0.000526984
0.000506719
0.000311211
9.77862e-05
-1.97306e-05
0.00271706
0.00231023
0.00177589
0.00131599
0.000893576
0.000420302
-0.00015449
-0.000859762
-0.00171095
-0.00270769
-0.00383807
-0.00508224
-0.00641501
-0.00780883
-0.00923658
-0.0106735
-0.0120978
-0.0134914
-0.0148395
-0.0161312
-0.0173592
-0.0185192
-0.0196091
-0.0206288
-0.0215796
-0.0224632
-0.0232818
-0.0240377
-0.0247332
-0.0253703
-0.0259507
-0.026476
-0.0269472
-0.0273655
-0.0277316
-0.0280461
-0.0283095
-0.0285223
-0.0286849
-0.0287975
-0.0288605
-0.0288745
-0.0288399
-0.0287572
-0.0286271
-0.0284503
-0.0282276
-0.02796
-0.0276485
-0.0272942
-0.026898
-0.0264611
-0.0259844
-0.0254687
-0.0249145
-0.0243218
-0.0236901
-0.0230179
-0.0223027
-0.0215406
-0.0207258
-0.0198507
-0.018905
-0.0178763
-0.0167495
-0.0155082
-0.0141357
-0.0126181
-0.0109448
-0.00911636
-0.00717256
-0.00522642
-0.00335976
-0.00173519
-0.000564111
3.71961e-05
0.000133212
-5.61773e-05
-0.000311364
-0.000444619
0.00240521
0.0019868
0.00143177
0.000943717
0.000483349
-3.77439e-05
-0.000669248
-0.00144028
-0.00236465
-0.00343788
-0.00464356
-0.00595741
-0.00735072
-0.00879382
-0.0102587
-0.0117204
-0.013158
-0.0145541
-0.015896
-0.0171744
-0.0183841
-0.0195223
-0.0205887
-0.0215843
-0.0225112
-0.0233719
-0.024169
-0.0249052
-0.0255827
-0.0262036
-0.0267697
-0.0272825
-0.0277431
-0.0281524
-0.0285113
-0.0288201
-0.0290795
-0.0292899
-0.0294515
-0.0295647
-0.0296298
-0.0296473
-0.0296175
-0.029541
-0.0294184
-0.0292502
-0.0290374
-0.0287806
-0.0284808
-0.0281389
-0.0277558
-0.0273326
-0.0268702
-0.0263692
-0.0258303
-0.0252537
-0.0246389
-0.0239852
-0.0232904
-0.0225514
-0.0217636
-0.02092
-0.0200118
-0.0190271
-0.0179517
-0.0167686
-0.0154596
-0.0140082
-0.0124002
-0.0106237
-0.00868538
-0.00668801
-0.00473434
-0.00292261
-0.00147692
-0.000600554
-0.000330133
-0.00048596
-0.000769369
-0.000919014
0.0019666
0.00154281
0.0009736
0.000461068
-3.44118e-05
-0.000598835
-0.00128137
-0.00211097
-0.00309841
-0.00423595
-0.00550304
-0.00687156
-0.0083101
-0.00978754
-0.0112755
-0.0127493
-0.0141888
-0.0155784
-0.0169066
-0.0181665
-0.0193542
-0.0204687
-0.0215109
-0.0224826
-0.0233867
-0.024226
-0.0250034
-0.0257217
-0.0263832
-0.0269899
-0.0275436
-0.0280456
-0.0284971
-0.0288989
-0.0292517
-0.0295559
-0.0298121
-0.0300207
-0.0301818
-0.0302959
-0.0303631
-0.030384
-0.0303589
-0.0302882
-0.0301725
-0.0300123
-0.0298083
-0.0295613
-0.029272
-0.0289412
-0.0285699
-0.0281588
-0.0277089
-0.0272208
-0.0266952
-0.0261323
-0.0255321
-0.0248939
-0.0242164
-0.0234971
-0.0227321
-0.0219159
-0.0210406
-0.0200958
-0.019068
-0.0179409
-0.0166957
-0.0153134
-0.0137775
-0.0120716
-0.0101858
-0.00815693
-0.00615847
-0.0042311
-0.00255613
-0.00139681
-0.000907665
-0.000993311
-0.00127542
-0.0014479
0.00140935
0.000986416
0.000409128
-0.000123351
-0.000649875
-0.00125267
-0.00197982
-0.00285925
-0.00389913
-0.00508844
-0.00640305
-0.00781173
-0.0092811
-0.0107792
-0.0122776
-0.0137525
-0.0151847
-0.0165601
-0.0178693
-0.0191068
-0.0202704
-0.0213602
-0.0223782
-0.0233268
-0.0242093
-0.0250288
-0.0257883
-0.0264905
-0.0271377
-0.027732
-0.0282748
-0.0287675
-0.0292111
-0.0296065
-0.0299541
-0.0302546
-0.0305082
-0.0307154
-0.0308764
-0.0309915
-0.0310609
-0.0310851
-0.0310644
-0.0309991
-0.0308898
-0.0307369
-0.0305411
-0.0303029
-0.0300232
-0.0297025
-0.0293417
-0.0289416
-0.0285029
-0.0280263
-0.0275124
-0.0269616
-0.0263741
-0.0257494
-0.0250868
-0.0243843
-0.023639
-0.0228464
-0.022
-0.0210907
-0.0201065
-0.019032
-0.0178486
-0.0165359
-0.0150752
-0.0134489
-0.0116358
-0.00963169
-0.0075925
-0.00561182
-0.00377556
-0.00235952
-0.00162069
-0.00157602
-0.00183476
-0.00204225
0.000745612
0.000329811
-0.000249421
-0.000797088
-0.00134982
-0.00198559
-0.00275072
-0.00367102
-0.00475246
-0.00598115
-0.00732996
-0.00876527
-0.0102524
-0.011759
-0.0132571
-0.0147237
-0.0161411
-0.0174967
-0.0187828
-0.0199955
-0.0211338
-0.0221988
-0.0231931
-0.0241197
-0.024982
-0.0257833
-0.0265264
-0.0272141
-0.0278486
-0.0284318
-0.028965
-0.0294496
-0.0298864
-0.0302762
-0.0306195
-0.0309167
-0.0311683
-0.0313744
-0.0315355
-0.0316517
-0.0317233
-0.0317506
-0.0317339
-0.0316737
-0.0315703
-0.0314242
-0.0312358
-0.0310059
-0.0307349
-0.0304234
-0.0300723
-0.0296822
-0.0292537
-0.0287875
-0.0282843
-0.0277444
-0.0271682
-0.0265556
-0.025906
-0.0252183
-0.0244902
-0.0237183
-0.0228972
-0.0220195
-0.0210744
-0.0200482
-0.0189232
-0.0176787
-0.0162936
-0.0147492
-0.0130232
-0.0110962
-0.00902225
-0.00702152
-0.00509965
-0.00348004
-0.00248612
-0.0022526
-0.00246532
-0.00271927
-7.82452e-06
-0.00041241
-0.000987223
-0.00154534
-0.00211984
-0.00278315
-0.0035788
-0.00453101
-0.00564342
-0.00689974
-0.00827043
-0.00972018
-0.0112135
-0.0127182
-0.014207
-0.0156579
-0.0170547
-0.0183864
-0.0196469
-0.0208333
-0.0219459
-0.0229865
-0.023958
-0.0248637
-0.0257072
-0.0264917
-0.02722
-0.0278946
-0.0285177
-0.0290909
-0.0296157
-0.030093
-0.0305238
-0.0309087
-0.0312482
-0.0315427
-0.0317925
-0.0319979
-0.0321591
-0.0322764
-0.0323501
-0.0323803
-0.0323675
-0.0323119
-0.032214
-0.0320741
-0.0318927
-0.0316703
-0.0314073
-0.0311044
-0.0307622
-0.0303813
-0.0299623
-0.0295058
-0.0290123
-0.0284826
-0.0279167
-0.0273151
-0.0266773
-0.0260028
-0.02529
-0.0245364
-0.0237377
-0.022888
-0.0219781
-0.0209959
-0.0199253
-0.0187461
-0.0174359
-0.0159749
-0.0143428
-0.0125083
-0.0104536
-0.00842994
-0.00648517
-0.00472991
-0.00350525
-0.00305609
-0.0031842
-0.00350015
-0.000832256
-0.00122322
-0.00178872
-0.002353
-0.00294435
-0.00362933
-0.00444823
-0.00542363
-0.00655707
-0.00783022
-0.00921179
-0.0106653
-0.0121551
-0.0136493
-0.0151215
-0.016551
-0.017923
-0.0192282
-0.0204613
-0.021621
-0.0227081
-0.0237249
-0.0246747
-0.0255609
-0.0263869
-0.0271559
-0.0278706
-0.0285334
-0.0291461
-0.0297105
-0.0302276
-0.0306985
-0.0311239
-0.0315045
-0.0318406
-0.0321326
-0.0323809
-0.0325856
-0.0327471
-0.0328655
-0.0329411
-0.0329741
-0.0329648
-0.0329136
-0.0328207
-0.0326865
-0.0325115
-0.032296
-0.0320406
-0.0317456
-0.0314117
-0.0310394
-0.0306292
-0.0301817
-0.0296975
-0.0291772
-0.0286211
-0.0280296
-0.0274028
-0.0267403
-0.0260414
-0.0253042
-0.0245257
-0.0237009
-0.0228227
-0.0218803
-0.0208595
-0.0197415
-0.0185039
-0.0171245
-0.015583
-0.0138485
-0.0118898
-0.00983323
-0.0078964
-0.00608027
-0.00467273
-0.00400347
-0.00400832
-0.00441291
-0.00170972
-0.00208483
-0.00263713
-0.00320323
-0.00380653
-0.00450739
-0.00534284
-0.00633347
-0.00747894
-0.00875938
-0.0101423
-0.0115907
-0.0130689
-0.0145457
-0.0159958
-0.0173998
-0.0187443
-0.0200211
-0.0212264
-0.0223595
-0.0234216
-0.0244157
-0.0253449
-0.0262128
-0.0270226
-0.0277773
-0.0284796
-0.0291315
-0.0297349
-0.0302911
-0.0308013
-0.0312664
-0.0316869
-0.0320636
-0.0323966
-0.0326865
-0.0329334
-0.0331375
-0.0332992
-0.0334186
-0.033496
-0.0335315
-0.0335255
-0.0334783
-0.03339
-0.0332612
-0.0330921
-0.032883
-0.0326345
-0.032347
-0.0320208
-0.0316566
-0.0312547
-0.0308158
-0.0303403
-0.0298289
-0.0292821
-0.0287002
-0.0280837
-0.0274326
-0.0267465
-0.0260243
-0.025264
-0.0244618
-0.023612
-0.0227058
-0.0217306
-0.0206695
-0.019501
-0.0182013
-0.016749
-0.0151192
-0.0132769
-0.0112274
-0.00930877
-0.00749613
-0.00596993
-0.00509403
-0.00496393
-0.00546841
-0.00262201
-0.00297936
-0.00351506
-0.00407876
-0.00468945
-0.005401
-0.00624695
-0.00724573
-0.00839539
-0.00967499
-0.0110513
-0.0124873
-0.0139476
-0.0154019
-0.0168259
-0.0182016
-0.019517
-0.0207649
-0.0219423
-0.0230493
-0.0240875
-0.0250599
-0.0259698
-0.0268206
-0.0276154
-0.028357
-0.0290477
-0.0296897
-0.0302845
-0.0308333
-0.0313372
-0.0317969
-0.032213
-0.032586
-0.0329163
-0.0332041
-0.0334498
-0.0336534
-0.0338153
-0.0339356
-0.0340146
-0.0340524
-0.0340494
-0.0340058
-0.0339218
-0.0337978
-0.0336342
-0.0334311
-0.0331891
-0.0329084
-0.0325895
-0.0322329
-0.0318389
-0.0314081
-0.030941
-0.0304381
-0.0299002
-0.0293276
-0.0287209
-0.0280805
-0.0274064
-0.0266982
-0.0259546
-0.025173
-0.024349
-0.0234754
-0.0225418
-0.0215329
-0.020429
-0.0192064
-0.0178435
-0.016319
-0.0145917
-0.0126185
-0.0106955
-0.00892557
-0.00734949
-0.00630926
-0.00607036
-0.00664929
-0.0035515
-0.00388899
-0.00440521
-0.00496318
-0.0055772
-0.00629473
-0.00714584
-0.0081467
-0.00929396
-0.010566
-0.0119294
-0.0133473
-0.0147849
-0.016213
-0.0176085
-0.0189545
-0.02024
-0.021459
-0.0226092
-0.023691
-0.0247065
-0.0256585
-0.0265503
-0.0273851
-0.0281659
-0.0288954
-0.0295756
-0.0302084
-0.0307952
-0.0313372
-0.0318353
-0.03229
-0.032702
-0.0330717
-0.0333994
-0.0336854
-0.0339298
-0.034133
-0.034295
-0.0344161
-0.0344965
-0.0345365
-0.0345361
-0.0344958
-0.0344158
-0.0342962
-0.0341376
-0.03394
-0.033704
-0.0334297
-0.0331176
-0.0327681
-0.0323816
-0.0319585
-0.0314994
-0.0310049
-0.0304754
-0.0299118
-0.0293147
-0.0286845
-0.0280219
-0.0273268
-0.0265986
-0.0258359
-0.0250354
-0.0241916
-0.0232957
-0.0223347
-0.0212906
-0.020141
-0.0188625
-0.0174342
-0.0158215
-0.0139845
-0.0120563
-0.0103376
-0.00876244
-0.00761553
-0.00731266
-0.00792453
-0.00448091
-0.00479682
-0.00529127
-0.00584083
-0.00645479
-0.00717425
-0.00802598
-0.00902389
-0.0101635
-0.0114226
-0.0127682
-0.0141639
-0.0155757
-0.0169753
-0.0183408
-0.0196565
-0.0209124
-0.0221032
-0.0232272
-0.0242851
-0.025279
-0.0262118
-0.0270868
-0.0279069
-0.0286748
-0.029393
-0.0300635
-0.0306878
-0.0312673
-0.031803
-0.0322956
-0.0327458
-0.033154
-0.0335207
-0.0338459
-0.0341301
-0.0343734
-0.0345761
-0.0347382
-0.03486
-0.0349417
-0.0349834
-0.0349855
-0.0349482
-0.0348717
-0.0347562
-0.0346021
-0.0344096
-0.0341791
-0.0339107
-0.033605
-0.0332622
-0.0328827
-0.032467
-0.0320156
-0.031529
-0.0310078
-0.0304528
-0.0298649
-0.0292446
-0.0285929
-0.0279102
-0.0271966
-0.0264513
-0.0256724
-0.0248556
-0.0239941
-0.0230768
-0.022088
-0.0210065
-0.0198085
-0.0184731
-0.0169744
-0.0152772
-0.0133805
-0.0117048
-0.0101683
-0.00897078
-0.00862845
-0.00921607
-0.00539428
-0.00568742
-0.00615857
-0.00669746
-0.00730851
-0.00802659
-0.00887524
-0.00986624
-0.0109941
-0.0122362
-0.0135605
-0.0149312
-0.0163153
-0.0176854
-0.0190206
-0.0203062
-0.0215333
-0.022697
-0.0237961
-0.0248315
-0.0258053
-0.0267204
-0.0275797
-0.0283861
-0.0291421
-0.02985
-0.0305114
-0.031128
-0.0317007
-0.0322305
-0.0327182
-0.0331641
-0.0335688
-0.0339326
-0.0342556
-0.0345381
-0.0347803
-0.0349824
-0.0351446
-0.035267
-0.0353497
-0.0353932
-0.0353974
-0.0353627
-0.0352894
-0.0351776
-0.0350276
-0.0348397
-0.0346142
-0.0343513
-0.0340515
-0.0337149
-0.0333421
-0.0329333
-0.0324891
-0.0320101
-0.0314969
-0.0309504
-0.0303713
-0.0297606
-0.0291194
-0.0284485
-0.0277485
-0.0270194
-0.0262603
-0.0254682
-0.024638
-0.0237604
-0.0228218
-0.021803
-0.0206811
-0.0194356
-0.0180459
-0.0164704
-0.0146733
-0.0130149
-0.0115242
-0.0103194
-0.00992847
-0.0104135
-0.00627639
-0.00654686
-0.00699378
-0.00752028
-0.00812613
-0.00884019
-0.00968288
-0.0106639
-0.0117774
-0.0129998
-0.0143002
-0.0156445
-0.0170001
-0.0183405
-0.0196458
-0.0209024
-0.0221019
-0.02324
-0.0243158
-0.0253302
-0.0262854
-0.0271841
-0.028029
-0.0288228
-0.0295679
-0.0302662
-0.0309194
-0.0315288
-0.0320953