/*--------------------------------*- C++ -*----------------------------------*\
  =========                 |
  \\      /  F ield         | OpenFOAM: The Open Source CFD Toolbox
   \\    /   O peration     | Website:  https://openfoam.org
    \\  /    A nd           | Version:  13
     \\/     M anipulation  |
\*---------------------------------------------------------------------------*/
FoamFile
{
    format      ascii;
    class       surfaceScalarField;
    location    "6.8";
    object      phi;
}
// * * * * * * * * * * * * * * * * * * * * * * * * * * * * * * * * * * * * * //

dimensions      [0 3 -1 0 0 0 0];

internalField   nonuniform List<scalar> 
12640
(
1.62385e-09
-1.62392e-09
1.50546e-08
-1.34308e-08
3.87273e-08
-2.36727e-08
6.61011e-08
-2.73737e-08
9.08644e-08
-2.47633e-08
1.09434e-07
-1.85697e-08
1.20452e-07
-1.10178e-08
1.24785e-07
-4.33285e-09
1.2471e-07
7.5123e-11
1.22555e-07
2.15402e-09
1.2028e-07
2.27554e-09
1.19164e-07
1.1161e-09
1.19619e-07
-4.5468e-10
1.21352e-07
-1.73312e-09
1.23533e-07
-2.18139e-09
1.25239e-07
-1.70554e-09
1.25602e-07
-3.63593e-10
1.241e-07
1.5023e-09
1.19919e-07
4.18122e-09
1.12164e-07
7.75481e-09
1.00252e-07
1.19121e-08
8.3611e-08
1.66406e-08
6.17917e-08
2.18194e-08
3.46086e-08
2.7183e-08
2.03372e-09
3.25749e-08
-3.61149e-08
3.81486e-08
-8.11012e-08
4.49862e-08
-1.35273e-07
5.41721e-08
-2.01515e-07
6.62415e-08
-2.82171e-07
8.06563e-08
-3.76366e-07
9.41949e-08
-4.8057e-07
1.04204e-07
-5.91345e-07
1.10776e-07
-7.05292e-07
1.13946e-07
-8.19441e-07
1.14149e-07
-9.31188e-07
1.11747e-07
-1.0384e-06
1.07209e-07
-1.13933e-06
1.00934e-07
-1.23261e-06
9.32836e-08
-1.31718e-06
8.4565e-08
-1.39215e-06
7.4971e-08
-1.45683e-06
6.46788e-08
-1.5106e-06
5.37699e-08
-1.5529e-06
4.22992e-08
-1.58311e-06
3.02148e-08
-1.60082e-06
1.77078e-08
-1.60644e-06
5.61702e-09
-1.59792e-06
-8.51734e-09
-1.57601e-06
-2.19058e-08
-1.53972e-06
-3.62986e-08
-1.48902e-06
-5.0692e-08
-1.42377e-06
-6.52561e-08
-1.34421e-06
-7.95619e-08
-1.25077e-06
-9.34327e-08
-1.14412e-06
-1.06657e-07
-1.0251e-06
-1.19019e-07
-8.95079e-07
-1.30017e-07
-7.55836e-07
-1.39243e-07
-6.09696e-07
-1.4614e-07
-4.59501e-07
-1.50195e-07
-3.08701e-07
-1.508e-07
-1.61116e-07
-1.47585e-07
-2.07505e-08
-1.40365e-07
1.0875e-07
-1.29501e-07
2.22934e-07
-1.14183e-07
3.17839e-07
-9.4905e-08
3.90072e-07
-7.22335e-08
4.37156e-07
-4.70835e-08
4.57715e-07
-2.05594e-08
4.50683e-07
7.03167e-09
4.18976e-07
3.17071e-08
3.65085e-07
5.38915e-08
2.95213e-07
6.98722e-08
2.18426e-07
7.67865e-08
1.46143e-07
7.2283e-08
8.56103e-08
6.05329e-08
4.06554e-08
4.49549e-08
1.19324e-08
2.8723e-08
-4.85725e-10
1.24181e-08
-4.85726e-10
1.03935e-08
-1.20175e-08
4.2814e-08
-4.58512e-08
8.78583e-08
-6.8717e-08
1.33969e-07
-7.34842e-08
1.7355e-07
-6.43446e-08
2.02788e-07
-4.78077e-08
2.21038e-07
-2.9268e-08
2.29285e-07
-1.25802e-08
2.29326e-07
3.47872e-11
2.23488e-07
7.99223e-09
2.14045e-07
1.17185e-08
2.02543e-07
1.26181e-08
1.89457e-07
1.26309e-08
1.7423e-07
1.34936e-08
1.55806e-07
1.62427e-08
1.33035e-07
2.10654e-08
1.04997e-07
2.76751e-08
7.04787e-08
3.60204e-08
2.82433e-08
4.64166e-08
-2.31983e-08
5.91963e-08
-8.58374e-08
7.45513e-08
-1.61491e-07
9.22946e-08
-2.51388e-07
1.11716e-07
-3.56363e-07
1.32158e-07
-4.76971e-07
1.53183e-07
-6.12969e-07
1.74147e-07
-7.62003e-07
1.9402e-07
-9.19938e-07
2.12107e-07
-1.08142e-06
2.27728e-07
-1.24058e-06
2.3981e-07
-1.39385e-06
2.47467e-07
-1.54024e-06
2.50597e-07
-1.67834e-06
2.4887e-07
-1.80687e-06
2.42482e-07
-1.92484e-06
2.32117e-07
-2.03159e-06
2.18492e-07
-2.12662e-06
2.02246e-07
-2.20966e-06
1.83974e-07
-2.28048e-06
1.64104e-07
-2.33895e-06
1.43035e-07
-2.38496e-06
1.20977e-07
-2.41839e-06
9.81086e-08
-2.43914e-06
7.45208e-08
-2.44715e-06
5.03079e-08
-2.44249e-06
2.55563e-08
-2.42409e-06
-6.97167e-10
-2.39265e-06
-2.58162e-08
-2.3483e-06
-5.28691e-08
-2.28993e-06
-8.028e-08
-2.21801e-06
-1.08217e-07
-2.13225e-06
-1.3645e-07
-2.03269e-06
-1.64818e-07
-1.91925e-06
-1.92997e-07
-1.79211e-06
-2.20578e-07
-1.65175e-06
-2.47013e-07
-1.49928e-06
-2.71492e-07
-1.33596e-06
-2.93331e-07
-1.16359e-06
-3.11621e-07
-9.8448e-07
-3.25248e-07
-8.01303e-07
-3.33371e-07
-6.17062e-07
-3.35041e-07
-4.35181e-07
-3.29466e-07
-2.59303e-07
-3.16243e-07
-9.3448e-08
-2.95356e-07
5.90845e-08
-2.66716e-07
1.94961e-07
-2.30781e-07
3.10504e-07
-1.87777e-07
4.03211e-07
-1.3979e-07
4.70592e-07
-8.79406e-08
5.11996e-07
-3.43719e-08
5.25874e-07
1.78286e-08
5.12617e-07
6.71484e-08
4.74192e-07
1.08297e-07
4.12211e-07
1.38768e-07
3.29741e-07
1.54753e-07
2.37066e-07
1.53208e-07
1.46633e-07
1.35388e-07
7.09038e-08
1.04452e-07
2.00335e-08
6.32884e-08
1.95478e-08
1.96938e-08
-3.17113e-08
6.55713e-08
-9.17287e-08
1.17351e-07
-1.20497e-07
1.63146e-07
-1.19279e-07
1.98432e-07
-9.963e-08
2.22202e-07
-7.15778e-08
2.35112e-07
-4.21783e-08
2.3814e-07
-1.56078e-08
2.32441e-07
5.73336e-09
2.19478e-07
2.0955e-08
2.00671e-07
3.05263e-08
1.76599e-07
3.66893e-08
1.47073e-07
4.21572e-08
1.11286e-07
4.92809e-08
6.80702e-08
5.94583e-08
1.60122e-08
7.31234e-08
-4.66085e-08
9.02957e-08
-1.2161e-07
1.11022e-07
-2.10536e-07
1.35342e-07
-3.14626e-07
1.63287e-07
-4.34394e-07
1.94319e-07
-5.69491e-07
2.27392e-07
-7.18853e-07
2.61078e-07
-8.80073e-07
2.93378e-07
-1.04977e-06
3.2288e-07
-1.22372e-06
3.48091e-07
-1.39763e-06
3.67939e-07
-1.56755e-06
3.82021e-07
-1.72985e-06
3.90034e-07
-1.88195e-06
3.91902e-07
-2.02232e-06
3.87845e-07
-2.14998e-06
3.78258e-07
-2.26491e-06
3.638e-07
-2.36756e-06
3.45124e-07
-2.45821e-06
3.22773e-07
-2.53725e-06
2.97534e-07
-2.60498e-06
2.69976e-07
-2.66166e-06
2.40654e-07
-2.70746e-06
2.09903e-07
-2.74251e-06
1.78079e-07
-2.76687e-06
1.45338e-07
-2.78053e-06
1.11775e-07
-2.78346e-06
7.74508e-08
-2.77551e-06
4.23516e-08
-2.75634e-06
6.38851e-09
-2.72653e-06
-3.05109e-08
-2.68432e-06
-6.80224e-08
-2.63052e-06
-1.0667e-07
-2.56457e-06
-1.46228e-07
-2.48618e-06
-1.86612e-07
-2.3951e-06
-2.27529e-07
-2.29119e-06
-2.68726e-07
-2.17439e-06
-3.09791e-07
-2.04483e-06
-3.50138e-07
-1.9029e-06
-3.88949e-07
-1.74924e-06
-4.25148e-07
-1.5849e-06
-4.57669e-07
-1.41127e-06
-4.85255e-07
-1.2302e-06
-5.06316e-07
-1.04419e-06
-5.19381e-07
-8.56018e-07
-5.23215e-07
-6.68971e-07
-5.16514e-07
-4.86674e-07
-4.98539e-07
-3.12842e-07
-4.69189e-07
-1.50771e-07
-4.28786e-07
-3.70629e-09
-3.77846e-07
1.26151e-07
-3.17634e-07
2.35749e-07
-2.49388e-07
3.23605e-07
-1.75796e-07
3.88891e-07
-9.96586e-08
4.30657e-07
-2.39367e-08
4.48684e-07
4.91205e-08
4.41677e-07
1.15305e-07
4.11247e-07
1.69198e-07
3.58434e-07
2.07565e-07
2.86456e-07
2.25186e-07
2.01913e-07
2.19931e-07
1.15379e-07
1.90987e-07
4.0563e-08
1.38104e-07
6.01108e-08
2.74259e-08
-5.91372e-08
7.98337e-08
-1.44136e-07
1.29443e-07
-1.70106e-07
1.67575e-07
-1.57412e-07
1.92885e-07
-1.24939e-07
2.06545e-07
-8.52377e-08
2.09753e-07
-4.53868e-08
2.03632e-07
-9.48722e-09
1.88974e-07
2.03921e-08
1.66268e-07
4.36609e-08
1.35283e-07
6.1511e-08
9.55216e-08
7.64507e-08
4.62121e-08
9.14667e-08
-1.35878e-08
1.09081e-07
-8.49738e-08
1.30844e-07
-1.6929e-07
1.57439e-07
-2.68005e-07
1.89011e-07
-3.8241e-07
2.25427e-07
-5.13089e-07
2.66021e-07
-6.59587e-07
3.09785e-07
-8.20134e-07
3.54866e-07
-9.9158e-07
3.98838e-07
-1.17011e-06
4.39612e-07
-1.35144e-06
4.74703e-07
-1.53142e-06
5.02864e-07
-1.70617e-06
5.22836e-07
-1.87217e-06
5.33938e-07
-2.0267e-06
5.36553e-07
-2.1684e-06
5.31732e-07
-2.29685e-06
5.20356e-07
-2.41227e-06
5.03267e-07
-2.51527e-06
4.81251e-07
-2.60646e-06
4.54995e-07
-2.68659e-06
4.25247e-07
-2.75635e-06
3.92537e-07
-2.81631e-06
3.57496e-07
-2.8669e-06
3.20566e-07
-2.90843e-06
2.82182e-07
-2.9411e-06
2.42577e-07
-2.96499e-06
2.01967e-07
-2.98012e-06
1.60465e-07
-2.98642e-06
1.18072e-07
-2.98373e-06
7.47629e-08
-2.97181e-06
3.04346e-08
-2.95042e-06
-1.49991e-08
-2.91935e-06
-6.1585e-08
-2.87797e-06
-1.09398e-07
-2.82607e-06
-1.58573e-07
-2.76322e-06
-2.09081e-07
-2.68897e-06
-2.6086e-07
-2.60296e-06
-3.13542e-07
-2.50489e-06
-3.66797e-07
-2.39451e-06
-4.20166e-07
-2.27169e-06
-4.72957e-07
-2.13644e-06
-5.24203e-07
-1.98904e-06
-5.72551e-07
-1.83028e-06
-6.16427e-07
-1.66116e-06
-6.54371e-07
-1.48313e-06
-6.84352e-07
-1.29826e-06
-7.04248e-07
-1.10902e-06
-7.12455e-07
-9.18444e-07
-7.0709e-07
-7.30119e-07
-6.86865e-07
-5.48214e-07
-6.51093e-07
-3.76553e-07
-6.00447e-07
-2.18274e-07
-5.36126e-07
-7.65063e-08
-4.59402e-07
4.66352e-08
-3.72529e-07
1.49389e-07
-2.7855e-07
2.30659e-07
-1.80929e-07
2.9003e-07
-8.33074e-08
3.28231e-07
1.09198e-08
3.45291e-07
9.82438e-08
3.40479e-07
1.7401e-07
3.14017e-07
2.34027e-07
2.66485e-07
2.72718e-07
2.01732e-07
2.84684e-07
1.25592e-07
2.67127e-07
4.85974e-08
2.15099e-07
1.08708e-07
3.34112e-08
-9.25484e-08
8.53717e-08
-1.96097e-07
1.26478e-07
-2.11213e-07
1.53266e-07
-1.84199e-07
1.66453e-07
-1.38126e-07
1.68254e-07
-8.70387e-08
1.60042e-07
-3.71747e-08
1.42562e-07
7.9924e-09
1.15976e-07
4.69779e-08
7.98479e-08
7.97895e-08
3.32136e-08
1.08145e-07
-2.51049e-08
1.34769e-07
-9.62637e-08
1.62626e-07
-1.81335e-07
1.94152e-07
-2.81331e-07
2.30841e-07
-3.9711e-07
2.73219e-07
-5.29121e-07
3.21022e-07
-6.77146e-07
3.73452e-07
-8.39758e-07
4.28632e-07
-1.0139e-06
4.83927e-07
-1.19579e-06
5.36758e-07
-1.38087e-06
5.83917e-07
-1.56484e-06
6.23579e-07
-1.74346e-06
6.53327e-07
-1.91239e-06
6.71791e-07
-2.069e-06
6.79452e-07
-2.21239e-06
6.77327e-07
-2.34258e-06
6.66741e-07
-2.46002e-06
6.49171e-07
-2.56543e-06
6.25765e-07
-2.65967e-06
5.97509e-07
-2.74358e-06
5.65156e-07
-2.81789e-06
5.29309e-07
-2.88326e-06
4.90613e-07
-2.94029e-06
4.49567e-07
-2.98941e-06
4.06623e-07
-3.03098e-06
3.62135e-07
-3.06523e-06
3.1643e-07
-3.0923e-06
2.69645e-07
-3.11215e-06
2.21823e-07
-3.12478e-06
1.73094e-07
-3.1301e-06
1.23386e-07
-3.12792e-06
7.25851e-08
-3.11798e-06
2.04928e-08
-3.10001e-06
-3.29688e-08
-3.07359e-06
-8.80044e-08
-3.03825e-06
-1.44734e-07
-2.99361e-06
-2.03218e-07
-2.9392e-06
-2.63484e-07
-2.87444e-06
-3.25627e-07
-2.79866e-06
-3.89322e-07
-2.71142e-06
-4.54034e-07
-2.61226e-06
-5.19328e-07
-2.50076e-06
-5.84456e-07
-2.37653e-06
-6.48438e-07
-2.23937e-06
-7.09709e-07
-2.08983e-06
-7.65965e-07
-1.92842e-06
-8.15776e-07
-1.75605e-06
-8.56727e-07
-1.57451e-06
-8.85791e-07
-1.38584e-06
-9.01118e-07
-1.19285e-06
-9.00082e-07
-9.98635e-07
-8.81082e-07
-8.07176e-07
-8.42552e-07
-6.23181e-07
-7.84442e-07
-4.5106e-07
-7.08246e-07
-2.93985e-07
-6.16477e-07
-1.54748e-07
-5.11766e-07
-3.55919e-08
-3.97707e-07
6.21555e-08
-2.78676e-07
1.38044e-07
-1.59196e-07
1.92542e-07
-4.35788e-08
2.26628e-07
6.41585e-08
2.40704e-07
1.59934e-07
2.35237e-07
2.39494e-07
2.10531e-07
2.97424e-07
1.67547e-07
3.27668e-07
1.09385e-07
3.25289e-07
4.38001e-08
2.80683e-07
1.52508e-07
3.69462e-08
-1.29495e-07
8.19604e-08
-2.41111e-07
1.10569e-07
-2.39822e-07
1.2354e-07
-1.9717e-07
1.23648e-07
-1.38235e-07
1.12887e-07
-7.62768e-08
9.22422e-08
-1.65303e-08
6.18516e-08
3.8383e-08
2.12618e-08
8.75677e-08
-3.06547e-08
1.31706e-07
-9.52795e-08
1.7277e-07
-1.74001e-07
2.13491e-07
-2.67997e-07
2.56621e-07
-3.78117e-07
3.04272e-07
-5.04813e-07
3.57537e-07
-6.47876e-07
4.16281e-07
-8.06254e-07
4.794e-07
-9.77655e-07
5.44853e-07
-1.15865e-06
6.09631e-07
-1.34466e-06
6.69934e-07
-1.53117e-06
7.23265e-07
-1.71327e-06
7.6602e-07
-1.88575e-06
7.96056e-07
-2.04553e-06
8.13113e-07
-2.19175e-06
8.18009e-07
-2.32462e-06
8.12319e-07
-2.44493e-06
7.97634e-07
-2.55371e-06
7.75522e-07
-2.65184e-06
7.4731e-07
-2.74018e-06
7.14098e-07
-2.81945e-06
6.76785e-07
-2.89032e-06
6.36018e-07
-2.95342e-06
5.9241e-07
-3.00928e-06
5.46478e-07
-3.05834e-06
4.9863e-07
-3.10089e-06
4.49172e-07
-3.13715e-06
3.9839e-07
-3.16729e-06
3.4657e-07
-3.19147e-06
2.93826e-07
-3.20957e-06
2.39928e-07
-3.22166e-06
1.85181e-07
-3.22771e-06
1.29437e-07
-3.22765e-06
7.25263e-08
-3.22126e-06
1.41027e-08
-3.20854e-06
-4.56942e-08
-3.18904e-06
-1.07502e-07
-3.1623e-06
-1.71469e-07
-3.12778e-06
-2.37738e-07
-3.08487e-06
-3.06394e-07
-3.0329e-06
-3.77603e-07
-2.97095e-06
-4.51267e-07
-2.8982e-06
-5.26785e-07
-2.81379e-06
-6.03738e-07
-2.71709e-06
-6.81157e-07
-2.6077e-06
-7.57831e-07
-2.48493e-06
-8.32475e-07
-2.34851e-06
-9.02387e-07
-2.19851e-06
-9.65772e-07
-2.03505e-06
-1.02019e-06
-1.85969e-06
-1.06115e-06
-1.67396e-06
-1.08685e-06
-1.48034e-06
-1.0937e-06
-1.28178e-06
-1.07964e-06
-1.08197e-06
-1.04236e-06
-8.85228e-07
-9.81185e-07
-6.97086e-07
-8.96388e-07
-5.22187e-07
-7.91376e-07
-3.63976e-07
-6.69978e-07
-2.25482e-07
-5.36201e-07
-1.08837e-07
-3.9532e-07
-1.49812e-08
-2.53052e-07
5.6366e-08
-1.14926e-07
1.06419e-07
1.41056e-08
1.36688e-07
1.29665e-07
1.48344e-07
2.27838e-07
1.42043e-07
3.03726e-07
1.18276e-07
3.51435e-07
7.93432e-08
3.64222e-07
3.15365e-08
3.2849e-07
1.84045e-07
3.70197e-08
-1.66514e-07
6.96222e-08
-2.73714e-07
8.3558e-08
-2.53758e-07
8.19044e-08
-1.95516e-07
6.84137e-08
-1.24744e-07
4.45072e-08
-5.23703e-08
1.05041e-08
1.74729e-08
-3.40489e-08
8.2936e-08
-9.0184e-08
1.43703e-07
-1.59294e-07
2.00816e-07
-2.42858e-07
2.56334e-07
-3.42151e-07
3.12784e-07
-4.58003e-07
3.72474e-07
-5.9063e-07
4.36898e-07
-7.39479e-07
5.06386e-07
-9.03049e-07
5.79852e-07
-1.07852e-06
6.5487e-07
-1.26177e-06
7.28109e-07
-1.44812e-06
7.95977e-07
-1.63253e-06
8.54339e-07
-1.80897e-06
8.99713e-07
-1.97341e-06
9.30454e-07
-2.12418e-06
9.46826e-07
-2.26136e-06
9.50294e-07
-2.38581e-06
9.42456e-07
-2.49856e-06
9.25077e-07
-2.60071e-06
8.99776e-07
-2.69322e-06
8.68032e-07
-2.77689e-06
8.30986e-07
-2.85241e-06
7.89614e-07
-2.92033e-06
7.44703e-07
-2.98117e-06
6.96865e-07
-3.03542e-06
6.46655e-07
-3.08344e-06
5.94496e-07
-3.12559e-06
5.40782e-07
-3.16205e-06
4.85631e-07
-3.19292e-06
4.29257e-07
-3.21843e-06
3.72079e-07
-3.23871e-06
3.1411e-07
-3.25412e-06
2.5534e-07
-3.26457e-06
1.95626e-07
-3.26991e-06
1.3478e-07
-3.27e-06
7.2619e-08
-3.26464e-06
8.74045e-09
-3.25407e-06
-5.62616e-08
-3.23827e-06
-1.23308e-07
-3.21717e-06
-1.92565e-07
-3.19064e-06
-2.64274e-07
-3.15835e-06
-3.38679e-07
-3.11998e-06
-4.15972e-07
-3.07479e-06
-4.96455e-07
-3.0215e-06
-5.8008e-07
-2.95883e-06
-6.66408e-07
-2.88509e-06
-7.54896e-07
-2.79823e-06
-8.44693e-07
-2.69641e-06
-9.34294e-07
-2.57886e-06
-1.01993e-06
-2.44583e-06
-1.09881e-06
-2.29766e-06
-1.16836e-06
-2.13416e-06
-1.22464e-06
-1.95629e-06
-1.26472e-06
-1.76638e-06
-1.28361e-06
-1.56687e-06
-1.27915e-06
-1.36142e-06
-1.24781e-06
-1.15399e-06
-1.18861e-06
-9.49946e-07
-1.10043e-06
-7.5588e-07
-9.85443e-07
-5.76798e-07
-8.49059e-07
-4.16444e-07
-6.96555e-07
-2.7807e-07
-5.33694e-07
-1.6365e-07
-3.67472e-07
-7.36114e-08
-2.04965e-07
-6.87953e-09
-5.26263e-08
3.85097e-08
8.4276e-08
6.49209e-08
2.01426e-07
7.39962e-08
2.9465e-07
6.67251e-08
3.58706e-07
4.54261e-08
3.85521e-07
1.65054e-08
3.57411e-07
2.0055e-07
3.24261e-08
-1.9894e-07
4.99729e-08
-2.91261e-07
4.80625e-08
-2.51847e-07
3.15115e-08
-1.78965e-07
4.15048e-09
-9.7383e-08
-3.33851e-08
-1.48347e-08
-8.14761e-08
6.55638e-08
-1.41058e-07
1.42518e-07
-2.13435e-07
2.16079e-07
-3.00021e-07
2.87402e-07
-4.02091e-07
3.58404e-07
-5.20498e-07
4.31191e-07
-6.55414e-07
5.0739e-07
-8.06184e-07
5.87668e-07
-9.71098e-07
6.713e-07
-1.14698e-06
7.55729e-07
-1.32941e-06
8.373e-07
-1.51343e-06
9.1213e-07
-1.69298e-06
9.75528e-07
-1.86277e-06
1.02413e-06
-2.01959e-06
1.05654e-06
-2.16279e-06
1.07365e-06
-2.29279e-06
1.07683e-06
-2.41055e-06
1.06805e-06
-2.51716e-06
1.04906e-06
-2.61374e-06
1.02166e-06
-2.70124e-06
9.87277e-07
-2.7804e-06
9.47187e-07
-2.8518e-06
9.0239e-07
-2.91595e-06
8.53763e-07
-2.97327e-06
8.02023e-07
-3.02416e-06
7.47757e-07
-3.06894e-06
6.91435e-07
-3.1078e-06
6.33355e-07
-3.14114e-06
5.74118e-07
-3.16965e-06
5.14141e-07
-3.19389e-06
4.53494e-07
-3.2139e-06
3.9209e-07
-3.22956e-06
3.29774e-07
-3.24101e-06
2.66787e-07
-3.2482e-06
2.0282e-07
-3.25126e-06
1.3784e-07
-3.25034e-06
7.17008e-08
-3.24521e-06
3.61193e-09
-3.23653e-06
-6.4948e-08
-3.22396e-06
-1.35872e-07
-3.20743e-06
-2.09101e-07
-3.18675e-06
-2.84955e-07
-3.16164e-06
-3.63786e-07
-3.13182e-06
-4.45788e-07
-3.09709e-06
-5.31192e-07
-3.05696e-06
-6.20209e-07
-3.01082e-06
-7.12551e-07
-2.95782e-06
-8.07891e-07
-2.89703e-06
-9.05486e-07
-2.82666e-06
-1.00466e-06
-2.74229e-06
-1.10431e-06
-2.63971e-06
-1.20138e-06
-2.51689e-06
-1.29118e-06
-2.37391e-06
-1.36762e-06
-2.21233e-06
-1.4263e-06
-2.03392e-06
-1.46202e-06
-1.84008e-06
-1.47299e-06
-1.63458e-06
-1.45332e-06
-1.42114e-06
-1.40205e-06
-1.20451e-06
-1.31706e-06
-9.91741e-07
-1.19821e-06
-7.90556e-07
-1.05024e-06
-6.06584e-07
-8.80528e-07
-4.43952e-07
-6.96326e-07
-3.06053e-07
-5.0537e-07
-1.94584e-07
-3.16434e-07
-1.09325e-07
-1.37885e-07
-4.8226e-08
2.31772e-08
-8.00626e-09
1.61207e-07
1.41965e-08
2.72447e-07
2.07821e-08
3.52121e-07
1.49406e-08
3.91362e-07
3.1003e-09
3.69251e-07
2.0365e-07
2.35422e-08
-2.22483e-07
2.45855e-08
-2.92304e-07
6.12637e-09
-2.33388e-07
-2.47995e-08
-1.48039e-07
-6.60619e-08
-5.61206e-08
-1.17569e-07
3.66722e-08
-1.80135e-07
1.2813e-07
-2.54982e-07
2.17365e-07
-3.4343e-07
3.04527e-07
-4.46676e-07
3.90649e-07
-5.65555e-07
4.77282e-07
-7.00251e-07
5.65888e-07
-8.5018e-07
6.57318e-07
-1.01369e-06
7.51175e-07
-1.18741e-06
8.45018e-07
-1.36679e-06
9.35114e-07
-1.54659e-06
1.01711e-06
-1.7206e-06
1.08613e-06
-1.88398e-06
1.13891e-06
-2.03441e-06
1.17456e-06
-2.17137e-06
1.1935e-06
-2.29539e-06
1.19767e-06
-2.40747e-06
1.18891e-06
-2.50872e-06
1.16931e-06
-2.60021e-06
1.14055e-06
-2.68281e-06
1.10426e-06
-2.75719e-06
1.06166e-06
-2.82388e-06
1.01389e-06
-2.88337e-06
9.6187e-07
-2.93603e-06
9.06432e-07
-2.98227e-06
8.48256e-07
-3.02247e-06
7.87963e-07
-3.05722e-06
7.26186e-07
-3.0872e-06
6.63334e-07
-3.11262e-06
5.99531e-07
-3.13341e-06
5.34936e-07
-3.14966e-06
4.69742e-07
-3.16147e-06
4.039e-07
-3.1693e-06
3.37608e-07
-3.17355e-06
2.7103e-07
-3.17466e-06
2.0393e-07
-3.17296e-06
1.36145e-07
-3.16871e-06
6.74454e-08
-3.16233e-06
-2.76616e-09
-3.15346e-06
-7.38138e-08
-3.14227e-06
-1.4706e-07
-3.12879e-06
-2.22585e-07
-3.11299e-06
-3.0076e-07
-3.0948e-06
-3.81968e-07
-3.07405e-06
-4.66543e-07
-3.0504e-06
-5.54839e-07
-3.02345e-06
-6.47162e-07
-2.99242e-06
-7.43583e-07
-2.95633e-06
-8.43981e-07
-2.91401e-06
-9.47806e-07
-2.86479e-06
-1.05388e-06
-2.80712e-06
-1.16197e-06
-2.73929e-06
-1.26922e-06
-2.65691e-06
-1.37355e-06
-2.55251e-06
-1.47202e-06
-2.42185e-06
-1.55697e-06
-2.2654e-06
-1.61847e-06
-2.0874e-06
-1.65099e-06
-1.89045e-06
-1.65027e-06
-1.67844e-06
-1.61406e-06
-1.45561e-06
-1.53989e-06
-1.22843e-06
-1.4254e-06
-1.00565e-06
-1.27302e-06
-7.96636e-07
-1.08954e-06
-6.07747e-07
-8.85215e-07
-4.43502e-07
-6.69616e-07
-3.07303e-07
-4.52633e-07
-2.00354e-07
-2.44834e-07
-1.21448e-07
-5.57291e-08
-6.72541e-08
1.07013e-07
-3.31181e-08
2.38311e-07
-1.49383e-08
3.33941e-07
-7.56638e-09
3.8399e-07
-5.39162e-09
3.67076e-07
1.98259e-07
1.15275e-08
-2.3401e-07
-4.98661e-09
-2.7579e-07
-3.89597e-08
-1.99415e-07
-8.42731e-08
-1.02726e-07
-1.39496e-07
-8.97772e-10
-2.04969e-07
1.02146e-07
-2.81893e-07
2.05054e-07
-3.71529e-07
3.07001e-07
-4.75008e-07
4.08005e-07
-5.93118e-07
5.08759e-07
-7.26072e-07
6.10236e-07
-8.73407e-07
7.13223e-07
-1.03367e-06
8.17583e-07
-1.20361e-06
9.21118e-07
-1.37858e-06
1.01998e-06
-1.55317e-06
1.1097e-06
-1.72162e-06
1.18556e-06
-1.87945e-06
1.24396e-06
-2.02452e-06
1.28398e-06
-2.1562e-06
1.30624e-06
-2.2751e-06
1.3124e-06
-2.38218e-06
1.30475e-06
-2.47855e-06
1.28528e-06
-2.56515e-06
1.25591e-06
-2.64278e-06
1.21818e-06
-2.71205e-06
1.17352e-06
-2.77346e-06
1.12307e-06
-2.82747e-06
1.0679e-06
-2.87453e-06
1.00893e-06
-2.9151e-06
9.47e-07
-2.94966e-06
8.82819e-07
-2.9787e-06
8.17001e-07
-3.00247e-06
7.4996e-07
-3.02129e-06
6.82151e-07
-3.03554e-06
6.13782e-07
-3.04572e-06
5.4512e-07
-3.05238e-06
4.76396e-07
-3.05612e-06
4.07644e-07
-3.05738e-06
3.38861e-07
-3.05631e-06
2.69962e-07
-3.05315e-06
2.00777e-07
-3.04813e-06
1.31125e-07
-3.04141e-06
6.07242e-08
-3.03341e-06
-1.0766e-08
-3.0238e-06
-8.34222e-08
-3.01298e-06
-1.57882e-07
-3.00109e-06
-2.34475e-07
-2.98824e-06
-3.13614e-07
-2.9745e-06
-3.95707e-07
-2.95986e-06
-4.81178e-07
-2.94425e-06
-5.70452e-07
-2.92749e-06
-6.63923e-07
-2.9092e-06
-7.61871e-07
-2.88878e-06
-8.64408e-07
-2.86522e-06
-9.71361e-07
-2.8368e-06
-1.08231e-06
-2.80213e-06
-1.19664e-06
-2.75891e-06
-1.31244e-06
-2.70533e-06
-1.42714e-06
-2.63877e-06
-1.53857e-06
-2.55405e-06
-1.64168e-06
-2.43995e-06
-1.73258e-06
-2.29303e-06
-1.7979e-06
-2.11592e-06
-1.82739e-06
-1.91594e-06
-1.81404e-06
-1.69613e-06
-1.7597e-06
-1.46269e-06
-1.65884e-06
-1.22363e-06
-1.51207e-06
-9.90002e-07
-1.32317e-06
-7.72996e-07
-1.10222e-06
-5.79924e-07
-8.62688e-07
-4.15593e-07
-6.16964e-07
-2.83133e-07
-3.77294e-07
-1.82847e-07
-1.56014e-07
-1.12196e-07
3.63615e-08
-6.58875e-08
1.92003e-07
-3.78607e-08
3.05914e-07
-2.03954e-08
3.66525e-07
-9.12557e-09
3.55806e-07
1.89133e-07
-2.39138e-09
-2.31619e-07
-3.58356e-08
-2.42346e-07
-8.52601e-08
-1.49991e-07
-1.44719e-07
-4.3267e-08
-2.13493e-07
6.78765e-08
-2.92587e-07
1.81239e-07
-3.83193e-07
2.9566e-07
-4.86467e-07
4.10275e-07
-6.03199e-07
5.24737e-07
-7.33637e-07
6.39197e-07
-8.7744e-07
7.54039e-07
-1.03342e-06
8.69198e-07
-1.19861e-06
9.82775e-07
-1.36844e-06
1.09095e-06
-1.53764e-06
1.18918e-06
-1.70089e-06
1.27295e-06
-1.85388e-06
1.33856e-06
-1.99435e-06
1.38443e-06
-2.12162e-06
1.41125e-06
-2.23606e-06
1.42068e-06
-2.3387e-06
1.41504e-06
-2.4305e-06
1.39655e-06
-2.51235e-06
1.36712e-06
-2.58491e-06
1.32847e-06
-2.64876e-06
1.28203e-06
-2.70438e-06
1.22914e-06
-2.75225e-06
1.17094e-06
-2.79288e-06
1.10853e-06
-2.82681e-06
1.04285e-06
-2.85458e-06
9.74775e-07
-2.87677e-06
9.05012e-07
-2.89393e-06
8.34154e-07
-2.90662e-06
7.62653e-07
-2.91539e-06
6.90919e-07
-2.92081e-06
6.19201e-07
-2.92341e-06
5.47718e-07
-2.92359e-06
4.76581e-07
-2.92171e-06
4.05766e-07
-2.91805e-06
3.35195e-07
-2.91282e-06
2.64737e-07
-2.90625e-06
1.94206e-07
-2.89851e-06
1.23378e-07
-2.88976e-06
5.19823e-08
-2.88026e-06
-2.02666e-08
-2.87003e-06
-9.36609e-08
-2.85928e-06
-1.68624e-07
-2.84823e-06
-2.45526e-07
-2.83706e-06
-3.24789e-07
-2.82593e-06
-4.06837e-07
-2.81499e-06
-4.92118e-07
-2.80435e-06
-5.81092e-07
-2.79407e-06
-6.74203e-07
-2.7841e-06
-7.71843e-07
-2.77419e-06
-8.74314e-07
-2.76378e-06
-9.81775e-07
-2.75186e-06
-1.09423e-06
-2.73718e-06
-1.21131e-06
-2.71761e-06
-1.33202e-06
-2.68997e-06
-1.45477e-06
-2.65148e-06
-1.57706e-06
-2.59904e-06
-1.69413e-06
-2.52861e-06
-1.80301e-06
-2.43092e-06
-1.89559e-06
-2.29443e-06
-1.96388e-06
-2.11981e-06
-1.98865e-06
-1.91578e-06
-1.96374e-06
-1.6869e-06
-1.88771e-06
-1.44135e-06
-1.75763e-06
-1.18943e-06
-1.5751e-06
-9.44766e-07
-1.34688e-06
-7.20608e-07
-1.08685e-06
-5.2522e-07
-8.12353e-07
-3.63364e-07
-5.3915e-07
-2.37474e-07
-2.81903e-07
-1.46431e-07
-5.46818e-08
-8.56581e-08
1.3123e-07
-4.77702e-08
2.68026e-07
-2.36751e-08
3.4243e-07
-8.21846e-09
3.4035e-07
1.80915e-07
-1.72407e-08
-2.14378e-07
-6.73157e-08
-1.92271e-07
-1.31195e-07
-8.61109e-08
-2.0405e-07
2.95879e-08
-2.85806e-07
1.49633e-07
-3.77616e-07
2.73048e-07
-4.80686e-07
3.9873e-07
-5.95897e-07
5.25487e-07
-7.2359e-07
6.5243e-07
-8.63537e-07
7.79144e-07
-1.01479e-06
9.05295e-07
-1.17479e-06
1.0292e-06
-1.33927e-06
1.14725e-06
-1.50318e-06
1.25487e-06
-1.66164e-06
1.34764e-06
-1.81052e-06
1.42183e-06
-1.94716e-06
1.4752e-06
-2.07071e-06
1.50798e-06
-2.18142e-06
1.52196e-06
-2.28013e-06
1.51939e-06
-2.36778e-06
1.50268e-06
-2.44511e-06
1.47388e-06
-2.51278e-06
1.43478e-06
-2.57129e-06
1.38699e-06
-2.62119e-06
1.33193e-06
-2.663e-06
1.27095e-06
-2.69735e-06
1.2053e-06
-2.72492e-06
1.1361e-06
-2.74641e-06
1.06435e-06
-2.76255e-06
9.90911e-07
-2.77403e-06
9.16491e-07
-2.78152e-06
8.41645e-07
-2.78566e-06
7.66797e-07
-2.78701e-06
6.92272e-07
-2.78607e-06
6.18261e-07
-2.78324e-06
5.44882e-07
-2.7788e-06
4.72148e-07
-2.77302e-06
3.99984e-07
-2.76609e-06
3.28267e-07
-2.75819e-06
2.56835e-07
-2.74947e-06
1.85484e-07
-2.74007e-06
1.13976e-07
-2.73013e-06
4.20445e-08
-2.7198e-06
-3.05926e-08
-2.70921e-06
-1.04252e-07
-2.69854e-06
-1.79298e-07
-2.68797e-06
-2.56091e-07
-2.67773e-06
-3.35031e-07
-2.66803e-06
-4.16533e-07
-2.65912e-06
-5.01037e-07
-2.6512e-06
-5.89003e-07
-2.64451e-06
-6.80897e-07
-2.63919e-06
-7.77168e-07
-2.63527e-06
-8.78227e-07
-2.63262e-06
-9.84426e-07
-2.63085e-06
-1.096e-06
-2.62921e-06
-1.21295e-06
-2.62632e-06
-1.33491e-06
-2.62003e-06
-1.46106e-06
-2.6074e-06
-1.58969e-06
-2.58356e-06
-1.71797e-06
-2.54484e-06
-1.84173e-06
-2.48603e-06
-1.9544e-06
-2.40022e-06
-2.04969e-06
-2.2723e-06
-2.11657e-06
-2.0997e-06
-2.13633e-06
-1.89001e-06
-2.09741e-06
-1.65032e-06
-1.99732e-06
-1.3913e-06
-1.83411e-06
-1.12615e-06
-1.61203e-06
-8.71338e-07
-1.34166e-06
-6.42314e-07
-1.04138e-06
-4.47882e-07
-7.33583e-07
-2.92281e-07
-4.37504e-07
-1.7657e-07
-1.70394e-07
-9.75802e-08
5.22405e-08
-4.81487e-08
2.18595e-07
-1.92643e-08
3.13545e-07
-3.834e-09
3.24919e-07
1.77081e-07
-3.22134e-08
-1.82165e-07
-9.77093e-08
-1.26775e-07
-1.75135e-07
-8.68512e-09
-2.60474e-07
1.14927e-07
-3.54192e-07
2.43351e-07
-4.57482e-07
3.76338e-07
-5.71406e-07
5.12655e-07
-6.96502e-07
6.50583e-07
-8.32694e-07
7.88622e-07
-9.79252e-07
9.25702e-07
-1.134e-06
1.06005e-06
-1.29316e-06
1.18835e-06
-1.45208e-06
1.30617e-06
-1.60622e-06
1.40901e-06
-1.7516e-06
1.49302e-06
-1.88525e-06
1.55548e-06
-2.00586e-06
1.59581e-06
-2.11356e-06
1.61567e-06
-2.209e-06
1.6174e-06
-2.29303e-06
1.60342e-06
-2.36637e-06
1.57603e-06
-2.4296e-06
1.53711e-06
-2.48327e-06
1.48845e-06
-2.52795e-06
1.43167e-06
-2.56431e-06
1.36828e-06
-2.59308e-06
1.29973e-06
-2.6151e-06
1.22732e-06
-2.63123e-06
1.15222e-06
-2.64231e-06
1.07543e-06
-2.64916e-06
9.97756e-07
-2.6525e-06
9.19836e-07
-2.653e-06
8.42146e-07
-2.65123e-06
7.65021e-07
-2.64763e-06
6.88678e-07
-2.64259e-06
6.13219e-07
-2.63638e-06
5.38671e-07
-2.6292e-06
4.64972e-07
-2.62122e-06
3.92005e-07
-2.61257e-06
3.19617e-07
-2.60336e-06
2.47617e-07
-2.59366e-06
1.75788e-07
-2.58358e-06
1.03894e-07
-2.57321e-06
3.16738e-08
-2.56265e-06
-4.11495e-08
-2.55203e-06
-1.14874e-07
-2.5415e-06
-1.89826e-07
-2.53125e-06
-2.66341e-07
-2.5215e-06
-3.44784e-07
-2.51249e-06
-4.25539e-07
-2.50451e-06
-5.0902e-07
-2.49785e-06
-5.95665e-07
-2.49281e-06
-6.85932e-07
-2.48969e-06
-7.80292e-07
-2.4887e-06
-8.79217e-07
-2.48996e-06
-9.8316e-07
-2.49345e-06
-1.09251e-06
-2.49886e-06
-1.20753e-06
-2.5055e-06
-1.32827e-06
-2.51214e-06
-1.45442e-06
-2.51672e-06
-1.58512e-06
-2.51596e-06
-1.71873e-06
-2.50539e-06
-1.8523e-06
-2.47865e-06
-1.98114e-06
-2.43016e-06
-2.09818e-06
-2.35152e-06
-2.19521e-06
-2.22915e-06
-2.25871e-06
-2.05607e-06
-2.27049e-06
-1.83866e-06
-2.21473e-06
-1.58627e-06
-2.08649e-06
-1.31292e-06
-1.88539e-06
-1.0351e-06
-1.61947e-06
-7.7262e-07
-1.30386e-06
-5.42907e-07
-9.63296e-07
-3.54415e-07
-6.25996e-07
-2.1026e-07
-3.14549e-07
-1.09283e-07
-4.87362e-08
-4.57294e-08
1.55041e-07
-1.14254e-08
2.79241e-07
2.30659e-09
3.11187e-07
1.79387e-07
-4.65156e-08
-1.35649e-07
-1.26038e-07
-4.72524e-08
-2.15685e-07
8.09617e-08
-3.12418e-07
2.1166e-07
-4.16794e-07
3.47727e-07
-5.30018e-07
4.89562e-07
-6.52933e-07
6.3557e-07
-7.85734e-07
7.83383e-07
-9.27904e-07
9.30792e-07
-1.07764e-06
1.07544e-06
-1.23171e-06
1.21411e-06
-1.38604e-06
1.34268e-06
-1.53636e-06
1.45649e-06
-1.67882e-06
1.55147e-06
-1.81024e-06
1.62444e-06
-1.9288e-06
1.67404e-06
-2.03429e-06
1.70131e-06
-2.12726e-06
1.70864e-06
-2.20843e-06
1.69857e-06
-2.27849e-06
1.67349e-06
-2.33804e-06
1.63557e-06
-2.38763e-06
1.58671e-06
-2.42793e-06
1.52876e-06
-2.45972e-06
1.46345e-06
-2.48387e-06
1.39243e-06
-2.50136e-06
1.31721e-06
-2.51317e-06
1.23913e-06
-2.52027e-06
1.15932e-06
-2.52353e-06
1.07869e-06
-2.52374e-06
9.97967e-07
-2.52157e-06
9.17667e-07
-2.51758e-06
8.38151e-07
-2.5122e-06
7.59643e-07
-2.50577e-06
6.82251e-07
-2.49854e-06
6.05994e-07
-2.49069e-06
5.30817e-07
-2.48233e-06
4.56607e-07
-2.47353e-06
3.8321e-07
-2.46437e-06
3.10455e-07
-2.45488e-06
2.38126e-07
-2.44509e-06
1.66e-07
-2.43505e-06
9.38542e-08
-2.42482e-06
2.14392e-08
-2.41445e-06
-5.15122e-08
-2.40406e-06
-1.25265e-07
-2.39378e-06
-2.0011e-07
-2.38377e-06
-2.76349e-07
-2.37425e-06
-3.54303e-07
-2.36547e-06
-4.34316e-07
-2.35774e-06
-5.16758e-07
-2.35137e-06
-6.02028e-07
-2.34675e-06
-6.90559e-07
-2.34423e-06
-7.82811e-07
-2.34417e-06
-8.79276e-07
-2.34687e-06
-9.80459e-07
-2.35253e-06
-1.08686e-06
-2.36115e-06
-1.19891e-06
-2.37247e-06
-1.31695e-06
-2.38582e-06
-1.44107e-06
-2.39994e-06
-1.571e-06
-2.41278e-06
-1.70589e-06
-2.42112e-06
-1.84396e-06
-2.42011e-06
-1.98214e-06
-2.40289e-06
-2.1154e-06
-2.362e-06
-2.2361e-06
-2.28805e-06
-2.33267e-06
-2.16665e-06
-2.39189e-06
-1.98984e-06
-2.39153e-06
-1.76184e-06
-2.3145e-06
-1.49504e-06
-2.15219e-06
-1.20718e-06
-1.90733e-06
-9.1875e-07
-1.59228e-06
-6.53405e-07
-1.22864e-06
-4.29416e-07
-8.49986e-07
-2.53908e-07
-4.90057e-07
-1.27862e-07
-1.74782e-07
-4.72439e-08
7.44229e-08
-5.27616e-09
2.37274e-07
7.63347e-09
2.98278e-07
1.87021e-07
-5.95671e-08
-7.60819e-08
-1.51376e-07
4.45561e-08
-2.51974e-07
1.8156e-07
-3.58665e-07
3.18351e-07
-4.72159e-07
4.61221e-07
-5.93568e-07
6.10971e-07
-7.23499e-07
7.65501e-07
-8.61748e-07
9.21632e-07
-1.00689e-06
1.07593e-06
-1.15623e-06
1.22479e-06
-1.3064e-06
1.36428e-06
-1.4534e-06
1.48968e-06
-1.59347e-06
1.59657e-06
-1.72334e-06
1.68134e-06
-1.84074e-06
1.74183e-06
-1.94496e-06
1.77826e-06
-2.03637e-06
1.79271e-06
-2.11558e-06
1.78786e-06
-2.18328e-06
1.76626e-06
-2.24006e-06
1.73027e-06
-2.28655e-06
1.68206e-06
-2.32348e-06
1.62364e-06
-2.35172e-06
1.55701e-06
-2.37231e-06
1.48403e-06
-2.38632e-06
1.40644e-06
-2.39487e-06
1.32576e-06
-2.39898e-06
1.24325e-06
-2.39962e-06
1.15996e-06
-2.3976e-06
1.07667e-06
-2.39361e-06
9.93972e-07
-2.38818e-06
9.12243e-07
-2.38175e-06
8.31723e-07
-2.37463e-06
7.52519e-07
-2.36703e-06
6.74649e-07
-2.35909e-06
5.98052e-07
-2.35088e-06
5.22615e-07
-2.34246e-06
4.48183e-07
-2.33383e-06
3.74577e-07
-2.32498e-06
3.0161e-07
-2.31592e-06
2.29064e-07
-2.30663e-06
1.56708e-07
-2.29711e-06
8.43341e-08
-2.28739e-06
1.17195e-08
-2.27751e-06
-6.13946e-08
-2.26754e-06
-1.35233e-07
-2.25759e-06
-2.10053e-07
-2.24783e-06
-2.86117e-07
-2.23843e-06
-3.637e-07
-2.22965e-06
-4.431e-07
-2.22177e-06
-5.24635e-07
-2.21514e-06
-6.08656e-07
-2.21015e-06
-6.95551e-07
-2.20721e-06
-7.85747e-07
-2.20677e-06
-8.79719e-07
-2.20924e-06
-9.77986e-07
-2.215e-06
-1.0811e-06
-2.22428e-06
-1.18963e-06
-2.23715e-06
-1.30408e-06
-2.25334e-06