/*--------------------------------*- C++ -*----------------------------------*\
  =========                 |
  \\      /  F ield         | OpenFOAM: The Open Source CFD Toolbox
   \\    /   O peration     | Website:  https://openfoam.org
    \\  /    A nd           | Version:  13
     \\/     M anipulation  |
\*---------------------------------------------------------------------------*/
FoamFile
{
    format      ascii;
    class       volVectorField;
    location    "6.8";
    object      U;
}
// * * * * * * * * * * * * * * * * * * * * * * * * * * * * * * * * * * * * * //

dimensions      [0 1 -1 0 0 0 0];

internalField   nonuniform List<vector> 
6400
(
(-0.000123784 8.15276e-05 0)
(0.000435174 -0.000169294 0)
(0.00205299 -0.000425191 0)
(0.00419468 -0.000539037 0)
(0.00632898 -0.000475458 0)
(0.008113 -0.000317932 0)
(0.00930315 -0.000128042 0)
(0.00990116 1.49913e-05 0)
(0.0100311 6.86213e-05 0)
(0.00992957 4.7398e-05 0)
(0.00972269 -2.92987e-05 0)
(0.00957361 -0.000134573 0)
(0.00954872 -0.000243418 0)
(0.00964501 -0.000331791 0)
(0.00981563 -0.000403532 0)
(0.00998255 -0.000456487 0)
(0.0100733 -0.000490533 0)
(0.0100348 -0.000494525 0)
(0.00982923 -0.000477482 0)
(0.00936342 -0.000438621 0)
(0.00859638 -0.000390226 0)
(0.00747361 -0.000340792 0)
(0.00594955 -0.000294748 0)
(0.00399746 -0.000275766 0)
(0.00158204 -0.000320935 0)
(-0.00127367 -0.000432293 0)
(-0.0045775 -0.000489703 0)
(-0.00856789 -0.000330594 0)
(-0.0133648 0.000162727 0)
(-0.0189407 0.00100745 0)
(-0.0261235 0.00203905 0)
(-0.034119 0.00292004 0)
(-0.0428017 0.00363682 0)
(-0.0518682 0.00417444 0)
(-0.0610659 0.00453672 0)
(-0.0701596 0.00473593 0)
(-0.0789636 0.00479544 0)
(-0.0873201 0.00473798 0)
(-0.0951117 0.00458556 0)
(-0.102238 0.00435614 0)
(-0.108624 0.004062 0)
(-0.114206 0.0037122 0)
(-0.118937 0.00331005 0)
(-0.122791 0.00285952 0)
(-0.12573 0.00237116 0)
(-0.127604 0.00189015 0)
(-0.128434 0.00145063 0)
(-0.128474 0.000777193 0)
(-0.127123 0.000214333 0)
(-0.124856 -0.000457995 0)
(-0.121308 -0.0010986 0)
(-0.116681 -0.00176308 0)
(-0.110839 -0.00240336 0)
(-0.103888 -0.00302899 0)
(-0.0958461 -0.00363595 0)
(-0.0868297 -0.00422519 0)
(-0.076831 -0.00474375 0)
(-0.0660417 -0.00518552 0)
(-0.0546182 -0.00552328 0)
(-0.0427641 -0.0057199 0)
(-0.0307213 -0.00574345 0)
(-0.0187719 -0.00557696 0)
(-0.00718116 -0.00521799 0)
(0.0036553 -0.00470393 0)
(0.0134002 -0.00396661 0)
(0.0218014 -0.00304592 0)
(0.0285554 -0.00198683 0)
(0.0333764 -0.000838433 0)
(0.0362827 0.000320347 0)
(0.0366624 0.00155682 0)
(0.0353427 0.0022091 0)
(0.031933 0.00279841 0)
(0.0267406 0.00301058 0)
(0.0206768 0.00272649 0)
(0.0145109 0.00204925 0)
(0.00906138 0.0012234 0)
(0.00477842 0.000540604 0)
(0.00181866 0.000128648 0)
(0.000173277 -0.000163458 0)
(-0.000230977 -0.000342273 0)
(1.45019e-05 -0.000374658 0)
(0.00177952 -0.00206596 0)
(0.0051546 -0.00348187 0)
(0.00893632 -0.0039682 0)
(0.012433 -0.00359903 0)
(0.0152243 -0.00274354 0)
(0.0171328 -0.00169629 0)
(0.0181801 -0.000739647 0)
(0.0184906 -5.93061e-05 0)
(0.0182231 0.000309368 0)
(0.0175784 0.000414342 0)
(0.0167194 0.000332968 0)
(0.0157347 0.000185764 0)
(0.0146161 8.43626e-05 0)
(0.0132937 9.14661e-05 0)
(0.0116654 0.000220396 0)
(0.00964245 0.00045065 0)
(0.00716319 0.000764801 0)
(0.00411574 0.00117984 0)
(0.000395711 0.00170783 0)
(-0.00410493 0.00235347 0)
(-0.00960469 0.00313396 0)
(-0.0162109 0.00401961 0)
(-0.0239859 0.00499471 0)
(-0.0329767 0.00607601 0)
(-0.0432759 0.00727147 0)
(-0.0548049 0.00860435 0)
(-0.0672191 0.0100752 0)
(-0.0801547 0.0116336 0)
(-0.0930969 0.0131223 0)
(-0.105477 0.0142323 0)
(-0.117524 0.0149341 0)
(-0.128937 0.0152319 0)
(-0.139636 0.0151467 0)
(-0.149522 0.0147483 0)
(-0.158526 0.0140855 0)
(-0.166608 0.0132144 0)
(-0.173733 0.0121794 0)
(-0.179889 0.0110182 0)
(-0.185059 0.00975993 0)
(-0.189232 0.00842247 0)
(-0.192405 0.00702238 0)
(-0.19457 0.00556616 0)
(-0.195719 0.00406623 0)
(-0.195844 0.00253158 0)
(-0.194909 0.000964554 0)
(-0.192918 -0.000656141 0)
(-0.189901 -0.00235245 0)
(-0.185752 -0.00409176 0)
(-0.180554 -0.0058692 0)
(-0.174228 -0.00766795 0)
(-0.166814 -0.00947212 0)
(-0.158278 -0.0112601 0)
(-0.148648 -0.0130012 0)
(-0.137928 -0.0146622 0)
(-0.126184 -0.0161907 0)
(-0.113535 -0.0175523 0)
(-0.100076 -0.0186905 0)
(-0.0859781 -0.0195296 0)
(-0.0714604 -0.0200199 0)
(-0.0567292 -0.0200963 0)
(-0.0420427 -0.0197135 0)
(-0.0276878 -0.0188451 0)
(-0.0139714 -0.017496 0)
(-0.00117983 -0.0156347 0)
(0.010414 -0.0132969 0)
(0.0205242 -0.0105159 0)
(0.0289039 -0.00741493 0)
(0.0353894 -0.00406742 0)
(0.0397844 -0.000657739 0)
(0.0420813 0.00256405 0)
(0.042139 0.00552974 0)
(0.0400577 0.00796854 0)
(0.0360124 0.00964011 0)
(0.030168 0.0098485 0)
(0.0228992 0.00892914 0)
(0.0152248 0.00711284 0)
(0.00826219 0.0048214 0)
(0.0030893 0.00235244 0)
(0.000231641 0.000303613 0)
(0.000198462 -0.00160322 0)
(0.00314912 -0.00531243 0)
(0.00738745 -0.00754381 0)
(0.0113689 -0.00783629 0)
(0.014647 -0.00676331 0)
(0.0170096 -0.00498037 0)
(0.0184797 -0.00305326 0)
(0.0191172 -0.00131126 0)
(0.0189979 6.40721e-05 0)
(0.0182201 0.000991172 0)
(0.0169323 0.00149556 0)
(0.0152105 0.00172409 0)
(0.0130713 0.00186952 0)
(0.0104767 0.00210494 0)
(0.00734027 0.00253765 0)
(0.00356024 0.00319382 0)
(-0.000985856 0.00406297 0)
(-0.00645857 0.00515513 0)
(-0.0129836 0.00649306 0)
(-0.0206818 0.00811173 0)
(-0.0296392 0.0100191 0)
(-0.0398394 0.0121596 0)
(-0.051251 0.0144494 0)
(-0.06374 0.0167685 0)
(-0.0770573 0.0189929 0)
(-0.090903 0.0210294 0)
(-0.104911 0.0227817 0)
(-0.118768 0.0241908 0)
(-0.132136 0.0251936 0)
(-0.144751 0.0257707 0)
(-0.156448 0.0259144 0)
(-0.167175 0.0256194 0)
(-0.176857 0.0249351 0)
(-0.185563 0.0238949 0)
(-0.193288 0.0225427 0)
(-0.200072 0.0209492 0)
(-0.205937 0.0191599 0)
(-0.21091 0.017221 0)
(-0.215003 0.0151618 0)
(-0.218231 0.0130173 0)
(-0.220604 0.0107994 0)
(-0.222122 0.00851946 0)
(-0.222782 0.00618653 0)
(-0.222578 0.00380002 0)
(-0.221501 0.00136054 0)
(-0.219542 -0.0011392 0)
(-0.21665 -0.00371824 0)
(-0.21282 -0.0063655 0)
(-0.208027 -0.00905536 0)
(-0.202254 -0.0117963 0)
(-0.19547 -0.0145673 0)
(-0.187668 -0.0173509 0)
(-0.178833 -0.0201171 0)
(-0.168971 -0.0228254 0)
(-0.158097 -0.0254205 0)
(-0.146253 -0.0278297 0)
(-0.133514 -0.0299829 0)
(-0.119974 -0.0317895 0)
(-0.10575 -0.0331478 0)
(-0.0910279 -0.0339685 0)
(-0.076024 -0.0341639 0)
(-0.0609657 -0.0336524 0)
(-0.0461363 -0.0323899 0)
(-0.0318419 -0.030383 0)
(-0.0183567 -0.0276278 0)
(-0.00591108 -0.0241562 0)
(0.00522281 -0.0200325 0)
(0.0148229 -0.0153761 0)
(0.0227647 -0.0103419 0)
(0.0289167 -0.00511823 0)
(0.0332391 6.78688e-05 0)
(0.035714 0.00499268 0)
(0.0362057 0.00930539 0)
(0.0346426 0.0126736 0)
(0.0312909 0.0150059 0)
(0.026269 0.0156 0)
(0.0197302 0.0145637 0)
(0.0125739 0.0119722 0)
(0.00588396 0.00795246 0)
(0.000785944 0.00298047 0)
(0.000414431 -0.00353081 0)
(0.00421317 -0.0094061 0)
(0.00857138 -0.0117628 0)
(0.0120823 -0.0112852 0)
(0.0146171 -0.0092291 0)
(0.016169 -0.00652497 0)
(0.0168374 -0.00374508 0)
(0.0167145 -0.00123271 0)
(0.0158795 0.000814766 0)
(0.0143918 0.00232648 0)
(0.0122485 0.0033836 0)
(0.00942696 0.00417497 0)
(0.00587631 0.00493277 0)
(0.00152658 0.00585871 0)
(-0.00369702 0.00707268 0)
(-0.00989247 0.00862453 0)
(-0.0171806 0.0105298 0)
(-0.025682 0.0127925 0)
(-0.035478 0.0154027 0)
(-0.0465835 0.0183277 0)
(-0.0589137 0.0214756 0)
(-0.0722722 0.0247018 0)
(-0.086368 0.0278288 0)
(-0.100839 0.0306881 0)
(-0.115385 0.0331861 0)
(-0.12966 0.0351389 0)
(-0.143375 0.0364458 0)
(-0.156245 0.0371225 0)
(-0.168104 0.0372346 0)
(-0.178914 0.0368282 0)
(-0.188649 0.0359657 0)
(-0.197368 0.0346856 0)
(-0.205112 0.033025 0)
(-0.211955 0.0310548 0)
(-0.217934 0.0288205 0)
(-0.223115 0.0263779 0)
(-0.227529 0.0237669 0)
(-0.231209 0.0210292 0)
(-0.234172 0.0181883 0)
(-0.236432 0.0152647 0)
(-0.237992 0.0122706 0)
(-0.238848 0.00921062 0)
(-0.238992 0.00608527 0)
(-0.238409 0.00289044 0)
(-0.237082 -0.000377598 0)
(-0.234989 -0.00372454 0)
(-0.232091 -0.00714831 0)
(-0.228364 -0.0106715 0)
(-0.223777 -0.014279 0)
(-0.218296 -0.0179641 0)
(-0.211886 -0.0217031 0)
(-0.204524 -0.0254732 0)
(-0.196185 -0.0292395 0)
(-0.186854 -0.0329501 0)
(-0.176523 -0.0365307 0)
(-0.165206 -0.0398831 0)
(-0.152942 -0.0429048 0)
(-0.13981 -0.0454873 0)
(-0.125901 -0.0474865 0)
(-0.111347 -0.0487572 0)
(-0.0963475 -0.0491884 0)
(-0.0811131 -0.0486568 0)
(-0.0658974 -0.0470861 0)
(-0.0510152 -0.0444409 0)
(-0.0368193 -0.0407854 0)
(-0.0235705 -0.0361821 0)
(-0.0115108 -0.0307162 0)
(-0.000861949 -0.0245318 0)
(0.00821673 -0.0178548 0)
(0.0156072 -0.0109293 0)
(0.0212549 -0.00400787 0)
(0.0251723 0.00268293 0)
(0.0274043 0.00883364 0)
(0.0279658 0.0140309 0)
(0.0267153 0.0179321 0)
(0.0236903 0.0202342 0)
(0.0190688 0.0204947 0)
(0.0132463 0.0185621 0)
(0.00689834 0.0142364 0)
(0.00106806 0.00675145 0)
(0.000689094 -0.00601437 0)
(0.0048992 -0.0137519 0)
(0.00875477 -0.0155327 0)
(0.0114073 -0.0139514 0)
(0.0129908 -0.01081 0)
(0.0135779 -0.00716531 0)
(0.0133158 -0.00356654 0)
(0.012291 -0.000321268 0)
(0.0105401 0.00241572 0)
(0.00805101 0.00463066 0)
(0.00476039 0.00643884 0)
(0.000580373 0.00805326 0)
(-0.00458114 0.00971734 0)
(-0.0108118 0.0116348 0)
(-0.0181942 0.0139343 0)
(-0.0268061 0.0166732 0)
(-0.036708 0.0198587 0)
(-0.0479223 0.0234573 0)
(-0.0603879 0.02737 0)
(-0.0739323 0.0314552 0)
(-0.0882683 0.0354885 0)
(-0.103038 0.0392687 0)
(-0.117882 0.042663 0)
(-0.132493 0.0453875 0)
(-0.146485 0.0473144 0)
(-0.159539 0.0484556 0)
(-0.171561 0.0488338 0)
(-0.182493 0.0485063 0)
(-0.192385 0.0475781 0)
(-0.201278 0.0461447 0)
(-0.209237 0.0442872 0)
(-0.216349 0.0420763 0)
(-0.22266 0.0395613 0)
(-0.228233 0.0367943 0)
(-0.233116 0.033817 0)
(-0.237356 0.0306708 0)
(-0.240977 0.0273887 0)
(-0.244006 0.0240008 0)
(-0.246457 0.0205206 0)
(-0.248332 0.0169614 0)
(-0.249632 0.0133312 0)
(-0.250351 0.00962571 0)
(-0.250477 0.00583928 0)
(-0.249993 0.00196217 0)
(-0.248884 -0.00201317 0)
(-0.247116 -0.00609591 0)
(-0.244651 -0.0102897 0)
(-0.241455 -0.0146059 0)
(-0.237495 -0.0190447 0)
(-0.232738 -0.0236069 0)
(-0.227122 -0.0282617 0)
(-0.220607 -0.032982 0)
(-0.213156 -0.0377308 0)
(-0.204729 -0.0424465 0)
(-0.195296 -0.0470429 0)
(-0.184843 -0.0513995 0)
(-0.173363 -0.0553788 0)
(-0.160914 -0.0588574 0)
(-0.147549 -0.0616474 0)
(-0.133361 -0.063555 0)
(-0.118523 -0.0644402 0)
(-0.103214 -0.0641231 0)
(-0.0876886 -0.0624843 0)
(-0.0721886 -0.0594516 0)
(-0.0570741 -0.0550455 0)
(-0.0427712 -0.0493976 0)
(-0.0295469 -0.0426406 0)
(-0.0176326 -0.0349783 0)
(-0.0072425 -0.026673 0)
(0.0014715 -0.018034 0)
(0.00843555 -0.00938043 0)
(0.0136574 -0.00100708 0)
(0.0172048 0.00677788 0)
(0.0191506 0.0136479 0)
(0.0195104 0.0192425 0)
(0.0182947 0.0231081 0)
(0.015514 0.0247932 0)
(0.0113751 0.0239768 0)
(0.00623833 0.0200354 0)
(0.000932763 0.010531 0)
(0.000996251 -0.00889578 0)
(0.00510864 -0.0177613 0)
(0.00802354 -0.0183515 0)
(0.00956354 -0.0155868 0)
(0.0100878 -0.0113563 0)
(0.00964984 -0.0068161 0)
(0.0083954 -0.00242692 0)
(0.0063688 0.001567 0)
(0.00355348 0.00506934 0)
(-0.00011879 0.00811615 0)
(-0.00475384 0.0108575 0)
(-0.010466 0.0135165 0)
(-0.017357 0.0163267 0)
(-0.025508 0.0194755 0)
(-0.0349742 0.0230729 0)
(-0.0457716 0.0271427 0)
(-0.0578558 0.0316312 0)
(-0.0711037 0.0364448 0)
(-0.0852936 0.0413548 0)
(-0.100062 0.0461022 0)
(-0.115055 0.0505232 0)
(-0.129924 0.0542607 0)
(-0.14421 0.0571251 0)
(-0.157544 0.0590495 0)
(-0.169787 0.0599962 0)
(-0.180939 0.0600497 0)
(-0.191051 0.0593365 0)
(-0.200193 0.0579889 0)
(-0.208453 0.05612 0)
(-0.21589 0.0538194 0)
(-0.222577 0.0511627 0)
(-0.228569 0.0482064 0)
(-0.233913 0.0450025 0)
(-0.238661 0.0415938 0)
(-0.242851 0.038014 0)
(-0.246509 0.0342938 0)
(-0.249656 0.03046 0)
(-0.252309 0.0265363 0)
(-0.25448 0.0225319 0)
(-0.256169 0.0184514 0)
(-0.257377 0.0142975 0)
(-0.258104 0.0100588 0)
(-0.258342 0.00572358 0)
(-0.258082 0.00127433 0)
(-0.257325 -0.00330993 0)
(-0.256041 -0.00804366 0)
(-0.2542 -0.0129322 0)
(-0.251758 -0.0179778 0)
(-0.248668 -0.0231806 0)
(-0.244878 -0.0285444 0)
(-0.24034 -0.0340527 0)
(-0.234966 -0.0396607 0)
(-0.22869 -0.0453252 0)
(-0.221438 -0.0509747 0)
(-0.213184 -0.056545 0)
(-0.203941 -0.0619538 0)
(-0.193562 -0.0669697 0)
(-0.18209 -0.071459 0)
(-0.169565 -0.0752059 0)
(-0.15598 -0.0779456 0)
(-0.141519 -0.0795164 0)
(-0.126304 -0.0796731 0)
(-0.110576 -0.0782765 0)
(-0.0945942 -0.0751617 0)
(-0.0786412 -0.0703046 0)
(-0.0631305 -0.0637898 0)
(-0.0485457 -0.0558887 0)
(-0.0351492 -0.0468244 0)
(-0.0232124 -0.0369111 0)
(-0.0129545 -0.0265349 0)
(-0.00450547 -0.0161014 0)
(0.00210804 -0.00599549 0)
(0.00695333 0.00343588 0)
(0.0101554 0.0118691 0)
(0.0118306 0.0189769 0)
(0.0120446 0.0243325 0)
(0.0108077 0.0274519 0)
(0.00821487 0.0278578 0)
(0.00461889 0.0246228 0)
(0.000558004 0.0136425 0)
(0.00124853 -0.0119283 0)
(0.0047754 -0.0209213 0)
(0.00639476 -0.0200795 0)
(0.0068279 -0.0160399 0)
(0.00620452 -0.0108168 0)
(0.0047072 -0.00543136 0)
(0.0024047 -0.000250667 0)
(-0.000712077 0.00454793 0)
(-0.00470816 0.00892236 0)
(-0.00968707 0.0129461 0)
(-0.0157684 0.0167855 0)
(-0.0230638 0.0206555 0)
(-0.0316585 0.0247632 0)
(-0.0415983 0.0292589 0)
(-0.0528764 0.0342034 0)
(-0.0654042 0.0395527 0)
(-0.0790415 0.0451758 0)
(-0.0934918 0.0508266 0)
(-0.10836 0.0562842 0)
(-0.123314 0.0611786 0)
(-0.137884 0.0652343 0)
(-0.151584 0.0682439 0)
(-0.1642 0.0701171 0)
(-0.175704 0.0709067 0)
(-0.186155 0.0707495 0)
(-0.195621 0.0697866 0)
(-0.204196 0.0681497 0)
(-0.211963 0.0659627 0)
(-0.218996 0.0633241 0)
(-0.225348 0.0603167 0)
(-0.231072 0.0570067 0)
(-0.236211 0.053442 0)
(-0.240804 0.049668 0)
(-0.244888 0.0457215 0)
(-0.248489 0.0416352 0)
(-0.251627 0.0374372 0)
(-0.254316 0.0331544 0)
(-0.256567 0.0288027 0)
(-0.25839 0.0243882 0)
(-0.259818 0.0198488 0)
(-0.260856 0.0152366 0)
(-0.261488 0.0105443 0)
(-0.261706 0.00575875 0)
(-0.261499 0.000863846 0)
(-0.260852 -0.00415992 0)
(-0.259798 -0.00933674 0)
(-0.258317 -0.0146902 0)
(-0.256415 -0.0202514 0)
(-0.254069 -0.0260474 0)
(-0.251248 -0.0321052 0)
(-0.247925 -0.0384109 0)
(-0.244002 -0.0448896 0)
(-0.239381 -0.0515223 0)
(-0.233958 -0.058247 0)
(-0.227579 -0.0649477 0)
(-0.22005 -0.0714449 0)
(-0.211276 -0.0775265 0)
(-0.201191 -0.083044 0)
(-0.190031 -0.0879362 0)
(-0.177523 -0.0917378 0)
(-0.163863 -0.0942621 0)
(-0.149116 -0.0951894 0)
(-0.133508 -0.0943324 0)
(-0.117252 -0.0914736 0)
(-0.100684 -0.0865485 0)
(-0.0840921 -0.0795146 0)
(-0.0680405 -0.0706312 0)
(-0.0530422 -0.0602855 0)
(-0.0393771 -0.0488095 0)
(-0.0273537 -0.0366621 0)
(-0.0171943 -0.0243512 0)
(-0.0090006 -0.012377 0)
(-0.00274938 -0.00118383 0)
(0.00170071 0.00886216 0)
(0.00454842 0.0174477 0)
(0.00595219 0.0242077 0)
(0.0060012 0.0286863 0)
(0.00476605 0.0302703 0)
(0.00263308 0.0277327 0)
(9.60585e-05 0.0156029 0)
(0.0013544 -0.0147728 0)
(0.00378487 -0.0229478 0)
(0.00417991 -0.0205848 0)
(0.00338123 -0.0152809 0)
(0.00161488 -0.00917143 0)
(-0.000969988 -0.00297192 0)
(-0.00437152 0.00302956 0)
(-0.00864666 0.00871041 0)
(-0.0138927 0.0140654 0)
(-0.0202235 0.0191874 0)
(-0.0277494 0.0242403 0)
(-0.0365575 0.0294137 0)
(-0.0466926 0.0348702 0)
(-0.0581417 0.0406956 0)
(-0.0708103 0.0468841 0)
(-0.0845248 0.0532931 0)
(-0.0989515 0.0596687 0)
(-0.113725 0.0657349 0)
(-0.1284 0.0711098 0)
(-0.142487 0.0754836 0)
(-0.155585 0.0786272 0)
(-0.167586 0.0805234 0)
(-0.1785 0.0812715 0)
(-0.18839 0.081026 0)
(-0.197342 0.0799203 0)
(-0.205447 0.0781018 0)
(-0.212794 0.0756921 0)
(-0.219445 0.0728005 0)
(-0.225456 0.0695115 0)
(-0.230867 0.0658985 0)
(-0.235716 0.0620205 0)
(-0.240037 0.0579258 0)
(-0.243857 0.0536579 0)
(-0.247197 0.0492582 0)
(-0.25007 0.0447654 0)
(-0.252521 0.0401688 0)
(-0.254635 0.0354535 0)
(-0.2564 0.0306635 0)
(-0.257831 0.0257958 0)
(-0.258917 0.0209075 0)
(-0.259658 0.015941 0)
(-0.260065 0.0108833 0)
(-0.260145 0.0057241 0)
(-0.259902 0.000446582 0)
(-0.259346 -0.00496472 0)
(-0.258496 -0.0105235 0)
(-0.25733 -0.0162586 0)
(-0.255844 -0.0221872 0)
(-0.25402 -0.0283239 0)
(-0.251832 -0.0346688 0)
(-0.249245 -0.0412719 0)
(-0.246252 -0.0482064 0)
(-0.24281 -0.0554268 0)
(-0.238864 -0.062903 0)
(-0.234333 -0.0705881 0)
(-0.229128 -0.0784109 0)
(-0.223016 -0.0860025 0)
(-0.215655 -0.0931351 0)
(-0.206612 -0.0993272 0)
(-0.19594 -0.104365 0)
(-0.183779 -0.10812 0)
(-0.170152 -0.110167 0)
(-0.155244 -0.110267 0)
(-0.139207 -0.108083 0)
(-0.122401 -0.103514 0)
(-0.105108 -0.0964415 0)
(-0.0877554 -0.0869361 0)
(-0.071059 -0.0754684 0)
(-0.0555634 -0.0625512 0)
(-0.041598 -0.048647 0)
(-0.0295024 -0.0343698 0)
(-0.0194906 -0.0203536 0)
(-0.0116264 -0.00718603 0)
(-0.00581539 0.00465117 0)
(-0.00182815 0.0147961 0)
(0.000616268 0.022946 0)
(0.00172912 0.0286939 0)
(0.00167808 0.0313707 0)
(0.000792204 0.0293543 0)
(-0.000270388 0.0163401 0)
(0.00127228 -0.0171321 0)
(0.00237361 -0.0236982 0)
(0.00146675 -0.0197409 0)
(-0.00055332 -0.0133687 0)
(-0.00344469 -0.00641798 0)
(-0.0071354 0.000595473 0)
(-0.0116675 0.00746189 0)
(-0.0171313 0.0140988 0)
(-0.0236347 0.0205193 0)
(-0.0312815 0.0268156 0)
(-0.0401554 0.0331307 0)
(-0.0503009 0.0396119 0)
(-0.0617019 0.0463563 0)
(-0.0742857 0.0533842 0)
(-0.0878653 0.0605751 0)
(-0.102077 0.0676706 0)
(-0.116572 0.0743362 0)
(-0.130873 0.0802041 0)
(-0.144436 0.0849168 0)
(-0.157025 0.0882971 0)
(-0.16852 0.0903299 0)
(-0.178944 0.0911566 0)
(-0.188363 0.0909052 0)
(-0.196875 0.0897449 0)
(-0.204563 0.0878138 0)
(-0.21151 0.0852501 0)
(-0.217777 0.0821588 0)
(-0.223409 0.078635 0)
(-0.228446 0.0747546 0)
(-0.232923 0.0705853 0)
(-0.236871 0.0661834 0)
(-0.240321 0.0615985 0)
(-0.243296 0.0568746 0)
(-0.245872 0.0520128 0)
(-0.248084 0.0470497 0)
(-0.249943 0.0420332 0)
(-0.251422 0.0369941 0)
(-0.252539 0.031902 0)
(-0.253313 0.0267588 0)
(-0.253783 0.0215633 0)
(-0.25399 0.016301 0)
(-0.25396 0.0109689 0)
(-0.253717 0.00555252 0)
(-0.253285 2.99485e-05 0)
(-0.252681 -0.0056271 0)
(-0.251873 -0.0114343 0)
(-0.250886 -0.0174298 0)
(-0.249713 -0.0236438 0)
(-0.248355 -0.030107 0)
(-0.246799 -0.0368403 0)
(-0.245026 -0.0438564 0)
(-0.24301 -0.0511583 0)
(-0.240702 -0.0587391 0)
(-0.23804 -0.0665704 0)
(-0.234936 -0.0745863 0)
(-0.231261 -0.0827096 0)
(-0.227018 -0.0911396 0)
(-0.222053 -0.0995425 0)
(-0.216132 -0.107645 0)
(-0.208851 -0.114838 0)
(-0.199481 -0.120431 0)
(-0.187866 -0.123912 0)
(-0.174533 -0.125431 0)
(-0.159456 -0.124417 0)
(-0.143047 -0.120734 0)
(-0.125585 -0.114175 0)
(-0.107444 -0.104661 0)
(-0.089233 -0.0924601 0)
(-0.0718008 -0.0782317 0)
(-0.0557774 -0.0626722 0)
(-0.0415422 -0.0463978 0)
(-0.0294565 -0.0301841 0)
(-0.0197119 -0.014788 0)
(-0.0123126 -0.000870326 0)
(-0.00706588 0.0110696 0)
(-0.00361985 0.0207004 0)
(-0.00160862 0.0276855 0)
(-0.000697694 0.0312855 0)
(-0.00049535 0.0296996 0)
(-0.000377941 0.0161816 0)
(0.00103428 -0.018488 0)
(0.000676477 -0.0230595 0)
(-0.00155881 -0.0176029 0)
(-0.00474698 -0.0103041 0)
(-0.00875563 -0.00255123 0)
(-0.0135573 0.00528686 0)
(-0.0192213 0.0130581 0)
(-0.0258545 0.020703 0)
(-0.033558 0.0282329 0)
(-0.0424105 0.035721 0)
(-0.052455 0.043272 0)
(-0.0636779 0.0509734 0)
(-0.0760225 0.0588622 0)
(-0.0893227 0.0668476 0)
(-0.103217 0.0746639 0)
(-0.117317 0.0819676 0)
(-0.131176 0.0883836 0)
(-0.144297 0.093527 0)
(-0.156442 0.0972436 0)
(-0.167519 0.0995474 0)
(-0.177521 0.100529 0)
(-0.186539 0.100365 0)
(-0.194654 0.0992153 0)
(-0.201956 0.0972406 0)
(-0.208509 0.0945705 0)
(-0.214373 0.0913248 0)
(-0.21959 0.0875968 0)
(-0.224196 0.0834738 0)
(-0.228229 0.0790279 0)
(-0.231724 0.0743252 0)
(-0.234717 0.069421 0)
(-0.237246 0.0643637 0)
(-0.239358 0.0591917 0)
(-0.241053 0.0539569 0)
(-0.242367 0.0486647 0)
(-0.243336 0.0433272 0)
(-0.243991 0.0379551 0)
(-0.244395 0.0325532 0)
(-0.244591 0.027133 0)
(-0.244595 0.0216955 0)
(-0.244419 0.0162265 0)
(-0.244087 0.0107129 0)
(-0.243615 0.00513458 0)
(-0.243023 -0.000532538 0)
(-0.242314 -0.00631499 0)
(-0.241492 -0.0122444 0)
(-0.240582 -0.0183503 0)
(-0.239589 -0.0246668 0)
(-0.238523 -0.0312279 0)
(-0.237387 -0.0380675 0)
(-0.236177 -0.045219 0)
(-0.234885 -0.0527104 0)
(-0.233492 -0.0605579 0)
(-0.231957 -0.068761 0)
(-0.230212 -0.0772858 0)
(-0.228157 -0.0860529 0)
(-0.22568 -0.0949405 0)
(-0.222621 -0.103795 0)
(-0.218745 -0.112496 0)
(-0.214021 -0.121112 0)
(-0.208095 -0.129045 0)
(-0.200421 -0.135394 0)
(-0.189914 -0.139013 0)
(-0.17684 -0.139709 0)
(-0.161708 -0.137508 0)
(-0.14486 -0.132123 0)
(-0.12661 -0.123278 0)
(-0.107533 -0.111094 0)
(-0.088366 -0.0959745 0)
(-0.070153 -0.0788572 0)
(-0.053625 -0.0606496 0)
(-0.039219 -0.0421442 0)
(-0.0272939 -0.0242866 0)
(-0.017994 -0.00794942 0)
(-0.0112342 0.00615041 0)
(-0.00667603 0.0175245 0)
(-0.0038081 0.0258355 0)
(-0.00216984 0.0302315 0)
(-0.00115119 0.0290979 0)
(-0.000343915 0.0155768 0)
(0.000726862 -0.018855 0)
(-0.00120411 -0.0210214 0)
(-0.00469893 -0.0142492 0)
(-0.0090169 -0.00609702 0)
(-0.0141266 0.00242588 0)
(-0.0200147 0.0110898 0)
(-0.0267732 0.0197858 0)
(-0.0345063 0.0284552 0)
(-0.0432953 0.0370887 0)
(-0.0531832 0.0457233 0)
(-0.0641613 0.054411 0)
(-0.0761852 0.0631874 0)
(-0.0891158 0.0719902 0)
(-0.102622 0.0805599 0)
(-0.116296 0.0885443 0)
(-0.129708 0.0955675 0)
(-0.142439 0.101267 0)
(-0.154211 0.105448 0)
(-0.164926 0.108116 0)
(-0.174579 0.109362 0)
(-0.183239 0.109363 0)
(-0.190998 0.1083 0)
(-0.197926 0.106333 0)
(-0.204089 0.103606 0)
(-0.209534 0.100235 0)
(-0.214302 0.0963297 0)
(-0.218431 0.0919795 0)
(-0.221959 0.0872705 0)
(-0.224929 0.082277 0)
(-0.227383 0.0770666 0)
(-0.229368 0.0716965 0)
(-0.230929 0.0662149 0)
(-0.232112 0.0606591 0)
(-0.232957 0.0550613 0)
(-0.233514 0.0494414 0)
(-0.233825 0.043819 0)
(-0.233926 0.0382071 0)
(-0.233852 0.0326086 0)
(-0.233626 0.0270192 0)
(-0.233265 0.0214312 0)
(-0.232789 0.0158308 0)
(-0.232212 0.0102004 0)
(-0.231549 0.00451849 0)
(-0.230817 -0.00123784 0)
(-0.230022 -0.00709186 0)
(-0.229178 -0.0130799 0)
(-0.228303 -0.019231 0)
(-0.22741 -0.0255793 0)
(-0.226514 -0.0321587 0)
(-0.225627 -0.0390051 0)
(-0.224761 -0.0461552 0)
(-0.223923 -0.0536438 0)
(-0.223116 -0.0615006 0)
(-0.222327 -0.069747 0)
(-0.221524 -0.0783916 0)
(-0.220649 -0.0874242 0)
(-0.219615 -0.0967984 0)
(-0.218283 -0.106381 0)
(-0.216458 -0.115963 0)
(-0.2139 -0.125255 0)
(-0.210293 -0.133938 0)
(-0.205483 -0.142207 0)
(-0.198989 -0.148963 0)
(-0.18985 -0.152954 0)
(-0.177138 -0.152852 0)
(-0.161987 -0.149425 0)
(-0.14455 -0.142046 0)
(-0.125418 -0.130702 0)
(-0.105292 -0.115592 0)
(-0.0851219 -0.097367 0)
(-0.0661526 -0.0772766 0)
(-0.049234 -0.0564883 0)
(-0.034844 -0.0359966 0)
(-0.0233062 -0.0169205 0)
(-0.0146823 -0.000237029 0)
(-0.00874593 0.0133066 0)
(-0.00492577 0.0232193 0)
(-0.00269536 0.0285081 0)
(-0.00118921 0.0279353 0)
(-0.000165483 0.0147872 0)
(0.000157939 -0.0180786 0)
(-0.00318024 -0.0176542 0)
(-0.0078276 -0.00969451 0)
(-0.0132228 -0.000783052 0)
(-0.0193878 0.00847435 0)
(-0.0263065 0.017953 0)
(-0.0340783 0.0275667 0)
(-0.0427967 0.0372373 0)
(-0.0525129 0.0469181 0)
(-0.0632259 0.0565973 0)
(-0.0748998 0.066281 0)
(-0.0874222 0.0759241 0)
(-0.100503 0.0852829 0)
(-0.113748 0.0940055 0)
(-0.126743 0.101716 0)
(-0.13912 0.108075 0)
(-0.150588 0.112851 0)
(-0.161 0.115992 0)
(-0.17036 0.117609 0)
(-0.178716 0.117865 0)
(-0.186152 0.116958 0)
(-0.192736 0.115058 0)
(-0.198523 0.112313 0)
(-0.203559 0.108852 0)
(-0.207883 0.104788 0)
(-0.211538 0.100228 0)
(-0.21457 0.0952647 0)
(-0.217031 0.0899885 0)
(-0.218977 0.0844772 0)
(-0.220466 0.0788003 0)
(-0.221555 0.0730151 0)
(-0.2223 0.0671686 0)
(-0.222752 0.0612965 0)
(-0.22296 0.0554282 0)
(-0.222968 0.0495827 0)
(-0.222809 0.0437744 0)
(-0.222512 0.0380076 0)
(-0.222099 0.0322775 0)
(-0.221587 0.0265765 0)
(-0.22099 0.0208926 0)
(-0.220322 0.0152099 0)
(-0.219593 0.00950995 0)
(-0.218817 0.00377104 0)
(-0.218003 -0.00202959 0)
(-0.217163 -0.00791651 0)
(-0.216308 -0.0139214 0)
(-0.215454 -0.020074 0)
(-0.214617 -0.0264075 0)
(-0.213815 -0.0329557 0)
(-0.213065 -0.0397548 0)
(-0.212387 -0.046842 0)
(-0.211798 -0.0542543 0)
(-0.211315 -0.0620264 0)
(-0.210946 -0.0701881 0)
(-0.210687 -0.0787625 0)
(-0.21052 -0.0877628 0)
(-0.210403 -0.0971835 0)
(-0.210251 -0.106984 0)
(-0.209929 -0.117073 0)
(-0.209231 -0.127263 0)
(-0.207869 -0.137207 0)
(-0.205491 -0.146425 0)
(-0.201635 -0.154606 0)
(-0.19604 -0.161561 0)
(-0.187845 -0.16559 0)
(-0.175598 -0.164903 0)
(-0.16026 -0.159986 0)
(-0.142117 -0.150421 0)
(-0.121968 -0.13628 0)
(-0.100717 -0.117984 0)
(-0.0795654 -0.0964814 0)
(-0.0599695 -0.0733914 0)
(-0.042893 -0.0502011 0)
(-0.0288138 -0.02812 0)
(-0.017975 -0.0084427 0)
(-0.0103055 0.00777764 0)
(-0.00531157 0.0197569 0)
(-0.00244335 0.026375 0)
(-0.000741472 0.0266395 0)
(9.25384e-05 0.014253 0)
(-0.000416522 -0.0160548 0)
(-0.00511638 -0.0129954 0)
(-0.0108268 -0.00401982 0)
(-0.0172321 0.00556976 0)
(-0.0243795 0.0155204 0)
(-0.0322413 0.0257882 0)
(-0.0409145 0.0362841 0)
(-0.050473 0.0468943 0)
(-0.060932 0.0575231 0)
(-0.0722629 0.0681133 0)
(-0.0843751 0.0786088 0)
(-0.0970244 0.0887811 0)
(-0.109848 0.0982964 0)
(-0.122465 0.106777 0)
(-0.134529 0.113889 0)
(-0.145749 0.119379 0)
(-0.155932 0.123126 0)
(-0.165054 0.12522 0)
(-0.173164 0.125834 0)
(-0.180325 0.125161 0)
(-0.186606 0.12339 0)
(-0.192057 0.120678 0)
(-0.19672 0.117163 0)
(-0.20064 0.112974 0)
(-0.203865 0.108228 0)
(-0.206452 0.103034 0)
(-0.208464 0.097496 0)
(-0.209971 0.0917063 0)
(-0.211041 0.0857453 0)
(-0.211741 0.0796811 0)
(-0.212133 0.0735682 0)
(-0.212274 0.0674486 0)
(-0.212212 0.0613531 0)
(-0.211988 0.0553036 0)
(-0.211636 0.0493124 0)
(-0.211181 0.0433847 0)
(-0.210641 0.0375186 0)
(-0.210032 0.0317061 0)
(-0.209365 0.0259358 0)
(-0.208647 0.0201935 0)
(-0.207889 0.0144625 0)
(-0.207096 0.00872336 0)
(-0.206275 0.00295499 0)
(-0.205436 -0.00286519 0)
(-0.204585 -0.00876161 0)
(-0.203736 -0.014762 0)
(-0.2029 -0.0208946 0)
(-0.202095 -0.0271903 0)
(-0.201339 -0.0336813 0)
(-0.200654 -0.0404021 0)
(-0.200062 -0.0473891 0)
(-0.199588 -0.0546799 0)
(-0.199257 -0.0623123 0)
(-0.199089 -0.0703225 0)
(-0.199098 -0.0787435 0)
(-0.199292 -0.0876014 0)
(-0.199657 -0.0969089 0)
(-0.200157 -0.106658 0)
(-0.200719 -0.116811 0)
(-0.201213 -0.127285 0)
(-0.201433 -0.137914 0)
(-0.201072 -0.148397 0)
(-0.199719 -0.158169 0)
(-0.196843 -0.166549 0)
(-0.191888 -0.173318 0)
(-0.184202 -0.177142 0)
(-0.172274 -0.175723 0)
(-0.156558 -0.169143 0)
(-0.137552 -0.157075 0)
(-0.11626 -0.139799 0)
(-0.0938685 -0.118034 0)
(-0.0718589 -0.0930959 0)
(-0.051911 -0.0670933 0)
(-0.0350607 -0.0418347 0)
(-0.0217175 -0.0187863 0)
(-0.0119883 0.000622359 0)
(-0.00553687 0.0152764 0)
(-0.00188126 0.02387 0)
(-3.61298e-05 0.0254642 0)
(0.000379941 0.0142137 0)
(-0.000995917 -0.0128769 0)
(-0.0069322 -0.00716499 0)
(-0.0136023 0.00269119 0)
(-0.0209291 0.0128804 0)
(-0.028965 0.0234734 0)
(-0.0376579 0.0344824 0)
(-0.0470971 0.0457966 0)
(-0.0573323 0.0572526 0)
(-0.0683499 0.0687051 0)
(-0.0800764 0.0800444 0)
(-0.0923077 0.0910365 0)
(-0.104734 0.101381 0)
(-0.117012 0.110703 0)
(-0.128804 0.118657 0)
(-0.139825 0.124966 0)
(-0.14985 0.129454 0)
(-0.158806 0.13215 0)
(-0.166731 0.133226 0)
(-0.173681 0.132883 0)
(-0.179716 0.131315 0)
(-0.184888 0.128698 0)
(-0.18924 0.125182 0)
(-0.192819 0.120909 0)
(-0.195683 0.116014 0)
(-0.197899 0.110622 0)
(-0.199543 0.104853 0)
(-0.200693 0.0988131 0)
(-0.201429 0.092596 0)
(-0.201825 0.0862788 0)
(-0.201948 0.0799234 0)
(-0.201856 0.073577 0)
(-0.201599 0.0672733 0)
(-0.201216 0.0610347 0)
(-0.200737 0.0548742 0)
(-0.200187 0.0487963 0)
(-0.199581 0.0427996 0)
(-0.19893 0.0368769 0)
(-0.198242 0.0310178 0)
(-0.197523 0.0252087 0)
(-0.196776 0.0194328 0)
(-0.196004 0.013673 0)
(-0.19521 0.00791083 0)
(-0.194397 0.00212527 0)
(-0.193571 -0.003705 0)
(-0.192739 -0.00960281 0)
(-0.191908 -0.0155928 0)
(-0.191092 -0.0217006 0)
(-0.190307 -0.0279538 0)
(-0.189569 -0.0343817 0)
(-0.188902 -0.0410158 0)
(-0.188331 -0.04789 0)
(-0.187885 -0.0550404 0)
(-0.187592 -0.0625051 0)
(-0.187483 -0.0703234 0)
(-0.187584 -0.0785347 0)
(-0.187917 -0.0871758 0)
(-0.18849 -0.0962763 0)
(-0.189297 -0.105852 0)
(-0.190303 -0.115898 0)
(-0.191433 -0.126372 0)
(-0.192561 -0.137185 0)
(-0.193478 -0.148172 0)
(-0.193866 -0.159048 0)
(-0.193279 -0.169295 0)
(-0.191138 -0.178066 0)
(-0.186691 -0.184481 0)
(-0.179188 -0.187773 0)
(-0.167247 -0.185339 0)
(-0.150913 -0.176757 0)
(-0.130856 -0.161762 0)
(-0.108344 -0.140951 0)
(-0.084872 -0.115382 0)
(-0.0622883 -0.086925 0)
(-0.0424533 -0.0582798 0)
(-0.0263943 -0.0315224 0)
(-0.0143525 -0.00841567 0)
(-0.00618244 0.00954662 0)
(-0.00151148 0.0208537 0)
(0.000605572 0.0244155 0)
(0.000584628 0.0146045 0)
(-0.00154669 -0.0086087 0)
(-0.00856639 -0.000281207 0)
(-0.0160844 0.0103347 0)
(-0.0242299 0.0210462 0)
(-0.0330375 0.0322201 0)
(-0.0424308 0.0439041 0)
(-0.0524876 0.0559491 0)
(-0.0632308 0.0681396 0)
(-0.0746117 0.0802691 0)
(-0.0864535 0.0920688 0)
(-0.0985134 0.103252 0)
(-0.110491 0.113465 0)
(-0.122052 0.122334 0)
(-0.13292 0.129558 0)
(-0.142849 0.134909 0)
(-0.151718 0.138347 0)
(-0.15953 0.140006 0)
(-0.166341 0.140098 0)
(-0.172204 0.138825 0)
(-0.177169 0.136377 0)
(-0.181285 0.132925 0)
(-0.184603 0.128624 0)
(-0.187188 0.123626 0)
(-0.189117 0.118077 0)
(-0.190475 0.112113 0)
(-0.191353 0.105855 0)
(-0.191838 0.0994103 0)
(-0.192008 0.0928656 0)
(-0.191937 0.0862903 0)
(-0.191683 0.0797364 0)
(-0.191296 0.0732408 0)
(-0.190814 0.0668271 0)
(-0.190267 0.0605086 0)
(-0.189674 0.0542901 0)
(-0.18905 0.0481695 0)
(-0.188403 0.04214 0)
(-0.187738 0.0361905 0)
(-0.187055 0.0303076 0)
(-0.186356 0.0244772 0)
(-0.18564 0.0186816 0)
(-0.184906 0.0129021 0)
(-0.184153 0.00712193 0)
(-0.183383 0.00132167 0)
(-0.182597 -0.0045189 0)
(-0.181801 -0.0104201 0)
(-0.181002 -0.0164037 0)
(-0.18021 -0.0224921 0)
(-0.179439 -0.0287094 0)
(-0.178706 -0.0350811 0)
(-0.178033 -0.041635 0)
(-0.177446 -0.0484014 0)
(-0.176973 -0.0554131 0)
(-0.176648 -0.0627064 0)
(-0.176505 -0.0703206 0)
(-0.176579 -0.0782976 0)
(-0.176903 -0.0866806 0)
(-0.177503 -0.0955113 0)
(-0.178392 -0.104825 0)
(-0.179564 -0.114645 0)
(-0.180984 -0.124969 0)
(-0.182573 -0.135755 0)