/*--------------------------------*- C++ -*----------------------------------*\
  =========                 |
  \\      /  F ield         | OpenFOAM: The Open Source CFD Toolbox
   \\    /   O peration     | Website:  https://openfoam.org
    \\  /    A nd           | Version:  13
     \\/     M anipulation  |
\*---------------------------------------------------------------------------*/
FoamFile
{
    format      ascii;
    class       volScalarField;
    location    "4.7";
    object      nut;
}
// * * * * * * * * * * * * * * * * * * * * * * * * * * * * * * * * * * * * * //

dimensions      [0 2 -1 0 0 0 0];

internalField   nonuniform List<scalar> 
6400
(
7.93321e-10
4.06631e-09
9.79013e-09
1.57963e-08
2.04302e-08
2.31501e-08
2.42775e-08
2.45583e-08
2.48352e-08
2.58529e-08
2.81626e-08
3.24638e-08
3.91979e-08
4.85261e-08
6.00486e-08
7.31925e-08
8.73546e-08
1.02257e-07
1.17302e-07
1.32017e-07
1.46652e-07
1.62307e-07
1.80525e-07
2.02664e-07
2.28528e-07
2.55942e-07
2.83108e-07
3.10152e-07
3.37625e-07
3.66159e-07
3.95725e-07
4.25217e-07
4.54165e-07
4.82315e-07
5.10379e-07
5.38676e-07
5.67775e-07
5.98025e-07
6.29806e-07
6.63389e-07
6.98957e-07
7.36779e-07
7.77108e-07
8.20272e-07
8.66555e-07
9.16676e-07
9.7243e-07
1.03765e-06
1.12054e-06
1.19922e-06
1.28107e-06
1.36033e-06
1.43717e-06
1.5085e-06
1.57219e-06
1.62535e-06
1.66272e-06
1.68073e-06
1.68706e-06
1.67202e-06
1.62815e-06
1.55803e-06
1.46231e-06
1.34276e-06
1.20454e-06
1.05183e-06
8.94176e-07
7.38089e-07
5.89916e-07
4.53286e-07
3.43251e-07
2.51016e-07
1.75865e-07
1.17878e-07
7.58501e-08
4.69967e-08
2.80849e-08
1.59145e-08
7.42844e-09
1.57597e-09
3.85349e-09
2.78442e-07
1.00055e-06
1.70382e-06
2.23525e-06
2.55695e-06
2.71273e-06
2.77555e-06
2.81864e-06
2.89612e-06
3.07265e-06
3.40365e-06
3.87111e-06
4.42302e-06
5.0068e-06
5.56553e-06
6.05894e-06
6.44595e-06
6.70823e-06
6.8497e-06
6.91905e-06
6.99198e-06
7.12327e-06
7.35619e-06
7.66484e-06
7.9398e-06
8.14808e-06
8.37041e-06
8.64573e-06
9.00936e-06
9.48624e-06
1.00215e-05
1.0605e-05
1.12089e-05
1.18427e-05
1.25015e-05
1.31886e-05
1.39039e-05
1.46488e-05
1.54267e-05
1.62328e-05
1.7066e-05
1.79264e-05
1.88289e-05
1.97721e-05
2.07312e-05
2.16671e-05
2.25563e-05
2.33344e-05
2.42027e-05
2.50524e-05
2.592e-05
2.6771e-05
2.75957e-05
2.83694e-05
2.90922e-05
2.97162e-05
3.00532e-05
3.03412e-05
3.04504e-05
3.02895e-05
2.9789e-05
2.89809e-05
2.78227e-05
2.63303e-05
2.45108e-05
2.24844e-05
2.0283e-05
1.79258e-05
1.54933e-05
1.27012e-05
9.90721e-06
7.39453e-06
5.3004e-06
3.6686e-06
2.4678e-06
1.62559e-06
1.02855e-06
4.57345e-07
8.30851e-09
8.46427e-09
7.36555e-07
3.01441e-06
5.31308e-06
7.10029e-06
8.27617e-06
8.94769e-06
9.2966e-06
9.5077e-06
9.73738e-06
1.01247e-05
1.07368e-05
1.15547e-05
1.24932e-05
1.34431e-05
1.4294e-05
1.50006e-05
1.55384e-05
1.59028e-05
1.61038e-05
1.61576e-05
1.61203e-05
1.60774e-05
1.60724e-05
1.61307e-05
1.63192e-05
1.66401e-05
1.69406e-05
1.72626e-05
1.75953e-05
1.79872e-05
1.85072e-05
1.93223e-05
2.02338e-05
2.12458e-05
2.23387e-05
2.35067e-05
2.47364e-05
2.59912e-05
2.73215e-05
2.87012e-05
3.007e-05
3.14722e-05
3.28263e-05
3.41227e-05
3.53649e-05
3.65891e-05
3.77889e-05
3.89936e-05
4.02138e-05
4.1423e-05
4.26222e-05
4.37924e-05
4.49186e-05
4.59774e-05
4.69397e-05
4.77609e-05
4.8432e-05
4.87854e-05
4.90118e-05
4.89892e-05
4.86573e-05
4.79897e-05
4.68878e-05
4.52814e-05
4.30685e-05
4.04715e-05
3.75305e-05
3.42266e-05
3.0618e-05
2.67237e-05
2.2651e-05
1.86025e-05
1.47863e-05
1.13904e-05
8.51483e-06
6.19497e-06
4.20751e-06
1.72664e-06
2.19971e-08
1.47169e-08
1.21792e-06
4.80186e-06
8.32011e-06
1.1072e-05
1.29756e-05
1.41644e-05
1.48448e-05
1.52465e-05
1.55968e-05
1.6073e-05
1.67868e-05
1.77228e-05
1.87581e-05
1.97442e-05
2.05799e-05
2.12024e-05
2.16014e-05
2.1798e-05
2.18389e-05
2.17771e-05
2.17023e-05
2.16843e-05
2.17748e-05
2.18348e-05
2.1842e-05
2.18106e-05
2.20047e-05
2.25653e-05
2.33816e-05
2.45182e-05
2.56829e-05
2.68522e-05
2.80461e-05
2.9314e-05
3.05965e-05
3.18544e-05
3.31553e-05
3.44865e-05
3.57442e-05
3.70026e-05
3.82164e-05
3.94097e-05
4.05563e-05
4.16661e-05
4.27266e-05
4.37791e-05
4.48264e-05
4.58723e-05
4.69122e-05
4.79375e-05
4.89414e-05
4.99106e-05
5.08315e-05
5.16849e-05
5.24488e-05
5.30968e-05
5.36021e-05
5.39167e-05
5.40413e-05
5.39451e-05
5.362e-05
5.28925e-05
5.20862e-05
5.10237e-05
4.93274e-05
4.71514e-05
4.44871e-05
4.14017e-05
3.79428e-05
3.41465e-05
3.00668e-05
2.57964e-05
2.14893e-05
1.73412e-05
1.35488e-05
1.02162e-05
7.07976e-06
2.8806e-06
3.60566e-08
2.3564e-08
1.8334e-06
6.71594e-06
1.12722e-05
1.47076e-05
1.70361e-05
1.84713e-05
1.92787e-05
1.97496e-05
2.01821e-05
2.08092e-05
2.17135e-05
2.28084e-05
2.39178e-05
2.48776e-05
2.55915e-05
2.60313e-05
2.62215e-05
2.62056e-05
2.60948e-05
2.58784e-05
2.57296e-05
2.5584e-05
2.50763e-05
2.48294e-05
2.51277e-05
2.59717e-05
2.69893e-05
2.81332e-05
2.93464e-05
3.05868e-05
3.1814e-05
3.30191e-05
3.41993e-05
3.5348e-05
3.63927e-05
3.74299e-05
3.84757e-05
3.9363e-05
4.02065e-05
4.09735e-05
4.16765e-05
4.23369e-05
4.29685e-05
4.35945e-05
4.42396e-05
4.48786e-05
4.55158e-05
4.6155e-05
4.67986e-05
4.74487e-05
4.81068e-05
4.87713e-05
4.9439e-05
5.01033e-05
5.07548e-05
5.13792e-05
5.19562e-05
5.24523e-05
5.28156e-05
5.29805e-05
5.29744e-05
5.25805e-05
5.1661e-05
5.05875e-05
4.96642e-05
4.80497e-05
4.59388e-05
4.33858e-05
4.04384e-05
3.7133e-05
3.34983e-05
2.95652e-05
2.54007e-05
2.1157e-05
1.70686e-05
1.31989e-05
9.18773e-06
3.66425e-06
4.53822e-08
3.61361e-08
2.66175e-06
8.97427e-06
1.44983e-05
1.84255e-05
2.09434e-05
2.24052e-05
2.31918e-05
2.36937e-05
2.42572e-05
2.50802e-05
2.61535e-05
2.73155e-05
2.83668e-05
2.91601e-05
2.96321e-05
2.97928e-05
2.97343e-05
2.93513e-05
2.90222e-05
2.87306e-05
2.78083e-05
2.75282e-05
2.80175e-05
2.88785e-05
2.98835e-05
3.09773e-05
3.21052e-05
3.32148e-05
3.42705e-05
3.52705e-05
3.62361e-05
3.71166e-05
3.78779e-05
3.86e-05
3.91897e-05
3.97202e-05
4.02361e-05
4.06299e-05
4.09887e-05
4.13009e-05
4.15895e-05
4.18504e-05
4.20886e-05
4.23112e-05
4.25215e-05
4.2719e-05
4.29123e-05
4.31088e-05
4.33174e-05
4.35475e-05
4.38116e-05
4.41216e-05
4.44885e-05
4.49194e-05
4.54105e-05
4.59571e-05
4.65686e-05
4.72119e-05
4.78491e-05
4.84297e-05
4.88899e-05
4.90859e-05
4.90302e-05
4.83391e-05
4.75519e-05
4.66301e-05
4.50892e-05
4.30413e-05
4.05589e-05
3.77087e-05
3.45441e-05
3.10775e-05
2.72803e-05
2.32113e-05
1.90638e-05
1.49081e-05
1.03881e-05
4.02254e-06
4.84971e-08
5.35452e-08
3.74657e-06
1.16172e-05
1.80121e-05
2.22548e-05
2.47863e-05
2.61439e-05
2.68531e-05
2.73902e-05
2.8089e-05
2.90547e-05
3.01814e-05
3.12635e-05
3.21119e-05
3.26182e-05
3.27638e-05
3.24597e-05
3.20354e-05
3.1659e-05
3.06128e-05
3.01722e-05
3.04048e-05
3.12041e-05
3.19389e-05
3.27925e-05
3.37034e-05
3.4613e-05
3.5476e-05
3.62678e-05
3.70267e-05
3.77024e-05
3.82907e-05
3.87821e-05
3.91872e-05
3.95265e-05
3.9787e-05
4.00089e-05
4.01767e-05
4.02657e-05
4.03498e-05
4.04155e-05
4.0431e-05
4.04256e-05
4.03987e-05
4.03477e-05
4.02784e-05
4.01892e-05
4.00838e-05
3.99683e-05
3.98495e-05
3.97331e-05
3.96313e-05
3.95647e-05
3.95638e-05
3.96749e-05
3.99107e-05
4.02341e-05
4.07446e-05
4.14243e-05
4.22269e-05
4.30919e-05
4.39998e-05
4.48165e-05
4.54028e-05
4.56026e-05
4.49996e-05
4.47437e-05
4.37832e-05
4.21903e-05
4.00463e-05
3.74483e-05
3.45268e-05
3.13677e-05
2.7965e-05
2.41966e-05
2.01183e-05
1.58306e-05
1.06998e-05
4.01011e-06
4.70154e-08
7.68319e-08
5.10818e-06
1.45882e-05
2.17234e-05
2.6115e-05
2.8538e-05
2.97296e-05
3.03517e-05
3.0919e-05
3.16993e-05
3.26922e-05
3.37224e-05
3.45745e-05
3.50914e-05
3.52212e-05
3.47753e-05
3.43325e-05
3.35423e-05
3.26757e-05
3.25097e-05
3.29841e-05
3.3367e-05
3.39849e-05
3.46186e-05
3.54253e-05
3.61605e-05
3.68526e-05
3.74606e-05
3.79924e-05
3.84509e-05
3.88223e-05
3.91206e-05
3.93518e-05
3.95302e-05
3.96651e-05
3.97594e-05
3.98237e-05
3.98534e-05
3.98567e-05
3.98211e-05
3.97875e-05
3.97574e-05
3.96408e-05
3.95453e-05
3.94096e-05
3.9262e-05
3.90966e-05
3.89185e-05
3.87208e-05
3.85026e-05
3.82638e-05
3.80034e-05
3.77171e-05
3.73987e-05
3.70382e-05
3.66944e-05
3.65214e-05
3.65083e-05
3.68282e-05
3.74732e-05
3.82852e-05
3.93732e-05
4.05103e-05
4.17046e-05
4.2596e-05
4.29316e-05
4.24928e-05
4.26002e-05
4.1567e-05
3.98064e-05
3.73833e-05
3.44907e-05
3.13351e-05
2.80526e-05
2.45707e-05
2.06429e-05
1.62371e-05
1.08452e-05
3.90827e-06
4.37709e-08
1.06783e-07
6.73711e-06
1.78096e-05
2.54889e-05
2.99174e-05
3.21609e-05
3.31629e-05
3.36915e-05
3.425e-05
3.50157e-05
3.58998e-05
3.6692e-05
3.71942e-05
3.72577e-05
3.67701e-05
3.62746e-05
3.51455e-05
3.46182e-05
3.46212e-05
3.46773e-05
3.49166e-05
3.54052e-05
3.59888e-05
3.65824e-05
3.7199e-05
3.77147e-05
3.81739e-05
3.85509e-05
3.88671e-05
3.91247e-05
3.93325e-05
3.95036e-05
3.96453e-05
3.97646e-05
3.98633e-05
3.99431e-05
4.00053e-05
4.00452e-05
4.00566e-05
4.00568e-05
4.00504e-05
3.99997e-05
3.99243e-05
3.98393e-05
3.97272e-05
3.96013e-05
3.94505e-05
3.92811e-05
3.90891e-05
3.88732e-05
3.86279e-05
3.83521e-05
3.80377e-05
3.76756e-05
3.7259e-05
3.67735e-05
3.62291e-05
3.56162e-05
3.49575e-05
3.45079e-05
3.46914e-05
3.55019e-05
3.65003e-05
3.78848e-05
3.93295e-05
4.05813e-05
4.11021e-05
4.08739e-05
4.09924e-05
3.98831e-05
3.78138e-05
3.49921e-05
3.16847e-05
2.81809e-05
2.46506e-05
2.08424e-05
1.6345e-05
1.06501e-05
3.65851e-06
4.05496e-08
1.4377e-07
8.57373e-06
2.11308e-05
2.92284e-05
3.36036e-05
3.56251e-05
3.64233e-05
3.68327e-05
3.73123e-05
3.7951e-05
3.86011e-05
3.905e-05
3.9011e-05
3.85308e-05
3.80293e-05
3.69113e-05
3.6418e-05
3.62205e-05
3.59508e-05
3.61541e-05
3.64729e-05
3.69421e-05
3.74186e-05
3.78746e-05
3.82911e-05
3.863e-05
3.89286e-05
3.91794e-05
3.94053e-05
3.96095e-05
3.98017e-05
3.99859e-05
4.01622e-05
4.03294e-05
4.04822e-05
4.06153e-05
4.0743e-05
4.08179e-05
4.08563e-05
4.09226e-05
4.09127e-05
4.08879e-05
4.08291e-05
4.0748e-05
4.06382e-05
4.05071e-05
4.0353e-05
4.0181e-05
3.99924e-05
3.97904e-05
3.95748e-05
3.9334e-05
3.90603e-05
3.87385e-05
3.83457e-05
3.78717e-05
3.72956e-05
3.65979e-05
3.57829e-05
3.48982e-05
3.40077e-05
3.31329e-05
3.33777e-05
3.43785e-05
3.57212e-05
3.74137e-05
3.89735e-05
3.96947e-05
3.95629e-05
3.96558e-05
3.8425e-05
3.59709e-05
3.26772e-05
2.88871e-05
2.49365e-05
2.09699e-05
1.64172e-05
1.05866e-05
3.48877e-06
3.85209e-08
1.88251e-07
1.04794e-05
2.44162e-05
3.28596e-05
3.71269e-05
3.89009e-05
3.9475e-05
3.97178e-05
4.00318e-05
4.04346e-05
4.075e-05
4.06283e-05
4.0083e-05
3.95258e-05
3.85827e-05
3.79508e-05
3.74735e-05
3.71189e-05
3.70721e-05
3.73226e-05
3.76299e-05
3.80105e-05
3.83605e-05
3.86866e-05
3.89769e-05
3.92358e-05
3.94879e-05
3.97336e-05
3.99858e-05
4.02418e-05
4.05021e-05
4.07606e-05
4.10096e-05
4.12586e-05
4.14932e-05
4.1642e-05
4.17695e-05
4.19323e-05
4.20047e-05
4.20689e-05
4.20776e-05
4.20635e-05
4.2012e-05
4.19325e-05
4.18225e-05
4.16866e-05
4.15252e-05
4.13412e-05
4.11352e-05
4.09082e-05
4.06599e-05
4.03895e-05
4.00966e-05
3.978e-05
3.94375e-05
3.90653e-05
3.86029e-05
3.8007e-05
3.72326e-05
3.62925e-05
3.52159e-05
3.40563e-05
3.29645e-05
3.2078e-05
3.26809e-05
3.39913e-05
3.58513e-05
3.76361e-05
3.85102e-05
3.84245e-05
3.84601e-05
3.69511e-05
3.4047e-05
3.02463e-05
2.59089e-05
2.14191e-05
1.66514e-05
1.06801e-05
3.52588e-06
3.88658e-08
2.42822e-07
1.22399e-05
2.75695e-05
3.63217e-05
4.04502e-05
4.19566e-05
4.2275e-05
4.22886e-05
4.23465e-05
4.24176e-05
4.21888e-05
4.15428e-05
4.0935e-05
4.006e-05
3.93232e-05
3.85238e-05
3.81076e-05
3.7889e-05
3.79555e-05
3.81832e-05
3.84381e-05
3.87282e-05
3.89951e-05
3.9263e-05
3.95289e-05
3.98071e-05
4.01064e-05
4.04236e-05
4.07577e-05
4.10987e-05
4.14388e-05
4.17928e-05
4.21228e-05
4.23975e-05
4.26185e-05
4.28233e-05
4.3026e-05
4.31801e-05
4.32791e-05
4.33501e-05
4.3376e-05
4.33707e-05
4.33281e-05
4.32539e-05
4.31477e-05
4.30125e-05
4.28497e-05
4.26614e-05
4.24487e-05
4.22126e-05
4.1953e-05
4.16687e-05
4.13572e-05
4.10146e-05
4.06355e-05
4.02147e-05
3.97488e-05
3.9236e-05
3.86394e-05
3.78509e-05
3.6827e-05
3.56159e-05
3.42568e-05
3.2875e-05
3.16507e-05
3.13398e-05
3.26274e-05
3.44882e-05
3.64532e-05
3.74241e-05
3.73323e-05
3.7296e-05
3.52562e-05
3.18714e-05
2.7484e-05
2.25541e-05
1.73513e-05
1.11745e-05
3.79478e-06
4.2083e-08
3.03966e-07
1.39918e-05
3.05789e-05
3.9581e-05
4.35443e-05
4.47613e-05
4.47828e-05
4.44978e-05
4.42133e-05
4.38098e-05
4.30257e-05
4.23774e-05
4.14703e-05
4.06537e-05
3.96105e-05
3.89552e-05
3.86252e-05
3.85098e-05
3.861e-05
3.87957e-05
3.90099e-05
3.9258e-05
3.95158e-05
3.98075e-05
4.01291e-05
4.04871e-05
4.08753e-05
4.1284e-05
4.17028e-05
4.21325e-05
4.25596e-05
4.29502e-05
4.32843e-05
4.35958e-05
4.38739e-05
4.41179e-05
4.43154e-05
4.44937e-05
4.46201e-05
4.47094e-05
4.47555e-05
4.47655e-05
4.47376e-05
4.46743e-05
4.4576e-05
4.44449e-05
4.42824e-05
4.40907e-05
4.38716e-05
4.3627e-05
4.33578e-05
4.30641e-05
4.2744e-05
4.2393e-05
4.20039e-05
4.15667e-05
4.10699e-05
4.0504e-05
3.98667e-05
3.91655e-05
3.83223e-05
3.72472e-05
3.58917e-05
3.44046e-05
3.28779e-05
3.14354e-05
3.04032e-05
3.14744e-05
3.32701e-05
3.53322e-05
3.63198e-05
3.61832e-05
3.58193e-05
3.3228e-05
2.92054e-05
2.42209e-05
1.86366e-05
1.22141e-05
4.43229e-06
5.14327e-08
3.69892e-07
1.57001e-05
3.34022e-05
4.26056e-05
4.6385e-05
4.7291e-05
4.69716e-05
4.63216e-05
4.562e-05
4.46461e-05
4.39528e-05
4.28877e-05
4.19672e-05
4.07406e-05
3.98246e-05
3.92921e-05
3.90404e-05
3.89875e-05
3.90915e-05
3.92592e-05
3.94772e-05
3.97478e-05
4.00626e-05
4.04332e-05
4.08486e-05
4.13038e-05
4.17842e-05
4.22767e-05
4.27689e-05
4.32503e-05
4.37053e-05
4.41221e-05
4.45019e-05
4.48532e-05
4.51679e-05
4.54488e-05
4.56958e-05
4.58753e-05
4.60153e-05
4.61571e-05
4.62384e-05
4.62745e-05
4.62702e-05
4.62248e-05
4.61382e-05
4.60116e-05
4.58461e-05
4.56441e-05
4.54081e-05
4.51413e-05
4.48471e-05
4.45283e-05
4.41865e-05
4.38208e-05
4.34264e-05
4.29937e-05
4.2507e-05
4.19452e-05
4.12854e-05
4.05105e-05
3.96236e-05
3.85797e-05
3.73561e-05
3.59584e-05
3.44119e-05
3.27779e-05
3.10837e-05
2.96889e-05
3.04716e-05
3.21862e-05
3.41917e-05
3.5108e-05
3.4755e-05
3.3912e-05
3.05728e-05
2.59359e-05
2.02725e-05
1.3587e-05
5.3383e-06
6.94598e-08
4.3848e-07
1.73265e-05
3.60003e-05
4.53711e-05
4.89568e-05
4.95379e-05
4.88467e-05
4.78039e-05
4.65673e-05
4.57742e-05
4.43998e-05
4.33302e-05
4.19444e-05
4.07785e-05
3.99917e-05
3.9559e-05
3.93708e-05
3.93614e-05
3.94808e-05
3.9675e-05
3.9946e-05
4.02892e-05
4.06968e-05
4.11651e-05
4.16766e-05
4.22184e-05
4.27733e-05
4.33276e-05
4.38694e-05
4.4389e-05
4.48784e-05
4.53353e-05
4.57612e-05
4.61563e-05
4.65167e-05
4.68421e-05
4.71289e-05
4.73909e-05
4.75989e-05
4.77126e-05
4.7883e-05
4.79623e-05
4.79909e-05
4.7973e-05
4.79026e-05
4.77817e-05
4.761e-05
4.73896e-05
4.71234e-05
4.68158e-05
4.64722e-05
4.60988e-05
4.57018e-05
4.52863e-05
4.48547e-05
4.44043e-05
4.39252e-05
4.3398e-05
4.27923e-05
4.20685e-05
4.11858e-05
4.01916e-05
3.89991e-05
3.73588e-05
3.5775e-05
3.42859e-05
3.25438e-05
3.06664e-05
2.90113e-05
2.96451e-05
3.13408e-05
3.31092e-05
3.37172e-05
3.31735e-05
3.12797e-05
2.72997e-05
2.18687e-05
1.51112e-05
6.32171e-06
9.42563e-08
5.0753e-07
1.8839e-05
3.83476e-05
4.78662e-05
5.12543e-05
5.15134e-05
5.04106e-05
4.8854e-05
4.78455e-05
4.61535e-05
4.48285e-05
4.3274e-05
4.18656e-05
4.07979e-05
4.01284e-05
3.97773e-05
3.96478e-05
3.96879e-05
3.98538e-05
4.01159e-05
4.04732e-05
4.09121e-05
4.14191e-05
4.19794e-05
4.25727e-05
4.31836e-05
4.37963e-05
4.43996e-05
4.49851e-05
4.55473e-05
4.60836e-05
4.65938e-05
4.70782e-05
4.75352e-05
4.79623e-05
4.83579e-05
4.87189e-05
4.90431e-05
4.93513e-05
4.95354e-05
4.97128e-05
4.98947e-05
4.99578e-05
4.99785e-05
4.99304e-05
4.98189e-05
4.96414e-05
4.93994e-05
4.90951e-05
4.87332e-05
4.83201e-05
4.78643e-05
4.73759e-05
4.68658e-05
4.63441e-05
4.58183e-05
4.52901e-05
4.47515e-05
4.41816e-05
4.35427e-05
4.27793e-05
4.18232e-05
4.07197e-05
3.93826e-05
3.73781e-05
3.54795e-05
3.39755e-05
3.21555e-05
3.0092e-05
2.82113e-05
2.87967e-05
3.05766e-05
3.19504e-05
3.20792e-05
3.13424e-05
2.81292e-05
2.31526e-05
1.65541e-05
7.26359e-06
1.24218e-07
5.74955e-07
2.02043e-05
4.04364e-05
5.01132e-05
5.3264e-05
5.30536e-05
5.1566e-05
5.01284e-05
4.82565e-05
4.65639e-05
4.48015e-05
4.31405e-05
4.17727e-05
4.08157e-05
4.02486e-05
3.99721e-05
3.99095e-05
4.00179e-05
4.02602e-05
4.0615e-05
4.10707e-05
4.16064e-05
4.22031e-05
4.28412e-05
4.35013e-05
4.41691e-05
4.48328e-05
4.54851e-05
4.61218e-05
4.67411e-05
4.73426e-05
4.79263e-05
4.84909e-05
4.90341e-05
4.95524e-05
5.00419e-05
5.04978e-05
5.09146e-05
5.1321e-05
5.15828e-05
5.18001e-05
5.20844e-05
5.21938e-05
5.22594e-05
5.22406e-05
5.21441e-05
5.19656e-05
5.17051e-05
5.13638e-05
5.09453e-05
5.04556e-05
4.99037e-05
4.93015e-05
4.86636e-05
4.80065e-05
4.73467e-05
4.66983e-05
4.60687e-05
4.54539e-05
4.4833e-05
4.41628e-05
4.3373e-05
4.23676e-05
4.11674e-05
3.95448e-05
3.73081e-05
3.51111e-05
3.34847e-05
3.15938e-05
2.92859e-05
2.73282e-05
2.79613e-05
2.98285e-05
3.08933e-05
3.01491e-05
2.83647e-05
2.40251e-05
1.77348e-05
8.05965e-06
1.57485e-07
6.40406e-07
2.14016e-05
4.22765e-05
5.20165e-05
5.48022e-05
5.43184e-05
5.29984e-05
5.0936e-05
4.86174e-05
4.66158e-05
4.46721e-05
4.29795e-05
4.16892e-05
4.08423e-05
4.03677e-05
4.01698e-05
4.01884e-05
4.03834e-05
4.07196e-05
4.11737e-05
4.17246e-05
4.23473e-05
4.30205e-05
4.37242e-05
4.44424e-05
4.51644e-05
4.5883e-05
4.65951e-05
4.72998e-05
4.7997e-05
4.86866e-05
4.9367e-05
5.00354e-05
5.06871e-05
5.13163e-05
5.19165e-05
5.24802e-05
5.30084e-05
5.35127e-05
5.38438e-05
5.41337e-05
5.45051e-05
5.46706e-05
5.47829e-05
5.47987e-05
5.4723e-05
5.45506e-05
5.428e-05
5.39108e-05
5.34446e-05
5.28857e-05
5.22416e-05
5.15237e-05
5.07474e-05
4.99323e-05
4.91013e-05
4.82782e-05
4.74847e-05
4.67352e-05
4.60307e-05
4.53512e-05
4.4648e-05
4.3836e-05
4.27877e-05
4.14961e-05
3.94863e-05
3.70803e-05
3.4691e-05
3.28831e-05
3.08404e-05
2.82674e-05
2.64885e-05
2.71989e-05
2.86613e-05
2.92001e-05
2.80757e-05
2.44667e-05
1.85981e-05
8.67009e-06
1.92652e-07
7.01196e-07
2.24319e-05
4.37649e-05
5.34756e-05
5.59795e-05
5.57271e-05
5.38145e-05
5.1254e-05
4.89023e-05
4.65475e-05
4.44933e-05
4.28222e-05
4.16272e-05
4.0885e-05
4.05009e-05
4.03908e-05
4.0503e-05
4.07946e-05
4.12287e-05
4.17774e-05
4.24137e-05
4.3112e-05
4.38514e-05
4.4615e-05
4.53912e-05
4.61738e-05
4.69601e-05
4.775e-05
4.8544e-05
4.9342e-05
5.01419e-05
5.09399e-05
5.173e-05
5.25047e-05
5.32553e-05
5.39725e-05
5.4647e-05
5.52932e-05
5.58885e-05
5.62771e-05
5.66542e-05
5.70954e-05
5.73192e-05
5.74762e-05
5.75281e-05
5.74774e-05
5.73184e-05
5.70483e-05
5.66649e-05
5.61674e-05
5.55575e-05
5.48398e-05
5.40229e-05
5.31204e-05
5.21513e-05
5.11404e-05
5.01176e-05
4.91149e-05
4.81629e-05
4.72836e-05
4.64832e-05
4.57429e-05
4.50103e-05
4.41905e-05
4.31361e-05
4.15816e-05
3.91994e-05
3.66544e-05
3.41491e-05
3.2151e-05
2.9803e-05
2.68854e-05
2.57463e-05
2.66534e-05
2.74784e-05
2.69124e-05
2.44918e-05
1.91055e-05
9.09738e-06
2.28974e-07
7.54957e-07
2.32644e-05
4.49005e-05
5.45786e-05
5.71305e-05
5.67766e-05
5.45585e-05
5.16665e-05
4.89223e-05
4.6405e-05
4.43e-05
4.2685e-05
4.15919e-05
4.09503e-05
4.06594e-05
4.06457e-05
4.08573e-05
4.12466e-05
4.17739e-05
4.24077e-05
4.31196e-05
4.38853e-05
4.46868e-05
4.55116e-05
4.63534e-05
4.721e-05
4.8082e-05
4.89703e-05
4.98749e-05
5.07934e-05
5.17208e-05
5.26497e-05
5.35704e-05
5.44724e-05
5.53442e-05
5.61746e-05
5.69527e-05
5.77078e-05
5.8383e-05
5.88195e-05
5.92791e-05
5.97737e-05
6.00503e-05
6.02466e-05
6.03326e-05
6.03081e-05
6.01679e-05
5.99079e-05
5.95245e-05
5.90147e-05
5.83772e-05
5.7613e-05
5.67265e-05
5.57269e-05
5.46297e-05
5.34576e-05
5.22412e-05
5.10179e-05
4.98293e-05
4.87151e-05
4.7705e-05
4.68082e-05
4.60024e-05
4.52244e-05
4.43646e-05
4.32633e-05
4.14099e-05
3.87101e-05
3.61319e-05
3.34263e-05
3.12267e-05
2.83902e-05
2.52854e-05
2.48695e-05
2.57005e-05
2.6053e-05
2.42649e-05
1.93058e-05
9.31758e-06
2.66955e-07
8.00221e-07
2.38962e-05
4.57065e-05
5.5423e-05
5.80456e-05
5.74922e-05
5.48604e-05
5.18531e-05
4.88566e-05
4.62242e-05
4.41135e-05
4.25753e-05
4.1585e-05
4.10422e-05
4.08485e-05
4.09353e-05
4.12456e-05
4.17274e-05
4.23397e-05
4.30499e-05
4.38304e-05
4.46602e-05
4.55257e-05
4.64195e-05
4.73398e-05
4.82874e-05
4.92639e-05
5.02696e-05
5.13016e-05
5.2354e-05
5.34177e-05
5.44812e-05
5.55315e-05
5.65552e-05
5.75392e-05
5.84711e-05
5.93402e-05
6.01799e-05
6.09094e-05
6.14043e-05
6.19224e-05
6.24556e-05
6.27745e-05
6.30018e-05
6.31162e-05
6.3116e-05
6.29966e-05
6.27535e-05
6.23821e-05
6.18776e-05
6.12359e-05
6.04544e-05
5.95327e-05
5.84745e-05
5.72892e-05
5.5994e-05
5.46156e-05
5.31909e-05
5.17666e-05
5.03951e-05
4.9127e-05
4.80002e-05
4.70253e-05
4.61713e-05
4.53518e-05
4.44131e-05
4.30988e-05
4.08056e-05
3.80381e-05
3.53609e-05
3.24303e-05
2.99731e-05
2.65454e-05
2.40964e-05
2.40572e-05
2.44228e-05
2.33107e-05
1.92413e-05
9.44406e-06
3.06832e-07
8.36328e-07
2.43386e-05
4.62348e-05
5.60251e-05
5.87201e-05
5.8057e-05
5.52687e-05
5.19186e-05
4.87347e-05
4.60299e-05
4.39457e-05
4.24952e-05
4.1606e-05
4.11617e-05
4.10676e-05
4.12538e-05
4.16574e-05
4.22245e-05
4.29141e-05
4.36943e-05
4.45405e-05
4.54362e-05
4.63726e-05
4.73471e-05
4.8361e-05
4.94165e-05
5.0514e-05
5.16508e-05
5.28201e-05
5.40113e-05
5.52109e-05
5.64038e-05
5.75741e-05
5.87064e-05
5.97867e-05
6.08025e-05
6.17432e-05
6.26444e-05
6.34148e-05
6.39557e-05
6.45094e-05
6.50672e-05
6.5415e-05
6.56628e-05
6.57971e-05
6.58162e-05
6.57163e-05
6.5493e-05
6.51414e-05
6.46556e-05
6.40295e-05
6.32571e-05
6.23336e-05
6.12568e-05
6.0029e-05
5.86595e-05
5.71672e-05
5.55833e-05
5.39524e-05
5.23319e-05
5.07867e-05
4.93795e-05
4.81564e-05
4.713e-05
4.62636e-05
4.54603e-05
4.45526e-05
4.27124e-05
3.99293e-05
3.72465e-05
3.42972e-05
3.11127e-05
2.81188e-05
2.43506e-05
2.30169e-05
2.27731e-05
2.25098e-05
1.91751e-05
9.69775e-06
3.55259e-07
8.63029e-07
2.45947e-05
4.65398e-05
5.63722e-05
5.92247e-05
5.83069e-05
5.54353e-05
5.1901e-05
4.85793e-05
4.58377e-05
4.38015e-05
4.24433e-05
4.16533e-05
4.1307e-05
4.13115e-05
4.15924e-05
4.20826e-05
4.27279e-05
4.34889e-05
4.43361e-05
4.5249e-05
4.6216e-05
4.72332e-05
4.83016e-05
4.94238e-05
5.0601e-05
5.18307e-05
5.31056e-05
5.44141e-05
5.57409e-05
5.70684e-05
5.83784e-05
5.96531e-05
6.08763e-05
6.20336e-05
6.31132e-05
6.41055e-05
6.50461e-05
6.58486e-05
6.64144e-05
6.69818e-05
6.75512e-05
6.79135e-05
6.817e-05
6.83142e-05
6.83449e-05
6.82598e-05
6.80552e-05
6.77266e-05
6.72677e-05
6.66712e-05
6.59288e-05
6.50317e-05
6.39725e-05
6.27462e-05
6.13533e-05
5.98029e-05
5.81162e-05
5.633e-05
5.44986e-05
5.26921e-05
5.09893e-05
4.94639e-05
4.81646e-05
4.70931e-05
4.6186e-05
4.53037e-05
4.42229e-05
4.19267e-05
3.892e-05
3.61219e-05
3.29714e-05
2.94573e-05
2.57772e-05
2.26592e-05
2.18499e-05
2.17334e-05
1.90935e-05
1.02146e-05
4.19956e-07
8.80786e-07
2.46928e-05
4.66027e-05
5.64391e-05
5.94008e-05
5.85982e-05
5.55145e-05
5.18268e-05
4.84077e-05
4.5657e-05
4.36823e-05
4.2417e-05
4.17238e-05
4.1474e-05
4.15736e-05
4.1943e-05
4.25129e-05
4.32308e-05
4.40598e-05
4.4974e-05
4.59574e-05
4.70036e-05
4.81125e-05
4.92869e-05
5.05288e-05
5.18365e-05
5.32031e-05
5.4616e-05
5.60587e-05
5.75114e-05
5.89533e-05
6.03642e-05
6.17252e-05
6.302e-05
6.42347e-05
6.53585e-05
6.6383e-05
6.73424e-05
6.81696e-05
6.87402e-05
6.93e-05
6.98687e-05
7.02315e-05
7.04844e-05
7.06272e-05
7.06602e-05
7.05825e-05
7.03921e-05
7.00853e-05
6.96562e-05
6.90972e-05
6.83985e-05
6.75487e-05
6.65359e-05
6.53488e-05
6.39794e-05
6.24259e-05
6.06975e-05
5.88187e-05
5.68341e-05
5.48107e-05
5.28348e-05
5.10023e-05
4.93992e-05
4.80762e-05
4.7023e-05
4.61521e-05
4.5293e-05
4.35695e-05
4.06743e-05
3.79489e-05
3.45522e-05
3.09985e-05
2.73057e-05
2.28801e-05
2.10786e-05
2.00951e-05
1.86775e-05
1.09037e-05
5.03045e-07
8.89612e-07
2.4631e-05
4.6418e-05
5.63816e-05
5.95459e-05
5.86655e-05
5.55061e-05
5.17133e-05
4.82319e-05
4.54929e-05
4.3587e-05
4.24132e-05
4.18141e-05
4.16578e-05
4.18474e-05
4.22988e-05
4.29428e-05
4.37295e-05
4.46253e-05
4.56084e-05
4.66679e-05
4.78016e-05
4.90119e-05
5.03015e-05
5.16701e-05
5.31115e-05
5.46135e-05
5.61584e-05
5.77248e-05
5.92897e-05
6.08298e-05
6.23238e-05
6.37528e-05
6.51008e-05
6.6355e-05
6.75057e-05
6.85455e-05
6.95032e-05
7.03479e-05
7.09103e-05
7.14415e-05
7.19974e-05
7.23478e-05
7.25851e-05
7.2715e-05
7.27398e-05
7.26607e-05
7.24772e-05
7.21872e-05
7.17861e-05
7.12666e-05
7.06185e-05
6.9829e-05
6.8883e-05
6.7764e-05
6.64565e-05
6.49486e-05
6.32366e-05
6.13303e-05
5.92596e-05
5.70799e-05
5.48745e-05
5.27491e-05
5.08161e-05
4.91676e-05
4.78418e-05
4.67952e-05
4.58913e-05
4.49079e-05
4.25532e-05
3.94271e-05
3.65747e-05
3.26098e-05
2.85411e-05
2.42389e-05
2.0973e-05
1.93084e-05
1.82908e-05
1.14404e-05
5.99842e-07
8.89128e-07
2.44737e-05
4.61713e-05
5.61846e-05
5.95742e-05
5.86352e-05
5.5431e-05
5.15744e-05
4.80602e-05
4.53478e-05
4.35138e-05
4.24288e-05
4.19203e-05
4.18536e-05
4.21274e-05
4.26551e-05
4.33688e-05
4.4222e-05
4.51849e-05
4.62402e-05
4.73816e-05
4.86102e-05
4.99289e-05
5.13391e-05
5.28362e-05
5.44091e-05
5.604e-05
5.77064e-05
5.93831e-05
6.10444e-05
6.26659e-05
6.4226e-05
6.57061e-05
6.70913e-05
6.83701e-05
6.95343e-05
7.05788e-05
7.15132e-05
7.23486e-05
7.292e-05
7.33986e-05
7.39287e-05
7.42554e-05
7.44662e-05
7.45721e-05
7.45781e-05
7.44875e-05
7.4302e-05
7.40213e-05
7.36425e-05
7.31597e-05
7.25631e-05
7.18394e-05
7.09718e-05
6.99403e-05
6.87232e-05
6.72999e-05
6.56546e-05
6.37817e-05
6.16938e-05
5.9429e-05
5.70587e-05
5.46878e-05
5.24461e-05
5.04637e-05
4.88336e-05
4.75706e-05
4.65854e-05
4.56901e-05
4.39087e-05
4.0843e-05
3.82693e-05
3.43273e-05
3.01435e-05
2.56899e-05
2.09926e-05
1.89597e-05
1.79232e-05
1.20738e-05
7.09507e-07
8.84253e-07
2.4221e-05
4.57773e-05
5.58055e-05
5.93885e-05
5.85046e-05
5.53025e-05
5.14201e-05
4.7898e-05
4.52226e-05
4.34606e-05
4.24608e-05
4.20392e-05
4.20573e-05
4.24098e-05
4.30088e-05
4.3789e-05
4.47075e-05
4.57385e-05
4.68694e-05
4.80978e-05
4.94262e-05
5.08573e-05
5.23889e-05
5.40118e-05
5.57095e-05
5.74592e-05
5.92341e-05
6.10062e-05
6.27483e-05
6.44355e-05
6.60463e-05
6.75631e-05
6.8972e-05
7.02627e-05
7.14281e-05
7.24641e-05
7.3369e-05
7.41777e-05
7.47603e-05
7.5177e-05
7.56629e-05
7.59578e-05
7.61324e-05
7.62044e-05
7.61814e-05
7.60691e-05
7.58718e-05
7.55913e-05
7.52268e-05
7.4774e-05
7.42248e-05
7.35664e-05
7.27812e-05
7.18473e-05
7.0739e-05
6.94284e-05
6.78893e-05
6.61018e-05
6.406e-05
6.17817e-05
5.93185e-05
5.67634e-05
5.42492e-05
5.19314e-05
4.99512e-05
4.83853e-05
4.71973e-05
4.62122e-05
4.51266e-05
4.24413e-05
3.96834e-05
3.64275e-05
3.154e-05
2.68518e-05
2.17682e-05
1.85005e-05
1.67813e-05
1.26691e-05
8.14165e-07
8.73481e-07
2.39182e-05
4.51315e-05
5.52974e-05
5.90797e-05
5.82889e-05
5.51313e-05
5.1258e-05
4.77487e-05
4.51171e-05
4.34256e-05
4.25068e-05
4.2168e-05
4.22659e-05
4.26917e-05
4.33579e-05
4.42021e-05
4.51852e-05
4.62855e-05
4.74947e-05
4.88132e-05
5.02439e-05
5.17874e-05
5.34374e-05
5.51797e-05
5.69924e-05
5.88485e-05
6.07179e-05
6.25707e-05
6.43789e-05
6.61178e-05
6.77665e-05
6.93082e-05
7.073e-05
7.20225e-05
7.31794e-05
7.4197e-05
7.50731e-05
7.58368e-05
7.64293e-05
7.67912e-05
7.72072e-05
7.74653e-05
7.7596e-05
7.76252e-05
7.75641e-05
7.74208e-05
7.72018e-05
7.69117e-05
7.65519e-05
7.61204e-05
7.5611e-05
7.50122e-05
7.43073e-05
7.34735e-05
7.24826e-05
7.13021e-05
6.98972e-05
6.82355e-05
6.62939e-05
6.40685e-05
6.15871e-05
5.89216e-05
5.61954e-05
5.35758e-05
5.12441e-05
4.9343e-05
4.79157e-05
4.68643e-05
4.5949e-05
4.38292e-05
4.07689e-05
3.815e-05
3.31942e-05
2.8316e-05
2.31717e-05
1.8915e-05
1.58903e-05
1.30997e-05
8.90476e-07
8.57006e-07
2.35353e-05
4.44252e-05
5.46824e-05
5.86632e-05
5.80013e-05
5.49266e-05
5.10935e-05
4.76147e-05
4.50312e-05
4.34072e-05
4.2565e-05
4.23042e-05
4.24769e-05
4.29713e-05
4.37012e-05
4.46071e-05
4.5654e-05
4.68243e-05
4.81132e-05
4.95227e-05
5.10549e-05
5.27074e-05
5.44695e-05
5.63219e-05
5.82381e-05
6.01873e-05
6.21374e-05
6.40573e-05
6.59189e-05
6.76977e-05
6.93738e-05
7.09313e-05
7.2358e-05
7.36455e-05
7.47882e-05
7.57835e-05
7.66319e-05
7.73392e-05
7.79136e-05
7.82499e-05
7.85792e-05
7.87924e-05
7.8873e-05
7.88525e-05
7.87455e-05
7.85627e-05
7.83131e-05
7.80037e-05
7.76386e-05
7.72183e-05
7.67389e-05
7.61911e-05
7.55594e-05
7.48219e-05
7.39495e-05
7.29067e-05
7.16527e-05
7.01453e-05
6.83461e-05
6.62303e-05
6.38e-05
6.11002e-05
5.82332e-05
5.53621e-05
5.26917e-05
5.04183e-05
4.86559e-05
4.73676e-05
4.63393e-05
4.48436e-05
4.17918e-05
3.95956e-05
3.52664e-05
2.95192e-05
2.43238e-05
1.91965e-05
1.55504e-05
1.32575e-05
9.22694e-07
8.3565e-07
2.30549e-05
4.36061e-05
5.39867e-05
5.81486e-05
5.76519e-05
5.46954e-05
5.09307e-05
4.74973e-05
4.49644e-05
4.34042e-05
4.26338e-05
4.24461e-05
4.26884e-05
4.32471e-05
4.40371e-05
4.50027e-05
4.61123e-05
4.73522e-05
4.87203e-05
5.02192e-05
5.18494e-05
5.36048e-05
5.54701e-05
5.74214e-05
5.94285e-05
6.14579e-05
6.34758e-05
6.54507e-05
6.73548e-05
6.91642e-05
7.08597e-05
7.24262e-05
7.38524e-05
7.51302e-05
7.62548e-05
7.7224e-05
7.80382e-05
7.86998e-05
7.92356e-05
7.95543e-05
7.97935e-05
7.99552e-05
7.99809e-05
7.99056e-05
7.97466e-05
7.95174e-05
7.92294e-05
7.8892e-05
7.8512e-05
7.80927e-05
7.76325e-05
7.71249e-05
7.65566e-05
7.59071e-05
7.5148e-05
7.42425e-05
7.31465e-05
7.18101e-05
7.01829e-05
6.82215e-05
6.59027e-05
6.32413e-05
6.03103e-05
5.7255e-05
5.42885e-05
5.16523e-05
4.95397e-05
4.80061e-05
4.69062e-05
4.58872e-05
4.31053e-05
4.05887e-05
3.71828e-05
3.07297e-05
2.52442e-05
1.9368e-05
1.57629e-05
1.32537e-05
9.27921e-07
8.10487e-07
2.25336e-05
4.26993e-05
5.32136e-05
5.75525e-05
5.72502e-05
5.44434e-05
5.07723e-05
4.73972e-05
4.49163e-05
4.34156e-05
4.27117e-05
4.2592e-05
4.2899e-05
4.35175e-05
4.43644e-05
4.5387e-05
4.65575e-05
4.78653e-05
4.93102e-05
5.08945e-05
5.26166e-05
5.44664e-05
5.64245e-05
5.84629e-05
6.05483e-05
6.26454e-05
6.47195e-05
6.67391e-05
6.86767e-05
7.05094e-05
7.22185e-05
7.37895e-05
7.52116e-05
7.64773e-05
7.75819e-05
7.85236e-05
7.93028e-05
7.99224e-05
8.04094e-05
8.07068e-05
8.08643e-05
8.09693e-05
8.09368e-05
8.08032e-05
8.05881e-05
8.03074e-05
7.99747e-05
7.9602e-05
7.91986e-05
7.87704e-05
7.83188e-05
7.784e-05
7.73234e-05
7.67507e-05
7.60953e-05
7.53209e-05
7.43817e-05
7.32233e-05
7.17861e-05
7.00111e-05
6.78524e-05
6.52941e-05
6.23746e-05
5.92094e-05
5.60015e-05
5.30172e-05
5.05149e-05