/*--------------------------------*- C++ -*----------------------------------*\
  =========                 |
  \\      /  F ield         | OpenFOAM: The Open Source CFD Toolbox
   \\    /   O peration     | Website:  https://openfoam.org
    \\  /    A nd           | Version:  13
     \\/     M anipulation  |
\*---------------------------------------------------------------------------*/
FoamFile
{
    format      ascii;
    class       volScalarField;
    location    "2.5";
    object      k;
}
// * * * * * * * * * * * * * * * * * * * * * * * * * * * * * * * * * * * * * //

dimensions      [0 2 -2 0 0 0 0];

internalField   nonuniform List<scalar> 
400
(
6.94347e-06
1.85611e-05
2.6918e-05
3.06615e-05
3.21572e-05
3.46399e-05
4.6148e-05
8.16234e-05
0.000149726
0.000232396
0.000303077
0.000359545
0.000410852
0.000459722
0.000484419
0.000492517
0.000469308
0.000351177
0.000195496
0.000119715
2.15695e-05
8.13788e-05
0.000106999
0.000113132
0.00011283
0.000119857
0.000165884
0.000269298
0.000405281
0.00054077
0.000664552
0.000779406
0.000886771
0.000981035
0.00105232
0.00108656
0.00109365
0.000966899
0.000650474
0.000395412
4.8627e-05
0.00016747
0.000218434
0.000238766
0.000247956
0.000272854
0.000351619
0.000481952
0.000623651
0.000752663
0.000867062
0.000972908
0.00107451
0.00116825
0.00124331
0.00127992
0.00128946
0.00120624
0.000921258
0.000632408
7.51044e-05
0.000238916
0.000308841
0.000342462
0.000361122
0.000395438
0.000480475
0.000608522
0.000740376
0.000858661
0.000965312
0.00106648
0.00116571
0.00126022
0.00134378
0.00138953
0.00140438
0.00134764
0.00107529
0.00076578
9.70089e-05
0.0002944
0.000378039
0.000421754
0.00044739
0.000482473
0.000559988
0.000676577
0.000795083
0.000900415
0.000999759
0.00109726
0.00119523
0.00129366
0.00139622
0.00148286
0.00151714
0.00149583
0.00123985
0.000879323
0.000112526
0.000331486
0.000424687
0.000476246
0.000506766
0.000537815
0.000598013
0.000690551
0.000792389
0.000893665
0.000989213
0.00108255
0.0011784
0.00128402
0.00140612
0.00154207
0.00162265
0.00163328
0.00139409
0.000968036
0.000121649
0.00035198
0.00045154
0.000509507
0.000544084
0.000569838
0.000609533
0.000681158
0.000772887
0.000865093
0.000952437
0.001037
0.00112804
0.00124073
0.00138672
0.00156492
0.00172554
0.00177632
0.00156224
0.00104581
0.000125446
0.000359274
0.000462472
0.000525302
0.000564113
0.000587449
0.000611403
0.00065854
0.000729371
0.000807331
0.000885767
0.000964798
0.00105526
0.00117616
0.00134576
0.00156852
0.00180872
0.00191794
0.00172948
0.00110901
0.00012447
0.000357086
0.000461279
0.000528081
0.000572399
0.000597225
0.000612055
0.000635045
0.000678765
0.000738685
0.000806694
0.000880876
0.000972123
0.00110235
0.00129467
0.00155802
0.00186347
0.00205058
0.00190393
0.00116154
0.000121813
0.000351203
0.000456236
0.000524936
0.000572068
0.000601892
0.000615566
0.000625283
0.000643044
0.000678029
0.000729997
0.000797063
0.000888935
0.00102815
0.0012396
0.00153514
0.00188874
0.0021631
0.00206828
0.0012009
0.000117125
0.0003415
0.000446567
0.0005175
0.000569031
0.00060302
0.000620891
0.000626816
0.00063254
0.000645078
0.000674403
0.000728389
0.000816429
0.000960423
0.00118429
0.0015022
0.00189467
0.0022463
0.00222457
0.00122934
0.000112656
0.000329555
0.00043536
0.000507809
0.00056274
0.000602449
0.000626482
0.000635244
0.000636903
0.0006412
0.000653791
0.00068833
0.000763271
0.000902458
0.00112712
0.00145393
0.00187299
0.00228519
0.00236098
0.00124354
0.000108291
0.000317271
0.000424183
0.000498247
0.000556133
0.000601088
0.000631705
0.00064773
0.000650914
0.000650235
0.000656176
0.00067755
0.000733671
0.000853911
0.00106462
0.00138402
0.00181549
0.00229496
0.00247702
0.00124939
0.000103769
0.000305613
0.000414185
0.000490779
0.000552494
0.000602074
0.000638286
0.000661168
0.000670603
0.000670834
0.0006714
0.000683096
0.000722277
0.000815473
0.000997609
0.00129348
0.00172017
0.00225842
0.0025346
0.00125003
0.000100482
0.000298138
0.00040937
0.000490076
0.000554701
0.00060782
0.000649582
0.000678086
0.000693368
0.000697336
0.000697145
0.000702393
0.000727692
0.000794906
0.000939216
0.00119584
0.00160032
0.00218611
0.00255171
0.00124392
0.000100472
0.000299077
0.00041258
0.00049724
0.000567018
0.000625981
0.000674447
0.000710238
0.000732513
0.000742644
0.000745406
0.000749543
0.000765863
0.000814245
0.000923904
0.00114795
0.00152712
0.00210942
0.00245823
0.00123892
0.000104756
0.0003089
0.000431935
0.000526951
0.000607636
0.000677981
0.000738496
0.000787689
0.00082424
0.000848882
0.000864391
0.000878023
0.000899537
0.000945045
0.00103887
0.00122418
0.00152578
0.00207824
0.00227486
0.00122104
0.000118713
0.000348598
0.00050738
0.000634995
0.000748429
0.000851734
0.00094571
0.00103007
0.00110272
0.00116557
0.00121896
0.00127091
0.00132668
0.0014011
0.00150706
0.00167558
0.00187427
0.00219392
0.00208634
0.0012015
0.000148605
0.000437567
0.000728488
0.000985108
0.00120505
0.00140235
0.00158135
0.00174828
0.00189542
0.00203374
0.00215464
0.00227446
0.00238726
0.00250475
0.00262916
0.00274769
0.00269663
0.00249919
0.00201801
0.00115502
0.000119017
0.000173818
0.000283515
0.000392343
0.000496004
0.00059037
0.000681242
0.000761917
0.000845736
0.000913786
0.000991965
0.00104573
0.0011181
0.00115774
0.00122045
0.00124554
0.00126929
0.00126594
0.00123371
0.00109096
)
;

boundaryField
{
    movingWall
    {
        type            kqRWallFunction;
        value           nonuniform List<scalar> 
20
(
0.000119017
0.000173818
0.000283515
0.000392343
0.000496004
0.00059037
0.000681242
0.000761917
0.000845736
0.000913786
0.000991965
0.00104573
0.0011181
0.00115774
0.00122045
0.00124554
0.00126929
0.00126594
0.00123371
0.00109096
)
;
    }
    fixedWalls
    {
        type            kqRWallFunction;
        value           nonuniform List<scalar> 
60
(
6.94347e-06
2.15695e-05
4.8627e-05
7.51044e-05
9.70089e-05
0.000112526
0.000121649
0.000125446
0.00012447
0.000121813
0.000117125
0.000112656
0.000108291
0.000103769
0.000100482
0.000100472
0.000104756
0.000118713
0.000148605
0.000119017
0.000119715
0.000395412
0.000632408
0.00076578
0.000879323
0.000968036
0.00104581
0.00110901
0.00116154
0.0012009
0.00122934
0.00124354
0.00124939
0.00125003
0.00124392
0.00123892
0.00122104
0.0012015
0.00115502
0.00109096
6.94347e-06
1.85611e-05
2.6918e-05
3.06615e-05
3.21572e-05
3.46399e-05
4.6148e-05
8.16234e-05
0.000149726
0.000232396
0.000303077
0.000359545
0.000410852
0.000459722
0.000484419
0.000492517
0.000469308
0.000351177
0.000195496
0.000119715
)
;
    }
    frontAndBack
    {
        type            empty;
    }
}


// ************************************************************************* //
