/*--------------------------------*- C++ -*----------------------------------*\
  =========                 |
  \\      /  F ield         | OpenFOAM: The Open Source CFD Toolbox
   \\    /   O peration     | Website:  https://openfoam.org
    \\  /    A nd           | Version:  13
     \\/     M anipulation  |
\*---------------------------------------------------------------------------*/
FoamFile
{
    format      ascii;
    class       volScalarField;
    location    "2.5";
    object      nut;
}
// * * * * * * * * * * * * * * * * * * * * * * * * * * * * * * * * * * * * * //

dimensions      [0 2 -1 0 0 0 0];

internalField   nonuniform List<scalar> 
400
(
1.9374e-07
5.1878e-07
7.52015e-07
8.55704e-07
8.97129e-07
9.69294e-07
1.30598e-06
2.33695e-06
4.29198e-06
6.62857e-06
8.60265e-06
1.01808e-05
1.16199e-05
1.29885e-05
1.36733e-05
1.38978e-05
1.32342e-05
9.90875e-06
5.52415e-06
3.39081e-06
6.03891e-07
7.52258e-06
9.25117e-06
8.61369e-06
7.50441e-06
6.81856e-06
8.56357e-06
1.36913e-05
2.10743e-05
2.95546e-05
3.81792e-05
4.57378e-05
5.14944e-05
5.47053e-05
5.50077e-05
5.22534e-05
5.02922e-05
3.91993e-05
2.13937e-05
1.11444e-05
1.36478e-06
1.92599e-05
2.47965e-05
2.37602e-05
2.1176e-05
2.01342e-05
2.41266e-05
3.26637e-05
4.28665e-05
5.29233e-05
6.1608e-05
6.82209e-05
7.28473e-05
7.53145e-05
7.47934e-05
7.00507e-05
6.45319e-05
5.43041e-05
3.27243e-05
1.77771e-05
2.11025e-06
2.81391e-05
3.76958e-05
3.71118e-05
3.37217e-05
3.23222e-05
3.68082e-05
4.63806e-05
5.7573e-05
6.79906e-05
7.63582e-05
8.26619e-05
8.72422e-05
8.98439e-05
8.95559e-05
8.38132e-05
7.54516e-05
6.4949e-05
4.07929e-05
2.1518e-05
2.72731e-06
3.49086e-05
4.83459e-05
4.86428e-05
4.48346e-05
4.25104e-05
4.63804e-05
5.63224e-05
6.7196e-05
7.64364e-05
8.46306e-05
9.17282e-05
9.73898e-05
0.000100517
0.000101323
9.75407e-05
8.71915e-05
7.58601e-05
5.00886e-05
2.47047e-05
3.16404e-06
3.95174e-05
5.66665e-05
5.84917e-05
5.49264e-05
5.16824e-05
5.34182e-05
6.01843e-05
6.95931e-05
7.9893e-05
8.93449e-05
9.75264e-05
0.000103793
0.000107763
0.000109141
0.000107513
9.68469e-05
8.45414e-05
5.84492e-05
2.71936e-05
3.42007e-06
4.22711e-05
6.32003e-05
6.72925e-05
6.40452e-05
5.92313e-05
5.77623e-05
6.25825e-05
7.19689e-05
8.23106e-05
9.18922e-05
0.000100137
0.000106828
0.000111927
0.000114595
0.000113757
0.000105913
9.169e-05
6.64154e-05
2.93772e-05
3.52528e-06
4.34525e-05
6.72084e-05
7.34341e-05
7.14867e-05
6.64304e-05
6.2991e-05
6.49003e-05
7.18218e-05
8.08346e-05
9.01291e-05
9.88468e-05
0.000106807
0.000113621
0.000118
0.000118541
0.000113471
9.79867e-05
7.30702e-05
3.11499e-05
3.4968e-06
4.32939e-05
6.91812e-05
7.83625e-05
7.86919e-05
7.42437e-05
6.92899e-05
6.76866e-05
7.09825e-05
7.79017e-05
8.63731e-05
9.53446e-05
0.000104657
0.000113647
0.000120202
0.000122225
0.000118761
0.000103391
7.87888e-05
3.26246e-05
3.42009e-06
4.27123e-05
7.08008e-05
8.25756e-05
8.48051e-05
8.20273e-05
7.69102e-05
7.31091e-05
7.24817e-05
7.59726e-05
8.25631e-05
9.11541e-05
0.000101561
0.000112804
0.000121622
0.000124702
0.000121316
0.000107814
8.32359e-05
3.37283e-05
3.28693e-06
4.14668e-05
7.1008e-05
8.55919e-05
9.05606e-05
8.94916e-05
8.53692e-05
8.06623e-05
7.8062e-05
7.80665e-05
8.14206e-05
8.85685e-05
9.9187e-05
0.000112096
0.000122919
0.000126631
0.000122671
0.000110669
8.66838e-05
3.45266e-05
3.16043e-06
3.95855e-05
7.02924e-05
8.74569e-05
9.50451e-05
9.6497e-05
9.40744e-05
8.96613e-05
8.59762e-05
8.47408e-05
8.56422e-05
8.99068e-05
9.90535e-05
0.000112398
0.000124159
0.000128135
0.000123481
0.000111661
8.90316e-05
3.49238e-05
3.03685e-06
3.75847e-05
6.90999e-05
8.85189e-05
9.86044e-05
0.000102718
0.000102495
9.97137e-05
9.58591e-05
9.32807e-05
9.33662e-05
9.57917e-05
0.00010234
0.000113717
0.000124874
0.000128294
0.000122562
0.00011164
9.07423e-05
3.50873e-05
2.90889e-06
3.58695e-05
6.7935e-05
8.93356e-05
0.000101952
0.000108538
0.000110475
0.000109561
0.000106919
0.000104052
0.00010287
0.000103701
0.000107764
0.000115383
0.00012408
0.000126168
0.000119462
0.000109191
9.09325e-05
3.5105e-05
2.81491e-06
3.52557e-05
6.76344e-05
9.01655e-05
0.000103753
0.000111628
0.000115369
0.000115894
0.000114438
0.000112129
0.000110423
0.000109708
0.000111287
0.000115111
0.000119155
0.000118059
0.000112265
0.000105372
9.07075e-05
3.49324e-05
2.8141e-06
3.64731e-05
6.81966e-05
9.04936e-05
0.000104471
0.000113086
0.000117875
0.00011952
0.000118863
0.000116746
0.000114242
0.000112119
0.00011026
0.000109694
0.000109903
0.000109805
0.000105863
9.95978e-05
8.61428e-05
3.47921e-05
2.93326e-06
3.82288e-05
6.8962e-05
8.813e-05
9.94899e-05
0.000106149
0.000109707
0.000110827
0.000110039
0.000107731
0.000104545
0.000101026
9.77285e-05
9.52889e-05
9.45239e-05
9.53326e-05
9.38103e-05
9.37446e-05
8.05237e-05
3.42897e-05
3.32445e-06
4.14218e-05
6.57535e-05
7.66075e-05
8.24818e-05
8.59659e-05
8.80914e-05
8.91181e-05
8.93589e-05
8.87608e-05
8.77183e-05
8.63369e-05
8.52486e-05
8.46244e-05
8.57223e-05
8.75565e-05
8.77738e-05
8.50811e-05
7.1425e-05
3.37405e-05
4.16598e-06
4.0259e-05
5.65879e-05
6.41736e-05
6.98508e-05
7.42634e-05
7.78814e-05
8.08478e-05
8.33177e-05
8.52971e-05
8.69418e-05
8.82632e-05
8.95602e-05
9.05204e-05
9.22763e-05
9.22972e-05
9.01497e-05
8.26598e-05
6.46583e-05
3.24331e-05
3.33653e-06
4.87529e-06
7.95688e-06
1.10136e-05
1.39248e-05
1.6574e-05
1.91251e-05
2.13886e-05
2.3741e-05
2.56493e-05
2.78436e-05
2.93512e-05
3.13837e-05
3.24962e-05
3.42596e-05
3.49659e-05
3.5637e-05
3.55436e-05
3.46396e-05
3.06313e-05
)
;

boundaryField
{
    movingWall
    {
        type            nutkWallFunction;
        Cmu             0.09;
        kappa           0.41;
        E               9.8;
        value           uniform 0;
    }
    fixedWalls
    {
        type            nutkWallFunction;
        Cmu             0.09;
        kappa           0.41;
        E               9.8;
        value           uniform 0;
    }
    frontAndBack
    {
        type            empty;
    }
}


// ************************************************************************* //
