/*--------------------------------*- C++ -*----------------------------------*\
  =========                 |
  \\      /  F ield         | OpenFOAM: The Open Source CFD Toolbox
   \\    /   O peration     | Website:  https://openfoam.org
    \\  /    A nd           | Version:  13
     \\/     M anipulation  |
\*---------------------------------------------------------------------------*/
FoamFile
{
    format      ascii;
    class       surfaceScalarField;
    location    "2.5";
    object      phi;
}
// * * * * * * * * * * * * * * * * * * * * * * * * * * * * * * * * * * * * * //

dimensions      [0 3 -1 0 0 0 0];

internalField   nonuniform List<scalar> 
760
(
-1.04936e-08
1.04885e-08
-1.03104e-07
9.26106e-08
-2.42626e-07
1.39522e-07
-4.03381e-07
1.60754e-07
-6.04731e-07
2.0135e-07
-9.13478e-07
3.08746e-07
-1.4226e-06
5.09124e-07
-2.16922e-06
7.46614e-07
-3.04808e-06
8.7886e-07
-3.8583e-06
8.10221e-07
-4.46819e-06
6.09898e-07
-4.84239e-06
3.7419e-07
-4.9771e-06
1.34716e-07
-4.83486e-06
-1.42245e-07
-4.43133e-06
-4.03527e-07
-3.75505e-06
-6.76282e-07
-2.80569e-06
-9.49351e-07
-1.67105e-06
-1.13464e-06
-5.755e-07
-1.09555e-06
-5.755e-07
-1.34948e-07
1.45436e-07
-3.91306e-07
3.48968e-07
-7.22293e-07
4.70509e-07
-1.11641e-06
5.54867e-07
-1.59183e-06
6.76772e-07
-2.17767e-06
8.9459e-07
-2.86963e-06
1.20109e-06
-3.58683e-06
1.46381e-06
-4.22508e-06
1.51711e-06
-4.74296e-06
1.32811e-06
-5.13013e-06
9.97069e-07
-5.3669e-06
6.10954e-07
-5.40749e-06
1.75306e-07
-5.25959e-06
-2.90144e-07
-4.89846e-06
-7.64653e-07
-4.31011e-06
-1.26463e-06
-3.48367e-06
-1.7758e-06
-2.40295e-06
-2.21536e-06
-1.12235e-06
-2.37615e-06
-1.69785e-06
-2.4651e-07
3.91946e-07
-5.84049e-07
6.86508e-07
-9.80383e-07
8.66843e-07
-1.44894e-06
1.02343e-06
-1.99555e-06
1.22338e-06
-2.60584e-06
1.50488e-06
-3.23005e-06
1.82529e-06
-3.79924e-06
2.033e-06
-4.27047e-06
1.98834e-06
-4.6425e-06
1.70014e-06
-4.90675e-06
1.26131e-06
-5.04406e-06
7.48272e-07
-5.03869e-06
1.69931e-07
-4.88794e-06
-4.40895e-07
-4.57708e-06
-1.07551e-06
-4.09181e-06
-1.7499e-06
-3.41907e-06
-2.44854e-06
-2.52183e-06
-3.1126e-06
-1.36958e-06
-3.5284e-06
-3.06743e-06
-3.033e-07
6.95246e-07
-6.63408e-07
1.04662e-06
-1.06116e-06
1.2646e-06
-1.51372e-06
1.47598e-06
-2.01993e-06
1.72959e-06
-2.55169e-06
2.03664e-06
-3.05766e-06
2.33126e-06
-3.494e-06
2.46935e-06
-3.84725e-06
2.34159e-06
-4.11567e-06
1.96856e-06
-4.29373e-06
1.43937e-06
-4.36636e-06
8.20902e-07
-4.3342e-06
1.37765e-07
-4.19593e-06
-5.7916e-07
-3.9398e-06
-1.33164e-06
-3.55741e-06
-2.13229e-06
-3.02474e-06
-2.98121e-06
-2.29452e-06
-3.84282e-06
-1.29534e-06
-4.52758e-06
-4.36277e-06
-3.0729e-07
1.00254e-06
-6.49732e-07
1.38906e-06
-1.00953e-06
1.62439e-06
-1.3989e-06
1.86536e-06
-1.81382e-06
2.14451e-06
-2.22972e-06
2.45254e-06
-2.60904e-06
2.71058e-06
-2.92749e-06
2.7878e-06
-3.18194e-06
2.59604e-06
-3.37266e-06
2.15927e-06
-3.4916e-06
1.55832e-06
-3.52988e-06
8.5918e-07
-3.49043e-06
9.83155e-08
-3.37382e-06
-6.95767e-07
-3.17848e-06
-1.52699e-06
-2.89807e-06
-2.41269e-06
-2.50627e-06
-3.37301e-06
-1.94903e-06
-4.40007e-06
-1.12696e-06
-5.34965e-06
-5.48973e-06
-2.73999e-07
1.27654e-06
-5.71517e-07
1.68658e-06
-8.70137e-07
1.92301e-06
-1.17464e-06
2.16986e-06
-1.47962e-06
2.44949e-06
-1.77066e-06
2.74358e-06
-2.02694e-06
2.96686e-06
-2.23979e-06
3.00065e-06
-2.41322e-06
2.76947e-06
-2.54506e-06
2.29111e-06
-2.62584e-06
1.6391e-06
-2.64955e-06
8.82891e-07
-2.61931e-06
6.80799e-08
-2.53695e-06
-7.78134e-07
-2.40618e-06
-1.65776e-06
-2.22195e-06
-2.59692e-06
-1.95753e-06
-3.63743e-06
-1.55847e-06
-4.79913e-06
-9.34831e-07
-5.97329e-06
-6.42456e-06
-2.1959e-07
1.49613e-06
-4.57117e-07
1.9241e-06
-6.84546e-07
2.15044e-06
-8.99384e-07
2.3847e-06
-1.09606e-06
2.64617e-06
-1.26697e-06
2.91449e-06
-1.4015e-06
3.10139e-06
-1.51342e-06
3.11257e-06
-1.61549e-06
2.87153e-06
-1.7007e-06
2.37632e-06
-1.75969e-06
1.69809e-06
-1.78542e-06
9.08616e-07
-1.77873e-06
6.1391e-08
-1.74284e-06
-8.14015e-07
-1.68286e-06
-1.71774e-06
-1.59499e-06
-2.68479e-06
-1.45709e-06
-3.77533e-06
-1.21414e-06
-5.04208e-06
-7.56742e-07
-6.43069e-06
-7.18131e-06
-1.56076e-07
1.6522e-06
-3.27872e-07
2.0959e-06
-4.83568e-07
2.30614e-06
-6.14459e-07
2.51559e-06
-7.13286e-07
2.74499e-06
-7.73868e-07
2.97507e-06
-8.00924e-07
3.12845e-06
-8.17712e-07
3.12936e-06
-8.46817e-07
2.90064e-06
-8.88933e-07
2.41844e-06
-9.33292e-07
1.74245e-06
-9.70031e-07
9.45355e-07
-9.96908e-07
8.82674e-08
-1.01545e-06
-7.95474e-07
-1.02991e-06
-1.70329e-06
-1.03528e-06
-2.67941e-06
-1.00902e-06
-3.80159e-06
-8.97623e-07
-5.15348e-06
-6.15994e-07
-6.71232e-06
-7.7973e-06
-9.19403e-08
1.74414e-06
-1.99238e-07
2.2032e-06
-2.88635e-07
2.39554e-06
-3.46528e-07
2.57348e-06
-3.63742e-07
2.76221e-06
-3.3427e-07
2.9456e-06
-2.72861e-07
3.06704e-06
-2.03384e-07
3.05988e-06
-1.58562e-07
2.85582e-06
-1.52669e-07
2.41254e-06
-1.79078e-07
1.76886e-06
-2.27639e-07
9.93916e-07
-2.91446e-07
1.52074e-07
-3.68107e-07
-7.18813e-07
-4.58267e-07
-1.61313e-06
-5.54274e-07
-2.5834e-06
-6.31662e-07
-3.7242e-06
-6.34667e-07
-5.15047e-06
-4.83673e-07
-6.86331e-06
-8.28097e-06
-3.36945e-08
1.77784e-06
-8.21626e-08
2.25166e-06
-1.13798e-07
2.42717e-06
-1.11894e-07
2.57158e-06
-6.6564e-08
2.71688e-06
2.77594e-08
2.85127e-06
1.5801e-07
2.93679e-06
3.00242e-07
2.91765e-06
4.17532e-07
2.73853e-06
4.771e-07
2.35297e-06
4.73724e-07
1.77224e-06
4.17291e-07
1.05035e-06
3.19809e-07
2.49556e-07
1.88289e-07
-5.87294e-07
2.82825e-08
-1.45312e-06
-1.51632e-07
-2.40349e-06
-3.23271e-07
-3.55257e-06
-4.28197e-07
-5.04555e-06
-3.9434e-07
-6.89716e-06
-8.67531e-06
1.66702e-08
1.76117e-06
1.5999e-08
2.25234e-06
3.28021e-08
2.41037e-06
8.13907e-08
2.52299e-06
1.71821e-07
2.62645e-06
3.08419e-07
2.71468e-06
4.83615e-07
2.7616e-06
6.74201e-07
2.72706e-06
8.45284e-07
2.56744e-06
9.56923e-07
2.24134e-06
9.87458e-07
1.7417e-06
9.36991e-07
1.10082e-06
8.17939e-07
3.68609e-07
6.42731e-07
-4.12086e-07
4.24167e-07
-1.23456e-06
1.76822e-07
-2.15614e-06
-7.00464e-08
-3.3057e-06
-2.59012e-07
-4.85658e-06
-3.17817e-07
-6.83836e-06
-8.99313e-06
4.93252e-08
1.71184e-06
9.04969e-08
2.21116e-06
1.45893e-07
2.35497e-06
2.31113e-07
2.43777e-06
3.54317e-07
2.50324e-06
5.18189e-07
2.5508e-06
7.16657e-07
2.56313e-06
9.31605e-07
2.51211e-06
1.13296e-06
2.36609e-06
1.28192e-06
2.09238e-06
1.34731e-06
1.67631e-06
1.3163e-06
1.13183e-06
1.19405e-06
4.90867e-07
9.9493e-07
-2.1297e-07
7.37506e-07
-9.77133e-07
4.38805e-07
-1.85744e-06
1.27444e-07
-2.99434e-06
-1.33696e-07
-4.59544e-06
-2.74094e-07
-6.69796e-06
-9.26722e-06
7.14415e-08
1.6404e-06
1.40909e-07
2.1417e-06
2.26554e-07
2.26933e-06
3.39905e-07
2.32442e-06
4.86826e-07
2.35632e-06
6.68034e-07
2.3696e-06
8.77671e-07
2.35349e-06
1.10093e-06
2.28885e-06
1.31371e-06
2.15331e-06
1.4825e-06
1.92358e-06
1.57437e-06
1.58444e-06
1.56826e-06
1.13794e-06
1.45972e-06
5.99413e-07
1.25825e-06
-1.15032e-08
9.83871e-07
-7.02753e-07
6.53712e-07
-1.52728e-06
2.92916e-07
-2.63354e-06
-3.47658e-08
-4.26776e-06
-2.26757e-07
-6.50597e-06
-9.49398e-06
7.70242e-08
1.56338e-06
1.64751e-07
2.05397e-06
2.73335e-07
2.16074e-06
4.09302e-07
2.18845e-06
5.75079e-07
2.19055e-06
7.6918e-07
2.1755e-06
9.85307e-07
2.13736e-06
1.21054e-06
2.06362e-06
1.42512e-06
1.93873e-06
1.60214e-06
1.74656e-06
1.71185e-06
1.47472e-06
1.73047e-06
1.11932e-06
1.64577e-06
6.84107e-07
1.46239e-06
1.71882e-07
1.19039e-06
-4.30751e-07
8.47488e-07
-1.18439e-06
4.55264e-07
-2.24132e-06
8.24289e-08
-3.89492e-06
-1.57925e-07
-6.26562e-06
-9.65191e-06
5.99994e-08
1.50338e-06
1.56071e-07
1.9579e-06
2.83066e-07
2.03375e-06
4.39384e-07
2.03214e-06
6.23374e-07
2.00656e-06
8.31019e-07
1.96785e-06
1.05495e-06
1.91343e-06
1.28339e-06
1.83518e-06
1.49968e-06
1.72244e-06
1.68228e-06
1.56396e-06
1.80654e-06
1.35046e-06
1.85002e-06
1.07584e-06
1.79698e-06
7.37153e-07
1.64258e-06
3.26275e-07
1.38981e-06
-1.7798e-07
1.05004e-06
-8.44613e-07
6.42185e-07
-1.83346e-06
2.42929e-07
-3.49567e-06
-1.43363e-08
-6.00835e-06
-9.66624e-06
9.75699e-09
1.49362e-06
1.06578e-07
1.86108e-06
2.51168e-07
1.88916e-06
4.30796e-07
1.85251e-06
6.37704e-07
1.79965e-06
8.64795e-07
1.74076e-06
1.1035e-06
1.67473e-06
1.34268e-06
1.596e-06
1.56812e-06
1.49701e-06
1.76277e-06
1.36931e-06
1.90663e-06
1.2066e-06
1.98023e-06
1.00224e-06
1.96627e-06
7.51116e-07
1.85342e-06
4.39122e-07
1.63588e-06
3.95663e-08
1.31853e-06
-5.27262e-07
9.07045e-07
-1.42198e-06
4.67127e-07
-3.05575e-06
1.24571e-07
-5.6658e-06
-9.54167e-06
-9.82017e-08
1.59182e-06
-3.88973e-09
1.76677e-06
1.71059e-07
1.71421e-06
3.91265e-07
1.6323e-06
6.37575e-07
1.55334e-06
9.00312e-07
1.47802e-06
1.17064e-06
1.4044e-06
1.43882e-06
1.32782e-06
1.69304e-06
1.24279e-06
1.91923e-06
1.14312e-06
2.09986e-06
1.02598e-06
2.21845e-06
8.83638e-07
2.25733e-06
7.12238e-07
2.20535e-06
4.91098e-07
2.04268e-06
2.02239e-07
1.77018e-06
-2.5476e-07
1.3592e-06
-1.011e-06
8.44266e-07
-2.54082e-06
3.30331e-07
-5.15186e-06
-9.21134e-06
-2.99408e-07
1.89123e-06
-1.36579e-07
1.60394e-06
1.44073e-07
1.43356e-06
4.55658e-07
1.32072e-06
7.8164e-07
1.22736e-06
1.11626e-06
1.14341e-06
1.45252e-06
1.06814e-06
1.7818e-06
9.9854e-07
2.09296e-06
9.31629e-07
2.37619e-06
8.59887e-07
2.61826e-06
7.83907e-07
2.80984e-06
6.92064e-07
2.93234e-06
5.89734e-07
2.97298e-06
4.50459e-07
2.90464e-06
2.70581e-07
2.72345e-06
-7.35705e-08
2.31047e-06
-5.98018e-07
1.67027e-06
-1.90062e-06
7.86257e-07
-4.26785e-06
-8.42508e-06
-2.75224e-07
2.16645e-06
1.01073e-07
1.22764e-06
5.72079e-07
9.62549e-07
1.05224e-06
8.40558e-07
1.52822e-06
7.5137e-07
1.99677e-06
6.74859e-07
2.45503e-06
6.09879e-07
2.89699e-06
5.56582e-07
3.31389e-06
5.14726e-07
3.70434e-06
4.69431e-07
4.05132e-06
4.36927e-07
4.3623e-06
3.81086e-07
4.60344e-06
3.48594e-07
4.79364e-06
2.60263e-07
4.85717e-06
2.07055e-07
4.76482e-06
1.87755e-08
4.46309e-06
-2.96285e-07
3.73294e-06
-1.17048e-06
2.1555e-06
-2.69041e-06
-6.26958e-06
2.16645e-06
3.39409e-06
4.35664e-06
5.1972e-06
5.94857e-06
6.62343e-06
7.23331e-06
7.78989e-06
8.30462e-06
8.77405e-06
9.21098e-06
9.59206e-06
9.94066e-06
1.02009e-05
1.0408e-05
1.04268e-05
1.01305e-05
8.95999e-06
6.26958e-06
)
;

boundaryField
{
    movingWall
    {
        type            calculated;
        value           uniform 0;
    }
    fixedWalls
    {
        type            calculated;
        value           uniform 0;
    }
    frontAndBack
    {
        type            empty;
    }
}


// ************************************************************************* //
