/*--------------------------------*- C++ -*----------------------------------*\
  =========                 |
  \\      /  F ield         | OpenFOAM: The Open Source CFD Toolbox
   \\    /   O peration     | Website:  https://openfoam.org
    \\  /    A nd           | Version:  13
     \\/     M anipulation  |
\*---------------------------------------------------------------------------*/
FoamFile
{
    format      ascii;
    class       volVectorField;
    location    "2.5";
    object      U;
}
// * * * * * * * * * * * * * * * * * * * * * * * * * * * * * * * * * * * * * //

dimensions      [0 1 -1 0 0 0 0];

internalField   nonuniform List<vector> 
400
(
(0.000266026 -0.000428393 0)
(-0.000746383 0.000105376 0)
(-0.00326333 0.000313539 0)
(-0.00630711 0.000259134 0)
(-0.00980651 0.00029332 0)
(-0.0145528 0.000963088 0)
(-0.022031 0.00295011 0)
(-0.0341668 0.00635429 0)
(-0.0517485 0.00933479 0)
(-0.0709353 0.00928883 0)
(-0.0860259 0.00674787 0)
(-0.0953434 0.00413117 0)
(-0.0994658 0.00160477 0)
(-0.0994521 -0.00220632 0)
(-0.0928521 -0.00530243 0)
(-0.0816082 -0.00805391 0)
(-0.0649978 -0.010505 0)
(-0.0444536 -0.0111583 0)
(-0.0215793 -0.00878929 0)
(-0.00364472 -0.00269506 0)
(-0.000827234 0.000952627 0)
(-0.00475977 0.00393743 0)
(-0.0107143 0.0057376 0)
(-0.0179333 0.00672775 0)
(-0.0264711 0.00840696 0)
(-0.0369992 0.012093 0)
(-0.0499712 0.017959 0)
(-0.0644531 0.0234563 0)
(-0.0787676 0.0249983 0)
(-0.0912057 0.021991 0)
(-0.100312 0.0167166 0)
(-0.106347 0.0101427 0)
(-0.109109 0.00309384 0)
(-0.107699 -0.00440016 0)
(-0.10204 -0.0123434 0)
(-0.092197 -0.0207546 0)
(-0.0777583 -0.0290949 0)
(-0.0590939 -0.0349628 0)
(-0.0360041 -0.034091 0)
(-0.0107016 -0.0185444 0)
(-0.00216792 0.0051413 0)
(-0.00803969 0.0103182 0)
(-0.0151498 0.0134114 0)
(-0.0237427 0.0158934 0)
(-0.0338286 0.019228 0)
(-0.0455336 0.024419 0)
(-0.0583373 0.0308837 0)
(-0.0708179 0.0355768 0)
(-0.081646 0.0353882 0)
(-0.0901986 0.0303136 0)
(-0.0966077 0.0222729 0)
(-0.100616 0.0133183 0)
(-0.101735 0.00324122 0)
(-0.0999643 -0.00783852 0)
(-0.0951957 -0.0192552 0)
(-0.0869798 -0.0313188 0)
(-0.0750933 -0.0437268 0)
(-0.0594805 -0.0551656 0)
(-0.0392748 -0.0608313 0)
(-0.0162562 -0.0484454 0)
(-0.00298354 0.0108199 0)
(-0.00961135 0.0173275 0)
(-0.0168116 0.021361 0)
(-0.0252555 0.0251143 0)
(-0.0348314 0.0297285 0)
(-0.0454057 0.0356681 0)
(-0.0562789 0.0417968 0)
(-0.066207 0.0451742 0)
(-0.0743368 0.0433581 0)
(-0.0805859 0.0366518 0)
(-0.0850157 0.0269612 0)
(-0.0874087 0.0155467 0)
(-0.0876092 0.00288282 0)
(-0.0858121 -0.0106681 0)
(-0.0817743 -0.0248753 0)
(-0.0752963 -0.0399449 0)
(-0.065973 -0.0557333 0)
(-0.0532868 -0.0713028 0)
(-0.0358923 -0.0827852 0)
(-0.0156754 -0.0770698 0)
(-0.0031435 0.0169551 0)
(-0.00966594 0.0244143 0)
(-0.0162741 0.0290157 0)
(-0.0237186 0.0336153 0)
(-0.0317667 0.039008 0)
(-0.0402338 0.0451809 0)
(-0.048624 0.0506663 0)
(-0.0560517 0.0527215 0)
(-0.0619456 0.0494393 0)
(-0.0663544 0.0412935 0)
(-0.0693581 0.0299423 0)
(-0.0707966 0.0166739 0)
(-0.0706294 0.0021852 0)
(-0.0689691 -0.0131239 0)
(-0.0657823 -0.0291779 0)
(-0.0610262 -0.0462833 0)
(-0.0542602 -0.0646664 0)
(-0.0446616 -0.0838754 0)
(-0.0306258 -0.100581 0)
(-0.0142914 -0.101011 0)
(-0.00282667 0.022799 0)
(-0.00863612 0.0308788 0)
(-0.0142243 0.0356776 0)
(-0.0202248 0.0406425 0)
(-0.0263319 0.0463035 0)
(-0.0323855 0.052332 0)
(-0.0381631 0.0571145 0)
(-0.0432584 0.0581486 0)
(-0.0472471 0.0538105 0)
(-0.0502517 0.044587 0)
(-0.052256 0.0319651 0)
(-0.0531602 0.0173119 0)
(-0.0529572 0.00148455 0)
(-0.0517341 -0.0150568 0)
(-0.0495521 -0.0323057 0)
(-0.0464385 -0.0507172 0)
(-0.0420386 -0.0709687 0)
(-0.0353748 -0.0932303 0)
(-0.0246078 -0.114717 0)
(-0.012589 -0.12095 0)
(-0.00223785 0.0277857 0)
(-0.00697621 0.0362871 0)
(-0.0113376 0.0409916 0)
(-0.0157478 0.0458737 0)
(-0.0198607 0.0513463 0)
(-0.023625 0.0570101 0)
(-0.0268734 0.0611416 0)
(-0.0294682 0.0615303 0)
(-0.0318622 0.0567063 0)
(-0.033667 0.0468428 0)
(-0.0349969 0.0334155 0)
(-0.0357082 0.0178452 0)
(-0.0357705 0.00112906 0)
(-0.0352553 -0.01619 0)
(-0.034266 -0.0341267 0)
(-0.032829 -0.0532955 0)
(-0.0306837 -0.0747285 0)
(-0.026865 -0.0991487 0)
(-0.0200066 -0.125249 0)
(-0.00941351 -0.137349 0)
(-0.00153238 0.031595 0)
(-0.0050369 0.0404215 0)
(-0.00811968 0.0448367 0)
(-0.0109955 0.0493257 0)
(-0.0133017 0.0542993 0)
(-0.0149515 0.059382 0)
(-0.0159072 0.0627635 0)
(-0.0163296 0.0628873 0)
(-0.016998 0.0581417 0)
(-0.0176707 0.0482359 0)
(-0.0184547 0.034543 0)
(-0.0191506 0.0185394 0)
(-0.0196718 0.00136857 0)
(-0.0200505 -0.0163127 0)
(-0.0203736 -0.0345169 0)
(-0.0206369 -0.0540356 0)
(-0.020561 -0.0762396 0)
(-0.0191365 -0.102535 0)
(-0.0157156 -0.132155 0)
(-0.00786166 -0.150599 0)
(-0.000818265 0.0341071 0)
(-0.00307046 0.0432294 0)
(-0.00494013 0.0472898 0)
(-0.00644282 0.0511982 0)
(-0.00722674 0.0554163 0)
(-0.00710372 0.0595894 0)
(-0.00620842 0.0623985 0)
(-0.00485439 0.0623885 0)
(-0.00369147 0.0580798 0)
(-0.00313868 0.0487242 0)
(-0.00333081 0.0353738 0)
(-0.00403005 0.0194884 0)
(-0.00507417 0.00233188 0)
(-0.00642954 -0.0153009 0)
(-0.00811597 -0.0334041 0)
(-0.0100607 -0.0529363 0)
(-0.011948 -0.0756102 0)
(-0.0127069 -0.103443 0)
(-0.0122227 -0.136253 0)
(-0.00597236 -0.161208 0)
(-0.000192291 0.0354569 0)
(-0.00125924 0.0447929 0)
(-0.0020521 0.0484824 0)
(-0.00239296 0.0517172 0)
(-0.00196363 0.0550724 0)
(-0.000578122 0.058258 0)
(0.00169735 0.0603833 0)
(0.00450853 0.060182 0)
(0.00716978 0.0564312 0)
(0.00900366 0.0481625 0)
(0.00961456 0.0358007 0)
(0.00908111 0.0206564 0)
(0.00760734 0.00403515 0)
(0.00532778 -0.0131419 0)
(0.00235313 -0.0308178 0)
(-0.001138 -0.050087 0)
(-0.00486359 -0.0730429 0)
(-0.00748096 -0.10227 0)
(-0.00972723 -0.137868 0)
(-0.0048812 -0.169772 0)
(0.000424386 0.0355227 0)
(0.000246402 0.0452621 0)
(0.000381119 0.0486011 0)
(0.000982 0.0511679 0)
(0.00234395 0.0536503 0)
(0.00461079 0.0558716 0)
(0.00775869 0.0572087 0)
(0.0114886 0.0567247 0)
(0.0152068 0.0534104 0)
(0.018138 0.0463643 0)
(0.0196588 0.0355491 0)
(0.0195458 0.0218051 0)
(0.0179027 0.00630118 0)
(0.0149353 -0.00999324 0)
(0.0109295 -0.0269482 0)
(0.00616485 -0.0457305 0)
(0.000816794 -0.0687756 0)
(-0.00316322 -0.0992418 0)
(-0.0078027 -0.137494 0)
(-0.0035997 -0.176762 0)
(0.000666825 0.0349447 0)
(0.00137233 0.0448332 0)
(0.00226831 0.0478453 0)
(0.00362217 0.0497893 0)
(0.00567856 0.0514638 0)
(0.0085449 0.0528015 0)
(0.0121948 0.053379 0)
(0.016394 0.0525319 0)
(0.0206679 0.0495215 0)
(0.0243049 0.043592 0)
(0.0265773 0.0344859 0)
(0.0270333 0.0226104 0)
(0.0255513 0.00877611 0)
(0.0222879 -0.00618555 0)
(0.0176377 -0.022115 0)
(0.0119671 -0.0401994 0)
(0.00533284 -0.0631266 0)
(0.000507889 -0.0946685 0)
(-0.00678284 -0.135487 0)
(-0.0024808 -0.182582 0)
(0.00085798 0.033685 0)
(0.00211808 0.04369 0)
(0.00358622 0.0463989 0)
(0.00552492 0.0477689 0)
(0.00810775 0.0487231 0)
(0.0113906 0.0493027 0)
(0.0153258 0.0492346 0)
(0.0197129 0.0480586 0)
(0.0241715 0.0452508 0)
(0.0281265 0.0402632 0)
(0.0308764 0.032771 0)
(0.0318585 0.0229008 0)
(0.0307754 0.0110904 0)
(0.0276344 -0.00215528 0)
(0.0227865 -0.0167383 0)
(0.0166422 -0.0338492 0)
(0.00907951 -0.0563554 0)
(0.00399013 -0.0887458 0)
(-0.00617237 -0.132217 0)
(-0.000668752 -0.187541 0)
(0.0008558 0.0321454 0)
(0.00240316 0.0420659 0)
(0.00429166 0.0444231 0)
(0.00669454 0.0452503 0)
(0.00970199 0.0455751 0)
(0.0133092 0.0455309 0)
(0.0174403 0.0449567 0)
(0.0219081 0.0435462 0)
(0.0263901 0.04093 0)
(0.0304269 0.0367297 0)
(0.0334319 0.0306682 0)
(0.0348418 0.0227042 0)
(0.0342586 0.013001 0)
(0.0315667 0.00172951 0)
(0.0269419 -0.011236 0)
(0.0207333 -0.02709 0)
(0.0125675 -0.048802 0)
(0.00761412 -0.081772 0)
(-0.00586123 -0.128043 0)
(0.00202764 -0.191909 0)
(0.000538593 0.0306642 0)
(0.00208166 0.0401831 0)
(0.00429137 0.0420433 0)
(0.0070947 0.0423108 0)
(0.0104976 0.0420651 0)
(0.0144329 0.0415039 0)
(0.0187808 0.0405474 0)
(0.0233542 0.0389997 0)
(0.0278731 0.036608 0)
(0.0319603 0.0331092 0)
(0.0351458 0.0282924 0)
(0.0369391 0.0220473 0)
(0.0369296 0.0143593 0)
(0.0348854 0.00515034 0)
(0.0307855 -0.00594521 0)
(0.024855 -0.0202278 0)
(0.0163302 -0.0408665 0)
(0.0119705 -0.0742869 0)
(-0.00528624 -0.123314 0)
(0.00626492 -0.195867 0)
(-0.000454336 0.0298985 0)
(0.000965661 0.0382376 0)
(0.00343896 0.0393116 0)
(0.00668005 0.0389501 0)
(0.0105616 0.038165 0)
(0.0149313 0.0371745 0)
(0.0196252 0.0359505 0)
(0.0244492 0.0343635 0)
(0.0291541 0.032243 0)
(0.0334323 0.0294003 0)
(0.0369104 0.0256742 0)
(0.0391838 0.0209297 0)
(0.0398652 0.0150673 0)
(0.0386728 0.00784135 0)
(0.035338 -0.00123768 0)
(0.0300876 -0.0137358 0)
(0.0215112 -0.0328536 0)
(0.0181343 -0.0662451 0)
(-0.00407958 -0.118826 0)
(0.0122608 -0.198778 0)
(-0.00187033 0.0306445 0)
(-0.0015433 0.0365086 0)
(0.00144749 0.0363985 0)
(0.00547133 0.0352311 0)
(0.0101732 0.0339013 0)
(0.0153008 0.0325432 0)
(0.0206668 0.0311303 0)
(0.0260858 0.029562 0)
(0.0313499 0.0276995 0)
(0.0362226 0.0254022 0)
(0.0403644 0.0225992 0)
(0.0434453 0.0191603 0)
(0.0450813 0.0149685 0)
(0.0450417 0.00964475 0)
(0.0427839 0.00265923 0)
(0.0388195 -0.00775168 0)
(0.0303517 -0.0245645 0)
(0.0281672 -0.0570162 0)
(-0.00140349 -0.111711 0)
(0.021004 -0.196682 0)
(-0.00523763 0.0344577 0)
(-0.00552062 0.0349212 0)
(5.9203e-06 0.0328217 0)
(0.00587159 0.0307936 0)
(0.012283 0.0289811 0)
(0.0189253 0.0273235 0)
(0.0256589 0.0257739 0)
(0.0323502 0.0242544 0)
(0.0387849 0.0226908 0)
(0.0447729 0.0209617 0)
(0.0500477 0.0190398 0)
(0.0544559 0.0167356 0)
(0.0575907 0.0140833 0)
(0.0593898 0.010623 0)
(0.0588894 0.00611737 0)
(0.0570959 -0.00156168 0)
(0.0492436 -0.0150802 0)
(0.0471236 -0.0450141 0)
(0.0082853 -0.0981548 0)
(0.0364237 -0.178391 0)
(-0.00629464 0.038362 0)
(-0.00296902 0.0231103 0)
(0.0066657 0.0191237 0)
(0.0161699 0.0173576 0)
(0.0257753 0.015844 0)
(0.0352585 0.0144149 0)
(0.0445244 0.0132013 0)
(0.0535697 0.0121758 0)
(0.0621351 0.0112844 0)
(0.0702772 0.0103667 0)
(0.077581 0.0094306 0)
(0.0842868 0.00827838 0)
(0.089654 0.00698495 0)
(0.0941672 0.00513375 0)
(0.0963327 0.00275459 0)
(0.0966339 -0.00244655 0)
(0.0905828 -0.0107904 0)
(0.0876057 -0.0333397 0)
(0.0444029 -0.0738773 0)
(0.0694996 -0.135626 0)
(0.0463566 0.0481293 0)
(0.0520285 0.0338247 0)
(0.075258 0.0263664 0)
(0.0962166 0.0223292 0)
(0.112245 0.019675 0)
(0.126229 0.0176054 0)
(0.138585 0.0158209 0)
(0.150434 0.0143485 0)
(0.160781 0.0132491 0)
(0.170971 0.0120386 0)
(0.179531 0.011443 0)
(0.188047 0.0100446 0)
(0.194821 0.00988368 0)
(0.201052 0.00780991 0)
(0.205551 0.00791536 0)
(0.207872 0.00397078 0)
(0.204828 0.00178077 0)
(0.195389 -0.00620487 0)
(0.15144 -0.0168357 0)
(0.142736 -0.0890815 0)
)
;

boundaryField
{
    movingWall
    {
        type            fixedValue;
        value           uniform (1 0 0);
    }
    fixedWalls
    {
        type            noSlip;
    }
    frontAndBack
    {
        type            empty;
    }
}


// ************************************************************************* //
