/*--------------------------------*- C++ -*----------------------------------*\
  =========                 |
  \\      /  F ield         | OpenFOAM: The Open Source CFD Toolbox
   \\    /   O peration     | Website:  https://openfoam.org
    \\  /    A nd           | Version:  13
     \\/     M anipulation  |
\*---------------------------------------------------------------------------*/
FoamFile
{
    format      ascii;
    class       volScalarField;
    location    "1000";
    object      k;
}
// * * * * * * * * * * * * * * * * * * * * * * * * * * * * * * * * * * * * * //

dimensions      [0 2 -2 0 0 0 0];

internalField   nonuniform List<scalar> 
12225
(
0.623103
1.47012
2.8614
2.29575
2.0118
1.87278
1.92873
1.60189
1.6794
1.43178
1.9021
1.66322
1.5082
1.43297
1.36757
1.60014
1.43164
1.40641
0.074491
0.0451801
0.107818
0.145484
0.166317
0.181923
0.260385
0.252043
0.372663
0.449146
0.494153
0.58054
0.656716
0.719248
0.757265
0.786423
0.814829
0.832193
0.219927
0.0944271
0.0575171
0.0568204
0.0496705
0.0724285
0.0923888
0.116336
0.133262
0.185761
0.232257
0.284343
0.302048
0.308619
0.330543
0.34915
0.357098
0.361896
0.346246
0.207981
0.159209
0.149966
0.162066
0.206822
0.249912
0.282308
0.299747
0.316922
0.305925
0.316795
0.319121
0.322836
0.322685
0.320698
0.313818
0.307763
0.400129
0.274381
0.240315
0.236761
0.259748
0.288714
0.31127
0.330376
0.327059
0.335759
0.336998
0.339218
0.339608
0.337968
0.335734
0.331944
0.32605
0.319429
0.384247
0.33965
0.321385
0.314556
0.320647
0.331581
0.339032
0.34739
0.343043
0.346585
0.348097
0.347768
0.347208
0.345189
0.343302
0.340042
0.335924
0.33063
0.375579
0.360694
0.349154
0.347876
0.347583
0.351091
0.348536
0.352217
0.352201
0.352869
0.352744
0.35156
0.35064
0.348791
0.34723
0.344631
0.341708
0.337725
0.375099
0.368517
0.363334
0.360733
0.359032
0.358701
0.357321
0.357101
0.356511
0.355603
0.354723
0.353322
0.352261
0.350627
0.349277
0.347209
0.345059
0.342096
0.374341
0.370754
0.367655
0.365208
0.363352
0.361873
0.360434
0.359098
0.357967
0.35664
0.355506
0.354096
0.352956
0.351499
0.350274
0.348598
0.346938
0.344737
0.373995
0.371378
0.368964
0.366761
0.364852
0.363084
0.361502
0.359926
0.35853
0.35706
0.355777
0.354378
0.353192
0.351848
0.350683
0.349265
0.34791
0.34623
0.373886
0.371513
0.369314
0.367228
0.365318
0.36349
0.361817
0.360177
0.358678
0.357177
0.35582
0.354439
0.353213
0.35193
0.350786
0.349526
0.348337
0.346989
0.373845
0.371547
0.369395
0.367341
0.365425
0.363589
0.361879
0.360223
0.358684
0.35718
0.35579
0.35442
0.353166
0.351912
0.350762
0.349578
0.348462
0.347284
0.373834
0.371554
0.369408
0.367364
0.365442
0.363604
0.361876
0.360218
0.358659
0.357155
0.355748
0.354382
0.35311
0.351867
0.350709
0.349562
0.348478
0.347392
0.373829
0.371554
0.369406
0.367362
0.365433
0.363594
0.361856
0.360196
0.358626
0.357124
0.355703
0.354341
0.353054
0.351817
0.350646
0.349518
0.348441
0.347402
0.373827
0.371553
0.369399
0.367357
0.36542
0.363581
0.361834
0.360174
0.358595
0.357094
0.355664
0.354304
0.353006
0.35177
0.350591
0.349465
0.34839
0.347362
0.373826
0.371551
0.369396
0.36735
0.365411
0.363567
0.361819
0.360154
0.358574
0.357066
0.355636
0.354269
0.35297
0.351728
0.350548
0.349417
0.348342
0.347313
0.373826
0.37155
0.369392
0.367346
0.365403
0.363559
0.361807
0.360141
0.358556
0.357049
0.355612
0.354245
0.352941
0.351699
0.350513
0.349383
0.348303
0.347274
0.373825
0.371549
0.369391
0.367344
0.3654
0.363555
0.3618
0.360133
0.358546
0.357037
0.355598
0.35423
0.352923
0.35168
0.350492
0.34936
0.348278
0.347248
0.373825
0.37155
0.369391
0.367344
0.3654
0.363554
0.361799
0.360132
0.358544
0.357034
0.355595
0.354225
0.352918
0.351673
0.350484
0.349352
0.348269
0.347238
0.373825
0.371552
0.369392
0.367349
0.365403
0.363562
0.361804
0.36014
0.358548
0.357039
0.355593
0.354223
0.352909
0.351663
0.350467
0.349333
0.348243
0.34721
0.373828
0.371551
0.369395
0.367351
0.365413
0.363564
0.361801
0.360113
0.3585
0.356956
0.355482
0.354073
0.352726
0.351442
0.350212
0.349047
0.347923
0.346864
0.373844
0.371538
0.36937
0.367326
0.365366
0.363463
0.361583
0.359745
0.357947
0.356214
0.35454
0.352951
0.351419
0.349988
0.348601
0.347328
0.346064
0.344928
0.373888
0.371388
0.369038
0.366848
0.364702
0.362452
0.360035
0.357514
0.354977
0.352515
0.350176
0.348003
0.345947
0.344116
0.342337
0.340832
0.339255
0.337995
0.373422
0.370825
0.366583
0.363221
0.360623
0.357466
0.353848
0.349275
0.34473
0.340063
0.336069
0.332235
0.329035
0.326222
0.323669
0.321671
0.31959
0.318278
0.372834
0.367317
0.35127
0.34233
0.339036
0.337526
0.333898
0.324442
0.316374
0.305999
0.298887
0.289185
0.283771
0.276132
0.272465
0.266764
0.263786
0.261338
0.37619
0.338116
0.323185
0.297336
0.270316
0.266311
0.246889
0.252966
0.250601
0.242206
0.231066
0.221239
0.212133
0.204546
0.198928
0.194868
0.191409
0.189934
0.398708
0.310136
0.235098
0.180035
0.162663
0.143725
0.154582
0.136272
0.14984
0.154498
0.150023
0.142041
0.132625
0.123816
0.115488
0.108494
0.102442
0.0972498
0.421253
0.205931
0.108446
0.0754025
0.0553335
0.0521837
0.0498357
0.0553769
0.0643977
0.0615174
0.0610559
0.0656823
0.0668667
0.0675205
0.0707679
0.0744592
0.0764339
0.0789566
0.300177
0.195475
0.134269
0.114883
0.122509
0.13395
0.152179
0.191883
0.210689
0.223595
0.25251
0.298192
0.344601
0.372764
0.405596
0.429373
0.454193
0.474209
0.888832
1.2222
1.43941
1.55355
1.59057
1.58727
1.56323
1.52225
1.47607
1.42911
1.38417
1.34262
1.30606
1.27425
1.24604
1.22186
1.2
1.18179
1.58717e-08
3.91945e-07
2.02017e-06
8.05018e-06
2.72375e-05
8.40756e-05
0.000221898
0.000446954
0.000731787
0.0010318
0.00130442
0.00151409
0.00165794
0.00171133
0.00169186
0.00162507
0.00149485
0.0012848
0.00108898
0.000924673
0.000770722
0.000621709
0.000478875
0.000346184
0.000228011
0.00013556
7.33299e-05
3.75015e-05
1.92565e-05
1.04632e-05
6.26545e-06
4.52362e-06
4.87728e-06
9.18058e-06
2.59952e-05
7.19657e-05
0.000276952
0.000554895
0.000942155
0.00117087
0.00112076
0.000946098
0.000744762
0.000635906
0.000655525
0.000810635
0.00103331
0.00176081
0.00322163
0.00805622
0.024623
0.0565402
0.088234
0.100485
0.087608
0.0991884
0.130643
0.142505
0.159013
0.139837
0.154571
0.170114
0.139954
0.161075
0.167774
0.178276
0.1861
0.194384
0.202696
0.210422
0.218444
0.226026
0.233754
0.24123
0.248752
0.256123
0.263498
0.270765
0.278017
0.285178
0.292314
0.299367
0.306381
0.313316
0.320196
0.327002
0.333732
0.34039
0.346953
0.353434
0.359819
0.366089
0.372244
0.378256
0.384132
0.389838
0.395382
0.400733
0.405902
0.410872
0.415669
0.420319
0.42488
0.429269
0.433471
0.437502
0.441335
0.445002
0.448462
0.451749
0.454824
0.457718
0.460397
0.462885
0.46516
0.467236
0.469107
0.470773
0.472233
0.473479
0.474524
0.475369
0.476042
0.476524
0.476861
0.477026
0.47712
0.477203
0.476413
0.476306
0.475052
0.474694
0.472977
0.472273
0.470394
0.469144
0.467635
0.465844
0.463994
0.461947
0.459806
0.457532
0.455172
0.452716
0.450188
0.447582
0.444916
0.442187
0.43941
0.436582
0.433715
0.430807
0.427867
0.424894
0.421897
0.418882
0.415859
0.412841
0.409844
0.40688
0.403936
0.401026
0.398143
0.395296
0.392475
0.38969
0.386929
0.384209
0.381516
0.37887
0.376252
0.373671
0.3711
0.368531
0.365897
0.36312
0.360086
0.356443
0.351578
0.336703
7.47256e-08
2.10528e-06
1.43636e-05
6.27329e-05
0.00023192
0.000710512
0.00164044
0.00300638
0.00460643
0.00625192
0.00776224
0.00899879
0.00992114
0.0104915
0.0107833
0.0107491
0.0105899
0.0102253
0.00965636
0.00886315
0.00785987
0.00669395
0.00541719
0.00412483
0.00287684
0.00191655
0.00122303
0.000760524
0.000463592
0.000283483
0.00018085
0.000127371
0.000109852
0.000140397
0.000337092
0.000755493
0.00279254
0.00547024
0.00880793
0.0111437
0.0116921
0.0112976
0.0103912
0.0105442
0.0124735
0.0169707
0.0232259
0.0345491
0.0539767
0.0789478
0.103822
0.127829
0.146858
0.162256
0.174135
0.187529
0.202521
0.218261
0.235369
0.252059
0.271528
0.288289
0.306533
0.326472
0.345562
0.364115
0.382695
0.400786
0.418865
0.436598
0.45428
0.471758
0.489174
0.506473
0.523723
0.540903
0.558051
0.575149
0.592222
0.609252
0.626257
0.643217
0.660144
0.677018
0.693845
0.710608
0.727306
0.743932
0.760471
0.776942
0.793306
0.809565
0.825684
0.841644
0.857427
0.873001
0.888346
0.903422
0.918205
0.932644
0.946713
0.960353
0.973532
0.986384
0.998919
1.01112
1.02299
1.03451
1.04568
1.05646
1.06687
1.07687
1.08646
1.09563
1.10436
1.11265
1.12049
1.12788
1.13479
1.14123
1.14718
1.15267
1.1577
1.16228
1.16639
1.17005
1.17325
1.17601
1.17828
1.1802
1.18161
1.18255
1.18288
1.18272
1.18255
1.18217
1.18137
1.18049
1.17922
1.17756
1.17553
1.17315
1.17046
1.16747
1.1642
1.16067
1.15689
1.15288
1.14864
1.14419
1.13955
1.13471
1.12969
1.1245
1.11916
1.11366
1.10803
1.1023
1.09651
1.09065
1.08473
1.07877
1.07277
1.06674
1.06066
1.05455
1.04839
1.04221
1.03598
1.02974
1.02347
1.01716
1.0108
1.00435
0.997716
0.990784
0.98335
0.97501
0.963806
0.938608
2.08426e-07
6.27764e-06
4.80217e-05
0.000229628
0.000674804
0.00192026
0.00392844
0.00627921
0.00864857
0.0108
0.012605
0.0139971
0.0149785
0.0155701
0.0158405
0.0158108
0.0156496
0.0152959
0.0147766
0.0141219
0.0133343
0.0123998
0.0113041
0.0100515
0.0086452
0.0070531
0.00540741
0.00393268
0.0026521
0.00176376
0.00120448
0.000885859
0.000690202
0.000551535
0.0017954
0.00394428
0.0107046
0.0188827
0.0255256
0.0298841
0.0319929
0.0327509
0.0358982
0.0452019
0.0617381
0.0791152
0.0973442
0.11787
0.138374
0.157968
0.178645
0.198799
0.219162
0.239838
0.263913
0.291546
0.319929
0.348299
0.376108
0.403968
0.431865
0.45913
0.486163
0.51263
0.538505
0.563762
0.588617
0.613022
0.637114
0.660898
0.684461
0.70782
0.731028
0.754098
0.777063
0.79993
0.822715
0.845421
0.868053
0.890607
0.913086
0.935481
0.95779
0.980002
1.00211
1.02411
1.04598
1.06772
1.08931
1.11076
1.13205
1.15317
1.1741
1.19482
1.2153
1.23555
1.25554
1.27525
1.29467
1.31378
1.33257
1.35103
1.36913
1.38684
1.40414
1.42099
1.4374
1.45334
1.4688
1.48375
1.49818
1.51207
1.5254
1.53817
1.55035
1.56193
1.57291
1.58327
1.59299
1.60208
1.61053
1.61835
1.62554
1.63212
1.63807
1.6434
1.6481
1.65218
1.65562
1.65846
1.66066
1.66225
1.66312
1.66357
1.66369
1.66349
1.66252
1.66108
1.65912
1.65666
1.6537
1.65027
1.64641
1.64213
1.63746
1.63241
1.62702
1.62129
1.61524
1.60889
1.60226
1.59535
1.58818
1.58077
1.57312
1.56525
1.55717
1.54893
1.54053
1.532
1.52335
1.5146
1.50576
1.49684
1.48783
1.47875
1.46957
1.46032
1.451
1.44163
1.4322
1.42273
1.41319
1.40358
1.39382
1.38384
1.37343
1.36231
1.34847
1.32475
7.58075e-07
2.28329e-05
0.000179105
0.00075456
0.00214802
0.00512498
0.00867449
0.0121453
0.0151691
0.0175688
0.0193115
0.0204326
0.0210347
0.0211761
0.0210623
0.0207413
0.0202099
0.019561
0.0188294
0.0180281
0.017163
0.0162251
0.015204
0.0140734
0.0128151
0.0114051
0.00985898
0.00824069
0.00671341
0.00520205
0.00407707
0.00301795
0.00275405
0.00359509
0.00809631
0.0195384
0.0336494
0.0451863
0.0537936
0.0606601
0.0683081
0.0790292
0.0930194
0.108529
0.123734
0.139571
0.157072
0.177181
0.198251
0.221698
0.246995
0.274055
0.302889
0.333282
0.365314
0.398205
0.431325
0.464423
0.497199
0.529691
0.561753
0.593305
0.624332
0.654763
0.684694
0.714123
0.743158
0.771835
0.800224
0.828365
0.856308
0.884085
0.911728
0.939256
0.966688
0.994031
1.02129
1.04848
1.07558
1.10259
1.12951
1.15634
1.18306
1.20966
1.23613
1.26246
1.28863
1.31464
1.34047
1.36612
1.39158
1.41684
1.44187
1.46667
1.49121
1.51549
1.53948
1.56318
1.58655
1.60959
1.63227
1.65455
1.67641
1.6978
1.7187
1.73908
1.75891
1.77819
1.79688
1.81495
1.8324
1.8492
1.86533
1.88077
1.8955
1.90952
1.9228
1.93533
1.94711
1.95812
1.96837
1.97785
1.98657
1.99455
2.00177
2.00823
2.01394
2.01889
2.02309
2.02654
2.02923
2.03118
2.03233
2.03287
2.03301
2.03262
2.03137
2.02949
2.02698
2.02387
2.02017
2.0159
2.0111
2.00579
1.99999
1.99372
1.98702
1.97989
1.97236
1.96445
1.95616
1.94753
1.93857
1.92929
1.9197
1.90983
1.89969
1.88931
1.87871
1.86791
1.85695
1.84583
1.83457
1.82318
1.81167
1.80003
1.78827
1.77641
1.76444
1.75239
1.74028
1.72812
1.7159
1.70364
1.69129
1.67881
1.66607
1.65287
1.63752
1.61523
2.56255e-06
7.69182e-05
0.0005777
0.00219305
0.00607012
0.0113661
0.0163261
0.0203099
0.0231631
0.0249714
0.0259324
0.0262434
0.0261284
0.0257389
0.0250768
0.024283
0.0234149
0.0225093
0.0215924
0.0206719
0.0197463
0.0188049
0.0178338
0.0168057
0.0156975
0.0144736
0.0131212
0.0116747
0.0102288
0.00884205
0.00723526
0.00698345
0.00901146
0.017339
0.0350528
0.0537147
0.0698708
0.0826357
0.0930438
0.102904
0.113503
0.125045
0.137569
0.151054
0.166882
0.185743
0.207297
0.231645
0.258347
0.287332
0.318033
0.350237
0.383602
0.417835
0.452739
0.487981
0.523343
0.558676
0.593845
0.628793
0.663443
0.69775
0.731683
0.765223
0.798411
0.831267
0.863838
0.896164
0.928286
0.96024
0.99206
1.02377
1.0554
1.08695
1.11843
1.14986
1.18122
1.21252
1.24375
1.27489
1.30594
1.33689
1.36772
1.39842
1.42897
1.45937
1.48959
1.51962
1.54945
1.57906
1.60846
1.63761
1.66653
1.69516
1.72352
1.75157
1.7793
1.80668
1.8337
1.86033
1.88652
1.91226
1.93749
1.9622
1.98633
2.00987
2.03279
2.05507
2.07666
2.09756
2.11773
2.13715
2.15579
2.17364
2.19068
2.20689
2.22225
2.23675
2.25038
2.26312
2.27499
2.28597
2.29608
2.30531
2.31367
2.32115
2.32777
2.3335
2.33837
2.34237
2.34551
2.34779
2.34917
2.34978
2.34989
2.34927
2.34776
2.34548
2.34248
2.33878
2.3344
2.32935
2.32368
2.31741
2.31057
2.30317
2.29524
2.28681
2.2779
2.26852
2.25869
2.24845
2.2378
2.22677
2.21536
2.2036
2.19151
2.17911
2.16644
2.15352
2.14037
2.12702
2.11348
2.09978
2.08591
2.07187
2.05769
2.04336
2.02892
2.01437
1.99975
1.98507
1.97037
1.95564
1.94089
1.92613
1.91126
1.89616
1.87942
1.85748
8.06787e-06
0.000236474
0.00169509
0.00602262
0.0136922
0.0204978
0.0253876
0.0284394
0.0300696
0.0307121
0.0306778
0.030302
0.0295353
0.0285768
0.0275144
0.0264094
0.0253087
0.0242396
0.0232184
0.0222453
0.0213134
0.020406
0.0195015
0.0185666
0.0175806
0.0164913
0.0152578
0.0138521
0.0125264
0.0118967
0.0128215
0.0181546
0.0314795
0.0528857
0.075186
0.094164
0.108667
0.119273
0.127857
0.136255
0.14558
0.156625
0.17072
0.187996
0.208457
0.232245
0.258828
0.287772
0.318515
0.350707
0.384018
0.418236
0.453161
0.488645
0.524584
0.560857
0.597369
0.63403
0.670758
0.707478
0.744126
0.780656
0.817036
0.853247
0.889292
0.925179
0.960931
0.996569
1.03212
1.06761
1.10305
1.13846
1.17386
1.20925
1.24463
1.28
1.31534
1.35064
1.38589
1.42108
1.45618
1.49118
1.52606
1.56081
1.5954
1.62982
1.66404
1.69805
1.73183
1.76538
1.79867
1.8317
1.86444
1.89688
1.929
1.96077
1.99217
2.02317
2.05376
2.08389
2.11352
2.14263
2.17117
2.19911
2.22642
2.25305
2.27899
2.3042
2.32864
2.3523
2.37513
2.39711
2.41822
2.43843
2.45771
2.47607
2.49346
2.50988
2.52531
2.53974
2.55318
2.56561
2.57706
2.58751
2.59697
2.60544
2.61291
2.6194
2.62491
2.62943
2.63298
2.63556
2.63714
2.63779
2.63784
2.63701
2.63521
2.63255
2.62906
2.62476
2.61969
2.61387
2.60733
2.6001
2.59221
2.58368
2.57454
2.56481
2.55452
2.54368
2.53232
2.52047
2.50814
2.49536
2.48215
2.46852
2.45449
2.4401
2.42538
2.41036
2.39506
2.37951
2.36373
2.34774
2.33155
2.31517
2.2986
2.28187
2.265
2.24801
2.23093
2.21381
2.19667
2.17955
2.16248
2.14548
2.1285
2.11148
2.09321
2.07077
2.55709e-05
0.000704162
0.00459195
0.0141727
0.0234799
0.0295144
0.0329017
0.0345518
0.0350803
0.0348989
0.0342346
0.0331588
0.031878
0.0304955
0.0290941
0.027731
0.0264459
0.0252576
0.0241722
0.02318
0.0222656
0.0214005
0.0205474
0.019635
0.0186196
0.0175196
0.0164843
0.0159728
0.0167556
0.0210506
0.0313645
0.0498765
0.0725897
0.0946098
0.113509
0.127493
0.13703
0.144205
0.151137
0.159596
0.171216
0.186269
0.204845
0.226912
0.252078
0.279882
0.309631
0.34084
0.373155
0.406377
0.440367
0.475032
0.510302
0.546128
0.58248
0.619312
0.656572
0.694196
0.732112
0.770258
0.808576
0.847017
0.885539
0.924114
0.962727
1.00137
1.04005
1.07878
1.11756
1.15641
1.19533
1.23433
1.27341
1.31257
1.3518
1.39107
1.43038
1.46969
1.50899
1.54825
1.58744
1.62654
1.66553
1.70437
1.74306
1.78156
1.81985
1.8579
1.89571
1.93324
1.97049
2.00744
2.04407
2.08037
2.11629
2.15182
2.18693
2.2216
2.25579
2.28946
2.32258
2.3551
2.387
2.41821
2.44873
2.47849
2.50749
2.53565
2.56298
2.58941
2.61492
2.63948
2.66306
2.68564
2.70719
2.72768
2.7471
2.76543
2.78266
2.79877
2.81376
2.82763
2.84039
2.85204
2.86257
2.87199
2.8803
2.88751
2.89361
2.89862
2.90255
2.90541
2.90713
2.90783
2.90777
2.9067
2.90458
2.9015
2.89749
2.89258
2.88679
2.88016
2.87272
2.8645
2.85552
2.84583
2.83543
2.82437
2.81266
2.80033
2.7874
2.77391
2.75987
2.74532
2.73026
2.71473
2.69874
2.68234
2.66555
2.64841
2.63094
2.61318
2.59515
2.57688
2.55836
2.53963
2.52068
2.50154
2.48224
2.46281
2.4433
2.42374
2.40418
2.38468
2.36527
2.34601
2.32688
2.30784
2.28783
2.2643
7.63195e-05
0.00193487
0.0108648
0.0240445
0.0322691
0.0366635
0.0387709
0.0394555
0.0392407
0.0383975
0.0370576
0.0354491
0.0337115
0.0319534
0.0302596
0.0286854
0.0272636
0.0260024
0.0248966
0.0239293
0.0230839
0.0223528
0.0217092
0.0212003
0.0209907
0.0213351
0.0228095
0.0264174
0.03394
0.0487092
0.0683749
0.0892101
0.109314
0.126344
0.139027
0.14768
0.15414
0.160987
0.170139
0.182559
0.198607
0.21825
0.241175
0.266938
0.294926
0.324566
0.355372
0.387074
0.419538
0.452703
0.486544
0.521051
0.556225
0.592071
0.628589
0.665759
0.703541
0.741895
0.780768
0.820105
0.859853
0.899959
0.940382
0.981085
1.02204
1.06324
1.10467
1.14632
1.1882
1.2303
1.27262
1.31515
1.35789
1.40081
1.4439
1.48713
1.53046
1.57386
1.61729
1.66072
1.7041
1.7474
1.7906
1.83366
1.87655
1.91925
1.96172
2.00393
2.04586
2.0875
2.12882
2.1698
2.21042
2.25066
2.29048
2.32987
2.36878
2.40719
2.44507
2.48237
2.51906
2.55508
2.59039
2.62497
2.65875
2.69171
2.72381
2.75499
2.78523
2.81447
2.8427
2.86986
2.89593
2.92088
2.94469
2.96732
2.98876
3.00899
3.02798
3.04574
3.06226
3.07754
3.09157
3.10436
3.11592
3.12625
3.13535
3.14322
3.14987
3.15531
3.15955
3.16261
3.16444
3.16514
3.16493
3.16355
3.16106
3.15751
3.15292
3.14734
3.14079
3.13329
3.1249
3.11563
3.10552
3.0946
3.0829
3.07045
3.05727
3.0434
3.02886
3.01368
2.99789
2.98151
2.96457
2.94709
2.92911
2.91066
2.89177
2.87248
2.85283
2.83284
2.81254
2.79195
2.7711
2.74999
2.72864
2.70708
2.68535
2.66348
2.64152
2.61952
2.59755
2.57565
2.55388
2.53232
2.51097
2.48981
2.46786
2.44281
0.000197862
0.00457903
0.0200308
0.0329312
0.0396689
0.0429105
0.044134
0.0440655
0.0431834
0.0416417
0.0397284
0.0376161
0.0354541
0.0333602
0.0314243
0.0297018
0.0282236
0.0269934
0.0259993
0.0252103
0.02459
0.0241801
0.0240156
0.0244161
0.0259973
0.0296963
0.0369625
0.0488035
0.0647623
0.0825396
0.10095
0.118151
0.132794
0.144127
0.152616
0.159768
0.167616
0.177793
0.191199
0.208092
0.228317
0.251488
0.277107
0.304633
0.333549
0.363455
0.394118
0.425447
0.457431
0.490088
0.523453
0.557565
0.592463
0.62817
0.664697
0.70204
0.740185
0.779104
0.818758
0.859101
0.900086
0.941668
0.983804
1.02646
1.06959
1.11319
1.15724
1.20171
1.2466
1.2919
1.33758
1.38365
1.43006
1.47679
1.52381
1.57107
1.61852
1.66612
1.7138
1.76151
1.80922
1.85686
1.90441
1.95182
1.99906
2.0461
2.09288
2.13939
2.18559
2.23144
2.27695
2.32207
2.3668
2.4111
2.45494
2.49827
2.54109
2.58334
2.625
2.66601
2.70634
2.74593
2.78473
2.82271
2.85982
2.89601
2.93123
2.96546
2.99862
3.03069
3.06162
3.09138
3.11992
3.14723
3.17326
3.19799
3.2214
3.24347
3.26418
3.28352
3.3015
3.3181
3.33333
3.34719
3.35969
3.37084
3.38063
3.38908
3.39619
3.40197
3.40644
3.40961
3.41145
3.41208
3.41159
3.40986
3.40692
3.40282
3.39759
3.39126
3.38386
3.37543
3.36601
3.35562
3.34431
3.3321
3.31904
3.30515
3.29045
3.27499
3.25879
3.24187
3.22428
3.20603
3.18717
3.16771
3.14769
3.12715
3.10614
3.08469
3.06283
3.04059
3.018
2.99509
2.97188
2.94838
2.92463
2.90064
2.87647
2.85216
2.82775
2.80331
2.7789
2.75459
2.73044
2.70653
2.68289
2.65952
2.63549
2.60856
0.00044032
0.00927474
0.0293596
0.040934
0.0464521
0.0488375
0.0493722
0.0486949
0.0471552
0.0450471
0.0426099
0.0400432
0.0375203
0.0351754
0.0331091
0.0313823
0.0300377
0.0290796
0.0285115
0.0283691
0.0287101
0.0297428
0.0317905
0.0354912
0.0418185
0.051136
0.0632163
0.0774353
0.0929243
0.108418
0.122851
0.135368
0.145778
0.154521
0.162719
0.171857
0.183223
0.19755
0.215004
0.235378
0.25829
0.28328
0.309892
0.337706
0.366396
0.395762
0.425732
0.456311
0.487549
0.519509
0.552261
0.585866
0.620378
0.655831
0.692253
0.729659
0.768048
0.807404
0.847705
0.888917
0.931002
0.973924
1.01764
1.06213
1.10734
1.15325
1.19984
1.24709
1.29497
1.34346
1.39254
1.44217
1.49232
1.54294
1.59397
1.64537
1.69706
1.74898
1.80104
1.85319
1.90535
1.95748
2.00952
2.06142
2.11315
2.16465
2.21589
2.26681
2.31739
2.3676
2.4174
2.46679
2.51572
2.56418
2.61212
2.65951
2.7063
2.75247
2.79797
2.84275
2.88677
2.92996
2.97228
3.01369
3.05412
3.09354
3.13189
3.16912
3.20518
3.24003
3.27362
3.3059
3.33685
3.36643
3.3946
3.42134
3.44662
3.47042
3.49273
3.51354
3.53284
3.55064
3.56693
3.58173
3.59505
3.60688
3.61724
3.62613
3.63356
3.63956
3.64412
3.64728
3.649
3.64942
3.64857
3.64638
3.64288
3.63813
3.63215
3.62498
3.61665
3.6072
3.59666
3.58508
3.57249
3.55893
3.54442
3.52902
3.51275
3.49564
3.47772
3.45902
3.43958
3.41943
3.39859
3.37711
3.35502
3.33237
3.30921
3.28557
3.26149
3.23699
3.21211
3.18687
3.1613
3.13541
3.10925
3.08284
3.05624
3.02949
3.00265
2.97577
2.94893
2.9222
2.89564
2.86935
2.84337
2.81772
2.79154
2.76282
0.000839682
0.0160438
0.0376253
0.0482459
0.0530674
0.0548684
0.0548706
0.0536416
0.0515773
0.0489834
0.0461285
0.0432417
0.0405235
0.038128
0.0361751
0.034731
0.033901
0.033654
0.0339884
0.0351461
0.0374045
0.0411323
0.0466995
0.0543248
0.0637686
0.0748474
0.0871802
0.100151
0.113021
0.125128
0.136101
0.145929
0.155035
0.164274
0.174685
0.187155
0.202188
0.219877
0.240034
0.26231
0.286333
0.311731
0.338186
0.365438
0.393328
0.421783
0.450815
0.48048
0.510861
0.542045
0.574118
0.607152
0.64121
0.676346
0.7126
0.75
0.78856
0.828281
0.869154
0.911162
0.954279
0.998478
1.04373
1.09
1.13726
1.18548
1.23463
1.28468
1.33559
1.38734
1.43988
1.49317
1.54716
1.60177
1.65694
1.7126
1.76865
1.82501
1.88158
1.93829
1.99504
2.05176
2.10841
2.16492
2.22124
2.27732
2.33311
2.38856
2.44362
2.49825
2.55244
2.60617
2.65939
2.71208
2.76417
2.81565
2.86646
2.91656
2.96591
3.01446
3.06215
3.10892
3.15473
3.1995
3.24321
3.28577
3.32715
3.36729
3.40615
3.44365
3.47977
3.51444
3.54764
3.57933
3.60947
3.63804
3.66502
3.69037
3.71409
3.73618
3.75661
3.77541
3.79257
3.80811
3.82204
3.83437
3.8451
3.85425
3.86183
3.86785
3.87234
3.87531
3.87676
3.87682
3.87546
3.87267
3.86849
3.86296
3.85611
3.84798
3.83862
3.82804
3.8163
3.80344
3.78949
3.77449
3.75848
3.7415
3.72359
3.70478
3.6851
3.66458
3.64325
3.62115
3.59831
3.57477
3.5506
3.52582
3.50051
3.47468
3.44838
3.42164
3.39447
3.36692
3.339
3.31074
3.28219
3.25339
3.22438
3.19522
3.16597
3.13668
3.10742
3.07828
3.04932
3.02064
2.9923
2.96434
2.93595
2.90532
0.00135606
0.0231342
0.0452472
0.0553838
0.0598053
0.0612093
0.0608282
0.0591835
0.0567224
0.0538037
0.0507434
0.0478032
0.0452114
0.0431531
0.0418189
0.0412966
0.0414352
0.0424833
0.0445329
0.0477333
0.052237
0.0581621
0.0655088
0.0741622
0.0838755
0.094323
0.105112
0.11587
0.126289
0.136238
0.145807
0.155372
0.16555
0.177021
0.190331
0.205779
0.223405
0.243037
0.26441
0.287223
0.311207
0.336116
0.36177
0.388037
0.414863
0.442247
0.470248
0.498947
0.528446
0.55884
0.590224
0.62268
0.656286
0.691108
0.727197
0.764596
0.803334
0.843428
0.884887
0.92771
0.971889
1.01741
1.06425
1.11237
1.16176
1.21238
1.2642
1.31717
1.37124
1.42638
1.48253
1.53963
1.5976
1.65635
1.7158
1.77583
1.83636
1.89727
1.95847
2.01982
2.08125
2.14266
2.20399
2.26517
2.32615
2.38686
2.44724
2.50723
2.56679
2.62589
2.68448
2.74254
2.80005
2.85694
2.91317
2.9687
3.02347
3.07744
3.13057
3.18279
3.23405
3.28428
3.33343
3.38143
3.42822
3.47376
3.51798
3.56083
3.60225
3.64219
3.68059
3.71741
3.75261
3.78614
3.81799
3.84812
3.87651
3.90313
3.92799
3.95107
3.97236
3.99188
4.00963
4.02564
4.03991
4.05246
4.06331
4.07247
4.07995
4.08578
4.08996
4.09252
4.0935
4.09299
4.09097
4.08741
4.08239
4.07593
4.06808
4.05887
4.04835
4.03654
4.0235
4.00925
3.99385
3.97734
3.95976
3.94114
3.92153
3.90097
3.87949
3.85712
3.83389
3.80981
3.78495
3.75935
3.73308
3.7062
3.67874
3.65075
3.62227
3.59331
3.5639
3.53408
3.50385
3.47327
3.44237
3.41123
3.37987
3.34837
3.31676
3.28512
3.2535
3.22198
3.19065
3.1596
3.12891
3.09864
3.06803
3.03548
0.00198841
0.0297277
0.0526747
0.0627477
0.0669169
0.0680436
0.0673546
0.0653907
0.0626727
0.0596421
0.0566723
0.0540487
0.0519888
0.0507719
0.0503859
0.0508071
0.0522323
0.0546739
0.058157
0.0627015
0.0683277
0.0749808
0.0825309
0.0908211
0.0996357
0.108771
0.118057
0.127398
0.136781
0.146352
0.156402
0.167343
0.179575
0.193397
0.208959
0.226249
0.245135
0.265412
0.286874
0.309314
0.332575
0.35652
0.381073
0.406186
0.431869
0.458166
0.48516
0.512942
0.541623
0.571302
0.602082
0.634058
0.667315
0.701932
0.737976
0.775502
0.814549
0.855155
0.897345
0.941138
0.986539
1.03355
1.08215
1.13234
1.18408
1.23734
1.29207
1.34822
1.40573
1.46454
1.52456
1.58572
1.6479
1.71099
1.77485
1.83938
1.90445
1.96996
2.03578
2.10179
2.16788
2.23396
2.29994
2.36576
2.43134
2.49661
2.5615
2.62596
2.68995
2.7534
2.8163
2.8786
2.94026
3.00123
3.06145
3.12087
3.17942
3.23707
3.29375
3.34942
3.40399
3.45743
3.50963
3.56057
3.61015
3.65833
3.70505
3.75026
3.79389
3.8359
3.87621
3.91479
3.95158
3.98657
4.01972
4.05101
4.08041
4.10792
4.13352
4.1572
4.17897
4.19882
4.2168
4.23291
4.24718
4.25962
4.27026
4.27911
4.28618
4.29151
4.29511
4.29701
4.29727
4.296
4.29309
4.28858
4.28253
4.27498
4.26597
4.25554
4.24373
4.23058
4.21612
4.20041
4.18348
4.16538
4.14615
4.12584
4.10449
4.08215
4.05884
4.0346
4.00947
3.98341
3.95653
3.9289
3.90057
3.87161
3.84206
3.81195
3.78134
3.75023
3.71866
3.68663
3.65417
3.62134
3.5882
3.55479
3.52119
3.48743
3.45357
3.41966
3.38576
3.35194
3.31831
3.28496
3.25196
3.21943
3.18664
3.15222
0.00279371
0.0353787
0.0597746
0.0701081
0.0742289
0.0751993
0.0742668
0.072063
0.0691919
0.0662178
0.0636149
0.0616444
0.0605105
0.0601497
0.0605945
0.0620638
0.0644824
0.0678082
0.0720079
0.0770556
0.0828814
0.0894017
0.096514
0.104131
0.112163
0.12056
0.129303
0.138467
0.14818
0.158654
0.170112
0.18277
0.196769
0.212158
0.228901
0.246889
0.265987
0.286042
0.306928
0.32853
0.350777
0.373613
0.397034
0.421046
0.445701
0.471065
0.497237
0.524316
0.55241
0.581617
0.612046
0.643796
0.676967
0.711647
0.747914
0.785841
0.82549
0.866919
0.910172
0.955288
1.00229
1.05119
1.10199
1.15468
1.20924
1.26561
1.32375
1.38358
1.44501
1.50794
1.57223
1.63778
1.70444
1.77205
1.84043
1.90946
1.979
2.04896
2.11924
2.18971
2.26027
2.33082
2.40127
2.47153
2.5415
2.61107
2.68023
2.74891
2.81706
2.88464
2.95156
3.01781
3.08332
3.14804
3.2119
3.27485
3.33681
3.39774
3.45757
3.51624
3.57369
3.62985
3.68464
3.73801
3.78987
3.84018
3.88887
3.93589
3.98119
4.0247
4.06636
4.10614
4.14398
4.17986
4.21375
4.24564
4.27551
4.30336
4.32917
4.35295
4.3747
4.39443
4.41217
4.42795
4.44178
4.45369
4.4637
4.47184
4.47813
4.48259
4.48527
4.4862
4.48551
4.48322
4.47917
4.47348
4.46621
4.45739
4.44706
4.43526
4.42204
4.40742
4.39146
4.37419
4.35566
4.33591
4.31499
4.29294
4.26982
4.24567
4.22052
4.19443
4.16742
4.13942
4.11057
4.08095
4.05063
4.01967
3.9881
3.95597
3.92331
3.89016
3.85653
3.82241
3.78783
3.75287
3.7176
3.68209
3.64637
3.61049
3.57451
3.53847
3.50241
3.46642
3.4306
3.39506
3.35987
3.32518
3.2903
3.25414
0.00365254
0.0414431
0.066955
0.077533
0.0816114
0.0824401
0.0811831
0.0786311
0.07571
0.0730759
0.0711112
0.070037
0.0696862
0.0699795
0.0712499
0.0734127
0.0763957
0.080138
0.0845885
0.0897077
0.0954418
0.101758
0.108618
0.116013
0.123931
0.13242
0.141542
0.15141
0.162136
0.173846
0.186619
0.200512
0.215522
0.231597
0.248659
0.26661
0.285362
0.304825
0.32495
0.34569
0.367041
0.388999
0.411599
0.434888
0.458932
0.483798
0.509588
0.536406
0.564358
0.593559
0.624115
0.656145
0.689748
0.725035
0.762099
0.801032
0.841915
0.884825
0.929829
0.976981
1.02633
1.07789
1.13167
1.18764
1.24579
1.30605
1.36835
1.43257
1.49858
1.5662
1.63524
1.70551
1.77679
1.84893
1.92173
1.99504
2.06867
2.14258
2.21677
2.2912
2.36574
2.44026
2.51468
2.58892
2.66281
2.73629
2.8093
2.88179
2.95367
3.02488
3.09534
3.165
3.23381
3.3017
3.3686
3.43444
3.49916
3.56269
3.62498
3.68595
3.74555
3.8037
3.86034
3.91538
3.96877
4.02043
4.07032
4.11838
4.16456
4.2088
4.25106
4.29126
4.32939
4.36541
4.3993
4.43107
4.46069
4.48818
4.51353
4.53676
4.55787
4.57689
4.59382
4.60871
4.62157
4.63244
4.64134
4.64831
4.65335
4.65652
4.65788
4.65755
4.65567
4.65196
4.64652
4.63942
4.6307
4.62041
4.60858
4.59525
4.58046
4.56426
4.54667
4.52774
4.50752
4.48604
4.46336
4.43953
4.41459
4.38859
4.36159
4.33362
4.30473
4.27487
4.24416
4.21268
4.18048
4.14763
4.11416
4.08012
4.04555
4.01048
3.97495
3.93889
3.90235
3.86545
3.82824
3.79079
3.75314
3.71533
3.67741
3.63943
3.60138
3.56339
3.52556
3.488
3.45078
3.41408
3.37724
3.33955
0.00457396
0.0474824
0.0741106
0.0849338
0.088959
0.0895939
0.0879346
0.0851843
0.0824804
0.0803885
0.0792261
0.0788053
0.0789248
0.0798927
0.0817142
0.0843102
0.0876229
0.0915964
0.0962013
0.101424
0.107247
0.113686
0.120738
0.128454
0.136861
0.146041
0.156031
0.16692
0.178725
0.191479
0.205177
0.219813
0.235318
0.251639
0.268712
0.286479
0.30491
0.323969
0.343668
0.363996
0.384998
0.4067
0.429208
0.452559
0.476777
0.501919
0.528172
0.555613
0.58435
0.61449
0.646159
0.679467
0.714542
0.751504
0.790464
0.831539
0.874817
0.920397
0.968336
1.01872
1.07158
1.12698
1.18484
1.24515
1.30784
1.37285
1.44006
1.50933
1.58049
1.65328
1.72743
1.8026
1.87839
1.95475
2.0316
2.10875
2.18599
2.26337
2.34102
2.41884
2.49657
2.57424
2.65177
2.72928
2.80649
2.8833
2.95954
3.03507
3.10987
3.18384
3.25692
3.32905
3.40017
3.47019
3.53906
3.60671
3.67305
3.73804
3.80161
3.86372
3.9243
3.98327
4.04056
4.0961
4.14981
4.20165
4.25156
4.29949
4.3454
4.38925
4.43097
4.47051
4.50785
4.54295
4.57583
4.60648
4.63491
4.66111
4.68511
4.7069
4.72653
4.74399
4.75934
4.7726
4.78382
4.79303
4.80026
4.80553
4.80886
4.81032
4.81003
4.80825
4.80461
4.79921
4.7921
4.78333
4.77294
4.76099
4.74749
4.7325
4.71604
4.69815
4.67886
4.65822
4.63627
4.61305
4.58861
4.56299
4.53625
4.50843
4.47959
4.44978
4.41903
4.38743
4.355
4.32179
4.28785
4.25322
4.21797
4.18214
4.14578
4.10892