/*--------------------------------*- C++ -*----------------------------------*\
  =========                 |
  \\      /  F ield         | OpenFOAM: The Open Source CFD Toolbox
   \\    /   O peration     | Website:  https://openfoam.org
    \\  /    A nd           | Version:  13
     \\/     M anipulation  |
\*---------------------------------------------------------------------------*/
FoamFile
{
    format      ascii;
    class       volScalarField;
    location    "1000";
    object      nut;
}
// * * * * * * * * * * * * * * * * * * * * * * * * * * * * * * * * * * * * * //

dimensions      [0 2 -1 0 0 0 0];

internalField   nonuniform List<scalar> 
12225
(
6.19446e-06
1.48404e-05
2.93932e-05
2.41048e-05
2.15758e-05
2.05404e-05
2.1567e-05
1.82251e-05
1.93994e-05
1.67633e-05
2.25209e-05
1.99229e-05
1.8241e-05
1.74842e-05
1.68035e-05
1.97995e-05
1.78317e-05
1.76342e-05
2.37233e-07
2.84438e-07
1.90193e-06
4.0736e-06
6.92659e-06
1.03203e-05
6.99892e-05
1.1088e-05
3.32573e-05
2.42109e-05
2.62946e-05
2.91772e-05
3.44274e-05
3.8315e-05
4.05345e-05
4.23137e-05
4.61997e-05
4.22278e-05
3.3366e-06
2.02289e-06
2.32527e-06
7.38165e-06
3.63062e-06
4.10189e-06
5.61413e-06
8.55683e-06
1.23738e-05
1.95566e-05
2.89804e-05
3.3842e-05
3.78911e-05
3.98769e-05
4.3127e-05
4.52801e-05
4.52969e-05
4.52504e-05
2.05454e-05
1.39405e-05
9.68111e-06
8.35307e-06
1.05206e-05
1.80883e-05
3.08057e-05
4.973e-05
7.02989e-05
0.000102825
8.8973e-05
0.000101836
0.000113316
0.000118869
0.00011998
0.00011651
0.00011284
0.000106931
9.50058e-05
2.26997e-05
1.76947e-05
2.09315e-05
3.16638e-05
5.19912e-05
8.44529e-05
0.000132717
0.000175775
0.000248838
0.000217231
0.000252685
0.000275463
0.000277167
0.000276051
0.000265674
0.000257656
0.000243805
0.000321531
0.000131811
8.10064e-05
7.87063e-05
9.86405e-05
0.000139961
0.000199963
0.000279698
0.000345967
0.000442562
0.000397164
0.000442781
0.0004699
0.000468926
0.000466149
0.000450882
0.000439925
0.000419702
0.000451551
0.00518082
0.000321876
0.000258469
0.000260638
0.000307856
0.000377161
0.000466586
0.000538356
0.000623125
0.000579696
0.000618756
0.000639172
0.000636711
0.000632784
0.00061807
0.000605857
0.000586642
0.000977242
0.00167056
0.00082367
0.000645568
0.000557763
0.000539694
0.000576603
0.000636383
0.000685701
0.000739041
0.000713595
0.000738037
0.000749987
0.000748172
0.000744956
0.000734572
0.000724545
0.000709215
0.000897737
0.00101937
0.000914033
0.000812359
0.000756823
0.000751271
0.000711623
0.000721151
0.000752876
0.000783456
0.000796836
0.000807555
0.000801021
0.000803966
0.000803482
0.000798832
0.000792467
0.000784014
0.000861884
0.000895711
0.000867904
0.000843403
0.000827803
0.000820249
0.00081838
0.00081936
0.00082247
0.00082686
0.000830485
0.00083241
0.00083261
0.000832149
0.000829765
0.000827081
0.000824348
0.00082007
0.000857212
0.000853055
0.000850498
0.000847064
0.000844014
0.000841882
0.000841003
0.000840735
0.000840897
0.000841128
0.000841431
0.000841327
0.000841202
0.000840305
0.000840159
0.000838775
0.000838101
0.000835777
0.000852379
0.000850999
0.000849798
0.000848496
0.000847407
0.000846382
0.000845736
0.000845125
0.000844761
0.000844307
0.00084395
0.000843555
0.000843053
0.000842572
0.000842078
0.000841619
0.000841412
0.000840307
0.00085173
0.000850719
0.000849867
0.000848943
0.000848221
0.000847392
0.00084682
0.000846095
0.000845646
0.00084499
0.000844574
0.000844005
0.000843552
0.000843028
0.00084261
0.000842139
0.000841868
0.000841364
0.000851581
0.000850668
0.000849883
0.000849046
0.000848359
0.000847591
0.000846991
0.000846288
0.000845764
0.000845119
0.00084464
0.000844069
0.000843605
0.00084309
0.000842656
0.00084221
0.000841814
0.000841422
0.00085155
0.000850668
0.000849867
0.000849069
0.000848349
0.000847625
0.000846976
0.000846318
0.000845731
0.000845132
0.000844597
0.000844057
0.00084356
0.000843071
0.00084261
0.000842171
0.000841747
0.000841348
0.00085154
0.000850672
0.000849857
0.000849071
0.000848335
0.000847623
0.000846956
0.000846309
0.000845704
0.000845115
0.000844563
0.000844028
0.000843522
0.000843033
0.00084257
0.000842123
0.000841698
0.00084129
0.000851538
0.000850673
0.000849852
0.00084907
0.000848327
0.000847618
0.000846944
0.0008463
0.000845687
0.000845101
0.000844542
0.000844007
0.000843496
0.000843007
0.00084254
0.000842092
0.000841663
0.000841254
0.000851538
0.000850678
0.000849858
0.000849078
0.000848335
0.000847628
0.000846953
0.00084631
0.000845695
0.000845109
0.000844548
0.000844013
0.000843499
0.00084301
0.00084254
0.000842092
0.000841661
0.000841251
0.000851537
0.000850674
0.000849851
0.000849071
0.000848325
0.000847618
0.00084694
0.000846296
0.000845677
0.00084509
0.000844524
0.000843987
0.000843468
0.000842977
0.0008425
0.000842051
0.000841613
0.000841202
0.000851532
0.000850679
0.000849847
0.000849076
0.00084832
0.000847626
0.000846924
0.000846271
0.000845605
0.000844993
0.000844362
0.00084379
0.000843195
0.000842666
0.000842108
0.000841624
0.000841098
0.00084066
0.000851507
0.000850715
0.000849868
0.000849022
0.000848216
0.000847472
0.000846548
0.000845554
0.0008444
0.000843247
0.000841945
0.000840783
0.00083948
0.000838428
0.000837207
0.000836308
0.000835113
0.00083438
0.000851549
0.000851863
0.000849544
0.000847003
0.000845502
0.000843365
0.000841791
0.000837273
0.000831997
0.000825883
0.000820102
0.000814326
0.000809145
0.000804531
0.000800485
0.000796722
0.000793105
0.000789977
0.000851863
0.000849128
0.000833136
0.000818799
0.000806255
0.000798774
0.000781012
0.000763737
0.000743843
0.00072495
0.000709497
0.000692876
0.000681295
0.000670053
0.000661234
0.000654059
0.000647172
0.0006431
0.000813404
0.000787023
0.000685283
0.000638715
0.000608335
0.000598496
0.00058218
0.000555239
0.00052733
0.000499987
0.000482264
0.000451477
0.000454202
0.000442162
0.000427898
0.000417217
0.000410272
0.000407002
0.000400005
0.00850495
0.000466791
0.00037044
0.000319486
0.000291972
0.00029219
0.000257722
0.00025717
0.000250476
0.000248946
0.000224171
0.000230233
0.000209202
0.000210227
0.000196447
0.000199088
0.000192287
0.000129787
0.0324587
0.000117519
6.04895e-05
5.46328e-05
5.57742e-05
5.6474e-05
5.8892e-05
6.21509e-05
7.01714e-05
7.52413e-05
8.4548e-05
8.07644e-05
8.06034e-05
8.08618e-05
8.11458e-05
8.16855e-05
8.32568e-05
0.000186171
8.88065e-05
4.82065e-05
1.93497e-05
1.44377e-05
1.3176e-05
1.5595e-05
1.50429e-05
1.78299e-05
2.1132e-05
2.57858e-05
2.9225e-05
3.13888e-05
3.2458e-05
3.26346e-05
3.22188e-05
3.14263e-05
3.01935e-05
6.03825e-05
1.24204e-05
6.12115e-06
5.00418e-06
4.08422e-06
3.89755e-06
4.82736e-06
5.65962e-06
6.25026e-06
5.53384e-06
6.98578e-06
7.07082e-06
7.25956e-06
7.61431e-06
8.72625e-06
9.68376e-06
1.0263e-05
1.1182e-05
9.96117e-06
8.18462e-06
6.6234e-06
6.06596e-06
5.8067e-06
7.07972e-06
1.04471e-05
1.15341e-05
1.63619e-05
1.55431e-05
1.74779e-05
2.23786e-05
2.62862e-05
2.92074e-05
3.32822e-05
3.67568e-05
3.83292e-05
3.94274e-05
1.16162e-05
1.61231e-05
1.92049e-05
2.10034e-05
2.18012e-05
2.2052e-05
2.20041e-05
2.16969e-05
2.12897e-05
2.08424e-05
2.03945e-05
1.9968e-05
1.95908e-05
1.92651e-05
1.89752e-05
1.87314e-05
1.85108e-05
1.83335e-05
1.38458e-12
1.5589e-10
8.02799e-10
3.19628e-09
1.0805e-08
3.33228e-08
8.78691e-08
1.76829e-07
2.89255e-07
4.07467e-07
5.1465e-07
5.96821e-07
6.52907e-07
6.73295e-07
6.64998e-07
6.38134e-07
5.86429e-07
5.03532e-07
4.26367e-07
3.61675e-07
3.01157e-07
2.42685e-07
1.86739e-07
1.34857e-07
8.87299e-08
5.2698e-08
2.84763e-08
1.45475e-08
7.46196e-09
4.05014e-09
2.42262e-09
1.74719e-09
1.8817e-09
3.538e-09
1.00067e-08
2.76714e-08
1.06368e-07
2.12871e-07
3.61013e-07
4.48124e-07
4.28437e-07
3.61238e-07
2.84022e-07
2.42214e-07
2.49381e-07
3.08009e-07
3.92127e-07
6.67366e-07
1.21949e-06
3.04564e-06
9.2967e-06
2.13197e-05
3.32269e-05
3.77906e-05
2.71639e-05
3.05644e-05
3.96917e-05
3.95226e-05
4.08497e-05
3.36568e-05
3.50991e-05
3.66813e-05
2.88966e-05
3.20216e-05
3.22255e-05
3.31851e-05
3.36623e-05
3.42531e-05
3.48676e-05
3.5396e-05
3.59868e-05
3.65148e-05
3.70749e-05
3.76024e-05
3.81432e-05
3.86667e-05
3.91959e-05
3.97143e-05
4.02352e-05
4.07481e-05
4.12624e-05
4.17704e-05
4.22785e-05
4.27818e-05
4.32838e-05
4.37828e-05
4.42789e-05
4.47735e-05
4.52651e-05
4.57561e-05
4.62455e-05
4.67318e-05
4.7216e-05
4.76958e-05
4.81735e-05
4.86463e-05
4.9117e-05
4.95833e-05
5.00482e-05
5.05107e-05
5.09747e-05
5.14446e-05
5.19274e-05
5.24124e-05
5.29003e-05
5.33954e-05
5.38963e-05
5.44082e-05
5.49274e-05
5.54593e-05
5.6e-05
5.65544e-05
5.71196e-05
5.76992e-05
5.82921e-05
5.89005e-05
5.9525e-05
6.0166e-05
6.0824e-05
6.14994e-05
6.21955e-05
6.29137e-05
6.36586e-05
6.4428e-05
6.52292e-05
6.60595e-05
6.69346e-05
6.78646e-05
6.87277e-05
6.97492e-05
7.06646e-05
7.1777e-05
7.27505e-05
7.39479e-05
7.50347e-05
7.62958e-05
7.75867e-05
7.75183e-05
7.72555e-05
7.69745e-05
7.66851e-05
7.63829e-05
7.60723e-05
7.57526e-05
7.54259e-05
7.50914e-05
7.47511e-05
7.44043e-05
7.40525e-05
7.36952e-05
7.33338e-05
7.29676e-05
7.25979e-05
7.22242e-05
7.18477e-05
7.14683e-05
7.10875e-05
7.07061e-05
7.03266e-05
6.99484e-05
6.95716e-05
6.91967e-05
6.8824e-05
6.84537e-05
6.80854e-05
6.77197e-05
6.73561e-05
6.69954e-05
6.66371e-05
6.62824e-05
6.59301e-05
6.55808e-05
6.52319e-05
6.48831e-05
6.45279e-05
6.41597e-05
6.37677e-05
6.33209e-05
6.27644e-05
6.1303e-05
6.51872e-12
1.05665e-09
1.44645e-08
7.77436e-08
3.36464e-07
1.15382e-06
2.64195e-06
4.86137e-06
7.60036e-06
1.06946e-05
1.38325e-05
1.67431e-05
1.92127e-05
2.10247e-05
2.21224e-05
2.24424e-05
2.21844e-05
2.1012e-05
1.92033e-05
1.59718e-05
1.23744e-05
9.11757e-06
6.42494e-06
4.33349e-06
2.73802e-06
1.70043e-06
1.0398e-06
6.48629e-07
4.05514e-07
2.65424e-07
1.89825e-07
1.56464e-07
1.63037e-07
2.4011e-07
6.57211e-07
1.6117e-06
6.19549e-06
1.20205e-05
1.88439e-05
2.25401e-05
2.22438e-05
2.02359e-05
1.66567e-05
1.44757e-05
1.46535e-05
1.6041e-05
1.6931e-05
2.07826e-05
2.90633e-05
3.97304e-05
5.07988e-05
6.19996e-05
7.16191e-05
8.02225e-05
8.63163e-05
9.68053e-05
0.000107618
0.000119892
0.000133936
0.000144307
0.000159236
0.000173441
0.000182759
0.000196533
0.000208673
0.00022009
0.000231558
0.000242252
0.000252712
0.000262762
0.00027249
0.000281946
0.000291126
0.000300106
0.000308874
0.000317484
0.000325936
0.00033426
0.000342463
0.000350558
0.000358557
0.000366463
0.00037429
0.000382033
0.000389706
0.000397302
0.000404836
0.000412309
0.000419733
0.000427108
0.000434455
0.000441746
0.000448997
0.000456181
0.000463304
0.000470334
0.000477263
0.000484044
0.000490643
0.000496979
0.00050297
0.000508494
0.000513381
0.000518102
0.000522677
0.000527123
0.000531422
0.00053558
0.000539588
0.000543446
0.000547146
0.000550688
0.000554064
0.000557273
0.000560308
0.00056317
0.000565855
0.000568363
0.000570684
0.000572816
0.000574755
0.000576505
0.00057807
0.000579454
0.000580658
0.00058168
0.000582525
0.000583193
0.000583709
0.00058412
0.000584256
0.000584313
0.000584008
0.00058363
0.000583152
0.000582732
0.000582204
0.000581881
0.000581437
0.000580848
0.000580124
0.000579267
0.000578289
0.000577195
0.000575994
0.000574691
0.000573295
0.000571806
0.000570233
0.000568578
0.000566848
0.000565041
0.000563165
0.000561216
0.0005592
0.00055712
0.000554984
0.000552797
0.000550579
0.000548321
0.000546034
0.000543721
0.000541388
0.00053903
0.000536651
0.000534245
0.000531813
0.000529354
0.00052687
0.000524359
0.000521822
0.000519248
0.000516623
0.000513925
0.000511102
0.000508063
0.0005047
0.000500689
0.000495282
0.000479946
1.81821e-11
3.12651e-09
5.94308e-08
3.66179e-07
1.01753e-06
2.88181e-06
6.13334e-06
1.06902e-05
1.6362e-05
2.28169e-05
2.97254e-05
3.65024e-05
4.26258e-05
4.77421e-05
5.16551e-05
5.42073e-05
5.56681e-05
5.59549e-05
5.45553e-05
5.15956e-05
4.73627e-05
4.12599e-05
3.41178e-05
2.69104e-05
2.02283e-05
1.45051e-05
9.85837e-06
6.60188e-06
4.19415e-06
2.79234e-06
1.95031e-06
1.53052e-06
1.32447e-06
1.21904e-06
4.50723e-06
1.0594e-05
2.84859e-05
4.83262e-05
6.1468e-05
6.49843e-05
5.92094e-05
4.53363e-05
3.85397e-05
4.01747e-05
4.72355e-05
5.47732e-05
6.48763e-05
7.71503e-05
8.95096e-05
0.000102682
0.000119954
0.000138469
0.000159278
0.000181484
0.000206899
0.000237044
0.000267322
0.00029844
0.00032899
0.000358084
0.00038533
0.00041596
0.000441001
0.000466607
0.000491485
0.0005145
0.000536766
0.00055811
0.000578747
0.000598725
0.000618132
0.00063706
0.00065555
0.00067368
0.000691473
0.000708984
0.00072623
0.000743245
0.000760042
0.00077664
0.000793051
0.000809286
0.000825354
0.000841257
0.000857006
0.000872599
0.000888047
0.000903348
0.00091851
0.000933531
0.000948412
0.000963133
0.000977685
0.000992041
0.00100618
0.00102008
0.00103369
0.00104698
0.0010599
0.00107241
0.00108449
0.00109611
0.00110733
0.00111831
0.001129
0.0011394
0.0011495
0.00115928
0.00116873
0.00117786
0.00118664
0.00119508
0.00120315
0.00121086
0.00121819
0.00122514
0.0012317
0.00123788
0.00124365
0.00124902
0.00125397
0.00125852
0.00126267
0.00126644
0.00126982
0.00127283
0.00127546
0.00127771
0.0012796
0.00128113
0.00128223
0.00128304
0.00128332
0.00128345
0.00128334
0.00128322
0.00128267
0.00128193
0.0012809
0.00127959
0.00127796
0.00127606
0.00127388
0.00127144
0.00126877
0.00126587
0.00126277
0.00125946
0.00125597
0.0012523
0.00124846
0.00124446
0.0012403
0.00123598
0.0012315
0.00122689
0.00122215
0.0012173
0.00121235
0.00120731
0.0012022
0.00119704
0.00119182
0.00118655
0.00118122
0.00117584
0.0011704
0.0011649
0.00115935
0.00115374
0.00114808
0.00114234
0.00113649
0.00113048
0.0011242
0.0011175
0.00111008
0.0011012
0.00108895
0.00106113
6.6131e-11
1.12311e-08
1.80238e-07
7.94243e-07
2.43171e-06
6.75236e-06
1.34448e-05
2.24592e-05
3.31156e-05
4.43287e-05
5.51961e-05
6.51591e-05
7.37226e-05
8.03629e-05
8.53511e-05
8.86477e-05
9.00749e-05
8.99912e-05
8.85414e-05
8.55708e-05
8.12405e-05
7.55122e-05
6.85898e-05
5.98714e-05
5.014e-05
4.03254e-05
3.11172e-05
2.34549e-05
1.748e-05
1.27608e-05
9.75712e-06
7.31043e-06
6.94538e-06
9.45382e-06
2.02172e-05
4.20473e-05
6.3314e-05
7.76445e-05
7.93322e-05
7.44891e-05
7.14362e-05
7.2142e-05
7.67906e-05
8.52577e-05
9.70833e-05
0.000110768
0.000123309
0.000144314
0.000166107
0.000193874
0.000225798
0.000261199
0.000300026
0.000341223
0.000384553
0.000429111
0.000473171
0.000516923
0.000559391
0.000600503
0.000638927
0.000678061
0.000714227
0.000749229
0.000783114
0.000815432
0.000846758
0.000877093
0.000906591
0.000935349
0.000963454
0.000990992
0.00101802
0.00104461
0.00107078
0.00109659
0.00112205
0.0011472
0.00117204
0.00119659
0.00122087
0.00124488
0.00126863
0.00129212
0.00131535
0.00133833
0.00136106
0.00138353
0.00140575
0.0014277
0.00144939
0.00147079
0.00149189
0.00151266
0.00153309
0.00155315
0.0015728
0.00159204
0.00161083
0.00162917
0.00164707
0.00166451
0.00168155
0.0016982
0.00171442
0.0017302
0.00174552
0.00176038
0.00177474
0.00178861
0.00180197
0.00181481
0.00182712
0.00183888
0.00185009
0.00186074
0.00187082
0.00188032
0.00188924
0.00189758
0.00190532
0.00191248
0.00191908
0.00192511
0.00193059
0.00193553
0.00193992
0.00194376
0.00194706
0.00194982
0.00195202
0.00195373
0.0019548
0.00195551
0.00195595
0.00195613
0.00195572
0.00195489
0.00195361
0.0019519
0.00194975
0.00194719
0.00194422
0.00194088
0.00193717
0.00193314
0.00192878
0.00192412
0.00191917
0.00191394
0.00190845
0.00190271
0.00189673
0.00189051
0.00188405
0.00187738
0.00187051
0.00186346
0.00185624
0.00184889
0.00184142
0.00183384
0.00182617
0.0018184
0.00181055
0.0018026
0.00179455
0.00178641
0.00177818
0.00176986
0.00176146
0.00175296
0.0017443
0.00173542
0.0017262
0.00171641
0.00170569
0.001693
0.00167576
0.00164286
2.23545e-10
3.36699e-08
4.03492e-07
1.88844e-06
6.56152e-06
1.58391e-05
2.94456e-05
4.56683e-05
6.27452e-05
7.90587e-05
9.33101e-05
0.000104735
0.000113268
0.000119215
0.000122426
0.00012358
0.000123071
0.000121214
0.000118237
0.000114163
0.000108887
0.000102921
9.60327e-05
8.75406e-05
7.77072e-05
6.67968e-05
5.54301e-05
4.49469e-05
3.60578e-05
2.90584e-05
2.27031e-05
2.02946e-05
2.29296e-05
3.58244e-05
6.09296e-05
8.01042e-05
9.02208e-05
9.43688e-05
9.60054e-05
9.85128e-05
0.00010414
0.00011381
0.000128405
0.00013937
0.000153399
0.000176757
0.000205349
0.000238704
0.000276882
0.000320827
0.00036791
0.000418094
0.000470319
0.00052369
0.000577547
0.000631163
0.000683837
0.000735446
0.000785618
0.000834011
0.000880551
0.00092635
0.000970242
0.00101268
0.00105383
0.00109369
0.00113249
0.00117032
0.00120729
0.00124349
0.001279
0.00131389
0.00134823
0.00138205
0.0014154
0.0014483
0.00148078
0.00151285
0.00154453
0.00157583
0.00160675
0.00163729
0.00166747
0.00169728
0.00172672
0.0017558
0.0017845
0.00181283
0.00184078
0.00186835
0.00189552
0.00192228
0.00194863
0.00197454
0.002
0.00202499
0.00204949
0.0020735
0.00209701
0.00212001
0.00214253
0.00216455
0.00218605
0.00220705
0.00222749
0.00224737
0.00226666
0.00228536
0.00230345
0.0023209
0.00233772
0.00235389
0.0023694
0.00238424
0.0023984
0.00241187
0.00242465
0.00243672
0.0024481
0.00245876
0.00246872
0.00247798
0.00248656
0.00249446
0.0025017
0.00250827
0.00251419
0.00251945
0.00252404
0.00252799
0.00253128
0.00253391
0.00253585
0.00253725
0.00253836
0.00253899
0.00253894
0.00253832
0.00253715
0.00253544
0.0025332
0.00253045
0.0025272
0.00252349
0.00251932
0.00251473
0.00250973
0.00250434
0.00249857
0.00249246
0.00248599
0.0024792
0.00247209
0.00246466
0.00245693
0.00244891
0.00244062
0.00243208
0.00242333
0.00241437
0.00240524
0.00239596
0.00238653
0.00237696
0.00236726
0.00235742
0.00234744
0.00233732
0.00232709
0.00231673
0.00230623
0.0022956
0.0022848
0.00227375
0.00226233
0.00225032
0.00223734
0.00222233
0.00220241
0.00216931
7.03804e-10
8.2376e-08
9.97501e-07
5.06639e-06
1.6611e-05
3.52021e-05
5.75058e-05
8.03317e-05
0.000100171
0.000115564
0.000127059
0.000135957
0.000141918
0.000145595
0.000147297
0.000147297
0.000145833
0.000143109
0.000139327
0.00013452
0.000128729
0.000122342
0.000115038
0.000106519
9.64226e-05
8.11757e-05
6.6586e-05
5.28293e-05
4.14263e-05
3.44983e-05
3.29766e-05
4.00222e-05
5.81007e-05
8.11503e-05
9.90353e-05
0.000110156
0.000116403
0.000121089
0.000127909
0.000139443
0.000155151
0.000164367
0.00017962
0.000204388
0.000233851
0.000270615
0.000313044
0.000360721
0.000412725
0.000468248
0.000525759
0.000584967
0.000644933
0.000705055
0.000764816
0.000823803
0.000881735
0.000938038
0.000993223
0.00104725
0.00109945
0.00115042
0.0011999
0.00124805
0.00129498
0.00134077
0.00138553
0.00142935
0.00147233
0.00151454
0.00155604
0.0015969
0.00163715
0.00167685
0.001716
0.00175464
0.00179277
0.00183041
0.00186756
0.00190423
0.00194041
0.00197611
0.00201133
0.00204607
0.00208033
0.0021141
0.00214738
0.00218016
0.00221245
0.00224424
0.00227551
0.00230627
0.00233651
0.00236621
0.00239536
0.00242395
0.00245199
0.00247945
0.00250633
0.00253265
0.00255839
0.00258355
0.0026081
0.00263202
0.0026553
0.00267792
0.00269987
0.00272113
0.00274168
0.00276152
0.00278063
0.00279901
0.00281665
0.00283354
0.00284967
0.00286505
0.00287966
0.0028935
0.00290658
0.00291889
0.00293043
0.00294122
0.00295126
0.00296058
0.00296916
0.00297703
0.00298418
0.00299061
0.00299634
0.00300135
0.00300556
0.00300914
0.00301196
0.00301414
0.00301598
0.00301721
0.0030177
0.00301756
0.00301679
0.00301542
0.00301346
0.00301092
0.00300784
0.00300422
0.00300008
0.00299545
0.00299034
0.00298478
0.00297879
0.00297236
0.00296553
0.00295831
0.00295069
0.0029427
0.00293435
0.00292564
0.0029166
0.00290725
0.00289763
0.00288775
0.00287764
0.00286732
0.00285681
0.00284611
0.00283523
0.00282416
0.00281292
0.0028015
0.00278992
0.00277819
0.0027663
0.00275426
0.00274204
0.00272958
0.00271677
0.00270343
0.0026892
0.00267317
0.00265274
0.00262146
2.23069e-09
2.08195e-07
2.62197e-06
1.37887e-05
3.62675e-05
6.50559e-05
9.36078e-05
0.000117465
0.000135694
0.000148777
0.000157663
0.000162794
0.000165226
0.000165823
0.000165065
0.000163217
0.00016043
0.000156788
0.00015224
0.000146713
0.000140366
0.000133123
0.000124598
0.000108441
9.22704e-05
7.77415e-05
6.44897e-05
5.39815e-05
4.90226e-05
5.42877e-05
6.94116e-05
9.13524e-05
0.000112151
0.00012639
0.000136627
0.000144145
0.000152066
0.000164117
0.000178735
0.000186976
0.000202465
0.000226321
0.00025521
0.000292157
0.000334835
0.000384185
0.000438157
0.000495887
0.00055629
0.00061857
0.00068192
0.000745932
0.000810003
0.000873725
0.00093681
0.000998606
0.00105959
0.00111968
0.00117837
0.00123579
0.00129181
0.00134659
0.00140012
0.00145247
0.00150371
0.00155391
0.00160316
0.00165152
0.00169906
0.00174585
0.00179193
0.00183735
0.00188214
0.00192632
0.00196991
0.00201292
0.00205536
0.00209722
0.00213849
0.00217919
0.0022193
0.00225882
0.00229776
0.00233609
0.00237383
0.00241097
0.00244751
0.00248344
0.00251875
0.00255346
0.00258756
0.00262105
0.00265392
0.00268616
0.00271777
0.00274875
0.00277909
0.00280878
0.00283782
0.00286619
0.00289387
0.00292087
0.00294718
0.00297279
0.00299769
0.00302187
0.00304532
0.00306804
0.00309002
0.00311126
0.00313175
0.00315147
0.00317041
0.00318858
0.00320596
0.00322256
0.00323837
0.00325339
0.00326762
0.00328107
0.00329373
0.00330562
0.00331675
0.00332713
0.00333675
0.00334564
0.00335379
0.00336121
0.00336792
0.00337377
0.00337888
0.00338334
0.00338701
0.00338997
0.00339256
0.00339444
0.00339558
0.00339604
0.00339583
0.00339499
0.00339351
0.00339142
0.00338874
0.00338549
0.00338173
0.00337746
0.00337267
0.00336738
0.0033616
0.00335534
0.00334862
0.00334145
0.00333384
0.0033258
0.00331734
0.00330847
0.00329922
0.00328961
0.00327967
0.00326942
0.0032589
0.00324811
0.00323707
0.0032258
0.0032143
0.00320257
0.00319062
0.00317846
0.00316611
0.00315358
0.00314087
0.003128
0.00311495
0.00310168
0.00308812
0.00307411
0.00305939
0.00304317
0.00302349
0.00299519
6.65777e-09
5.47372e-07
6.98444e-06
2.9518e-05
6.27218e-05
9.58586e-05
0.000123223
0.000144098
0.000159541
0.000169555
0.000175101
0.000177548
0.000177915
0.000176767
0.00017452
0.000171405
0.000167454
0.000162562
0.000156797
0.000150363
0.000143282
0.000135365
0.000118736
0.000103212
9.03939e-05
8.10516e-05
7.72498e-05
8.0684e-05
8.30364e-05
9.93866e-05
0.000123222
0.000146066
0.000162126
0.000171468
0.000180813
0.000192866
0.000200039
0.000207838
0.000222178
0.000243779
0.000271141
0.000306102
0.000347108
0.000395028
0.000448202
0.000506177
0.000567206
0.000630481
0.000695244
0.000760944
0.000827104
0.000893374
0.0009594
0.00102454
0.00108901
0.00115306
0.00121594
0.00127779
0.00133848
0.00139803
0.00145641
0.00151367
0.00156984
0.00162496
0.00167909
0.00173228
0.00178459
0.00183607
0.00188677
0.00193675
0.00198603
0.00203466
0.00208265
0.00213001
0.00217675
0.00222287
0.00226834
0.00231318
0.00235735
0.00240086
0.00244369
0.00248584
0.00252729
0.00256805
0.00260811
0.00264747
0.00268613
0.00272407
0.00276131
0.00279784
0.00283368
0.00286882
0.00290327
0.00293701
0.00297006
0.00300241
0.00303405
0.00306499
0.00309522
0.00312471
0.00315346
0.00318149
0.0032088
0.00323537
0.00326121
0.00328631
0.00331066
0.00333426
0.00335708
0.00337915
0.00340044
0.00342095
0.00344068
0.00345964
0.00347781
0.00349521
0.00351182
0.00352765
0.00354269
0.00355697
0.00357047
0.00358321
0.0035952
0.00360645
0.00361696
0.00362674
0.00363579
0.00364416
0.0036517
0.00365841
0.00366449
0.00366986
0.00367445
0.00367836
0.0036818
0.00368448
0.00368644
0.00368771
0.00368831
0.00368823
0.00368751
0.00368616
0.00368418
0.0036816
0.00367843
0.00367469
0.0036704
0.00366556
0.00366019
0.0036543
0.0036479
0.00364101
0.00363363
0.00362577
0.00361745
0.00360867
0.00359947
0.00358986
0.00357987
0.00356953
0.00355886
0.00354788
0.00353662
0.00352507
0.00351325
0.00350116
0.00348881
0.00347622
0.0034634
0.00345039
0.00343718
0.00342379
0.00341023
0.00339647
0.00338247
0.00336813
0.00335325
0.00333734
0.0033188
0.00329398
1.72606e-08
1.35196e-06
1.55946e-05
4.98883e-05
9.0459e-05
0.000125957
0.000152483
0.000170136
0.0001808
0.000186712
0.000188922
0.00018837
0.00018588
0.000182215
0.000177828
0.000172875
0.000167348
0.000161228
0.000154476
0.000146868
0.000138338
0.000124463
0.000110257
0.000100599
9.6752e-05
9.34646e-05
9.69859e-05
0.00010988
0.00012933
0.000149955
0.000170156
0.000187525
0.000200843
0.000209333
0.000216813
0.000225663
0.000238877
0.000257833
0.000282949
0.000314978
0.000353219
0.000397965
0.000448288
0.000503927
0.000563533
0.000626166
0.000690658
0.000756419
0.000822982
0.00088997
0.000957061
0.0010238
0.0010899
0.00115587
0.00122106
0.00128544
0.00134885
0.0014113
0.00147274
0.00153316
0.00159255
0.00165096
0.00170839
0.0017649
0.00182053
0.00187531
0.0019293
0.00198253
0.00203505
0.00208688
0.00213806
0.00218862
0.00223857
0.0022879
0.00233663
0.00238472
0.00243213
0.00247886
0.00252488
0.00257017
0.00261472
0.00265849
0.0027015
0.00274372
0.00278516
0.00282582
0.00286572
0.00290489
0.00294327
0.00298085
0.00301764
0.00305364
0.00308887
0.00312333
0.00315702
0.00318994
0.00322209
0.00325348
0.00328412
0.00331401
0.00334317
0.00337159
0.00339926
0.00342619
0.00345236
0.00347779
0.00350246
0.00352637
0.00354953
0.00357193
0.00359357
0.00361446
0.00363458
0.00365394
0.00367255
0.00369041
0.00370751
0.00372385
0.00373946
0.00375432
0.00376844
0.00378184
0.00379452
0.00380648
0.00381774
0.0038283
0.0038382
0.00384736
0.00385566
0.00386333
0.00387032
0.00387662
0.00388217
0.00388706
0.0038914
0.00389501
0.00389791
0.00390012
0.00390165
0.00390251
0.00390271
0.00390227
0.0039012
0.0038995
0.0038972
0.0038943
0.00389082
0.00388676
0.00388215
0.00387698
0.00387127
0.00386503
0.00385826
0.00385097
0.00384317
0.00383488
0.00382612
0.00381692
0.0038073
0.00379728
0.0037869
0.00377617
0.0037651
0.00375371
0.00374201
0.00373
0.0037177
0.00370514
0.00369232
0.00367927
0.00366602
0.00365258
0.00363896
0.00362517
0.00361118
0.00359695
0.00358233
0.00356686
0.00354933
0.00352739
3.84115e-08
3.11384e-06
2.82034e-05
7.23808e-05
0.000115607
0.000150006
0.000173846
0.000189005
0.000196623
0.000198583
0.000196796
0.000192671
0.000187185
0.000180942
0.000174343
0.000167174
0.000159976
0.00015216
0.000144279
0.00013641
0.000128627
0.000120956
0.000114556
0.000111459
0.000114723
0.000124148
0.000138218
0.000155257
0.000173371
0.000190624
0.000205679
0.000217261
0.000227479
0.000238736
0.000251937
0.000269283
0.000291859
0.000320644
0.00035558
0.000396543
0.000442997
0.000494653
0.000550775
0.000610676
0.000673286
0.000737751
0.00080335
0.000869653
0.000936327
0.00100311
0.00106941
0.0011355
0.00120136
0.00126655
0.00133098
0.00139458
0.0014573
0.00151912
0.00158002
0.00164
0.00169906
0.00175724
0.00181455
0.00187105
0.00192677
0.00198178
0.00203609
0.00208976
0.00214278
0.00219519
0.00224704
0.00229836
0.00234915
0.00239939
0.0024491
0.00249828
0.002547
0.00259508
0.00264239
0.0026889
0.00273459
0.00277942
0.00282338
0.00286647
0.00290867
0.00294999
0.0029904
0.00302989
0.00306852
0.00310631
0.00314327
0.00317942
0.00321477
0.00324931
0.00328307
0.00331604
0.00334824
0.00337967
0.00341033
0.00344025
0.00346942
0.00349783
0.0035255
0.00355241
0.00357858
0.00360401
0.00362869
0.00365264
0.00367586
0.00369835
0.0037201
0.00374113
0.00376143
0.00378102
0.00379988
0.00381803
0.00383547
0.00385221
0.00386824
0.00388358
0.00389823
0.00391219
0.00392548
0.0039381
0.00395006
0.00396139
0.00397207
0.00398192
0.00399116
0.00399974
0.00400767
0.00401493
0.00402147
0.00402741
0.00403273
0.00403736
0.0040413
0.00404455
0.00404714
0.00404906
0.00405033
0.00405095
0.00405093
0.00405028
0.004049
0.00404712
0.00404463
0.00404156
0.00403789
0.00403366
0.00402885
0.00402347
0.00401754
0.00401105
0.00400401
0.00399645
0.00398838
0.00397983
0.00397083
0.00396139
0.00395156
0.00394133
0.00393074
0.00391979
0.00390848
0.00389684
0.00388488
0.00387262
0.00386008
0.0038473
0.00383429
0.00382108
0.0038077
0.00379415
0.00378044
0.00376656
0.00375242
0.00373769
0.00372134
0.00370259
7.325e-08
6.40558e-06
4.3048e-05
9.54447e-05
0.000141235
0.000173585
0.000194406
0.000204866
0.000207866
0.000205806
0.000200518
0.000193309
0.000185119
0.000176152
0.000167303
0.000158311
0.000149732
0.000142136
0.000135887
0.000130933
0.000127832
0.000127772
0.000131597
0.000139433
0.000150342
0.000163704
0.000178661
0.000194184
0.000209023
0.000221953
0.000233651
0.000246707
0.000261238
0.000278158
0.000298887
0.000324784
0.000356213
0.000393229
0.000435497
0.000482638
0.000534189
0.000589707
0.000648548
0.00071
0.000773255
0.000837656
0.000902708
0.000968082
0.00103335
0.00109823
0.00116324
0.00122768
0.00129154
0.0013547
0.00141704
0.00147853
0.00153916
0.00159893
0.00165786
0.00171596
0.00177325
0.00182974
0.00188543
0.00194045
0.00199485
0.00204868
0.00210201
0.00215493
0.00220763
0.00226008
0.0023121
0.00236367
0.00241478
0.0024654
0.00251553
0.00256512
0.00261406
0.00266233
0.00270985
0.00275658
0.0028025
0.00284757
0.00289175
0.00293503
0.00297739
0.00301884
0.00305938
0.00309904
0.00313783
0.00317574
0.00321279
0.00324899
0.00328436
0.0033189
0.00335263
0.00338555
0.00341767
0.003449
0.00347956
0.00350935
0.00353838
0.00356666
0.00359419
0.00362098
0.00364704
0.00367238
0.003697
0.00372091
0.00374412
0.00376664
0.00378845
0.00380958
0.00383003
0.0038498
0.0038689
0.00388733
0.0039051
0.00392221
0.00393867
0.00395448
0.00396965
0.00398419
0.0039981
0.00401139
0.00402407
0.00403617
0.00404754
0.00405832
0.00406847
0.004078
0.0040869
0.00409517
0.00410279
0.00410982
0.00411622
0.00412195
0.00412701
0.00413142
0.00413516
0.00413825
0.00414069
0.00414248
0.00414364
0.00414416
0.00414405
0.00414332
0.00414198
0.00414002
0.00413747
0.00413432
0.00413058
0.00412624
0.00412132
0.00411581
0.00410971
0.00410306
0.00409586
0.00408816
0.00407997
0.00407132
0.00406224
0.00405273
0.00404283
0.00403252
0.00402184
0.00401078
0.00399937
0.00398764
0.00397561
0.00396331
0.00395077
0.00393802
0.00392508
0.00391198
0.00389874
0.00388537
0.00387184
0.00385792
0.00384269
0.00382675
1.18297e-07
1.07283e-05
5.555e-05
0.000112402
0.00016024
0.000192505
0.00021015
0.000217021
0.000216552
0.000211407
0.000203542
0.00019413
0.000184311
0.000174832
0.000166139
0.000158778
0.000152574
0.000148726
0.000146889
0.000147302
0.000150293
0.000156039
0.0001644
0.000174945
0.000187044
0.000200191
0.000213558
0.000226251
0.000238513
0.000252128
0.00026774
0.000284998
0.000304818
0.00032858
0.000356914
0.000390172
0.00042824
0.000470834
0.000517571
0.000568072
0.000621947
0.000678752