/*--------------------------------*- C++ -*----------------------------------*\
  =========                 |
  \\      /  F ield         | OpenFOAM: The Open Source CFD Toolbox
   \\    /   O peration     | Website:  https://openfoam.org
    \\  /    A nd           | Version:  13
     \\/     M anipulation  |
\*---------------------------------------------------------------------------*/
FoamFile
{
    format      ascii;
    class       volScalarField;
    location    "1000";
    object      omega;
}
// * * * * * * * * * * * * * * * * * * * * * * * * * * * * * * * * * * * * * //

dimensions      [0 0 -1 0 0 0 0];

internalField   nonuniform List<scalar> 
12225
(
31477.7
31477.7
31477.7
45392.1
44926
55031
46946.1
46650.8
41267
40690.5
31477.7
46435.2
41142.2
43605.3
39311
42314.5
46326.7
46207.1
313999
158840
56688.6
35713.9
24011.3
17627.7
3720.35
22731.1
11205.4
18551.4
18793
19897.1
19075.4
18772
18682
18585.5
17637.1
19707.2
65913.7
46679.4
24735.6
7697.52
13681
17657.4
16456.5
13595.6
10769.7
9498.65
8014.28
8402.09
7971.48
7739.29
7664.4
7710.9
7883.49
7997.64
16852.7
14919.2
16445.3
17953.4
15404.7
11434
8112.51
5676.82
4263.9
3082.15
3438.4
3110.85
2816.2
2715.89
2689.49
2752.53
2781.09
2878.15
4211.62
12087.4
13581.2
11311.3
8203.33
5553.13
3685.72
2489.32
1860.67
1349.3
1551.33
1342.45
1232.86
1219.36
1216.2
1249.44
1265.45
1310.18
1195.06
2576.8
3967.4
3996.58
3250.67
2369.09
1695.47
1242.02
991.546
783.134
876.456
785.417
738.897
736.126
736.463
754.17
763.595
787.774
831.752
0.360694
1084.75
1345.91
1333.58
1140.44
924.103
754.882
654.216
566.288
608.498
568.172
548.585
547.801
548.734
557.592
564.008
575.693
383.835
220.595
441.116
558.784
643.7
664.639
619.7
561.142
519.922
481.168
497.093
478.732
469.69
468.646
468.856
472.668
476.242
482.358
416.983
363.71
402.233
449.564
480.101
481.68
506.495
497.952
475.466
455.214
446.147
438.479
440.632
437.206
435.944
436.384
437.795
439.708
433.927
414.618
425.12
434.859
440.748
442.65
441.729
439.277
435.919
431.826
428.396
425.725
424.199
422.819
422.629
422.287
422.043
422.196
436.165
435.509
434.233
433.53
432.834
431.759
430.221
428.407
426.542
424.64
422.875
421.286
419.891
418.813
417.523
416.709
415.626
415.169
438.591
436.602
434.685
432.932
431.228
429.581
427.886
426.237
424.599
423.045
421.577
420.151
418.913
417.664
416.543
415.364
414.14
413.283
438.912
436.752
434.666
432.731
430.833
429.086
427.335
425.741
424.125
422.674
421.216
419.882
418.599
417.385
416.217
415.088
413.934
412.892
438.982
436.779
434.655
432.677
430.753
428.974
427.226
425.619
424.027
422.572
421.13
419.801
418.506
417.295
416.12
415.001
413.917
412.875
438.996
436.778
434.655
432.659
430.742
428.941
427.207
425.578
424.006
422.53
421.105
419.763
418.472
417.248
416.077
414.958
413.889
412.864
439
436.774
434.656
432.649
430.739
428.926
427.199
425.558
423.995
422.506
421.089
419.736
418.448
417.217
416.046
414.924
413.857
412.834
439.001
436.772
434.655
432.645
430.734
428.919
427.191
425.548
423.982
422.492
421.071
419.718
418.426
417.196
416.019
414.899
413.827
412.806
438.999
436.769
434.65
432.638
430.726
428.908
427.179
425.533
423.966
422.474
421.052
419.697
418.404
417.171
415.994
414.872
413.799
412.776
439
436.771
434.654
432.642
430.731
428.913
427.184
425.539
423.973
422.481
421.06
419.705
418.413
417.18
416.004
414.882
413.811
412.788
439.003
436.771
434.657
432.645
430.737
428.918
427.198
425.561
424.013
422.535
421.139
419.801
418.538
417.322
416.178
415.07
414.033
413.02
439.02
436.752
434.649
432.676
430.801
428.999
427.384
425.89
424.562
423.312
422.215
421.122
420.171
419.168
418.31
417.366
416.618
415.715
439.017
436.148
434.786
433.678
432.129
430.967
429.541
429.663
430.227
431.313
432.312
433.427
434.31
435.021
435.488
435.946
436.341
436.63
438.906
437.375
442.95
448.031
452.341
453.761
460.985
468.111
477.221
486.261
493.556
502.258
507.778
513.566
517.725
521.103
524.211
525.572
459.085
471.175
534.936
568.676
592.802
597.274
607.798
629.054
653.727
680.145
696.856
735.885
724.424
737.788
756.418
770.992
778.97
782.006
932.072
0.367317
752.52
924.117
1061.19
1156.02
1142.75
1258.88
1230.21
1221.67
1200.61
1290.02
1232.54
1319.93
1296.05
1357.95
1324.97
1359.1
2898.51
0.338116
2750.06
4915.5
4947.87
4774.81
4371.73
4295.43
4032.13
3451.63
3071
2616.72
2626.56
2537.68
2460.09
2401.45
2343.25
2281.31
2141.62
3492.27
4876.9
9304.25
11266.5
10908.1
9912.25
9058.89
8403.84
7311.09
5818.07
4860.25
4225.25
3814.64
3538.81
3367.42
3259.77
3220.89
6976.4
16580.1
17716.6
15067.9
13548.1
13388.8
10323.6
9784.57
10303.2
11116.6
8740.03
9289.2
9210.85
8867.57
8109.77
7689.08
7447.52
7061.04
30134.7
23883.2
20271.9
18938.9
21097.8
18920.3
14566.6
16636.1
12876.9
14385.5
14447.4
13324.9
13109.6
12762.6
12186.6
11681.5
11379.2
11436.3
18117.5
22966.7
25221.4
26308
26808.1
26723.3
26517.2
26189.2
25775
25361.7
24964.2
24590
24258.5
23957
23688.7
23453.6
23238.9
23055.3
11463.2
2514.24
2516.41
2518.61
2520.83
2523.07
2525.32
2527.6
2529.9
2532.22
2534.57
2536.93
2539.31
2541.72
2544.15
2546.6
2549.08
2551.57
2554.09
2556.64
2559.2
2561.79
2564.41
2567.05
2569.71
2572.4
2575.12
2577.86
2580.62
2583.41
2586.23
2589.08
2591.95
2594.85
2597.77
2600.73
2603.71
2606.72
2609.76
2612.82
2615.92
2619.05
2622.2
2625.39
2628.61
2631.86
2635.14
2638.45
2641.79
2645.17
2648.58
2652.02
2655.5
2659.01
3225.17
3245.23
3188.97
3149.83
2677.08
3164.84
3346.44
2688.35
3166.1
3235.79
3346.19
3454.03
3537.41
3614.21
3695.22
3767.29
3841.59
3910.76
3980.19
4046.61
4112.53
4176.42
4239.6
4301.23
4362.09
4421.64
4480.39
4538.01
4594.78
4650.54
4705.36
4759.29
4812.19
4864.26
4915.25
4965.37
5014.45
5062.46
5109.39
5155.09
5199.61
5242.79
5284.68
5325.14
5364.24
5401.94
5438.43
5473.98
5509.01
5542.65
5575.17
5606.55
5636.69
5665.76
5693.56
5720.27
5745.71
5770.01
5793.06
5814.92
5835.56
5854.99
5873.24
5890.27
5906.11
5920.7
5934.14
5946.42
5957.73
5967.93
5977.27
5985.51
5993.03
6000.45
6006.05
6007.82
6013.73
6012.92
6017.41
6013.69
6015.97
6013.56
6012.7
6009.47
6005.96
6001.3
5996.03
5989.98
5983.41
5976.25
5968.61
5960.49
5951.96
5943.03
5933.76
5924.15
5914.26
5904.08
5893.65
5882.99
5872.11
5861.1
5849.96
5838.83
5827.73
5816.85
5806.05
5795.44
5784.94
5774.65
5764.44
5754.45
5744.53
5734.85
5725.28
5715.99
5706.83
5697.88
5688.93
5679.93
5670.37
5659.64
5646.84
5629.15
5601.55
5492.43
11463.2
1992.42
993.027
806.92
689.286
615.793
620.919
618.422
606.081
584.584
561.159
537.463
516.385
499.008
487.437
478.965
477.358
486.644
502.849
554.924
635.173
734.181
843.151
951.85
1050.7
1127.1
1176.22
1172.51
1143.22
1068.04
952.724
814.062
673.781
584.72
512.913
468.755
450.738
455.076
467.415
494.393
525.634
558.293
623.844
728.403
851.232
1057.96
1371.8
1662.4
1857.21
1987.09
2043.79
2061.77
2050.55
2022.58
2017.41
1937.17
1881.85
1820.48
1757.32
1746.68
1705.19
1662.17
1677.25
1661.16
1656
1654.39
1652.69
1654.41
1657.48
1661.57
1667.15
1673.22
1680.28
1687.65
1695.59
1703.72
1712.15
1720.66
1729.3
1737.95
1746.6
1755.2
1763.72
1772.15
1780.43
1788.58
1796.55
1804.31
1811.8
1819.08
1825.98
1832.65
1838.95
1844.98
1850.68
1856.13
1861.34
1866.4
1871.43
1876.63
1882.25
1888.62
1896.31
1903.84
1911.16
1918.19
1925.01
1931.57
1937.91
1944.01
1949.87
1955.5
1960.89
1966.05
1970.99
1975.69
1980.17
1984.44
1988.48
1992.31
1995.95
1999.41
2002.7
2005.82
2008.75
2011.51
2014.08
2016.5
2018.6
2020.47
2022.42
2023.83
2025.45
2026.48
2027.87
2028.67
2029.13
2028.76
2028.12
2027.31
2026.34
2025.23
2024
2022.66
2021.21
2019.64
2017.97
2016.2
2014.33
2012.37
2010.32
2008.18
2005.97
2003.69
2001.35
1998.95
1996.51
1994.04
1991.56
1989.07
1986.57
1984.05
1981.52
1978.99
1976.45
1973.91
1971.36
1968.83
1966.3
1963.81
1961.33
1958.92
1956.55
1954.26
1952.09
1950.12
1948.39
1947.34
1945.97
1955.66
11463.2
2007.88
808.027
627.093
663.178
666.338
640.507
587.381
528.577
473.335
424.048
383.456
351.396
326.129
306.659
291.673
281.123
273.362
270.856
273.703
281.537
300.529
331.326
373.516
427.382
486.248
548.51
595.691
632.334
631.64
617.582
578.798
521.116
452.433
398.337
372.312
375.786
390.735
415.267
459.866
540.334
657.301
821.935
1015.99
1183.36
1322.41
1449.92
1527.79
1545.91
1538.42
1489.29
1435.7
1375.97
1321.54
1275.56
1229.92
1196.79
1167.07
1143.22
1128.14
1120.77
1103.78
1102.41
1098.63
1095.67
1095.75
1096.6
1098.39
1100.85
1103.84
1107.31
1111.07
1115.14
1119.37
1123.78
1128.28
1132.86
1137.47
1142.11
1146.74
1151.36
1155.93
1160.46
1164.93
1169.32
1173.63
1177.84
1181.95
1185.96
1189.85
1193.63
1197.32
1200.89
1204.4
1207.83
1211.24
1214.62
1218.03
1221.5
1225.07
1228.76
1232.57
1236.42
1240.11
1243.7
1247.14
1250.47
1253.66
1256.75
1259.7
1262.54
1265.25
1267.84
1270.31
1272.67
1274.9
1277.02
1279.02
1280.9
1282.67
1284.34
1285.91
1287.38
1288.74
1289.99
1291.14
1292.16
1293.07
1293.86
1294.53
1295.14
1295.56
1295.95
1296.17
1296.37
1296.35
1296.14
1295.77
1295.28
1294.68
1294.01
1293.26
1292.44
1291.55
1290.59
1289.56
1288.45
1287.29
1286.05
1284.75
1283.39
1281.97
1280.49
1278.96
1277.39
1275.78
1274.12
1272.43
1270.7
1268.94
1267.13
1265.29
1263.42
1261.51
1259.57
1257.61
1255.61
1253.6
1251.56
1249.52
1247.48
1245.45
1243.47
1241.58
1239.83
1238.34
1237.24
1237.11
1238.33
1248.43
11463.2
2033
993.713
950.037
883.335
758.992
645.191
540.771
458.065
396.331
349.871
313.58
285.322
263.506
246.773
233.975
224.368
217.365
212.662
210.681
211.262
214.868
221.665
235.06
255.586
282.826
316.834
351.342
384.063
407.659
417.855
412.828
396.53
380.28
400.466
464.676
531.469
581.963
637.1
712.881
825.742
964.082
1073.55
1148.28
1212.77
1260.03
1273.8
1227.75
1193.52
1143.51
1093.88
1049.22
1009.54
976.728
949.97
927.977
911.563
898.436
888.821
882.078
879.212
875.002
874.136
873.916
874.323
875.761
877.65
879.992
882.673
885.622
888.79
892.121
895.587
899.149
902.788
906.477
910.203
913.947
917.697
921.442
925.171
928.875
932.548
936.181
939.768
943.305
946.786
950.206
953.564
956.869
960.118
963.318
966.475
969.594
972.683
975.754
978.814
981.871
984.928
987.982
991.017
994.017
996.943
999.765
1002.49
1005.13
1007.67
1010.12
1012.47
1014.73
1016.89
1018.95
1020.91
1022.78
1024.55
1026.22
1027.79
1029.26
1030.63
1031.91
1033.09
1034.18
1035.17
1036.07
1036.87
1037.56
1038.16
1038.65
1039.05
1039.34
1039.55
1039.64
1039.66
1039.56
1039.4
1039.1
1038.68
1038.16
1037.56
1036.87
1036.12
1035.29
1034.4
1033.44
1032.42
1031.34
1030.2
1028.99
1027.72
1026.39
1025
1023.56
1022.06
1020.52
1018.92
1017.28
1015.6
1013.87
1012.1
1010.29
1008.43
1006.54
1004.6
1002.63
1000.62
998.576
996.5
994.398
992.271
990.128
987.973
985.829
983.719
981.682
979.774
978.091
976.773
976.301
977.178
983.185
11463.2
2284.48
1431.75
1161.3
925.109
717.597
554.449
444.726
369.162
315.86
277.916
250.57
230.678
215.903
204.832
196.496
190.254
185.699
182.62
181.073
181.348
182.712
185.705
191.976
202.008
216.681
236.716
259.745
283.678
304.286
318.69
340.148
377.954
460.811
551.015
616.364
677.876
747.722
823.495
895.233
958.51
1013.45
1059.97
1083.84
1087.9
1050.84
1009.48
970.426
933.059
895.599
864.431
837.701
815.621
797.868
783.9
773.145
765.305
759.643
755.895
753.938
753.441
753.225
754.124
755.645
757.627
760.058
762.776
765.742
768.902
772.217
775.655
779.191
782.803
786.474
790.19
793.936
797.703
801.48
805.258
809.029
812.787
816.524
820.237
823.918
827.565
831.173
834.738
838.257
841.734
845.163
848.558
851.91
855.229
858.509
861.76
864.978
868.167
871.322
874.439
877.507
880.512
883.446
886.296
889.06
891.734
894.324
896.821
899.231
901.546
903.769
905.894
907.921
909.847
911.672
913.393
915.012
916.525
917.934
919.236
920.432
921.524
922.512
923.395
924.17
924.84
925.399
925.852
926.196
926.439
926.576
926.613
926.549
926.383
926.11
925.749
925.278
924.7
924.028
923.273
922.436
921.521
920.53
919.467
918.336
917.138
915.872
914.54
913.141
911.679
910.154
908.568
906.925
905.227
903.478
901.679
899.829
897.932
895.986
893.996
891.959
889.879
887.755
885.59
883.387
881.148
878.874
876.568
874.232
871.87
869.49
867.106
864.729
862.381
860.094
857.918
855.934
854.257
853.231
853.347
856.254
11463.2
2870.67
1699.34
1188.74
824.286
582.29
441.479
354.024
300.182
265.759
241.445
222.88
208.116
196.276
186.795
179.293
173.546
169.379
166.647
165.368
165.568
166.794
169.522
174.304
181.398
191.965
207.038
226.493
250.954
285.528
335.81
405.916
506.35
598.789
665.337
726.807
784.266
832.402
871.384
906.179
938.311
952.898
950.453
919.8
891.411
858.209
826.81
797.767
771.735
748.976
730.406
714.973
702.648
693.059
685.896
680.814
677.492
675.911
675.335
675.555
676.815
678.585
680.921
683.666
686.721
690.038
693.548
697.217
701.01
704.905
708.881
712.922
717.015
721.148
725.31
729.494
733.69
737.89
742.088
746.277
750.45
754.604
758.732
762.831
766.898
770.927
774.916
778.864
782.765
786.628
790.446
794.224
797.961
801.655
805.306
808.912
812.47
815.977
819.427
822.809
826.113
829.336
832.474
835.522
838.479
841.343
844.111
846.78
849.349
851.814
854.169
856.414
858.545
860.559
862.456
864.233
865.887
867.418
868.824
870.106
871.263
872.297
873.205
873.989
874.648
875.181
875.59
875.875
876.038
876.083
876.038
875.853
875.555
875.141
874.621
873.99
873.25
872.409
871.474
870.447
869.331
868.129
866.846
865.483
864.048
862.537
860.953
859.296
857.57
855.776
853.918
851.997
850.018
847.983
845.895
843.753
841.56
839.316
837.024
834.684
832.299
829.87
827.4
824.892
822.349
819.771
817.16
814.518
811.85
809.163
806.467
803.776
801.109
798.495
795.974
793.612
791.501
789.88
789.076
789.932
11463.2
3382.23
1751.34
1027.85
647.409
453.677
351.484
294.145
258.526
234.571
217.138
203.685
192.936
183.904
176.259
169.903
164.844
161.094
158.776
157.996
158.625
160.757
164.909
171.382
181.074
194.475
213.686
242.432
286.581
354.304
451.863
545.979
615.653
675.677
727.11
767.329
798.841
825.773
845.591
853.562
845.66
823.031
802.651
776.68
752.844
728.509
706.667
687.334
670.793
656.962
645.775
636.83
629.999
625.057
621.77
620.177
619.645
619.996
621.293
623.293
625.925
629.008
632.472
636.236
640.234
644.419
648.752
653.203
657.75
662.374
667.061
671.798
676.577
681.387
686.221
691.07
695.927
700.784
705.634
710.471
715.289
720.084
724.85
729.583
734.28
738.937
743.551
748.117
752.636
757.103
761.522
765.893
770.21
774.476
778.684
782.836
786.924
790.948
794.902
798.781
802.585
806.301
809.925
813.448
816.871
820.185
823.39
826.475
829.437
832.268
834.972
837.541
839.975
842.27
844.424
846.434
848.298
850.015
851.584
853.004
854.276
855.401
856.377
857.208
857.89
858.428
858.82
859.068
859.168
859.165
859.027
858.74
858.32
857.773
857.102
856.311
855.401
854.378
853.248
852.014
850.68
849.25
847.726
846.11
844.398
842.595
840.709
838.744
836.703
834.589
832.403
830.15
827.835
825.46
823.028
820.538
817.994
815.397
812.749
810.054
807.312
804.526
801.698
798.833
795.932
792.997
790.028
787.028
784.003
780.958
777.903
774.852
771.821
768.835
765.927
763.15
760.572
758.367
756.685
755.98
11463.2
3534.83
1555.57
814.569
514.481
382.475
314.641
273.811
245.961
226.461
211.635
199.659
189.48
180.766
173.387
167.355
162.812
159.954
158.783
159.143
161.108
165.13
171.958
182.362
199.071
225.18
264.459
327.147
408.737
490.098
554.893
610.752
658.831
698.509
729.933
756.213
770.552
774.579
765.777
748.872
732.486
712.996
694.813
675.744
658.02
641.211
626.53
613.935
603.439
594.922
588.25
583.239
579.764
577.89
577.209
577.383
578.597
580.609
583.322
586.613
590.39
594.553
599.03
603.759
608.689
613.782
619.005
624.335
629.751
635.238
640.782
646.373
652
657.655
663.329
669.014
674.704
680.39
686.063
691.716
697.344
702.942
708.504
714.027
719.506
724.936
730.313
735.639
740.904
746.111
751.255
756.338
761.357
766.309
771.191
776
780.732
785.384
789.952
794.433
798.823
803.107
807.279
811.333
815.264
819.067
822.737
826.268
829.656
832.895
835.98
838.907
841.673
844.274
846.707
848.97
851.059
852.974
854.713
856.276
857.663
858.876
859.915
860.782
861.476
862.001
862.356
862.535
862.576
862.481
862.209
861.78
861.201
860.478
859.615
858.615
857.483
856.224
854.844
853.346
851.736
850.017
848.193
846.269
844.25
842.137
839.936
837.648
835.278
832.828
830.302
827.704
825.038
822.31
819.519
816.67
813.762
810.8
807.786
804.724
801.614
798.459
795.262
792.027
788.757
785.451
782.113
778.744
775.35
771.937
768.515
765.094
761.692
758.33
755.034
751.845
748.816
746.045
743.599
741.597
11463.2
3386.95
1284.47
660.099
438.529
340.676
289.436
259.002
238.846
223.027
210.29
199.692
190.736
183.082
176.711
171.81
168.652
167.424
168.306
171.653
177.753
188.204
204.596
228.436
265.673
317.728
381.113
444.153
500.753
550.428
593.276
630.056
661.183
688.508
703.904
707.995
701.684
689.564
675.734
660.657
646.389
631.933
618.144
604.519
591.889
580.445
570.641
562.449
555.821
550.679
546.938
544.606
543.593
543.463
544.361
546.149
548.751
552.047
555.942
560.348
565.184
570.377
575.864
581.593
587.518
593.604
599.822
606.148
612.566
619.058
625.606
632.2
638.828
645.478
652.14
658.806
665.474
672.129
678.763
685.367
691.936
698.463
704.945
711.378
717.755
724.071
730.315
736.477
742.571
748.592
754.547
760.427
766.235
771.964
777.613
783.174
788.646
794.024
799.3
804.467
809.511
814.43
819.215
823.863
828.364
832.716
836.907
840.936
844.793
848.474
851.971
855.282
858.4
861.323
864.047
866.57
868.887
870.999
872.903
874.6
876.091
877.376
878.459
879.34
880.022
880.504
880.785
880.884
880.832
880.579
880.144
879.531
878.75
877.804
876.7
875.443
874.038
872.491
870.808
868.993
867.053
864.991
862.814
860.525
858.132
855.637
853.045
850.36
847.586
844.727
841.787
838.77
835.682
832.526
829.307
826.025
822.684
819.287
815.839
812.341
808.796
805.205
801.572
797.9
794.193
790.451
786.676
782.871
779.043
775.197
771.343
767.49
763.653
759.851
756.106
752.451
748.924
745.618
742.533
739.516
11463.2
2978.55
1041
565.536
401.81
325.57
283.999
257.638
239.825
226.842
216.518
207.832
200.445
194.402
189.909
187.722
187.764
191.112
197.614
207.97
223.205
245.897
277.509
318.424
364.518
411.894
457.366
498.755
535.985
568.753
597.295
623.067
640.841
647.247
645.872
638.203
627.779
616.104
604.657
593.574
583.051
572.683
562.648
553.003
544.191
536.444
529.945
524.704
520.704
517.898
516.416
515.954
516.397
517.809
520.109
523.21
527.033
531.495
536.516
542.023
547.95
554.236
560.825
567.664
574.711
581.928
589.287
596.762
604.343
612.004
619.721
627.477
635.26
643.054
650.841
658.602
666.298
673.96
681.596
689.2
696.762
704.277
711.741
719.15
726.499
733.783
740.999
748.15
755.214
762.19
769.071
775.86
782.553
789.146
795.634
802.012
808.276
814.421
820.439
826.322
832.061
837.651
843.083
848.35
853.445
858.361
863.089
867.623
871.954
876.075
879.981
883.665
887.122
890.35
893.343
896.099
898.616
900.891
902.924
904.716
906.269
907.582
908.661
909.507
910.124
910.508
910.669
910.648
910.404
909.948
909.288
908.429
907.38
906.148
904.738
903.159
901.415
899.513
897.461
895.263
892.927
890.458
887.862
885.145
882.313
879.372
876.327
873.184
869.946
866.618
863.205
859.71
856.141
852.502
848.796
845.027
841.199
837.316
833.381
829.398
825.368
821.293
817.176
813.021
808.83
804.604
800.347
796.062
791.756
787.434
783.105
778.778
774.466
770.185
765.953
761.797
757.745
753.869
750.145
746.184
11463.2
2504.66
874.032
505.486
375.738
316.089
282.248
261.837
248.128
238.007
230.047
223.692
218.905
216.449
216.225
219.385
226.411
236.773
250.122
268.429
292.607
321.921
354.868
389.611
424.157
457.211
487.964
515.753
540.713
563.76
582.495
591.506
593.461
590.578
584.452
576.246
567.604
559.158
551.172
543.493
536.015
528.62
521.45
514.702
508.666
503.528
499.403
496.321
494.375
493.564
493.549
494.554
496.468
499.26
502.879
507.26
512.33
518.021
524.263
530.993
538.151
545.695
553.578
561.727
570.1
578.656
587.358
596.158
604.988
613.846
622.759
631.718
640.705
649.702
658.686
667.647
676.59
685.493
694.348
703.148
711.877
720.532
729.111
737.614
746.037
754.372
762.61
770.74
778.761
786.668
794.464
802.148
809.714
817.161
824.48
831.667
838.717
845.624
852.382
858.98
865.411
871.663
877.731
883.601
889.27
894.724
899.959
904.964
909.731
914.251
918.519
922.526
926.269
929.743
932.945
935.871
938.52
940.89
942.981
944.795
946.332
947.598
948.593
949.325
949.794
950.002
949.983
949.717
949.21
948.469
947.499
946.31
944.909
943.306
941.508
939.523
937.357
935.02
932.518
929.859
927.048
924.094
921.004
917.784
914.44
910.981
907.412
903.739
899.967
896.103
892.15
888.114
884.001
879.815
875.562
871.246
866.873
862.448
857.973
853.453
848.887
844.279
839.628
834.94
830.217
825.461
820.676
815.867
811.039
806.199
801.354
796.512
791.684
786.885
782.129
777.439
772.835
768.377
764.034
759.213
11463.2
2156.38
814.531
492.729
373.223
317.962
289.451
272.709
261.934
254.504
249.302
246.243
245.299
246.826
251.71
260.09
271.574
285.649
303.174
324.051
347.568
372.739
398.473
423.918
448.426
471.166
492.192
512.13
529.485
540.354
544.582
545.168
543.111
538.745
533.268
527.406
521.682
516.184
510.868
505.611
500.375
495.197
490.248
485.732
481.868
478.803
476.631
475.56
475.334
476.047
477.672
480.211
483.628
487.89
492.97
498.841
505.395
512.567
520.295
528.514
537.148
546.088
555.264
564.73
574.464
584.427
594.579
604.883
615.325
625.865
636.444
647.026
657.59
668.121
678.573
688.929
699.183
709.323
719.338
729.231
739.017
748.701
758.29
767.79
777.196
786.499
795.687
804.751
813.684
822.488
831.157
839.691
848.089
856.342
864.445
872.391
880.174
887.789
895.226
902.478
909.533
916.381
923.009
929.409
935.569
941.48
947.133
952.519
957.628
962.451
966.98
971.208
975.131
978.743
982.043
985.027
987.695
990.047
992.081
993.801
995.209
996.308
997.105
997.606
997.816
997.749
997.404
996.788
995.908
994.771
993.383
991.754
989.895
987.815
985.525
983.032
980.346
977.476
974.428
971.213
967.837
964.309
960.636
956.826
952.887
948.827
944.652
940.37
935.988
931.511
926.946
922.296
917.569
912.768
907.901
902.976
897.997
892.971
887.9
882.787
877.633
872.439
867.205
861.935
856.631
851.298
845.94
840.562
835.172
829.773
824.372
818.976
813.594
808.239
802.924
797.668
792.488
787.431
782.483
776.859
11463.2
1887.8
745.208
472.109
371.193
324.684
300.603
286.991
278.846
274.045
271.881
271.546
273.671
278.591
286.331
296.652
309.254
324.104
340.851
358.94
378.014
397.284
416.052
433.913
451.091
467.834
482.8
493.917
499.932
502.513
503.277
502.467
500.209
497.155
493.795
490.376
487.003
483.643
480.267
476.852
473.462
470.202
467.249
464.773
462.949
462.038
461.881
462.698
464.506
467.202
470.768
475.197
480.456
486.494
493.208
500.479
508.442
517.083
526.35
536.181
546.52
557.328
568.571
580.16
592.042
604.17
616.486
628.93
641.462
654.042
666.56
678.952
691.164
703.147
714.906
726.439
737.75
748.849
759.761
770.515
781.131
791.623
802.01
812.307
822.508
832.597
842.563
852.392
862.081
871.616
881.004
890.234
899.307
908.212
916.943
925.492
933.851
942.016
949.975
957.722
965.239
972.52
979.546
986.31
992.795
998.996
1004.9
1010.5
1015.77
1020.73
1025.34
1029.62
1033.55
1037.12
1040.35
1043.22
1045.73
1047.89
1049.7
1051.16
1052.27
1053.04
1053.48
1053.59
1053.39
1052.88
1052.07
1050.95
1049.56
1047.88
1045.94
1043.73
1041.29
1038.6
1035.7
1032.58
1029.25
1025.73
1022.03
1018.15
1014.11
1009.9
1005.55
1001.05
996.42
991.666
986.797
981.818
976.74
971.568
966.309
960.969
955.555
950.065
944.516
938.915
933.269
927.581
921.856
916.094
910.296
904.462
898.594
892.691
886.757
880.8
874.824
868.837
862.843
856.846
850.851
844.864
838.89
832.944
827.037
821.187
815.406
809.734
804.184
797.799
11463.2
1882.46
743.598
474.977
378.842
335.754
314.365
302.935
296.758
293.902
293.173
294.609
298.654
304.979
313.361
323.466
335.021
347.767
361.354
375.434
389.56
403.33
416.925
430.558
442.868
452.432
459.126
463.656
466.5
467.811
468.224
468.053
467.223
466.082
464.787
463.399
461.949
460.442
458.924
457.476
456.277
455.477
455.145
455.284
456.126
457.721
460.038
463.018
466.542
470.93
476.243
482.489
489.649
497.695
506.61
516.418
527.033
538.42
550.501
563.201
576.453
590.195
604.358
618.844
633.575
648.504
663.55
678.568
693.445
708.061
722.371
736.317
749.847
762.935
775.579
787.791
799.588
811.014
822.169
833.156
844.012
854.744
865.394
876.006
886.558
897.002
907.341
917.549
927.615
937.529
947.277
956.858
966.262
975.483
984.51
993.334
1001.95
1010.34
1018.51
1026.44
1034.12
1041.52
1048.65
1055.48
1062
1068.2
1074.07
1079.59
1084.76
1089.56
1093.99
1098.05
1101.71
1104.99
1107.88
1110.38
1112.49
1114.22
1115.56
1116.53
1117.13
1117.36
1117.23
1116.76
1115.95
1114.79
1113.31
1111.51
1109.41
1107.02
1104.35
1101.41
1098.22
1094.78
1091.11
1087.23
1083.13
1078.83
1074.35
1069.68
1064.85
1059.86
1054.71
1049.42
1044
1038.45
1032.79
1027.02
1021.15
1015.2
1009.16
1003.05
996.871
990.619
984.318
977.977
971.601
965.192
958.752
952.283
945.784
939.257
932.702
926.116
919.504
912.879
906.246
899.609
892.973
886.341
879.716
873.102
866.503
859.933
853.405
846.935
840.533
834.229
828.078
820.969
11463.2
1841.93
734.192
478.961
388.521
348.397
328.638
318.172
312.806
310.542
310.162
312.17
316.553
322.718
330.279
338.862
348.256
358.233
368.538
378.932
389.436
400.139
409.658
417.506
423.936
429.283
433.658
437.094
439.816
442.021
443.94
445.732
447.387
448.849
450.165
451.369
452.502
453.596
454.702
455.838
456.959
458.123
459.827
462.275
465.63
469.847
474.939
480.95
487.988
496.004
505.028
515.085
526.153
538.188
551.164
565.072
579.868
595.564
611.945
628.879
646.257
663.97
681.909
699.954
717.982
735.839
753.407
770.611
787.347
803.498
818.968
833.671
847.538
860.612
872.949
884.598
895.555
905.892
915.862
925.821
935.772
945.638
955.506
965.528
975.664
985.823
995.92
1005.91
1015.76
1025.45
1034.97
1044.32
1053.48
1062.45
1071.21
1079.75
1088.08
1096.17
1104.02
1111.62
1118.96
1126.01
1132.76
1139.19
1145.3
1151.05
1156.46
1161.49
1166.15
1170.4
1174.26
1177.71
1180.75
1183.37
1185.57
1187.35
1188.72
1189.7
1190.26
1190.41
1190.2
1189.61
1188.63
1187.29
1185.58
1183.52
1181.13
1178.42
1175.38
1172.06
1168.44
1164.56
1160.42
1156.04
1151.42
1146.59
1141.54
1136.3
1130.86
1125.26
1119.48
1113.54
1107.46
1101.24
1094.88
1088.41
1081.83
1075.14
1068.36
1061.5
1054.57
1047.57
1040.52
1033.44
1026.33
1019.19
1012.02
1004.83
997.621
990.385
983.129
975.853
968.559
961.242
953.911
946.579
939.252
931.93
924.616
917.315
910.026
902.754
895.496
888.273
881.097
873.986
866.947
859.997
853.246
845.449
11463.7
1820.97
733.97
486.647
398.563
359.545
340.646
330.339
324.831
322.439
321.957
323.649
327.474
332.668
338.853
345.706
353.114
360.946
369.11
377.167
384.872
392
398.848
405.349
411.431
417.229
422.743
428.038
433.09
437.895
442.39
446.436
450.06
453.61
457.158
460.754
464.461
468.332
472.451
476.891
481.819
487.419
493.84
501.31
509.857
519.283
529.646
540.979
553.34
566.693
581.073
596.56
613.184
630.716
649.042
668.067
687.649
707.617
727.931
748.502
769.202
789.908
810.495
830.846
850.838
870.356
889.291
907.556
925.06
941.717
957.437
972.129
985.596
998.014
1009.58
1020.38
1030.48
1039.92
1048.79
1057.23
1065.28
1073.12
1080.99
1089.49
1098.34
1107.33
1116.27
1125.09
1133.75
1142.24
1150.56
1158.7
1166.67
1174.44
1182.01
1189.36
1196.49
1203.39
1210.06
1216.5
1222.68
1228.58
1234.19
1239.47
1244.43
1249.04
1253.29
1257.19
1260.68
1263.76
1266.44
1268.72
1270.58
1272.03
1273.02
1273.6
1273.76
1273.56
1272.92
1271.87
1270.45
1268.65
1266.46
1263.92
1261.02
1257.78
1254.22
1250.35
1246.18
1241.72
1236.98
1231.97
1226.72
1221.22
1215.5
1209.57
1203.44
1197.12
1190.62
1183.96
1177.13
1170.16
1163.04
1155.79
1148.43
1140.94
1133.36
1125.68
1117.93
1110.09
1102.2
1094.24
1086.24
1078.24
1070.22
1062.18
1054.12
1046.04
1037.95
1029.84
1021.73
1013.6
1005.47
997.359
989.264
981.184
973.118
965.065
957.027
949.005
941.004
933.027
925.072
917.164
909.315
901.54
893.845
886.236
878.875
870.422
11462.8
1802.34
734.52
492.16
405.548
367.007
348.421
337.967
332.339
329.848
329.283
330.722
334.162
338.849
344.594
351.004
357.962
365.248
372.716
380.468
388.326
396.146
403.852
411.539
419.212
426.989
434.882
442.974
451.194
459.471
467.853
476.461
485.341
494.503
503.99
513.852
524.152
534.938
546.284
558.228
570.885
584.293
598.418
613.126
628.393
644.323
661.006
678.431
696.578
715.409
734.936
755.25
775.954
797.079
818.58
840.375
862.355
884.386
906.359
928.162
949.672
970.796
991.423
1011.46
1030.83
1049.43
1067.19
1084.05
1099.99
1114.96
1128.95
1141.99
1154.08
1165.13
1175.4
1184.97
1193.95
1202.31
1210.01
1216.88
1223.12
1229.07
1235.16
1241.63
1248.15
1254.6
1260.92
1267.08
1273.1
1278.98
1284.74
1290.37
1295.86
1301.19
1306.36
1311.35
1316.17
1320.81
1325.27
1329.54
1333.6
1337.42
1340.98
1344.26
1347.23
1349.9
1352.27
1354.33
1355.99
1357.25
1358.16
1358.7
1358.86
1358.7
1358.04
1357.02
1355.64
1353.91
1351.81
1349.34
1346.52
1343.35
1339.85
1336.02
1331.88
1327.44
1322.71
1317.7
1312.43
1306.89
1301.11
1295.08
1288.83
1282.35
1275.68
1268.81
1261.75
1254.53
1247.14
1239.6
1231.91
1224.09
1216.13
1208.05
1199.86
1191.57
1183.18
1174.7
1166.15
1157.53
1148.84
1140.1
1131.31
1122.48
1113.63
1104.76
1095.86
1086.95
1078.02
1069.08
1060.14
1051.2
1042.26
1033.34
1024.45
1015.59
1006.75
997.919
989.113
980.332
971.582
962.87
954.222
945.64
937.129
928.702
920.364
912.113
904.154
895.112
11461.8
1790.27
736.737
493.956
409.541
371.856
354.143
344.154
339.503
337.793
337.832
340.383
344.669
350.227
356.776
364.4
373.154
382.143
391.572
401.847
413.032
424.998
437.242
450.181
463.85
478.334
493.592
509.644
526.416
544.051
562.509
581.821
601.858
622.515
643.734
665.5
687.815
710.697
734.167
758.009
782.14
806.398
830.592
854.501
878.016
901.246
924.6
947.955
970.989
993.605
1015.72
1036.98
1057.64
1077.86
1097.66
1117.08
1136.09
1154.69
1172.84
1190.47
1207.56
1224.01
1239.79
1254.82
1269.03
1282.37
1294.75
1306.16
1316.58
1326.03
1334.52
1342.15
1349.49
1356.44
1362.82
1368.56
1373.64
1377.89
1381.65
1385.09
1388.36
1391.93
1395.71
1398.89
1401.64
1404.18
1406.58
1408.91
1411.18
1413.43
1415.63
1417.79
1419.9
1421.95
1423.93
1425.83
1427.67
1429.41
1431.07
1432.61
1434.01
1435.25
1436.29
1437.12
1437.73
1438.1
1438.25
1438.22
1437.76
1436.92
1435.85
1434.47
1432.79
1430.78
1428.44
1425.79
1422.84
1419.58
1416.02
1412.16
1408.01