/*--------------------------------*- C++ -*----------------------------------*\
  =========                 |
  \\      /  F ield         | OpenFOAM: The Open Source CFD Toolbox
   \\    /   O peration     | Website:  https://openfoam.org
    \\  /    A nd           | Version:  13
     \\/     M anipulation  |
\*---------------------------------------------------------------------------*/
FoamFile
{
    format      ascii;
    class       volScalarField;
    location    "1000";
    object      p;
}
// * * * * * * * * * * * * * * * * * * * * * * * * * * * * * * * * * * * * * //

dimensions      [0 2 -2 0 0 0 0];

internalField   nonuniform List<scalar> 
12225
(
-4.28576
-5.13818
-5.51871
-5.64111
-5.76906
-5.92141
-6.05508
-6.16594
-6.26414
-6.35226
-6.43564
-6.51322
-6.58592
-6.65602
-6.72288
-6.79547
-6.87851
-6.98291
-4.55577
-5.16472
-5.4864
-5.60729
-5.72987
-5.87819
-6.01966
-6.13228
-6.22977
-6.32243
-6.4056
-6.48222
-6.55779
-6.63216
-6.70336
-6.77154
-6.8445
-6.90676
-4.73162
-5.17026
-5.4755
-5.61769
-5.7436
-5.88713
-6.02364
-6.13409
-6.23042
-6.32115
-6.40408
-6.48109
-6.55514
-6.62668
-6.69403
-6.75737
-6.81998
-6.87264
-4.86691
-5.19306
-5.48055
-5.63125
-5.75196
-5.88566
-6.01524
-6.12404
-6.21966
-6.30926
-6.3919
-6.46826
-6.54051
-6.60928
-6.67415
-6.735
-6.79291
-6.84254
-4.98902
-5.23488
-5.49457
-5.64544
-5.76228
-5.88894
-6.0136
-6.12133
-6.21625
-6.30434
-6.38563
-6.46059
-6.53093
-6.59736
-6.65992
-6.71811
-6.77213
-6.81848
-5.09972
-5.28577
-5.51071
-5.6593
-5.77461
-5.89551
-6.01501
-6.12033
-6.21342
-6.29932
-6.37878
-6.45225
-6.52086
-6.58524
-6.64546
-6.70105
-6.75187
-6.79571
-5.19998
-5.33679
-5.53052
-5.6745
-5.7878
-5.90298
-6.01702
-6.11928
-6.21024
-6.29396
-6.37164
-6.44365
-6.51065
-6.57312
-6.63115
-6.68444
-6.73277
-6.77482
-5.28953
-5.39021
-5.55569
-5.69197
-5.8019
-5.91123
-6.01957
-6.11826
-6.20674
-6.28815
-6.36386
-6.43416
-6.49943
-6.56002
-6.61603
-6.66726
-6.71358
-6.75401
-5.36888
-5.44499
-5.58413
-5.71072
-5.81648
-5.91994
-6.02235
-6.11705
-6.20279
-6.2818
-6.3554
-6.42387
-6.48738
-6.54617
-6.60033
-6.64976
-6.69434
-6.73348
-5.43948
-5.49859
-5.61461
-5.73047
-5.83132
-5.92886
-6.02531
-6.11578
-6.19861
-6.27517
-6.34657
-6.41308
-6.47477
-6.53179
-6.58421
-6.63198
-6.6751
-6.71309
-5.50301
-5.5495
-5.64613
-5.75082
-5.846
-5.9377
-6.02837
-6.11452
-6.1943
-6.26834
-6.33749
-6.40198
-6.46182
-6.51709
-6.56786
-6.61413
-6.65595
-6.69305
-5.55576
-5.59376
-5.67568
-5.77014
-5.85951
-5.94594
-6.03147
-6.11358
-6.1904
-6.26205
-6.32909
-6.39169
-6.44979
-6.50352
-6.55285
-6.59786
-6.63863
-6.67492
-5.60336
-5.63496
-5.70464
-5.78939
-5.87281
-5.95416
-6.03478
-6.1129
-6.18672
-6.25595
-6.32088
-6.38154
-6.43798
-6.49013
-6.53813
-6.58192
-6.62172
-6.6573
-5.65184
-5.678
-5.73633
-5.81095
-5.8876
-5.96338
-6.03877
-6.11246
-6.18286
-6.24932
-6.31179
-6.37029
-6.42477
-6.47524
-6.5217
-6.56424
-6.60297
-6.63786
-5.6994
-5.72087
-5.76932
-5.8341
-5.90344
-5.97335
-6.0433
-6.11232
-6.17889
-6.24223
-6.30195
-6.35807
-6.41039
-6.45903
-6.50388
-6.5451
-6.58275
-6.61689
-5.74309
-5.76083
-5.80121
-5.85712
-5.91926
-5.98324
-6.04789
-6.11213
-6.17475
-6.23467
-6.29156
-6.34506
-6.39526
-6.44191
-6.4852
-6.52502
-6.56169
-6.59507
-5.77898
-5.7939
-5.82825
-5.87704
-5.93285
-5.99147
-6.05127
-6.11115
-6.16991
-6.2266
-6.28061
-6.33171
-6.37972
-6.42459
-6.46629
-6.50492
-6.54056
-6.57334
-5.80089
-5.81412
-5.84477
-5.889
-5.94046
-5.9952
-6.05141
-6.10796
-6.1637
-6.21774
-6.26941
-6.31846
-6.36466
-6.40799
-6.44839
-6.48598
-6.5208
-6.55305
-5.79907
-5.81201
-5.84209
-5.88554
-5.93606
-5.98971
-6.04472
-6.10003
-6.15452
-6.20731
-6.25779
-6.3057
-6.35084
-6.39324
-6.43284
-6.4698
-6.50413
-6.53609
-5.76515
-5.78009
-5.81427
-5.86254
-5.91705
-5.97373
-6.03106
-6.08833
-6.14426
-6.19813
-6.24924
-6.29756
-6.34284
-6.38529
-6.42477
-6.46163
-6.4958
-6.52768
-5.71679
-5.73505
-5.77642
-5.83272
-5.89369
-5.9551
-6.01648
-6.07711
-6.13586
-6.19171
-6.24439
-6.29373
-6.33985
-6.3827
-6.42252
-6.4594
-6.49364
-6.52536
-5.65481
-5.67851
-5.73135
-5.79917
-5.86828
-5.93562
-6.00211
-6.06725
-6.12946
-6.18786
-6.24236
-6.29307
-6.3401
-6.38359
-6.42377
-6.46087
-6.49514
-6.52689
-5.5814
-5.61269
-5.68215
-5.76414
-5.8419
-5.91558
-5.98809
-6.05848
-6.12462
-6.18582
-6.2423
-6.29441
-6.3423
-6.38631
-6.42671
-6.46391
-6.4981
-6.52969
-5.49708
-5.53988
-5.63195
-5.72943
-5.81494
-5.895
-5.97445
-6.05079
-6.12123
-6.18545
-6.2441
-6.29766
-6.34642
-6.39075
-6.4312
-6.46826
-6.50233
-6.53387
-5.3998
-5.46495
-5.58371
-5.69662
-5.788
-5.87402
-5.96076
-6.04333
-6.11829
-6.18597
-6.24729
-6.30265
-6.35241
-6.39712
-6.43738
-6.47386
-6.50724
-6.53801
-5.28985
-5.39121
-5.54362
-5.67239
-5.76886
-5.86045
-5.95312
-6.03986
-6.11757
-6.18757
-6.25105
-6.3081
-6.35904
-6.40452
-6.44518
-6.48171
-6.51486
-6.54551
-5.16818
-5.31083
-5.50819
-5.64795
-5.75184
-5.85385
-5.95419
-6.04459
-6.12376
-6.19432
-6.25791
-6.31466
-6.36499
-6.40964
-6.44941
-6.48509
-6.51748
-6.54794
-5.03843
-5.27673
-5.49313
-5.61973
-5.72549
-5.83994
-5.95055
-6.04729
-6.13093
-6.20484
-6.27059
-6.32868
-6.37962
-6.4241
-6.46319
-6.49799
-6.52974
-6.5606
-4.86325
-5.27163
-5.51837
-5.61986
-5.71622
-5.8335
-5.9466
-6.0438
-6.12787
-6.20287
-6.27001
-6.32941
-6.38128
-6.42609
-6.46468
-6.49815
-6.52801
-6.55512
-4.58903
-5.18923
-5.5011
-5.61414
-5.72059
-5.84942
-5.9706
-6.07125
-6.15675
-6.23278
-6.30106
-6.36107
-6.41252
-6.45638
-6.49301
-6.52327
-6.54874
-6.56915
-7.47603
-7.47613
-7.47618
-7.47618
-7.47591
-7.47476
-7.47237
-7.4692
-7.46619
-7.46429
-7.46445
-7.46686
-7.47105
-7.4763
-7.48186
-7.48708
-7.49144
-7.49454
-7.49631
-7.49707
-7.49709
-7.49657
-7.49573
-7.49481
-7.49406
-7.49358
-7.49334
-7.49317
-7.49293
-7.49252
-7.49197
-7.49128
-7.49043
-7.48931
-7.48795
-7.4865
-7.48545
-7.48548
-7.48697
-7.48954
-7.4923
-7.49446
-7.49589
-7.49701
-7.49831
-7.50026
-7.50328
-7.50679
-7.50987
-7.51233
-7.5164
-7.52594
-7.54495
-7.57318
-7.6087
-7.65053
-7.70003
-7.75759
-7.82159
-7.8903
-7.96134
-8.03233
-8.10191
-8.16924
-8.23346
-8.29365
-8.34938
-8.40056
-8.44716
-8.48922
-8.52684
-8.56013
-8.58919
-8.61411
-8.63499
-8.65189
-8.66487
-8.67395
-8.67913
-8.68045
-8.67785
-8.67135
-8.66086
-8.64646
-8.62796
-8.60535
-8.57834
-8.54683
-8.51054
-8.46941
-8.42353
-8.37275
-8.31688
-8.25573
-8.18913
-8.11696
-8.03912
-7.95558
-7.86633
-7.77123
-7.66986
-7.56181
-7.44685
-7.32494
-7.19602
-7.06011
-6.91718
-6.7673
-6.61054
-6.44698
-6.27675
-6.09999
-5.91685
-5.7275
-5.53214
-5.33098
-5.12432
-4.91246
-4.69571
-4.4742
-4.24817
-4.01787
-3.78372
-3.54604
-3.30524
-3.06156
-2.81536
-2.56683
-2.31637
-2.06415
-1.81056
-1.5558
-1.30023
-1.04404
-0.787568
-0.531042
-0.274789
-0.0188431
0.236749
0.491865
0.74626
0.999754
1.25213
1.50323
1.7529
2.00103
2.24751
2.49226
2.73521
2.9763
3.21549
3.45274
3.68803
3.92132
4.15259
4.38182
4.609
4.83412
5.05719
5.2782
5.49716
5.71408
5.92894
6.14173
6.35241
6.56092
6.76721
6.97118
7.17277
7.37186
7.56834
7.76206
7.95289
8.14065
8.32519
8.50633
8.68405
8.85814
9.03157
9.19485
-7.47715
-7.47733
-7.47767
-7.47803
-7.478
-7.4772
-7.47537
-7.47306
-7.47142
-7.47137
-7.47319
-7.47673
-7.4815
-7.48688
-7.49228
-7.49722
-7.50135
-7.50447
-7.50639
-7.50694
-7.50617
-7.50438
-7.50198
-7.49942
-7.4971
-7.49529
-7.49405
-7.4932
-7.49252
-7.49186
-7.49123
-7.49064
-7.49003
-7.48928
-7.48831
-7.4874
-7.48716
-7.48821
-7.4906
-7.49359
-7.49613
-7.49739
-7.49744
-7.49692
-7.49592
-7.49471
-7.49475
-7.49831
-7.50501
-7.51136
-7.51841
-7.52989
-7.54655
-7.56939
-7.60128
-7.64514
-7.70016
-7.76311
-7.83163
-7.90309
-7.97523
-8.04679
-8.11656
-8.18313
-8.24527
-8.30282
-8.35597
-8.40469
-8.44907
-8.48919
-8.52516
-8.55706
-8.58499
-8.609
-8.62916
-8.64552
-8.65809
-8.66688
-8.67189
-8.67311
-8.67051
-8.66406
-8.65372
-8.63949
-8.62125
-8.59895
-8.57238
-8.54139
-8.50573
-8.46538
-8.42032
-8.37046
-8.31559
-8.25552
-8.19009
-8.11913
-8.04249
-7.95997
-7.87138
-7.77646
-7.67519
-7.56752
-7.45334
-7.33246
-7.2047
-7.06996
-6.92822
-6.77954
-6.62395
-6.46157
-6.29248
-6.11684
-5.93479
-5.74652
-5.55218
-5.35203
-5.14632
-4.93539
-4.71946
-4.49876
-4.27347
-4.0439
-3.81042
-3.5734
-3.33317
-3.09004
-2.8443
-2.59622
-2.3461
-2.09424
-1.84091
-1.58638
-1.33093
-1.07479
-0.818229
-0.561431
-0.304656
-0.0482037
0.207648
0.46286
0.71734
0.970929
1.22342
1.47465
1.72446
1.97275
2.2194
2.46432
2.70745
2.94873
3.1881
3.42555
3.66102
3.89451
4.12597
4.35539
4.58276
4.80807
5.03131
5.2525
5.47163
5.6887
5.90371
6.11664
6.32747
6.53613
6.74258
6.94672
7.14849
7.34777
7.54446
7.73843
7.92955
8.11769
8.30275
8.48456
8.66327
8.83806
9.01392
9.17665
-7.47839
-7.47839
-7.47842
-7.4785
-7.47856
-7.47857
-7.47876
-7.47963
-7.48167
-7.48497
-7.48936
-7.49448
-7.49995
-7.50534
-7.5103
-7.51455
-7.51789
-7.5202
-7.52141
-7.52146
-7.52036
-7.51821
-7.5152
-7.51152
-7.50741
-7.50312
-7.49892
-7.49507
-7.49178
-7.48914
-7.48713
-7.48558
-7.48419
-7.4829
-7.48204
-7.48226
-7.48416
-7.48779
-7.49221
-7.49585
-7.49723
-7.49585
-7.49309
-7.49101
-7.49062
-7.49119
-7.49281
-7.49819
-7.50826
-7.52231
-7.54106
-7.56546
-7.59557
-7.63161
-7.67418
-7.72369
-7.77921
-7.83894
-7.90128
-7.9646
-8.02768
-8.08978
-8.15024
-8.20833
-8.2634
-8.31512
-8.36338
-8.40806
-8.44914
-8.48658
-8.52039
-8.55057
-8.57712
-8.60005
-8.61937
-8.63507
-8.64714
-8.65558
-8.66036
-8.66146
-8.65882
-8.65241
-8.64219
-8.62812
-8.61013
-8.58813
-8.56197
-8.53148
-8.49644
-8.45678
-8.41251
-8.36349
-8.30951
-8.25043
-8.18606
-8.11625
-8.04082
-7.95958
-7.87232
-7.7788
-7.67892
-7.5726
-7.45977
-7.34024
-7.21386
-7.08053
-6.94023
-6.79297
-6.63881
-6.47784
-6.31015
-6.13589
-5.95517
-5.76821
-5.57514
-5.37623
-5.17172
-4.96193
-4.74707
-4.52738
-4.30304
-4.07441
-3.84181
-3.60565
-3.36621
-3.12383
-2.87875
-2.63131
-2.38176
-2.13043
-1.87757
-1.62348
-1.3684
-1.11262
-0.856359
-0.599879
-0.34341
-0.0872289
0.168471
0.423588
0.67801
0.931542
1.18401
1.43523
1.68505
1.93336
2.18005
2.42502
2.66821
2.90955
3.14899
3.3865
3.62205
3.8556
4.08714
4.31663
4.54407
4.76944
4.99274
5.21396
5.43313
5.65021
5.86523
6.07814
6.28895
6.49758
6.70399
6.9081
7.10982
7.30905
7.50571
7.69965
7.89078
8.07892
8.26399
8.4459
8.62504
8.80007
8.97858
9.13702
-7.47947
-7.47921
-7.47886
-7.47886
-7.47993
-7.48247
-7.48635
-7.49122
-7.49674
-7.50258
-7.50849
-7.51423
-7.51961
-7.52442
-7.52852
-7.53177
-7.53406
-7.53534
-7.53556
-7.53471
-7.53279
-7.52987
-7.52604
-7.52136
-7.51593
-7.50988
-7.50338
-7.49668
-7.49011
-7.48402
-7.47869
-7.4743
-7.47102
-7.4692
-7.46955
-7.47257
-7.4777
-7.48331
-7.48763
-7.48971
-7.48953
-7.48808
-7.48719
-7.488
-7.49106
-7.49695
-7.5064
-7.52027
-7.5391
-7.56298
-7.59165
-7.62469
-7.66187
-7.70288
-7.74751
-7.79557
-7.84669
-7.90023
-7.95539
-8.01129
-8.06714
-8.12229
-8.17617
-8.22828
-8.27817
-8.3255
-8.37003
-8.4116
-8.45008
-8.48538
-8.51743
-8.54618
-8.57158
-8.5936
-8.61219
-8.62734
-8.63901
-8.64716
-8.65176
-8.65277
-8.65015
-8.64384
-8.63379
-8.61996
-8.60227
-8.58065
-8.55497
-8.52505
-8.49068
-8.45183
-8.40841
-8.36029
-8.30729
-8.24924
-8.18595
-8.11725
-8.04297
-7.96291
-7.87688
-7.78467
-7.68616
-7.58123
-7.46973
-7.35152
-7.22645
-7.09444
-6.95546
-6.80953
-6.65669
-6.49701
-6.3306
-6.15756
-5.97806
-5.79225
-5.60033
-5.40252
-5.19909
-4.9903
-4.77637
-4.55755
-4.33404
-4.10622
-3.87443
-3.63902
-3.40029
-3.15856
-2.91409
-2.66721
-2.41818
-2.16732
-1.91489
-1.6612
-1.40647
-1.15101
-0.895023
-0.638803
-0.382578
-0.126605
0.128965
0.384
0.638364
0.891849
1.14428
1.39548
1.64531
1.89362
2.14033
2.38533
2.62856
2.86993
3.10942
3.34697
3.58256
3.81615
4.04773
4.27726
4.50474
4.73014
4.95346
5.17469
5.39385
5.61092
5.8259
6.03878
6.24953
6.4581
6.66443
6.86845
7.07008
7.26921
7.46575
7.6596
7.85064
8.03874
8.22384
8.40581
8.58514
8.75993
8.93913
9.09126
-7.48165
-7.48109
-7.48071
-7.48201
-7.48596
-7.49196
-7.49898
-7.5063
-7.51347
-7.52023
-7.52643
-7.532
-7.5369
-7.54105
-7.54436
-7.54676
-7.54817
-7.54856
-7.54789
-7.54615
-7.54333
-7.53947
-7.53462
-7.52883
-7.52216
-7.51468
-7.50646
-7.49769
-7.48863
-7.4797
-7.47149
-7.46467
-7.46008
-7.4587
-7.46095
-7.46559
-7.47065
-7.47508
-7.47839
-7.48059
-7.48227
-7.48441
-7.4882
-7.49459
-7.50458
-7.51892
-7.5377
-7.56045
-7.58679
-7.61649
-7.64921
-7.68473
-7.72298
-7.76384
-7.80724
-7.85297
-7.90072
-7.95004
-8.00041
-8.05123
-8.10198
-8.15214
-8.20126
-8.24894
-8.2948
-8.33856
-8.37997
-8.41884
-8.45501
-8.48835
-8.51875
-8.5461
-8.57034
-8.5914
-8.6092
-8.6237
-8.63486
-8.64261
-8.64693
-8.64775
-8.64504
-8.63873
-8.62877
-8.6151
-8.59766
-8.57636
-8.5511
-8.52169
-8.48798
-8.44982
-8.40723
-8.35997
-8.30791
-8.25083
-8.18858
-8.12095
-8.04777
-7.96885
-7.88397
-7.793
-7.69571
-7.592
-7.48165
-7.36457
-7.24059
-7.10967
-6.97176
-6.82689
-6.67508
-6.5164
-6.35096
-6.17885
-6.00026
-5.81529
-5.62421
-5.42719
-5.22453
-5.01642
-4.80314
-4.58487
-4.36195
-4.13467
-3.90345
-3.66853
-3.43031
-3.18899
-2.94497
-2.69844
-2.44979
-2.19924
-1.94714
-1.6937
-1.43924
-1.18398
-0.928222
-0.672176
-0.41613
-0.160264
0.0952167
0.350204
0.604502
0.857943
1.11031
1.36147
1.61124
1.85953
2.1062
2.35118
2.59438
2.83574
3.0752
3.31274
3.5483
3.78188
4.01344
4.24296
4.47041
4.69578
4.91907
5.14028
5.3594
5.57643
5.79137
6.0042
6.21489
6.4234
6.62967
6.83362
7.03519
7.23427
7.43078
7.62458
7.8156
8.00369
8.18881
8.37072
8.54996
8.72404
8.9028
9.04808
-7.48573
-7.48485
-7.4853
-7.48946
-7.49653
-7.50466
-7.5129
-7.52081
-7.52812
-7.53475
-7.5407
-7.54594
-7.55042
-7.55407
-7.55682
-7.5586
-7.55936
-7.55908
-7.55772
-7.55528
-7.55177
-7.54719
-7.54159
-7.53495
-7.52728
-7.51866
-7.50923
-7.49917
-7.48872
-7.47845
-7.46917
-7.46187
-7.4577
-7.45702
-7.45876
-7.46137
-7.46423
-7.4675
-7.47145
-7.47634
-7.48215
-7.48949
-7.49968
-7.51363
-7.5314
-7.5527
-7.57718
-7.60457
-7.63453
-7.66687
-7.70138
-7.73794
-7.77646
-7.81683
-7.85895
-7.90264
-7.94765
-7.99367
-8.04032
-8.08724
-8.13401
-8.18028
-8.22569
-8.26989
-8.31258
-8.35348
-8.39234
-8.42897
-8.46318
-8.49482
-8.52374
-8.54982
-8.57296
-8.59307
-8.61007
-8.62389
-8.63447
-8.64176
-8.64571
-8.64627
-8.64338
-8.63699
-8.62704
-8.61347
-8.59622
-8.57521
-8.55032
-8.52141
-8.48825
-8.45083
-8.40896
-8.36255
-8.31138
-8.25525
-8.19397
-8.12736
-8.05521
-7.97732
-7.89353
-7.80361
-7.70739
-7.60469
-7.49531
-7.37913
-7.25601
-7.12592
-6.98882
-6.84472
-6.69364
-6.53567
-6.37087
-6.19938
-6.02133
-5.8369
-5.6463
-5.44976
-5.24751
-5.03977
-4.82679
-4.60881
-4.38616
-4.15918
-3.92822
-3.69358
-3.45558
-3.21449
-2.97066
-2.72433
-2.47585
-2.22548
-1.97352
-1.72023
-1.46591
-1.21078
-0.955134
-0.699212
-0.443265
-0.187472
0.0679646
0.322906
0.577149
0.83052
1.08281
1.33388
1.58356
1.83176
2.07834
2.32322
2.56632
2.80759
3.04695
3.28439
3.51985
3.75333
3.98479
4.2142
4.44154
4.66681
4.89
5.11109
5.33011
5.54704
5.76188
5.97461
6.18522
6.39364
6.59983
6.80371
7.00521
7.20423
7.40069
7.59446
7.78544
7.97349
8.15853
8.34027
8.51921
8.69233
8.87048
9.00907
-7.49087
-7.49039
-7.49285
-7.49963
-7.50806
-7.51648
-7.52451
-7.53203
-7.539
-7.54536
-7.55106
-7.55603
-7.5602
-7.56349
-7.56585
-7.56721
-7.56754
-7.5668
-7.56499
-7.56209
-7.55812
-7.5531
-7.54696
-7.53965
-7.53126
-7.52197
-7.51197
-7.50151
-7.49095
-7.48095
-7.4725
-7.46654
-7.46312
-7.46133
-7.46056
-7.46093
-7.4629
-7.46687
-7.47265
-7.48032
-7.49059
-7.50395
-7.52048
-7.54005
-7.56252
-7.58762
-7.61509
-7.64474
-7.67643
-7.71001
-7.74532
-7.78223
-7.82062
-7.86036
-7.90135
-7.94342
-7.98638
-8.03002
-8.07405
-8.11822
-8.16222
-8.20575
-8.2485
-8.2902
-8.33056
-8.36932
-8.40625
-8.44114
-8.47379
-8.50403
-8.5317
-8.55668
-8.57883
-8.59805
-8.61427
-8.62739
-8.63736
-8.64413
-8.64765
-8.64787
-8.64473
-8.6382
-8.6282
-8.61468
-8.59757
-8.5768
-8.55226
-8.52378
-8.49121
-8.45439
-8.41328
-8.36768
-8.31735
-8.26213
-8.20178
-8.13612
-8.06495
-7.98803
-7.90521
-7.81623
-7.72093
-7.61905
-7.51045
-7.39496
-7.27251
-7.14302
-7.00648
-6.86288
-6.71227
-6.5547
-6.39025
-6.21907
-6.04127
-5.85708
-5.66666
-5.47029
-5.26813
-5.06046
-4.84747
-4.62953
-4.40688
-4.17997
-3.94902
-3.71444
-3.47642
-3.23539
-2.99154
-2.74527
-2.49678
-2.24647
-1.99451
-1.74128
-1.48697
-1.23191
-0.976308
-0.720462
-0.464553
-0.208814
0.0466051
0.30149
0.555682
0.808952
1.06115
1.31208
1.56165
1.80968
2.05612
2.30084
2.54378
2.78486
3.02406
3.2613
3.4966
3.7299
3.96118
4.1904
4.41755
4.64263
4.86564
5.08655
5.30539
5.52215
5.73684
5.94944
6.15991
6.36822
6.57429
6.77807
6.97948
7.17843
7.37483
7.56855
7.75948
7.94747
8.13238
8.31388
8.4924
8.66454
8.84216
8.97449
-7.49498
-7.49566
-7.50056
-7.50844
-7.51662
-7.52445
-7.53195
-7.53908
-7.54577
-7.55191
-7.55741
-7.56219
-7.56616
-7.56925
-7.57138
-7.57252
-7.57261
-7.57163
-7.56958
-7.56646
-7.56227
-7.55695
-7.5504
-7.54277
-7.53429
-7.52509
-7.51535
-7.50542
-7.49588
-7.48756
-7.48094
-7.47573
-7.47126
-7.46756
-7.4655
-7.46559
-7.46791
-7.47299
-7.4812
-7.49253
-7.50688
-7.52407
-7.544
-7.56649
-7.59132
-7.61832
-7.64731
-7.67814
-7.71068
-7.74479
-7.78035
-7.81722
-7.85531
-7.8945
-7.93466
-7.97565
-8.0173
-8.05944
-8.10185
-8.1443
-8.18654
-8.22831
-8.26934
-8.30938
-8.34817
-8.38547
-8.42104
-8.45467
-8.48616
-8.51532
-8.54199
-8.56603
-8.5873
-8.60571
-8.62116
-8.63358
-8.64292
-8.64912
-8.65215
-8.65196
-8.64851
-8.64176
-8.63165
-8.61812
-8.60111
-8.58054
-8.55631
-8.52827
-8.4962
-8.46005
-8.41964
-8.37481
-8.32532
-8.27096
-8.21151
-8.14676
-8.07649
-8.0005
-7.91854
-7.83041
-7.73585
-7.63466
-7.52665
-7.41169
-7.2897
-7.16062
-7.02442
-6.8811
-6.73071
-6.57329
-6.40895
-6.23781
-6.06002
-5.87577
-5.6853
-5.4888
-5.28649
-5.07861
-4.86541
-4.64724
-4.42443
-4.19733
-3.96622
-3.73146
-3.49331
-3.25211
-3.00814
-2.76173
-2.51316
-2.26275
-2.01073
-1.75744
-1.5031
-1.24801
-0.992418
-0.736575
-0.480678
-0.224946
0.0304498
0.285293
0.539405
0.792571
1.04464
1.29542
1.54481
1.79267
2.0389
2.28341
2.52613
2.76698
3.00593
3.24294
3.478
3.71105
3.94208
4.17104
4.39793
4.62274
4.84548
5.06615
5.28475
5.50129
5.71578
5.92819
6.13849
6.34664
6.55257
6.75622
6.95752
7.15639
7.35271
7.54637
7.73724
7.92514
8.10991
8.29112
8.46921
8.64039
8.81761
8.94428
-7.49637
-7.49856
-7.505
-7.51269
-7.52021
-7.52754
-7.5347
-7.54159
-7.54811
-7.55414
-7.55957
-7.5643
-7.56822
-7.57126
-7.57336
-7.57445
-7.57453
-7.57354
-7.57149
-7.56836
-7.56412
-7.55869
-7.55214
-7.54473
-7.53666
-7.52807
-7.51932
-7.51086
-7.5031
-7.49627
-7.49015
-7.48449
-7.47935
-7.47536
-7.47344
-7.47415
-7.47789
-7.48494
-7.49526
-7.50859
-7.52483
-7.54375
-7.56517
-7.58891
-7.61477
-7.64261
-7.67226
-7.7036
-7.7365
-7.77081
-7.80645
-7.84328
-7.8812
-7.92009
-7.95982
-8.00026
-8.04126
-8.08265
-8.12423
-8.16579
-8.2071
-8.24793
-8.28803
-8.32715
-8.36504
-8.40147
-8.4362
-8.46901
-8.4997
-8.52808
-8.55397
-8.57722
-8.59772
-8.61537
-8.63007
-8.64177
-8.65043
-8.656
-8.65846
-8.6578
-8.65397
-8.64694
-8.63666
-8.62306
-8.60609
-8.58569
-8.56174
-8.53411
-8.5026
-8.46703
-8.42736
-8.38328
-8.33461
-8.28109
-8.22252
-8.15865
-8.08924
-8.0141
-7.93292
-7.84551
-7.75156
-7.65092
-7.54334
-7.42878
-7.30708
-7.17824
-7.04219
-6.89896
-6.74858
-6.5911
-6.42665
-6.25532
-6.07732
-5.89281
-5.70205
-5.50519
-5.30251
-5.09419
-4.88062
-4.66203
-4.43889
-4.2114
-3.98
-3.74488
-3.50647
-3.26496
-3.02077
-2.77411
-2.52538
-2.27476
-2.02263
-1.76919
-1.5148
-1.25964
-1.00403
-0.748143
-0.492247
-0.2365
0.0188574
0.273654
0.527652
0.780699
1.03259
1.2832
1.53237
1.78001
2.02598
2.27024
2.51268
2.75325
2.9919
3.22861
3.46336
3.69613
3.92684
4.15548
4.38204
4.60654
4.82896
5.04932
5.26764
5.48392
5.69817
5.91037
6.12049
6.32845
6.53423
6.73774
6.93893
7.13769
7.33394
7.52755
7.71836
7.90616
8.09077
8.27169
8.44936
8.61963
8.79655
8.91823
-7.49354
-7.49702
-7.50375
-7.51095
-7.51813
-7.52526
-7.5323
-7.53914
-7.54567
-7.55176
-7.5573
-7.56216
-7.56624
-7.56945
-7.57172
-7.573
-7.57323
-7.57239
-7.57048
-7.56747
-7.56334
-7.55812
-7.55197
-7.54514
-7.53786
-7.5304
-7.52307
-7.51597
-7.50914
-7.50266
-7.49656
-7.49099
-7.48636
-7.48333
-7.48257
-7.48451
-7.48942
-7.49746
-7.50861
-7.5227
-7.53961
-7.55912
-7.58103
-7.60516
-7.63135
-7.65944
-7.68931
-7.72082
-7.75385
-7.78829
-7.82403
-7.86094
-7.89891
-7.93782
-7.97755
-8.01795
-8.05888
-8.10015
-8.14159
-8.18297
-8.22408
-8.26467
-8.30451
-8.34334
-8.38092
-8.41699
-8.45134
-8.48372
-8.51393
-8.54175
-8.56703
-8.58961
-8.60938
-8.62625
-8.64016
-8.65107
-8.65895
-8.66381
-8.66564
-8.66443
-8.66017
-8.65281
-8.64231
-8.62861
-8.61165
-8.59139
-8.56773
-8.54053
-8.50951
-8.47463
-8.43563
-8.39234
-8.34447
-8.29179
-8.23406
-8.17103
-8.10245
-8.02807
-7.94761
-7.86079
-7.76737
-7.66712
-7.55989
-7.44557
-7.32405
-7.19529
-7.05925
-6.91594
-6.76539
-6.60769
-6.44294
-6.27126
-6.09285
-5.90792
-5.71667
-5.51929
-5.31604
-5.10717
-4.89302
-4.67393
-4.45027
-4.22232
-3.99045
-3.75492
-3.51609
-3.27423
-3.02969
-2.78275
-2.53375
-2.28291
-2.03058
-1.77699
-1.52247
-1.26725
-1.01157
-0.755652
-0.499723
-0.24398
0.0113446
0.266054
0.519933
0.772815
1.02452
1.27491
1.52384
1.77121
2.0169
2.26084
2.50296
2.74319
2.98149
3.21785
3.45227
3.68469
3.91503
4.14329
4.36947
4.59358
4.81563
5.03564
5.25362
5.4696
5.68358
5.89556
6.10545
6.31322
6.51881
6.72217
6.92323
7.12189
7.31807
7.51161
7.70237
7.89006
8.07451
8.25513
8.43238
8.60182
8.77846
8.89587
-7.48469
-7.48884
-7.49539
-7.50254
-7.50986
-7.51716
-7.52435
-7.53137
-7.53811
-7.54446
-7.55029
-7.55545
-7.55983
-7.56334
-7.56589
-7.56743
-7.56792
-7.56735
-7.5657
-7.563
-7.55927
-7.55464
-7.54927
-7.5434
-7.53716
-7.53069
-7.52412
-7.51758
-7.51112
-7.50488
-7.49915
-7.49427
-7.49063
-7.48866
-7.48887
-7.49166
-7.49727
-7.50581
-7.51731
-7.53165
-7.5487
-7.56826
-7.59018
-7.61428
-7.64043
-7.66851
-7.69839
-7.72996
-7.7631
-7.79771
-7.83365
-7.87082
-7.90911
-7.94839
-7.98853
-8.02937
-8.07075
-8.11249
-8.15438
-8.1962
-8.23773
-8.2787
-8.31886
-8.35793
-8.39566
-8.43179
-8.46608
-8.4983
-8.52821
-8.55563
-8.58038
-8.60233
-8.62136
-8.63743
-8.65048
-8.6605
-8.66752
-8.67157
-8.67269
-8.67088
-8.66612
-8.65839
-8.64762
-8.63377
-8.61679
-8.59666
-8.57329
-8.5465
-8.51608
-8.4818
-8.44356
-8.40105
-8.35398
-8.30213
-8.24522
-8.183
-8.11521
-8.04153
-7.96171
-7.87539
-7.7824
-7.68246
-7.57549
-7.4613
-7.33986
-7.21106
-7.07491
-6.93139
-6.78055
-6.62249
-6.4573
-6.28515
-6.10621
-5.92071
-5.72882
-5.5308
-5.32685
-5.11733
-4.90251
-4.68285
-4.45856
-4.23009
-3.99765
-3.76167
-3.52235
-3.28012
-3.03518
-2.78795
-2.53862
-2.28758
-2.035
-1.78127
-1.5266
-1.27131
-1.01556
-0.75961
-0.503648
-0.247936
0.0073366
0.261921
0.515656
0.768332
1.01982
1.26995
1.51861
1.76566
2.01103
2.25461
2.49636
2.7362
2.97409
3.21004
3.44409
3.67612
3.90605
4.13387
4.35962
4.5833
4.80495
5.02457
5.2422
5.45785
5.67156
5.8833
6.09297
6.30053
6.50594
6.70914
6.91007
7.10864
7.30475
7.49826
7.68896
7.87656
8.06083
8.24118
8.41803
8.58671
8.7631
8.87693
-7.46836
-7.47259
-7.47931
-7.48715
-7.49513
-7.50288
-7.51042
-7.51775
-7.52485
-7.53161
-7.53787
-7.54346
-7.54824
-7.55212
-7.55504
-7.55696
-7.55785
-7.55772
-7.55657
-7.55444
-7.55141
-7.54757
-7.54305
-7.53798
-7.53249
-7.52667
-7.52062
-7.51446
-7.50837
-7.50263
-7.4975
-7.49329
-7.49036
-7.48915
-7.49009
-7.49347
-7.49954
-7.50838
-7.52001
-7.53433
-7.55124
-7.5706
-7.59227
-7.61614
-7.6421
-7.67004
-7.69987
-7.73148
-7.76476
-7.79961
-7.83591
-7.87357
-7.91247
-7.95248
-7.99345
-8.03519
-8.07752
-8.12022
-8.16308
-8.20585
-8.24828
-8.29008
-8.33097
-8.37068
-8.40893
-8.44543
-8.47993
-8.51218
-8.54195
-8.56904
-8.59329
-8.61457
-8.63279
-8.64794
-8.65999
-8.66898
-8.67499
-8.6781
-8.67838
-8.67588
-8.67057
-8.66242
-8.65135
-8.63729
-8.62025
-8.60021
-8.57714
-8.55083
-8.521
-8.48747
-8.44998
-8.40825
-8.362
-8.31097
-8.25488
-8.19348
-8.12643
-8.05343
-7.97415
-7.88831
-7.79564
-7.69598
-7.58918
-7.4751
-7.35365
-7.22476
-7.0884
-6.94459
-6.79338
-6.63487
-6.46918
-6.29646
-6.11692
-5.93076
-5.73817
-5.5394
-5.33471
-5.12446
-4.90899
-4.68867
-4.46379
-4.23474
-4.00178
-3.76529
-3.52552
-3.28287
-3.03758
-2.79002
-2.54043
-2.28914
-2.03636
-1.78244
-1.52765
-1.27225
-1.01643
-0.760445
-0.504489
-0.248819
0.00634887
0.260792
0.514332
0.766784
1.018
1.26784
1.51617
1.76287
2.00786
2.25105
2.49238
2.73178
2.96922
3.20474
3.4384
3.67003
3.8995
4.12684
4.3521
4.57532
4.79652
5.01573
5.23298
5.44828
5.66171
5.87322
6.08265
6.28998
6.49519
6.69823
6.89903
7.09751
7.29355
7.48704
7.6777
7.86521
8.04931
8.22938
8.40586
8.57386
8.74998
8.86094
-7.44417
-7.44825
-7.45582
-7.46497
-7.47392
-7.48224
-7.49018
-7.49796
-7.50563
-7.51305
-7.51997
-7.52614
-7.53143
-7.53578
-7.53917
-7.54159
-7.54304
-7.54351
-7.54302
-7.54161
-7.53934
-7.53629
-7.53255
-7.5282
-7.52332
-7.51802
-7.51243
-7.50674
-7.50116
-7.4959
-7.49125
-7.48757
-7.48524
-7.48464
-7.48612
-7.48993
-7.49628
-7.50521
-7.51676
-7.53084
-7.54741
-7.56635
-7.58761
-7.61109
-7.63674
-7.66448
-7.69424
-7.72592
-7.75943
-7.79466
-7.83151
-7.86989
-7.90967
-7.95069
-7.9928
-8.03579
-8.07945
-8.12354
-8.16781
-8.21196
-8.25569
-8.2987
-8.34067
-8.38132
-8.42033
-8.45741
-8.49228
-8.52469
-8.55439
-8.58113
-8.60474
-8.62512
-8.64227
-8.65622
-8.66699
-8.67468
-8.67944
-8.68146
-8.68082
-8.6776
-8.67175
-8.66323
-8.65189
-8.63765
-8.62053
-8.60063
-8.5779
-8.5521
-8.52293
-8.49007
-8.45339
-8.41246
-8.36702
-8.31682
-8.26158
-8.201
-8.13469
-8.06236
-7.98358
-7.89818
-7.80582
-7.70644
-7.59978
-7.4858
-7.36432
-7.23531
-7.09871
-6.95458
-6.80297
-6.64397
-6.47775
-6.30444
-6.12428
-5.93741
-5.7441
-5.54454
-5.33914
-5.12818
-4.91211
-4.69114
-4.46572
-4.23607
-4.00264
-3.76562
-3.52546
-3.28236
-3.03677
-2.78888
-2.53911
-2.28762
-2.03475
-1.7807
-1.52584
-1.27034
-1.01451
-0.758525
-0.502649
-0.24709
0.00789225
0.262124
0.515392
0.767557
1.01843
1.26792
1.51585
1.76215
2.00669
2.24944
2.49028
2.7292
2.96616
3.20126
3.43457
3.66582
3.89478
4.1216
4.34635
4.56909
4.78984
5.00863
5.22549
5.44045
5.65366
5.86498
6.07419
6.28127
6.48628
6.68916
6.88985
7.08825
7.28426
7.47775
7.66841
7.85582
8.03976
8.21957
8.39571
8.56309
8.7389
8.84764
-7.41312
-7.41748
-7.42646
-7.43728
-7.44729
-7.45624
-7.46486
-7.47335
-7.48169
-7.48986
-7.49768
-7.50473
-7.51067
-7.51546
-7.51931
-7.52228
-7.52435
-7.5255
-7.52574
-7.52509
-7.52358
-7.52129
-7.51824
-7.51453
-7.51022
-7.50548
-7.50041
-7.4952
-7.49005
-7.48524
-7.48108
-7.47792
-7.47611
-7.47597
-7.4778
-7.48181
-7.48816
-7.49691
-7.5081
-7.5217
-7.53772
-7.55607
-7.57675
-7.59969
-7.6249
-7.65233
-7.68193
-7.71363
-7.74735
-7.78303
-7.82057
-7.85985
-7.90073
-7.94306
-7.98661
-8.03119
-8.07653
-8.12236
-8.16836
-8.2142
-8.25952
-8.30398
-8.34724
-8.38893
-8.42875
-8.46639
-8.50155
-8.53396
-8.56334
-8.58944
-8.61206
-8.63119
-8.64691
-8.65934
-8.66851
-8.67454
-8.67777
-8.67856
-8.67707
-8.67326
-8.66709
-8.65841
-8.64704
-8.63281
-8.61578
-8.59611
-8.57376
-8.54846
-8.51977
-8.48765
-8.45166
-8.41148
-8.36683
-8.31744
-8.26305
-8.20327
-8.13773
-8.06598
-7.98771
-7.90265
-7.81062
-7.71145
-7.60497
-7.49105
-7.36953
-7.24035
-7.10348
-6.95898
-6.80693
-6.64745
-6.48068
-6.30679
-6.12597
-5.93841
-5.74437
-5.54416
-5.33812
-5.12658
-4.90988
-4.68833
-4.4623
-4.23208
-3.99805
-3.76049
-3.51982
-3.2763
-3.03032
-2.78215
-2.53216
-2.28059
-2.02777
-1.77388
-1.51917
-1.26383
-1.00813
-0.752314
-0.496653
-0.24138
0.0132762
0.267125
0.519981
0.771685
1.02208
1.27104
1.51842
1.76414
2.0081
2.25021
2.49043
2.72869
2.96501
3.19952
3.43235
3.66309
3.89146
4.11769
4.34189
4.56412
4.7844
5.00275
5.21921
5.43384
5.64688
5.85812
6.06715
6.27402
6.47883
6.68157
6.88216
7.08051
7.2765
7.47004
7.66075
7.8481
8.03188
8.21143
8.38726
8.55408
8.72952
8.83671
-7.3779
-7.38311
-7.39401
-7.40691
-7.41808
-7.42742
-7.43637
-7.44567
-7.45513
-7.46435
-7.47308
-7.48099
-7.48761
-7.49282
-7.49704
-7.50051
-7.50317
-7.50498
-7.50591
-7.50599
-7.5052
-7.50361
-7.50124
-7.49819
-7.4945
-7.49032
-7.48575
-7.48104
-7.47638
-7.47206
-7.46839
-7.46567
-7.46422
-7.4643
-7.46617
-7.47002
-7.47599
-7.48416
-7.49463
-7.5074
-7.52251
-7.53996
-7.55976
-7.58194
-7.60652
-7.63348
-7.66279
-7.69445
-7.7284
-7.76459
-7.80291
-7.84326
-7.88546
-7.92932
-7.9746
-8.02102
-8.06829
-8.11602
-8.16387
-8.21141
-8.25829
-8.30408
-8.34842
-8.39093
-8.4313
-8.46919
-8.5043
-8.53635
-8.56502
-8.59
-8.61108
-8.62837
-8.64227
-8.65301
-8.66036
-8.66435
-8.66554
-8.6648
-8.66242
-8.65823
-8.65198
-8.64346
-8.63246
-8.61884
-8.60265
-8.58386
-8.56244
-8.53795
-8.51027
-8.47893
-8.44373
-8.40432
-8.36045
-8.31187
-8.25828
-8.19924
-8.13437
-8.06314
-7.98532
-7.90058
-7.80884
-7.70982
-7.60346
-7.48949
-7.36786
-7.23841
-7.1012
-6.95625
-6.80367
-6.64361
-6.47621
-6.30166
-6.12011
-5.93182
-5.73703
-5.53616
-5.32945
-5.1173
-4.89993
-4.6778
-4.45112
-4.22034
-3.98568
-3.74764
-3.50643
-3.26254
-3.01617
-2.76778
-2.51757
-2.26598
-2.0132
-1.75951
-1.50499
-1.24989
-0.994409
-0.73887
-0.48352
-0.228629
0.0256116
0.278985
0.531338
0.782486
1.0323
1.28063
1.52736
1.77239
2.01562
2.25698
2.4964
2.73381
2.9692
3.20254
3.43387
3.66322
3.89063
4.11608
4.33959
4.56117
4.78083
4.9986
5.21451
5.42863
5.64132
5.85237
6.0612
6.26785
6.47248
6.67509
6.87561
7.07393
7.26994
7.46362
7.65447
7.84183
8.0255
8.20484
8.38038
8.54668
8.72169
8.82797
-7.34078
-7.34714
-7.36042
-7.37531
-7.38691
-7.3966
-7.40654
-7.41693
-7.42735
-7.43745
-7.447
-7.45565
-7.46285
-7.46851
-7.47318
-7.47719
-7.48045
-7.48292
-7.48454
-7.48537
-7.48534
-7.48454
-7.48292
-7.48061
-7.4776
-7.47407
-7.4701
-7.46594
-7.46174
-7.45781
-7.4544
-7.45179
-7.45025
-7.45002
-7.45136
-7.45442
-7.4594
-7.46638
-7.47554
-7.48689
-7.50058
-7.51665
-7.53524
-7.55637
-7.58011
-7.60647
-7.63549
-7.66715
-7.70144
-7.73829
-7.77757
-7.81915
-7.8628
-7.9083
-7.95533
-8.00362
-8.05273
-8.10229
-8.15182
-8.20091
-8.24909
-8.29596
-8.34109
-8.38411
-8.42468
-8.46248
-8.49721
-8.52857
-8.55621
-8.57953
-8.59816
-8.61242
-8.62365
-8.6327
-8.63937
-8.6432
-8.64421
-8.64302
-8.63996
-8.63522
-8.62857
-8.61992
-8.60898
-8.59574
-8.5802
-8.56227
-8.54151
-8.51786
-8.49091
-8.46041
-8.42598
-8.38738
-8.34438
-8.29668
-8.24389
-8.18562
-8.12139
-8.05079
-7.97347
-7.88924
-7.79788
-7.69919
-7.59299
-7.47913
-7.35746
-7.22791
-7.09047
-6.94523
-6.7923
-6.63179
-6.46389
-6.28878
-6.10666
-5.91776
-5.72237