/*--------------------------------*- C++ -*----------------------------------*\
  =========                 |
  \\      /  F ield         | OpenFOAM: The Open Source CFD Toolbox
   \\    /   O peration     | Website:  https://openfoam.org
    \\  /    A nd           | Version:  13
     \\/     M anipulation  |
\*---------------------------------------------------------------------------*/
FoamFile
{
    format      ascii;
    class       surfaceScalarField;
    location    "1000";
    object      phi;
}
// * * * * * * * * * * * * * * * * * * * * * * * * * * * * * * * * * * * * * //

dimensions      [0 3 -1 0 0 0 0];

internalField   nonuniform List<scalar> 
24170
(
3.04806e-06
1.40435e-07
2.90016e-06
1.47906e-07
2.76186e-06
1.38175e-07
2.63591e-06
1.26107e-07
2.52317e-06
1.12671e-07
2.42617e-06
9.70994e-08
2.34813e-06
7.80912e-08
2.28612e-06
6.20685e-08
2.23792e-06
4.82003e-08
2.20161e-06
3.63217e-08
2.17353e-06
2.79994e-08
2.15165e-06
2.18606e-08
2.13422e-06
1.74067e-08
2.12025e-06
1.39721e-08
2.10926e-06
1.10239e-08
2.09998e-06
9.3453e-09
2.09519e-06
4.88816e-09
-1.26408e-09
2.09654e-06
3.4898e-06
6.7901e-08
3.53513e-06
1.02474e-07
3.55845e-06
1.14711e-07
3.56404e-06
1.20455e-07
3.55437e-06
1.22162e-07
3.53511e-06
1.16336e-07
3.50976e-06
1.03362e-07
3.48058e-06
9.12779e-08
3.44802e-06
8.07673e-08
3.41377e-06
7.06154e-08
3.37809e-06
6.36817e-08
3.34252e-06
5.74624e-08
3.30961e-06
5.03507e-08
3.27884e-06
4.47901e-08
3.25039e-06
3.95279e-08
3.22399e-06
3.58022e-08
3.19871e-06
3.02628e-08
2.26535e-08
3.17485e-06
3.67861e-06
5.18586e-08
3.69236e-06
8.89154e-08
3.70834e-06
9.86841e-08
3.72482e-06
1.04197e-07
3.73996e-06
1.07003e-07
3.75241e-06
1.03947e-07
3.7602e-06
9.56819e-08
3.7642e-06
8.7328e-08
3.76496e-06
8.00647e-08
3.76242e-06
7.31843e-08
3.75808e-06
6.7974e-08
3.7526e-06
6.29202e-08
3.74582e-06
5.70968e-08
3.73847e-06
5.21123e-08
3.73071e-06
4.72948e-08
3.72347e-06
4.30655e-08
3.71588e-06
3.78828e-08
3.08031e-08
3.70771e-06
3.93626e-06
4.09817e-08
3.94326e-06
8.1562e-08
3.95085e-06
9.06987e-08
3.95933e-06
9.54136e-08
3.96812e-06
9.78427e-08
3.97662e-06
9.5212e-08
3.9837e-06
8.84203e-08
3.98961e-06
8.13212e-08
3.99449e-06
7.51266e-08
3.99819e-06
6.94462e-08
4.00139e-06
6.47304e-08
4.00413e-06
6.01519e-08
4.00598e-06
5.52089e-08
4.00737e-06
5.06938e-08
4.00837e-06
4.6289e-08
4.00938e-06
4.2048e-08
4.01007e-06
3.7192e-08
3.13355e-08
4.00953e-06
4.21527e-06
3.28509e-08
4.22309e-06
7.3961e-08
4.22987e-06
8.38937e-08
4.23701e-06
8.84393e-08
4.24416e-06
9.06782e-08
4.25083e-06
8.85632e-08
4.2564e-06
8.2904e-08
4.26117e-06
7.65844e-08
4.26542e-06
7.09111e-08
4.26914e-06
6.57349e-08
4.27268e-06
6.11734e-08
4.27602e-06
5.67843e-08
4.27892e-06
5.22874e-08
4.28155e-06
4.80379e-08
4.28398e-06
4.38605e-08
4.28635e-06
3.96841e-08
4.28842e-06
3.51284e-08
3.01186e-08
4.28961e-06
4.51516e-06
2.67824e-08
4.52342e-06
6.53549e-08
4.53023e-06
7.67218e-08
4.53705e-06
8.13301e-08
4.54381e-06
8.36222e-08
4.55004e-06
8.21329e-08
4.55528e-06
7.75149e-08
4.55975e-06
7.20223e-08
4.56376e-06
6.68499e-08
4.56739e-06
6.20585e-08
4.57086e-06
5.76703e-08
4.57417e-06
5.34405e-08
4.57719e-06
4.92315e-08
4.58003e-06
4.51811e-08
4.58271e-06
4.11766e-08
4.58526e-06
3.71301e-08
4.5875e-06
3.28774e-08
2.84682e-08
4.58916e-06
4.8372e-06
2.23005e-08
4.84538e-06
5.73839e-08
4.85231e-06
6.98206e-08
4.85899e-06
7.4737e-08
4.8656e-06
7.70101e-08
4.87174e-06
7.59925e-08
4.87704e-06
7.22495e-08
4.88158e-06
6.74877e-08
4.88565e-06
6.27977e-08
4.88937e-06
5.83443e-08
4.89288e-06
5.41525e-08
4.89622e-06
5.00957e-08
4.89932e-06
4.61125e-08
4.90225e-06
4.22442e-08
4.90501e-06
3.84149e-08
4.9076e-06
3.45521e-08
4.90988e-06
3.0604e-08
2.66161e-08
4.91171e-06
5.18312e-06
1.87782e-08
5.19075e-06
4.9576e-08
5.1977e-06
6.26689e-08
5.20422e-06
6.80646e-08
5.21072e-06
7.03651e-08
5.21685e-06
6.97561e-08
5.22227e-06
6.67582e-08
5.227e-06
6.27098e-08
5.23125e-06
5.85184e-08
5.23514e-06
5.44355e-08
5.23878e-06
5.04942e-08
5.24221e-06
4.66532e-08
5.24542e-06
4.28893e-08
5.24845e-06
3.92139e-08
5.25129e-06
3.55749e-08
5.25392e-06
3.19321e-08
5.25624e-06
2.82757e-08
2.46745e-08
5.25818e-06
5.55427e-06
1.58532e-08
5.56114e-06
4.28683e-08
5.56799e-06
5.58833e-08
5.57447e-06
6.16376e-08
5.58087e-06
6.39726e-08
5.58695e-06
6.36772e-08
5.59245e-06
6.12793e-08
5.59735e-06
5.78235e-08
5.60179e-06
5.40945e-08
5.60587e-06
5.03636e-08
5.60967e-06
4.66947e-08
5.61324e-06
4.30842e-08
5.61659e-06
3.95417e-08
5.61973e-06
3.6073e-08
5.62266e-06
3.2646e-08
5.62536e-06
2.9246e-08
5.62775e-06
2.58865e-08
2.26111e-08
5.62979e-06
5.95223e-06
1.34228e-08
5.95833e-06
3.66402e-08
5.96495e-06
4.91393e-08
5.97141e-06
5.50678e-08
5.97778e-06
5.75114e-08
5.98385e-06
5.7535e-08
5.9894e-06
5.56828e-08
5.99442e-06
5.27753e-08
5.99901e-06
4.94904e-08
6.00326e-06
4.61095e-08
6.00722e-06
4.2725e-08
6.01093e-06
3.93659e-08
6.01441e-06
3.6062e-08
6.01767e-06
3.28151e-08
6.0207e-06
2.96217e-08
6.02348e-06
2.64763e-08
6.02595e-06
2.34065e-08
2.04514e-08
6.0281e-06
6.3789e-06
1.13273e-08
6.3843e-06
3.13789e-08
6.3906e-06
4.2879e-08
6.39696e-06
4.87267e-08
6.40326e-06
5.11892e-08
6.40933e-06
5.14566e-08
6.41496e-06
5.00457e-08
6.42011e-06
4.76223e-08
6.42486e-06
4.47505e-08
6.42926e-06
4.17112e-08
6.43337e-06
3.86196e-08
6.43722e-06
3.55267e-08
6.44082e-06
3.24558e-08
6.44418e-06
2.94545e-08
6.44731e-06
2.65e-08
6.45017e-06
2.36256e-08
6.45273e-06
2.0841e-08
1.81783e-08
6.45498e-06
5.7424e-06
9.80198e-09
5.74646e-06
2.73011e-08
5.7515e-06
3.77976e-08
5.75674e-06
4.34374e-08
5.76199e-06
4.58899e-08
5.7671e-06
4.63184e-08
5.77191e-06
4.52155e-08
5.77637e-06
4.31535e-08
5.7805e-06
4.0611e-08
5.78436e-06
3.78645e-08
5.78795e-06
3.50286e-08
5.79131e-06
3.21562e-08
5.79445e-06
2.93299e-08
5.79738e-06
2.65224e-08
5.80009e-06
2.38044e-08
5.80257e-06
2.11439e-08
5.80481e-06
1.86031e-08
1.61729e-08
5.80679e-06
6.99974e-06
8.1997e-09
7.00397e-06
2.31443e-08
7.00942e-06
3.23565e-08
7.01527e-06
3.75708e-08
7.0212e-06
3.99261e-08
7.02703e-06
4.04522e-08
7.03259e-06
3.96414e-08
7.03779e-06
3.79319e-08
7.04265e-06
3.57491e-08
7.04719e-06
3.33192e-08
7.05142e-06
3.07772e-08
7.05539e-06
2.81995e-08
7.05908e-06
2.56198e-08
7.06254e-06
2.30968e-08
7.06572e-06
2.06179e-08
7.06864e-06
1.82403e-08
7.07127e-06
1.59487e-08
1.38045e-08
7.07364e-06
8.53246e-06
6.62743e-09
8.53678e-06
1.88584e-08
8.5426e-06
2.65579e-08
8.54903e-06
3.11752e-08
8.55565e-06
3.32815e-08
8.56225e-06
3.38647e-08
8.5686e-06
3.32639e-08
8.57464e-06
3.19131e-08
8.58031e-06
3.0069e-08
8.58563e-06
2.80064e-08
8.59059e-06
2.57817e-08
8.59524e-06
2.35409e-08
8.59959e-06
2.12755e-08
8.60363e-06
1.90637e-08
8.60737e-06
1.68971e-08
8.61078e-06
1.48202e-08
8.6139e-06
1.28435e-08
1.09813e-08
8.61669e-06
1.04008e-05
5.02489e-09
1.04052e-05
1.44931e-08
1.04114e-05
2.04784e-08
1.04183e-05
2.42149e-08
1.04257e-05
2.59983e-08
1.0433e-05
2.64781e-08
1.04403e-05
2.60737e-08
1.04472e-05
2.4983e-08
1.04538e-05
2.35263e-08
1.046e-05
2.17842e-08
1.04658e-05
1.99759e-08
1.04712e-05
1.80658e-08
1.04763e-05
1.62033e-08
1.0481e-05
1.43283e-08
1.04854e-05
1.25429e-08
1.04894e-05
1.08045e-08
1.04931e-05
9.18669e-09
7.65468e-09
1.04964e-05
1.26784e-05
3.4408e-09
1.26829e-05
1.00243e-08
1.26893e-05
1.40936e-08
1.26968e-05
1.6752e-08
1.27049e-05
1.7973e-08
1.27131e-05
1.82901e-08
1.27212e-05
1.79257e-08
1.27292e-05
1.70996e-08
1.27368e-05
1.59385e-08
1.2744e-05
1.46161e-08
1.27507e-05
1.31692e-08
1.27571e-05
1.17156e-08
1.2763e-05
1.02358e-08
1.27686e-05
8.80884e-09
1.27737e-05
7.4083e-09
1.27785e-05
6.09641e-09
1.27828e-05
4.84577e-09
3.70253e-09
1.27868e-05
1.54548e-05
1.81061e-09
1.54595e-05
5.38162e-09
1.54663e-05
7.33413e-09
1.54744e-05
8.63992e-09
1.54833e-05
9.12314e-09
1.54925e-05
9.10561e-09
1.55017e-05
8.70978e-09
1.55108e-05
8.05132e-09
1.55195e-05
7.20865e-09
1.55279e-05
6.26594e-09
1.55358e-05
5.27058e-09
1.55432e-05
4.26588e-09
1.55502e-05
3.26872e-09
1.55567e-05
2.3027e-09
1.55628e-05
1.37724e-09
1.55684e-05
5.08337e-10
1.55735e-05
-2.99897e-10
-1.04091e-09
1.55783e-05
1.88394e-05
6.75743e-11
1.88445e-05
3.02348e-10
1.88519e-05
-1.2425e-10
1.8861e-05
-4.37665e-10
1.8871e-05
-8.96494e-10
1.88815e-05
-1.38717e-09
1.88921e-05
-1.90569e-09
1.89026e-05
-2.43963e-09
1.89128e-05
-2.9754e-09
1.89225e-05
-3.50213e-09
1.89318e-05
-4.01104e-09
1.89406e-05
-4.49722e-09
1.89488e-05
-4.95691e-09
1.89565e-05
-5.38609e-09
1.89637e-05
-5.78181e-09
1.89703e-05
-6.13909e-09
1.89765e-05
-6.45623e-09
-6.73393e-09
1.89822e-05
2.29654e-05
-2.02844e-09
2.29715e-05
-5.79402e-09
2.29804e-05
-9.05164e-09
2.29911e-05
-1.12748e-08
2.30031e-05
-1.28856e-08
2.30156e-05
-1.392e-08
2.30283e-05
-1.46256e-08
2.30408e-05
-1.49894e-08
2.3053e-05
-1.51878e-08
2.30647e-05
-1.51935e-08
2.30759e-05
-1.51379e-08
2.30863e-05
-1.49871e-08
2.30962e-05
-1.48193e-08
2.31054e-05
-1.46047e-08
2.31141e-05
-1.43883e-08
2.3122e-05
-1.4148e-08
2.31295e-05
-1.39058e-08
-1.36546e-08
2.31364e-05
1.68125e-05
-3.81707e-09
1.68174e-05
-1.08608e-08
1.68247e-05
-1.62661e-08
1.68332e-05
-1.99291e-08
1.68426e-05
-2.22201e-08
1.68521e-05
-2.36641e-08
1.68619e-05
-2.43176e-08
1.68713e-05
-2.457e-08
1.68806e-05
-2.43413e-08
1.68893e-05
-2.39735e-08
1.68977e-05
-2.33737e-08
1.69053e-05
-2.27643e-08
1.69127e-05
-2.20512e-08
1.69194e-05
-2.1379e-08
1.69258e-05
-2.06694e-08
1.69316e-05
-2.00079e-08
1.69371e-05
-1.93351e-08
-1.87128e-08
1.69421e-05
1.46365e-05
-5.71783e-09
1.46417e-05
-1.60987e-08
1.4649e-05
-2.36492e-08
1.46574e-05
-2.83837e-08
1.46663e-05
-3.1261e-08
1.46755e-05
-3.28175e-08
1.46845e-05
-3.34799e-08
1.46934e-05
-3.33465e-08
1.47017e-05
-3.27761e-08
1.47096e-05
-3.18552e-08
1.4717e-05
-3.07965e-08
1.47239e-05
-2.96308e-08
1.47303e-05
-2.84603e-08
1.47363e-05
-2.72913e-08
1.47417e-05
-2.61705e-08
1.47469e-05
-2.50884e-08
1.47516e-05
-2.40624e-08
-2.30868e-08
1.4756e-05
1.27423e-05
-7.85585e-09
1.2748e-05
-2.18417e-08
1.27557e-05
-3.135e-08
1.27642e-05
-3.68904e-08
1.2773e-05
-4.00476e-08
1.27817e-05
-4.16711e-08
1.27903e-05
-4.20581e-08
1.27984e-05
-4.15534e-08
1.28061e-05
-4.04519e-08
1.28132e-05
-3.90087e-08
1.28198e-05
-3.74163e-08
1.28259e-05
-3.57262e-08
1.28315e-05
-3.40719e-08
1.28367e-05
-3.24434e-08
1.28414e-05
-3.09291e-08
1.28458e-05
-2.94705e-08
1.28499e-05
-2.81245e-08
-2.68565e-08
1.28537e-05
1.10934e-05
-1.02706e-08
1.11e-05
-2.84678e-08
1.11082e-05
-3.96271e-08
1.11168e-05
-4.54294e-08
1.11253e-05
-4.86037e-08
1.11336e-05
-5.00479e-08
1.11416e-05
-5.00926e-08
1.11491e-05
-4.90698e-08
1.1156e-05
-4.74005e-08
1.11624e-05
-4.54126e-08
1.11682e-05
-4.32456e-08
1.11735e-05
-4.1075e-08
1.11784e-05
-3.89307e-08
1.11828e-05
-3.69093e-08
1.11869e-05
-3.49819e-08
1.11906e-05
-3.32174e-08
1.11941e-05
-3.15533e-08
-3.00458e-08
1.11973e-05
9.6581e-06
-1.31683e-08
9.66597e-06
-3.62623e-08
9.67465e-06
-4.82343e-08
9.683e-06
-5.37846e-08
9.69117e-06
-5.67772e-08
9.69905e-06
-5.79705e-08
9.70646e-06
-5.75136e-08
9.71329e-06
-5.59046e-08
9.71953e-06
-5.36442e-08
9.7252e-06
-5.10604e-08
9.7303e-06
-4.83717e-08
9.73491e-06
-4.5715e-08
9.73908e-06
-4.31304e-08
9.74287e-06
-4.07141e-08
9.74632e-06
-3.84664e-08
9.7495e-06
-3.63895e-08
9.75242e-06
-3.44912e-08
-3.27503e-08
9.75513e-06
8.4091e-06
-1.68976e-08
8.41814e-06
-4.52887e-08
8.42685e-06
-5.69438e-08
8.43479e-06
-6.17612e-08
8.44257e-06
-6.45808e-08
8.45005e-06
-6.54301e-08
8.45695e-06
-6.44272e-08
8.46324e-06
-6.21932e-08
8.46892e-06
-5.93106e-08
8.47401e-06
-5.61268e-08
8.47852e-06
-5.29042e-08
8.48258e-06
-4.97753e-08
8.48619e-06
-4.68185e-08
8.48945e-06
-4.40058e-08
8.49241e-06
-4.14423e-08
8.4951e-06
-3.91086e-08
8.49758e-06
-3.69658e-08
-3.50421e-08
8.49985e-06
7.32294e-06
-2.25647e-08
7.33277e-06
-5.50299e-08
7.34075e-06
-6.48926e-08
7.34806e-06
-6.90906e-08
7.35541e-06
-7.19589e-08
7.36236e-06
-7.2413e-08
7.36871e-06
-7.07693e-08
7.37446e-06
-6.7914e-08
7.37964e-06
-6.44504e-08
7.38425e-06
-6.07403e-08
7.38835e-06
-5.69877e-08
7.39205e-06
-5.35462e-08
7.39539e-06
-5.01491e-08
7.39838e-06
-4.70316e-08
7.40111e-06
-4.41905e-08
7.40363e-06
-4.16116e-08
7.40591e-06
-3.93258e-08
-3.72047e-08
7.40807e-06
6.37836e-06
-3.08614e-08
6.38751e-06
-6.41485e-08
6.39453e-06
-7.1861e-08
6.40162e-06
-7.63497e-08
6.40892e-06
-7.92097e-08
6.41574e-06
-7.92391e-08
6.42218e-06
-7.72049e-08
6.42829e-06
-7.40042e-08
6.43404e-06
-7.01852e-08
6.43943e-06
-6.6063e-08
6.44437e-06
-6.21266e-08
6.44916e-06
-5.82414e-08
6.45356e-06
-5.45971e-08
6.45767e-06
-5.11484e-08
6.46152e-06
-4.80336e-08
6.4651e-06
-4.52138e-08
6.46846e-06
-4.2653e-08
-4.04082e-08
6.47157e-06
5.55762e-06
-4.30211e-08
5.56942e-06
-7.58994e-08
5.58103e-06
-8.34705e-08
5.59499e-06
-9.04385e-08
5.61046e-06
-9.46776e-08
5.62569e-06
-9.44641e-08
5.64056e-06
-9.20665e-08
5.65461e-06
-8.8032e-08
5.66742e-06
-8.29346e-08
5.67878e-06
-7.75354e-08
5.68873e-06
-7.21077e-08
5.69733e-06
-6.68443e-08
5.70446e-06
-6.16858e-08
5.71022e-06
-5.68955e-08
5.71481e-06
-5.2608e-08
5.71838e-06
-4.87401e-08
5.72103e-06
-4.53768e-08
-4.26149e-08
5.72323e-06
4.89286e-06
-1.08273e-07
4.94513e-06
-1.28119e-07
4.98914e-06
-1.27495e-07
5.02163e-06
-1.2306e-07
5.04293e-06
-1.1598e-07
5.05533e-06
-1.0686e-07
5.05904e-06
-9.57644e-08
5.05603e-06
-8.49872e-08
5.04815e-06
-7.5027e-08
5.03555e-06
-6.49967e-08
5.01849e-06
-5.51101e-08
4.99801e-06
-4.63291e-08
4.97585e-06
-3.94853e-08
4.95294e-06
-3.3969e-08
4.92969e-06
-2.93354e-08
4.90673e-06
-2.57715e-08
4.88432e-06
-2.29693e-08
-2.10146e-08
4.86267e-06
4.09441e-06
3.96629e-06
3.83878e-06
3.71572e-06
3.59974e-06
3.49288e-06
3.39712e-06
3.31214e-06
3.2371e-06
3.17209e-06
3.11699e-06
3.07067e-06
3.03119e-06
2.99722e-06
2.96789e-06
2.94212e-06
2.91914e-06
2.89812e-06
-7.78893e-09
7.82176e-09
-2.09855e-08
1.32793e-08
-3.56554e-08
1.47066e-08
-4.83428e-08
1.27635e-08
-5.42026e-08
5.86365e-09
-4.72955e-08
-6.79806e-09
-2.56971e-08
-2.16477e-08
8.85031e-09
-3.44042e-08
5.2015e-08
-4.32379e-08
9.9572e-08
-4.74159e-08
1.4679e-07
-4.72892e-08
1.91052e-07
-4.41352e-08
2.29989e-07
-3.89982e-08
2.62729e-07
-3.26277e-08
2.88224e-07
-2.55519e-08
3.0638e-07
-1.80591e-08
3.1661e-07
-1.02965e-08
3.18919e-07
-2.22247e-09
3.12788e-07
6.06155e-09
2.98651e-07
1.42235e-08
2.76728e-07
2.18373e-08
2.48272e-07
2.85586e-08
2.14208e-07
3.39741e-08
1.76657e-07
3.76739e-08
1.37372e-07
3.91983e-08
9.92332e-08
3.82507e-08
6.43704e-08
3.4742e-08
3.53721e-08
2.90726e-08
1.30987e-08
2.21177e-08
-1.92661e-09
1.5051e-08
-1.09266e-08
8.79433e-09
-1.41944e-08
3.27892e-09
-1.21955e-08
-2.22816e-09
-3.52901e-09
-8.6401e-09
1.27095e-08
-1.64965e-08
3.80817e-08
-2.53157e-08
6.96162e-08
-3.17301e-08
1.02592e-07
-3.29046e-08
1.30953e-07
-2.84612e-08
1.51018e-07
-2.0004e-08
1.60862e-07
-9.86323e-09
1.62006e-07
-1.09066e-09
1.57763e-07
4.27123e-09
1.5195e-07
5.88534e-09
1.47811e-07
4.17662e-09
1.45639e-07
2.31569e-09
1.37793e-07
7.87824e-09
1.16402e-07
2.16099e-08
7.33798e-08
4.304e-08
4.6557e-09
6.89617e-08
-8.63113e-08
9.09398e-08
-1.93826e-07
1.07684e-07
-3.15418e-07
1.21565e-07
-4.47562e-07
1.32289e-07
-5.87301e-07
1.39756e-07
-7.30187e-07
1.43011e-07
-8.71641e-07
1.41518e-07
-1.00882e-06
1.37269e-07
-1.13976e-06
1.31006e-07
-1.26312e-06
1.23417e-07
-1.37861e-06
1.15558e-07
-1.48497e-06
1.06396e-07
-1.58215e-06
9.72434e-08
-1.67132e-06
8.92025e-08
-1.75317e-06
8.19109e-08
-1.8286e-06
7.54552e-08
-1.89818e-06
6.96208e-08
-1.96262e-06
6.44639e-08
-2.02255e-06
5.99494e-08
-2.07854e-06
5.60026e-08
-2.13107e-06
5.25326e-08
-2.18054e-06
4.94771e-08
-2.22731e-06
4.67581e-08
-2.27162e-06
4.43306e-08
-2.31376e-06
4.21288e-08
-2.35385e-06
4.0128e-08
-2.39212e-06
3.8276e-08
-2.42863e-06
3.65613e-08
-2.46357e-06
3.4938e-08
-2.49692e-06
3.34133e-08
-2.52885e-06
3.19454e-08
-2.55934e-06
3.05436e-08
-2.58849e-06
2.91724e-08
-2.61628e-06
2.78457e-08
-2.64278e-06
2.65382e-08
-2.66799e-06
2.52602e-08
-2.69193e-06
2.40027e-08
-2.7146e-06
2.27658e-08
-2.736e-06
2.1519e-08
-2.75604e-06
2.02964e-08
-2.7748e-06
1.9019e-08
-2.79221e-06
1.77235e-08
-2.80829e-06
1.63682e-08
-2.82294e-06
1.49751e-08
-2.83616e-06
1.35072e-08
-2.84783e-06
1.19844e-08
-2.85792e-06
1.03697e-08
-2.86631e-06
8.67188e-09
-2.87293e-06
6.85517e-09
-2.87764e-06
4.92887e-09
-2.88038e-06
2.90352e-09
-2.88114e-06
8.37371e-10
-2.88009e-06
-1.04343e-09
-2.87747e-06
-2.74107e-09
-2.87322e-06
-4.34873e-09
-2.86742e-06
-5.96826e-09
-2.85995e-06
-7.55089e-09
-2.85088e-06
-9.16089e-09
-2.84013e-06
-1.07409e-08
-2.82778e-06
-1.2345e-08
-2.81378e-06
-1.39227e-08
-2.79818e-06
-1.55135e-08
-2.78097e-06
-1.70782e-08
-2.76219e-06
-1.86403e-08
-2.74183e-06
-2.01753e-08
-2.71995e-06
-2.16922e-08
-2.69655e-06
-2.31845e-08
-2.67169e-06
-2.46535e-08
-2.64542e-06
-2.6101e-08
-2.61775e-06
-2.75084e-08
-2.5887e-06
-2.88728e-08
-2.55828e-06
-3.01668e-08
-2.5266e-06
-3.143e-08
-2.49365e-06
-3.26206e-08
-2.45958e-06
-3.38073e-08
-2.42437e-06
-3.49187e-08
-2.38814e-06
-3.60287e-08
-2.35085e-06
-3.70489e-08
-2.31266e-06
-3.80637e-08
-2.27349e-06
-3.89925e-08
-2.23352e-06
-3.99111e-08
-2.19267e-06
-4.0728e-08
-2.15115e-06
-4.15361e-08
-2.10888e-06
-4.22312e-08
-2.06607e-06
-4.29105e-08
-2.02267e-06
-4.34516e-08
-1.97891e-06
-4.39492e-08
-1.93461e-06
-4.44865e-08
-1.88983e-06
-4.51253e-08
-1.84459e-06
-4.5621e-08
-1.79895e-06
-4.60644e-08
-1.75287e-06
-4.64348e-08
-1.70644e-06
-4.67474e-08
-1.65967e-06
-4.70037e-08
-1.61265e-06
-4.72209e-08
-1.56539e-06
-4.74017e-08
-1.51796e-06
-4.75546e-08
-1.47034e-06
-4.76833e-08
-1.42259e-06
-4.77905e-08
-1.37471e-06
-4.78832e-08
-1.32673e-06
-4.79593e-08
-1.27864e-06
-4.80284e-08
-1.23047e-06
-4.80834e-08
-1.18222e-06
-4.81354e-08
-1.13391e-06
-4.81732e-08
-1.08554e-06
-4.82139e-08
-1.03711e-06
-4.82466e-08
-9.88617e-07
-4.82942e-08
-9.40052e-07
-4.83445e-08
-8.91405e-07
-4.84228e-08
-8.42644e-07
-4.85155e-08
-7.93757e-07
-4.86477e-08
-7.44698e-07
-4.8801e-08
-6.95459e-07
-4.89957e-08
-6.45989e-07
-4.92092e-08
-5.96293e-07
-4.94578e-08
-5.46316e-07
-4.97211e-08
-4.96072e-07
-5.0017e-08
-4.45504e-07
-5.03269e-08
-3.94632e-07
-5.06658e-08
-3.43403e-07
-5.10118e-08
-2.9187e-07
-5.1356e-08
-2.40017e-07
-5.16662e-08
-1.87971e-07
-5.18999e-08
-1.35875e-07
-5.19451e-08
-8.4184e-08
-5.15808e-08
-3.34051e-08
-5.06788e-08
1.47445e-08
-4.81132e-08
6.00397e-08
-4.52929e-08
-2.23867e-08
8.24274e-08
-3.39146e-09
1.12562e-08
-9.34433e-09
1.93577e-08
-1.22502e-08
1.76509e-08
-5.22484e-09
5.86832e-09
1.64154e-08
-1.57867e-08
5.23766e-08
-4.26708e-08
9.83019e-08
-6.76041e-08
1.49047e-07
-8.50792e-08
1.99388e-07
-9.36078e-08
2.463e-07
-9.42578e-08
2.88058e-07
-8.90712e-08
3.24134e-07
-8.01406e-08
3.54205e-07
-6.90895e-08
3.78632e-07
-5.69888e-08
3.9755e-07
-4.44909e-08
4.11501e-07
-3.19514e-08
4.2072e-07
-1.95435e-08
4.25904e-07
-7.36062e-09
4.27292e-07
4.63753e-09
4.25e-07
1.65615e-08
4.1842e-07
2.83748e-08
4.0714e-07
3.98771e-08
3.90423e-07
5.06532e-08
3.68045e-07
6.00954e-08
3.39786e-07
6.74141e-08
3.06307e-07
7.17562e-08
2.68631e-07
7.23597e-08
2.28882e-07
6.88395e-08
1.89583e-07
6.13248e-08
1.54169e-07
5.04618e-08
1.25754e-07
3.70527e-08
1.07294e-07
2.17199e-08
1.00115e-07
4.74123e-09
1.04659e-07
-1.31948e-08
1.19434e-07
-3.14644e-08
1.40701e-07
-4.65573e-08
1.6193e-07
-5.30724e-08
1.77605e-07
-4.85313e-08
1.84666e-07
-3.55695e-08
1.8291e-07
-1.81911e-08
1.72734e-07
3.07054e-10
1.56347e-07
1.53589e-08
1.34152e-07
2.6452e-08
9.95053e-08
4.06183e-08
4.24763e-08
6.11987e-08
-4.44784e-08
8.93537e-08
-1.60545e-07
1.23964e-07
-2.9762e-07
1.58732e-07
-4.45824e-07
1.91268e-07
-5.97732e-07
2.20908e-07
-7.51539e-07
2.44762e-07
-9.05264e-07
2.6146e-07
-1.05529e-06
2.71618e-07
-1.1983e-06
2.75361e-07
-1.33126e-06
2.72755e-07
-1.45241e-06
2.64212e-07
-1.56154e-06
2.50696e-07
-1.65844e-06
2.3422e-07
-1.74395e-06
2.16562e-07
-1.81939e-06
1.98895e-07
-1.88598e-06
1.82184e-07
-1.94589e-06
1.66344e-07
-2.00029e-06
1.51684e-07
-2.04988e-06
1.38817e-07
-2.09551e-06
1.2758e-07
-2.13786e-06
1.17829e-07
-2.17753e-06
1.09319e-07
-2.21495e-06
1.01901e-07
-2.25041e-06
9.54187e-08
-2.28412e-06
8.9727e-08
-2.31627e-06
8.46887e-08
-2.34698e-06
8.0192e-08
-2.37636e-06
7.61363e-08
-2.40447e-06
7.24426e-08
-2.43138e-06
6.90413e-08
-2.45711e-06
6.58826e-08
-2.48174e-06
6.29133e-08
-2.50526e-06
6.01051e-08
-2.52772e-06
5.74201e-08
-2.54913e-06
5.48434e-08
-2.56951e-06
5.23447e-08
-2.58885e-06
4.99164e-08
-2.60718e-06
4.75335e-08
-2.6245e-06
4.51934e-08
-2.6408e-06
4.28773e-08
-2.65609e-06
4.05876e-08
-2.67035e-06
3.83114e-08
-2.68357e-06
3.60336e-08
-2.69568e-06
3.37651e-08
-2.70668e-06
3.14515e-08
-2.71655e-06
2.9104e-08
-2.72531e-06
2.67012e-08
-2.73294e-06
2.42194e-08
-2.73943e-06
2.16772e-08
-2.74475e-06
1.90419e-08
-2.74889e-06
1.63363e-08
-2.75185e-06
1.35286e-08
-2.75364e-06
1.06526e-08
-2.75433e-06
7.69541e-09
-2.75397e-06
4.7119e-09
-2.75269e-06
1.70045e-09
-2.7505e-06
-1.3101e-09
-2.74726e-06
-4.353e-09
-2.74264e-06
-7.44954e-09
-2.73656e-06
-1.05723e-08
-2.72891e-06
-1.37162e-08
-2.7197e-06
-1.68586e-08
-2.70889e-06
-2.00143e-08
-2.69649e-06
-2.31614e-08
-2.6825e-06
-2.63167e-08
-2.66692e-06
-2.94551e-08
-2.64977e-06
-3.25895e-08
-2.63106e-06
-3.56937e-08
-2.61081e-06
-3.87769e-08
-2.58904e-06
-4.18139e-08
-2.56578e-06
-4.48125e-08
-2.54105e-06
-4.77549e-08
-2.51492e-06
-5.06582e-08
-2.4874e-06
-5.3499e-08
-2.45854e-06
-5.62686e-08
-2.42833e-06
-5.89391e-08
-2.39682e-06
-6.15049e-08
-2.36405e-06
-6.39741e-08
-2.33011e-06
-6.63514e-08
-2.29505e-06
-6.86573e-08
-2.25892e-06
-7.08719e-08
-2.22177e-06
-7.30112e-08
-2.18364e-06
-7.50445e-08
-2.14459e-06
-7.69968e-08
-2.10466e-06
-7.88363e-08
-2.0639e-06
-8.05907e-08
-2.02237e-06
-8.2223e-08
-1.98012e-06
-8.37666e-08
-1.93718e-06
-8.5181e-08
-1.89362e-06
-8.6513e-08
-1.84941e-06
-8.77274e-08
-1.8046e-06
-8.88689e-08
-1.75928e-06
-8.9975e-08
-1.71358e-06
-9.10526e-08
-1.66747e-06
-9.20058e-08
-1.62095e-06
-9.28535e-08
-1.57404e-06
-9.35832e-08
-1.52676e-06
-9.42076e-08
-1.47917e-06
-9.47338e-08
-1.43131e-06
-9.51861e-08
-1.38322e-06
-9.55663e-08
-1.33494e-06
-9.58977e-08
-1.28647e-06
-9.61739e-08
-1.23785e-06
-9.64198e-08
-1.18909e-06
-9.66244e-08
-1.1402e-06
-9.6815e-08
-1.09119e-06
-9.69752e-08
-1.04208e-06
-9.71319e-08
-9.92848e-07
-9.72616e-08
-9.43527e-07
-9.73917e-08
-8.94105e-07
-9.75006e-08
-8.44594e-07
-9.76244e-08
-7.94979e-07
-9.77468e-08
-7.45258e-07
-9.79073e-08
-6.95408e-07
-9.80912e-08
-6.45411e-07
-9.8337e-08
-5.95238e-07
-9.86284e-08
-5.44859e-07
-9.89946e-08
-4.94247e-07
-9.94128e-08
-4.43368e-07
-9.98999e-08
-3.92205e-07
-1.00429e-07
-3.40724e-07
-1.01016e-07
-2.88915e-07
-1.01644e-07
-2.36743e-07
-1.02323e-07
-1.84203e-07
-1.03039e-07
-1.31267e-07
-1.03789e-07
-7.79565e-08
-1.04526e-07
-2.43e-08
-1.0519e-07
2.95875e-08
-1.05678e-07
8.35901e-08
-1.05847e-07
1.37465e-07
-1.05382e-07
1.90702e-07
-1.03852e-07
2.42861e-07
-1.00243e-07
2.90579e-07
-9.29989e-08
-6.87605e-08
3.36958e-07
4.66148e-10
1.08123e-08
3.94363e-09
1.59708e-08
1.79669e-08
3.65048e-09
5.01549e-08
-2.6262e-08
9.92377e-08
-6.48773e-08
1.56257e-07
-9.96463e-08
2.11481e-07
-1.22844e-07
2.59483e-07
-1.33035e-07
2.98424e-07
-1.32561e-07
3.29029e-07
-1.24814e-07
3.52684e-07
-1.12735e-07
3.70987e-07
-9.8394e-08
3.84968e-07
-8.30786e-08
3.9554e-07
-6.75124e-08
4.03117e-07
-5.2078e-08
4.08172e-07
-3.69633e-08
4.10869e-07
-2.22561e-08
4.11546e-07
-8.00156e-09
4.10377e-07
5.78475e-09
4.07824e-07
1.91434e-08
4.0405e-07
3.2122e-08
3.99233e-07
4.47192e-08
3.93037e-07
5.68163e-08
3.85026e-07
6.8124e-08
3.74283e-07
7.81206e-08
3.60009e-07
8.60329e-08
3.4145e-07
9.08726e-08
3.18693e-07
9.15849e-08
2.9265e-07
8.73146e-08
2.65471e-07
7.76124e-08
2.39868e-07
6.25817e-08
2.18684e-07
4.28774e-08
2.03628e-07
1.96958e-08
1.95559e-07
-5.14779e-09
1.91636e-07
-2.76212e-08
1.85446e-07
-4.03564e-08
1.7161e-07
-3.92796e-08
1.493e-07
-2.61863e-08
1.19227e-07
-5.5226e-09
8.15859e-08
1.94968e-08
3.3398e-08
4.84668e-08
-3.15437e-08
8.03169e-08
-1.19336e-07
1.1423e-07
-2.30987e-07
1.5227e-07
-3.63387e-07
1.93601e-07
-5.09465e-07
2.35434e-07
-6.60238e-07
2.74741e-07
-8.10207e-07
3.08711e-07
-9.54511e-07
3.35576e-07
-1.08843e-06
3.54837e-07
-1.20972e-06
3.66079e-07
-1.31769e-06
3.69462e-07
-1.4118e-06
3.65757e-07
-1.49232e-06
3.55933e-07
-1.56067e-06
3.41135e-07
-1.6191e-06
3.22692e-07
-1.67031e-06
3.01945e-07
-1.71633e-06
2.80279e-07
-1.75863e-06
2.58901e-07
-1.79829e-06
2.38586e-07
-1.83583e-06
2.19762e-07
-1.87205e-06
2.02589e-07
-1.90742e-06
1.87083e-07
-1.94189e-06
1.73316e-07
-1.97547e-06
1.61186e-07
-2.00815e-06
1.50527e-07
-2.03994e-06
1.41126e-07
-2.07084e-06
1.32811e-07
-2.10082e-06
1.25418e-07
-2.12989e-06
1.18801e-07
-2.15803e-06
1.12832e-07
-2.18523e-06
1.07399e-07
-2.2115e-06
1.02407e-07
-2.23683e-06
9.77798e-08
-2.26124e-06
9.34491e-08
-2.28471e-06
8.93625e-08
-2.30726e-06
8.54748e-08
-2.3289e-06
8.17505e-08
-2.34963e-06
7.81577e-08
-2.36944e-06
7.46742e-08
-2.38836e-06
7.12757e-08
-2.40637e-06
6.79464e-08
-2.42348e-06
6.46668e-08
-2.43969e-06
6.14256e-08
-2.45499e-06
5.82091e-08
-2.46938e-06
5.50075e-08
-2.48285e-06
5.18079e-08
-2.49537e-06
4.86069e-08
-2.50691e-06
4.53763e-08
-2.51745e-06
4.21162e-08
-2.52697e-06
3.87869e-08
-2.53551e-06
3.53708e-08
-2.54301e-06
3.1882e-08
-2.54949e-06
2.82846e-08
-2.55489e-06
2.46e-08
-2.55924e-06
2.07979e-08
-2.56248e-06
1.69029e-08
-2.56463e-06
1.28991e-08
-2.56565e-06
8.81744e-09
-2.56554e-06
4.65802e-09
-2.56424e-06
4.28305e-10
-2.56169e-06
-3.88058e-09
-2.55784e-06
-8.29784e-09
-2.55259e-06
-1.28041e-08
-2.5459e-06
-1.73881e-08
-2.53771e-06
-2.20024e-08
-2.528e-06
-2.66512e-08
-2.51673e-06
-3.13059e-08
-2.50394e-06
-3.59759e-08
-2.4896e-06
-4.06385e-08
-2.47373e-06
-4.52966e-08
-2.45632e-06
-4.99297e-08
-2.43742e-06
-5.45336e-08
-2.41702e-06
-5.90905e-08
-2.39515e-06
-6.35909e-08
-2.37182e-06
-6.80217e-08
-2.3471e-06
-7.23796e-08
-2.321e-06
-7.66608e-08
-2.29356e-06
-8.08508e-08
-2.26482e-06
-8.4926e-08
-2.23477e-06
-8.88622e-08
-2.20348e-06
-9.26529e-08
-2.17097e-06
-9.62979e-08
-2.13734e-06
-9.98191e-08
-2.10262e-06
-1.03212e-07
-2.06687e-06
-1.06483e-07
-2.03013e-06
-1.09617e-07
-1.99245e-06
-1.12616e-07
-1.95387e-06
-1.15471e-07
-1.91446e-06
-1.18183e-07
-1.87423e-06
-1.20746e-07
-1.83326e-06
-1.2316e-07
-1.79157e-06
-1.25421e-07
-1.74923e-06
-1.27528e-07
-1.70626e-06
-1.29492e-07
-1.6627e-06
-1.31324e-07
-1.6186e-06
-1.33035e-07
-1.57404e-06
-1.34655e-07
-1.52907e-06
-1.36176e-07
-1.48369e-06
-1.37555e-07
-1.43793e-06
-1.3879e-07
-1.39177e-06
-1.39866e-07
-1.34528e-06
-1.40801e-07
-1.29848e-06
-1.41603e-07
-1.25142e-06
-1.423e-07
-1.20412e-06
-1.42899e-07
-1.15662e-06
-1.43422e-07
-1.10894e-06
-1.43873e-07
-1.06109e-06
-1.44272e-07
-1.01308e-06
-1.44623e-07
-9.6494e-07
-1.44945e-07
-9.16662e-07
-1.45239e-07
-8.68249e-07
-1.45518e-07
-8.19711e-07
-1.45777e-07
-7.71045e-07
-1.46024e-07
-7.2226e-07
-1.46258e-07
-6.73346e-07
-1.46499e-07
-6.24307e-07
-1.46757e-07
-5.75122e-07
-1.47053e-07
-5.25784e-07
-1.47403e-07
-4.76261e-07
-1.47825e-07
-4.26537e-07
-1.48331e-07
-3.76572e-07
-1.4893e-07
-3.26348e-07
-1.49623e-07
-2.75825e-07
-1.50401e-07
-2.24991e-07
-1.51257e-07
-1.7381e-07
-1.52182e-07
-1.22274e-07
-1.53181e-07
-7.0349e-08
-1.54241e-07
-1.80373e-08
-1.55358e-07
3.46783e-08
-1.56504e-07
8.77906e-08
-1.5765e-07
1.41302e-07
-1.58705e-07
1.95152e-07
-1.59541e-07
2.49227e-07
-1.59926e-07
3.03326e-07
-1.59491e-07
3.57123e-07
-1.57652e-07
4.10223e-07
-1.53356e-07
4.61695e-07
-1.44482e-07
-1.21827e-07
5.14755e-07
-6.97775e-11
1.08899e-08
1.23334e-08
3.62641e-09
5.05959e-08
-3.46162e-08
1.10701e-07
-8.63281e-08
1.76027e-07
-1.30213e-07
2.32766e-07
-1.5635e-07
2.75137e-07
-1.65223e-07
3.03942e-07
-1.618e-07
3.22511e-07
-1.51137e-07
3.34493e-07
-1.36753e-07
3.42409e-07
-1.20655e-07
3.47928e-07
-1.03869e-07
3.51759e-07
-8.69125e-08
3.54342e-07
-7.00542e-08
3.5571e-07
-5.34491e-08
3.55981e-07
-3.71972e-08
3.55092e-07
-2.13741e-08
3.53162e-07
-6.04096e-09
3.50181e-07
8.75207e-09
3.46371e-07
2.29802e-08
3.41858e-07
3.66155e-08
3.36965e-07
4.96319e-08
3.31792e-07
6.19648e-08
3.26462e-07
7.34665e-08
3.20689e-07
8.38594e-08
3.14081e-07
9.26426e-08
3.05852e-07
9.90603e-08
2.9533e-07
1.02099e-07
2.81993e-07
1.00604e-07
2.66011e-07
9.35809e-08
2.48124e-07
8.04098e-08
2.29684e-07
6.12958e-08
2.11574e-07
3.77319e-08
1.92179e-07
1.42491e-08
1.65187e-07
-7.02478e-10
1.2685e-07
-1.98499e-09
7.76739e-08
9.84856e-09
1.84305e-08
3.30912e-08
-5.31911e-08
6.60705e-08
-1.39911e-07
1.06227e-07
-2.42603e-07
1.51146e-07
-3.60496e-07
1.98207e-07
-4.91377e-07
2.45106e-07
-6.29528e-07
2.90423e-07
-7.68561e-07
3.32637e-07
-9.02525e-07
3.69405e-07
-1.02611e-06
3.98328e-07
-1.13612e-06
4.18722e-07
-1.23136e-06
4.30827e-07
-1.31151e-06
4.35001e-07
-1.37752e-06
4.32108e-07
-1.43124e-06
4.23209e-07
-1.4749e-06
4.09453e-07
-1.51096e-06
3.92029e-07
-1.54186e-06
3.72076e-07
-1.56978e-06
3.50656e-07
-1.59648e-06
3.28687e-07
-1.6231e-06
3.06938e-07
-1.65019e-06
2.86034e-07
-1.67795e-06
2.66379e-07
-1.70633e-06
2.48171e-07
-1.73524e-06
2.31519e-07
-1.76454e-06
2.1641e-07
-1.794e-06
2.02797e-07
-1.82339e-06
1.90594e-07
-1.85252e-06
1.79668e-07
-1.88124e-06
1.6986e-07
-1.90944e-06
1.61023e-07
-1.93703e-06
1.53018e-07
-1.96394e-06
1.45722e-07
-1.99013e-06
1.39021e-07
-2.01554e-06
1.32819e-07
-2.04017e-06
1.27033e-07
-2.06398e-06
1.2159e-07
-2.08696e-06
1.16433e-07
-2.10911e-06
1.11513e-07
-2.13042e-06
1.06787e-07
-2.15089e-06
1.02222e-07
-2.17052e-06
9.779e-08
-2.1893e-06
9.34661e-08
-2.20724e-06
8.92286e-08
-2.22435e-06
8.50588e-08
-2.2406e-06
8.0939e-08
-2.25601e-06
7.68543e-08
-2.27057e-06
7.27892e-08
-2.28427e-06
6.87321e-08
-2.2971e-06
6.46695e-08
-2.30904e-06
6.05844e-08
-2.32005e-06
5.64737e-08
-2.33014e-06
5.22785e-08
-2.33927e-06
4.80238e-08
-2.34745e-06
4.36563e-08
-2.35465e-06
3.91876e-08
-2.36085e-06
3.45888e-08
-2.36603e-06
2.98716e-08
-2.37016e-06
2.50107e-08
-2.3732e-06
2.00237e-08
-2.37514e-06
1.48963e-08
-2.37592e-06
9.64984e-09
-2.37552e-06
4.27743e-09
-2.37389e-06
-1.22327e-09
-2.37098e-06
-6.85514e-09
-2.36675e-06
-1.26331e-08
-2.36115e-06
-1.85223e-08
-2.35414e-06
-2.45137e-08
-2.34567e-06
-3.05553e-08
-2.33573e-06
-3.6652e-08
-2.3243e-06
-4.27638e-08
-2.31139e-06
-4.89024e-08
-2.29698e-06
-5.50314e-08
-2.28109e-06
-6.11586e-08
-2.26372e-06
-6.72491e-08
-2.24489e-06
-7.33047e-08
-2.22462e-06
-7.92933e-08
-2.20292e-06
-8.52108e-08
-2.17983e-06
-9.10323e-08
-2.15537e-06
-9.67615e-08
-2.12959e-06
-1.02379e-07
-2.10251e-06