/*--------------------------------*- C++ -*----------------------------------*\
  =========                 |
  \\      /  F ield         | OpenFOAM: The Open Source CFD Toolbox
   \\    /   O peration     | Website:  https://openfoam.org
    \\  /    A nd           | Version:  13
     \\/     M anipulation  |
\*---------------------------------------------------------------------------*/
FoamFile
{
    format      ascii;
    class       volVectorField;
    location    "1000";
    object      U;
}
// * * * * * * * * * * * * * * * * * * * * * * * * * * * * * * * * * * * * * //

dimensions      [0 1 -1 0 0 0 0];

internalField   nonuniform List<vector> 
12225
(
(9.75793 0.0427 0)
(9.31727 0.0869351 0)
(8.88793 0.106416 0)
(8.45781 0.107052 0)
(8.08528 0.10739 0)
(7.74723 0.0951899 0)
(7.47614 0.0638493 0)
(7.25758 0.0392632 0)
(7.08484 0.0244714 0)
(6.95665 0.00652156 0)
(6.85514 0.00946428 0)
(6.77941 0.0161991 0)
(6.72006 0.00637314 0)
(6.6681 0.001438 0)
(6.6334 6.39637e-05 0)
(6.59827 0.0103161 0)
(6.575 0.00941643 0)
(6.57231 0.00237609 0)
(10.1105 0.0575705 0)
(10.2824 0.0887396 0)
(10.4004 0.0891586 0)
(10.4339 0.0868662 0)
(10.4276 0.0824898 0)
(10.3754 0.0776075 0)
(10.3131 0.0744587 0)
(10.2297 0.0710452 0)
(10.1426 0.0648151 0)
(10.0381 0.0598645 0)
(9.94459 0.0519022 0)
(9.83004 0.0440314 0)
(9.73361 0.0419866 0)
(9.63833 0.038966 0)
(9.55289 0.034369 0)
(9.47394 0.0285269 0)
(9.39687 0.0235253 0)
(9.32442 0.0170197 0)
(10.0027 0.041462 0)
(10.0581 0.0641739 0)
(10.1056 0.0721101 0)
(10.1502 0.0793986 0)
(10.1916 0.0862563 0)
(10.2299 0.088805 0)
(10.2585 0.0854465 0)
(10.2743 0.080552 0)
(10.2806 0.0764277 0)
(10.2778 0.0722553 0)
(10.2687 0.0690053 0)
(10.2545 0.0656146 0)
(10.2373 0.0612138 0)
(10.2179 0.0580503 0)
(10.1969 0.0550965 0)
(10.1768 0.0520664 0)
(10.157 0.046526 0)
(10.1341 0.0379965 0)
(10.0023 0.0290642 0)
(10.034 0.0524521 0)
(10.0566 0.0620618 0)
(10.0775 0.0695895 0)
(10.0975 0.074964 0)
(10.1194 0.0759089 0)
(10.1398 0.0728608 0)
(10.1565 0.0694208 0)
(10.1701 0.0665376 0)
(10.1812 0.0637225 0)
(10.1901 0.0618819 0)
(10.1976 0.0599461 0)
(10.2032 0.0570606 0)
(10.2073 0.0543621 0)
(10.2103 0.0514728 0)
(10.2129 0.0488019 0)
(10.2152 0.0448803 0)
(10.2156 0.0388373 0)
(10.0026 0.023321 0)
(10.0253 0.049966 0)
(10.0468 0.0595028 0)
(10.0642 0.0655672 0)
(10.0797 0.0698785 0)
(10.0957 0.0708041 0)
(10.1106 0.0686886 0)
(10.1229 0.0659512 0)
(10.1335 0.0635651 0)
(10.1431 0.0613323 0)
(10.1518 0.0595299 0)
(10.16 0.0576028 0)
(10.1673 0.0551733 0)
(10.1738 0.0527919 0)
(10.1799 0.0502214 0)
(10.1857 0.0474349 0)
(10.191 0.0437467 0)
(10.1951 0.0388171 0)
(10.0028 0.0188377 0)
(10.0193 0.0455186 0)
(10.0396 0.0549516 0)
(10.0556 0.0604157 0)
(10.0698 0.0644137 0)
(10.0838 0.0656544 0)
(10.0967 0.064308 0)
(10.1075 0.062131 0)
(10.1168 0.06005 0)
(10.1253 0.0580564 0)
(10.1333 0.0562527 0)
(10.1408 0.0543467 0)
(10.1478 0.0521408 0)
(10.1542 0.049866 0)
(10.1604 0.0473772 0)
(10.1662 0.0445677 0)
(10.1716 0.0411014 0)
(10.176 0.0369161 0)
(10.0025 0.0155482 0)
(10.0148 0.0400217 0)
(10.0333 0.0497112 0)
(10.0482 0.0551429 0)
(10.0614 0.0592256 0)
(10.0743 0.0607996 0)
(10.0863 0.0600724 0)
(10.0965 0.0583746 0)
(10.1054 0.0565643 0)
(10.1134 0.0547524 0)
(10.1209 0.0529905 0)
(10.128 0.0511209 0)
(10.1347 0.0490456 0)
(10.1409 0.0468443 0)
(10.1468 0.0444183 0)
(10.1524 0.0416659 0)
(10.1574 0.0384413 0)
(10.1618 0.0347692 0)
(10.0019 0.0130586 0)
(10.0119 0.0347226 0)
(10.028 0.0449187 0)
(10.0417 0.0505802 0)
(10.054 0.0544793 0)
(10.066 0.0561713 0)
(10.0772 0.0558605 0)
(10.0871 0.0545639 0)
(10.0957 0.053001 0)
(10.1036 0.0513445 0)
(10.1109 0.049639 0)
(10.1177 0.0478125 0)
(10.1241 0.0458175 0)
(10.1301 0.0436763 0)
(10.1358 0.0413187 0)
(10.1411 0.0386716 0)
(10.1459 0.03568 0)
(10.1501 0.0323882 0)
(10.0013 0.0109912 0)
(10.0096 0.0301873 0)
(10.0234 0.0404267 0)
(10.0361 0.0461797 0)
(10.0475 0.049795 0)
(10.0586 0.0515547 0)
(10.0691 0.0515814 0)
(10.0786 0.0506137 0)
(10.087 0.0492579 0)
(10.0946 0.0477451 0)
(10.1017 0.0461236 0)
(10.1084 0.0443642 0)
(10.1146 0.0424491 0)
(10.1204 0.040381 0)
(10.1259 0.0381117 0)
(10.131 0.0356013 0)
(10.1356 0.0328353 0)
(10.1397 0.0298685 0)
(10.0009 0.0092682 0)
(10.0077 0.0260683 0)
(10.0194 0.0359393 0)
(10.031 0.0416671 0)
(10.0418 0.045202 0)
(10.0521 0.0469889 0)
(10.062 0.0472291 0)
(10.0709 0.0464982 0)
(10.079 0.0453443 0)
(10.0864 0.0439786 0)
(10.0933 0.0424564 0)
(10.0997 0.0407755 0)
(10.1058 0.0389432 0)
(10.1114 0.0369573 0)
(10.1167 0.0347929 0)
(10.1216 0.0324316 0)
(10.126 0.0298877 0)
(10.13 0.0272039 0)
(10.0007 0.00781893 0)
(10.0062 0.0223131 0)
(10.0161 0.0314874 0)
(10.0266 0.0370556 0)
(10.0366 0.0404473 0)
(10.0462 0.0422475 0)
(10.0554 0.0426844 0)
(10.0639 0.0422133 0)
(10.0717 0.0412637 0)
(10.0788 0.0400421 0)
(10.0855 0.0386254 0)
(10.0918 0.037037 0)
(10.0976 0.0352914 0)
(10.1031 0.0334035 0)
(10.1082 0.0313559 0)
(10.1129 0.0291571 0)
(10.1171 0.0268245 0)
(10.121 0.0243971 0)
(10.0005 0.00665893 0)
(10.0052 0.0191672 0)
(10.0136 0.0275118 0)
(10.023 0.0328029 0)
(10.0323 0.0360289 0)
(10.0413 0.0378213 0)
(10.0499 0.0384038 0)
(10.058 0.0381358 0)
(10.0655 0.0373636 0)
(10.0725 0.0362843 0)
(10.079 0.0349795 0)
(10.085 0.0334837 0)
(10.0907 0.0318351 0)
(10.096 0.0300394 0)
(10.1009 0.0281154 0)
(10.1054 0.0260627 0)
(10.1096 0.023919 0)
(10.1133 0.021701 0)
(10.0005 0.00565534 0)
(10.0044 0.0164858 0)
(10.0116 0.0239261 0)
(10.0201 0.0288338 0)
(10.0286 0.0318465 0)
(10.0371 0.0335564 0)
(10.0452 0.034193 0)
(10.0529 0.0340413 0)
(10.0601 0.0333953 0)
(10.0669 0.0324289 0)
(10.0731 0.031228 0)
(10.079 0.0298343 0)
(10.0845 0.0282924 0)
(10.0896 0.0266101 0)
(10.0943 0.0248142 0)
(10.0987 0.0229155 0)
(10.1027 0.0209425 0)
(10.1063 0.0189281 0)
(10.0004 0.00466148 0)
(10.0037 0.0137184 0)
(10.0097 0.020055 0)
(10.0173 0.0244208 0)
(10.0251 0.0271202 0)
(10.0329 0.0286932 0)
(10.0405 0.0293329 0)
(10.0478 0.0292822 0)
(10.0547 0.0287514 0)
(10.0611 0.027909 0)
(10.0672 0.0268157 0)
(10.0728 0.0255539 0)
(10.0781 0.0241271 0)
(10.083 0.0225932 0)
(10.0876 0.0209409 0)
(10.0918 0.0192224 0)
(10.0956 0.0174389 0)
(10.0991 0.0156398 0)
(10.0003 0.00366999 0)
(10.0031 0.0108777 0)
(10.0082 0.0159696 0)
(10.0147 0.0196219 0)
(10.0218 0.0219051 0)
(10.0289 0.023246 0)
(10.0359 0.0238246 0)
(10.0428 0.0238099 0)
(10.0493 0.0233732 0)
(10.0555 0.0226264 0)
(10.0612 0.0216636 0)
(10.0667 0.0205228 0)
(10.0717 0.0192568 0)
(10.0765 0.0178728 0)
(10.0808 0.0164131 0)
(10.0849 0.0148823 0)
(10.0886 0.0133283 0)
(10.092 0.0117473 0)
(10.0003 0.00267212 0)
(10.0026 0.00798125 0)
(10.0068 0.0116987 0)
(10.0125 0.0144592 0)
(10.0188 0.0161925 0)
(10.0253 0.0171915 0)
(10.0318 0.0176141 0)
(10.0382 0.0175609 0)
(10.0443 0.0171647 0)
(10.0502 0.016498 0)
(10.0557 0.0156524 0)
(10.0609 0.0146513 0)
(10.0657 0.0135499 0)
(10.0703 0.0123515 0)
(10.0745 0.0110945 0)
(10.0784 0.00978974 0)
(10.082 0.00846758 0)
(10.0853 0.00713953 0)
(10.0002 0.001661 0)
(10.0022 0.00500097 0)
(10.0058 0.00721472 0)
(10.0108 0.00891063 0)
(10.0164 0.0099209 0)
(10.0223 0.0104623 0)
(10.0283 0.0106061 0)
(10.0343 0.0104404 0)
(10.0401 0.0100157 0)
(10.0456 0.00941541 0)
(10.0509 0.008662 0)
(10.0559 0.00781915 0)
(10.0606 0.00688104 0)
(10.0649 0.00589459 0)
(10.069 0.00485152 0)
(10.0728 0.00379477 0)
(10.0762 0.0027155 0)
(10.0795 0.00164923 0)
(10.0002 0.000595689 0)
(10.0019 0.00183463 0)
(10.0052 0.00239561 0)
(10.0097 0.00282966 0)
(10.0149 0.0029493 0)
(10.0204 0.00287544 0)
(10.026 0.00263049 0)
(10.0316 0.00224644 0)
(10.0372 0.00174568 0)
(10.0425 0.00115837 0)
(10.0475 0.000501894 0)
(10.0523 -0.000204562 0)
(10.0569 -0.000953674 0)
(10.0611 -0.00173128 0)
(10.065 -0.00253074 0)
(10.0687 -0.00333794 0)
(10.0721 -0.00414723 0)
(10.0753 -0.00494979 0)
(10.0002 -0.000619221 0)
(10.0019 -0.00176848 0)
(10.0051 -0.00308476 0)
(10.0095 -0.00411148 0)
(10.0145 -0.00505997 0)
(10.0199 -0.00587316 0)
(10.0254 -0.00662325 0)
(10.031 -0.00728721 0)
(10.0364 -0.00792304 0)
(10.0416 -0.00850527 0)
(10.0466 -0.00908304 0)
(10.0513 -0.00963318 0)
(10.0557 -0.0101894 0)
(10.0599 -0.0107316 0)
(10.0638 -0.0112798 0)
(10.0674 -0.0118168 0)
(10.0708 -0.0123517 0)
(10.0739 -0.0128779 0)
(10.0002 -0.0018526 0)
(10.0021 -0.00538849 0)
(10.0057 -0.00851385 0)
(10.0105 -0.0109548 0)
(10.016 -0.012881 0)
(10.0217 -0.0144039 0)
(10.0275 -0.0155765 0)
(10.0332 -0.0165099 0)
(10.0388 -0.0172101 0)
(10.0442 -0.0177858 0)
(10.0492 -0.0182349 0)
(10.054 -0.0186347 0)
(10.0585 -0.0189694 0)
(10.0627 -0.019293 0)
(10.0666 -0.0195857 0)
(10.0702 -0.0198813 0)
(10.0736 -0.0201576 0)
(10.0767 -0.0204473 0)
(10.0003 -0.00302296 0)
(10.0026 -0.0087394 0)
(10.0068 -0.0134532 0)
(10.0124 -0.01701 0)
(10.0185 -0.019672 0)
(10.0248 -0.0216812 0)
(10.031 -0.0231435 0)
(10.0371 -0.0241905 0)
(10.043 -0.0248829 0)
(10.0486 -0.0253639 0)
(10.0538 -0.0256605 0)
(10.0587 -0.025874 0)
(10.0633 -0.0259994 0)
(10.0675 -0.0261075 0)
(10.0714 -0.0261806 0)
(10.075 -0.0262606 0)
(10.0784 -0.0263263 0)
(10.0815 -0.0264133 0)
(10.0004 -0.00429971 0)
(10.0032 -0.012317 0)
(10.0086 -0.0185938 0)
(10.0153 -0.0230796 0)
(10.0223 -0.0263365 0)
(10.0292 -0.0286957 0)
(10.0359 -0.0303383 0)
(10.0425 -0.0313639 0)
(10.0488 -0.0319723 0)
(10.0546 -0.0322557 0)
(10.06 -0.0323663 0)
(10.065 -0.0323244 0)
(10.0695 -0.0322342 0)
(10.0738 -0.0320894 0)
(10.0777 -0.0319612 0)
(10.0813 -0.0318168 0)
(10.0846 -0.0317028 0)
(10.0877 -0.0316029 0)
(10.0005 -0.00578336 0)
(10.0043 -0.01641 0)
(10.0112 -0.0241501 0)
(10.0193 -0.0292846 0)
(10.0272 -0.032924 0)
(10.0347 -0.0354947 0)
(10.0421 -0.0371417 0)
(10.0491 -0.0380432 0)
(10.0556 -0.0384109 0)
(10.0616 -0.0384442 0)
(10.0671 -0.038266 0)
(10.0721 -0.0379616 0)
(10.0767 -0.0376016 0)
(10.0809 -0.037225 0)
(10.0847 -0.0368663 0)
(10.0883 -0.0365355 0)
(10.0915 -0.0362351 0)
(10.0945 -0.0359888 0)
(10.0009 -0.00755441 0)
(10.0057 -0.0209944 0)
(10.0149 -0.0297015 0)
(10.0245 -0.0351632 0)
(10.0331 -0.0390318 0)
(10.0413 -0.04177 0)
(10.0492 -0.043422 0)
(10.0566 -0.0441719 0)
(10.0635 -0.0443049 0)
(10.0696 -0.0440547 0)
(10.0752 -0.0435515 0)
(10.0802 -0.0429418 0)
(10.0848 -0.0422637 0)
(10.0889 -0.041627 0)
(10.0926 -0.0410221 0)
(10.096 -0.0404981 0)
(10.0992 -0.0400384 0)
(10.1021 -0.0396725 0)
(10.0016 -0.00956363 0)
(10.0079 -0.0264576 0)
(10.0196 -0.0353163 0)
(10.0306 -0.0404632 0)
(10.0399 -0.0442762 0)
(10.0487 -0.0469919 0)
(10.0572 -0.0485873 0)
(10.0652 -0.0492509 0)
(10.0724 -0.049257 0)
(10.0788 -0.0488335 0)
(10.0844 -0.0481677 0)
(10.0895 -0.0473669 0)
(10.0941 -0.0464899 0)
(10.0982 -0.0455904 0)
(10.1019 -0.0447515 0)
(10.1052 -0.0439924 0)
(10.1083 -0.0433165 0)
(10.1111 -0.0427513 0)
(10.002 -0.0123858 0)
(10.0123 -0.0321589 0)
(10.026 -0.042464 0)
(10.0377 -0.04796 0)
(10.0475 -0.0516315 0)
(10.0568 -0.0537256 0)
(10.0659 -0.0545113 0)
(10.0743 -0.0544201 0)
(10.0818 -0.0538251 0)
(10.0885 -0.0529486 0)
(10.0944 -0.0519297 0)
(10.0997 -0.0509607 0)
(10.1045 -0.0499526 0)
(10.1089 -0.0489913 0)
(10.1127 -0.0481349 0)
(10.1163 -0.0473753 0)
(10.1196 -0.0467344 0)
(10.1226 -0.0461812 0)
(10.0017 -0.0163898 0)
(10.0189 -0.0364296 0)
(10.0328 -0.0452134 0)
(10.0448 -0.0515285 0)
(10.0556 -0.0567153 0)
(10.0662 -0.0596091 0)
(10.0767 -0.0604788 0)
(10.0867 -0.0600786 0)
(10.096 -0.0589126 0)
(10.1047 -0.057288 0)
(10.1128 -0.0555856 0)
(10.1204 -0.0539473 0)
(10.1277 -0.0523169 0)
(10.1344 -0.0508058 0)
(10.1406 -0.0495026 0)
(10.1464 -0.0483855 0)
(10.1519 -0.0474643 0)
(10.1568 -0.0467026 0)
(10.0028 -0.0275903 0)
(10.0293 -0.045262 0)
(10.0544 -0.0477677 0)
(10.0765 -0.0517814 0)
(10.1029 -0.0568879 0)
(10.1304 -0.0606188 0)
(10.158 -0.0627997 0)
(10.1845 -0.0639208 0)
(10.2087 -0.0642058 0)
(10.2305 -0.0637296 0)
(10.2498 -0.0627773 0)
(10.2666 -0.0615128 0)
(10.2808 -0.0602596 0)
(10.2924 -0.0589945 0)
(10.3017 -0.0578301 0)
(10.3089 -0.0568546 0)
(10.3146 -0.0560529 0)
(10.3185 -0.0555528 0)
(10.0576 -0.0376349 0)
(10.1876 -0.0701345 0)
(10.2968 -0.0769571 0)
(10.3765 -0.0807796 0)
(10.4275 -0.0832874 0)
(10.4628 -0.0834817 0)
(10.4798 -0.0822169 0)
(10.4791 -0.079852 0)
(10.4676 -0.0768057 0)
(10.4464 -0.0734812 0)
(10.4155 -0.0700159 0)
(10.376 -0.0665802 0)
(10.3308 -0.0630708 0)
(10.2843 -0.0597662 0)
(10.236 -0.056775 0)
(10.188 -0.0540496 0)
(10.1408 -0.0517403 0)
(10.0953 -0.0500569 0)
(9.8623 -0.0382479 0)
(9.58994 -0.0735844 0)
(9.29386 -0.0879894 0)
(8.98882 -0.0919508 0)
(8.70121 -0.0904568 0)
(8.43387 -0.0855303 0)
(8.19239 -0.0780518 0)
(7.97868 -0.0697799 0)
(7.78777 -0.0615525 0)
(7.62048 -0.0530379 0)
(7.47765 -0.0443824 0)
(7.3578 -0.0364114 0)
(7.25726 -0.0300231 0)
(7.16966 -0.0247155 0)
(7.09518 -0.0201516 0)
(7.0301 -0.0165748 0)
(6.97216 -0.0137517 0)
(6.92165 -0.0118174 0)
(-0.00244991 0.00727269 -1.01297e-18)
(-0.0121674 0.0122124 1.12196e-18)
(-0.0250875 0.0135178 0)
(-0.0391039 0.0118256 0)
(-0.0493735 0.00649449 0)
(-0.0486195 -0.00252634 -7.92198e-19)
(-0.0335524 -0.0149346 0)
(-0.0072785 -0.0280725 0)
(0.0271658 -0.0380666 0)
(0.0669682 -0.0431007 0)
(0.109184 -0.0437842 4.16866e-19)
(0.150482 -0.0412112 0)
(0.188166 -0.0364024 0)
(0.220599 -0.0301254 0)
(0.246917 -0.0229532 0)
(0.266692 -0.0152299 2.35963e-19)
(0.279592 -0.00716821 0)
(0.285779 0.00129541 0)
(0.284277 0.0100748 0)
(0.27515 0.0187237 0)
(0.258969 0.0264985 0)
(0.236368 0.0326315 0)
(0.208205 0.0363931 0)
(0.175768 0.0372131 3.24471e-19)
(0.140815 0.0346705 -3.78338e-19)
(0.10546 0.0287788 4.5702e-19)
(0.0720899 0.0201372 5.72249e-19)
(0.0429671 0.0102654 0)
(0.0198455 0.00148221 0)
(0.00336666 -0.00411172 -1.31237e-18)
(-0.00705322 -0.00654841 -1.44415e-18)
(-0.0127996 -0.00777969 0)
(-0.0135417 -0.00919278 0)
(-0.00831511 -0.0118886 -1.42785e-18)
(0.00316336 -0.0162805 0)
(0.0225221 -0.0221035 0)
(0.0482286 -0.0269115 6.92558e-19)
(0.0776751 -0.0288461 0)
(0.105955 -0.0265242 4.52006e-19)
(0.128676 -0.020516 8.13371e-19)
(0.142842 -0.0125563 0)
(0.148129 -0.00491904 0)
(0.146114 0.000294818 0)
(0.140684 0.00222238 0)
(0.135693 0.000167647 0)
(0.133075 -0.00642641 8.35547e-19)
(0.129523 -0.01663 8.4143e-19)
(0.11833 -0.0244891 8.64583e-19)
(0.092631 -0.019742 0)
(0.0479318 -0.000377503 -1.1253e-18)
(-0.0306771 0.017488 0)
(-0.127049 0.035504 5.24889e-19)
(-0.231872 0.0586388 3.46885e-19)
(-0.34773 0.0821739 0)
(-0.471737 0.102396 0)
(-0.60079 0.113517 0)
(-0.732262 0.113965 1.62145e-19)
(-0.861259 0.110455 0)
(-0.984852 0.104964 0)
(-1.10229 0.09907 0)
(-1.21242 0.0940597 0)
(-1.31457 0.085365 0)
(-1.40894 0.0759538 0)
(-1.4952 0.0687442 0)
(-1.57456 0.0626663 0)
(-1.64774 0.0575596 -9.36003e-20)
(-1.71549 0.0527341 0)
(-1.77829 0.0484234 0)
(-1.83676 0.0446623 8.64089e-20)
(-1.89146 0.0414107 8.45348e-20)
(-1.94287 0.0385635 0)
(-1.99136 0.0360883 -8.1271e-20)
(-2.0373 0.0339028 7.98215e-20)
(-2.08095 0.0319771 0)
(-2.12255 0.0302508 -7.71853e-20)
(-2.16228 0.0287046 0)
(-2.2003 0.0272948 0)
(-2.23674 0.02601 7.36845e-20)
(-2.27171 0.024815 0)
(-2.30529 0.0237116 -7.15524e-20)
(-2.33755 0.0226691 0)
(-2.36854 0.0216923 6.95359e-20)
(-2.39832 0.0207545 6.85635e-20)
(-2.4269 0.0198646 6.76131e-20)
(-2.45432 0.0190009 1.33367e-19)
(-2.4806 0.0181684 -1.31545e-19)
(-2.50575 0.017352 0)
(-2.52978 0.0165461 0)
(-2.55265 0.0157317 0)
(-2.57435 0.014916 -1.2458e-19)
(-2.5949 0.0140527 -1.22901e-19)
(-2.61426 0.01316 1.21245e-19)
(-2.63242 0.0122068 0)
(-2.64933 0.0112004 -1.17995e-19)
(-2.66495 0.0101169 -1.16397e-19)
(-2.67921 0.00896867 -1.14816e-19)
(-2.69204 0.0077448 0)
(-2.70337 0.00647575 0)
(-2.71313 0.00518574 0)
(-2.72119 0.00393038 -1.08647e-19)
(-2.72744 0.00272832 0)
(-2.73183 0.00159184 0)
(-2.73429 0.000599146 1.04081e-19)
(-2.73531 -0.000292458 0)
(-2.73484 -0.00114267 0)
(-2.73288 -0.00199538 9.91557e-20)
(-2.7294 -0.00282529 0)
(-2.72437 -0.00366482 0)
(-2.71779 -0.00448409 -9.37442e-20)
(-2.70965 -0.00531119 -9.18058e-20)
(-2.69995 -0.00611919 0)
(-2.6887 -0.00692974 8.7703e-20)
(-2.67591 -0.0077214 0)
(-2.66158 -0.00850848 -8.32733e-20)
(-2.64574 -0.00927656 0)
(-2.62838 -0.0100325 -7.84902e-20)
(-2.60953 -0.0107696 -7.59596e-20)
(-2.58925 -0.0114903 0)
(-2.56756 -0.0121926 0)
(-2.54448 -0.0128695 0)
(-2.52001 -0.0135195 0)
(-2.49417 -0.0141343 0)
(-2.46701 -0.0147293 0)
(-2.43859 -0.0152898 0)
(-2.40896 -0.0158418 -5.21841e-20)
(-2.37819 -0.0163555 4.87552e-20)
(-2.34631 -0.0168596 0)
(-2.31335 -0.0173144 0)
(-2.27938 -0.0177534 0)
(-2.24442 -0.0181672 0)
(-2.20851 -0.0185532 6.01086e-20)
(-2.17173 -0.0188809 0)
(-2.13409 -0.0191748 -4.3683e-20)
(-2.09569 -0.0193736 3.51512e-20)
(-2.05655 -0.0194767 0)
(-2.01679 -0.0193466 0)
(-1.97649 -0.0190439 0)
(-1.93567 -0.0189727 1.17658e-21)
(-1.89421 -0.0192244 1.08328e-20)
(-1.85221 -0.0193917 0)
(-1.80968 -0.0195321 3.09415e-20)
(-1.76663 -0.0196358 4.14189e-20)
(-1.72308 -0.0197118 -5.21895e-20)
(-1.67907 -0.0197604 0)
(-1.63468 -0.0197905 0)
(-1.58992 -0.0198028 -8.63574e-20)
(-1.54484 -0.0198025 0)
(-1.49947 -0.0197906 0)
(-1.45382 -0.0197702 0)
(-1.40791 -0.0197437 0)
(-1.36177 -0.0197123 1.50405e-19)
(-1.31539 -0.0196794 1.64478e-19)
(-1.26879 -0.0196442 0)
(-1.22197 -0.0196111 1.94134e-19)
(-1.17495 -0.0195785 0)
(-1.12773 -0.0195536 0)
(-1.08031 -0.0195355 2.43033e-19)
(-1.03269 -0.0195337 0)
(-0.984852 -0.0195466 2.79193e-19)
(-0.936791 -0.0195846 0)
(-0.888481 -0.0196454 0)
(-0.839893 -0.0197396 3.40235e-19)
(-0.790995 -0.0198624 0)
(-0.741755 -0.020022 3.86676e-19)
(-0.692138 -0.0202121 0)
(-0.642116 -0.02044 0)
(-0.591662 -0.0207011 0)
(-0.540748 -0.0210035 -4.98875e-19)
(-0.489347 -0.0213429 0)
(-0.437433 -0.0217267 5.68258e-19)
(-0.384984 -0.0221477 0)
(-0.331989 -0.022603 0)
(-0.278461 -0.0230821 0)
(-0.224447 -0.0235842 0)
(-0.170073 -0.02407 0)
(-0.11562 -0.0244111 0)
(-0.0614983 -0.0244474 0)
(-0.010338 -0.0236374 -2.00531e-18)
(0.0466555 -0.0213126 0)
(0.0627423 -0.0100891 0)
(6.34818e-05 0.0195996 3.08561e-18)
(-0.00586531 0.0339854 -3.5256e-18)
(-0.0118415 0.0355094 0)
(-0.0124703 0.0265579 2.53331e-18)
(0.000750574 0.00555149 0)
(0.0291435 -0.0297974 7.39206e-19)
(0.0669989 -0.0698269 -9.36563e-19)
(0.110497 -0.103003 -6.69803e-19)
(0.155668 -0.123678 0)
(0.199154 -0.131338 -4.37721e-19)
(0.23878 -0.128474 -1.91415e-19)
(0.273577 -0.118331 0)
(0.303186 -0.103735 0)
(0.327618 -0.0867093 0)
(0.347079 -0.0685912 0)
(0.361867 -0.050144 -1.48228e-19)
(0.37236 -0.0317532 0)
(0.378728 -0.0135762 3.0134e-19)
(0.381906 0.0044166 0)
(0.381873 0.0221308 0)
(0.378281 0.0392149 -3.12635e-19)
(0.370647 0.0552253 0)
(0.358423 0.0694269 3.33148e-19)
(0.34112 0.0809006 -1.7433e-19)
(0.318492 0.0885327 1.85252e-19)
(0.290684 0.0912793 -2.00356e-19)
(0.258472 0.0883623 -2.21412e-19)
(0.223314 0.079768 0)
(0.187324 0.0663524 0)
(0.153164 0.0497956 3.46464e-19)
(0.123768 0.0317469 -4.15897e-19)
(0.102212 0.013244 0)
(0.0903079 -0.00569525 0)
(0.0896626 -0.0246282 5.40134e-19)
(0.0994973 -0.0434678 0)
(0.117113 -0.0612423 0)
(0.137406 -0.0726098 -3.17964e-19)
(0.154659 -0.0720958 0)
(0.165017 -0.060436 2.49151e-19)
(0.167458 -0.0419398 -4.92701e-19)
(0.162137 -0.0217465 0)
(0.150384 -0.00587837 0)
(0.133547 0.00334102 -1.22707e-18)
(0.109551 0.00742375 -1.35993e-18)
(0.0711404 0.0115097 -1.57192e-18)
(0.00870295 0.0256954 8.33527e-19)
(-0.0871781 0.0595079 -5.95235e-19)
(-0.207378 0.101958 -1.12948e-18)
(-0.337296 0.145185 5.24362e-19)
(-0.472735 0.185539 1.97134e-19)
(-0.613627 0.218463 0)
(-0.755129 0.242911 -1.31405e-19)
(-0.894349 0.25937 1.14162e-19)
(-1.02907 0.267913 0)
(-1.15614 0.268875 0)
(-1.27359 0.263289 0)
(-1.3799 0.252151 -7.98685e-20)
(-1.47488 0.237244 0)
(-1.55901 0.2204 1.46121e-19)
(-1.63316 0.202704 0)
(-1.69866 0.185468 1.35352e-19)
(-1.75786 0.168922 0)
(-1.81116 0.153461 -1.2889e-19)
(-1.85989 0.139708 0)
(-1.90474 0.127476 1.23229e-19)
(-1.94645 0.116746 -6.0506e-20)
(-1.98548 0.107372 0)
(-2.02237 0.0992165 -1.16749e-19)
(-2.05738 0.0921156 -5.74385e-20)
(-2.09078 0.0859114 -5.6583e-20)
(-2.12272 0.0804587 0)
(-2.15335 0.0756324 -5.49455e-20)
(-2.18276 0.0713216 -5.42274e-20)
(-2.21103 0.0674398 0)
(-2.23822 0.063905 5.27762e-20)
(-2.26438 0.0606654 -1.04075e-19)
(-2.28953 0.0576583 0)
(-2.31371 0.0548556 -5.07058e-20)
(-2.33694 0.0522088 0)
(-2.35925 0.0497094 1.48033e-19)
(-2.38063 0.0473172 0)
(-2.40111 0.0450309 -1.44115e-19)
(-2.42068 0.042818 -4.7425e-20)
(-2.43937 0.0406841 4.66944e-20)
(-2.45715 0.0386063 9.21234e-20)
(-2.47404 0.0365917 -9.08709e-20)
(-2.49003 0.0346262 0)
(-2.50509 0.0327019 0)
(-2.51918 0.03081 0)
(-2.53227 0.0289339 2.58316e-19)
(-2.54436 0.0270496 8.49619e-20)
(-2.55544 0.0251593 -8.37621e-20)
(-2.5655 0.0232354 0)
(-2.57453 0.0212961 -8.12381e-20)
(-2.5825 0.0193069 8.01995e-20)
(-2.5894 0.0172845 7.90207e-20)
(-2.59522 0.0151916 0)
(-2.59996 0.0130455 0)
(-2.60364 0.0108252 0)
(-2.60632 0.00857289 7.43409e-20)
(-2.60809 0.006303 0)
(-2.60903 0.00406351 -1.43987e-19)
(-2.6092 0.00192411 -2.12271e-19)
(-2.60814 -0.000133445 1.39018e-19)
(-2.60573 -0.00213911 0)
(-2.60189 -0.00412981 6.69792e-20)
(-2.59657 -0.00607795 0)
(-2.58974 -0.00801501 1.28391e-19)
(-2.58139 -0.00991026 -6.28757e-20)
(-2.57153 -0.0117921 -6.14232e-20)
(-2.56015 -0.0136306 0)
(-2.54725 -0.0154474 -1.74529e-19)
(-2.53284 -0.0172161 1.13229e-19)
(-2.51693 -0.0189514 5.47687e-20)
(-2.49954 -0.020633 0)
(-2.48068 -0.0222702 5.12522e-20)
(-2.46037 -0.0238527 1.48693e-19)
(-2.43865 -0.0253911 0)
(-2.41556 -0.026874 9.166e-20)
(-2.39112 -0.0282937 8.76887e-20)
(-2.36534 -0.0296362 8.3609e-20)
(-2.33822 -0.0308941 0)
(-2.30983 -0.0320836 0)
(-2.28021 -0.0331979 0)
(-2.24943 -0.0342662 -3.34377e-20)
(-2.21752 -0.0352618 -3.04912e-20)
(-2.18454 -0.0362125 0)
(-2.15053 -0.0370832 -5.21705e-20)
(-2.11551 -0.0379094 -4.72981e-20)
(-2.07955 -0.0386508 0)
(-2.04269 -0.0393499 -3.6564e-20)
(-2.00496 -0.0399657 -6.43525e-20)
(-1.96642 -0.0405419 2.62187e-20)
(-1.92711 -0.0410425 2.24606e-20)
(-1.88707 -0.0415253 0)
(-1.84631 -0.0419665 0)
(-1.80485 -0.0424041 0)
(-1.76272 -0.0427835 -9.18289e-22)
(-1.72008 -0.0431011 4.96841e-21)
(-1.67695 -0.0433332 2.28645e-20)
(-1.63331 -0.0435082 -1.79703e-20)
(-1.58915 -0.0436182 2.21906e-20)
(-1.54451 -0.043673 2.96586e-20)
(-1.49942 -0.043677 0)
(-1.45393 -0.0436445 0)
(-1.40807 -0.043578 -4.60195e-20)
(-1.36188 -0.0434887 0)
(-1.31538 -0.0433758 0)
(-1.26858 -0.0432495 1.30534e-19)
(-1.22151 -0.0431075 0)
(-1.17418 -0.0429599 7.70376e-20)
(-1.12659 -0.0428027 -8.4985e-20)
(-1.07874 -0.0426446 0)
(-1.03065 -0.0424792 9.63202e-20)
(-0.982308 -0.0423146 0)
(-0.933728 -0.0421466 0)
(-0.884905 -0.0419863 -1.17747e-19)
(-0.835836 -0.0418323 2.47492e-19)
(-0.786509 -0.0416964 -1.31376e-19)
(-0.736908 -0.0415784 0)
(-0.687008 -0.0414891 0)
(-0.636781 -0.0414274 1.50981e-19)
(-0.586193 -0.0413999 0)
(-0.535209 -0.0414024 1.65646e-19)
(-0.483794 -0.0414365 0)
(-0.431918 -0.0414962 0)
(-0.379549 -0.0415833 0)
(-0.32666 -0.0416955 1.98405e-19)
(-0.273223 -0.0418334 0)
(-0.21921 -0.0419961 -2.15161e-19)
(-0.164599 -0.0421813 0)
(-0.109376 -0.0423744 0)
(-0.0535501 -0.0425477 4.82532e-19)
(0.0027977 -0.0426446 -4.97062e-19)
(0.0595579 -0.0425855 0)
(0.116534 -0.0422517 0)
(0.173645 -0.0414738 0)
(0.228863 -0.0398356 1.5252e-18)
(0.28747 -0.0364124 0)
(0.324443 -0.0251847 -1.05125e-18)
(0.000579533 0.0222488 3.17392e-22)
(0.000631962 0.0384505 4.86131e-18)
(0.0062604 0.0316449 0)
(0.0254741 -0.000199616 -3.34031e-18)
(0.063531 -0.0573341 0)
(0.113355 -0.121106 0)
(0.164937 -0.172377 -3.36181e-22)
(0.211386 -0.202338 3.85798e-19)
(0.249986 -0.211448 3.31142e-19)
(0.280669 -0.204598 2.95551e-19)
(0.304572 -0.187422 0)
(0.3231 -0.164538 0)
(0.337437 -0.139091 -2.45309e-19)
(0.348423 -0.112951 -4.76536e-19)
(0.356611 -0.0871303 4.69015e-19)
(0.362374 -0.0621068 0)
(0.365975 -0.038072 4.70254e-19)
(0.367602 -0.0150945 -2.38703e-19)
(0.367494 0.00685077 0)
(0.365977 0.0279161 4.88306e-19)
(0.363308 0.0482357 2.4817e-19)
(0.359665 0.0677843 -5.11735e-19)
(0.355018 0.0862463 -2.65584e-19)
(0.349011 0.102975 0)
(0.341012 0.11695 5.8592e-19)
(0.330181 0.12686 6.2e-19)
(0.315726 0.131271 0)
(0.297228 0.12898 7.12603e-19)
(0.275076 0.119383 0)
(0.250642 0.102722 8.6479e-19)
(0.226266 0.0800229 4.87198e-19)
(0.204745 0.0526644 0)
(0.18859 0.0221636 0)
(0.178603 -0.0104531 0)
(0.174522 -0.043652 0)
(0.171287 -0.0692737 0)
(0.16265 -0.0772615 0)
(0.145859 -0.0662132 7.72252e-19)
(0.122108 -0.0429492 -1.14094e-18)
(0.0917555 -0.0140514 0)
(0.0546467 0.0171966 0)
(0.00732404 0.0463862 0)
(-0.0617096 0.0740907 5.55992e-22)
(-0.154025 0.111865 7.00212e-19)
(-0.266043 0.160139 1.03078e-18)
(-0.393617 0.213239 -7.88695e-19)
(-0.530225 0.266897 -3.14292e-19)
(-0.668896 0.316369 2.59101e-19)
(-0.803937 0.357703 4.86684e-22)
(-0.931604 0.389956 1.94561e-19)
(-1.04864 0.411849 0)
(-1.15383 0.422874 1.58508e-19)
(-1.2466 0.423766 1.0325e-21)
(-1.3267 0.415626 0)
(-1.39501 0.399909 0)
(-1.45331 0.378368 -1.22309e-19)
(-1.50394 0.352865 0)
(-1.549 0.325494 0)
(-1.59011 0.298077 1.0921e-19)
(-1.62846 0.27183 2.09878e-19)
(-1.66473 0.24748 -1.01165e-19)
(-1.69962 0.225285 0)
(-1.73363 0.205345 9.63987e-20)
(-1.76689 0.187825 0)
(-1.79941 0.172565 9.25625e-20)
(-1.83118 0.159324 9.04114e-20)
(-1.86218 0.147778 -1.77585e-19)
(-1.89242 0.137684 -8.72135e-20)
(-1.92188 0.128815 0)
(-1.95056 0.120974 1.6842e-19)
(-1.97844 0.113985 0)
(-2.00551 0.1077 2.44572e-19)
(-2.03177 0.101996 1.60477e-19)
(-2.05722 0.0967729 1.58004e-19)
(-2.08185 0.0919449 -1.55595e-19)
(-2.10568 0.0874475 2.29914e-19)
(-2.1287 0.0832218 0)
(-2.15092 0.0792271 0)
(-2.17234 0.0754229 -1.4642e-19)
(-2.19297 0.071785 -2.16384e-19)
(-2.2128 0.0682827 0)
(-2.23184 0.0649003 7.00067e-20)
(-2.25008 0.0616142 0)
(-2.26754 0.0584146 -2.03528e-19)
(-2.28419 0.0552851 -1.44901e-22)
(-2.30004 0.0522198 1.47667e-22)
(-2.31509 0.0492062 1.29461e-19)
(-2.32929 0.0462349 0)
(-2.34263 0.0432942 -1.25457e-19)
(-2.35508 0.0403617 -1.46806e-22)
(-2.36663 0.0374209 0)
(-2.37727 0.0344554 0)
(-2.38701 0.0314653 0)
(-2.39581 0.0284411 1.15898e-19)
(-2.40365 0.0253844 0)
(-2.41052 0.0222916 0)
(-2.4164 0.0191676 0)
(-2.42128 0.0160196 0)
(-2.42513 0.0128572 0)
(-2.42794 0.00969349 1.04699e-19)
(-2.42968 0.00652585 0)
(-2.43029 0.00335637 1.00933e-19)
(-2.42972 0.000156955 9.89712e-20)
(-2.42788 -0.00306327 -9.69863e-20)
(-2.42469 -0.00628257 0)
(-2.42011 -0.00947616 -9.29208e-20)
(-2.4141 -0.0126392 0)
(-2.40663 -0.0157632 -8.86855e-20)
(-2.39769 -0.0188465 8.64937e-20)
(-2.38727 -0.0218842 2.53141e-19)
(-2.37538 -0.0248706 0)
(-2.36202 -0.0278008 2.39252e-19)
(-2.3472 -0.0306658 7.77027e-20)
(-2.33092 -0.0334608 0)
(-2.31319 -0.0361756 1.44919e-19)
(-2.29404 -0.0388074 1.39756e-19)
(-2.27349 -0.0413519 -2.01354e-19)
(-2.25158 -0.0438139 0)
(-2.22833 -0.0461815 -6.13789e-20)
(-2.20377 -0.0484431 -5.85382e-20)
(-2.1779 -0.0505811 -1.67753e-19)
(-2.15075 -0.0525934 0)
(-2.12236 -0.0544852 0)
(-2.0928 -0.0562698 0)
(-2.0621 -0.0579534 -4.4443e-20)
(-2.03032 -0.0595353 0)
(-1.99749 -0.0610154 0)
(-1.96366 -0.0623886 3.3911e-20)
(-1.92886 -0.0636589 3.06349e-20)
(-1.89315 -0.0648206 0)
(-1.85655 -0.0658801 0)
(-1.81912 -0.066831 4.12258e-20)
(-1.78089 -0.0676812 0)
(-1.7419 -0.0684221 -2.75891e-20)
(-1.70219 -0.0690721 -2.17851e-20)
(-1.6618 -0.0696319 0)
(-1.62075 -0.0701184 0)
(-1.57911 -0.0705522 9.38833e-22)
(-1.53695 -0.0709308 -1.11522e-21)
(-1.49429 -0.0712169 -1.11759e-21)
(-1.45113 -0.0714157 0)
(-1.40747 -0.0715213 -5.54501e-20)
(-1.36334 -0.0715445 0)
(-1.31877 -0.0714928 0)
(-1.27381 -0.0713825 0)
(-1.22848 -0.0712193 5.6574e-20)
(-1.18281 -0.0710168 0)
(-1.13682 -0.0707768 -1.39165e-19)
(-1.09053 -0.0705123 -7.77313e-20)
(-1.04396 -0.0702232 0)
(-0.997108 -0.0699222 -9.17678e-20)
(-0.949983 -0.0696071 0)
(-0.902585 -0.0692882 0)
(-0.854918 -0.0689591 -3.35975e-19)
(-0.806979 -0.0686284 2.37187e-19)
(-0.75877 -0.0682924 0)
(-0.710289 -0.0679644 2.64958e-19)
(-0.66153 -0.0676453 -1.40459e-19)
(-0.612479 -0.0673501 0)
(-0.56312 -0.0670805 0)
(-0.513429 -0.0668502 0)
(-0.463377 -0.0666598 -5.02343e-19)
(-0.412932 -0.0665166 0)
(-0.362058 -0.066416 -1.82033e-19)
(-0.310722 -0.0663577 0)
(-0.258891 -0.0663339 0)
(-0.206536 -0.0663439 0)
(-0.153631 -0.0663858 0)
(-0.100147 -0.0664578 0)
(-0.0460578 -0.0665556 0)
(0.00864263 -0.0666658 -4.5902e-19)
(0.0639666 -0.0667694 0)
(0.11993 -0.0668312 -2.376e-19)
(0.176507 -0.0667917 7.19425e-19)
(0.233629 -0.066552 0)
(0.291088 -0.0659505 0)
(0.348872 -0.0647431 -4.96326e-19)
(0.405449 -0.06244 -5.04963e-19)
(0.464905 -0.0581332 5.11499e-19)
(0.511782 -0.0467857 5.26456e-19)
(-0.00091139 0.0222188 -6.19263e-18)
(0.00173409 0.0261577 -7.71868e-18)
(0.0224678 -0.0138837 -3.35422e-18)
(0.0685817 -0.0935635 -8.98956e-19)
(0.127744 -0.178765 0)
(0.184201 -0.24165 8.28243e-19)
(0.228747 -0.273037 -3.35608e-19)
(0.259903 -0.277241 0)
(0.280245 -0.263281 -2.58803e-19)
(0.293276 -0.239306 0)
(0.301828 -0.210736 4.49155e-19)
(0.307715 -0.180601 0)
(0.311915 -0.150428 2.06979e-19)
(0.314884 -0.120919 4.05967e-19)
(0.31679 -0.0923881 -4.02739e-19)
(0.317677 -0.0649739 0)
(0.317556 -0.0387413 -4.09142e-19)
(0.316442 -0.0137272 0)
(0.314386 0.0100629 0)
(0.311487 0.0326667 -4.27422e-19)
(0.307874 0.054118 0)
(0.303764 0.0744404 -6.17997e-22)
(0.299382 0.093556 0)
(0.29485 0.111196 0)
(0.29012 0.126815 5.01277e-22)
(0.284892 0.139507 -5.46315e-19)
(0.278615 0.147978 -5.86169e-19)
(0.270542 0.150656 -6.30775e-19)
(0.260043 0.146016 0)
(0.246863 0.132901 -1.49569e-18)
(0.231536 0.110975 0)
(0.215076 0.081027 -9.34104e-19)
(0.198875 0.0448886 0)
(0.183203 0.00560492 0)
(0.162965 -0.0282302 1.00503e-18)
(0.133196 -0.0425981 0)
(0.0934168 -0.0342054 -7.79753e-19)
(0.0448956 -0.00884316 -5.25949e-22)
(-0.0126419 0.0278551 1.50789e-18)
(-0.0832599 0.0726089 -1.29602e-18)
(-0.168776 0.125052 0)
(-0.269057 0.182921 0)
(-0.383374 0.242595 -3.51858e-19)
(-0.506963 0.3033 0)
(-0.634276 0.363365 -2.43953e-19)
(-0.759732 0.418346 2.09848e-19)
(-0.878132 0.46352 1.84739e-19)
(-0.985147 0.497394 0)
(-1.07922 0.519802 -1.49793e-19)
(-1.15961 0.5309 -1.37514e-19)
(-1.2264 0.531406 2.56592e-19)
(-1.2812 0.522507 -1.19133e-19)
(-1.32581 0.505819 -1.12117e-19)
(-1.3624 0.4831 0)
(-1.39328 0.456084 0)