/*--------------------------------*- C++ -*----------------------------------*\
  =========                 |
  \\      /  F ield         | OpenFOAM: The Open Source CFD Toolbox
   \\    /   O peration     | Website:  https://openfoam.org
    \\  /    A nd           | Version:  13
     \\/     M anipulation  |
\*---------------------------------------------------------------------------*/
FoamFile
{
    format      ascii;
    class       volScalarField;
    location    "7.5";
    object      epsilon;
}
// * * * * * * * * * * * * * * * * * * * * * * * * * * * * * * * * * * * * * //

dimensions      [0 2 -3 0 0 0 0];

internalField   nonuniform List<scalar> 
1600
(
2.68366e-05
9.26816e-05
0.000181734
0.000181931
0.000166705
0.000170376
0.000219121
0.00037252
0.000562728
0.000812707
0.00126313
0.0015746
0.00172092
0.00189895
0.00218937
0.00256985
0.00292454
0.00333088
0.003725
0.00417396
0.00463632
0.00516318
0.00573639
0.00640313
0.00718242
0.00787363
0.00858197
0.00918354
0.00970677
0.0099889
0.0101009
0.00989617
0.00908589
0.00770613
0.00578224
0.00340837
0.00164979
0.000689682
0.000219113
4.53858e-05
0.000129734
0.000164344
0.000203954
0.000195541
0.000188952
0.000225209
0.000393017
0.000846827
0.00152699
0.00251833
0.00444632
0.00536904
0.00544554
0.00507746
0.00474735
0.0045935
0.00446842
0.0044266
0.00441957
0.0045119
0.00464473
0.00484872
0.00507178
0.00535275
0.00569401
0.00611202
0.00658073
0.00712173
0.00766177
0.0081238
0.00833739
0.00837591
0.00782358
0.00677407
0.00503046
0.00290032
0.001214
0.000528522
0.000190646
7.80351e-05
0.000392112
0.000419155
0.000428353
0.000407167
0.000457602
0.00075728
0.00165229
0.00340879
0.00554225
0.0064345
0.00631422
0.00537592
0.00492149
0.00431658
0.0039273
0.00362391
0.00339091
0.00323575
0.00314417
0.00310438
0.00309316
0.00312742
0.0032296
0.00337167
0.00355603
0.00377955
0.00404945
0.00437267
0.0047533
0.0052113
0.00574192
0.00624077
0.00647386
0.0064308
0.00559605
0.0037755
0.00120407
0.000331188
0.000120065
6.39352e-05
0.000904103
0.000820932
0.00081572
0.000870198
0.00126444
0.00246148
0.00468591
0.00632066
0.00671905
0.00611546
0.00527509
0.00410586
0.00344927
0.00294637
0.00269629
0.00246206
0.00234513
0.00226996
0.00223911
0.002232
0.00226085
0.00231632
0.00239386
0.00249341
0.00261521
0.00276302
0.0029418
0.00315716
0.00341483
0.0037211
0.00407953
0.00450416
0.00506339
0.00564556
0.00587761
0.00542003
0.00275088
0.000470274
9.7717e-05
4.42184e-05
0.00171329
0.00140011
0.00148212
0.00185875
0.00296031
0.00493247
0.00625577
0.00652904
0.0059945
0.00455271
0.00340179
0.00280229
0.00239265
0.00213363
0.00198789
0.00189467
0.0018561
0.00184386
0.00185228
0.00188732
0.00193101
0.00198726
0.00205299
0.00213276
0.00222851
0.00234628
0.00249226
0.00267312
0.00289166
0.00315048
0.00345036
0.00379043
0.0041867
0.0047088
0.00548503
0.0058441
0.00522142
0.00148649
0.00018594
5.15347e-05
0.00287258
0.00222191
0.00250676
0.0032833
0.00476783
0.00592148
0.00620416
0.00577511
0.00414581
0.00297433
0.00239362
0.00204056
0.00181545
0.00170152
0.00164647
0.00162509
0.00162178
0.00163962
0.00166607
0.00170109
0.00174108
0.00179002
0.00184905
0.00192241
0.00201333
0.0021273
0.00226925
0.00244456
0.00265774
0.00291116
0.00320383
0.00353822
0.00389343
0.00428796
0.00478617
0.00545786
0.00574087
0.00399161
0.000570877
9.77592e-05
0.00434894
0.00327873
0.00373477
0.00464968
0.00557895
0.00586342
0.00556138
0.00404305
0.0027491
0.00213645
0.00181717
0.00161739
0.00151932
0.00147431
0.00145622
0.00145108
0.00145157
0.00146163
0.00147206
0.00148866
0.00151099
0.0015449
0.00159251
0.00165912
0.00174905
0.00186848
0.00202326
0.00221955
0.00246191
0.00275128
0.00308176
0.00343921
0.00381539
0.00419555
0.00458192
0.00505531
0.00541434
0.00530169
0.00145881
0.000222256
0.00592848
0.00443591
0.0048645
0.00542317
0.00563799
0.00540681
0.004153
0.00270321
0.00200566
0.00166984
0.00148709
0.00138664
0.00133868
0.00131403
0.00129567
0.00127929
0.00126287
0.00124833
0.00123755
0.00123333
0.00123422
0.00125285
0.00128713
0.00134316
0.0014257
0.00154125
0.00169775
0.00190441
0.00217069
0.00250316
0.00289976
0.00334193
0.00379152
0.00421396
0.00457124
0.00495394
0.00533257
0.00546493
0.0032041
0.000558242
0.00729552
0.00549647
0.00569298
0.00576757
0.00539903
0.00440454
0.00287195
0.00199017
0.00158971
0.00139512
0.00128825
0.00123115
0.00119637
0.00116419
0.00112965
0.0010928
0.0010553
0.00102067
0.000991664
0.000974332
0.000967566
0.000969853
0.000995581
0.00104003
0.00111102
0.00121387
0.00135784
0.00155464
0.00181912
0.0021673
0.00261071
0.0031445
0.00373011
0.00428671
0.00475957
0.00502999
0.00536364
0.00553823
0.00487108
0.00151197
0.00829655
0.00628195
0.00618231
0.00571446
0.0048079
0.00331368
0.00212128
0.00158564
0.00133962
0.00121879
0.00114857
0.00110284
0.00105984
0.00101147
0.000959174
0.000905682
0.000854674
0.000809778
0.000773507
0.000749669
0.000738786
0.000736413
0.000753225
0.000788749
0.000846734
0.000933195
0.00105668
0.00122978
0.00147012
0.00180084
0.00224797
0.00283069
0.00353866
0.00429881
0.00497143
0.00533591
0.00554778
0.00567632
0.00543437
0.00269564
0.00901434
0.00679124
0.00640013
0.00548796
0.00401301
0.00248011
0.00168872
0.00133778
0.00117397
0.00109118
0.00103274
0.000982063
0.000925125
0.000862472
0.000798235
0.000736428
0.000680796
0.000633911
0.000597193
0.000572463
0.000560694
0.000557294
0.000568083
0.00059637
0.00064285
0.000713446
0.000815598
0.000961244
0.00116824
0.00146268
0.00187979
0.00245942
0.00322753
0.00415238
0.00507893
0.00565267
0.00589354
0.00598266
0.00580702
0.00384292
0.00940763
0.00701863
0.00634463
0.00502756
0.0032587
0.00197928
0.00141915
0.00117142
0.00105401
0.000986716
0.000927445
0.00086676
0.00079821
0.000726988
0.000657885
0.000594844
0.000540557
0.000496279
0.000462375
0.000439388
0.000428256
0.000424729
0.000431841
0.000454219
0.000491382
0.00054842
0.000631693
0.000751701
0.000924995
0.00117762
0.00154903
0.00209351
0.00287051
0.00390635
0.00511054
0.00598573
0.00628587
0.00634237
0.00615864
0.00476949
0.00939673
0.00700263
0.00617171
0.00450871
0.00265038
0.00165919
0.00123799
0.00105035
0.000958881
0.000895138
0.000830393
0.000760677
0.000685288
0.000611069
0.000542386
0.000482291
0.000432183
0.000392246
0.000362113
0.00034156
0.000331476
0.000328113
0.000332901
0.000350631
0.000380575
0.000426831
0.000494756
0.000593206
0.000736607
0.000948812
0.00126887
0.00175747
0.00249709
0.00356797
0.0049744
0.00629875
0.00678927
0.00683965
0.00646916
0.0056385
0.00927997
0.00689588
0.00584345
0.00398147
0.00223588
0.00144236
0.00110782
0.000956653
0.000879178
0.000813598
0.000743099
0.000667446
0.000589589
0.000516264
0.000450945
0.00039555
0.000350396
0.000314964
0.000288465
0.000270247
0.000261199
0.000258078
0.00026135
0.000275512
0.000299966
0.000337952
0.000393987
0.000475464
0.000594655
0.000772559
0.00104564
0.0014758
0.00215911
0.00321315
0.00469879
0.00644949
0.00731201
0.00741035
0.0069258
0.00644215
0.00899933
0.00665677
0.00545665
0.00352176
0.00195422
0.00128779
0.00100922
0.00088232
0.000810862
0.000742053
0.000667266
0.000588789
0.000511476
0.000441173
0.00038037
0.000329955
0.000289506
0.00025809
0.000234713
0.000218555
0.00021037
0.000207485
0.00020975
0.000221171
0.000241424
0.000273084
0.000319984
0.000388311
0.000488347
0.000637981
0.000869587
0.00124239
0.00185997
0.00287783
0.00444567
0.00649064
0.00785335
0.00805683
0.00742965
0.00722814
0.0085108
0.0063626
0.0050626
0.00315219
0.00175409
0.00117413
0.000932946
0.000822023
0.000752524
0.00068089
0.000603622
0.000524658
0.00044957
0.000383112
0.000326904
0.000281048
0.000244664
0.000216602
0.000195783
0.000181357
0.000173853
0.000171168
0.000172764
0.000182065
0.000199055
0.000225841
0.000265741
0.00032405
0.00040948
0.000537193
0.00073518
0.00105715
0.001605
0.00255348
0.00412808
0.00641884
0.00835795
0.00878493
0.00802789
0.00799176
0.00794876
0.00603995
0.00468738
0.00286518
0.00160921
0.00108901
0.000873255
0.000772749
0.000703519
0.0006301
0.000551911
0.000473924
0.000401762
0.000339185
0.000287126
0.000245148
0.000212107
0.000186753
0.000167984
0.000154949
0.000147964
0.00014543
0.000146581
0.00015423
0.000168642
0.000191599
0.00022603
0.000276574
0.000350754
0.000461514
0.00063286
0.000912462
0.00139716
0.0022717
0.00381767
0.00624835
0.00880796
0.00957849
0.00867119
0.00875086
0.0072803
0.00573452
0.0043539
0.00264903
0.00150517
0.0010259
0.000826789
0.000732808
0.000663376
0.000589222
0.000511253
0.00043503
0.000365891
0.000306813
0.000258246
0.000219412
0.000189028
0.000165804
0.000148641
0.000136698
0.000130073
0.000127623
0.000128472
0.000134839
0.000147201
0.000167123
0.000197227
0.000241696
0.000307195
0.000404999
0.000555724
0.000800852
0.00122891
0.0020249
0.00351477
0.00603578
0.00917057
0.0104164
0.00943547
0.00950447
0.0066253
0.0054368
0.00406568
0.00249199
0.00143345
0.0009789
0.00079087
0.00070073
0.000631273
0.000557393
0.000480492
0.00040633
0.000339966
0.000283847
0.000238092
0.000201719
0.000173379
0.000151781
0.000135843
0.000124733
0.000118322
0.000115868
0.000116485
0.00012186
0.000132601
0.000150114
0.000176763
0.000216406
0.00027509
0.00036292
0.000497891
0.000716072
0.00109695
0.00181946
0.00323895
0.00581088
0.00944427
0.0112836
0.0102759
0.010253
0.00586068
0.00517168
0.00383065
0.00238247
0.00138752
0.00094836
0.000764204
0.000675826
0.000606662
0.000533739
0.000458356
0.000386409
0.00032254
0.000268789
0.000225136
0.000190548
0.000163691
0.000143284
0.000128246
0.000117749
0.000111448
0.000108908
0.000109449
0.00011411
0.000123506
0.000138968
0.000162855
0.000198657
0.00025193
0.000332025
0.000454992
0.000652343
0.000994329
0.00164923
0.0029897
0.00560007
0.00961073
0.0121799
0.0112323
0.0110011
0.00524014
0.00494647
0.00364304
0.00231273
0.0013688
0.000927039
0.000745599
0.000656766
0.000588156
0.000516996
0.000443872
0.000373939
0.000311884
0.000259865
0.000217812
0.000184661
0.000159009
0.000139483
0.000125035
0.000114892
0.000108592
0.000105856
0.000106505
0.000110678
0.000119188
0.00013328
0.000154903
0.000187278
0.000236004
0.000310061
0.000423931
0.000605659
0.000916984
0.00151274
0.00276808
0.0053687
0.009729
0.0130862
0.0123008
0.01174
0.00471149
0.0047385
0.00352358
0.00227611
0.00137529
0.000928066
0.000733825
0.000643721
0.000575769
0.000506665
0.000435358
0.000367932
0.000308384
0.000258163
0.000217293
0.000184773
0.000159353
0.00013996
0.000125578
0.000115433
0.000109009
0.00010601
0.000106421
0.000110006
0.000117916
0.000131252
0.000151527
0.000181778
0.000227156
0.000295919
0.000402553
0.00057281
0.000860576
0.00140638
0.0025789
0.00514434
0.00978402
0.0140048
0.0134896
0.0124769
0.00424349
0.00456523
0.00344846
0.00228124
0.00139788
0.000937691
0.000734411
0.000634965
0.000567197
0.000500675
0.000433659
0.000368632
0.000309965
0.000260242
0.000219653
0.000187344
0.000162123
0.000142843
0.000128523
0.000118404
0.000111976
0.000109007
0.000109341
0.00011236
0.000119436
0.000131743
0.000150927
0.000180003
0.000223565
0.000289113
0.000390994
0.000552814
0.00082218
0.00132728
0.00242112
0.00492829
0.00980407
0.0149524
0.0147822
0.0131981
0.00381697
0.0044283
0.00343218
0.00230681
0.00144601
0.000961263
0.000740466
0.000635144
0.000564636
0.000500807
0.000435485
0.000372198
0.000314879
0.00026596
0.000225796
0.000193696
0.00016858
0.000149307
0.000134926
0.000124695
0.000118102
0.00011493
0.000115227
0.000117951
0.000124557
0.00013637
0.000154599
0.000181944
0.000223197
0.000286939
0.00038638
0.000543587
0.000802635
0.00127277
0.00229665
0.00472656
0.00980128
0.0159028
0.0161903
0.0139089
0.00341819
0.0043234
0.00344715
0.00236594
0.00152065
0.00100806
0.000756346
0.000639037
0.000566063
0.000502969
0.000440405
0.000380043
0.000324822
0.00027683
0.00023687
0.00020461
0.000179174
0.000159544
0.000144813
0.000134258
0.000127367
0.00012394
0.000124226
0.000126809
0.000133162
0.000144768
0.000162631
0.000189318
0.000229251
0.00029019
0.000386074
0.000540996
0.000795316
0.00124335
0.00220389
0.00454776
0.00975795
0.0168513
0.0177178
0.0145952
0.0030392
0.00424659
0.00348969
0.00246013
0.00162109
0.00107739
0.00078892
0.00065007
0.00057097
0.000508279
0.000449157
0.000391729
0.000338474
0.0002915
0.00025181
0.000219363
0.000193519
0.000173421
0.000158242
0.000147298
0.000140084
0.000136403
0.000136707
0.000139266
0.000145559
0.000157189
0.000175007
0.000201473
0.000240889
0.000301057
0.000395831
0.000548202
0.000796094
0.00123214
0.00214021
0.00439778
0.00971185
0.0177773
0.0193726
0.0152595
0.00267067
0.00418488
0.00356806
0.00258701
0.00175356
0.00117417
0.000842034
0.000673277
0.000581743
0.00051754
0.000460528
0.000406066
0.000355137
0.000309537
0.000270387
0.000237917
0.000211742
0.000191197
0.000175571
0.000164247
0.000156741
0.000152864
0.000153226
0.00015587
0.000162293
0.000174164
0.000192238
0.000218913
0.000258414
0.00031851
0.000413264
0.000566711
0.000815665
0.00123436
0.00210935
0.00427587
0.00968149
0.0186973
0.0211272
0.015888
0.00230879
0.00412702
0.00367207
0.00273002
0.00191247
0.00130213
0.00092194
0.0007151
0.000603295
0.000532048
0.000474876
0.000422706
0.000374228
0.000330406
0.000292233
0.000260108
0.000233879
0.000213084
0.000197154
0.00018557
0.00017788
0.000173961
0.000174438
0.000177283
0.000184037
0.000196356
0.000214961
0.00024225
0.00028245
0.000343425
0.000439403
0.000595088
0.00084738
0.00126208
0.00210014
0.00417253
0.00960117
0.0196079
0.0229655
0.0164859
0.00194536
0.00403507
0.00375016
0.00291714
0.00210075
0.00146318
0.00103346
0.000780777
0.000639885
0.000555019
0.000493817
0.00044215
0.000395624
0.000353732
0.000316958
0.000285656
0.000259813
0.000239141
0.000223212
0.00021163
0.000203952
0.000200273
0.000200948
0.000204134
0.000211443
0.000224413
0.000243815
0.000272122
0.000313647
0.000376497
0.000475064
0.000634892
0.000893497
0.00131037
0.00211638
0.00411158
0.00951972
0.0204816
0.0248304
0.017039
0.00161939
0.00391434
0.00379062
0.00312283
0.00231495
0.00166109
0.00118588
0.000881348
0.000700974
0.000593084
0.000521341
0.000466401
0.000420033
0.000379506
0.000344227
0.000314149
0.000289195
0.000269148
0.000253667
0.000242502
0.000235122
0.000232109
0.000233097
0.000236797
0.000244931
0.000258774
0.000279259
0.000309044
0.000352598
0.000418472
0.00052114
0.000687052
0.00095433
0.00138116
0.00216639
0.0040868
0.00942817
0.0212653
0.0266453
0.0175597
0.00135084
0.0036682
0.00382564
0.00332413
0.00253666
0.00188458
0.00137898
0.00102541
0.000798526
0.000657392
0.000566116
0.000501494
0.000451285
0.000409925
0.000375136
0.000346
0.000322047
0.000302942
0.000288274
0.000277969
0.000271159
0.00026933
0.000270769
0.000275193
0.000284479
0.000299489
0.000321439
0.000353326
0.00039981
0.000470157
0.000578729
0.000753243
0.00103173
0.00147543
0.00224759
0.00408711
0.00936236
0.0219653
0.028318
0.0180404
0.00110649
0.0031615
0.00388211
0.00352009
0.0027713
0.00213179
0.00161438
0.00122292
0.000947874
0.000764032
0.000641997
0.000558088
0.000497027
0.00045018
0.00041303
0.000383243
0.000359492
0.000341061
0.000327154
0.000317921
0.000311794
0.00031155
0.000313569
0.000318951
0.00032977
0.000346396
0.000370409
0.000405393
0.000456103
0.000532982
0.000649801
0.000836562
0.00112963
0.00159961
0.00237472
0.0041713
0.00934057
0.0225524
0.0297697
0.0185069
0.000876991
0.00238961
0.00381368
0.00359883
0.00299499
0.00238454
0.00188136
0.0014763
0.00116539
0.000937548
0.000775298
0.000660244
0.000577348
0.000516228
0.00047015
0.00043503
0.000408254
0.000388332
0.00037382
0.000364623
0.000359089
0.000359509
0.00036236
0.000369118
0.000381601
0.000400585
0.000427684
0.000467489
0.000524498
0.000611246
0.000739929
0.000945233
0.00125905
0.00177032
0.00257049
0.00436252
0.00944047
0.023135
0.0308942
0.0189793
0.000756569
0.00168171
0.0035403
0.00353542
0.00321717
0.00265205
0.00218164
0.00178582
0.00145869
0.00119679
0.00099334
0.000838632
0.000722417
0.000635256
0.000570201
0.000521625
0.000485371
0.000459062
0.000440234
0.000428494
0.000421203
0.000421517
0.000424651
0.000432356
0.000446919
0.000469567
0.000501613
0.00054949
0.000616646
0.000719679
0.000867289
0.001104
0.00145239
0.00203402
0.00290282
0.00476984
0.00982517
0.0238435
0.0315662
0.0193106
0.000776324
0.00130543
0.00290953
0.00334112
0.00322755
0.00291213
0.00252227
0.00217306
0.00185873
0.00158194
0.00134614
0.00115121
0.000993562
0.000868898
0.000771058
0.00069547
0.0006375
0.000594664
0.000563491
0.000542983
0.000529196
0.000525586
0.000528209
0.000536283
0.000553105
0.00058226
0.000623666
0.000687188
0.000773823
0.000908339
0.00109238
0.00139095
0.00180858
0.00252597
0.00355581
0.00566641
0.0108448
0.0249519
0.0318365
0.019428
0.0010884
0.00114957
0.00219228
0.00289411
0.00318002
0.00310869
0.0029093
0.00263982
0.00237054
0.00210842
0.00186055
0.00163546
0.00143878
0.00126964
0.00113248
0.0010232
0.000937105
0.000870287
0.000819814
0.000784591
0.000761216
0.000752547
0.000756127
0.000768487
0.000794698
0.000841019
0.00090741
0.00100962
0.00114518
0.00135417
0.00162638
0.00206762
0.00264927
0.00366202
0.00505063
0.00771081
0.0131756
0.0268165
0.0318165
0.019361
0.00174119
0.0013269
0.00202851
0.00283872
0.00333573
0.00355852
0.00355807
0.00345398
0.00324174
0.00299704
0.00274422
0.00249624
0.00226608
0.00206047
0.00188131
0.00173077
0.00161022
0.00151574
0.00144919
0.0014046
0.00138648
0.00139294
0.00141672
0.00146836
0.00155066
0.00167152
0.001827
0.00204962
0.0023418
0.00275995
0.00329278
0.00410684
0.00512904
0.00683067
0.00895205
0.0129139
0.0184457
0.0301242
0.0316868
0.0187639
0.00289067
0.00202097
0.00283774
0.00383774
0.00460521
0.00515724
0.00540534
0.00543841
0.00533253
0.00510707
0.00484137
0.00456574
0.00430388
0.00407138
0.00387725
0.0037247
0.00362061
0.00355771
0.00356203
0.00359555
0.00367869
0.00382689
0.00403537
0.00430118
0.00465723
0.00508463
0.00564563
0.00630708
0.00713804
0.00816989
0.00955626
0.0113528
0.0136201
0.0167413
0.020407
0.0261001
0.031092
0.036203
0.0327108
0.0176808
0.004856
0.00474038
0.0080498
0.0107823
0.0123256
0.0131637
0.0134662
0.0134263
0.0132556
0.012922
0.0125603
0.0122222
0.0119544
0.0117643
0.0117037
0.0117436
0.0118702
0.0121284
0.012526
0.0130426
0.0136955
0.0144565
0.0154103
0.0164734
0.0178095
0.019238
0.0210824
0.0229516
0.0254912
0.0278856
0.0312183
0.0341339
0.0384505
0.0417831
0.0468378
0.049312
0.0480299
0.0423777
0.033164
0.0153865
0.00329071
0.00507424
0.0066278
0.00819409
0.00962864
0.0109199
0.0120095
0.012907
0.0135314
0.0139332
0.0141772
0.0142613
0.0142349
0.0141608
0.0140108
0.0138269
0.0136304
0.0134327
0.0132343
0.0130571
0.0128893
0.0127567
0.0126412
0.0125681
0.0125184
0.0125245
0.0125564
0.0126162
0.0127671
0.01289
0.0131647
0.0133639
0.0138321
0.0141849
0.0149854
0.0154856
0.0163327
0.0163953
0.0158389
0.0132277
)
;

boundaryField
{
    movingWall
    {
        type            epsilonWallFunction;
        value           nonuniform List<scalar> 
40
(
0.00329071
0.00507424
0.0066278
0.00819409
0.00962864
0.0109199
0.0120095
0.012907
0.0135314
0.0139332
0.0141772
0.0142613
0.0142349
0.0141608
0.0140108
0.0138269
0.0136304
0.0134327
0.0132343
0.0130571
0.0128893
0.0127567
0.0126412
0.0125681
0.0125184
0.0125245
0.0125564
0.0126162
0.0127671
0.01289
0.0131647
0.0133639
0.0138321
0.0141849
0.0149854
0.0154856
0.0163327
0.0163953
0.0158389
0.0132277
)
;
    }
    fixedWalls
    {
        type            epsilonWallFunction;
        value           nonuniform List<scalar> 
120
(
2.68366e-05
0.000129734
0.000392112
0.000904103
0.00171329
0.00287258
0.00434894
0.00592848
0.00729552
0.00829655
0.00901434
0.00940763
0.00939673
0.00927997
0.00899933
0.0085108
0.00794876
0.0072803
0.0066253
0.00586068
0.00524014
0.00471149
0.00424349
0.00381697
0.00341819
0.0030392
0.00267067
0.00230879
0.00194536
0.00161939
0.00135084
0.00110649
0.000876991
0.000756569
0.000776324
0.0010884
0.00174119
0.00289067
0.004856
0.00329071
4.53858e-05
7.80351e-05
6.39352e-05
4.42184e-05
5.15347e-05
9.77592e-05
0.000222256
0.000558242
0.00151197
0.00269564
0.00384292
0.00476949
0.0056385
0.00644215
0.00722814
0.00799176
0.00875086
0.00950447
0.010253
0.0110011
0.01174
0.0124769
0.0131981
0.0139089
0.0145952
0.0152595
0.015888
0.0164859
0.017039
0.0175597
0.0180404
0.0185069
0.0189793
0.0193106
0.019428
0.019361
0.0187639
0.0176808
0.0153865
0.0132277
2.68366e-05
9.26816e-05
0.000181734
0.000181931
0.000166705
0.000170376
0.000219121
0.00037252
0.000562728
0.000812707
0.00126313
0.0015746
0.00172092
0.00189895
0.00218937
0.00256985
0.00292454
0.00333088
0.003725
0.00417396
0.00463632
0.00516318
0.00573639
0.00640313
0.00718242
0.00787363
0.00858197
0.00918354
0.00970677
0.0099889
0.0101009
0.00989617
0.00908589
0.00770613
0.00578224
0.00340837
0.00164979
0.000689682
0.000219113
4.53858e-05
)
;
    }
    frontAndBack
    {
        type            empty;
    }
}


// ************************************************************************* //
