/*--------------------------------*- C++ -*----------------------------------*\
  =========                 |
  \\      /  F ield         | OpenFOAM: The Open Source CFD Toolbox
   \\    /   O peration     | Website:  https://openfoam.org
    \\  /    A nd           | Version:  13
     \\/     M anipulation  |
\*---------------------------------------------------------------------------*/
FoamFile
{
    format      ascii;
    class       volScalarField;
    location    "7.5";
    object      nut;
}
// * * * * * * * * * * * * * * * * * * * * * * * * * * * * * * * * * * * * * //

dimensions      [0 2 -1 0 0 0 0];

internalField   nonuniform List<scalar> 
1600
(
1.47524e-08
5.09373e-08
9.98719e-08
9.99655e-08
9.15958e-08
9.3616e-08
1.20419e-07
2.04761e-07
3.09327e-07
4.46864e-07
6.94333e-07
8.65388e-07
9.45766e-07
1.04366e-06
1.20329e-06
1.41237e-06
1.60721e-06
1.83049e-06
2.04699e-06
2.29369e-06
2.54768e-06
2.83717e-06
3.15207e-06
3.5184e-06
3.94653e-06
4.32624e-06
4.71537e-06
5.04585e-06
5.33328e-06
5.48827e-06
5.54982e-06
5.43732e-06
4.9922e-06
4.23426e-06
3.17736e-06
1.87313e-06
9.06742e-07
3.79093e-07
1.20451e-07
2.49518e-08
7.13166e-08
1.1999e-06
3.5937e-06
4.30872e-06
4.22038e-06
4.0333e-06
4.56749e-06
6.22727e-06
6.82256e-06
7.75417e-06
9.24398e-06
1.01266e-05
1.05265e-05
1.13126e-05
1.20905e-05
1.36289e-05
1.46768e-05
1.63196e-05
1.75842e-05
1.90648e-05
2.03335e-05
2.16625e-05
2.28968e-05
2.39148e-05
2.45195e-05
2.53222e-05
2.58723e-05
2.63547e-05
2.65037e-05
2.61431e-05
2.58747e-05
2.45833e-05
2.27145e-05
1.94891e-05
1.6191e-05
1.04898e-05
5.08403e-06
2.02448e-06
6.94199e-07
4.28993e-08
2.15557e-07
3.23396e-06
7.89469e-06
9.49637e-06
1.00209e-05
1.04409e-05
1.30369e-05
1.67982e-05
1.78079e-05
1.80501e-05
1.65443e-05
1.56289e-05
1.52307e-05
1.66396e-05
1.80861e-05
1.98383e-05
2.17313e-05
2.37064e-05
2.54874e-05
2.7325e-05
2.89056e-05
3.01921e-05
3.0921e-05
3.14715e-05
3.18058e-05
3.1996e-05
3.19318e-05
3.1631e-05
3.10012e-05
2.99484e-05
2.80415e-05
2.61025e-05
2.45055e-05
2.07082e-05
1.70963e-05
1.02847e-05
4.40394e-06
2.16573e-06
8.86042e-07
3.51489e-08
4.97011e-07
7.02485e-06
1.36078e-05
1.58334e-05
1.69289e-05
1.88594e-05
2.14041e-05
2.1785e-05
2.13849e-05
1.8523e-05
1.75584e-05
1.89189e-05
2.07942e-05
2.35605e-05
2.54685e-05
2.79409e-05
2.98294e-05
3.15573e-05
3.28845e-05
3.40901e-05
3.48781e-05
3.55592e-05
3.59126e-05
3.61353e-05
3.61187e-05
3.59121e-05
3.54577e-05
3.4746e-05
3.37087e-05
3.22573e-05
3.02832e-05
2.77898e-05
2.47786e-05
2.13116e-05
1.83522e-05
1.39528e-05
5.07339e-06
1.71219e-06
6.09081e-07
2.43086e-08
9.41827e-07
1.26615e-05
2.02177e-05
2.16595e-05
2.2599e-05
2.45495e-05
2.46667e-05
2.40315e-05
2.12494e-05
1.99431e-05
2.19649e-05
2.41228e-05
2.69663e-05
2.96422e-05
3.16276e-05
3.35697e-05
3.53187e-05
3.6743e-05
3.80507e-05
3.88507e-05
3.9528e-05
3.99351e-05
4.01632e-05
4.0208e-05
4.00978e-05
3.98192e-05
3.93321e-05
3.85633e-05
3.74105e-05
3.56875e-05
3.34284e-05
3.07886e-05
2.79597e-05
2.43662e-05
1.98406e-05
1.62159e-05
1.02058e-05
2.72897e-06
6.25336e-07
2.83252e-08
1.57909e-06
1.88131e-05
2.59783e-05
2.64884e-05
2.70548e-05
2.67282e-05
2.60179e-05
2.35671e-05
2.17773e-05
2.39256e-05
2.63928e-05
2.92874e-05
3.22301e-05
3.42485e-05
3.61702e-05
3.79496e-05
3.96013e-05
4.073e-05
4.1727e-05
4.2422e-05
4.29835e-05
4.32948e-05
4.34441e-05
4.33921e-05
4.32323e-05
4.29323e-05
4.2507e-05
4.19218e-05
4.11206e-05
4.00981e-05
3.76816e-05
3.44193e-05
3.11335e-05
2.74605e-05
2.30905e-05
1.82256e-05
1.3085e-05
4.37386e-06
9.74637e-07
5.37175e-08
2.39055e-06
2.35821e-05
3.05352e-05
2.98827e-05
2.86571e-05
2.78851e-05
2.55934e-05
2.32153e-05
2.51621e-05
2.79787e-05
3.08336e-05
3.38551e-05
3.59173e-05
3.79697e-05
3.98451e-05
4.14545e-05
4.28897e-05
4.39308e-05
4.483e-05
4.5352e-05
4.56858e-05
4.58193e-05
4.58848e-05
4.5852e-05
4.57099e-05
4.54736e-05
4.5142e-05
4.4696e-05
4.4085e-05
4.32094e-05
4.2216e-05
4.02392e-05
3.67748e-05
3.29736e-05
2.80084e-05
2.16334e-05
1.55353e-05
8.1505e-06
1.58213e-06
1.22111e-07
3.25872e-06
2.77645e-05
3.34334e-05
3.17033e-05
3.04874e-05
2.75886e-05
2.4914e-05
2.58894e-05
2.87816e-05
3.18408e-05
3.47383e-05
3.70727e-05
3.92049e-05
4.12686e-05
4.29719e-05
4.44767e-05
4.55775e-05
4.6355e-05
4.6864e-05
4.71855e-05
4.76329e-05
4.77962e-05
4.79166e-05
4.78994e-05
4.77808e-05
4.75682e-05
4.72764e-05
4.69158e-05
4.64724e-05
4.58787e-05
4.49724e-05
4.36061e-05
4.11225e-05
3.74412e-05
3.38479e-05
2.76984e-05
1.91721e-05
1.03538e-05
2.11884e-06
3.06701e-07
4.01e-06
3.05486e-05
3.55954e-05
3.38869e-05
3.03177e-05
2.7031e-05
2.61402e-05
2.89626e-05
3.22403e-05
3.51985e-05
3.77418e-05
3.98501e-05
4.19872e-05
4.36439e-05
4.51355e-05
4.63347e-05
4.71933e-05
4.79216e-05
4.85639e-05
4.90709e-05
4.93419e-05
4.98648e-05
4.99622e-05
5.00155e-05
4.9884e-05
4.96233e-05
4.92436e-05
4.87887e-05
4.83028e-05
4.78061e-05
4.72366e-05
4.6363e-05
4.44034e-05
4.0845e-05
3.69343e-05
3.29456e-05
2.49678e-05
1.46028e-05
4.60848e-06
8.30671e-07
4.56015e-06
3.21704e-05
3.73042e-05
3.41867e-05
2.99244e-05
2.68863e-05
2.86994e-05
3.20074e-05
3.52343e-05
3.78733e-05
4.00567e-05
4.20506e-05
4.38952e-05
4.54406e-05
4.67079e-05
4.77604e-05
4.86642e-05
4.95269e-05
5.0321e-05
5.10863e-05
5.15352e-05
5.207e-05
5.2428e-05
5.2504e-05
5.2403e-05
5.20726e-05
5.15493e-05
5.08698e-05
5.01145e-05
4.938e-05
4.87416e-05
4.8165e-05
4.73771e-05
4.43733e-05
3.97891e-05
3.61992e-05
2.93881e-05
1.80707e-05
6.13012e-06
1.48094e-06
4.95462e-06
3.33585e-05
3.88226e-05
3.43261e-05
2.94295e-05
2.85374e-05
3.13078e-05
3.46849e-05
3.76066e-05
3.98046e-05
4.18258e-05
4.37375e-05
4.53949e-05
4.67825e-05
4.79907e-05
4.91108e-05
5.01993e-05
5.12808e-05
5.23083e-05
5.3365e-05
5.40219e-05
5.45509e-05
5.5215e-05
5.53335e-05
5.52951e-05
5.49427e-05
5.43171e-05
5.34298e-05
5.23542e-05
5.12137e-05
5.0164e-05
4.93117e-05
4.85681e-05
4.74553e-05
4.32107e-05
3.94151e-05
3.42655e-05
2.28803e-05
8.75493e-06
2.1112e-06
5.17079e-06
3.36751e-05
3.93073e-05
3.44642e-05
2.95611e-05
3.05172e-05
3.36448e-05
3.6813e-05
3.92879e-05
4.12402e-05
4.32408e-05
4.50121e-05
4.65475e-05
4.79067e-05
4.92064e-05
5.05171e-05
5.1852e-05
5.31842e-05
5.4453e-05
5.57624e-05
5.66013e-05
5.7134e-05
5.80289e-05
5.82136e-05
5.82464e-05
5.7934e-05
5.7296e-05
5.63117e-05
5.50151e-05
5.35157e-05
5.20192e-05
5.078e-05
4.99494e-05
4.93331e-05
4.58789e-05
4.13386e-05
3.74253e-05
2.65047e-05
1.10406e-05
2.62021e-06
5.16481e-06
3.36154e-05
3.96262e-05
3.43262e-05
3.0501e-05
3.23438e-05
3.55231e-05
3.83816e-05
4.04685e-05
4.23985e-05
4.43299e-05
4.59949e-05
4.75069e-05
4.89495e-05
5.0432e-05
5.19818e-05
5.35694e-05
5.51351e-05
5.66061e-05
5.80837e-05
5.90416e-05
5.95939e-05
6.05911e-05
6.08317e-05
6.09161e-05
6.06772e-05
6.01091e-05
5.91583e-05
5.7793e-05
5.60494e-05
5.40945e-05
5.22427e-05
5.08361e-05
4.99382e-05
4.84458e-05
4.34815e-05
4.03497e-05
3.04886e-05
1.36147e-05
3.09759e-06
5.10066e-06
3.33359e-05
3.9893e-05
3.42665e-05
3.17234e-05
3.387e-05
3.69377e-05
3.95057e-05
4.13811e-05
4.33098e-05
4.51654e-05
4.6791e-05
4.83608e-05
4.99552e-05
5.16549e-05
5.34423e-05
5.52554e-05
5.70127e-05
5.86322e-05
6.01912e-05
6.12013e-05
6.1774e-05
6.27521e-05
6.30049e-05
6.30973e-05
6.2925e-05
6.24735e-05
6.16706e-05
6.04235e-05
5.86714e-05
5.64848e-05
5.41657e-05
5.22326e-05
5.11526e-05
5.08181e-05
4.60301e-05
4.20719e-05
3.35452e-05
1.59717e-05
3.53906e-06
4.94646e-06
3.27216e-05
3.96707e-05
3.44378e-05
3.27552e-05
3.50579e-05
3.79694e-05
4.02723e-05
4.20978e-05
4.40139e-05
4.58176e-05
4.7463e-05
4.91386e-05
5.091e-05
5.28216e-05
5.48199e-05
5.68203e-05
5.87268e-05
6.04498e-05
6.20159e-05
6.30452e-05
6.36125e-05
6.44884e-05
6.46955e-05
6.47373e-05
6.45874e-05
6.42452e-05
6.36412e-05
6.264e-05
6.10786e-05
5.88705e-05
5.61679e-05
5.34747e-05
5.14889e-05
5.06041e-05
4.80341e-05
4.37165e-05
3.64953e-05
1.8293e-05
3.97083e-06
4.67801e-06
3.18728e-05
3.92183e-05
3.46991e-05
3.35574e-05
3.59171e-05
3.86906e-05
4.08408e-05
4.26534e-05
4.4552e-05
4.6334e-05
4.80347e-05
4.98317e-05
5.17738e-05
5.38704e-05
5.60444e-05
5.81961e-05
6.02204e-05
6.2021e-05
6.35469e-05
6.45762e-05
6.51183e-05
6.58403e-05
6.59509e-05
6.58845e-05
6.5693e-05
6.541e-05
6.49913e-05
6.42923e-05
6.30815e-05
6.11322e-05
5.84187e-05
5.53544e-05
5.27606e-05
5.12179e-05
4.95392e-05
4.48167e-05
3.87553e-05
2.05014e-05
4.39031e-06
4.36919e-06
3.08471e-05
3.85928e-05
3.49482e-05
3.41402e-05
3.65056e-05
3.91868e-05
4.12605e-05
4.30762e-05
4.49562e-05
4.67382e-05
4.85055e-05
5.04146e-05
5.25002e-05
5.47444e-05
5.70566e-05
5.93272e-05
6.14429e-05
6.32983e-05
6.48054e-05
6.58044e-05
6.63063e-05
6.68504e-05
6.68342e-05
6.66209e-05
6.6332e-05
6.60475e-05
6.57652e-05
6.53583e-05
6.45557e-05
6.29974e-05
6.04258e-05
5.70505e-05
5.38071e-05
5.18558e-05
5.10453e-05
4.60015e-05
4.06416e-05
2.26111e-05
4.8073e-06
4.00185e-06
2.98068e-05
3.78466e-05
3.51293e-05
3.45371e-05
3.68697e-05
3.95112e-05
4.15572e-05
4.33807e-05
4.52443e-05
4.7036e-05
4.88596e-05
5.08541e-05
5.30448e-05
5.53951e-05
5.78068e-05
6.01643e-05
6.23474e-05
6.42413e-05
6.57476e-05
6.67061e-05
6.71608e-05
6.75265e-05
6.73751e-05
6.70023e-05
6.65818e-05
6.62441e-05
6.60381e-05
6.58822e-05
6.55087e-05
6.44791e-05
6.23218e-05
5.89341e-05
5.50933e-05
5.23483e-05
5.14985e-05
4.71291e-05
4.21515e-05
2.46549e-05
5.22128e-06
3.64193e-06
2.86298e-05
3.70091e-05
3.52296e-05
3.47703e-05
3.70678e-05
3.96812e-05
4.17459e-05
4.35846e-05
4.54284e-05
4.72228e-05
4.90848e-05
5.11322e-05
5.33815e-05
5.57879e-05
5.82538e-05
6.06607e-05
6.2882e-05
6.4794e-05
6.6292e-05
6.72187e-05
6.76296e-05
6.78429e-05
6.75679e-05
6.70477e-05
6.64907e-05
6.60743e-05
6.58952e-05
6.59333e-05
6.59495e-05
6.54737e-05
6.3861e-05
6.06866e-05
5.64453e-05
5.289e-05
5.16153e-05
4.83762e-05
4.34249e-05
2.6531e-05
5.63246e-06
3.22171e-06
2.76853e-05
3.60954e-05
3.52112e-05
3.49039e-05
3.70792e-05
3.97393e-05
4.18277e-05
4.36752e-05
4.55012e-05
4.72969e-05
4.91572e-05
5.11987e-05
5.3453e-05
5.58728e-05
5.83559e-05
6.07742e-05
6.29931e-05
6.48879e-05
6.63542e-05
6.72557e-05
6.76185e-05
6.76333e-05
6.72308e-05
6.66545e-05
6.60783e-05
6.55888e-05
6.54097e-05
6.55979e-05
6.5958e-05
6.6038e-05
6.5073e-05
6.23351e-05
5.79063e-05
5.3522e-05
5.13801e-05
4.93518e-05
4.4543e-05
2.8366e-05
6.04342e-06
2.88066e-06
2.63389e-05
3.51917e-05
3.51282e-05
3.48946e-05
3.70335e-05
3.96081e-05
4.18012e-05
4.36811e-05
4.54808e-05
4.72316e-05
4.90869e-05
5.11395e-05
5.33787e-05
5.57487e-05
5.81469e-05
6.04587e-05
6.25913e-05
6.4428e-05
6.58568e-05
6.67688e-05
6.71257e-05
6.69575e-05
6.64592e-05
6.57636e-05
6.50347e-05
6.45584e-05
6.45644e-05
6.49525e-05
6.56032e-05
6.62015e-05
6.59053e-05
6.37477e-05
5.93698e-05
5.43585e-05
5.1475e-05
5.00422e-05
4.55774e-05
3.00073e-05
6.44928e-06
2.5901e-06
2.48258e-05
3.37714e-05
3.51393e-05
3.48592e-05
3.66851e-05
3.94721e-05
4.1642e-05
4.35354e-05
4.53175e-05
4.70919e-05
4.88407e-05
5.06665e-05
5.26908e-05
5.49063e-05
5.72176e-05
5.95242e-05
6.16596e-05
6.3493e-05
6.491e-05
6.58274e-05
6.62336e-05
6.61593e-05
6.57653e-05
6.50199e-05
6.41506e-05
6.35347e-05
6.33681e-05
6.38008e-05
6.48915e-05
6.6045e-05
6.6405e-05
6.49093e-05
6.07393e-05
5.5189e-05
5.16265e-05
5.04079e-05
4.65194e-05
3.16105e-05
6.85406e-06
2.33286e-06
2.31834e-05
3.22104e-05
3.50905e-05
3.47967e-05
3.64752e-05
3.88803e-05
4.14038e-05
4.33443e-05
4.51067e-05
4.66691e-05
4.83397e-05
5.02411e-05
5.22853e-05
5.4412e-05
5.65999e-05
5.87506e-05
6.07398e-05
6.24451e-05
6.37586e-05
6.4599e-05
6.49147e-05
6.48072e-05
6.4466e-05
6.39167e-05
6.33331e-05
6.28556e-05
6.2525e-05
6.28197e-05
6.39408e-05
6.54165e-05
6.64992e-05
6.58463e-05
6.19766e-05
5.60303e-05
5.18699e-05
5.06053e-05
4.73376e-05
3.31165e-05
7.25021e-06
2.09842e-06
2.14528e-05
3.03616e-05
3.48977e-05
3.47467e-05
3.61476e-05
3.85847e-05
4.08102e-05
4.29016e-05
4.46226e-05
4.62758e-05
4.79672e-05
4.97105e-05
5.15605e-05
5.34982e-05
5.54715e-05
5.73939e-05
5.91789e-05
6.07325e-05
6.19558e-05
6.27828e-05
6.3173e-05
6.3098e-05
6.28192e-05
6.23301e-05
6.17544e-05
6.13506e-05
6.14614e-05
6.21836e-05
6.33029e-05
6.49308e-05
6.64848e-05
6.64196e-05
6.31453e-05
5.67314e-05
5.20163e-05
5.07052e-05
4.80592e-05
3.45834e-05
7.64067e-06
1.87921e-06
1.96729e-05
2.85534e-05
3.4502e-05
3.44903e-05
3.56335e-05
3.80765e-05
4.03359e-05
4.23144e-05
4.41147e-05
4.5812e-05
4.73071e-05
4.88389e-05
5.04761e-05
5.22197e-05
5.40051e-05
5.57565e-05
5.7389e-05
5.88086e-05
5.99433e-05
6.07421e-05
6.11789e-05
6.11508e-05
6.09675e-05
6.06206e-05
6.01805e-05
5.9886e-05
5.99668e-05
6.06878e-05
6.23341e-05
6.45681e-05
6.64133e-05
6.66889e-05
6.3975e-05
5.73113e-05
5.20735e-05
5.07563e-05
4.87251e-05
3.59581e-05
8.01765e-06
1.67087e-06
1.78752e-05
2.67935e-05
3.35455e-05
3.46356e-05
3.52419e-05
3.73043e-05
3.97944e-05
4.17959e-05
4.35824e-05
4.51024e-05
4.65447e-05
4.79481e-05
4.93942e-05
5.09106e-05
5.24653e-05
5.39993e-05
5.54415e-05
5.67158e-05
5.77584e-05
5.85261e-05
5.9034e-05
5.90672e-05
5.90038e-05
5.88431e-05
5.85892e-05
5.84762e-05
5.87194e-05
5.95697e-05
6.12118e-05
6.35746e-05
6.59846e-05
6.70172e-05
6.44283e-05
5.77739e-05
5.19459e-05
5.05162e-05
4.93106e-05
3.72799e-05
8.38255e-06
1.46828e-06
1.60674e-05
2.50286e-05
3.19254e-05
3.46295e-05
3.49895e-05
3.65519e-05
3.89682e-05
4.11564e-05
4.28932e-05
4.43544e-05
4.57008e-05
4.69755e-05
4.82444e-05
4.95455e-05
5.08725e-05
5.21887e-05
5.34406e-05
5.45693e-05
5.5522e-05
5.62556e-05
5.68527e-05
5.69537e-05
5.70225e-05
5.70732e-05
5.70301e-05
5.71251e-05
5.75497e-05
5.85471e-05
6.03357e-05
6.2897e-05
6.55316e-05
6.69032e-05
6.51512e-05
5.802e-05
5.17005e-05
5.01956e-05
4.97699e-05
3.84656e-05
8.72779e-06
1.26932e-06
1.42785e-05
2.31761e-05
3.01103e-05
3.44662e-05
3.47305e-05
3.58886e-05
3.79043e-05
4.01868e-05
4.20284e-05
4.35063e-05
4.47872e-05
4.59523e-05
4.70678e-05
4.81787e-05
4.92982e-05
5.04115e-05
5.14849e-05
5.24765e-05
5.3348e-05
5.40462e-05
5.47431e-05
5.4912e-05
5.51149e-05
5.5387e-05
5.55634e-05
5.58778e-05
5.64954e-05
5.76428e-05
5.95242e-05
6.21755e-05
6.49496e-05
6.65255e-05
6.51148e-05
5.80681e-05
5.12968e-05
4.9615e-05
5.01668e-05
3.95985e-05
9.05617e-06
1.06948e-06
1.25344e-05
2.17067e-05
2.78118e-05
3.37971e-05
3.47036e-05
3.54023e-05
3.70091e-05
3.90703e-05
4.10059e-05
4.25427e-05
4.37982e-05
4.48835e-05
4.58781e-05
4.6836e-05
4.77847e-05
4.87271e-05
4.96481e-05
5.05222e-05
5.13245e-05
5.20003e-05
5.27857e-05
5.3019e-05
5.33558e-05
5.38452e-05
5.42312e-05
5.47591e-05
5.5564e-05
5.68542e-05
5.87945e-05
6.14538e-05
6.42026e-05
6.57905e-05
6.45558e-05
5.76657e-05
5.05801e-05
4.87125e-05
5.04381e-05
4.05587e-05
9.36e-06
8.90211e-07
1.10571e-05
2.04149e-05
2.55298e-05
3.1894e-05
3.46696e-05
3.51474e-05
3.62805e-05
3.79728e-05
3.98477e-05
4.14681e-05
4.27577e-05
4.38119e-05
4.47254e-05
4.5568e-05
4.63825e-05
4.71883e-05
4.79846e-05
4.8768e-05
4.94968e-05
5.02288e-05
5.09706e-05
5.13094e-05
5.18263e-05
5.24663e-05
5.30391e-05
5.37591e-05
5.47248e-05
5.6131e-05
5.80698e-05
6.06311e-05
6.31713e-05
6.45848e-05
6.32597e-05
5.66975e-05
4.94651e-05
4.75274e-05
5.05915e-05
4.14167e-05
9.64599e-06
7.42526e-07
9.85275e-06
1.95585e-05
2.36146e-05
2.96367e-05
3.40743e-05
3.50328e-05
3.58778e-05
3.71649e-05
3.87336e-05
4.02958e-05
4.16027e-05
4.26626e-05
4.35473e-05
4.43294e-05
4.50624e-05
4.57811e-05
4.64886e-05
4.72237e-05
4.78643e-05
4.87461e-05
4.93145e-05
4.97836e-05
5.05075e-05
5.12316e-05
5.19504e-05
5.28218e-05
5.38945e-05
5.53608e-05
5.72001e-05
5.95337e-05
6.16451e-05
6.26972e-05
6.10886e-05
5.49801e-05
4.81741e-05
4.60766e-05
5.04832e-05
4.20344e-05
9.91005e-06
6.08143e-07
8.81259e-06
1.89846e-05
2.22343e-05
2.74751e-05
3.25124e-05
3.46175e-05
3.56814e-05
3.67612e-05
3.80456e-05
3.94034e-05
4.06336e-05
4.16603e-05
4.25103e-05
4.32425e-05
4.39093e-05
4.45604e-05
4.51928e-05
4.58862e-05
4.64716e-05
4.74314e-05
4.78465e-05
4.84512e-05
4.93025e-05
5.00656e-05
5.08676e-05
5.18242e-05
5.29089e-05
5.43362e-05
5.59196e-05
5.78634e-05
5.9301e-05
5.98334e-05
5.7788e-05
5.22295e-05
4.62073e-05
4.46104e-05
5.0143e-05
4.22664e-05
1.01663e-05
4.81937e-07
8.0539e-06
1.85325e-05
2.17827e-05
2.58247e-05
3.0744e-05
3.39632e-05
3.5434e-05
3.65505e-05
3.76362e-05
3.87558e-05
3.98207e-05
4.07584e-05
4.15529e-05
4.22418e-05
4.28647e-05
4.34684e-05
4.40585e-05
4.46875e-05
4.531e-05
4.6142e-05
4.65707e-05
4.72434e-05
4.8061e-05
4.883e-05
4.96084e-05
5.05363e-05
5.14724e-05
5.26992e-05
5.37989e-05
5.51677e-05
5.57008e-05
5.56403e-05
5.31592e-05
4.8459e-05
4.37978e-05
4.34018e-05
4.94916e-05
4.18079e-05
1.04258e-05
4.15734e-07
7.9131e-06
1.78656e-05
2.19395e-05
2.42061e-05
2.88607e-05
3.30706e-05
3.54304e-05
3.68268e-05
3.79518e-05
3.89492e-05
3.98523e-05
4.06373e-05
4.13124e-05
4.18756e-05
4.23676e-05
4.28573e-05
4.33182e-05
4.38603e-05
4.42908e-05
4.50981e-05
4.54158e-05
4.59272e-05
4.66122e-05
4.72453e-05
4.78164e-05
4.85254e-05
4.90689e-05
4.98685e-05
5.02189e-05
5.08608e-05
5.03882e-05
4.98475e-05
4.72023e-05
4.38367e-05
4.0594e-05
4.15694e-05
4.86332e-05
4.12896e-05
1.06075e-05
4.2662e-07
8.72709e-06
1.71548e-05
2.20248e-05
2.43812e-05
2.75126e-05
3.14411e-05
3.49616e-05
3.71458e-05
3.84331e-05
3.94108e-05
4.01808e-05
4.08124e-05
4.1312e-05
4.17499e-05
4.21283e-05
4.25031e-05
4.28101e-05
4.31209e-05
4.33551e-05
4.3663e-05
4.39831e-05
4.41199e-05
4.4346e-05
4.46719e-05
4.47914e-05
4.50295e-05
4.49199e-05
4.5078e-05
4.45514e-05
4.45023e-05
4.32885e-05
4.26843e-05
4.05228e-05
3.90553e-05
3.79892e-05
4.06411e-05
4.76043e-05
4.05194e-05
1.0672e-05
5.98223e-07
1.10366e-05
1.76724e-05
2.24783e-05
2.52683e-05
2.82611e-05
3.15237e-05
3.4762e-05
3.7866e-05
4.01764e-05
4.14362e-05
4.22993e-05
4.28579e-05
4.32809e-05
4.34225e-05
4.3329e-05
4.31006e-05
4.2772e-05
4.24499e-05
4.20043e-05
4.17203e-05
4.11086e-05
4.09157e-05
4.06095e-05
4.01632e-05
3.967e-05
3.92791e-05
3.85275e-05
3.81037e-05
3.71003e-05
3.68103e-05
3.57019e-05
3.57194e-05
3.48847e-05
3.55586e-05
3.68788e-05
4.07527e-05
4.60344e-05
3.83388e-05
1.06349e-05
9.57197e-07
1.46383e-05
1.99733e-05
2.40001e-05
2.7098e-05
3.02954e-05
3.3722e-05
3.63094e-05
3.89358e-05
4.14519e-05
4.33587e-05
4.422e-05
4.44778e-05
4.42528e-05
4.37076e-05
4.29059e-05
4.19039e-05
4.07849e-05
3.97451e-05
3.86652e-05
3.77406e-05
3.65076e-05
3.58937e-05
3.49666e-05
3.39445e-05
3.30767e-05
3.24825e-05
3.18174e-05
3.14908e-05
3.10538e-05
3.13108e-05
3.1294e-05
3.24401e-05
3.32346e-05
3.57302e-05
3.8203e-05
4.29597e-05
4.39169e-05
3.6477e-05
1.03076e-05
1.58912e-06
1.88632e-05
2.22551e-05
2.64094e-05
2.99574e-05
3.31403e-05
3.6126e-05
3.83516e-05
3.93597e-05
4.06138e-05
4.15262e-05
4.16995e-05
4.14263e-05
4.08468e-05
4.00137e-05
3.9028e-05
3.79818e-05
3.69066e-05
3.56584e-05
3.44876e-05
3.3739e-05
3.27573e-05
3.18373e-05
3.12963e-05
3.08271e-05
3.06405e-05
3.06095e-05
3.0843e-05
3.13896e-05
3.20996e-05
3.32524e-05
3.43737e-05
3.643e-05
3.8106e-05
4.12545e-05
4.34649e-05
4.58373e-05
4.22929e-05
3.30427e-05
9.71391e-06
2.669e-06
2.23195e-05
2.50632e-05
2.95055e-05
3.26642e-05
3.50142e-05
3.6788e-05
3.8006e-05
3.82598e-05
3.86345e-05
3.88328e-05
3.88634e-05
3.8665e-05
3.84544e-05
3.7988e-05
3.76035e-05
3.73398e-05
3.69475e-05
3.66081e-05
3.63526e-05
3.61958e-05
3.6253e-05
3.63282e-05
3.66527e-05
3.69951e-05
3.76086e-05
3.82401e-05
3.91145e-05
4.01031e-05
4.11542e-05
4.25756e-05
4.36647e-05
4.56492e-05
4.6259e-05
4.88057e-05
4.7596e-05
4.59088e-05
4.00367e-05
2.49973e-05
8.45401e-06
1.80865e-06
2.78877e-06
3.64252e-06
4.50311e-06
5.29141e-06
6.00099e-06
6.59992e-06
7.09308e-06
7.43635e-06
7.65705e-06
7.79118e-06
7.8373e-06
7.82276e-06
7.78194e-06
7.69942e-06
7.59823e-06
7.48999e-06
7.38127e-06
7.27202e-06
7.17458e-06
7.08201e-06
7.00909e-06
6.94526e-06
6.90507e-06
6.8773e-06
6.88068e-06
6.89538e-06
6.93666e-06
7.00912e-06
7.08326e-06
7.22864e-06
7.34202e-06
7.59527e-06
7.79379e-06
8.22847e-06
8.50541e-06
8.96997e-06
9.0055e-06
8.69945e-06
7.2647e-06
)
;

boundaryField
{
    movingWall
    {
        type            nutkWallFunction;
        Cmu             0.09;
        kappa           0.41;
        E               9.8;
        value           uniform 0;
    }
    fixedWalls
    {
        type            nutkWallFunction;
        Cmu             0.09;
        kappa           0.41;
        E               9.8;
        value           uniform 0;
    }
    frontAndBack
    {
        type            empty;
    }
}


// ************************************************************************* //
