/*--------------------------------*- C++ -*----------------------------------*\
  =========                 |
  \\      /  F ield         | OpenFOAM: The Open Source CFD Toolbox
   \\    /   O peration     | Website:  https://openfoam.org
    \\  /    A nd           | Version:  13
     \\/     M anipulation  |
\*---------------------------------------------------------------------------*/
FoamFile
{
    format      ascii;
    class       volScalarField;
    location    "7.5";
    object      p;
}
// * * * * * * * * * * * * * * * * * * * * * * * * * * * * * * * * * * * * * //

dimensions      [0 2 -2 0 0 0 0];

internalField   nonuniform List<scalar> 
1600
(
1.50274e-08
-2.12672e-05
-0.00010344
-0.000222251
-0.000330919
-0.000415034
-0.000491492
-0.000594903
-0.000736321
-0.000915261
-0.00113937
-0.00146869
-0.00189314
-0.00210052
-0.00232202
-0.00287852
-0.00372689
-0.00470257
-0.00564116
-0.00640654
-0.00690148
-0.00705811
-0.00682256
-0.00614915
-0.00506573
-0.00359023
-0.0017308
0.000450787
0.00283791
0.00521298
0.00729435
0.00876803
0.00941067
0.00919349
0.00820007
0.00717063
0.00652988
0.00642059
0.00652174
0.00656914
-1.74169e-05
-6.34747e-05
-0.000155497
-0.000270577
-0.000351252
-0.000393638
-0.000434274
-0.000516712
-0.000648885
-0.000802114
-0.000941496
-0.00116237
-0.00158268
-0.00211982
-0.00273318
-0.00350739
-0.00442877
-0.00540654
-0.00631814
-0.00705225
-0.00752429
-0.00767654
-0.00746647
-0.00687315
-0.00587936
-0.00447517
-0.00269498
-0.00059421
0.00170592
0.00403083
0.00612807
0.00769464
0.00848683
0.00842536
0.0076336
0.00663216
0.00613019
0.00620042
0.00637517
0.00645901
-4.27769e-05
-0.00013187
-0.000254279
-0.000365007
-0.000409156
-0.000397718
-0.000389485
-0.000415302
-0.000497656
-0.000698267
-0.00105098
-0.00153259
-0.00216263
-0.00293755
-0.00383785
-0.00481735
-0.00582068
-0.00678192
-0.00762867
-0.00829372
-0.0087179
-0.00884747
-0.00864982
-0.00810661
-0.00719429
-0.00590835
-0.00427375
-0.00233895
-0.000190362
0.00203971
0.00414178
0.0058696
0.00697693
0.00731569
0.00697109
0.00633642
0.00600702
0.00607038
0.0062404
0.00629603
-4.77239e-05
-0.000180266
-0.000346557
-0.000444795
-0.000446812
-0.00040103
-0.000382065
-0.000437679
-0.000620653
-0.00101656
-0.0016601
-0.00249043
-0.00343005
-0.00444432
-0.00551061
-0.0065795
-0.00759907
-0.00852424
-0.00931173
-0.00991862
-0.0102962
-0.0103981
-0.0102021
-0.00969587
-0.00886678
-0.00771481
-0.00625719
-0.00452791
-0.0025844
-0.000512445
0.00154509
0.00340654
0.00485847
0.00574249
0.00608043
0.00606611
0.00606979
0.00610391
0.00618208
0.00618092
8.13103e-05
-0.000114933
-0.000304766
-0.000400763
-0.000413208
-0.00040424
-0.000463006
-0.000677863
-0.0011247
-0.00184581
-0.00281032
-0.00392494
-0.00509944
-0.0062807
-0.00743332
-0.00852964
-0.00954297
-0.0104468
-0.0111946
-0.0117438
-0.0120613
-0.0121333
-0.0119452
-0.0114828
-0.0107407
-0.00972194
-0.00843624
-0.0069037
-0.00516194
-0.00327451
-0.00133023
0.000558163
0.002266
0.00368265
0.00475618
0.0055047
0.00599098
0.0062159
0.00617551
0.00610651
0.000417083
0.000143032
-6.98388e-05
-0.000205031
-0.000295964
-0.000425443
-0.000700899
-0.00121847
-0.00202313
-0.00308661
-0.00432456
-0.00564014
-0.00696137
-0.00823713
-0.00944065
-0.0105521
-0.0115419
-0.0123812
-0.0130439
-0.0135162
-0.0137819
-0.0138309
-0.0136544
-0.0132396
-0.0125858
-0.0116962
-0.0105773
-0.00924052
-0.00770553
-0.00600558
-0.00419002
-0.00232554
-0.000483477
0.00129468
0.00296409
0.00442566
0.00551078
0.00612144
0.00610635
0.00599239
0.000935043
0.000604979
0.000334617
0.000108019
-0.000145313
-0.000529436
-0.00114497
-0.00204822
-0.00321812
-0.00457558
-0.00601948
-0.00747078
-0.00887365
-0.0101882
-0.0113915
-0.0124641
-0.0133904
-0.0141553
-0.0147472
-0.0151591
-0.0153827
-0.015412
-0.0152419
-0.0148665
-0.0142861
-0.0135038
-0.0125252
-0.0113578
-0.0100116
-0.00850058
-0.00684383
-0.00506463
-0.00318179
-0.00120488
0.000837157
0.00283924
0.00454135
0.0056522
0.00603524
0.00581497
0.00156152
0.00118515
0.000808777
0.000432495
-6.54371e-05
-0.000792305
-0.00180761
-0.00309682
-0.00458352
-0.00616345
-0.00774822
-0.00927755
-0.0107082
-0.0120134
-0.0131784
-0.0141932
-0.0150526
-0.0157511
-0.0162843
-0.0166482
-0.0168389
-0.0168537
-0.01669
-0.0163467
-0.0158248
-0.0151276
-0.0142597
-0.0132265
-0.0120329
-0.0106828
-0.00917794
-0.00751534
-0.00568188
-0.00365353
-0.00142444
0.000918801
0.00312478
0.00483718
0.00577436
0.0054543
0.00212605
0.00167369
0.00118308
0.000621429
-0.000171948
-0.00127329
-0.00267071
-0.00429067
-0.00601645
-0.00774818
-0.00941613
-0.0109755
-0.0123968
-0.0136666
-0.0147797
-0.0157351
-0.0165336
-0.0171751
-0.0176593
-0.0179852
-0.0181517
-0.0181577
-0.0180024
-0.0176865
-0.0172118
-0.0165819
-0.0158009
-0.014873
-0.0138006
-0.0125824
-0.0112107
-0.00966837
-0.00792648
-0.00594239
-0.00367536
-0.0011561
0.00140405
0.00364125
0.00507231
0.00516157
0.00245351
0.00193301
0.00131925
0.000551816
-0.000544074
-0.00199088
-0.00370414
-0.0055649
-0.0074512
-0.00927161
-0.0109744
-0.0125285
-0.0139185
-0.0151418
-0.0162009
-0.017101
-0.0178467
-0.0184413
-0.0188869
-0.0191845
-0.0193342
-0.0193364
-0.019191
-0.0188993
-0.0184634
-0.0178867
-0.0171732
-0.0163264
-0.0153483
-0.014236
-0.0129787
-0.0115542
-0.00992667
-0.00804482
-0.00584341
-0.00329476
-0.000557919
0.00200913
0.00397082
0.00500944
0.00243246
0.00185839
0.001127
0.000163374
-0.00120283
-0.00292109
-0.00486175
-0.00687235
-0.00884804
-0.010703
-0.012403
-0.0139279
-0.0152744
-0.0164476
-0.0174556
-0.0183071
-0.0190091
-0.0195667
-0.0199835
-0.0202611
-0.0204008
-0.0204031
-0.0202688
-0.0199991
-0.0195961
-0.0190628
-0.0184028
-0.0176196
-0.0167149
-0.0156867
-0.0145247
-0.0132077
-0.0117001
-0.00995075
-0.0078867
-0.00543538
-0.00267343
2.14031e-05
0.00234669
0.00393416
0.00203389
0.00141779
0.000584577
-0.000543029
-0.00211078
-0.00401641
-0.0060867
-0.00817608
-0.0101789
-0.0120261
-0.0136958
-0.0151768
-0.0164742
-0.0175981
-0.0185599
-0.0193701
-0.0200369
-0.0205662
-0.0209619
-0.0212263
-0.0213607
-0.0213662
-0.0212435
-0.020994
-0.0206196
-0.0201228
-0.0195068
-0.0187749
-0.0179295
-0.0169697
-0.0158883
-0.0146677
-0.0132767
-0.0116686
-0.00977659
-0.00750984
-0.00484782
-0.00217597
0.000186993
0.00185286
0.00128229
0.000643283
-0.000262016
-0.00151248
-0.0032035
-0.00521046
-0.00732938
-0.00943712
-0.0114213
-0.0132315
-0.0148532
-0.0162825
-0.0175296
-0.0186073
-0.0195285
-0.0203042
-0.0209429
-0.0214505
-0.0218309
-0.0220866
-0.022219
-0.0222292
-0.0221183
-0.0218874
-0.0215382
-0.0210729
-0.0204943
-0.0198056
-0.0190095
-0.0181071
-0.0170947
-0.0159602
-0.0146789
-0.0132111
-0.0114998
-0.00945996
-0.00702303
-0.00446263
-0.00227398
-0.000757526
0.000256456
-0.000383359
-0.00132735
-0.00265187
-0.00440412
-0.00643323
-0.00854425
-0.0106236
-0.0125584
-0.0143132
-0.0158776
-0.0172525
-0.018451
-0.0194865
-0.0203724
-0.0211194
-0.0217355
-0.0222263
-0.0225954
-0.0228454
-0.0229777
-0.0229934
-0.0228937
-0.0226798
-0.022353
-0.0219154
-0.0213694
-0.020718
-0.0199646
-0.019112
-0.0181599
-0.0171023
-0.0159222
-0.0145884
-0.0130535
-0.0112502
-0.00910364
-0.00673314
-0.00480928
-0.00352941
-0.000933759
-0.00155994
-0.00251504
-0.00386397
-0.00562077
-0.00761862
-0.00969038
-0.0117094
-0.0135771
-0.0152673
-0.0167712
-0.018093
-0.0192461
-0.020244
-0.0210995
-0.0218224
-0.02242
-0.0228974
-0.023258
-0.0235041
-0.0236372
-0.0236585
-0.0235691
-0.0233704
-0.0230635
-0.0226502
-0.0221328
-0.0215143
-0.0207985
-0.0199896
-0.0190907
-0.0181011
-0.0170118
-0.0158012
-0.014433
-0.0128569
-0.0110031
-0.00889946
-0.00723399
-0.0061853
-0.00217919
-0.00277785
-0.00372393
-0.0050593
-0.00678122
-0.008719
-0.010729
-0.0126727
-0.014467
-0.0160906
-0.0175357
-0.0188078
-0.01992
-0.0208851
-0.0217144
-0.022417
-0.0229994
-0.023466
-0.0238199
-0.0240632
-0.0241974
-0.0242238
-0.0241436
-0.0239581
-0.0236685
-0.0232764
-0.022784
-0.0221944
-0.0215117
-0.0207413
-0.019889
-0.0189588
-0.017949
-0.0168472
-0.0156269
-0.0142485
-0.0126601
-0.0108838
-0.00945606
-0.00857519
-0.00337655
-0.00394051
-0.00486082
-0.00616448
-0.00783091
-0.00969555
-0.011632
-0.0134969
-0.0152194
-0.0167799
-0.0181712
-0.0193991
-0.0204757
-0.0214125
-0.0222198
-0.0229055
-0.0234753
-0.0239331
-0.0242816
-0.0245228
-0.0246581
-0.0246889
-0.0246165
-0.024442
-0.0241668
-0.0237927
-0.0233217
-0.0227569
-0.0221028
-0.0213657
-0.0205535
-0.0196744
-0.0187328
-0.0177244
-0.0166304
-0.0154179
-0.0140562
-0.0125822
-0.0113763
-0.0106307
-0.00444842
-0.00496926
-0.00585385
-0.0071187
-0.00872552
-0.0105171
-0.0123792
-0.01417
-0.0158275
-0.0173321
-0.0186769
-0.0198673
-0.020914
-0.0218275
-0.0226167
-0.0232888
-0.0238484
-0.0242992
-0.0246435
-0.0248831
-0.0250194
-0.0250537
-0.0249873
-0.0248215
-0.0245579
-0.0241981
-0.0237445
-0.0232001
-0.0225697
-0.0218602
-0.0210813
-0.020244
-0.0193584
-0.0184271
-0.017438
-0.016365
-0.0151949
-0.0139741
-0.0129619
-0.0123212
-0.00533161
-0.00581507
-0.00665791
-0.00788149
-0.00943234
-0.0111608
-0.0129565
-0.0146834
-0.0162859
-0.0177442
-0.0190513
-0.0202117
-0.0212349
-0.0221301
-0.0229055
-0.0235671
-0.0241192
-0.0245647
-0.024906
-0.0251444
-0.0252814
-0.0253182
-0.0252562
-0.0250967
-0.0248413
-0.024492
-0.0240512
-0.0235222
-0.02291
-0.022222
-0.0214688
-0.0206642
-0.019822
-0.0189508
-0.0180457
-0.0170882
-0.0160743
-0.0150432
-0.0141959
-0.013644
-0.00599869
-0.00643565
-0.00724309
-0.00843104
-0.00993376
-0.0116122
-0.0133544
-0.0150302
-0.0165899
-0.0180131
-0.0192923
-0.0204308
-0.0214372
-0.0223198
-0.0230857
-0.0237403
-0.0242875
-0.0247299
-0.0250693
-0.0253072
-0.0254447
-0.0254831
-0.0254236
-0.0252678
-0.0250173
-0.0246743
-0.0242414
-0.0237221
-0.0231217
-0.022448
-0.0217126
-0.0209307
-0.0201192
-0.0192918
-0.0184503
-0.0175845
-0.0166939
-0.0158092
-0.0150905
-0.0146076
-0.00642141
-0.00682035
-0.0076036
-0.00876191
-0.0102229
-0.0118656
-0.0135674
-0.0152061
-0.0167363
-0.0181361
-0.0193976
-0.0205226
-0.0215194
-0.0223952
-0.0231563
-0.0238079
-0.0243533
-0.0247947
-0.0251339
-0.025372
-0.0255101
-0.0255492
-0.0254905
-0.0253357
-0.0250866
-0.0247453
-0.0243149
-0.0237992
-0.0232036
-0.0225364
-0.0218098
-0.02104
-0.0202466
-0.0194471
-0.0186496
-0.0178518
-0.0170552
-0.0162784
-0.0156576
-0.0152285
-0.0065828
-0.00696567
-0.00774026
-0.0088787
-0.0103048
-0.01192
-0.0135925
-0.0152088
-0.0167225
-0.0181105
-0.019364
-0.0204849
-0.0214795
-0.0223546
-0.0231163
-0.0237691
-0.0243161
-0.0247594
-0.0251002
-0.0253396
-0.0254784
-0.0255175
-0.025458
-0.0253015
-0.0250499
-0.0247057
-0.024272
-0.023753
-0.0231546
-0.0224855
-0.021758
-0.020989
-0.0202011
-0.0194142
-0.0186421
-0.01789
-0.017164
-0.0164691
-0.0159188
-0.0155225
-0.0065163
-0.00688843
-0.00766067
-0.00878915
-0.0101892
-0.0117796
-0.0134369
-0.0150414
-0.0165486
-0.0179345
-0.0191896
-0.0203146
-0.0213146
-0.0221959
-0.0229639
-0.0236229
-0.0241755
-0.0246237
-0.0249685
-0.0252106
-0.0253506
-0.0253892
-0.0253275
-0.0251668
-0.024909
-0.0245567
-0.0241133
-0.0235836
-0.0229739
-0.0222933
-0.0215548
-0.0207764
-0.0199808
-0.0191913
-0.018426
-0.017698
-0.0170212
-0.0163857
-0.0158983
-0.0155041
-0.00626393
-0.0066232
-0.00739229
-0.00851564
-0.00989437
-0.0114554
-0.013104
-0.014705
-0.0162135
-0.0176059
-0.0188712
-0.0200085
-0.0210218
-0.0219163
-0.022697
-0.0233675
-0.0239305
-0.0243874
-0.024739
-0.0249857
-0.0251278
-0.0251658
-0.0251005
-0.0249331
-0.0246654
-0.0243001
-0.0238408
-0.0232925
-0.0226622
-0.0219598
-0.0211993
-0.0203996
-0.0195838
-0.0187769
-0.0180015
-0.0172784
-0.0166311
-0.0160277
-0.0156109
-0.0151857
-0.0058722
-0.00621626
-0.00697471
-0.00808654
-0.0094444
-0.0109696
-0.0125992
-0.0142003
-0.0157162
-0.0171217
-0.0184047
-0.0195624
-0.0205969
-0.0215123
-0.0223128
-0.0230013
-0.02358
-0.02405
-0.0244118
-0.0246655
-0.0248111
-0.0248486
-0.0247786
-0.0246022
-0.024321
-0.0239377
-0.0234559
-0.0228812
-0.022221
-0.0214862
-0.0206918
-0.0198579
-0.0190088
-0.0181709
-0.0173703
-0.016638
-0.0160045
-0.0153971
-0.0150306
-0.0145834
-0.00540241
-0.0057248
-0.00645517
-0.00753506
-0.00886011
-0.0103461
-0.011938
-0.0135329
-0.0150564
-0.0164789
-0.0177857
-0.0189712
-0.0200353
-0.0209799
-0.021808
-0.0225217
-0.0231224
-0.0236108
-0.023987
-0.0242507
-0.0244015
-0.0244392
-0.0243639
-0.0241763
-0.0238782
-0.0234717
-0.0229609
-0.0223516
-0.021652
-0.0208739
-0.0200336
-0.0191524
-0.0182564
-0.0173733
-0.0165341
-0.0157812
-0.0151512
-0.0145061
-0.0141871
-0.0137155
-0.00492964
-0.00521429
-0.00588501
-0.00690044
-0.00816511
-0.00959709
-0.0111374
-0.0127102
-0.0142348
-0.0156742
-0.017009
-0.0182293
-0.0193312
-0.020314
-0.0211785
-0.0219255
-0.0225556
-0.0230687
-0.0234644
-0.0237419
-0.0239005
-0.0239394
-0.0238585
-0.0236581
-0.0233397
-0.0229054
-0.0223592
-0.0217071
-0.0209582
-0.0201256
-0.0192272
-0.0182859
-0.0173293
-0.0163866
-0.0154944
-0.014704
-0.0140508
-0.0133798
-0.0131212
-0.0126018
-0.00452952
-0.00474428
-0.00530936
-0.00621987
-0.00738919
-0.00873808
-0.0102089
-0.0117389
-0.0132522
-0.0147044
-0.0160691
-0.0173302
-0.0184784
-0.019509
-0.0204197
-0.0212095
-0.0218774
-0.0224226
-0.0228438
-0.0231398
-0.0233094
-0.0233514
-0.0232652
-0.023051
-0.0227096
-0.022243
-0.0216553
-0.0209528
-0.0201454
-0.0192474
-0.0182785
-0.0172638
-0.0162329
-0.0152164
-0.014256
-0.0134116
-0.0127209
-0.0120121
-0.0118429
-0.0112331
-0.00425342
-0.00434809
-0.00475852
-0.00552544
-0.0065632
-0.00779148
-0.00916271
-0.0106249
-0.0121099
-0.013567
-0.0149612
-0.016268
-0.0174709
-0.0185593
-0.0195271
-0.0203701
-0.0210857
-0.0216714
-0.0221254
-0.0224456
-0.0226304
-0.0226782
-0.0225879
-0.0223593
-0.0219929
-0.0214906
-0.0208563
-0.0200965
-0.019222
-0.0182484
-0.0171976
-0.0160966
-0.0149774
-0.0138726
-0.0128291
-0.0119134
-0.0111656
-0.0103915
-0.0103509
-0.00956928
-0.00408012
-0.00400451
-0.00424833
-0.00484558
-0.00571294
-0.00677889
-0.00801234
-0.00937644
-0.0108114
-0.0122618
-0.0136826
-0.0150386
-0.0163039
-0.0174608
-0.0184971
-0.019405
-0.020179
-0.0208152
-0.0213102
-0.0216616
-0.0218669
-0.0219242
-0.0218322
-0.0215897
-0.0211975
-0.0206571
-0.0199723
-0.01915
-0.0182015
-0.0171439
-0.0160009
-0.0148015
-0.0135805
-0.0123731
-0.0112313
-0.0102264
-0.00939996
-0.00854222
-0.00861928
-0.00752542
-0.00386338
-0.00366946
-0.00379242
-0.00420209
-0.00485669
-0.00571677
-0.00677306
-0.00800625
-0.00936636
-0.0107947
-0.012236
-0.0136427
-0.0149774
-0.0162128
-0.0173295
-0.0183145
-0.0191588
-0.0198561
-0.0204017
-0.0207922
-0.0210245
-0.0210962
-0.021006
-0.020752
-0.0203347
-0.0197558
-0.0190189
-0.018131
-0.0171043
-0.0159566
-0.0147134
-0.0134054
-0.0120703
-0.0107457
-0.00949031
-0.00837617
-0.00744956
-0.00649788
-0.00660621
-0.00502961
-0.00355564
-0.00337712
-0.00340871
-0.00360666
-0.0040077
-0.00461967
-0.00546077
-0.00653094
-0.00779105
-0.00918053
-0.0106338
-0.0120903
-0.0134993
-0.0148221
-0.0160304
-0.0171046
-0.0180313
-0.018801
-0.0194075
-0.0198459
-0.0201128
-0.0202054
-0.0201218
-0.0198606
-0.0194214
-0.0188062
-0.0180187
-0.017066
-0.0159604
-0.0147205
-0.0133725
-0.0119483
-0.010488
-0.00903222
-0.00764644
-0.00640102
-0.00534921
-0.00427884
-0.00428806
-0.00208962
-0.00329342
-0.00317561
-0.00310474
-0.00306738
-0.00317812
-0.0035023
-0.00409387
-0.00497363
-0.00611243
-0.00744757
-0.00890361
-0.0104065
-0.0118919
-0.0133084
-0.0146173
-0.0157914
-0.0168114
-0.0176646
-0.0183421
-0.018838
-0.0191482
-0.0192695
-0.0191999
-0.0189381
-0.0184829
-0.0178372
-0.0170049
-0.0159927
-0.0148129
-0.0134835
-0.0120308
-0.0104861
-0.00889129
-0.00728937
-0.00575274
-0.00434649
-0.00312871
-0.00187519
-0.00164123
0.00118424
-0.00309847
-0.00304252
-0.00286269
-0.00258364
-0.00237572
-0.00237835
-0.00269327
-0.00336469
-0.0043699
-0.00564102
-0.00709236
-0.00863725
-0.010198
-0.0117104
-0.0131253
-0.0144064
-0.0155284
-0.0164741
-0.0172319
-0.0177943
-0.0181566
-0.0183155
-0.0182688
-0.0180162
-0.017555
-0.0168892
-0.0160231
-0.0149628
-0.0137196
-0.0123097
-0.0107577
-0.00909172
-0.00735392
-0.00558638
-0.00386575
-0.00224559
-0.000790383
0.000745421
0.00134967
0.00478279
-0.00289933
-0.00291937
-0.002636
-0.00212475
-0.0015877
-0.00125699
-0.00128806
-0.00174774
-0.00261827
-0.00382488
-0.00526945
-0.00685287
-0.00848549
-0.0100919
-0.0116125
-0.0130026
-0.0142304
-0.0152738
-0.0161184
-0.0167548
-0.0171775
-0.0173828
-0.0173686
-0.0171344
-0.0166837
-0.0160136
-0.01513
-0.0140389
-0.0127496
-0.0112741
-0.00963279
-0.00784681
-0.00595446
-0.00398909
-0.00202408
-8.99082e-05
0.00174166
0.00373727
0.00490728
0.00910682
-0.00264499
-0.0027206
-0.00236746
-0.00163956
-0.000789717
-0.000149081
8.15271e-05
-0.000185002
-0.00093396
-0.00208359
-0.00352475
-0.00514633
-0.00684713
-0.00854192
-0.0101626
-0.0116573
-0.0129882
-0.0141289
-0.015062
-0.0157765
-0.0162655
-0.0165253
-0.0165544
-0.0163525
-0.0159218
-0.0152634
-0.0143804
-0.0132781
-0.0119627
-0.0104393
-0.00872112
-0.00681582
-0.00475078
-0.00253485
-0.000222627
0.00220559
0.00468196
0.00750883
0.0097719
0.0155657
-0.00233821
-0.00242387
-0.00199056
-0.00108574
2.77343e-05
0.000911322
0.00134809
0.00123495
0.000581894
-0.000522943
-0.00196185
-0.0036161
-0.00537617
-0.00714844
-0.00885799
-0.0104473
-0.0118734
-0.0131058
-0.0141246
-0.0149169
-0.0154749
-0.015794
-0.0158732
-0.0157125
-0.0153135
-0.0146767
-0.0138059
-0.0127056
-0.0113785
-0.00982239
-0.00804034
-0.00601714
-0.00375879
-0.00122242
0.00157998
0.0047822
0.00835559
0.0127926
0.0175245
0.0270191
-0.00212431
-0.00216219
-0.00157743
-0.000481153
0.000802678
0.00187731
0.00244179
0.00242546
0.00183468
0.000754349
-0.000693868
-0.00238374
-0.00419904
-0.00603937
-0.00782403
-0.00949201
-0.0109969
-0.0123055
-0.0133961
-0.0142546
-0.0148726
-0.0152449
-0.0153701
-0.0152485
-0.014882
-0.0142713
-0.0134181
-0.0123174
-0.0109782
-0.00939619
-0.00756097
-0.00542846
-0.00297394
-6.64303e-05
0.00335548
0.00765751
0.0129441
0.0203697
0.0301346
0.0465989
-0.00308271
-0.00251874
-0.00145187
-2.98661e-05
0.00145864
0.00264553
0.00328676
0.00331721
0.00275723
0.00169463
0.000248031
-0.00145889
-0.0033088
-0.00519844
-0.00704192
-0.00877349
-0.0103427
-0.0117138
-0.0128631
-0.0137751
-0.0144403
-0.0148548
-0.0150162
-0.014925
-0.0145825
-0.0139901
-0.0131487
-0.0120582
-0.0107176
-0.00911011
-0.00723207
-0.00502362
-0.00242537
0.00078524
0.00481394
0.0103857
0.0181368
0.0303008
0.0482493
0.0746463
-0.00522504
-0.00167112
-4.60274e-05
0.00134505
0.00270627
0.00378678
0.00435056
0.00430751
0.00368535
0.00258099
0.00110699
-0.000626633
-0.002511
-0.00444491
-0.00634139
-0.00812896
-0.00975431
-0.01118
-0.0123797
-0.0133363
-0.0140402
-0.0144866
-0.0146749
-0.0146049
-0.0142785
-0.0136961
-0.0128582
-0.0117618
-0.0104046
-0.00877608
-0.00689289
-0.00466265
-0.00210922
0.00127682
0.00563375
0.0123459
0.0233143
0.0412555
0.0689694
0.103873
)
;

boundaryField
{
    movingWall
    {
        type            zeroGradient;
    }
    fixedWalls
    {
        type            zeroGradient;
    }
    frontAndBack
    {
        type            empty;
    }
}


// ************************************************************************* //
