/*--------------------------------*- C++ -*----------------------------------*\
  =========                 |
  \\      /  F ield         | OpenFOAM: The Open Source CFD Toolbox
   \\    /   O peration     | Website:  https://openfoam.org
    \\  /    A nd           | Version:  13
     \\/     M anipulation  |
\*---------------------------------------------------------------------------*/
FoamFile
{
    format      ascii;
    class       surfaceScalarField;
    location    "7.5";
    object      phi;
}
// * * * * * * * * * * * * * * * * * * * * * * * * * * * * * * * * * * * * * //

dimensions      [0 3 -1 0 0 0 0];

internalField   nonuniform List<scalar> 
3120
(
9.04132e-08
-9.04146e-08
2.25832e-07
-1.35419e-07
3.27825e-07
-1.01993e-07
3.62899e-07
-3.50748e-08
3.52595e-07
1.03043e-08
3.32331e-07
2.02644e-08
3.24554e-07
7.77697e-09
3.21322e-07
3.23164e-09
3.00011e-07
2.13111e-08
2.4297e-07
5.70404e-08
1.32141e-07
1.1083e-07
-7.70103e-08
2.09151e-07
-4.06495e-07
3.29485e-07
-8.93668e-07
4.87173e-07
-1.48049e-06
5.86825e-07
-2.05859e-06
5.78092e-07
-2.58368e-06
5.25093e-07
-3.03503e-06
4.51356e-07
-3.40952e-06
3.74486e-07
-3.70817e-06
2.98648e-07
-3.93292e-06
2.24749e-07
-4.08549e-06
1.52577e-07
-4.16686e-06
8.13609e-08
-4.17473e-06
7.87787e-09
-4.10615e-06
-6.85802e-08
-3.96329e-06
-1.42865e-07
-3.73219e-06
-2.31102e-07
-3.41327e-06
-3.18919e-07
-2.99869e-06
-4.14581e-07
-2.48999e-06
-5.08695e-07
-1.88883e-06
-6.01162e-07
-1.21852e-06
-6.70311e-07
-5.33057e-07
-6.85461e-07
9.03512e-08
-6.23408e-07
5.81228e-07
-4.90877e-07
7.80481e-07
-1.99253e-07
6.66554e-07
1.13927e-07
4.31565e-07
2.34989e-07
1.81554e-07
2.50011e-07
1.81554e-07
1.65251e-07
-2.55666e-07
3.49675e-07
-3.19843e-07
4.64824e-07
-2.17142e-07
4.97862e-07
-6.81125e-08
4.65921e-07
4.22448e-08
3.92387e-07
9.37985e-08
2.88294e-07
1.1187e-07
1.30881e-07
1.60645e-07
-1.21918e-07
2.74109e-07
-5.14817e-07
4.4994e-07
-1.07849e-06
6.745e-07
-1.77956e-06
9.10227e-07
-2.52181e-06
1.07173e-06
-3.16838e-06
1.13374e-06
-3.67528e-06
1.09372e-06
-4.10549e-06
1.0083e-06
-4.46971e-06
8.89314e-07
-4.77249e-06
7.54135e-07
-5.01315e-06
6.15148e-07
-5.1931e-06
4.78603e-07
-5.31271e-06
3.44359e-07
-5.3763e-06
2.16169e-07
-5.38137e-06
8.64284e-08
-5.32859e-06
-4.49006e-08
-5.21824e-06
-1.78936e-07
-5.0402e-06
-3.20901e-07
-4.79544e-06
-4.75862e-07
-4.47173e-06
-6.42628e-07
-4.06013e-06
-8.26182e-07
-3.55713e-06
-1.0117e-06
-2.96816e-06
-1.19013e-06
-2.30103e-06
-1.33744e-06
-1.58222e-06
-1.40427e-06
-8.54675e-07
-1.35095e-06
-2.30877e-07
-1.11468e-06
2.3161e-07
-6.6174e-07
3.84699e-07
-3.91621e-08
3.18117e-07
3.01571e-07
1.48533e-07
4.19595e-07
3.30087e-07
2.03211e-07
-4.58877e-07
3.47725e-07
-4.64357e-07
3.9887e-07
-2.68287e-07
3.71218e-07
-4.04602e-08
2.76293e-07
1.3717e-07
1.08729e-07
2.61363e-07
-1.68826e-07
3.89424e-07
-5.93006e-07
5.84825e-07
-1.17965e-06
8.60753e-07
-1.89252e-06
1.16281e-06
-2.63046e-06
1.41244e-06
-3.27681e-06
1.55658e-06
-3.80932e-06
1.60425e-06
-4.23467e-06
1.55909e-06
-4.58284e-06
1.44189e-06
-4.86407e-06
1.28953e-06
-5.09181e-06
1.11705e-06
-5.27429e-06
9.36615e-07
-5.41653e-06
7.57391e-07
-5.51978e-06
5.81853e-07
-5.58725e-06
4.11821e-07
-5.61478e-06
2.43702e-07
-5.6004e-06
7.20453e-08
-5.54687e-06
-9.84277e-08
-5.45195e-06
-2.73852e-07
-5.31213e-06
-4.60722e-07
-5.12474e-06
-6.63256e-07
-4.88413e-06
-8.83238e-07
-4.58554e-06
-1.12477e-06
-4.21378e-06
-1.38346e-06
-3.75671e-06
-1.64721e-06
-3.20516e-06
-1.88899e-06
-2.56296e-06
-2.04647e-06
-1.8567e-06
-2.05722e-06
-1.13733e-06
-1.83405e-06
-4.88751e-07
-1.31032e-06
-7.66002e-08
-4.51313e-07
3.43651e-08
1.90606e-07
2.42417e-08
4.29719e-07
3.54329e-07
1.71627e-07
-6.30504e-07
2.30578e-07
-5.23308e-07
1.87264e-07
-2.24973e-07
6.44183e-08
8.23849e-08
-1.46014e-07
3.47602e-07
-4.80037e-07
5.95386e-07
-9.66725e-07
8.76112e-07
-1.59498e-06
1.21308e-06
-2.29853e-06
1.5643e-06
-2.9823e-06
1.84658e-06
-3.56469e-06
1.99483e-06
-4.0261e-06
2.01799e-06
-4.3799e-06
1.95805e-06
-4.65159e-06
1.83078e-06
-4.86987e-06
1.66017e-06
-5.04363e-06
1.46329e-06
-5.18479e-06
1.25821e-06
-5.3014e-06
1.05323e-06
-5.39483e-06
8.5082e-07
-5.46057e-06
6.47591e-07
-5.49925e-06
4.50502e-07
-5.5085e-06
2.52953e-07
-5.48958e-06
5.31237e-08
-5.44419e-06
-1.43816e-07
-5.3699e-06
-3.48148e-07
-5.26405e-06
-5.66565e-07
-5.12483e-06
-8.02477e-07
-4.94832e-06
-1.05974e-06
-4.73346e-06
-1.33963e-06
-4.47506e-06
-1.64186e-06
-4.16736e-06
-1.95491e-06
-3.79347e-06
-2.26287e-06
-3.31091e-06
-2.52903e-06
-2.69996e-06
-2.66817e-06
-1.97171e-06
-2.56229e-06
-1.18412e-06
-2.09791e-06
-4.57639e-07
-1.17779e-06
-1.32839e-07
-1.34194e-07
-2.78902e-08
3.2477e-07
3.26438e-07
8.2731e-08
-7.13235e-07
2.76683e-08
-4.68245e-07
-1.2257e-07
-7.47341e-08
-3.58571e-07
3.18385e-07
-7.04439e-07
6.93471e-07
-1.18225e-06
1.07319e-06
-1.78357e-06
1.47743e-06
-2.44729e-06
1.87681e-06
-3.07965e-06
2.19665e-06
-3.60149e-06
2.36843e-06
-4.00092e-06
2.39426e-06
-4.30783e-06
2.3249e-06
-4.53827e-06
2.18849e-06
-4.71383e-06
2.00633e-06
-4.85281e-06
1.79916e-06
-4.96639e-06
1.57687e-06
-5.05549e-06
1.34732e-06
-5.11828e-06
1.11602e-06
-5.15534e-06
8.87879e-07
-5.17343e-06
6.65686e-07
-5.17414e-06
4.51211e-07
-5.16021e-06
2.39022e-07
-5.13299e-06
2.58987e-08
-5.0897e-06
-1.87106e-07
-5.02897e-06
-4.08879e-07
-4.95126e-06
-6.44267e-07
-4.856e-06
-8.97738e-07
-4.74167e-06
-1.17408e-06
-4.60469e-06
-1.47661e-06
-4.44021e-06
-1.80634e-06
-4.23838e-06
-2.15674e-06
-3.9909e-06
-2.51034e-06
-3.67887e-06
-2.84106e-06
-3.2568e-06
-3.09024e-06
-2.65915e-06
-3.15995e-06
-1.8739e-06
-2.88315e-06
-9.29039e-07
-2.12265e-06
-2.20917e-07
-8.42317e-07
-1.44765e-08
1.1833e-07
3.11962e-07
-4.88404e-08
-6.64395e-07
-2.17002e-07
-3.00084e-07
-4.69994e-07
1.78258e-07
-8.14348e-07
6.62739e-07
-1.26744e-06
1.14656e-06
-1.82246e-06
1.62821e-06
-2.43203e-06
2.08701e-06
-3.01675e-06
2.46152e-06
-3.50047e-06
2.68038e-06
-3.86038e-06
2.72833e-06
-4.12857e-06
2.66245e-06
-4.3281e-06
2.52443e-06
-4.47368e-06
2.33407e-06
-4.58009e-06
2.11274e-06
-4.65291e-06
1.87198e-06
-4.69894e-06
1.6229e-06
-4.72437e-06
1.37274e-06
-4.73585e-06
1.1275e-06
-4.73791e-06
8.89938e-07
-4.7316e-06
6.59373e-07
-4.71509e-06
4.34704e-07
-4.68918e-06
2.1311e-07
-4.65502e-06
-8.2592e-09
-4.61045e-06
-2.31681e-07
-4.55658e-06
-4.6275e-07
-4.49471e-06
-7.06136e-07
-4.42577e-06
-9.6668e-07
-4.35039e-06
-1.24945e-06
-4.26808e-06
-1.55892e-06
-4.17654e-06
-1.89789e-06
-4.0685e-06
-2.26478e-06
-3.92874e-06
-2.6501e-06
-3.73969e-06
-3.03011e-06
-3.47173e-06
-3.35821e-06
-3.06745e-06
-3.56422e-06
-2.43447e-06
-3.51614e-06
-1.52539e-06
-3.03173e-06
-4.95714e-07
-1.87199e-06
-3.27757e-08
-3.44609e-07
2.79186e-07
-1.74854e-07
-4.8954e-07
-4.5716e-07
-1.77784e-08
-8.00364e-07
5.21462e-07
-1.22961e-06
1.09198e-06
-1.7407e-06
1.65766e-06
-2.29875e-06
2.18625e-06
-2.84225e-06
2.63051e-06
-3.30064e-06
2.91991e-06
-3.63668e-06
3.01642e-06
-3.87606e-06
2.96771e-06
-4.04802e-06
2.8344e-06
-4.16496e-06
2.64137e-06
-4.24071e-06
2.40982e-06
-4.28486e-06
2.1569e-06
-4.30621e-06
1.89333e-06
-4.31239e-06
1.62908e-06
-4.30899e-06
1.36934e-06
-4.29901e-06
1.11752e-06
-4.28313e-06
8.74058e-07
-4.26161e-06
6.37853e-07
-4.23422e-06
4.07314e-07
-4.20098e-06
1.79865e-07
-4.16227e-06
-4.69674e-08
-4.11746e-06
-2.76491e-07
-4.06755e-06
-5.12659e-07
-4.01398e-06
-7.59709e-07
-3.95844e-06
-1.02221e-06
-3.90282e-06
-1.30507e-06
-3.84855e-06
-1.61319e-06
-3.79575e-06
-1.95068e-06
-3.74121e-06
-2.31933e-06
-3.67594e-06
-2.71537e-06
-3.58178e-06
-3.12427e-06
-3.42629e-06
-3.5137e-06
-3.16667e-06
-3.82384e-06
-2.72871e-06
-3.9541e-06
-2.02166e-06
-3.73878e-06
-9.52931e-07
-2.94072e-06
-1.1732e-07
-1.18022e-06
1.61867e-07
-2.86719e-07
-2.02821e-07
-6.49868e-07
3.45371e-07
-1.07015e-06
9.41746e-07
-1.54824e-06
1.57006e-06
-2.0646e-06
2.17402e-06
-2.57603e-06
2.69768e-06
-3.02233e-06
3.07681e-06
-3.35272e-06
3.25029e-06
-3.57725e-06
3.24095e-06
-3.73181e-06
3.12227e-06
-3.83185e-06
2.93445e-06
-3.88944e-06
2.69895e-06
-3.91684e-06
2.43723e-06
-3.92316e-06
2.16322e-06
-3.91661e-06
1.88677e-06
-3.90257e-06
1.61504e-06
-3.88427e-06
1.35105e-06
-3.86291e-06
1.09617e-06
-3.83855e-06
8.49698e-07
-3.81103e-06
6.10328e-07
-3.77992e-06
3.762e-07
-3.74488e-06
1.44831e-07
-3.70567e-06
-8.61825e-08
-3.66227e-06
-3.19887e-07
-3.61542e-06
-5.5951e-07
-3.56654e-06
-8.08589e-07
-3.51768e-06
-1.07107e-06
-3.47138e-06
-1.35138e-06
-3.4302e-06
-1.65437e-06
-3.39581e-06
-1.98507e-06
-3.36755e-06
-2.34759e-06
-3.3401e-06
-2.74282e-06
-3.30005e-06
-3.16432e-06
-3.22132e-06
-3.59243e-06
-3.0617e-06
-3.98346e-06
-2.76348e-06
-4.25232e-06
-2.25171e-06
-4.25055e-06
-1.42461e-06
-3.76782e-06
-3.36683e-07
-2.26815e-06
-1.74816e-07
-3.63151e-07
1.60329e-07
-7.92969e-07
7.75189e-07
-1.25344e-06
1.40222e-06
-1.74036e-06
2.05698e-06
-2.22879e-06
2.66246e-06
-2.67457e-06
3.14346e-06
-3.01537e-06
3.41761e-06
-3.24345e-06
3.47838e-06
-3.39316e-06
3.39067e-06
-3.48729e-06
3.2164e-06
-3.53784e-06
2.985e-06
-3.55734e-06
2.71845e-06
-3.55636e-06
2.43625e-06
-3.54297e-06
2.14983e-06
-3.52333e-06
1.86714e-06
-3.50082e-06
1.59253e-06
-3.47712e-06
1.32734e-06
-3.45257e-06
1.07161e-06
-3.42687e-06
8.23998e-07
-3.39937e-06
5.82832e-07
-3.36928e-06
3.46105e-07
-3.33592e-06
1.1147e-07
-3.29868e-06
-1.23418e-07
-3.25756e-06
-3.61008e-07
-3.21306e-06
-6.0401e-07
-3.16641e-06
-8.55239e-07
-3.11963e-06
-1.11786e-06
-3.07548e-06
-1.39552e-06
-3.03722e-06
-1.69263e-06
-3.00789e-06
-2.01439e-06
-2.989e-06
-2.36649e-06
-2.97822e-06
-2.7536e-06
-2.96621e-06
-3.17634e-06
-2.93273e-06
-3.62591e-06
-2.84195e-06
-4.07424e-06
-2.64233e-06
-4.45194e-06
-2.28643e-06
-4.60645e-06
-1.69093e-06
-4.36332e-06
-6.28877e-07
-3.3302e-06
-8.03693e-07
-4.08004e-07
5.68333e-07
-8.72438e-07
1.23962e-06
-1.34465e-06
1.87443e-06
-1.81601e-06
2.52834e-06
-2.2619e-06
3.10835e-06
-2.62546e-06
3.50701e-06
-2.87344e-06
3.6656e-06
-3.03447e-06
3.6394e-06
-3.1332e-06
3.4894e-06
-3.18661e-06
3.26981e-06
-3.20645e-06
3.00484e-06
-3.20454e-06
2.71654e-06
-3.18977e-06
2.42149e-06
-3.16861e-06
2.12866e-06
-3.14527e-06
1.8438e-06
-3.12176e-06
1.56902e-06
-3.09883e-06
1.30441e-06
-3.07623e-06
1.04901e-06
-3.05325e-06
8.01021e-07
-3.02893e-06
5.58509e-07
-3.00224e-06
3.1942e-07
-2.97237e-06
8.15995e-08
-2.93862e-06
-1.57168e-07
-2.90078e-06
-3.98848e-07
-2.85913e-06
-6.45667e-07
-2.81452e-06
-8.99842e-07
-2.7686e-06
-1.16378e-06
-2.72381e-06
-1.44032e-06
-2.68337e-06
-1.73306e-06
-2.65093e-06
-2.04684e-06
-2.62948e-06
-2.38793e-06
-2.61947e-06
-2.76361e-06
-2.61575e-06
-3.18005e-06
-2.60403e-06
-3.63763e-06
-2.55554e-06
-4.12272e-06
-2.42051e-06
-4.58697e-06
-2.15049e-06
-4.87647e-06
-1.68441e-06
-4.8294e-06
-8.99162e-07
-4.11545e-06
-1.70285e-06
-4.26031e-07
9.94364e-07
-8.95283e-07
1.70887e-06
-1.35573e-06
2.33488e-06
-1.79478e-06
2.96739e-06
-2.1837e-06
3.49727e-06
-2.46446e-06
3.78777e-06
-2.65133e-06
3.85247e-06
-2.76726e-06
3.75533e-06
-2.83202e-06
3.55416e-06
-2.86033e-06
3.29812e-06
-2.86347e-06
3.00798e-06
-2.85195e-06
2.70501e-06
-2.83291e-06
2.40245e-06
-2.81125e-06
2.107e-06
-2.78972e-06
1.82227e-06
-2.76939e-06
1.54869e-06
-2.75033e-06
1.28536e-06
-2.7319e-06
1.03057e-06
-2.71315e-06
7.82271e-07
-2.69301e-06
5.38372e-07
-2.67046e-06
2.96869e-07
-2.64467e-06
5.58115e-08
-2.61501e-06
-1.86824e-07
-2.58113e-06
-4.32728e-07
-2.54309e-06
-6.83707e-07
-2.50139e-06
-9.41547e-07
-2.45712e-06
-1.20805e-06
-2.41214e-06
-1.4853e-06
-2.36915e-06
-1.77605e-06
-2.33165e-06
-2.08435e-06
-2.30327e-06
-2.41631e-06
-2.28633e-06
-2.78055e-06
-2.27916e-06
-3.18722e-06
-2.27281e-06
-3.64398e-06
-2.24648e-06
-4.14906e-06
-2.157e-06
-4.67645e-06
-1.93439e-06
-5.09908e-06
-1.55818e-06
-5.20561e-06
-9.5056e-07
-4.72307e-06
-2.65341e-06
-4.16574e-07
1.41094e-06
-8.69005e-07
2.16131e-06
-1.30021e-06
2.76608e-06
-1.69793e-06
3.36512e-06
-2.02129e-06
3.82062e-06
-2.24105e-06
4.00752e-06
-2.38632e-06
3.99775e-06
-2.47028e-06
3.83928e-06
-2.51359e-06
3.59747e-06
-2.52798e-06
3.31252e-06
-2.52397e-06
3.00397e-06
-2.5103e-06
2.69135e-06
-2.49256e-06
2.3847e-06
-2.47429e-06
2.08874e-06
-2.45719e-06
1.80516e-06
-2.44166e-06
1.53316e-06
-2.42734e-06
1.27104e-06
-2.41341e-06
1.01664e-06
-2.39888e-06
7.67741e-07
-2.38276e-06
5.2226e-07
-2.36418e-06
2.78287e-07
-2.34241e-06
3.40421e-08
-2.31693e-06
-2.1231e-07
-2.28734e-06
-4.62319e-07
-2.25353e-06
-7.17515e-07
-2.21567e-06
-9.79404e-07
-2.17435e-06
-1.24938e-06
-2.13071e-06
-1.52894e-06
-2.0867e-06
-1.82005e-06
-2.0452e-06
-2.12585e-06
-2.00982e-06
-2.45169e-06
-1.98392e-06
-2.80645e-06
-1.96841e-06
-3.20272e-06
-1.95832e-06
-3.65407e-06
-1.93932e-06
-4.16806e-06
-1.88076e-06
-4.735e-06
-1.70203e-06
-5.27782e-06
-1.39173e-06
-5.51591e-06
-8.50266e-07
-5.26453e-06
-3.50368e-06
-3.86563e-07
1.7975e-06
-8.06645e-07
2.58139e-06
-1.19909e-06
3.15853e-06
-1.54847e-06
3.7145e-06
-1.80754e-06
4.07969e-06
-1.9854e-06
4.18539e-06
-2.09865e-06
4.111e-06
-2.16229e-06
3.90292e-06
-2.193e-06
3.62818e-06
-2.20098e-06
3.3205e-06
-2.19565e-06
2.99865e-06
-2.184e-06
2.67969e-06
-2.17025e-06
2.37096e-06
-2.15691e-06
2.07539e-06
-2.1449e-06
1.79315e-06
-2.13421e-06
1.52248e-06
-2.12428e-06
1.26111e-06
-2.11428e-06
1.00664e-06
-2.10336e-06
7.56817e-07
-2.09071e-06
5.09614e-07
-2.07566e-06
2.63233e-07
-2.05763e-06
1.60179e-08
-2.03622e-06
-2.3372e-07
-2.01107e-06
-4.87474e-07
-1.98194e-06
-7.46643e-07
-1.94877e-06
-1.01258e-06
-1.91169e-06
-1.28646e-06
-1.87123e-06
-1.56939e-06
-1.82856e-06
-1.86273e-06
-1.78571e-06
-2.1687e-06
-1.74575e-06
-2.49165e-06
-1.71238e-06
-2.83983e-06
-1.68823e-06
-3.22687e-06
-1.67143e-06
-3.67087e-06
-1.65198e-06
-4.18751e-06
-1.6072e-06
-4.77979e-06
-1.47552e-06
-5.4095e-06
-1.20249e-06
-5.78893e-06
-7.44693e-07
-5.72234e-06
-4.24837e-06
-3.42714e-07
2.14022e-06
-7.20291e-07
2.95896e-06
-1.06669e-06
3.50493e-06
-1.36194e-06
4.00975e-06
-1.56837e-06
4.28612e-06
-1.71422e-06
4.33124e-06
-1.80466e-06
4.20144e-06
-1.85507e-06
3.95333e-06
-1.87893e-06
3.65205e-06
-1.88507e-06
3.32663e-06
-1.88156e-06
2.99514e-06
-1.87376e-06
2.67189e-06
-1.86485e-06
2.36205e-06
-1.8565e-06
2.06704e-06
-1.84916e-06
1.7858e-06
-1.8426e-06
1.51592e-06
-1.83624e-06
1.25475e-06
-1.82938e-06
9.99783e-07
-1.82137e-06
7.48807e-07
-1.81164e-06
4.99882e-07
-1.7997e-06
2.51299e-07
-1.78516e-06
1.47968e-09
-1.76771e-06
-2.51171e-07
-1.74705e-06
-5.08142e-07
-1.72287e-06
-7.70817e-07
-1.69494e-06
-1.04051e-06
-1.66309e-06
-1.31831e-06
-1.62734e-06
-1.60514e-06
-1.58818e-06
-1.90189e-06
-1.54681e-06
-2.21006e-06
-1.50557e-06
-2.53289e-06
-1.46789e-06
-2.87751e-06
-1.43735e-06
-3.25741e-06
-1.41476e-06
-3.69346e-06
-1.39383e-06
-4.20845e-06
-1.35722e-06
-4.8164e-06
-1.26519e-06
-5.50153e-06
-1.02214e-06
-6.03198e-06
-6.32894e-07
-6.11158e-06
-4.88127e-06
-2.91014e-07
2.43123e-06
-6.1724e-07
3.28519e-06
-9.13479e-07
3.80117e-06
-1.15428e-06
4.25055e-06
-1.3223e-06
4.45414e-06
-1.44178e-06
4.45073e-06
-1.51417e-06
4.27383e-06
-1.55546e-06
3.99462e-06
-1.57578e-06
3.67236e-06
-1.58245e-06
3.33331e-06
-1.58201e-06
2.9947e-06
-1.57846e-06
2.66834e-06
-1.57413e-06
2.35771e-06
-1.57009e-06
2.06301e-06
-1.56653e-06
1.78224e-06
-1.56316e-06
1.51255e-06
-1.55952e-06
1.2511e-06
-1.55509e-06
9.95358e-07
-1.54944e-06
7.43161e-07
-1.54222e-06
4.92656e-07
-1.53312e-06
2.42199e-07
-1.52189e-06
-9.75111e-09
-1.50831e-06
-2.64747e-07
-1.49215e-06
-5.24306e-07
-1.47309e-06
-7.89873e-07
-1.4508e-06
-1.0628e-06
-1.42487e-06
-1.34423e-06
-1.395e-06
-1.63501e-06
-1.36111e-06
-1.93578e-06
-1.32376e-06
-2.24741e-06
-1.28452e-06
-2.57214e-06
-1.24631e-06
-2.91571e-06
-1.21302e-06
-3.2907e-06
-1.18719e-06
-3.71929e-06
-1.16506e-06
-4.23057e-06
-1.13342e-06
-4.84804e-06
-1.06526e-06
-5.56969e-06
-8.67324e-07
-6.22991e-06
-5.43527e-07
-6.43538e-06
-5.4248e-06
-2.32239e-07
2.66347e-06
-5.04653e-07
3.5576e-06
-7.50908e-07
4.04742e-06
-9.42075e-07
4.44172e-06
-1.0776e-06
4.58966e-06
-1.17284e-06
4.54596e-06
-1.23171e-06
4.3327e-06
-1.26658e-06
4.02948e-06
-1.28508e-06
3.69086e-06
-1.29319e-06
3.34142e-06
-1.29594e-06
2.99744e-06
-1.2962e-06
2.6686e-06
-1.29564e-06
2.35715e-06
-1.29495e-06
2.06232e-06
-1.29419e-06
1.78148e-06
-1.29315e-06
1.51151e-06
-1.29152e-06
1.24947e-06
-1.28899e-06
9.92831e-07
-1.28533e-06
7.395e-07
-1.28036e-06
4.87681e-07
-1.27392e-06
2.35766e-07
-1.2659e-06
-1.77793e-08
-1.25614e-06
-2.74501e-07
-1.24448e-06
-5.35968e-07
-1.23063e-06
-8.03723e-07
-1.2142e-06
-1.07923e-06
-1.19469e-06
-1.36375e-06
-1.17152e-06
-1.65818e-06
-1.14425e-06
-1.96305e-06
-1.11288e-06
-2.27878e-06
-1.07836e-06
-2.60666e-06
-1.04306e-06
-2.95101e-06
-1.0109e-06
-3.32286e-06
-9.85655e-07
-3.74453e-06
-9.66282e-07
-4.24994e-06
-9.43102e-07
-4.87122e-06
-8.95358e-07
-5.61743e-06
-7.3679e-07
-6.38848e-06
-4.56071e-07
-6.7161e-06
-5.88087e-06
-1.7391e-07
2.83738e-06
-3.89842e-07
3.77354e-06
-5.8551e-07
4.24309e-06
-7.31469e-07
4.58768e-06
-8.37264e-07
4.69546e-06
-9.11573e-07
4.62027e-06
-9.59315e-07
4.38045e-06
-9.89167e-07
4.05933e-06
-1.00657e-06
3.70826e-06
-1.01616e-06
3.35101e-06
-1.02158e-06
3.00286e-06
-1.02484e-06
2.67186e-06
-1.02708e-06
2.35939e-06
-1.02876e-06
2.064e-06
-1.02995e-06
1.78267e-06
-1.03053e-06
1.5121e-06
-1.03038e-06
1.24932e-06
-1.02938e-06
9.91831e-07
-1.02746e-06
7.37582e-07
-1.02459e-06
4.84808e-07
-1.02073e-06
2.31911e-07
-1.01586e-06
-2.26572e-08
-1.00989e-06
-2.80464e-07
-1.00273e-06
-5.43135e-07
-9.94123e-07
-8.12328e-07
-9.83703e-07
-1.08965e-06
-9.70919e-07
-1.37653e-06
-9.55069e-07
-1.67403e-06
-9.35448e-07
-1.98267e-06
-9.11644e-07
-2.30258e-06
-8.84035e-07
-2.63427e-06
-8.54396e-07
-2.98065e-06
-8.26325e-07
-3.35094e-06
-8.04418e-07
-3.76644e-06
-7.90297e-07
-4.26406e-06
-7.76436e-07
-4.88508e-06
-7.42209e-07
-5.65166e-06
-6.30961e-07
-6.49973e-06
-3.97625e-07
-6.94943e-06
-6.27849e-06
-1.11196e-07
2.94858e-06
-2.7358e-07
3.93592e-06
-4.1978e-07
4.38929e-06
-5.2533e-07
4.69323e-06
-6.04243e-07
4.77437e-06
-6.59672e-07
4.6757e-06
-6.97348e-07
4.41812e-06
-7.22655e-07
4.08464e-06
-7.38994e-07
3.7246e-06
-7.49612e-07
3.36163e-06
-7.56945e-07
3.0102e-06
-7.62288e-07
2.6772e-06
-7.66399e-07
2.3635e-06
-7.69606e-07
2.06721e-06
-7.7202e-07
1.78508e-06
-7.7368e-07
1.51376e-06
-7.74619e-07
1.25026e-06
-7.74888e-07
9.92101e-07
-7.74558e-07
7.37252e-07
-7.73703e-07
4.83953e-07
-7.72385e-07
2.30593e-07
-7.70638e-07
-2.44037e-08
-7.6846e-07
-2.82642e-07
-7.65788e-07
-5.45807e-07
-7.6245e-07
-8.15666e-07
-7.58119e-07
-1.09398e-06
-7.52267e-07
-1.38239e-06
-7.44157e-07
-1.68214e-06
-7.32941e-07
-1.99389e-06
-7.17924e-07
-2.3176e-06
-6.99055e-07
-2.65314e-06
-6.77578e-07
-3.00213e-06
-6.56659e-07
-3.37185e-06
-6.412e-07
-3.7819e-06
-6.34808e-07
-4.27046e-06
-6.32271e-07
-4.88762e-06
-6.13618e-07
-5.67031e-06
-5.36341e-07
-6.57701e-06
-3.41958e-07
-7.14382e-06
-6.62045e-06
-5.50527e-08
3.00363e-06
-1.60104e-07
4.04097e-06
-2.5695e-07
4.48613e-06
-3.2573e-07
4.76201e-06
-3.79073e-07
4.82771e-06
-4.16889e-07
4.71352e-06
-4.44996e-07
4.44623e-06
-4.65693e-07
4.10534e-06
-4.80579e-07
3.73948e-06
-4.91564e-07
3.37261e-06
-5.00002e-07
3.01863e-06
-5.06562e-07
2.68376e-06
-5.11728e-07
2.36867e-06
-5.15764e-07
2.07124e-06
-5.18854e-07
1.78817e-06
-5.21176e-07
1.51608e-06
-5.22915e-07
1.25199e-06
-5.24264e-07
9.9345e-07
-5.25407e-07
7.38395e-07
-5.26508e-07
4.85055e-07
-5.27703e-07
2.31787e-07
-5.29085e-07
-2.30219e-08
-5.30699e-07
-2.81027e-07
-5.32538e-07
-5.43969e-07
-5.34492e-07
-8.13711e-07
-5.36307e-07
-1.09217e-06
-5.3752e-07
-1.38117e-06
-5.37435e-07
-1.68222e-06
-5.3516e-07
-1.99616e-06
-5.2983e-07
-2.32293e-06
-5.21055e-07
-2.66192e-06
-5.09605e-07
-3.01358e-06
-4.98184e-07
-3.38328e-06
-4.91665e-07
-3.78842e-06
-4.94842e-07
-4.26728e-06
-5.04767e-07
-4.8777e-06
-5.04923e-07
-5.67016e-06
-4.59283e-07
-6.62265e-06
-3.01958e-07
-7.30114e-06
-6.92241e-06
7.38178e-09
2.99625e-06
-4.5805e-08
4.09416e-06
-9.80006e-08
4.53833e-06
-1.33599e-07
4.79761e-06
-1.61595e-07
4.85571e-06
-1.82615e-07
4.73454e-06
-2.00872e-07
4.46448e-06
-2.1646e-07
4.12093e-06
-2.29317e-07
3.75234e-06
-2.39935e-07
3.38323e-06
-2.4875e-07
3.02745e-06
-2.55764e-07
2.69078e-06
-2.61345e-07
2.37425e-06
-2.65667e-07
2.07557e-06
-2.68999e-07
1.7915e-06
-2.71653e-07
1.51873e-06
-2.73955e-07
1.2543e-06
-2.7622e-07
9.95715e-07
-2.78732e-07
7.40907e-07
-2.81732e-07
4.88055e-07
-2.85415e-07
2.3547e-07
-2.89926e-07
-1.85109e-08
-2.95353e-07
-2.756e-07
-3.01731e-07
-5.37591e-07
-3.09012e-07
-8.0643e-07
-3.17023e-07
-1.08416e-06
-3.25402e-07
-1.37279e-06
-3.33546e-07
-1.67408e-06
-3.40611e-07
-1.9891e-06
-3.45666e-07
-2.31787e-06
-3.48093e-07
-2.65949e-06
-3.48253e-07
-3.01342e-06
-3.4836e-07
-3.38317e-06
-3.53017e-07
-3.78376e-06
-3.6766e-07
-4.25264e-06
-3.91588e-07
-4.85377e-06
-4.10454e-07
-5.65129e-06
-3.91047e-07
-6.64205e-06
-2.64565e-07
-7.42762e-06
-7.18697e-06
6.45977e-08
2.93165e-06
6.55679e-08
4.09319e-06
5.57961e-08
4.5481e-06
5.18069e-08
4.8016e-06
4.92457e-08
4.85827e-06
4.4222e-08
4.73956e-06
3.65374e-08
4.47217e-06
2.68079e-08
4.13066e-06
1.67641e-08
3.76239e-06
7.3218e-09
3.39267e-06
-9.13515e-10
3.03568e-06
-7.96391e-09
2.69783e-06
-1.34818e-08
2.37977e-06
-1.76869e-08
2.07977e-06
-2.09398e-08
1.79476e-06
-2.36745e-08
1.52147e-06
-2.63434e-08
1.25697e-06
-2.93737e-08
9.98745e-07
-3.31425e-08
7.44676e-07
-3.79654e-08
4.92878e-07
-4.40961e-08
2.41601e-07
-5.17324e-08
-1.08747e-08
-6.09956e-08
-2.66336e-07
-7.1959e-08
-5.26627e-07
-8.4625e-08
-7.93764e-07
-9.88931e-08
-1.06989e-06
-1.14511e-07
-1.35717e-06
-1.31015e-07
-1.65758e-06
-1.47692e-07
-1.97242e-06
-1.63661e-07
-2.3019e-06
-1.7817e-07
-2.64498e-06
-1.91163e-07
-3.00042e-06
-2.04424e-07
-3.36991e-06
-2.22128e-07
-3.76606e-06
-2.5e-07
-4.22476e-06
-2.89381e-07
-4.81439e-06
-3.27907e-07
-5.61276e-06
-3.3509e-07
-6.63487e-06
-2.36519e-07
-7.52619e-06
-7.42349e-06
1.22606e-07
2.80904e-06
1.75219e-07
4.04058e-06
2.06796e-07
4.51652e-06
2.35367e-07
4.77303e-06
2.5908e-07
4.83456e-06
2.70229e-07
4.72841e-06
2.71056e-07
4.47134e-06
2.66808e-07
4.1349e-06
2.59837e-07
3.76936e-06
2.5199e-07
3.40052e-06
2.44501e-07
3.04317e-06
2.3825e-07
2.70408e-06
2.3334e-07
2.38468e-06
2.29647e-07
2.08347e-06
2.26781e-07
1.79762e-06
2.24216e-07
1.52403e-06
2.21391e-07
1.25979e-06
2.17774e-07
1.00236e-06
2.12897e-07
7.49552e-07
2.06369e-07
4.99405e-07
1.97879e-07
2.50091e-07
1.87159e-07
-1.54563e-10
1.74078e-07
-2.53256e-07
1.58503e-07
-5.11053e-07
1.40387e-07
-7.75648e-07
1.19768e-07
-1.04927e-06
9.67985e-08
-1.33421e-06
7.17863e-08
-1.63256e-06
4.52818e-08
-1.94591e-06
1.80708e-08
-2.27469e-06
-9.11004e-09
-2.6178e-06
-3.61841e-08
-2.97335e-06
-6.41284e-08
-3.34196e-06
-9.66129e-08
-3.73357e-06
-1.39385e-07
-4.18199e-06
-1.95134e-07
-4.75864e-06
-2.52526e-07
-5.55537e-06
-2.84201e-07
-6.6032e-06
-2.11013e-07
-7.59938e-06
-7.6345e-06
1.80583e-07
2.62846e-06
2.83534e-07
3.93762e-06
3.53508e-07
4.44655e-06
4.11971e-07
4.71456e-06
4.60739e-07
4.78579e-06
4.9038e-07
4.69877e-06
5.01484e-07
4.46024e-06
5.04124e-07
4.13226e-06
5.0134e-07
3.77214e-06
4.95995e-07
3.40587e-06
4.90136e-07
3.04903e-06
4.84964e-07
2.70925e-06
4.80964e-07
2.38868e-06
4.78066e-07
2.08636e-06
4.75843e-07
1.79985e-06
4.73683e-07
1.52619e-06
4.7092e-07
1.26255e-06
4.6692e-07
1.00636e-06
4.61122e-07
7.55351e-07
4.53053e-07
5.07474e-07
4.42327e-07
2.60817e-07
4.28668e-07
1.35046e-08
4.11818e-07
-2.36405e-07
3.91645e-07
-4.9088e-07
3.6805e-07
-7.52053e-07
3.40999e-07
-1.02222e-06
3.10524e-07
-1.30373e-06
2.76776e-07
-1.59882e-06
2.40111e-07
-1.90925e-06
2.01084e-07
-2.23567e-06
1.60375e-07
-2.57709e-06
1.18502e-07
-2.93148e-06
7.46987e-08
-3.29816e-06
2.58868e-08
-3.68476e-06
-3.36262e-08
-4.12248e-06
-1.07388e-07
-4.68488e-06
-1.84398e-07
-5.47836e-06
-2.3731e-07
-6.55029e-06
-1.91883e-07
-7.64481e-06
-7.82639e-06
2.36668e-07
2.39179e-06
3.89572e-07
3.78472e-06
4.96957e-07
4.33917e-06
5.85019e-07
4.6265e-06
6.55653e-07
4.71516e-06
7.05332e-07
4.64909e-06
7.29017e-07
4.43655e-06
7.39913e-07
4.12137e-06
7.42508e-07
3.76955e-06
7.40663e-07
3.40771e-06
7.37173e-07
3.05252e-06
7.33742e-07
2.71268e-06
7.3113e-07
2.39129e-06
7.29383e-07
2.08811e-06
7.28087e-07
1.80114e-06
7.2658e-07
1.5277e-06
7.24113e-07
1.26502e-06
7.19955e-07
1.01052e-06
7.13451e-07
7.61855e-07
7.04043e-07
5.16882e-07
6.91274e-07
2.73586e-07
6.74784e-07
2.9994e-08
6.54291e-07
-2.15911e-07
6.29587e-07
-4.66176e-07
6.00511e-07
-7.22977e-07
5.66938e-07
-9.88647e-07
5.28798e-07
-1.26559e-06
4.86115e-07
-1.55613e-06
4.39015e-07
-1.86215e-06
3.878e-07
-2.18445e-06
3.33028e-07
-2.52232e-06
2.75249e-07
-2.8737e-06
2.14225e-07
-3.23714e-06
1.47544e-07
-3.61808e-06
6.9724e-08
-4.04466e-06
-2.37904e-08
-4.59136e-06
-1.2215e-07
-5.38e-06
-1.95222e-07
-6.47721e-06
-1.74398e-07
-7.66563e-06
-8.00078e-06
2.90376e-07
2.10142e-06
4.91846e-07
3.58325e-06
6.35496e-07
4.19552e-06
7.52397e-07
4.5096e-06
8.44627e-07
4.62293e-06
9.15101e-07
4.57862e-06
9.54133e-07
4.39752e-06
9.74722e-07
4.10078e-06
9.84085e-07
3.76018e-06
9.87037e-07
3.40476e-06
9.86997e-07
3.05256e-06
9.86143e-07
2.71354e-06
9.85541e-07
2.39189e-06
9.85418e-07
2.08823e-06
9.85426e-07
1.80113e-06
9.84893e-07
1.52823e-06
9.83012e-07
1.2669e-06
9.78971e-07
1.01456e-06
9.72023e-07
7.68803e-07
9.61523e-07
5.27382e-07
9.46928e-07
2.88181e-07
9.27801e-07
4.91207e-08
9.03799e-07
-1.91909e-07
8.74635e-07
-4.37012e-07
8.40074e-07
-6.88416e-07
7.99918e-07
-9.48491e-07
7.53983e-07
-1.21965e-06
7.02091e-07
-1.50424e-06
6.44129e-07
-1.80419e-06
5.80203e-07
-2.12053e-06
5.10644e-07
-2.45276e-06
4.35968e-07
-2.79902e-06
3.56397e-07
-3.15757e-06
2.70294e-07
-3.53198e-06
1.72716e-07
-3.94708e-06
5.8488e-08
-4.47713e-06
-6.3009e-08
-5.25851e-06
-1.57218e-07
-6.383e-06
-1.60786e-07
-7.66206e-06
-8.16157e-06
3.39556e-07
1.76186e-06
5.87363e-07
3.33544e-06
7.66182e-07
4.0167e-06
9.10322e-07
4.36546e-06
1.02651e-06
4.50674e-06
1.1171e-06
4.48802e-06
1.17505e-06
4.33958e-06
1.208e-06
4.06783e-06
1.22619e-06
3.742e-06
1.23568e-06
3.39526e-06
1.24057e-06
3.04767e-06
1.24349e-06
2.71062e-06
1.24583e-06
2.38956e-06
1.24804e-06
2.08602e-06
1.24991e-06
1.79927e-06
1.2508e-06
1.52734e-06
1.24989e-06
1.26781e-06
1.24631e-06
1.01814e-06
1.23924e-06
7.75876e-07
1.22794e-06
5.38678e-07
1.21179e-06
3.04335e-07
1.19026e-06
7.06501e-08
1.16293e-06
-1.64581e-07
1.12942e-06
-4.03501e-07
1.0894e-06
-6.48395e-07
1.04257e-06
-9.0166e-07
9.88604e-07
-1.16569e-06
9.27166e-07
-1.4428e-06
8.57902e-07
-1.73492e-06
7.80576e-07
-2.0432e-06
6.95256e-07
-2.36744e-06
6.0251e-07
-2.70628e-06
5.02959e-07
-3.05802e-06
3.95741e-07
-3.42476e-06
2.76768e-07
-3.82811e-06
1.41717e-07
-4.34208e-06
2.2793e-09
-5.11907e-06
-1.15562e-07
-6.26516e-06
-1.43912e-07
-7.63371e-06
-8.30548e-06
3.79145e-07
1.38271e-06
6.70306e-07
3.04428e-06
8.84348e-07
3.80266e-06
1.05608e-06
4.19373e-06
1.19698e-06
4.36585e-06
1.30816e-06
4.37684e-06
1.38811e-06
4.25962e-06
1.43744e-06
4.0185e-06
1.46765e-06
3.71178e-06
1.48629e-06
3.37662e-06
1.49827e-06
3.03569e-06
1.50671e-06
2.70218e-06
1.5134e-06
2.38287e-06
1.51905e-06
2.08037e-06
1.52362e-06
1.79469e-06
1.52661e-06
1.52436e-06
1.52721e-06
1.26721e-06
1.52454e-06
1.02081e-06
1.51774e-06
7.82679e-07
1.506e-06
5.50416e-07
1.4886e-06
3.21733e-07
1.46494e-06
9.43111e-08
1.4345e-06
-1.3414e-07
1.39678e-06
-3.65781e-07
1.35133e-06
-6.0295e-07
1.29773e-06
-8.48058e-07
1.23549e-06
-1.10345e-06
1.16404e-06
-1.37136e-06
1.0828e-06
-1.65368e-06
9.91239e-07
-1.95164e-06
8.89178e-07
-2.26538e-06
7.77061e-07
-2.59416e-06
6.55811e-07
-2.93677e-06
5.25546e-07
-3.29449e-06
3.82847e-07
-3.68541e-06
2.22963e-07
-4.1822e-06
5.43787e-08
-4.95048e-06
-8.39222e-08
-6.12686e-06
-1.34303e-07
-7.58333e-06
-8.43979e-06
3.9972e-07
9.82994e-07
7.31511e-07
2.71249e-06
9.83902e-07
3.55026e-06
1.18456e-06
3.99307e-06
1.35023e-06
4.20017e-06
1.48502e-06
4.24206e-06
1.58881e-06
4.15583e-06
1.65914e-06
3.94817e-06
1.70585e-06
3.66508e-06
1.73738e-06
3.34509e-06
1.75955e-06
3.01353e-06
1.77609e-06
2.68564e-06
1.78919e-06
2.36976e-06
1.79993e-06
2.06964e-06
1.8085e-06
1.78611e-06
1.81458e-06
1.51828e-06
1.81747e-06
1.26431e-06
1.81635e-06
1.02193e-06
1.81034e-06
7.88692e-07
1.79859e-06
5.62163e-07
1.78031e-06
3.40014e-07
1.75482e-06
1.19802e-07
1.72149e-06
-1.00806e-07
1.67967e-06
-3.23968e-07
1.6288e-06
-5.52081e-07
1.56827e-06
-7.87528e-07
1.49739e-06
-1.03256e-06
1.41538e-06
-1.28935e-06
1.32135e-06
-1.55965e-06
1.21452e-06
-1.84481e-06
1.09446e-06
-2.14531e-06
9.61521e-07
-2.46122e-06
8.16794e-07
-2.79204e-06
6.61283e-07
-3.13898e-06
4.92587e-07
-3.51671e-06
3.06115e-07
-3.99573e-06
1.10998e-07
-4.75537e-06
-5.13726e-08
-5.96449e-06
-1.21484e-07
-7.51322e-06
-8.56127e-06
3.82e-07
6.00994e-07
7.60685e-07
2.33381e-06
1.05636e-06
3.25459e-06
1.28847e-06
3.76097e-06
1.4798e-06
4.00885e-06
1.64071e-06
4.08114e-06
1.77117e-06
4.02537e-06
1.86746e-06
3.85187e-06
1.93622e-06
3.59632e-06
1.98574e-06
3.29558e-06
2.02244e-06
2.97682e-06
2.05071e-06
2.65738e-06
2.07322e-06
2.34725e-06
2.09145e-06
2.05141e-06
2.10594e-06
1.77163e-06
2.11661e-06
1.50762e-06
2.12296e-06
1.25796e-06
2.12429e-06
1.0206e-06
2.11977e-06
7.9321e-07
2.10857e-06
5.73369e-07
2.08983e-06
3.58749e-07
2.06284e-06
1.46798e-07
2.0268e-06
-6.47679e-08
1.98097e-06
-2.78139e-07
1.92461e-06
-4.95715e-07
1.85689e-06
-7.19811e-07
1.77689e-06
-9.5256e-07
1.68355e-06
-1.19602e-06
1.57574e-06
-1.45184e-06
1.45242e-06
-1.72149e-06
1.31291e-06
-2.00581e-06
1.15753e-06
-2.30584e-06
9.87441e-07
-2.62194e-06
8.04409e-07
-2.95595e-06
6.07226e-07
-3.31953e-06
3.92166e-07
-3.78067e-06
1.6782e-07
-4.53102e-06
-2.60899e-08
-5.77058e-06
-1.16152e-07
-7.42316e-06
-8.67742e-06
3.06302e-07
2.94693e-07
7.50212e-07
1.8899e-06
1.09088e-06
2.91391e-06
1.35805e-06
3.4938e-06
1.57798e-06
3.78892e-06
1.76704e-06
3.89207e-06
1.92765e-06
3.86477e-06
2.05513e-06
3.72439e-06
2.15243e-06
3.49902e-06
2.22629e-06
3.22171e-06
2.28321e-06
2.9199e-06
2.32806e-06
2.61253e-06
2.36405e-06
2.31125e-06
2.39313e-06
2.02234e-06
2.41624e-06
1.74851e-06
2.43365e-06
1.49021e-06
2.44515e-06
1.24646e-06
2.45022e-06
1.01553e-06
2.44819e-06
7.95243e-07
2.43826e-06
5.833e-07
2.41961e-06
3.77395e-07
2.39147e-06
1.74936e-07
2.35287e-06
-2.61669e-08
2.30305e-06
-2.28316e-07
2.24101e-06
-4.33682e-07
2.16572e-06
-6.44518e-07
2.07596e-06
-8.62802e-07
1.97043e-06
-1.09048e-06
1.84769e-06
-1.3291e-06
1.70653e-06
-1.58033e-06
1.5461e-06
-1.84537e-06
1.36666e-06
-2.12641e-06