/*--------------------------------*- C++ -*----------------------------------*\
  =========                 |
  \\      /  F ield         | OpenFOAM: The Open Source CFD Toolbox
   \\    /   O peration     | Website:  https://openfoam.org
    \\  /    A nd           | Version:  13
     \\/     M anipulation  |
\*---------------------------------------------------------------------------*/
FoamFile
{
    format      ascii;
    class       volScalarField;
    location    "700";
    object      k;
}
// * * * * * * * * * * * * * * * * * * * * * * * * * * * * * * * * * * * * * //

dimensions      [0 2 -2 0 0 0 0];

internalField   nonuniform List<scalar> 
12225
(
0.338811
2.29402
2.02433
1.64175
2.88461
2.25048
1.87182
1.65422
1.69634
1.21325
2.03498
1.84273
1.43889
1.33978
1.58232
1.36885
1.30701
1.45528
0.315211
0.33544
0.281033
0.297545
0.349697
0.334803
0.338149
0.38494
0.398017
0.368688
0.406237
0.457462
0.49462
0.543012
0.579758
0.641161
0.673867
0.712529
0.368189
0.273096
0.14812
0.0822712
0.051113
0.0461667
0.0438568
0.0383785
0.037335
0.0389836
0.0420363
0.0530777
0.0585626
0.0703037
0.0768648
0.0905784
0.0976333
0.110226
0.378865
0.31006
0.226024
0.134079
0.0842098
0.0570034
0.0454722
0.0431983
0.03984
0.0348786
0.0307833
0.0275638
0.0256548
0.0248533
0.0246061
0.0247615
0.0249839
0.0248336
0.36223
0.319008
0.269462
0.225438
0.186693
0.164037
0.142132
0.135601
0.129037
0.124305
0.114304
0.102134
0.092686
0.0831109
0.0772175
0.0708192
0.0661597
0.0630728
0.368895
0.329544
0.300639
0.301132
0.290011
0.274606
0.253253
0.241636
0.234618
0.221611
0.209972
0.197109
0.186623
0.175763
0.167352
0.158946
0.153783
0.143607
0.37188
0.363888
0.350043
0.337753
0.328006
0.320104
0.313177
0.303913
0.295638
0.285494
0.276356
0.266811
0.259784
0.250986
0.245503
0.23747
0.233951
0.226827
0.373539
0.368641
0.362967
0.355618
0.349949
0.345603
0.340981
0.334869
0.328655
0.321609
0.315368
0.308652
0.3043
0.298831
0.295425
0.290354
0.287882
0.282945
0.373859
0.371187
0.36772
0.363506
0.359915
0.356548
0.353327
0.349218
0.345143
0.340527
0.336535
0.332137
0.328885
0.325136
0.322712
0.319364
0.317482
0.314246
0.373848
0.371535
0.369088
0.366328
0.363791
0.361197
0.358717
0.355817
0.352958
0.349804
0.346992
0.343992
0.341546
0.338874
0.336878
0.334483
0.332863
0.330595
0.37384
0.371553
0.369387
0.367161
0.365083
0.362969
0.36093
0.358718
0.356539
0.354221
0.352072
0.349859
0.347923
0.34591
0.344232
0.3424
0.340971
0.339245
0.373837
0.371552
0.369421
0.367337
0.365391
0.363473
0.361635
0.359751
0.357908
0.356019
0.35423
0.352431
0.350788
0.349132
0.347667
0.346145
0.344856
0.343425
0.373833
0.371555
0.369417
0.367368
0.365446
0.363597
0.36184
0.360113
0.358448
0.356797
0.355224
0.35367
0.352213
0.350778
0.349457
0.348133
0.346945
0.345709
0.37383
0.371555
0.369409
0.367367
0.365439
0.363603
0.361864
0.360194
0.358601
0.357061
0.355593
0.354171
0.352823
0.351517
0.350287
0.349087
0.347968
0.346861
0.373827
0.371554
0.369402
0.36736
0.365426
0.363588
0.361845
0.360185
0.358607
0.357099
0.355663
0.354289
0.352981
0.351728
0.350536
0.349392
0.348304
0.347258
0.373826
0.371552
0.369396
0.367352
0.365414
0.363573
0.361825
0.360164
0.358583
0.357079
0.355646
0.35428
0.352979
0.351738
0.350553
0.349423
0.348343
0.347313
0.373825
0.37155
0.369393
0.367347
0.365405
0.363562
0.361811
0.360146
0.358562
0.357055
0.35562
0.354253
0.352949
0.351707
0.350522
0.349391
0.348312
0.347282
0.373825
0.371549
0.369391
0.367343
0.3654
0.363555
0.361801
0.360134
0.358548
0.357039
0.355601
0.354232
0.352926
0.351682
0.350495
0.349363
0.348282
0.34725
0.373825
0.371549
0.36939
0.367342
0.365399
0.363552
0.361798
0.36013
0.358543
0.357032
0.355594
0.354223
0.352917
0.351671
0.350483
0.34935
0.348268
0.347235
0.373825
0.37155
0.369392
0.367345
0.365402
0.363557
0.361804
0.360136
0.35855
0.35704
0.355602
0.354231
0.352926
0.35168
0.350493
0.34936
0.348279
0.347246
0.373826
0.371552
0.369395
0.36735
0.365409
0.363566
0.361815
0.360149
0.358565
0.357057
0.35562
0.354252
0.352948
0.351704
0.350518
0.349387
0.348307
0.347275
0.373828
0.371554
0.3694
0.367358
0.36542
0.363581
0.361833
0.360171
0.35859
0.357086
0.355654
0.354289
0.352988
0.351747
0.350563
0.349433
0.348353
0.347321
0.373838
0.371551
0.369396
0.367357
0.365429
0.363598
0.361859
0.360207
0.358634
0.357139
0.355713
0.354355
0.353056
0.351816
0.350626
0.349488
0.348396
0.347349
0.373872
0.371463
0.369288
0.367265
0.365386
0.363591
0.361889
0.36027
0.358719
0.357242
0.355822
0.354462
0.353146
0.351877
0.350644
0.349453
0.348297
0.347181
0.373812
0.370835
0.368458
0.36667
0.365036
0.36341
0.361887
0.360394
0.358894
0.357434
0.355983
0.354564
0.353147
0.351755
0.350366
0.349004
0.34766
0.346354
0.371834
0.368439
0.363806
0.364406
0.363296
0.362408
0.361694
0.360632
0.359242
0.357767
0.356167
0.354527
0.352812
0.351084
0.349315
0.347561
0.345809
0.344112
0.367679
0.359024
0.356708
0.360555
0.353377
0.357301
0.360694
0.361112
0.36021
0.358784
0.356885
0.354706
0.352366
0.349926
0.347476
0.344997
0.342631
0.340271
0.355944
0.328938
0.337299
0.327548
0.329222
0.345874
0.364016
0.363119
0.366917
0.367994
0.366964
0.364568
0.362476
0.359935
0.358224
0.356208
0.355113
0.353552
0.366742
0.267678
0.258942
0.312758
0.385196
0.439799
0.482744
0.505119
0.52371
0.536802
0.549845
0.560248
0.57424
0.585858
0.601485
0.614312
0.628489
0.639929
0.821837
1.17514
1.4139
1.54188
1.59471
1.5907
1.57547
1.54844
1.51133
1.47362
1.43743
1.4037
1.37302
1.3455
1.32082
1.29918
1.27989
1.26289
1.40893e-08
3.49147e-07
1.80277e-06
7.19782e-06
2.44794e-05
7.61792e-05
0.000202864
0.000411869
0.000679514
0.000963342
0.00122492
0.00142895
0.001572
0.00163507
0.00162341
0.0015641
0.00145463
0.00127304
0.00107807
0.00091918
0.000772157
0.000631146
0.000494036
0.000366701
0.000249364
0.000153743
8.59863e-05
4.47646e-05
2.29191e-05
1.21791e-05
7.00874e-06
4.59542e-06
3.8285e-06
5.81307e-06
1.12015e-05
2.38577e-05
0.00011715
0.000266528
0.000591147
0.000890528
0.000980843
0.000913898
0.000757107
0.000664119
0.000691909
0.00083069
0.00101324
0.001509
0.00249605
0.00596714
0.0177557
0.0490798
0.09059
0.125842
0.137842
0.14292
0.140379
0.136673
0.13839
0.155144
0.176294
0.153434
0.167107
0.180385
0.161479
0.177356
0.18448
0.193093
0.200913
0.209061
0.21665
0.224445
0.231896
0.239417
0.246734
0.25405
0.261232
0.26838
0.275428
0.282425
0.289336
0.29619
0.302962
0.309674
0.316304
0.322868
0.329351
0.335763
0.342093
0.348352
0.354521
0.3606
0.366577
0.37245
0.378206
0.383841
0.389341
0.394698
0.399901
0.404939
0.409816
0.414537
0.419154
0.423671
0.428023
0.432247
0.436334
0.440278
0.44408
0.447732
0.451231
0.454575
0.457758
0.460782
0.463635
0.466326
0.46884
0.471187
0.473356
0.475354
0.47717
0.478809
0.480258
0.481529
0.482607
0.483508
0.484214
0.484735
0.485042
0.485129
0.485009
0.484959
0.484793
0.484423
0.483806
0.483044
0.482208
0.481212
0.480076
0.478623
0.477034
0.475248
0.473334
0.471288
0.46906
0.466751
0.464247
0.461687
0.458919
0.456124
0.453103
0.450085
0.446822
0.443596
0.440114
0.436698
0.433023
0.429426
0.425564
0.421754
0.417773
0.413814
0.409777
0.405721
0.401629
0.397525
0.393408
0.389302
0.385209
0.381155
0.377128
0.373155
0.369218
0.365317
0.361401
0.357431
0.353167
0.348272
0.342235
0.324104
7.03885e-08
1.98323e-06
1.35619e-05
5.91494e-05
0.000217767
0.000661903
0.001536
0.0028271
0.00435187
0.00592796
0.00738928
0.00859722
0.00951895
0.0100952
0.0104328
0.0104202
0.0102777
0.00999388
0.00949104
0.0087822
0.00786451
0.00679544
0.00558165
0.00436927
0.00310549
0.00210838
0.00136891
0.000860492
0.000528887
0.000321854
0.000200663
0.000134516
0.000102759
0.000110778
0.000164713
0.000230406
0.00126629
0.00284021
0.00593501
0.00869843
0.0103099
0.0105467
0.0104652
0.0108613
0.0128076
0.0167691
0.0214664
0.030464
0.0466875
0.0721977
0.096917
0.123153
0.144663
0.161165
0.17351
0.184798
0.199191
0.214658
0.231731
0.250165
0.267789
0.285396
0.304332
0.322469
0.341099
0.359845
0.378431
0.396649
0.41463
0.432485
0.450101
0.467632
0.48501
0.502313
0.519519
0.536662
0.553732
0.570747
0.587699
0.604596
0.621427
0.638198
0.654899
0.671531
0.688083
0.704556
0.720939
0.737231
0.753427
0.769526
0.785517
0.801378
0.817101
0.832672
0.848078
0.863304
0.87833
0.893136
0.907697
0.921983
0.935958
0.949578
0.962791
0.975635
0.988293
1.00068
1.01282
1.02469
1.03628
1.04759
1.0586
1.06929
1.07966
1.08971
1.09941
1.10875
1.11774
1.12635
1.13459
1.14244
1.1499
1.15695
1.16358
1.16979
1.17557
1.18092
1.18583
1.19031
1.19435
1.19794
1.20109
1.20383
1.20614
1.208
1.20941
1.21012
1.21116
1.21138
1.21163
1.21171
1.21136
1.2104
1.20903
1.20726
1.20508
1.20246
1.19946
1.19601
1.19219
1.18793
1.18331
1.17823
1.17281
1.16694
1.16075
1.15412
1.1472
1.13985
1.13219
1.12417
1.1159
1.10734
1.09854
1.08952
1.08026
1.07083
1.06121
1.05147
1.04161
1.03168
1.0217
1.01169
1.00163
0.99153
0.98134
0.970975
0.960086
0.948421
0.934342
0.903448
2.00385e-07
6.0347e-06
4.60604e-05
0.00021905
0.000637433
0.00180748
0.00371541
0.00596864
0.00826147
0.0103603
0.0121356
0.0135178
0.0145069
0.0151163
0.0154284
0.0154191
0.0152919
0.0149975
0.014527
0.0139262
0.0132007
0.0123381
0.0113294
0.0101538
0.00887167
0.00736816
0.00577005
0.00426869
0.00295582
0.00196262
0.00132257
0.000942956
0.000702148
0.000659664
0.000863176
0.00161384
0.00532003
0.0121861
0.0197513
0.0255745
0.0293512
0.0315791
0.0348686
0.0425971
0.0581039
0.0749027
0.0920053
0.1116
0.132382
0.152074
0.173558
0.194965
0.216514
0.238431
0.261424
0.287486
0.31396
0.34159
0.369695
0.397626
0.425256
0.452638
0.479621
0.505978
0.531869
0.55713
0.581978
0.606354
0.630393
0.654142
0.677643
0.700953
0.724097
0.747111
0.77001
0.792812
0.815524
0.838152
0.860696
0.883157
0.905529
0.927808
0.949987
0.972059
0.994016
1.01585
1.03755
1.05911
1.08052
1.10177
1.12286
1.14376
1.16446
1.18494
1.2052
1.22523
1.245
1.26451
1.28374
1.30268
1.32133
1.33967
1.35772
1.37548
1.39293
1.41004
1.4268
1.4432
1.4592
1.47481
1.49
1.50476
1.51908
1.53294
1.54632
1.55922
1.57162
1.5835
1.59486
1.6057
1.61598
1.62571
1.63487
1.64345
1.65144
1.65885
1.66567
1.6719
1.67753
1.68256
1.687
1.69085
1.69411
1.69679
1.69889
1.70036
1.70138
1.70177
1.70178
1.70118
1.70001
1.6982
1.6958
1.69281
1.68926
1.68508
1.68037
1.67504
1.66918
1.66269
1.65571
1.64809
1.63998
1.63126
1.62207
1.61228
1.60207
1.59131
1.58016
1.56855
1.55658
1.54423
1.53156
1.51858
1.50532
1.49182
1.47811
1.46422
1.45021
1.43612
1.42198
1.40783
1.39367
1.37953
1.36539
1.35122
1.33681
1.32195
1.3049
1.27602
7.16967e-07
2.15954e-05
0.000168681
0.00071566
0.00202234
0.00484207
0.00825509
0.0116238
0.0145828
0.016947
0.0186806
0.0198166
0.0204455
0.0206383
0.0205563
0.0202912
0.0198133
0.0192203
0.0185452
0.0178017
0.0169966
0.0161216
0.0151705
0.0141154
0.0129474
0.0116351
0.010176
0.00861835
0.00707632
0.00559642
0.00428344
0.00331604
0.00258003
0.00276555
0.00448919
0.0106837
0.0238623
0.0367835
0.0473311
0.0558783
0.0646122
0.0755997
0.0895209
0.105116
0.119977
0.135199
0.151594
0.171103
0.192229
0.215312
0.240822
0.267776
0.296416
0.326417
0.357749
0.390136
0.422912
0.455875
0.488683
0.521132
0.553124
0.584646
0.615606
0.645987
0.675859
0.705221
0.734175
0.762762
0.791055
0.819104
0.846956
0.874652
0.902222
0.929693
0.957079
0.984392
1.01164
1.03881
1.06592
1.09295
1.1199
1.14674
1.17348
1.2001
1.22659
1.25293
1.27912
1.30513
1.33095
1.35658
1.38201
1.40721
1.43217
1.45687
1.48131
1.50547
1.52934
1.55291
1.57617
1.59911
1.62173
1.644
1.66591
1.68746
1.70862
1.72935
1.74965
1.7695
1.78886
1.80773
1.82608
1.84389
1.86115
1.87784
1.89395
1.90945
1.92433
1.93858
1.95218
1.96512
1.97739
1.98897
1.99985
2.01002
2.01948
2.02822
2.03623
2.04351
2.05007
2.05589
2.06098
2.06535
2.06899
2.07192
2.07415
2.07559
2.07632
2.07646
2.07589
2.07459
2.07257
2.06982
2.06636
2.06217
2.05729
2.05168
2.04539
2.03838
2.03071
2.02231
2.01327
2.00352
1.99315
1.98208
1.97042
1.9581
1.94522
1.93174
1.91777
1.90328
1.88835
1.873
1.85727
1.84119
1.8248
1.80814
1.79124
1.77416
1.75695
1.73966
1.72235
1.70508
1.68789
1.67079
1.65382
1.63698
1.62014
1.60318
1.58454
1.55785
2.41143e-06
7.22755e-05
0.000542577
0.00205982
0.00572385
0.0108121
0.0156317
0.0195333
0.0223477
0.0241513
0.0251311
0.0254898
0.0254149
0.0250889
0.0244895
0.0237613
0.0229607
0.0221213
0.0212697
0.0204121
0.019549
0.0186693
0.0177622
0.0168025
0.0157708
0.0146345
0.0133734
0.0119992
0.0105855
0.00919707
0.00776666
0.00661834
0.00723926
0.0114114
0.0233328
0.0418988
0.0597948
0.0750884
0.0877768
0.0991333
0.110354
0.122102
0.134473
0.147528
0.162153
0.179971
0.200746
0.22445
0.250845
0.279435
0.309919
0.341748
0.374765
0.408647
0.443228
0.478244
0.513448
0.54866
0.583734
0.618577
0.653105
0.687296
0.721093
0.754502
0.78755
0.820259
0.85268
0.884852
0.916822
0.948634
0.980323
1.01192
1.04345
1.07494
1.10639
1.13781
1.1692
1.20056
1.23187
1.26312
1.2943
1.3254
1.35638
1.38725
1.41798
1.44854
1.47893
1.50912
1.5391
1.56886
1.59838
1.62765
1.65663
1.68533
1.71372
1.74179
1.76953
1.79693
1.82397
1.85063
1.87691
1.90278
1.92822
1.9532
1.97772
2.00174
2.02523
2.04819
2.07057
2.09236
2.11354
2.13409
2.15397
2.17319
2.1917
2.2095
2.22657
2.24289
2.25845
2.27322
2.2872
2.30037
2.31272
2.32424
2.33492
2.34475
2.35373
2.36185
2.36912
2.37553
2.38108
2.38578
2.38962
2.39264
2.3948
2.39602
2.39648
2.3962
2.39504
2.39303
2.3902
2.38653
2.38203
2.37671
2.37058
2.36363
2.35588
2.34732
2.33798
2.32785
2.31695
2.30528
2.29288
2.27972
2.26586
2.25128
2.23606
2.22018
2.20373
2.18672
2.16921
2.15123
2.13283
2.11405
2.09493
2.07551
2.05584
2.03599
2.01601
1.99597
1.97594
1.95599
1.93618
1.91655
1.89715
1.87802
1.85912
1.84035
1.82041
1.79464
7.58871e-06
0.000222239
0.00159095
0.0056602
0.0130132
0.0196215
0.0244104
0.0274197
0.0290476
0.0297155
0.0297141
0.0293985
0.0287137
0.0278321
0.0268519
0.0258292
0.0248099
0.0238177
0.0228699
0.0219648
0.0210975
0.0202519
0.0194103
0.0185418
0.0176277
0.0166214
0.0154844
0.0141783
0.0127692
0.0117986
0.0119777
0.0145996
0.0232407
0.0406839
0.0628294
0.0838701
0.101323
0.114597
0.124781
0.133694
0.142949
0.153384
0.166374
0.182563
0.201923
0.224781
0.250714
0.27918
0.309607
0.341477
0.374503
0.408404
0.443036
0.47825
0.513949
0.550013
0.586334
0.622809
0.659348
0.69588
0.732329
0.768658
0.804827
0.840822
0.876644
0.912306
0.947829
0.98324
1.01857
1.05385
1.0891
1.12435
1.15961
1.19491
1.23024
1.26559
1.30098
1.33637
1.37176
1.40713
1.44245
1.47771
1.51286
1.5479
1.5828
1.61752
1.65206
1.68638
1.72047
1.75431
1.78789
1.82117
1.85414
1.88677
1.91906
1.95099
1.98254
2.01369
2.04442
2.07473
2.10457
2.13393
2.16279
2.19112
2.2189
2.2461
2.2727
2.29866
2.32398
2.3486
2.37252
2.3957
2.41813
2.43977
2.46061
2.48062
2.49979
2.5181
2.53552
2.55205
2.56766
2.58233
2.59607
2.60884
2.62066
2.6315
2.64137
2.65026
2.65817
2.66509
2.67102
2.67598
2.67996
2.68299
2.68501
2.68597
2.68614
2.68537
2.68361
2.6809
2.67725
2.67267
2.66716
2.66074
2.6534
2.64515
2.63601
2.62597
2.61506
2.60327
2.59063
2.57715
2.56285
2.54773
2.53182
2.51514
2.49774
2.47964
2.4609
2.44155
2.42165
2.40124
2.38037
2.35909
2.33744
2.31548
2.29326
2.27084
2.2483
2.22572
2.20317
2.18074
2.15849
2.13649
2.11482
2.09354
2.07265
2.05209
2.03074
2.00488
2.39141e-05
0.00066013
0.0043147
0.0134195
0.0224471
0.0283483
0.0316814
0.0333224
0.0338746
0.0337305
0.0331372
0.0321443
0.0309594
0.0296782
0.0283806
0.0271182
0.0259299
0.0248308
0.0238277
0.0229097
0.0220645
0.0212662
0.0204827
0.0196581
0.0187464
0.0177497
0.016744
0.0160746
0.0162887
0.0187552
0.0258681
0.0400706
0.0608181
0.0833597
0.104266
0.121069
0.133037
0.141506
0.148723
0.15656
0.167121
0.181072
0.198508
0.219527
0.243826
0.271003
0.300341
0.33125
0.363316
0.396285
0.430015
0.464403
0.499396
0.534952
0.571039
0.607612
0.644615
0.68198
0.719631
0.757508
0.795551
0.833709
0.871939
0.910215
0.948521
0.986854
1.02522
1.06363
1.1021
1.14064
1.17929
1.21805
1.25692
1.29593
1.33505
1.37429
1.41363
1.45304
1.49251
1.53199
1.57147
1.6109
1.65026
1.6895
1.72861
1.76754
1.80628
1.84478
1.88302
1.92099
1.95866
1.99601
2.033
2.06961
2.10584
2.14165
2.17702
2.21194
2.24639
2.28034
2.31375
2.34662
2.37891
2.41059
2.44164
2.47203
2.50173
2.53072
2.55896
2.58642
2.61308
2.6389
2.66385
2.68792
2.71107
2.73329
2.75455
2.77482
2.7941
2.81235
2.82957
2.84572
2.86081
2.87482
2.88774
2.89956
2.91028
2.91989
2.92839
2.93578
2.94206
2.94723
2.95131
2.9543
2.95613
2.95687
2.95666
2.95537
2.95299
2.94956
2.94509
2.9396
2.93308
2.92555
2.91702
2.9075
2.89699
2.88551
2.87307
2.85967
2.84535
2.83011
2.81398
2.79697
2.7791
2.7604
2.74092
2.72069
2.69977
2.67819
2.65601
2.63328
2.61006
2.58639
2.56233
2.53793
2.51327
2.4884
2.46341
2.43838
2.41341
2.38857
2.36395
2.33964
2.31573
2.29229
2.26937
2.24692
2.22395
2.19725
7.09073e-05
0.00180899
0.0102053
0.0229384
0.0309644
0.0352761
0.0373521
0.0380424
0.03786
0.0370869
0.0358399
0.0343426
0.0327293
0.0311003
0.0295363
0.0280857
0.0267804
0.0256244
0.0246148
0.0237329
0.0229687
0.022312
0.0217347
0.0212532
0.0209877
0.0211514
0.0221708
0.0248111
0.0305202
0.0419177
0.0592926
0.0794792
0.0999767
0.118587
0.133432
0.143902
0.151302
0.157955
0.166303
0.17764
0.192554
0.21113
0.233107
0.258111
0.285556
0.314836
0.345391
0.376882
0.409133
0.442067
0.475654
0.509885
0.544768
0.580313
0.616523
0.653381
0.690846
0.728876
0.767418
0.806416
0.845815
0.885563
0.925615
0.965936
1.0065
1.04729
1.0883
1.12953
1.17099
1.21269
1.25462
1.2968
1.33924
1.38191
1.42482
1.46795
1.51126
1.55473
1.59832
1.64199
1.6857
1.72939
1.77303
1.81657
1.85998
1.90321
1.94623
1.989
2.03149
2.07368
2.11553
2.15702
2.19811
2.23878
2.27901
2.31876
2.35803
2.39678
2.43499
2.47263
2.50967
2.54609
2.58185
2.61692
2.65128
2.6849
2.71774
2.74978
2.78098
2.8113
2.84071
2.86919
2.89669
2.92319
2.94866
2.97308
2.99642
3.01866
3.03977
3.05973
3.07853
3.09614
3.11256
3.12776
3.14175
3.15451
3.16604
3.17633
3.18538
3.1932
3.19977
3.20512
3.20924
3.21214
3.21374
3.21421
3.21356
3.21171
3.20868
3.20449
3.19917
3.19273
3.18519
3.17654
3.16681
3.15601
3.14415
3.13124
3.11728
3.10231
3.08634
3.06938
3.05147
3.03261
3.01283
2.99218
2.97068
2.94839
2.92535
2.90162
2.87724
2.85228
2.82678
2.80081
2.77441
2.74766
2.72061
2.69336
2.66597
2.63856
2.61119
2.58398
2.55702
2.5304
2.50422
2.47858
2.45354
2.42907
2.40426
2.37616
0.000183204
0.00428532
0.0189873
0.0315388
0.0381191
0.0412816
0.0424875
0.0424462
0.0416328
0.0401946
0.038412
0.0364505
0.0344532
0.032528
0.0307588
0.0291929
0.0278597
0.0267586
0.0258831
0.0251934
0.0246804
0.0243737
0.0242806
0.0246343
0.0258644
0.0287015
0.0346091
0.0445971
0.0586467
0.0753831
0.0932346
0.110784
0.126454
0.139113
0.148668
0.156257
0.163807
0.173177
0.185543
0.201386
0.220649
0.243004
0.267973
0.295027
0.323618
0.353297
0.383768
0.414904
0.446674
0.479092
0.51219
0.546009
0.58059
0.615966
0.65215
0.689139
0.726919
0.765463
0.80473
0.844675
0.88525
0.926406
0.968098
1.01029
1.05294
1.09604
1.13957
1.18351
1.22786
1.27263
1.3178
1.36338
1.40937
1.45573
1.50246
1.54952
1.59688
1.64449
1.69229
1.74024
1.78827
1.83633
1.88436
1.93231
1.98012
2.02775
2.07517
2.12231
2.16915
2.21565
2.26177
2.30749
2.35277
2.39757
2.44187
2.48565
2.52886
2.5715
2.61352
2.65491
2.69562
2.73563
2.7749
2.8134
2.8511
2.88796
2.92396
2.95905
2.99321
3.02639
3.05856
3.08968
3.11971
3.14863
3.1764
3.20299
3.22839
3.25255
3.27546
3.29709
3.31742
3.33644
3.35412
3.37047
3.38546
3.39909
3.41136
3.42226
3.43179
3.43995
3.44675
3.45219
3.45628
3.45902
3.46035
3.46047
3.45929
3.45682
3.45306
3.44806
3.44184
3.4344
3.42578
3.41598
3.40503
3.39293
3.37969
3.36534
3.34989
3.33335
3.31574
3.2971
3.27743
3.25676
3.23513
3.21256
3.1891
3.16481
3.13973
3.11392
3.08742
3.06029
3.03259
3.00438
2.97572
2.94667
2.9173
2.88771
2.85798
2.82821
2.79849
2.76893
2.73962
2.71068
2.68219
2.6543
2.62704
2.60043
2.57361
2.5438
0.000406818
0.00869255
0.0279907
0.0392666
0.0446367
0.0469684
0.0475133
0.0468948
0.0454591
0.0434954
0.0412381
0.0388776
0.0365777
0.0344597
0.032615
0.0310934
0.0299331
0.0291224
0.0286931
0.0286187
0.028988
0.0299572
0.0318188
0.0351125
0.0407562
0.0490234
0.0598397
0.0728554
0.0874235
0.102519
0.117019
0.130008
0.141017
0.150241
0.158539
0.167317
0.177947
0.19137
0.207909
0.227462
0.249677
0.27411
0.300296
0.327798
0.356255
0.385425
0.415199
0.445567
0.47657
0.508268
0.540729
0.57402
0.608196
0.643295
0.679348
0.71637
0.754361
0.793307
0.833183
0.873954
0.915581
0.958023
1.00124
1.04519
1.08983
1.13516
1.18113
1.22773
1.27496
1.32279
1.37121
1.42022
1.4698
1.51992
1.57054
1.62163
1.67312
1.72497
1.77709
1.82943
1.88191
1.93444
1.98697
2.03942
2.09174
2.14388
2.19577
2.24737
2.29864
2.34952
2.4
2.45001
2.49953
2.54852
2.59695
2.64478
2.69198
2.73853
2.7844
2.82954
2.87394
2.91754
2.96031
3.00223
3.04325
3.08333
3.12245
3.16058
3.19766
3.23365
3.26853
3.30224
3.33474
3.36601
3.39601
3.42471
3.45208
3.47808
3.5027
3.52591
3.54767
3.56799
3.58684
3.60421
3.6201
3.63449
3.64739
3.65878
3.66868
3.67707
3.68398
3.6894
3.69335
3.69581
3.69681
3.69643
3.69463
3.69144
3.68687
3.68097
3.67375
3.66525
3.65549
3.64448
3.63224
3.6188
3.60417
3.58837
3.5714
3.5533
3.53407
3.51375
3.49236
3.46991
3.44646
3.42203
3.39667
3.37045
3.3434
3.31558
3.28703
3.25782
3.228
3.19762
3.16676
3.13547
3.10385
3.07197
3.03995
3.00786
2.97581
2.94391
2.91227
2.88098
2.85017
2.81995
2.7904
2.76155
2.7326
2.70112
0.000777133
0.0151028
0.0360294
0.0463759
0.0510609
0.0528162
0.0528377
0.0516904
0.0497666
0.0473689
0.0447581
0.0421522
0.0397372
0.0376497
0.0359963
0.0348287
0.0342675
0.0341844
0.0346877
0.0359288
0.0381553
0.041666
0.0467835
0.0536945
0.0622326
0.0723852
0.0838169
0.0960496
0.10845
0.120373
0.131368
0.141326
0.150506
0.159611
0.16962
0.181468
0.195758
0.2127
0.232167
0.253851
0.277376
0.30237
0.328501
0.355493
0.383154
0.411391
0.440195
0.469615
0.499727
0.530621
0.562382
0.595084
0.628791
0.66356
0.699431
0.736433
0.774581
0.813875
0.854305
0.895848
0.938478
0.98216
1.02686
1.07254
1.11917
1.16672
1.21516
1.26446
1.31461
1.36557
1.41733
1.46987
1.52315
1.57714
1.63178
1.68701
1.74276
1.79896
1.85552
1.91236
1.96938
2.02649
2.0836
2.14065
2.19755
2.25425
2.31068
2.36679
2.42252
2.47783
2.53266
2.58698
2.64075
2.69393
2.74647
2.79834
2.84951
2.89994
2.9496
2.99846
3.04647
3.09361
3.13982
3.18506
3.22931
3.27253
3.31467
3.35571
3.39559
3.43429
3.47174
3.50791
3.54275
3.57623
3.60832
3.63897
3.66816
3.69585
3.72202
3.74663
3.76967
3.79111
3.81096
3.82919
3.8458
3.86078
3.87412
3.88584
3.89592
3.90438
3.91122
3.91646
3.92011
3.92217
3.92267
3.92165
3.91909
3.91505
3.90954
3.90262
3.89431
3.88464
3.87364
3.86134
3.84776
3.83292
3.81685
3.79955
3.78106
3.76139
3.74056
3.71859
3.6955
3.67132
3.64609
3.61986
3.59268
3.5646
3.53568
3.50594
3.47545
3.44425
3.4124
3.37995
3.34697
3.31353
3.27973
3.24565
3.2114
3.17706
3.14274
3.10855
3.07458
3.04096
3.00781
2.97525
2.94336
2.91221
2.88103
2.84764
0.00126256
0.0219851
0.0434581
0.0533043
0.0575867
0.058957
0.0586192
0.0570908
0.0548175
0.0521574
0.0494163
0.046842
0.0446412
0.0429674
0.0420231
0.0417542
0.0421922
0.0434052
0.0455178
0.0486515
0.0529327
0.0584462
0.0652175
0.0731689
0.0821275
0.0918401
0.101975
0.112208
0.122254
0.131966
0.141379
0.150773
0.160682
0.171754
0.184545
0.199405
0.216427
0.235487
0.256338
0.27869
0.302266
0.326822
0.352164
0.378149
0.404706
0.431824
0.459548
0.487958
0.517153
0.54723
0.578281
0.610393
0.643643
0.678095
0.713805
0.750812
0.789146
0.828821
0.869841
0.912201
0.955885
1.00087
1.04713
1.09463
1.14334
1.19322
1.24425
1.29638
1.34959
1.40385
1.45912
1.51536
1.57253
1.63057
1.68941
1.74896
1.80913
1.86982
1.93094
1.99239
2.05404
2.11579
2.17754
2.2392
2.30071
2.36199
2.42296
2.48355
2.54371
2.60336
2.66249
2.72103
2.77896
2.83622
2.89277
2.94856
3.00357
3.05774
3.11106
3.16348
3.21495
3.26545
3.31491
3.3633
3.41059
3.45673
3.50169
3.54542
3.58789
3.62905
3.66884
3.70723
3.74417
3.77962
3.81355
3.84591
3.87667
3.9058
3.93326
3.95902
3.98307
4.00539
4.02597
4.0448
4.06188
4.07719
4.09074
4.10253
4.11255
4.12083
4.12738
4.13222
4.13536
4.13681
4.13661
4.13477
4.13127
4.1262
4.11959
4.1115
4.10196
4.091
4.07865
4.06495
4.04994
4.03363
4.01605
3.99723
3.97719
3.95596
3.93353
3.90995
3.88521
3.85934
3.83241
3.80447
3.77556
3.74574
3.71505
3.68352
3.65121
3.61816
3.5844
3.55
3.51503
3.47956
3.4437
3.40754
3.37116
3.33467
3.29817
3.26176
3.22553
3.18963
3.15416
3.11927
3.08503
3.05155
3.01811
2.98274
0.00185105
0.028367
0.0506623
0.0604408
0.0644818
0.065592
0.0649755
0.0631623
0.0606787
0.0579649
0.0553783
0.0531851
0.0515796
0.0508133
0.0507234
0.0515059
0.0531179
0.0556155
0.0590383
0.0633954
0.0686884
0.0748734
0.0818691
0.0895431
0.0977348
0.106272
0.115023
0.123909
0.132929
0.142194
0.151956
0.162576
0.174433
0.187825
0.202914
0.219712
0.238107
0.257912
0.278919
0.300932
0.323787
0.347353
0.371542
0.396309
0.421652
0.447612
0.474267
0.50171
0.530045
0.55938
0.589814
0.621442
0.65435
0.688618
0.72431
0.76148
0.800163
0.84039
0.88218
0.925542
0.970471
1.01696
1.06498
1.11451
1.16552
1.21798
1.27185
1.32709
1.38367
1.44153
1.50061
1.56087
1.62223
1.6846
1.74789
1.81198
1.87674
1.94206
2.00783
2.07393
2.14023
2.20659
2.27292
2.33914
2.40517
2.47094
2.53634
2.60129
2.66571
2.72954
2.79274
2.85528
2.91713
2.97823
3.03854
3.09801
3.15658
3.21422
3.2709
3.32657
3.3812
3.43473
3.48712
3.53833
3.58831
3.63702
3.68443
3.7305
3.77519
3.81844
3.8602
3.90043
3.93909
3.97613
4.01151
4.04521
4.07717
4.10737
4.13575
4.1623
4.18699
4.20983
4.23079
4.24987
4.26706
4.28237
4.29578
4.3073
4.31695
4.32473
4.33068
4.33482
4.33716
4.33774
4.33661
4.33368
4.32901
4.32271
4.31482
4.30537
4.29443
4.28202
4.26819
4.25298
4.23642
4.21855
4.1994
4.17901
4.1574
4.1346
4.11061
4.08545
4.05912
4.03165
4.00311
3.97357
3.94306
3.91163
3.87932
3.84617
3.8122
3.77746
3.74197
3.70579
3.66899
3.63166
3.59391
3.55583
3.51749
3.47901
3.44046
3.40194
3.36357
3.32547
3.28777
3.25061
3.21408
3.1783
3.14261
3.10529
0.00260932
0.0337759
0.0575473
0.0675946
0.0715892
0.0725568
0.0717302
0.0697081
0.067103
0.0644873
0.0623005
0.06081
0.0601617
0.0601325
0.0610024
0.0626895
0.0651925
0.0684849
0.0725425
0.0773299
0.0827973
0.0888766
0.0954977
0.10259
0.1101
0.117997
0.126293
0.135056
0.144417
0.154565
0.165704
0.178027
0.191666
0.206667
0.222994
0.240546
0.259189
0.27878
0.299191
0.320318
0.342086
0.364451
0.3874
0.410953
0.435156
0.460083
0.485829
0.5125
0.540202
0.569041
0.59912
0.630543
0.663406
0.697795
0.733787
0.771447
0.810829
0.851976
0.894921
0.939684
0.986273
1.03469
1.08491
1.13691
1.19068
1.24617
1.30336
1.36218
1.4226
1.48453
1.54788
1.61258
1.6785
1.74553
1.81354
1.88236
1.95185
2.02185
2.09225
2.1629
2.23369
2.30449
2.3752
2.44575
2.51607
2.58608
2.65566
2.7247
2.79308
2.86068
2.92756
2.99369
3.05904
3.12356
3.18718
3.24984
3.31151
3.37213
3.43167
3.49009
3.54734
3.60339
3.65817
3.71165
3.76377
3.81451
3.86382
3.91167
3.95801
4.0028
4.04597
4.08749
4.12731
4.16539
4.20168
4.23617
4.26881
4.29955
4.32836
4.35521
4.38009
4.40299
4.42388
4.44276
4.45962
4.47448
4.48732
4.49816
4.50701
4.51389
4.51884
4.52189
4.52307
4.52244
4.52001
4.51567
4.50959
4.50182
4.49241
4.4814
4.46886
4.45483
4.43936
4.42249
4.40428
4.38475
4.36397
4.34195
4.31874
4.29436
4.26884
4.24218
4.21433
4.18536
4.15535
4.12436
4.09241
4.05955
4.02581
3.99121
3.95581
3.9196
3.8826
3.84485
3.80645
3.7675
3.72809
3.6883
3.64823
3.60794
3.56755
3.52711
3.48675
3.44661
3.40682
3.36753
3.32882
3.29084
3.25297
3.21379
0.00342366
0.0396642
0.0645141
0.0748012
0.0787638
0.0796116
0.0784939
0.0761784
0.0735721
0.0713205
0.0698222
0.0691981
0.0691806
0.0699436
0.0714656
0.0737471
0.0767369
0.0803863
0.0846559
0.0895081
0.0949082
0.100833
0.107274
0.114231
0.121726
0.129811
0.13857
0.148104
0.158532
0.169959
0.182455
0.196055
0.210745
0.226465
0.243128
0.260632
0.278885
0.297807
0.317345
0.337467
0.358168
0.379468
0.401401
0.424026
0.447425
0.471698
0.496954
0.523279
0.550785
0.579593
0.609821
0.641583
0.674983
0.710123
0.747091
0.785961
0.826796
0.869643
0.914541
0.961515
1.01057
1.06172
1.11492
1.17016
1.2274
1.28661
1.34775
1.41076
1.47557
1.54209
1.61019
1.67972
1.7505
1.82239
1.8952
1.96876
2.04289
2.11742
2.19219
2.267
2.34186
2.41665
2.49129
2.56573
2.63989
2.71365
2.78688
2.85944
2.9312
3.00205
3.0721
3.1413
3.20959
3.27692
3.34321
3.40841
3.47247
3.53535
3.597
3.65741
3.71652
3.7743
3.83068
3.88563
3.93911
3.99107
4.04148
4.09031
4.13751
4.18304
4.22684
4.26887
4.30909
4.34744
4.38391
4.41844
4.45102
4.4816
4.51017
4.53669
4.56112
4.58346
4.60367
4.62176
4.63773
4.65157
4.6633
4.67292
4.68046
4.68595
4.68944
4.69095
4.69055
4.68832
4.68408
4.67803
4.67021
4.66067
4.64946
4.63664
4.62227
4.6064
4.58909
4.57039
4.55037
4.52907
4.50653
4.48281
4.45793
4.43195
4.40487
4.37673
4.34749
4.31718
4.28588
4.25362
4.22044
4.18636
4.15141
4.11562
4.07902
4.04162
4.00339
3.96436
3.92466
3.88437
3.84359
3.80239
3.76085
3.71905
3.67707
3.63495
3.59285
3.55089
3.50923
3.468
3.42729
3.38727
3.34736
3.30653
0.00429423
0.0454628
0.0714362
0.08198
0.0859113
0.0865983
0.0851205
0.0826473
0.0802794
0.0786215
0.0778798
0.0777677
0.0783819
0.0796331
0.0816032
0.0842481
0.0875138
0.0913634
0.0957737
0.100741
0.106268
0.112374
0.119088
0.126462
0.134555
0.143437
0.153174
0.16383
0.175431
0.187981
0.201471
0.215862
0.231081
0.247044
0.263676
0.28091
0.298705
0.317036
0.33591
0.355346
0.375383
0.396076
0.417507
0.439781
0.463026
0.487396
0.51293
0.539698
0.567862
0.597572
0.628967
0.662171
0.697297
0.734456
0.773738
0.815212
0.858931
0.90492
0.953188
1.00373
1.05656
1.11166
1.16894
1.22837
1.2899
1.3535
1.41913
1.48676
1.55632
1.6277
1.70076
1.77524
1.8509
1.92751
2.0049
2.08295
2.16144
2.24017
2.31888
2.3974
2.47582
2.55402
2.63197
2.70968
2.78704
2.86384
2.93995
3.01522
3.0896
3.1631
3.23562
3.3071
3.37748
3.44669
3.51467
3.58136
3.64671
3.7107
3.77331
3.83453
3.89431
3.95262
4.0094
4.06462
4.11823
4.17021
4.22053
4.26916
4.31606
4.36118
4.40447
4.4459
4.48541
4.52297
4.55854
4.5921
4.62361
4.65304
4.68037
4.70555
4.72858
4.74942
4.76806
4.78451
4.79877
4.81085
4.82076
4.82851
4.83413
4.83766
4.83917
4.83873
4.83642
4.83202
4.82573
4.81759
4.80767
4.79602
4.78271
4.7678
4.75135
4.73343
4.71411
4.69344
4.67149
4.64831
4.62397
4.5985
4.57196
4.54439
4.51581
4.48624
4.45573
4.4243
4.39193
4.35864
4.32446
4.2894