/*--------------------------------*- C++ -*----------------------------------*\
  =========                 |
  \\      /  F ield         | OpenFOAM: The Open Source CFD Toolbox
   \\    /   O peration     | Website:  https://openfoam.org
    \\  /    A nd           | Version:  13
     \\/     M anipulation  |
\*---------------------------------------------------------------------------*/
FoamFile
{
    format      ascii;
    class       volScalarField;
    location    "700";
    object      nut;
}
// * * * * * * * * * * * * * * * * * * * * * * * * * * * * * * * * * * * * * //

dimensions      [0 2 -1 0 0 0 0];

internalField   nonuniform List<scalar> 
12225
(
3.36928e-06
2.31718e-05
2.08708e-05
1.72912e-05
3.10373e-05
2.47943e-05
2.10535e-05
1.89728e-05
1.98019e-05
1.43838e-05
2.4447e-05
2.24062e-05
1.76965e-05
1.66293e-05
1.98135e-05
1.72842e-05
1.66098e-05
1.85983e-05
3.5575e-05
1.91849e-05
1.41963e-05
1.67943e-05
1.89255e-05
1.78502e-05
1.7569e-05
1.96797e-05
1.99196e-05
1.85823e-05
2.18771e-05
2.3469e-05
2.5148e-05
2.73498e-05
2.87278e-05
3.06548e-05
3.27423e-05
3.59497e-05
0.000158614
6.97032e-05
2.80178e-05
1.12782e-05
5.03018e-06
5.54094e-06
5.29165e-06
4.05437e-06
3.54177e-06
4.3612e-06
4.52116e-06
5.69329e-06
6.24877e-06
7.54401e-06
8.23348e-06
9.71918e-06
1.04672e-05
1.18387e-05
0.00207811
0.000110916
3.05963e-05
3.24273e-05
1.39335e-05
1.04685e-05
5.26104e-06
6.70742e-06
4.76697e-06
3.92329e-06
3.45584e-06
3.23687e-06
3.12137e-06
3.15151e-06
3.3749e-06
3.65219e-06
3.96602e-06
4.1335e-06
0.000532283
0.000258076
0.000131397
0.000166093
5.49205e-05
7.3759e-05
3.31276e-05
3.82883e-05
2.88875e-05
2.70652e-05
2.63252e-05
2.53375e-05
2.40595e-05
2.25708e-05
2.07508e-05
2.0396e-05
1.86905e-05
1.88562e-05
0.00097358
0.000215004
0.000183401
0.000179102
0.00018983
0.000159496
0.000130846
8.89164e-05
7.62942e-05
7.20486e-05
6.91402e-05
7.18105e-05
7.32898e-05
6.96168e-05
6.87971e-05
6.68943e-05
6.59623e-05
6.25767e-05
0.000952645
0.000727298
0.000546792
0.000464036
0.000295295
0.000232882
0.000248153
0.000214572
0.000203987
0.0001918
0.000182521
0.000171968
0.000167057
0.000163127
0.000163007
0.000159121
0.000155691
0.000149398
0.000890256
0.000807407
0.000707433
0.000622871
0.000537856
0.00047451
0.00041506
0.000407189
0.000386094
0.000359393
0.00033226
0.000310546
0.00030125
0.000286225
0.000264226
0.000272112
0.000266145
0.000244711
0.000863438
0.000857865
0.00083689
0.000759984
0.000705727
0.000663207
0.000626745
0.00059359
0.000564325
0.000533266
0.000502618
0.000472503
0.000452147
0.000431217
0.00041642
0.000402094
0.000388192
0.000389396
0.000852212
0.000855852
0.000855904
0.000836597
0.000808845
0.000785697
0.000764574
0.000742639
0.000718882
0.000690507
0.000664159
0.000636309
0.000614023
0.000592907
0.000577942
0.000563721
0.000552405
0.000546008
0.000851621
0.00085063
0.000853427
0.000850412
0.000844343
0.000835978
0.000827458
0.000817293
0.000805397
0.000787833
0.000771253
0.000752574
0.00073685
0.000721082
0.000709114
0.000697251
0.000689323
0.000680025
0.000851649
0.000850155
0.000850987
0.000850153
0.000849472
0.000847397
0.00084534
0.000841287
0.000835844
0.000827698
0.000819168
0.000809172
0.000799928
0.000790441
0.000782974
0.000775201
0.000769518
0.000763487
0.000851616
0.000850469
0.0008501
0.000849266
0.000848793
0.000848226
0.000847359
0.000846709
0.000844769
0.00084272
0.000841235
0.000836412
0.000830797
0.000828208
0.000824366
0.000819753
0.000816088
0.000811996
0.000851573
0.00085062
0.000849911
0.000849088
0.000848424
0.000847746
0.000847193
0.000846605
0.000845869
0.000844945
0.00084396
0.000842579
0.000841163
0.000839479
0.000838122
0.00083644
0.000835333
0.000833644
0.000851549
0.000850663
0.000849869
0.000849078
0.000848356
0.000847643
0.000847006
0.000846376
0.000845791
0.000845165
0.000844572
0.000843904
0.00084328
0.000842577
0.000841965
0.000841274
0.00084071
0.000840052
0.00085154
0.000850673
0.000849857
0.000849074
0.000848337
0.000847629
0.000846962
0.000846322
0.000845718
0.000845131
0.000844576
0.000844031
0.000843515
0.000843006
0.000842526
0.000842053
0.000841608
0.00084117
0.000851538
0.000850673
0.000849852
0.00084907
0.000848328
0.00084762
0.000846947
0.000846304
0.000845693
0.000845107
0.000844549
0.000844014
0.000843504
0.000843013
0.000842546
0.000842096
0.000841667
0.000841254
0.000851539
0.000850677
0.000849858
0.000849077
0.000848335
0.000847628
0.000846954
0.00084631
0.000845697
0.00084511
0.00084455
0.000844014
0.000843502
0.000843012
0.000842543
0.000842095
0.000841665
0.000841254
0.000851537
0.000850673
0.000849851
0.000849069
0.000848324
0.000847615
0.000846938
0.000846293
0.000845677
0.000845089
0.000844527
0.00084399
0.000843476
0.000842984
0.000842514
0.000842064
0.000841633
0.000841221
0.000851537
0.000850673
0.000849851
0.000849069
0.000848325
0.000847615
0.000846939
0.000846294
0.000845679
0.00084509
0.000844528
0.000843991
0.000843478
0.000842986
0.000842516
0.000842066
0.000841635
0.000841222
0.000851539
0.000850674
0.000849853
0.000849074
0.000848331
0.000847625
0.000846948
0.000846307
0.000845691
0.000845106
0.000844543
0.000844008
0.000843492
0.000843002
0.000842528
0.000842076
0.000841638
0.000841221
0.000851564
0.000850656
0.000849852
0.000849075
0.000848337
0.000847635
0.000846954
0.000846318
0.000845687
0.000845103
0.000844517
0.000843974
0.00084342
0.000842904
0.000842369
0.000841868
0.000841339
0.000840846
0.000851749
0.000850349
0.000849751
0.000848962
0.000848283
0.000847538
0.000846809
0.000846079
0.000845294
0.000844585
0.000843754
0.000842986
0.000842081
0.000841224
0.000840194
0.000839228
0.00083804
0.000836957
0.000852064
0.000847063
0.000848352
0.000847178
0.000847009
0.000845913
0.000844531
0.000842767
0.000840772
0.000838784
0.000836281
0.00083384
0.000830885
0.00082781
0.000824512
0.000821148
0.000817174
0.000813545
0.000841539
0.000813763
0.00083158
0.000822724
0.000830795
0.000829604
0.000824339
0.000817936
0.000809853
0.000802292
0.000792949
0.000784411
0.000774336
0.000765243
0.000754789
0.000745581
0.000735049
0.000726232
0.000755353
0.000617901
0.000682578
0.000706596
0.00073917
0.000738837
0.000724949
0.000707741
0.000685748
0.000666332
0.000644614
0.000626418
0.000606628
0.000590395
0.000572679
0.000558479
0.000542767
0.000530784
0.000438786
0.000405103
0.000340461
0.000367947
0.000428654
0.000456033
0.000452788
0.000435066
0.000410645
0.000390136
0.000368152
0.000351109
0.000333414
0.000319983
0.000305725
0.000295101
0.000283494
0.000275211
0.000132127
8.78115e-05
0.000121811
8.11642e-05
0.00010763
0.000135677
0.000150689
0.00014725
0.00014303
0.000138267
0.000131653
0.000126329
0.000120994
0.000116834
0.000112666
0.000109445
0.000106197
0.000103747
3.03372e-05
1.5219e-05
1.35923e-05
1.91836e-05
2.85768e-05
3.71223e-05
4.54306e-05
4.63023e-05
4.98623e-05
5.26968e-05
5.39187e-05
5.55062e-05
5.74596e-05
5.90435e-05
6.07851e-05
6.0838e-05
6.11584e-05
6.13355e-05
1.07405e-05
1.5498e-05
1.88577e-05
2.08368e-05
2.18383e-05
2.20622e-05
2.21172e-05
2.19882e-05
2.16926e-05
2.13629e-05
2.10306e-05
2.07117e-05
2.04171e-05
2.01513e-05
1.99117e-05
1.97044e-05
1.95214e-05
1.93624e-05
1.22909e-12
1.38868e-10
7.16403e-10
2.85785e-09
9.71085e-09
3.01931e-08
8.0332e-08
1.62948e-07
2.68593e-07
3.80433e-07
4.83285e-07
5.6326e-07
6.19064e-07
6.43294e-07
6.38097e-07
6.1419e-07
5.7065e-07
4.98924e-07
4.22095e-07
3.59527e-07
3.01718e-07
2.46369e-07
1.92651e-07
1.42849e-07
9.70396e-08
5.97663e-08
3.33912e-08
1.73651e-08
8.88124e-09
4.71436e-09
2.71002e-09
1.77493e-09
1.47708e-09
2.24024e-09
4.31197e-09
9.17349e-09
4.49937e-08
1.02247e-07
2.26514e-07
3.4083e-07
3.74952e-07
3.48943e-07
2.88729e-07
2.5296e-07
2.63223e-07
3.15629e-07
3.84512e-07
5.71927e-07
9.44833e-07
2.25586e-06
6.70385e-06
1.85066e-05
3.41141e-05
4.73268e-05
5.17707e-05
4.96435e-05
4.33683e-05
3.85069e-05
3.60795e-05
3.76807e-05
4.02798e-05
3.33444e-05
3.46958e-05
3.59452e-05
3.10971e-05
3.30882e-05
3.34216e-05
3.40708e-05
3.45936e-05
3.51915e-05
3.57091e-05
3.62729e-05
3.67917e-05
3.73311e-05
3.78475e-05
3.83722e-05
3.88848e-05
3.94005e-05
3.99095e-05
4.04199e-05
4.09263e-05
4.14336e-05
4.19385e-05
4.24444e-05
4.29488e-05
4.34542e-05
4.39587e-05
4.44644e-05
4.49702e-05
4.54781e-05
4.59854e-05
4.64925e-05
4.69982e-05
4.75031e-05
4.80062e-05
4.85075e-05
4.90062e-05
4.95019e-05
4.99944e-05
5.04835e-05
5.09706e-05
5.14574e-05
5.19513e-05
5.24515e-05
5.29483e-05
5.34487e-05
5.39529e-05
5.44613e-05
5.49751e-05
5.54946e-05
5.60205e-05
5.65538e-05
5.7095e-05
5.76456e-05
5.82055e-05
5.87771e-05
5.93598e-05
5.99563e-05
6.05665e-05
6.1193e-05
6.18353e-05
6.24955e-05
6.31737e-05
6.38732e-05
6.45941e-05
6.534e-05
6.61105e-05
6.6909e-05
6.77334e-05
6.85852e-05
6.94686e-05
7.04266e-05
7.1436e-05
7.24877e-05
7.35795e-05
7.47312e-05
7.59584e-05
7.7251e-05
7.85175e-05
7.82906e-05
7.80556e-05
7.78008e-05
7.75354e-05
7.72639e-05
7.69687e-05
7.66769e-05
7.63567e-05
7.60456e-05
7.57009e-05
7.53714e-05
7.50025e-05
7.46554e-05
7.42625e-05
7.38986e-05
7.34836e-05
7.31029e-05
7.26683e-05
7.22704e-05
7.1819e-05
7.13978e-05
7.09389e-05
7.04931e-05
7.00334e-05
6.95714e-05
6.91042e-05
6.86335e-05
6.81596e-05
6.7684e-05
6.72074e-05
6.67314e-05
6.62558e-05
6.57821e-05
6.53094e-05
6.48371e-05
6.43615e-05
6.3879e-05
6.33684e-05
6.27983e-05
6.21197e-05
6.03177e-05
6.14037e-12
9.95365e-10
1.37602e-08
7.42351e-08
3.2043e-07
1.0863e-06
2.50238e-06
4.62018e-06
7.24897e-06
1.02103e-05
1.32513e-05
1.60871e-05
1.85329e-05
2.03368e-05
2.153e-05
2.18818e-05
2.1618e-05
2.08667e-05
1.92809e-05
1.63394e-05
1.28632e-05
9.63981e-06
6.88654e-06
4.75958e-06
3.04577e-06
1.91353e-06
1.17831e-06
7.31455e-07
4.56782e-07
2.9131e-07
2.00209e-07
1.53125e-07
1.41661e-07
1.79915e-07
3.03017e-07
4.74562e-07
2.79293e-06
6.35059e-06
1.30557e-05
1.83435e-05
2.03672e-05
1.96173e-05
1.82869e-05
1.68474e-05
1.68494e-05
1.75393e-05
1.68821e-05
1.91153e-05
2.56354e-05
3.67318e-05
4.75486e-05
5.97845e-05
7.05517e-05
8.04543e-05
8.86836e-05
9.69353e-05
0.000106961
0.000118795
0.000130316
0.000143917
0.000158641
0.000169204
0.000182898
0.00019765
0.000205448
0.00021872
0.000229827
0.000240941
0.000251612
0.000261831
0.000271791
0.000281406
0.000290811
0.000299949
0.000308917
0.000317679
0.000326291
0.00033474
0.000343054
0.000351228
0.000359275
0.000367197
0.000374998
0.000382681
0.00039025
0.000397707
0.000405053
0.000412294
0.000419432
0.000426477
0.000433429
0.000440291
0.000447059
0.000453735
0.000460315
0.000466797
0.000473172
0.000479428
0.000485541
0.000491472
0.000497157
0.000502488
0.000507292
0.000511632
0.000516035
0.000520254
0.000524401
0.000528427
0.000532349
0.000536155
0.000539847
0.000543418
0.000546869
0.000550195
0.000553393
0.00055646
0.000559395
0.000562193
0.000564855
0.000567377
0.000569758
0.000571994
0.000574081
0.000576016
0.000577797
0.000579424
0.000580896
0.000582212
0.000583371
0.00058437
0.000585198
0.000585841
0.000586338
0.000586689
0.000586879
0.000586777
0.000586904
0.000586731
0.000586774
0.000586948
0.000587006
0.000586825
0.000586498
0.000586005
0.000585656
0.000584726
0.000584161
0.000582904
0.000582115
0.000580535
0.000579507
0.000577604
0.000576309
0.000574103
0.000572522
0.000570044
0.000568153
0.000565451
0.000563213
0.000560358
0.000557761
0.000554823
0.000551871
0.000548809
0.00054564
0.000542371
0.000539005
0.000535553
0.000532022
0.000528423
0.000524764
0.000521048
0.000517269
0.000513403
0.000509419
0.00050525
0.000500696
0.000495467
0.000488731
0.000471033
1.74806e-11
3.00583e-09
5.71436e-08
3.53058e-07
9.77352e-07
2.75021e-06
5.87353e-06
1.02556e-05
1.57506e-05
2.20393e-05
2.87914e-05
3.54644e-05
4.1542e-05
4.66639e-05
5.06894e-05
5.32873e-05
5.49109e-05
5.53488e-05
5.44242e-05
5.17679e-05
4.79462e-05
4.23221e-05
3.55269e-05
2.84433e-05
2.1796e-05
1.59072e-05
1.10049e-05
7.40217e-06
4.79583e-06
3.10277e-06
2.12089e-06
1.57719e-06
1.28935e-06
1.36577e-06
2.05763e-06
4.3207e-06
1.45218e-05
3.24176e-05
4.93899e-05
5.83349e-05
5.73507e-05
4.8746e-05
4.03244e-05
3.95288e-05
4.58299e-05
5.25761e-05
6.10205e-05
7.34336e-05
8.55659e-05
9.82409e-05
0.00011546
0.00013454
0.000156057
0.000179377
0.000204385
0.000232656
0.000261752
0.000292862
0.00032361
0.000353027
0.000382958
0.000410029
0.000436254
0.000463992
0.000487235
0.00051107
0.000533826
0.00055547
0.000576404
0.000596631
0.000616317
0.000635466
0.000654198
0.000672518
0.000690503
0.000708157
0.000725526
0.000742612
0.000759441
0.000776017
0.000792351
0.000808447
0.000824311
0.000839948
0.000855361
0.000870554
0.00088553
0.000900291
0.000914844
0.000929195
0.000943344
0.000957287
0.000971018
0.000984532
0.000997818
0.00101087
0.00102366
0.00103617
0.00104837
0.00106021
0.00107165
0.00108263
0.00109317
0.00110346
0.0011136
0.00112349
0.00113317
0.00114261
0.00115181
0.00116077
0.00116948
0.00117792
0.0011861
0.00119401
0.00120165
0.00120899
0.00121605
0.00122281
0.00122928
0.00123544
0.0012413
0.00124684
0.00125207
0.00125697
0.00126154
0.00126579
0.0012697
0.00127329
0.00127654
0.00127945
0.00128202
0.00128425
0.00128617
0.0012878
0.00128912
0.00129011
0.00129095
0.00129152
0.00129204
0.00129234
0.00129236
0.00129204
0.00129144
0.00129041
0.00128939
0.00128761
0.00128605
0.00128358
0.00128146
0.0012783
0.00127561
0.00127174
0.00126845
0.00126391
0.00126
0.00125487
0.00125027
0.00124462
0.00123934
0.00123329
0.00122732
0.00122092
0.00121435
0.00120753
0.00120048
0.00119322
0.00118576
0.00117813
0.00117034
0.00116241
0.00115436
0.00114621
0.00113794
0.0011295
0.0011208
0.0011117
0.00110185
0.00109052
0.00107565
0.00104339
6.2545e-11
1.0602e-08
1.70206e-07
7.64867e-07
2.32057e-06
6.45352e-06
1.29165e-05
2.16561e-05
3.20633e-05
4.30696e-05
5.37781e-05
6.36814e-05
7.22739e-05
7.90818e-05
8.42011e-05
8.77516e-05
8.94373e-05
8.96269e-05
8.84559e-05
8.59289e-05
8.19091e-05
7.66282e-05
7.0203e-05
6.20026e-05
5.26832e-05
4.30512e-05
3.37143e-05
2.56726e-05
1.91681e-05
1.41764e-05
1.03631e-05
8.03837e-06
6.38532e-06
7.32865e-06
1.1844e-05
2.56801e-05
4.78103e-05
6.48705e-05
7.44442e-05
7.21836e-05
6.99921e-05
7.07423e-05
7.46412e-05
8.20044e-05
9.25007e-05
0.000107502
0.000118765
0.000137045
0.000160239
0.000186065
0.000218398
0.00025326
0.000292009
0.000332744
0.000375462
0.000419339
0.000463533
0.000507913
0.000550949
0.000592176
0.000632352
0.000670708
0.000707162
0.000743055
0.00077714
0.000809888
0.000841572
0.000872195
0.000901976
0.000930985
0.00095934
0.000987098
0.00101434
0.0010411
0.00106744
0.00109337
0.00111892
0.00114411
0.00116895
0.00119344
0.00121759
0.00124141
0.00126489
0.00128803
0.00131085
0.00133333
0.00135549
0.00137732
0.00139882
0.00141999
0.00144085
0.00146137
0.00148155
0.00150139
0.00152086
0.00153997
0.00155869
0.00157701
0.0015949
0.00161235
0.00162935
0.00164589
0.00166203
0.00167785
0.00169337
0.00170853
0.00172335
0.00173782
0.00175191
0.00176563
0.00177896
0.00179189
0.00180441
0.00181652
0.0018282
0.00183946
0.00185027
0.00186064
0.00187056
0.00188002
0.00188903
0.00189757
0.00190563
0.00191322
0.00192032
0.00192694
0.00193308
0.00193874
0.0019439
0.00194859
0.00195279
0.0019565
0.00195972
0.00196256
0.00196497
0.00196689
0.00196844
0.00196971
0.00197062
0.00197112
0.00197119
0.00197079
0.00196999
0.00196863
0.00196703
0.00196472
0.00196226
0.00195899
0.00195566
0.00195144
0.00194722
0.00194203
0.00193688
0.00193074
0.00192465
0.0019176
0.00191055
0.00190266
0.00189469
0.00188606
0.00187722
0.00186791
0.00185828
0.0018483
0.00183799
0.00182736
0.00181644
0.00180527
0.00179387
0.00178227
0.0017705
0.00175858
0.00174648
0.00173417
0.00172153
0.00170834
0.0016942
0.00167813
0.00165726
0.00161882
2.10362e-10
3.15497e-08
3.8294e-07
1.79653e-06
6.25581e-06
1.51758e-05
2.83511e-05
4.42201e-05
6.10479e-05
7.72108e-05
9.14458e-05
0.000103014
0.000111702
0.000117941
0.00012146
0.000122938
0.000122761
0.000121236
0.000118586
0.000114927
0.000109969
0.000104371
9.78649e-05
8.98801e-05
8.05919e-05
7.01822e-05
5.90511e-05
4.83527e-05
3.90043e-05
3.13939e-05
2.51775e-05
2.04744e-05
2.05183e-05
2.67372e-05
4.47747e-05
6.73466e-05
8.17464e-05
8.88219e-05
9.21482e-05
9.51338e-05
0.000100182
0.000108773
0.000121877
0.000135942
0.000148326
0.000168704
0.000197326
0.000228506
0.000267149
0.000309429
0.00035689
0.000406315
0.000458394
0.000511364
0.00056507
0.000618645
0.000671739
0.000723979
0.000774641
0.000823523
0.00087062
0.000916665
0.000960923
0.00100387
0.00104529
0.00108547
0.00112455
0.00116263
0.00119984
0.00123627
0.00127199
0.00130709
0.00134161
0.00137561
0.00140911
0.00144214
0.00147472
0.00150685
0.00153854
0.0015698
0.00160062
0.001631
0.00166095
0.00169046
0.00171953
0.00174815
0.00177634
0.00180409
0.00183139
0.00185825
0.00188467
0.00191065
0.00193616
0.00196122
0.00198581
0.00200992
0.00203354
0.00205667
0.00207931
0.00210144
0.00212308
0.00214424
0.00216493
0.0021852
0.00220502
0.0022244
0.00224331
0.00226174
0.00227968
0.00229713
0.00231406
0.00233048
0.00234636
0.00236171
0.0023765
0.00239074
0.00240441
0.00241752
0.00243006
0.00244201
0.00245339
0.00246418
0.00247438
0.00248398
0.00249298
0.00250139
0.0025092
0.00251642
0.00252305
0.0025291
0.00253456
0.00253943
0.0025436
0.00254738
0.00255062
0.00255324
0.00255544
0.00255723
0.00255848
0.0025592
0.00255939
0.00255901
0.00255812
0.00255663
0.00255469
0.00255209
0.00254908
0.00254535
0.00254123
0.00253636
0.00253113
0.00252511
0.00251874
0.00251157
0.00250403
0.00249573
0.00248705
0.00247767
0.00246791
0.00245754
0.00244676
0.00243547
0.00242375
0.00241159
0.00239902
0.00238605
0.00237273
0.00235907
0.00234512
0.00233093
0.00231652
0.00230191
0.00228709
0.002272
0.00225654
0.00224051
0.0022235
0.00220456
0.00218039
0.00214146
6.62004e-10
7.78743e-08
9.46553e-07
4.81432e-06
1.58964e-05
3.38793e-05
5.57073e-05
7.81642e-05
9.76757e-05
0.000112957
0.000124493
0.00013359
0.000139917
0.000143959
0.000146063
0.000146491
0.000145472
0.000143174
0.000139823
0.000135464
0.000130037
0.000124061
0.000117186
0.000109153
0.000100073
8.56195e-05
7.12719e-05
5.76022e-05
4.52545e-05
3.65971e-05
3.30546e-05
3.52396e-05
4.76305e-05
6.88e-05
8.87795e-05
0.000102371
0.000110792
0.00011648
0.000122727
0.000132742
0.000148481
0.000160436
0.000173486
0.000196021
0.000224484
0.000259026
0.000300987
0.000347244
0.000399347
0.000453977
0.000511641
0.000570425
0.000630345
0.00069035
0.000750198
0.000809373
0.000867706
0.000924823
0.000980132
0.00103452
0.0010871
0.00113841
0.00118819
0.00123666
0.00128383
0.00132985
0.00137482
0.00141884
0.001462
0.00150439
0.00154606
0.00158708
0.0016275
0.00166734
0.00170663
0.00174539
0.00178363
0.00182135
0.00185855
0.00189522
0.00193138
0.001967
0.00200209
0.00203664
0.00207065
0.00210411
0.00213704
0.00216941
0.00220124
0.00223252
0.00226326
0.00229345
0.00232308
0.00235216
0.00238068
0.00240862
0.002436
0.00246281
0.00248905
0.00251472
0.00253984
0.00256441
0.00258842
0.0026119
0.00263483
0.00265721
0.00267902
0.00270024
0.00272088
0.00274092
0.00276035
0.00277915
0.00279733
0.00281488
0.00283177
0.00284801
0.00286359
0.00287852
0.00289278
0.00290638
0.00291931
0.00293156
0.00294315
0.00295406
0.0029643
0.00297387
0.00298277
0.002991
0.00299858
0.00300552
0.00301183
0.00301731
0.00302226
0.00302665
0.00303042
0.0030335
0.00303619
0.0030383
0.00303981
0.00304072
0.00304103
0.00304074
0.00303987
0.00303838
0.00303633
0.00303365
0.00303043
0.00302654
0.00302209
0.00301696
0.00301127
0.00300489
0.00299794
0.00299029
0.00298208
0.00297317
0.0029637
0.00295358
0.00294291
0.00293165
0.00291986
0.00290753
0.00289469
0.00288136
0.00286755
0.00285328
0.0028386
0.00282353
0.00280812
0.00279242
0.00277645
0.00276025
0.00274381
0.00272709
0.00271002
0.00269243
0.00267397
0.00265377
0.00262895
0.00259203
2.08616e-09
1.9688e-07
2.48883e-06
1.31461e-05
3.48876e-05
6.28155e-05
9.07851e-05
0.000114425
0.000132646
0.000145862
0.000155008
0.000160435
0.000163149
0.000164061
0.00016367
0.000162239
0.000159918
0.000156773
0.000152702
0.000147656
0.000141752
0.000134998
0.000127022
0.000113196
9.71913e-05
8.28147e-05
6.95398e-05
5.82337e-05
5.10491e-05
5.17765e-05
6.30024e-05
7.96605e-05
0.000102007
0.000117933
0.000129786
0.000138352
0.000146117
0.000156839
0.000173304
0.000182548
0.000195321
0.000217326
0.000244964
0.000279898
0.000321321
0.000369192
0.000422732
0.000479801
0.000540211
0.00060217
0.000665606
0.000729509
0.000793631
0.000857435
0.000920721
0.00098284
0.00104397
0.00110454
0.00116344
0.00122112
0.00127741
0.00133244
0.00138617
0.00143872
0.00149011
0.00154046
0.00158983
0.00163831
0.00168597
0.00173286
0.00177904
0.00182457
0.00186946
0.00191375
0.00195745
0.00200057
0.00204312
0.00208508
0.00212646
0.00216724
0.00220742
0.00224698
0.00228593
0.00232425
0.00236194
0.002399
0.00243543
0.00247121
0.00250637
0.00254089
0.00257477
0.00260803
0.00264064
0.00267261
0.00270395
0.00273464
0.00276469
0.00279409
0.00282285
0.00285096
0.00287842
0.00290524
0.00293143
0.00295698
0.00298191
0.00300619
0.00302981
0.00305278
0.00307508
0.0030967
0.00311763
0.00313787
0.00315742
0.00317626
0.00319441
0.00321185
0.00322858
0.00324459
0.00325989
0.00327446
0.0032883
0.00330143
0.00331383
0.00332551
0.00333647
0.00334671
0.00335624
0.00336507
0.00337319
0.00338066
0.00338744
0.00339334
0.00339871
0.00340347
0.00340751
0.00341092
0.00341387
0.00341617
0.00341783
0.00341887
0.00341928
0.00341908
0.00341827
0.00341683
0.0034148
0.00341216
0.00340896
0.00340516
0.00340075
0.0033957
0.00339002
0.00338369
0.00337672
0.00336909
0.00336082
0.00335187
0.00334231
0.0033321
0.0033213
0.00330988
0.00329789
0.00328532
0.00327221
0.00325856
0.00324439
0.00322972
0.0032146
0.00319904
0.0031831
0.00316682
0.00315024
0.00313338
0.00311627
0.00309889
0.00308117
0.00306301
0.00304414
0.00302384
0.00299989
0.00296624
6.18563e-09
5.15972e-07
6.60011e-06
2.83339e-05
6.0689e-05
9.3746e-05
0.00012094
0.000141581
0.000156609
0.000166521
0.000172143
0.000174822
0.00017549
0.000174699
0.000172855
0.000170186
0.000166742
0.000162375
0.000157182
0.000151303
0.000144752
0.000137287
0.000124021
0.000108349
9.50036e-05
8.48263e-05
7.91557e-05
7.94707e-05
8.12776e-05
9.18145e-05
0.00011232
0.000134864
0.000154514
0.000164551
0.000173954
0.000185248
0.000195678
0.000202456
0.000214888
0.000234598
0.000260211
0.000293419
0.000332934
0.000379263
0.000431426
0.000488616
0.000549433
0.000612513
0.000677344
0.00074305
0.000809353
0.000875714
0.000941874
0.00100723
0.00107177
0.00113598
0.00119902
0.00126113
0.001322
0.00138171
0.00144023
0.00149762
0.00155389
0.00160909
0.00166327
0.0017165
0.00176884
0.00182033
0.00187105
0.00192103
0.00197033
0.00201897
0.00206699
0.00211439
0.00216119
0.00220738
0.00225296
0.00229792
0.00234224
0.00238592
0.00242893
0.00247127
0.00251292
0.00255388
0.00259413
0.00263369
0.00267254
0.00271068
0.00274811
0.00278484
0.00282087
0.0028562
0.00289083
0.00292475
0.00295797
0.00299048
0.0030223
0.0030534
0.00308379
0.00311346
0.00314243
0.0031707
0.00319828
0.00322517
0.00325137
0.00327686
0.00330165
0.00332573
0.00334909
0.00337172
0.00339362
0.00341478
0.0034352
0.00345487
0.00347379
0.00349195
0.00350936
0.00352601
0.0035419
0.00355704
0.00357143
0.00358506
0.00359794
0.00361008
0.00362147
0.00363212
0.00364204
0.00365124
0.00365971
0.00366753
0.00367461
0.00368086
0.00368653
0.00369157
0.00369586
0.00369959
0.00370276
0.00370528
0.00370716
0.00370842
0.00370906
0.00370909
0.00370851
0.00370733
0.00370556
0.0037032
0.00370028
0.00369674
0.00369257
0.00368778
0.00368237
0.00367631
0.00366962
0.00366227
0.00365428
0.00364563
0.00363634
0.00362642
0.00361588
0.00360472
0.00359297
0.00358063
0.00356772
0.00355424
0.00354022
0.00352567
0.00351063
0.00349512
0.00347919
0.00346289
0.00344624
0.0034293
0.00341207
0.00339456
0.00337676
0.00335857
0.00333982
0.00331995
0.00329734
0.00326754
1.59818e-08
1.27158e-06
1.48312e-05
4.82136e-05
8.81587e-05
0.000123019
0.000149109
0.000166399
0.0001771
0.000183084
0.000185455
0.000185116
0.000182939
0.000179641
0.000175656
0.000171145
0.000166092
0.000160498
0.000154245
0.000147348
0.000139518
0.000130026
0.000116057
0.000105663
0.000100009
9.49923e-05
9.5999e-05
0.000105608
0.000122297
0.00014173
0.000161204
0.000178872
0.000193357
0.000203467
0.000211139
0.00021963
0.000231328
0.000248934
0.000272029
0.000302235
0.000338802
0.000382014
0.000431038
0.000485587
0.000544574
0.000606895
0.000671387
0.000737226
0.000803959
0.000871106
0.000938375
0.00100536
0.00107161
0.00113757
0.00120288
0.00126738
0.00133091
0.00139348
0.001455
0.00151548
0.00157491
0.00163333
0.00169075
0.00174722
0.00180278
0.00185748
0.00191136
0.00196448
0.00201686
0.00206856
0.00211961
0.00217005
0.00221989
0.00226915
0.00231784
0.00236593
0.00241339
0.00246023
0.00250643
0.00255195
0.00259678
0.0026409
0.00268428
0.00272693
0.00276883
0.00280998
0.00285039
0.00289009
0.00292905
0.00296723
0.00300465
0.00304131
0.0030772
0.00311233
0.0031467
0.00318031
0.00321316
0.00324525
0.00327659
0.00330719
0.00333705
0.00336618
0.00339456
0.00342221
0.00344911
0.00347527
0.00350068
0.00352534
0.00354925
0.00357239
0.00359478
0.00361639
0.00363723
0.0036573
0.00367659
0.0036951
0.00371284
0.0037298
0.00374599
0.00376141
0.00377606
0.00378995
0.00380308
0.00381545
0.00382708
0.00383796
0.0038481
0.00385752
0.00386621
0.00387425
0.00388153
0.00388806
0.00389397
0.00389923
0.00390375
0.00390776
0.00391115
0.00391391
0.00391605
0.00391758
0.00391852
0.00391887
0.00391865
0.00391785
0.00391649
0.00391457
0.0039121
0.00390906
0.00390545
0.00390124
0.00389645
0.00389105
0.00388504
0.0038784
0.00387114
0.00386326
0.00385475
0.00384563
0.0038359
0.00382557
0.00381464
0.00380312
0.00379103
0.00377835
0.00376511
0.00375132
0.00373702
0.00372221
0.00370696
0.00369128
0.00367523
0.00365883
0.00364211
0.0036251
0.0036078
0.00359016
0.00357207
0.00355309
0.00353185
0.00350549
3.5489e-08
2.92086e-06
2.69395e-05
6.94225e-05
0.000111466
0.000145388
0.000169425
0.000184611
0.000192246
0.000194307
0.000192733
0.000188926
0.000183831
0.000178036
0.00017184
0.000165177
0.000158294
0.000150896
0.000143665
0.000136547
0.000129377
0.00012234
0.000116255
0.000112956
0.000115406
0.000123172
0.000135218
0.000150355
0.0001671
0.000183635
0.000198711
0.000210984
0.0002209
0.00023174
0.000244147
0.000260443
0.000281279
0.000308372
0.000341486
0.000380857
0.000425894
0.000476331
0.000531494
0.000590742
0.00065307
0.000717508
0.00078325
0.000849756
0.000916671
0.00098369
0.00105026
0.0011164
0.00118243
0.00124771
0.00131223
0.00137591
0.00143869
0.00150054
0.00156144
0.00162138
0.00168038
0.00173846
0.00179563
0.00185195
0.00190747
0.00196223
0.00201628
0.00206964
0.00212232
0.00217439
0.00222589
0.00227687
0.00232733
0.00237729
0.00242678
0.00247582
0.00252451
0.00257261
0.00262005
0.00266678
0.00271279
0.00275804
0.00280251
0.00284618
0.00288905
0.00293112
0.00297239
0.00301282
0.00305246
0.00309132
0.00312941
0.00316673
0.00320328
0.00323906
0.00327406
0.00330828
0.00334174
0.00337442
0.00340633
0.00343748
0.00346786
0.00349747
0.0035263
0.00355436
0.00358165
0.00360817
0.00363391
0.00365888
0.00368307
0.00370648
0.00372911
0.00375096
0.00377202
0.0037923
0.00381179
0.00383049
0.00384841
0.00386555
0.00388192
0.00389751
0.00391233
0.00392639
0.0039397
0.00395225
0.00396406
0.00397513
0.00398546
0.00399508
0.00400398
0.00401225
0.00401974
0.00402655
0.00403272
0.00403823
0.00404308
0.00404738
0.00405105
0.00405412
0.00405659
0.00405849
0.00405982
0.0040606
0.00406085
0.00406056
0.00405975
0.00405842
0.00405659
0.00405424
0.00405136
0.00404795
0.00404399
0.00403948
0.0040344
0.00402873
0.00402248
0.00401564
0.00400821
0.0040002
0.00399161
0.00398244
0.00397269
0.00396235
0.00395144
0.00393994
0.00392787
0.00391523
0.00390205
0.00388835
0.00387417
0.00385952
0.00384445
0.00382899
0.00381318
0.00379703
0.00378057
0.0037638
0.00374665
0.0037288
0.0037091
0.00368648
6.77935e-08
6.01256e-06
4.1289e-05
9.25457e-05
0.000137566
0.000169647
0.000189934
0.000200093
0.000203018
0.000201099
0.00019616
0.000189467
0.000181864
0.000173666
0.000165567
0.000157408
0.000149864
0.000143133
0.000137843
0.000133527
0.000130859
0.000130785
0.000134017
0.0001407
0.000150092
0.000161928
0.000175371
0.000189568
0.000203644
0.000216342
0.000227335
0.000239376
0.000253338
0.000269369
0.000288785
0.00031319
0.000342942
0.000378383
0.000419145
0.000464975
0.000515392
0.000569989
0.000628178
0.000689271
0.000752446
0.000816957
0.000882231
0.00094787
0.00101353
0.00107869
0.0011438
0.00120845
0.00127249
0.00133577
0.00139821
0.00145976
0.00152041
0.00158016
0.00163903
0.00169702
0.00175417
0.00181046
0.00186589
0.00192058
0.0019746
0.00202799
0.00208082
0.0021332
0.00218537
0.00223719
0.00228855
0.00233944
0.00238988
0.00243988
0.00248946
0.00253859
0.00258718
0.00263525
0.00268275
0.00272962
0.00277585
0.00282138
0.00286617
0.00291021
0.00295347
0.00299595
0.00303765
0.0030786
0.00311879
0.00315821
0.00319687
0.00323475
0.00327185
0.00330818
0.00334371
0.00337846
0.00341241
0.00344557
0.00347794
0.00350951
0.00354029
0.00357027
0.00359945
0.00362784
0.00365543
0.00368223
0.00370824
0.00373346
0.00375789
0.00378153
0.00380438
0.00382644
0.00384772
0.0038682
0.0038879
0.00390681
0.00392494
0.00394229
0.00395887
0.00397467
0.00398971
0.004004
0.00401754
0.00403034
0.0040424
0.00405374
0.00406435
0.00407425
0.00408347
0.00409201
0.00409985
0.00410701
0.00411354
0.00411942
0.00412469
0.00412938
0.00413345
0.00413693
0.00413985
0.00414223
0.00414407
0.0041454
0.00414624
0.00414658
0.00414645
0.00414586
0.0041448
0.00414328
0.0041413
0.00413884
0.00413589
0.00413244
0.00412846
0.00412395
0.0041189
0.0041133
0.00410716
0.00410048
0.00409325
0.00408547
0.00407713
0.00406823
0.00405875
0.00404869
0.00403804
0.00402682
0.00401504
0.00400271
0.00398987
0.00397652
0.00396271
0.00394845
0.00393379
0.00391876
0.00390338
0.00388766
0.0038716
0.00385496
0.00383672
0.00381731
1.1014e-07
1.02024e-05
5.37102e-05
0.000109334
0.000156232
0.000187851
0.000205036
0.000211703
0.000211295
0.000206483
0.000199234
0.000190597
0.000181893
0.000173395
0.000166019
0.000159616
0.000154675
0.000151609
0.000150261
0.000150827
0.000153612
0.000158742
0.000166125
0.000175435
0.000186187
0.000197994
0.000210241
0.000222105
0.000233324
0.00024551
0.000260189
0.000276786
0.000295395
0.000317886
0.000344782