/*--------------------------------*- C++ -*----------------------------------*\
  =========                 |
  \\      /  F ield         | OpenFOAM: The Open Source CFD Toolbox
   \\    /   O peration     | Website:  https://openfoam.org
    \\  /    A nd           | Version:  13
     \\/     M anipulation  |
\*---------------------------------------------------------------------------*/
FoamFile
{
    format      ascii;
    class       volScalarField;
    location    "700";
    object      omega;
}
// * * * * * * * * * * * * * * * * * * * * * * * * * * * * * * * * * * * * * //

dimensions      [0 0 -1 0 0 0 0];

internalField   nonuniform List<scalar> 
12225
(
31477.7
31477.7
46399
40371.9
31477.7
48878.9
42602.6
45213
39744
38195.2
31477.7
40299.2
42355.8
40995.4
44250
46950
46035.7
40603.9
8860.48
17484.6
19796.2
17717
18477.5
18756.3
19247
19560.3
19981.2
19840.9
18569
19492.2
19668.4
19854.3
20181
20915.5
20580.9
19820.2
2321.3
3917.98
5286.65
7294.74
10161.3
8331.91
8287.91
9465.97
10541.3
8938.73
9297.67
9322.85
9371.86
9319.14
9335.63
9319.55
9327.54
9310.68
0.427437
2795.45
7387.29
4134.75
6043.69
5445.25
8643.21
6440.38
8357.51
8890.13
8907.63
8515.57
8219.09
7886.15
7290.93
6779.92
6299.48
6007.89
680.522
1236.1
2050.74
1357.3
3399.33
2223.95
4290.43
3541.57
4466.89
4592.82
4341.99
4030.93
3852.36
3682.22
3721.18
3472.22
3539.76
3344.94
378.906
1532.74
1639.25
1681.34
1527.74
1721.71
1935.5
2717.56
3075.18
3075.85
3036.9
2744.85
2546.38
2524.73
2432.54
2376.08
2331.38
2294.89
390.366
500.328
640.175
727.861
1110.78
1374.53
1262.03
1416.37
1449.3
1488.49
1514.11
1551.52
1555.06
1538.59
1506.09
1492.39
1502.66
1518.27
419.586
456.574
513.076
570.934
650.636
728.336
821.523
822.392
851.231
894.867
949.161
993.901
1010.12
1044.04
1118.08
1067.04
1081.67
1156.24
432.988
432.687
439.389
478.308
509.991
537.612
563.75
588.316
611.603
638.568
669.564
702.931
727.385
753.995
774.967
794.254
817.849
807.009
438.679
434.111
431.225
437.879
449.767
459.715
469.173
479.126
490.982
506.591
522.453
540.606
556.244
571.547
582.893
593.349
602.571
605.477
438.975
436.798
432.828
431.745
432.388
434.184
436.191
438.91
442.688
449.615
456.493
464.883
472.176
479.71
485.44
491.071
494.646
498.871
438.957
437.04
434.108
432.083
430.139
428.929
427.798
427.619
428.199
430.132
432.426
435.545
438.525
441.693
444.033
446.523
448.146
449.811
438.97
436.882
434.557
432.571
430.548
428.656
427.021
425.309
424.314
423.388
422.265
422.843
423.946
423.538
423.909
424.68
425.132
425.752
438.987
436.805
434.644
432.66
430.727
428.906
427.133
425.457
423.944
422.584
421.338
420.342
419.447
418.732
417.943
417.349
416.562
416.078
438.997
436.781
434.657
432.657
430.746
428.94
427.205
425.561
423.99
422.52
421.116
419.822
418.581
417.443
416.331
415.313
414.297
413.377
439
436.774
434.657
432.65
430.741
428.93
427.203
425.563
423.999
422.513
421.094
419.748
418.462
417.242
416.074
414.966
413.902
412.893
439.001
436.772
434.655
432.646
430.736
428.921
427.194
425.551
423.986
422.497
421.076
419.724
418.433
417.202
416.027
414.907
413.836
412.815
439
436.769
434.65
432.638
430.726
428.908
427.18
425.534
423.968
422.476
421.054
419.699
418.406
417.173
415.996
414.873
413.801
412.777
439
436.771
434.653
432.641
430.73
428.912
427.184
425.538
423.972
422.479
421.057
419.701
418.408
417.174
415.997
414.873
413.8
412.776
439.001
436.772
434.655
432.645
430.734
428.917
427.19
425.545
423.979
422.487
421.065
419.71
418.417
417.184
416.008
414.884
413.812
412.788
439
436.773
434.658
432.648
430.739
428.924
427.198
425.554
423.991
422.499
421.08
419.726
418.436
417.205
416.032
414.911
413.844
412.823
438.99
436.786
434.664
432.656
430.749
428.936
427.216
425.575
424.023
422.535
421.132
419.787
418.52
417.304
416.163
415.068
414.046
413.062
438.906
436.939
434.711
432.713
430.787
429.004
427.32
425.736
424.271
422.857
421.584
420.357
419.266
418.219
417.316
416.44
415.727
415.014
438.783
438.531
435.301
433.516
431.384
429.82
428.509
427.484
426.655
425.905
425.481
425.096
425.024
425.07
425.275
425.567
426.222
426.751
444.201
455.704
443.082
445.678
439.381
438.052
439.003
440.614
443.159
445.517
448.936
452.013
456.064
459.664
464.191
468.097
472.976
476.919
492.265
596.275
532.988
515.721
491.492
490.511
498.923
509.554
523.869
536.92
552.528
565.96
581.596
594.66
609.966
622.334
637.123
648.308
837.948
886.253
1047.72
979.911
824.389
783.499
796.606
830.016
877.18
919.64
969.396
1010.24
1056.84
1093.58
1136.56
1169.08
1208.6
1236.4
2693.95
3745.96
2769.04
4035.62
3058.82
2549.24
2415.68
2466.01
2565.31
2661.47
2787.35
2885.86
2995.81
3080.74
3179.53
3254.68
3343.91
3407.83
12088.8
17588.4
19050.7
16303.4
13479.3
11847.3
10626
10909.2
10503.1
10186.6
10197.7
10093.4
9993.81
9922.48
9872.39
9832.43
9812.37
9806.26
18117.5
22537.6
25046.6
26279.4
26763.8
26750.4
26648.6
26396.7
26077.7
25745.7
25423
25119.8
24841.5
24589.7
24361.9
24160.4
23979.5
23818.6
11463.2
2514.24
2516.41
2518.61
2520.83
2523.07
2525.32
2527.6
2529.9
2532.22
2534.57
2536.93
2539.31
2541.72
2544.15
2546.6
2549.08
2551.57
2554.09
2556.64
2559.2
2561.79
2564.41
2567.05
2569.71
2572.4
2575.12
2577.86
2580.62
2583.41
2586.23
2589.08
2591.95
2594.85
2597.77
2600.73
2603.71
2606.72
2609.76
2612.82
2615.92
2619.05
2622.2
2625.39
2628.61
2631.86
2635.14
2638.45
2641.79
2645.17
2648.58
2652.02
2655.5
2659.01
2662.55
2666.13
2669.74
2673.39
3164.02
3246.4
2684.56
3310.18
3455.02
2696.06
3391.75
3424.32
3521.8
3603.1
3676.77
3754.26
3824.24
3895.47
3962.55
4029.4
4093.67
4157.18
4218.88
4279.64
4338.99
4397.38
4454.56
4510.82
4565.99
4620.29
4673.57
4726.01
4777.48
4828.14
4877.89
4926.87
4974.97
5022.2
5068.51
5113.88
5158.28
5201.67
5244.02
5285.25
5325.34
5364.22
5401.94
5438.52
5474.23
5509.47
5543.5
5576.67
5608.9
5640.21
5670.57
5699.99
5728.43
5755.91
5782.37
5807.87
5832.33
5855.81
5878.23
5899.66
5920.03
5939.4
5957.71
5974.98
5991.15
6006.28
6020.3
6033.31
6045.19
6056.03
6065.66
6074.04
6081.17
6088.71
6095.61
6101.11
6105.19
6108.63
6111.23
6113.36
6114.25
6113.41
6111.46
6108.52
6104.75
6099.72
6094.17
6087.23
6079.97
6071.19
6062.27
6051.69
6041.17
6028.84
6016.79
6002.77
5989.29
5973.75
5958.89
5941.93
5925.5
5907.1
5889.2
5870.27
5851.17
5831.72
5811.94
5792.01
5771.87
5751.77
5731.65
5711.78
5692
5672.58
5653.37
5634.38
5615.17
5595.43
5573.23
5545.88
5509.28
5373.28
11463.2
1992.47
985.592
796.784
679.609
609.321
613.816
611.902
600.343
580.585
557.627
534.416
513.624
496.398
484.569
476.202
475.421
478.939
492.25
537.487
611.394
704.935
810.516
917.996
1019.61
1101.83
1161.75
1176.41
1157.85
1104.85
1002.27
878.472
725.388
615.723
543.575
485.514
453.39
447.236
454.591
474.196
506.202
537.622
572.282
644.686
760.122
956.084
1271.55
1593.69
1821.22
1965.54
2038.27
2059.95
2050.46
2003.19
1956.51
1906.4
1862.28
1806.95
1778.22
1738.26
1688.01
1686.7
1663.94
1631.51
1660.27
1645.23
1646.59
1646.25
1647.89
1651.77
1656.05
1661.77
1667.79
1674.66
1681.74
1689.32
1697.05
1705.04
1713.14
1721.38
1729.67
1738.03
1746.41
1754.8
1763.19
1771.55
1779.86
1788.12
1796.3
1804.38
1812.33
1820.11
1827.73
1835.15
1842.39
1849.42
1856.26
1862.92
1869.45
1875.96
1882.62
1889.75
1897.9
1906.91
1915.17
1923.44
1931.38
1939.13
1946.63
1953.89
1960.92
1967.71
1974.27
1980.58
1986.66
1992.51
1998.12
2003.5
2008.64
2013.55
2018.23
2022.66
2026.86
2030.83
2034.57
2038.09
2041.39
2044.46
2047.32
2049.97
2052.46
2054.88
2057.07
2059.02
2060.75
2062.32
2063.64
2064.62
2064.9
2064.42
2063.62
2062.62
2061.45
2060.16
2057.66
2056.44
2053.3
2051.81
2048.04
2046.26
2041.92
2039.86
2035.04
2032.64
2027.43
2024.62
2019.17
2015.83
2010.23
2006.16
2000.69
1995.85
1990.58
1985.24
1979.81
1974.34
1968.84
1963.33
1957.83
1952.38
1946.97
1941.64
1936.39
1931.29
1926.39
1921.77
1917.5
1914.2
1911.77
1918.01
11463.2
2007.67
806.047
620.438
652.204
657.214
632.569
581.988
524.518
470.085
421.501
381.165
349.21
323.939
304.371
289.358
278.486
270.963
266.922
269.011
275.323
291.529
318.896
356.985
407.032
463.197
524.315
576.682
616.332
632.54
623.593
597.869
544.575
482.997
419.5
373.514
366.347
375.911
399.906
438.407
511.785
620.822
766.109
957.033
1135.82
1286.05
1417.67
1519.74
1547.13
1547.97
1503.19
1449.12
1387.4
1329.22
1279.08
1235.67
1199.46
1166.39
1142.41
1126.33
1110.45
1103.92
1099.41
1090.49
1091.61
1090.12
1090.2
1091.6
1093.66
1096.39
1099.5
1103.05
1106.85
1110.92
1115.14
1119.54
1124.05
1128.65
1133.33
1138.06
1142.84
1147.64
1152.46
1157.28
1162.1
1166.9
1171.67
1176.41
1181.1
1185.73
1190.3
1194.79
1199.21
1203.56
1207.84
1212.06
1216.22
1220.37
1224.51
1228.7
1232.98
1237.42
1242
1246.52
1250.83
1255.06
1259.13
1263.07
1266.88
1270.55
1274.08
1277.47
1280.73
1283.85
1286.84
1289.68
1292.39
1294.96
1297.4
1299.69
1301.85
1303.86
1305.73
1307.47
1309.07
1310.53
1311.86
1313.06
1314.12
1315.06
1315.89
1316.6
1317.17
1317.59
1317.86
1317.99
1317.93
1317.65
1317.12
1316.36
1315.43
1314.36
1313.11
1311.84
1310.12
1308.69
1306.62
1304.97
1302.56
1300.71
1297.97
1295.93
1292.9
1290.64
1287.35
1284.83
1281.38
1278.56
1275
1271.84
1268.27
1264.81
1261.22
1257.59
1253.93
1250.24
1246.54
1242.84
1239.14
1235.47
1231.83
1228.24
1224.73
1221.37
1218.23
1215.45
1213.24
1212.22
1213.13
1222.96
11463.2
2036.91
991.04
935.665
871.486
750.299
639.11
536.745
454.811
393.48
347.365
311.183
282.89
260.974
244.134
231.234
221.533
214.448
209.654
207.168
207.505
210.388
216.095
227.658
245.76
270.261
301.83
335.702
369.172
394.77
413.336
412.527
404.057
377.362
379.027
416.031
499.103
567.03
626.772
698.489
797.281
930.523
1053.09
1131.84
1197.92
1255.94
1276.41
1248.52
1199.63
1157.19
1102.67
1057.32
1015.09
980.985
952.822
930.358
912.366
897.545
886.984
880.028
874.708
871.685
870.531
869.367
869.674
870.763
872.385
874.532
877.024
879.825
882.852
886.084
889.468
892.988
896.612
900.328
904.116
907.965
911.862
915.798
919.762
923.745
927.738
931.734
935.724
939.701
943.657
947.586
951.483
955.344
959.165
962.938
966.666
970.349
973.99
977.595
981.169
984.719
988.257
991.789
995.321
998.85
1002.34
1005.73
1009.01
1012.19
1015.26
1018.23
1021.09
1023.84
1026.49
1029.02
1031.45
1033.76
1035.96
1038.05
1040.03
1041.89
1043.63
1045.26
1046.77
1048.17
1049.44
1050.6
1051.64
1052.56
1053.36
1054.04
1054.61
1055.06
1055.4
1055.63
1055.76
1055.73
1055.56
1055.26
1054.8
1054.19
1053.42
1052.49
1051.43
1050.25
1048.92
1047.51
1045.88
1044.26
1042.37
1040.52
1038.37
1036.32
1033.92
1031.67
1029.05
1026.59
1023.78
1021.12
1018.15
1015.29
1012.18
1009.13
1005.93
1002.72
999.456
996.155
992.828
989.481
986.125
982.768
979.42
976.094
972.808
969.582
966.448
963.453
960.67
958.224
956.285
955.334
956.125
962.337
11463.2
2290.85
1416.87
1146.56
914.965
712.455
551.361
441.73
366.069
312.797
274.819
247.441
227.524
212.724
201.626
193.279
187.035
182.466
179.361
177.609
177.769
178.875
181.497
186.943
195.688
208.521
226.471
248.16
271.394
292.957
308.476
323.249
345.78
408.564
506.162
591.545
659.751
729.755
807.617
883.262
948.591
1004.5
1051.68
1085.23
1093.21
1066.79
1017.33
982.254
938.969
903.066
868.389
841.092
817.56
799.133
784.376
773.051
764.357
757.839
753.555
751.135
750.16
749.779
750.417
751.597
753.431
755.672
758.238
761.075
764.119
767.338
770.698
774.179
777.761
781.429
785.17
788.975
792.832
796.734
800.673
804.64
808.627
812.627
816.633
820.637
824.631
828.611
832.57
836.501
840.401
844.268
848.096
851.883
855.626
859.326
862.983
866.598
870.172
873.706
877.2
880.65
884.05
887.392
890.66
893.835
896.914
899.901
902.79
905.581
908.271
910.861
913.347
915.729
918.005
920.176
922.239
924.192
926.035
927.765
929.38
930.88
932.262
933.525
934.668
935.692
936.595
937.377
938.038
938.576
938.991
939.281
939.447
939.492
939.464
939.254
938.908
938.425
937.797
937.029
936.119
935.071
933.894
932.596
931.164
929.625
927.931
926.153
924.209
922.2
920.02
917.788
915.384
912.942
910.329
907.689
904.883
902.053
899.078
896.076
892.956
889.8
886.566
883.292
879.972
876.621
873.244
869.851
866.448
863.048
859.659
856.298
852.98
849.727
846.568
843.553
840.736
838.214
836.122
834.795
834.9
838.043
11463.2
2853.82
1680.78
1175.7
818.623
579.16
438.19
350.797
297.388
263.069
238.681
220.065
205.219
193.334
183.838
176.319
170.548
166.355
163.563
162.145
162.242
163.241
165.637
169.87
176.148
185.363
198.596
216.067
237.938
266.697
310.223
365.22
453.888
556.291
640.286
708.256
771.686
825.993
868.106
903.615
937.068
956.041
959.006
931.344
899.495
867.793
832.973
803.989
775.283
752.189
731.964
715.965
702.847
692.764
685.084
679.554
675.729
673.437
672.714
672.661
673.652
675.202
677.357
679.913
682.837
686.024
689.421
692.988
696.694
700.514
704.433
708.436
712.514
716.656
720.856
725.106
729.399
733.728
738.084
742.462
746.852
751.248
755.642
760.028
764.397
768.744
773.062
777.347
781.594
785.8
789.962
794.074
798.136
802.145
806.101
810.003
813.85
817.639
821.368
825.031
828.621
832.134
835.562
838.898
842.139
845.285
848.333
851.281
854.126
856.867
859.5
862.025
864.439
866.741
868.93
871.002
872.957
874.79
876.5
878.086
879.543
880.872
882.071
883.139
884.074
884.877
885.545
886.078
886.475
886.732
886.843
886.875
886.743
886.453
886.017
885.437
884.709
883.838
882.822
881.666
880.375
878.953
877.394
875.708
873.882
871.935
869.845
867.648
865.315
862.879
860.312
857.653
854.868
851.999
849.011
845.947
842.777
839.538
836.212
832.825
829.372
825.869
822.323
818.743
815.137
811.514
807.883
804.255
800.642
797.059
793.522
790.052
786.676
783.433
780.371
777.566
775.121
773.272
772.451
773.477
11463.2
3352.95
1733.62
1020.8
643.413
451.295
348.972
291.215
255.376
231.25
213.777
200.358
189.761
180.897
173.402
167.149
162.145
158.387
156.04
155.156
155.656
157.529
161.254
167.001
175.526
187.341
203.639
227.889
265.317
321.165
405.266
503.017
586.609
654.052
713.091
760.498
796.173
824.682
847.791
857.64
855.625
833.182
810.357
784.31
758.825
734.043
710.477
690.391
672.544
658.094
646.051
636.597
629.254
623.898
620.208
618.22
617.467
617.433
618.536
620.337
622.786
625.7
629.025
632.658
636.543
640.623
644.858
649.221
653.688
658.245
662.879
667.582
672.347
677.167
682.036
686.949
691.898
696.875
701.875
706.887
711.904
716.918
721.92
726.903
731.86
736.784
741.668
746.507
751.296
756.033
760.713
765.332
769.888
774.378
778.801
783.155
787.439
791.65
795.788
799.848
803.828
807.721
811.518
815.218
818.817
822.314
825.705
828.989
832.161
835.22
838.162
840.983
843.682
846.254
848.694
851.001
853.176
855.215
857.116
858.876
860.494
861.967
863.295
864.476
865.508
866.391
867.124
867.706
868.136
868.405
868.521
868.534
868.363
868.028
867.533
866.882
866.075
865.112
863.996
862.731
861.318
859.762
858.06
856.217
854.228
852.099
849.817
847.393
844.832
842.146
839.33
836.399
833.346
830.186
826.912
823.54
820.068
816.509
812.866
809.15
805.368
801.529
797.644
793.723
789.773
785.805
781.83
777.858
773.902
769.978
766.103
762.296
758.583
754.995
751.573
748.378
745.487
743.067
741.341
740.753
11463.2
3505.98
1546.24
809.575
510.214
376.295
308.847
268.697
241.748
222.715
208.199
196.443
186.502
178.022
170.873
165.03
160.609
157.81
156.6
156.856
158.677
162.521
168.686
177.946
192.75
215.524
248.589
301.244
375.506
456.548
527.89
589.328
643.291
689.102
725.229
754.25
773.219
780.195
773.908
757.208
739.992
719.549
700.159
680.559
661.888
644.342
628.632
615.304
604.026
594.935
587.696
582.251
578.387
576.145
575.239
575.17
576.173
577.954
580.497
583.636
587.277
591.313
595.677
600.3
605.132
610.131
615.265
620.509
625.848
631.267
636.757
642.309
647.917
653.575
659.278
665.018
670.79
676.583
682.39
688.201
694.007
699.798
705.565
711.299
716.993
722.64
728.232
733.765
739.232
744.63
749.956
755.205
760.373
765.46
770.463
775.381
780.212
784.954
789.608
794.173
798.642
803.006
807.262
811.406
815.437
819.351
823.147
826.82
830.368
833.787
837.074
840.225
843.236
846.105
848.83
851.408
853.836
856.111
858.23
860.19
861.988
863.623
865.093
866.398
867.535
868.504
869.303
869.933
870.392
870.668
870.779
870.751
870.53
870.129
869.553
868.804
867.883
866.793
865.535
864.113
862.53
860.787
858.885
856.827
854.611
852.24
849.706
847.027
844.204
841.24
838.139
834.907
831.548
828.067
824.468
820.758
816.942
813.03
809.03
804.95
800.798
796.585
792.322
788.018
783.684
779.329
774.965
770.605
766.262
761.952
757.692
753.502
749.405
745.428
741.606
737.987
734.631
731.659
729.15
727.2
11463.2
3370.06
1280.23
654.148
432.392
335.57
284.942
255.087
235.081
219.541
207.123
196.906
188.331
181.072
175.109
170.574
167.736
166.723
167.805
170.98
176.898
186.731
201.268
222.642
255.806
302.146
360.515
422.291
479.543
531.879
578.362
619.349
653.993
683.712
704.124
711.456
708.113
695.673
682.071
666.323
651.263
636.114
621.691
607.567
594.26
582.139
571.604
562.791
555.593
549.981
545.826
543.095
541.792
541.477
542.157
543.753
546.183
549.318
553.079
557.366
562.096
567.19
572.586
578.227
584.067
590.07
596.206
602.454
608.799
615.225
621.719
628.274
634.881
641.531
648.217
654.932
661.675
668.427
675.181
681.925
688.65
695.344
701.998
708.602
715.147
721.626
728.027
734.339
740.564
746.705
752.757
758.716
764.58
770.345
776.01
781.574
787.034
792.388
797.635
802.768
807.785
812.682
817.455
822.101
826.618
831.003
835.254
839.366
843.337
847.161
850.835
854.355
857.716
860.917
863.953
866.822
869.521
872.045
874.392
876.559
878.541
880.339
881.95
883.373
884.608
885.652
886.505
887.168
887.638
887.901
887.987
887.895
887.598
887.104
886.416
885.537
884.468
883.212
881.772
880.151
878.351
876.375
874.225
871.902
869.407
866.742
863.908
860.908
857.748
854.433
850.965
847.354
843.603
839.718
835.703
831.568
827.318
822.963
818.513
813.976
809.36
804.678
799.94
795.157
790.34
785.501
780.651
775.805
770.978
766.187
761.447
756.78
752.207
747.751
743.444
739.326
735.439
731.878
728.685
725.663
11463.2
2976.02
1039.02
565.618
400.451
323.056
280.438
254.019
236.463
223.849
213.965
205.782
198.975
193.555
189.799
188.242
189.098
192.997
199.722
209.589
224.058
244.869
273.699
310.85
353.155
398.007
442.544
484.555
523.181
558.276
588.891
616.198
638.375
648.32
649.358
642.432
632.638
620.582
608.836
597.238
586.243
575.461
565.003
554.893
545.509
537.172
530.098
524.347
519.892
516.695
514.853
514.17
514.359
515.581
517.704
520.651
524.34
528.682
533.6
539.018
544.865
551.077
557.597
564.37
571.351
578.503
585.797
593.21
600.736
608.349
616.029
623.763
631.541
639.35
647.173
654.987
662.751
670.512
678.267
686.007
693.717
701.384
708.997
716.547
724.024
731.419
738.724
745.935
753.045
760.039
766.916
773.672
780.303
786.81
793.189
799.441
805.564
811.557
817.418
823.144
828.735
834.186
839.496
844.66
849.676
854.542
859.255
863.81
868.205
872.433
876.49
880.371
884.073
887.592
890.924
894.065
897.013
899.764
902.313
904.657
906.793
908.719
910.435
911.94
913.231
914.309
915.173
915.823
916.256
916.461
916.471
916.267
915.845
915.206
914.354
913.29
912.018
910.539
908.859
906.98
904.905
902.638
900.179
897.531
894.697
891.677
888.473
885.09
881.532
877.802
873.906
869.852
865.645
861.292
856.799
852.175
847.428
842.569
837.606
832.549
827.408
822.193
816.917
811.591
806.227
800.838
795.439
790.045
784.671
779.335
774.054
768.848
763.738
758.745
753.898
749.229
744.773
740.602
736.728
732.709
11463.2
2511.88
872.617
501.113
371.173
311.33
278.19
258.332
245.134
235.55
228.172
222.478
218.499
216.793
217.413
221.264
228.657
238.83
251.646
269.075
291.575
318.585
349.087
381.624
414.63
447.022
477.941
506.677
532.547
556.402
577.861
590.395
594.094
592.536
587.358
579.417
570.82
562.129
553.908
545.946
538.185
530.484
522.943
515.752
509.212
503.565
498.957
495.442
493.057
491.913
491.679
492.437
494.141
496.762
500.233
504.489
509.455
515.058
521.226
527.894
534.999
542.491
550.333
558.446
566.785
575.309
583.981
592.752
601.549
610.395
619.315
628.299
637.333
646.399
655.474
664.545
673.614
682.65
691.647
700.595
709.471
718.263
726.964
735.564
744.058
752.433
760.68
768.789
776.751
784.566
792.232
799.748
807.112
814.324
821.383
828.289
835.042
841.643
848.089
854.381
860.516
866.492
872.304
877.95
883.428
888.735
893.867
898.821
903.592
908.174
912.563
916.754
920.741
924.52
928.089
931.442
934.577
937.489
940.174
942.627
944.847
946.831
948.579
950.09
951.364
952.399
953.196
953.756
954.07
954.146
953.992
953.604
952.978
952.116
951.021
949.695
948.142
946.365
944.368
942.155
939.73
937.096
934.256
931.211
927.964
924.518
920.876
917.04
913.014
908.804
904.415
899.853
895.127
890.244
885.211
880.038
874.736
869.313
863.782
858.149
852.425
846.622
840.752
834.826
828.859
822.865
816.86
810.863
804.889
798.954
793.079
787.281
781.582
776.002
770.566
765.304
760.244
755.444
750.908
745.982
11463.2
2154.9
809.122
487.535
368.597
313.85
285.897
269.673
259.436
252.599
248.031
245.765
245.426
247.8
253.121
261.591
272.779
286.297
302.925
322.564
344.587
368.183
392.581
417.071
441.101
463.853
485.041
505.204
523.965
537.516
543.372
544.727
543.956
540.303
535.251
529.536
523.825
518.235
512.786
507.344
501.868
496.386
491.056
486.097
481.752
478.209
475.579
474.065
473.544
473.937
475.317
477.644
480.882
484.995
489.944
495.714
502.192
509.303
516.983
525.166
533.775
542.71
551.864
561.314
571.04
581.007
591.178
601.522
612.033
622.663
633.359
644.088
654.83
665.564
676.238
686.826
697.312
707.673
717.896
727.978
737.93
747.751
757.441
766.999
776.421
785.695
794.806
803.741
812.492
821.054
829.432
837.625
845.636
853.464
861.111
868.577
875.863
882.972
889.905
896.66
903.238
909.634
915.846
921.87
927.703
933.344
938.789
944.033
949.072
953.9
958.511
962.899
967.06
970.988
974.681
978.133
981.341
984.301
987.007
989.457
991.645
993.571
995.236
996.639
997.778
998.654
999.269
999.618
999.706
999.532
999.104
998.42
997.481
996.289
994.846
993.153
991.216
989.039
986.628
983.986
981.118
978.026
974.714
971.184
967.44
963.485
959.322
954.955
950.388
945.625
940.672
935.537
930.226
924.749
919.116
913.338
907.424
901.386
895.232
888.973
882.616
876.175
869.661
863.086
856.467
849.821
843.166
836.52
829.9
823.324
816.81
810.377
804.044
797.834
791.771
785.882
780.189
774.743
769.558
763.79
11463.2
1885.41
739.239
467.377
367.097
321.133
297.538
284.402
276.736
272.597
271.029
271.368
274.093
279.307
287.03
297.044
309.092
323.193
339.114
356.336
374.382
392.696
410.82
428.305
445.25
461.832
477.408
489.891
497.291
500.944
502.383
502.422
500.855
498.265
495.194
491.912
488.568
485.147
481.628
477.993
474.297
470.659
467.26
464.3
461.969
460.532
460.005
460.379
461.832
464.278
467.652
471.926
477.066
483.021
489.703
496.933
504.83
513.407
522.617
532.401
542.697
553.467
564.691
576.279
588.186
600.373
612.791
625.391
638.148
651.001
663.848
676.62
689.255
701.701
713.943
725.958
737.726
749.242
760.511
771.553
782.393
793.046
803.526
813.845
824.007
833.997
843.794
853.373
862.721
871.829
880.708
889.368
897.812
906.043
914.064
921.875
929.481
936.885
944.091
951.099
957.91
964.52
970.926
977.125
983.115
988.892
994.453
999.794
1004.91
1009.79
1014.44
1018.84
1022.98
1026.88
1030.52
1033.89
1036.99
1039.82
1042.38
1044.66
1046.64
1048.34
1049.76
1050.89
1051.73
1052.28
1052.56
1052.54
1052.24
1051.66
1050.81
1049.68
1048.28
1046.62
1044.69
1042.49
1040.04
1037.34
1034.39
1031.2
1027.78
1024.12
1020.22
1016.11
1011.76
1007.2
1002.43
997.44
992.245
986.849
981.257
975.478
969.514
963.379
957.086
950.647
944.07
937.364
930.54
923.606
916.572
909.45
902.249
894.984
887.674
880.338
872.997
865.668
858.369
851.115
843.929
836.826
829.826
822.954
816.234
809.692
803.347
797.24
791.416
784.856
11463.2
1879.59
737.774
470.437
375.163
332.722
311.809
300.795
295.117
292.745
292.387
294.49
298.746
305.058
313.202
322.89
333.91
346.036
358.974
372.374
385.876
399.13
412.338
425.633
438.072
448.283
455.646
460.846
464.615
466.757
467.742
468.039
467.704
466.883
465.762
464.418
462.89
461.195
459.373
457.501
455.717
454.228
453.312
452.968
453.287
454.457
456.506
459.352
462.839
467.083
472.27
478.422
485.517
493.516
502.381
512.135
522.689
533.998
545.997
558.608
571.762
585.409
599.497
613.942
628.687
643.711
658.942
674.254
689.536
704.699
719.688
734.429
748.846
762.875
776.474
789.619
802.302
814.533
826.348
837.804
849.002
859.963
870.723
881.322
891.777
902.064
912.141
921.969
931.52
940.754
949.72
958.432
966.9
975.128
983.12
990.881
998.415
1005.73
1012.83
1019.72
1026.39
1032.86
1039.11
1045.14
1050.96
1056.54
1061.9
1067.03
1071.91
1076.55
1080.93
1085.06
1088.91
1092.5
1095.81
1098.84
1101.58
1104.03
1106.19
1108.07
1109.63
1110.88
1111.83
1112.47
1112.8
1112.82
1112.54
1111.94
1111.05
1109.86
1108.38
1106.62
1104.57
1102.24
1099.64
1096.77
1093.65
1090.27
1086.64
1082.76
1078.64
1074.28
1069.68
1064.85
1059.79
1054.52
1049.02
1043.31
1037.39
1031.28
1024.96
1018.46
1011.77
1004.92
997.908
990.754
983.463
976.042
968.502
960.851
953.1
945.259
937.337
929.348
921.318
913.268
905.216
897.18
889.176
881.222
873.339
865.543
857.852
850.297
842.903
835.695
828.69
821.917
815.462
808.153
11463.2
1837.56
729.167
474.936
385.328
345.868
326.536
316.473
311.466
309.548
309.436
311.934
316.284
322.27
329.52
337.71
346.645
356.134
365.963
375.907
385.981
396.298
405.706
413.718
420.447
426.13
431.002
434.971
438.254
440.929
443.169
445.121
446.901
448.355
449.533
450.477
451.24
451.882
452.484
453.128
453.889
454.757
455.798
457.494
460.059
463.712
468.611
474.574
481.644
489.805
499.025
509.304
520.615
532.885
546.052
560.081
574.89
590.489
606.734
623.463
640.574
657.984
675.62
693.404
711.256
729.062
746.755
764.302
781.625
798.634
815.236
831.322
846.781
861.523
875.514
888.765
901.298
913.138
924.35
935.05
945.602
955.912
966.017
976.031
986
995.847
1005.49
1014.87
1023.97
1032.78
1041.31
1049.56
1057.52
1065.21
1072.63
1079.79
1086.7
1093.38
1099.82
1106.04
1112.04
1117.83
1123.41
1128.76
1133.89
1138.8
1143.47
1147.92
1152.12
1156.07
1159.77
1163.2
1166.37
1169.25
1171.86
1174.16
1176.17
1177.88
1179.3
1180.44
1181.24
1181.71
1181.85
1181.72
1181.22
1180.39
1179.27
1177.83
1176.09
1174.04
1171.69
1169.05
1166.12
1162.91
1159.41
1155.66
1151.66
1147.39
1142.88
1138.11
1133.1
1127.85
1122.37
1116.66
1110.72
1104.57
1098.2
1091.63
1084.85
1077.88
1070.71
1063.37
1055.88
1048.25
1040.47
1032.55
1024.5
1016.32
1008.02
999.609
991.105
982.515
973.845
965.113
956.349
947.57
938.795
930.039
921.317
912.649
904.059
895.557
887.174
878.936
870.868
862.994
855.33
847.89
840.812
832.795
11463.7
1818.43
729.329
483.127
395.709
357.488
339.001
329.014
323.775
321.641
321.328
323.361
327.018
331.979
337.855
344.379
351.441
358.94
366.779
374.527
382.054
389.121
395.986
402.568
408.812
414.795
420.548
426.058
431.299
436.229
440.821
444.983
448.505
451.677
454.665
457.542
460.388
463.292
466.367
469.734
473.538
477.966
483.285
489.602
497.136
506.16
516.819
528.715
541.858
556.189
571.644
588.204
605.922
624.488
643.697
663.384
683.383
703.485
723.605
743.706
763.73
783.624
803.351
822.886
842.194
861.241
879.996
898.427
916.487
934.107
951.193
967.605
983.201
997.89
1011.68
1024.61
1036.72
1048.01
1058.49
1068.35
1077.71
1086.63
1095.27
1104.01
1112.95
1121.79
1130.37
1138.63
1146.56
1154.21
1161.52
1168.5
1175.15
1181.47
1187.48
1193.18
1198.62
1203.81
1208.76
1213.49
1218.02
1222.34
1226.46
1230.37
1234.08
1237.59
1240.88
1243.97
1246.83
1249.46
1251.86
1254
1255.88
1257.51
1258.88
1259.92
1260.68
1261.15
1261.34
1261.27
1260.86
1260.06
1258.99
1257.62
1255.93
1253.93
1251.64
1249.04
1246.15
1242.97
1239.5
1235.75
1231.73
1227.42
1222.85
1218.03
1212.95
1207.62
1202.05
1196.24
1190.2
1183.93
1177.43
1170.72
1163.79
1156.66
1149.33
1141.8
1134.08
1126.17
1118.09
1109.83
1101.45
1092.94
1084.29
1075.51
1066.59
1057.56
1048.42
1039.17
1029.84
1020.43
1010.96
1001.47
991.96
982.439
972.925
963.436
953.99
944.605
935.304
926.096
917.019
908.099
899.358
890.817
882.491
874.382
866.681
857.994
11462.8
1801.6
730.386
488.784
402.7
365.407
347.15
337.039
331.63
329.331
328.858
330.479
333.745
338.273
343.786
349.952
356.636
363.659
370.872
378.444
386.266
394.067
401.852
409.667
417.527
425.479
433.535
441.683
449.799
457.796
465.686
473.46
481.221
488.962
496.707
504.53
512.531
520.828
529.571
538.926
549.102
560.313
572.767
586.531
601.687
618.211
635.862
654.897
675.255
696.795
719.371
742.891
766.849
791.017
815.148
839
862.365
885.063
906.984
928.084
948.357
967.849
986.629
1004.8
1022.41
1039.54
1056.23
1072.53
1088.46
1104
1119.1
1133.7
1147.74
1161.02
1173.61
1185.57
1196.87
1207.46
1217.25
1226.36
1234.63
1242.37
1249.86
1257.51
1264.96
1271.98
1278.54
1284.62
1290.23
1295.41
1300.19
1304.59
1308.65
1312.38
1315.79
1318.9
1321.83
1324.56
1327.08
1329.44
1331.63
1333.68
1335.58
1337.34
1338.94
1340.38
1341.67
1342.8
1343.75
1344.52
1345.08
1345.44
1345.57
1345.47
1345.22
1344.57
1343.7
1342.58
1341.22
1339.58
1337.66
1335.44
1332.95
1330.17
1327.13
1323.81
1320.22
1316.37
1312.26
1307.89
1303.27
1298.4
1293.27
1287.9
1282.29
1276.45
1270.38
1264.09
1257.58
1250.85
1243.91
1236.77
1229.42
1221.86
1214.12
1206.18
1198.06
1189.75
1181.27
1172.61
1163.77
1154.77
1145.61
1136.32
1126.88
1117.31
1107.62
1097.81
1087.89
1077.88
1067.78
1057.61
1047.41
1037.19
1026.95
1016.7
1006.46
996.25
986.087
975.993
965.989
956.12
946.396
936.837
927.459
918.284
909.326
900.579
892.279
882.99
11461.8
1791.48
732.46
491.484
406.129
370.74
352.942
343.384
338.756
337.138
337.288
339.935
344.18
349.7
356.158
363.711
372.351
381.342
390.86
401.394
412.961
425.188
437.875
451.29
465.451
480.327
495.827
511.814
528.172
544.861
561.774
578.828
595.982
613.118
630.143
647.065
663.961
680.963
698.262
716.123
734.913
754.777
775.886
798.302
822
846.91
873.032
900.885
929.91
959.574
989.434
1018.81
1047.26
1074.56
1100.44
1124.63
1146.92
1167.29
1185.76
1202.41
1217.38
1230.86
1243.07
1254.41
1264.98
1274.95
1284.51
1293.8
1302.96
1312.01
1320.93
1329.77
1338.52
1347.2
1355.8
1364.21
1372.25
1379.79
1386.58
1392.85
1398.78
1404.74
1410.63
1415.98
1420.44
1424.08
1427.11
1429.59
1431.6
1433.19
1434.42
1435.31
1435.92
1436.25
1436.29
1436.05
1435.93
1435.79
1435.43
1434.99
1434.47
1433.89
1433.26
1432.56
1431.78
1430.93
1430
1428.98
1427.84
1426.59
1425.18
1423.62
1421.9
1420
1417.92
1415.62
1413.11
1410.4