/*--------------------------------*- C++ -*----------------------------------*\
  =========                 |
  \\      /  F ield         | OpenFOAM: The Open Source CFD Toolbox
   \\    /   O peration     | Website:  https://openfoam.org
    \\  /    A nd           | Version:  13
     \\/     M anipulation  |
\*---------------------------------------------------------------------------*/
FoamFile
{
    format      ascii;
    class       volScalarField;
    location    "700";
    object      p;
}
// * * * * * * * * * * * * * * * * * * * * * * * * * * * * * * * * * * * * * //

dimensions      [0 2 -2 0 0 0 0];

internalField   nonuniform List<scalar> 
12225
(
-4.06358
-4.90471
-5.31721
-5.47162
-5.62479
-5.80015
-5.9591
-6.08937
-6.20017
-6.29944
-6.38526
-6.45468
-6.51012
-6.56151
-6.6165
-6.67144
-6.73219
-6.81941
-4.33916
-4.94532
-5.29712
-5.44945
-5.59842
-5.76788
-5.9262
-6.0575
-6.16692
-6.26124
-6.34219
-6.41173
-6.47219
-6.52596
-6.58135
-6.64196
-6.70439
-6.75002
-4.51834
-4.93341
-5.27776
-5.46012
-5.61366
-5.77641
-5.92753
-6.05457
-6.16113
-6.25262
-6.33228
-6.40171
-6.46243
-6.51736
-6.57173
-6.6267
-6.67687
-6.70992
-4.65862
-4.94769
-5.28535
-5.47893
-5.6243
-5.77383
-5.91668
-6.03924
-6.14308
-6.23328
-6.31251
-6.3821
-6.44382
-6.49988
-6.55334
-6.6047
-6.65056
-6.68341
-4.80274
-5.03907
-5.31249
-5.49381
-5.63212
-5.77292
-5.91064
-6.03054
-6.13268
-6.22184
-6.30043
-6.36978
-6.43147
-6.48722
-6.53918
-6.58778
-6.63085
-6.66399
-4.92553
-5.09345
-5.32774
-5.50203
-5.63807
-5.77299
-5.90521
-6.0215
-6.12114
-6.2084
-6.28558
-6.3539
-6.41477
-6.46972
-6.52033
-6.56689
-6.60795
-6.64088
-5.02356
-5.15144
-5.349
-5.51596
-5.64864
-5.7769
-5.9024
-6.01436
-6.11128
-6.19653
-6.27218
-6.33941
-6.39954
-6.45386
-6.50347
-6.54852
-6.58818
-6.62094
-5.10636
-5.20665
-5.37947
-5.53479
-5.66142
-5.78241
-5.9008
-6.00806
-6.10186
-6.18466
-6.25842
-6.32429
-6.3834
-6.4368
-6.48525
-6.52889
-6.56732
-6.59975
-5.18461
-5.26249
-5.413
-5.55559
-5.67557
-5.78945
-5.90067
-6.00272
-6.09298
-6.17314
-6.24497
-6.3095
-6.36755
-6.41997
-6.46734
-6.50986
-6.54743
-6.57969
-5.25864
-5.32124
-5.44788
-5.57715
-5.69009
-5.79696
-5.9011
-5.99775
-6.08438
-6.16194
-6.23184
-6.2949
-6.3518
-6.40315
-6.44948
-6.49102
-6.52787
-6.55994
-5.32749
-5.37752
-5.48266
-5.59851
-5.70397
-5.80396
-5.90133
-5.99273
-6.07575
-6.15071
-6.21862
-6.28015
-6.3358
-6.38609
-6.43147
-6.47218
-6.50846
-6.54033
-5.38478
-5.42562
-5.51439
-5.61818
-5.71643
-5.81021
-5.90165
-5.98831
-6.06795
-6.14043
-6.20642
-6.26645
-6.32092
-6.37023
-6.41477
-6.45482
-6.49064
-6.52233
-5.43625
-5.47018
-5.5454
-5.63787
-5.72888
-5.81665
-5.90241
-5.98442
-6.06061
-6.13053
-6.19452
-6.25297
-6.30619
-6.3545
-6.39823
-6.43764
-6.47305
-6.50457
-5.48865
-5.51668
-5.57942
-5.66021
-5.74311
-5.82425
-5.9039
-5.98073
-6.05295
-6.11983
-6.18144
-6.23799
-6.2897
-6.33681
-6.3796
-6.41832
-6.45329
-6.48462
-5.54006
-5.56306
-5.61487
-5.68435
-5.75857
-5.83268
-5.90594
-5.97726
-6.04508
-6.10853
-6.16739
-6.22176
-6.27173
-6.31748
-6.35922
-6.39719
-6.43167
-6.46279
-5.58761
-5.60647
-5.64923
-5.70848
-5.77409
-5.8411
-5.90804
-5.9738
-6.03703
-6.0968
-6.15271
-6.20469
-6.25277
-6.29704
-6.33765
-6.37481
-6.40876
-6.43963
-5.62719
-5.64287
-5.6787
-5.72955
-5.78751
-5.84797
-5.90908
-5.96966
-6.0285
-6.08465
-6.13762
-6.18721
-6.23337
-6.27613
-6.3156
-6.35192
-6.3853
-6.41587
-5.65278
-5.66636
-5.69767
-5.74279
-5.79518
-5.85061
-5.90717
-5.96363
-6.01887
-6.07197
-6.1224
-6.16988
-6.21432
-6.25571
-6.29412
-6.32966
-6.36248
-6.39273
-5.65486
-5.66778
-5.6977
-5.74094
-5.79121
-5.84445
-5.89884
-5.95325
-6.00658
-6.05796
-6.10686
-6.15303
-6.19636
-6.23685
-6.27454
-6.30955
-6.34201
-6.3721
-5.62492
-5.63951
-5.67283
-5.71989
-5.77315
-5.82848
-5.88442
-5.94002
-5.99417
-6.04601
-6.09512
-6.14133
-6.18461
-6.22497
-6.26251
-6.29738
-6.32973
-6.35976
-5.58029
-5.59795
-5.63777
-5.69198
-5.75084
-5.81031
-5.86968
-5.92813
-5.98444
-6.03781
-6.08796
-6.13489
-6.17862
-6.21924
-6.25691
-6.29183
-6.32418
-6.35423
-5.52222
-5.54515
-5.5955
-5.66014
-5.72636
-5.79122
-5.8553
-5.91771
-5.97696
-6.03239
-6.08401
-6.13196
-6.17635
-6.21735
-6.25521
-6.29021
-6.32257
-6.35262
-5.45295
-5.48428
-5.55005
-5.62772
-5.70189
-5.77277
-5.84242
-5.90937
-5.97186
-6.02956
-6.08281
-6.13188
-6.17695
-6.21831
-6.2563
-6.29128
-6.32358
-6.35353
-5.3735
-5.41804
-5.50528
-5.59717
-5.67864
-5.75588
-5.83177
-5.90346
-5.96909
-6.02899
-6.08386
-6.13399
-6.17966
-6.22126
-6.25928
-6.29417
-6.32632
-6.35616
-5.2834
-5.34889
-5.46475
-5.57017
-5.65708
-5.74077
-5.82328
-5.8996
-5.96815
-6.03012
-6.08646
-6.13748
-6.18352
-6.22514
-6.26293
-6.29749
-6.32927
-6.35879
-5.18055
-5.27906
-5.42993
-5.54673
-5.63735
-5.72723
-5.8159
-5.8963
-5.96755
-6.03163
-6.08957
-6.14163
-6.18819
-6.22993
-6.26757
-6.30182
-6.33329
-6.3628
-5.06352
-5.2142
-5.39885
-5.5223
-5.61747
-5.7149
-5.80936
-5.89298
-5.9663
-6.03201
-6.09112
-6.14384
-6.19062
-6.23222
-6.26955
-6.30331
-6.33417
-6.36333
-4.92874
-5.17083
-5.37834
-5.49555
-5.59568
-5.70414
-5.80667
-5.89517
-5.97201
-6.04042
-6.10139
-6.15514
-6.20221
-6.24348
-6.28025
-6.31338
-6.3435
-6.3726
-4.74856
-5.14374
-5.38192
-5.48172
-5.57841
-5.69227
-5.79895
-5.88979
-5.96868
-6.03914
-6.10187
-6.15689
-6.20468
-6.24598
-6.28181
-6.31342
-6.34213
-6.36881
-4.48202
-5.07627
-5.37983
-5.49026
-5.59485
-5.71684
-5.82828
-5.92096
-6.0004
-6.07094
-6.13347
-6.18799
-6.23493
-6.27492
-6.30783
-6.33512
-6.35968
-6.3801
-7.27565
-7.27575
-7.27579
-7.27575
-7.27545
-7.27437
-7.27215
-7.26916
-7.2663
-7.26446
-7.26461
-7.26697
-7.27114
-7.27641
-7.28207
-7.28748
-7.29211
-7.29556
-7.29771
-7.2988
-7.2991
-7.29877
-7.29802
-7.29708
-7.29618
-7.29548
-7.29502
-7.29472
-7.29446
-7.29412
-7.29362
-7.29298
-7.29219
-7.29117
-7.28987
-7.2884
-7.28701
-7.28627
-7.28665
-7.28812
-7.29014
-7.2921
-7.29376
-7.29539
-7.29733
-7.2999
-7.30341
-7.30746
-7.31108
-7.31374
-7.31692
-7.32409
-7.33954
-7.36413
-7.39701
-7.43789
-7.48718
-7.54457
-7.60872
-7.67771
-7.74936
-7.82181
-7.89338
-7.96245
-8.02832
-8.09047
-8.14819
-8.20134
-8.24985
-8.29372
-8.33299
-8.36772
-8.39795
-8.4237
-8.44497
-8.46177
-8.47406
-8.48183
-8.48501
-8.48359
-8.47752
-8.46679
-8.45134
-8.43119
-8.40631
-8.37674
-8.34242
-8.30338
-8.25957
-8.21106
-8.15792
-8.10018
-8.03781
-7.97081
-7.89913
-7.82272
-7.74151
-7.65546
-7.56459
-7.46896
-7.3687
-7.26385
-7.15421
-7.03934
-6.91907
-6.79349
-6.6626
-6.52636
-6.3847
-6.23756
-6.08489
-5.92666
-5.76283
-5.59342
-5.41842
-5.23788
-5.05181
-4.86027
-4.66334
-4.46114
-4.25379
-4.04142
-3.82414
-3.60206
-3.37532
-3.14412
-2.9086
-2.66898
-2.42544
-2.17818
-1.9274
-1.6733
-1.41609
-1.15601
-0.893299
-0.62824
-0.361117
-0.092107
0.178725
0.451307
0.725366
1.00057
1.27665
1.55334
1.83038
2.10751
2.38448
2.661
2.93682
3.21164
3.48518
3.75714
4.02721
4.29509
4.56047
4.82303
5.08249
5.33854
5.59091
5.83931
6.08351
6.32323
6.55824
6.78832
7.01326
7.23286
7.44694
7.65535
7.85797
8.05468
8.2454
8.43007
8.60867
8.78114
8.94754
9.1082
9.26357
9.41343
9.5614
9.70014
-7.27671
-7.27687
-7.27717
-7.2775
-7.27748
-7.27675
-7.27506
-7.27287
-7.2713
-7.27126
-7.27305
-7.27656
-7.28134
-7.28678
-7.2923
-7.29742
-7.30179
-7.30519
-7.30746
-7.3084
-7.30803
-7.3066
-7.30446
-7.30202
-7.29969
-7.29773
-7.29626
-7.29521
-7.2944
-7.29367
-7.29299
-7.29234
-7.29166
-7.29087
-7.28987
-7.28875
-7.28791
-7.28794
-7.2891
-7.29109
-7.29319
-7.29461
-7.29516
-7.29535
-7.29529
-7.29482
-7.29494
-7.29796
-7.30484
-7.31176
-7.31788
-7.32713
-7.34153
-7.36247
-7.39285
-7.43485
-7.48808
-7.5503
-7.61882
-7.69095
-7.76454
-7.83757
-7.90833
-7.97633
-8.04063
-8.10026
-8.15546
-8.20623
-8.25261
-8.29465
-8.3324
-8.3659
-8.39516
-8.42018
-8.44091
-8.45734
-8.46938
-8.47701
-8.48014
-8.47875
-8.47275
-8.46213
-8.44684
-8.42687
-8.40221
-8.37286
-8.33882
-8.30006
-8.25658
-8.20844
-8.15571
-8.09841
-8.03653
-7.97006
-7.89897
-7.82324
-7.74283
-7.65768
-7.56774
-7.47297
-7.37328
-7.26858
-7.15882
-7.0441
-6.92445
-6.79969
-6.6697
-6.53437
-6.39366
-6.24747
-6.09577
-5.9385
-5.77565
-5.60721
-5.43318
-5.25359
-5.06848
-4.87788
-4.68188
-4.48059
-4.27414
-4.06265
-3.84622
-3.62498
-3.39906
-3.16865
-2.93392
-2.69506
-2.45226
-2.20572
-1.95563
-1.70221
-1.44565
-1.18617
-0.923945
-0.659164
-0.39202
-0.122811
0.148113
0.420474
0.694141
0.96895
1.24466
1.521
1.79773
2.07458
2.3513
2.62762
2.90326
3.17796
3.45142
3.72334
3.99344
4.26139
4.52689
4.78963
5.04932
5.30565
5.55834
5.80712
6.05173
6.29191
6.52743
6.75805
6.98356
7.20377
7.4185
7.62759
7.83092
8.02837
8.21985
8.40532
8.58482
8.75827
8.92571
9.08714
9.24322
9.39375
9.54413
9.68254
-7.27789
-7.27788
-7.27791
-7.27797
-7.27804
-7.27806
-7.27827
-7.27913
-7.28112
-7.28437
-7.28873
-7.29385
-7.29935
-7.30483
-7.30994
-7.31438
-7.31795
-7.32054
-7.32208
-7.3225
-7.32179
-7.32004
-7.31741
-7.31406
-7.3102
-7.30607
-7.30194
-7.29807
-7.29466
-7.29185
-7.28965
-7.2879
-7.28637
-7.28493
-7.28376
-7.28331
-7.28406
-7.28625
-7.2895
-7.29267
-7.2944
-7.29371
-7.29141
-7.28947
-7.2894
-7.2906
-7.29225
-7.29688
-7.30644
-7.31999
-7.33762
-7.36045
-7.38902
-7.42385
-7.4655
-7.51412
-7.56882
-7.62815
-7.69053
-7.75439
-7.81849
-7.88178
-7.94336
-8.00276
-8.05949
-8.11303
-8.1632
-8.20989
-8.25298
-8.29243
-8.32816
-8.36011
-8.3882
-8.41236
-8.4325
-8.44852
-8.46033
-8.46784
-8.47096
-8.46962
-8.46375
-8.45329
-8.43821
-8.41847
-8.39407
-8.365
-8.33127
-8.29284
-8.24971
-8.20196
-8.14964
-8.09278
-8.03136
-7.96537
-7.89479
-7.81961
-7.7398
-7.65536
-7.56623
-7.47238
-7.37369
-7.27006
-7.16141
-7.04778
-6.9292
-6.80553
-6.67668
-6.54253
-6.40302
-6.25806
-6.10761
-5.9516
-5.79002
-5.62284
-5.45008
-5.27174
-5.08788
-4.89851
-4.70374
-4.50367
-4.29842
-4.08809
-3.8728
-3.65267
-3.42786
-3.19852
-2.96485
-2.72701
-2.48521
-2.23963
-1.99049
-1.738
-1.48235
-1.22377
-0.962464
-0.698594
-0.432337
-0.163946
0.106242
0.377942
0.650973
0.925166
1.20028
1.47607
1.75228
2.02867
2.30496
2.5809
2.85621
3.13062
3.40385
3.67561
3.9456
4.2135
4.47902
4.74184
5.00165
5.25817
5.51111
5.76019
6.00514
6.24572
6.48167
6.71276
6.93879
7.15955
7.37486
7.58455
7.78849
7.98659
8.17874
8.36484
8.5449
8.71894
8.88707
9.04939
9.20676
9.35819
9.51127
9.64541
-7.27894
-7.27869
-7.27836
-7.27835
-7.27935
-7.28178
-7.28553
-7.29028
-7.2957
-7.30149
-7.30739
-7.31316
-7.3186
-7.32353
-7.32779
-7.33125
-7.33379
-7.33535
-7.33591
-7.33544
-7.33393
-7.33144
-7.32804
-7.32381
-7.31883
-7.3132
-7.30708
-7.30068
-7.29431
-7.28829
-7.2829
-7.27832
-7.2747
-7.27231
-7.27165
-7.27322
-7.27679
-7.28124
-7.28506
-7.28715
-7.28733
-7.28625
-7.28538
-7.28608
-7.28908
-7.29476
-7.30374
-7.31697
-7.33523
-7.35861
-7.38668
-7.41902
-7.45542
-7.49577
-7.53989
-7.58756
-7.63836
-7.6917
-7.74687
-7.80305
-7.85947
-7.91542
-7.97031
-8.02363
-8.07496
-8.12394
-8.17032
-8.21387
-8.25444
-8.29186
-8.326
-8.35674
-8.38393
-8.40744
-8.42714
-8.44289
-8.45457
-8.46204
-8.4652
-8.46396
-8.45822
-8.44793
-8.43303
-8.4135
-8.38932
-8.36048
-8.32699
-8.28882
-8.24599
-8.19857
-8.14661
-8.09014
-8.02915
-7.96363
-7.89358
-7.81896
-7.73977
-7.65597
-7.56754
-7.47443
-7.37659
-7.2739
-7.16631
-7.05379
-6.9363
-6.81374
-6.68603
-6.55305
-6.41472
-6.27097
-6.12173
-5.96696
-5.80661
-5.64067
-5.46913
-5.29202
-5.10935
-4.92118
-4.72759
-4.52868
-4.32457
-4.11535
-3.90115
-3.68208
-3.45831
-3.22999
-2.99732
-2.76046
-2.51961
-2.27496
-2.02673
-1.77511
-1.52033
-1.26258
-1.00209
-0.73903
-0.473591
-0.206006
0.0634326
0.334459
0.606863
0.88045
1.15498
1.43023
1.70594
1.98186
2.25772
2.53328
2.80826
3.08239
3.35538
3.62696
3.89682
4.16466
4.43016
4.69304
4.95296
5.20964
5.46279
5.71214
5.9574
6.19834
6.43469
6.66624
6.89275
7.11402
7.32987
7.54013
7.74467
7.94335
8.13611
8.32287
8.50363
8.67842
8.84736
9.01056
9.16891
9.3207
9.47465
9.60244
-7.28103
-7.28051
-7.28014
-7.28133
-7.28507
-7.29087
-7.29771
-7.30491
-7.312
-7.31872
-7.32493
-7.33055
-7.33553
-7.3398
-7.34328
-7.3459
-7.34759
-7.34829
-7.34799
-7.34665
-7.34429
-7.34092
-7.33659
-7.33135
-7.32525
-7.31836
-7.31074
-7.30253
-7.29395
-7.28537
-7.27727
-7.27025
-7.26501
-7.26241
-7.26299
-7.26606
-7.26994
-7.27355
-7.27643
-7.27849
-7.28014
-7.28213
-7.28561
-7.29163
-7.30112
-7.31483
-7.33312
-7.35567
-7.38191
-7.41154
-7.44416
-7.47947
-7.51742
-7.55796
-7.60103
-7.64647
-7.69399
-7.74316
-7.7935
-7.84449
-7.89559
-7.94632
-7.99625
-8.04498
-8.09218
-8.13752
-8.18076
-8.22166
-8.26003
-8.29567
-8.32839
-8.35802
-8.38436
-8.40725
-8.4265
-8.44195
-8.45342
-8.46077
-8.46386
-8.46258
-8.45684
-8.44656
-8.43168
-8.41217
-8.38801
-8.35921
-8.32576
-8.28766
-8.24492
-8.19762
-8.14583
-8.08956
-8.02883
-7.96362
-7.89395
-7.81977
-7.7411
-7.65787
-7.57008
-7.47767
-7.38059
-7.27876
-7.1721
-7.06057
-6.94408
-6.82254
-6.69585
-6.56393
-6.42666
-6.284
-6.13584
-5.98215
-5.82287
-5.65801
-5.48752
-5.31145
-5.12979
-4.94263
-4.75002
-4.55208
-4.3489
-4.1406
-3.92726
-3.70906
-3.48612
-3.25864
-3.02676
-2.7907
-2.55062
-2.30672
-2.05921
-1.80831
-1.55421
-1.29713
-1.03727
-0.77484
-0.510026
-0.243073
0.0257606
0.296223
0.56811
0.841195
1.11526
1.39007
1.66537
1.94091
2.21645
2.49171
2.76644
3.04035
3.31318
3.58463
3.85443
4.12225
4.38779
4.65073
4.91079
5.16764
5.42102
5.67063
5.91621
6.1575
6.39424
6.6262
6.85316
7.07492
7.29127
7.50207
7.70716
7.90643
8.09979
8.28717
8.46857
8.644
8.81357
8.97731
9.13605
9.28749
9.44117
9.56195
-7.28493
-7.28409
-7.28447
-7.28839
-7.2952
-7.30313
-7.31123
-7.31904
-7.32628
-7.33289
-7.33885
-7.34414
-7.34871
-7.35249
-7.35543
-7.35745
-7.35851
-7.35857
-7.35761
-7.35561
-7.35259
-7.34856
-7.34354
-7.33754
-7.33055
-7.32263
-7.3139
-7.30451
-7.29467
-7.2848
-7.2756
-7.26788
-7.26266
-7.26052
-7.26079
-7.26213
-7.26391
-7.26625
-7.26947
-7.27379
-7.27921
-7.28612
-7.29577
-7.30916
-7.32651
-7.34761
-7.37207
-7.39958
-7.42975
-7.46226
-7.49688
-7.53345
-7.5719
-7.61213
-7.65404
-7.6975
-7.74229
-7.78811
-7.83466
-7.88158
-7.92854
-7.9752
-8.02126
-8.06639
-8.11032
-8.15277
-8.19351
-8.23229
-8.26889
-8.30309
-8.33467
-8.3634
-8.38906
-8.41144
-8.43031
-8.44548
-8.45674
-8.46393
-8.46688
-8.46548
-8.45961
-8.44919
-8.43416
-8.41449
-8.39016
-8.36119
-8.32758
-8.28933
-8.24647
-8.19909
-8.14725
-8.09101
-8.03035
-7.96529
-7.89582
-7.82195
-7.74365
-7.66088
-7.57362
-7.48182
-7.38542
-7.28434
-7.17851
-7.06783
-6.95222
-6.83159
-6.70582
-6.57482
-6.4385
-6.29676
-6.14954
-5.99678
-5.83842
-5.67444
-5.50483
-5.32959
-5.14875
-4.96239
-4.77056
-4.57336
-4.3709
-4.16328
-3.95062
-3.73306
-3.51075
-3.28387
-3.0526
-2.81712
-2.57761
-2.33428
-2.08732
-1.83696
-1.58338
-1.3268
-1.06743
-0.805464
-0.54112
-0.274647
-0.00627978
0.263745
0.535219
0.807915
1.08162
1.35608
1.63108
1.90634
2.18163
2.45667
2.73122
3.00499
3.27772
3.54912
3.81891
4.08676
4.35237
4.61542
4.87563
5.13268
5.38629
5.63617
5.88205
6.12367
6.36079
6.59316
6.82056
7.04276
7.25959
7.47087
7.67645
7.87623
8.0701
8.25799
8.43988
8.61576
8.7857
8.94965
9.10833
9.25896
9.41206
9.52588
-7.28986
-7.28936
-7.29161
-7.29811
-7.30633
-7.3146
-7.32251
-7.32995
-7.33685
-7.34318
-7.34889
-7.35392
-7.3582
-7.36165
-7.36421
-7.36583
-7.36647
-7.3661
-7.3647
-7.36227
-7.35882
-7.35436
-7.34887
-7.34227
-7.3346
-7.32602
-7.31671
-7.30689
-7.29684
-7.2871
-7.27845
-7.27173
-7.26722
-7.26425
-7.26224
-7.26137
-7.26212
-7.265
-7.2699
-7.27677
-7.28628
-7.29907
-7.31524
-7.33466
-7.35714
-7.38246
-7.41026
-7.4403
-7.47239
-7.5063
-7.54186
-7.57891
-7.61732
-7.65698
-7.69778
-7.73958
-7.78223
-7.82554
-7.8693
-7.91328
-7.95726
-8.00099
-8.04423
-8.08675
-8.12829
-8.16863
-8.20753
-8.24477
-8.28009
-8.31327
-8.34404
-8.37216
-8.39736
-8.4194
-8.43803
-8.453
-8.46409
-8.47112
-8.47389
-8.47228
-8.46617
-8.45548
-8.44014
-8.42014
-8.39546
-8.36611
-8.33212
-8.29351
-8.25033
-8.20266
-8.15059
-8.09418
-8.03341
-7.96833
-7.89892
-7.82521
-7.74714
-7.66473
-7.57789
-7.48661
-7.3908
-7.29038
-7.18526
-7.07533
-6.96051
-6.84068
-6.71574
-6.58556
-6.45007
-6.30914
-6.16272
-6.01073
-5.85314
-5.68989
-5.52099
-5.34641
-5.16623
-4.98047
-4.78923
-4.59258
-4.39065
-4.18351
-3.97132
-3.75421
-3.53235
-3.30589
-3.07503
-2.83995
-2.60085
-2.35792
-2.11136
-1.86139
-1.60819
-1.35198
-1.09297
-0.831353
-0.56737
-0.301257
-0.0332513
0.236439
0.507586
0.779987
1.0534
1.32762
1.60237
1.87744
2.15255
2.42745
2.70188
2.97558
3.24826
3.51967
3.78948
4.05741
4.32313
4.58633
4.84669
5.10395
5.35779
5.60795
5.85414
6.09611
6.3336
6.56636
6.79416
7.01678
7.23402
7.44572
7.65172
7.85191
8.04619
8.23447
8.41671
8.59287
8.76299
8.9269
9.08528
9.23487
9.38735
9.49452
-7.29377
-7.29433
-7.29893
-7.30657
-7.31459
-7.3223
-7.32968
-7.33672
-7.34335
-7.34947
-7.355
-7.35985
-7.36394
-7.3672
-7.36956
-7.37097
-7.37139
-7.37079
-7.36916
-7.36651
-7.36284
-7.35812
-7.35225
-7.34528
-7.33744
-7.32887
-7.31972
-7.31026
-7.30096
-7.2925
-7.28533
-7.27936
-7.27401
-7.26923
-7.26588
-7.26473
-7.26588
-7.26974
-7.27682
-7.28727
-7.30106
-7.318
-7.33794
-7.36067
-7.38593
-7.41348
-7.44311
-7.47458
-7.50773
-7.54236
-7.5783
-7.61541
-7.65356
-7.69264
-7.73254
-7.77312
-7.81427
-7.85586
-7.89773
-7.93973
-7.98169
-8.02342
-8.06475
-8.10548
-8.14541
-8.18434
-8.22204
-8.25828
-8.29282
-8.3254
-8.35574
-8.38356
-8.40857
-8.43049
-8.44902
-8.46391
-8.4749
-8.48177
-8.48434
-8.48246
-8.47601
-8.46492
-8.44913
-8.42862
-8.40339
-8.37348
-8.33891
-8.29974
-8.25601
-8.20786
-8.15537
-8.09858
-8.03756
-7.97229
-7.90281
-7.82912
-7.75119
-7.669
-7.58251
-7.49166
-7.39636
-7.29651
-7.19202
-7.08277
-6.96865
-6.84955
-6.72534
-6.5959
-6.46113
-6.32092
-6.17519
-6.02387
-5.86691
-5.70427
-5.53592
-5.36188
-5.18218
-4.99689
-4.80607
-4.60981
-4.40822
-4.20142
-3.98953
-3.77271
-3.55113
-3.32495
-3.09436
-2.85954
-2.6207
-2.37803
-2.13175
-1.88203
-1.6291
-1.37316
-1.1144
-0.853046
-0.589334
-0.323499
-0.0557649
0.21366
0.484558
0.756722
1.02992
1.30393
1.57851
1.85343
2.12841
2.40322
2.67757
2.95123
3.22391
3.49536
3.76524
4.03326
4.2991
4.56246
4.82301
5.08049
5.33459
5.58503
5.83154
6.07386
6.31172
6.54486
6.77304
6.99603
7.21366
7.42573
7.6321
7.83265
8.02727
8.21586
8.39836
8.57469
8.74486
8.9086
9.06653
9.21503
9.36692
9.46792
-7.29488
-7.29688
-7.30305
-7.31056
-7.31795
-7.32516
-7.33221
-7.33902
-7.34549
-7.35151
-7.35698
-7.36179
-7.36585
-7.36908
-7.37141
-7.3728
-7.3732
-7.3726
-7.37096
-7.3683
-7.36459
-7.35976
-7.35381
-7.34694
-7.33937
-7.33123
-7.32279
-7.31443
-7.30653
-7.29928
-7.29254
-7.28608
-7.27998
-7.27485
-7.27161
-7.27098
-7.27342
-7.27929
-7.2887
-7.30146
-7.31747
-7.33651
-7.35834
-7.38273
-7.40942
-7.43819
-7.46883
-7.50113
-7.53489
-7.56994
-7.6061
-7.64326
-7.68125
-7.71997
-7.75929
-7.79911
-7.83933
-7.87983
-7.92052
-7.96126
-8.00193
-8.04241
-8.08255
-8.12219
-8.16117
-8.1993
-8.23636
-8.27213
-8.30636
-8.33876
-8.36903
-8.39687
-8.42196
-8.44396
-8.46258
-8.47751
-8.48847
-8.49522
-8.49756
-8.49534
-8.48846
-8.47684
-8.46044
-8.43926
-8.4133
-8.38262
-8.34727
-8.30732
-8.26286
-8.21402
-8.16092
-8.10362
-8.04218
-7.97659
-7.90693
-7.83315
-7.75526
-7.67322
-7.587
-7.4965
-7.40163
-7.3023
-7.19836
-7.08973
-6.97625
-6.85782
-6.73427
-6.6055
-6.47137
-6.3318
-6.18667
-6.03593
-5.8795
-5.71736
-5.54946
-5.37584
-5.1965
-5.01154
-4.821
-4.62499
-4.42361
-4.21701
-4.00529
-3.78865
-3.56721
-3.34119
-3.11073
-2.87607
-2.63737
-2.39487
-2.14875
-1.89921
-1.64645
-1.39069
-1.1321
-0.870926
-0.607409
-0.341786
-0.0742542
0.194963
0.465674
0.737649
1.01069
1.28454
1.559
1.83379
2.10869
2.38342
2.65774
2.93136
3.20407
3.47557
3.74557
4.01371
4.2797
4.54322
4.80398
5.06167
5.31604
5.56676
5.81359
6.05624
6.29446
6.52795
6.75648
6.97982
7.19778
7.41018
7.61687
7.81771
8.01261
8.20144
8.38411
8.56052
8.73063
8.89409
9.05151
9.19892
9.35022
9.44569
-7.29179
-7.29506
-7.3016
-7.30867
-7.31572
-7.32274
-7.32968
-7.33645
-7.34294
-7.34903
-7.3546
-7.35955
-7.36378
-7.36719
-7.36971
-7.37128
-7.37186
-7.37141
-7.36993
-7.36738
-7.36376
-7.35905
-7.35336
-7.34691
-7.33992
-7.33259
-7.32521
-7.31788
-7.31062
-7.30347
-7.2965
-7.28989
-7.28404
-7.27963
-7.27744
-7.27801
-7.28172
-7.2888
-7.29933
-7.31321
-7.33028
-7.35035
-7.37314
-7.39841
-7.42591
-7.45541
-7.48671
-7.51959
-7.55384
-7.58929
-7.62577
-7.6631
-7.70114
-7.73977
-7.77887
-7.81834
-7.85809
-7.89803
-7.93807
-7.97813
-8.01812
-8.05793
-8.09747
-8.1366
-8.17517
-8.21302
-8.24994
-8.28571
-8.32004
-8.35265
-8.38321
-8.41136
-8.43677
-8.45907
-8.47792
-8.49299
-8.50397
-8.5106
-8.51267
-8.51005
-8.50263
-8.49036
-8.47322
-8.4512
-8.42435
-8.39272
-8.3564
-8.31549
-8.27009
-8.2204
-8.16652
-8.10856
-8.04656
-7.98056
-7.91059
-7.83666
-7.75874
-7.67679
-7.59076
-7.50056
-7.40608
-7.30719
-7.20379
-7.09572
-6.98285
-6.86503
-6.74211
-6.61394
-6.48041
-6.3414
-6.19682
-6.04658
-5.89062
-5.72889
-5.56136
-5.38805
-5.20899
-5.02423
-4.83387
-4.638
-4.43674
-4.23023
-4.01861
-3.80203
-3.58066
-3.35469
-3.1243
-2.88969
-2.65107
-2.40865
-2.16262
-1.91318
-1.66054
-1.40488
-1.1464
-0.885348
-0.621977
-0.356511
-0.0891453
0.179914
0.450468
0.722299
0.995194
1.26892
1.54326
1.81796
2.09278
2.36746
2.64175
2.91537
3.18812
3.45971
3.72982
3.9981
4.26424
4.52793
4.78889
5.04681
5.30143
5.55244
5.79957
6.04256
6.28112
6.51496
6.74382
6.96747
7.18574
7.39843
7.60539
7.8065
8.00162
8.19065
8.37343
8.54985
8.71982
8.88294
9.03979
9.18612
9.33683
9.42744
-7.28287
-7.28686
-7.29328
-7.30027
-7.30745
-7.31463
-7.32172
-7.32866
-7.33537
-7.34171
-7.34758
-7.35285
-7.35739
-7.36111
-7.36394
-7.3658
-7.36666
-7.3665
-7.36529
-7.36302
-7.35973
-7.35548
-7.3504
-7.34468
-7.33845
-7.3318
-7.32483
-7.31765
-7.31034
-7.30303
-7.29599
-7.28964
-7.28444
-7.28087
-7.27952
-7.28092
-7.28542
-7.29324
-7.30445
-7.31899
-7.3367
-7.35737
-7.38075
-7.40661
-7.43471
-7.46483
-7.49674
-7.53022
-7.56506
-7.60105
-7.63799
-7.67571
-7.71406
-7.75289
-7.7921
-7.83158
-7.87125
-7.91102
-7.95085
-7.99067
-8.03043
-8.07005
-8.10944
-8.1485
-8.1871
-8.22508
-8.26224
-8.29835
-8.33313
-8.36627
-8.3974
-8.42615
-8.45212
-8.47492
-8.49415
-8.50945
-8.52049
-8.52699
-8.52875
-8.52562
-8.51754
-8.50448
-8.48644
-8.46344
-8.43551
-8.40276
-8.3653
-8.32323
-8.27675
-8.22603
-8.17124
-8.11249
-8.04983
-7.98334
-7.913
-7.83885
-7.76085
-7.67896
-7.59309
-7.50315
-7.40903
-7.31057
-7.20767
-7.10015
-6.98787
-6.87063
-6.74831
-6.62071
-6.48775
-6.34926
-6.20518
-6.05539
-5.89984
-5.73846
-5.57125
-5.39818
-5.21933
-5.0347
-4.84445
-4.64865
-4.44746
-4.24099
-4.0294
-3.81283
-3.59148
-3.3655
-3.13512
-2.90052
-2.66192
-2.41953
-2.17355
-1.92417
-1.67159
-1.416
-1.15759
-0.89663
-0.633385
-0.368057
-0.100847
0.168069
0.438476
0.710181
0.982949
1.25657
1.53081
1.80544
2.08019
2.35484
2.62911
2.90276
3.17556
3.44727
3.71751
3.98593
4.25221
4.51607
4.77722
5.03538
5.29024
5.54152
5.78895
6.03227
6.27118
6.50534
6.73449
6.95842
7.17695
7.38989
7.59709
7.79841
7.99373
8.18289
8.36573
8.54209
8.71187
8.8746
9.03086
9.17613
9.32622
9.41265
-7.2668
-7.27093
-7.2775
-7.28513
-7.29293
-7.30054
-7.30796
-7.31521
-7.32226
-7.32902
-7.33535
-7.34107
-7.34605
-7.35018
-7.35343
-7.35573
-7.35703
-7.35732
-7.3566
-7.35487
-7.35217
-7.34856
-7.34412
-7.33893
-7.33308
-7.32665
-7.31972
-7.3124
-7.30488
-7.29745
-7.29046
-7.28426
-7.27932
-7.27617
-7.27535
-7.27731
-7.28238
-7.29075
-7.30248
-7.3175
-7.33568
-7.35683
-7.38073
-7.40716
-7.4359
-7.46671
-7.49937
-7.53362
-7.56923
-7.60596
-7.64361
-7.68198
-7.7209
-7.76024
-7.79985
-7.83964
-7.87952
-7.91942
-7.95931
-7.99918
-8.03897
-8.07866
-8.11819
-8.15749
-8.19644
-8.23488
-8.27262
-8.30941
-8.34495
-8.37892
-8.41091
-8.44048
-8.46719
-8.49061
-8.51031
-8.52589
-8.53698
-8.54327
-8.54456
-8.54075
-8.53183
-8.51783
-8.49873
-8.47458
-8.44543
-8.41139
-8.37261
-8.32926
-8.28153
-8.22969
-8.17392
-8.1143
-8.05095
-7.9839
-7.91318
-7.8388
-7.76072
-7.67887
-7.59316
-7.50348
-7.4097
-7.3117
-7.2093
-7.10234
-6.99064
-6.874
-6.75226
-6.62524
-6.49281
-6.35485
-6.21124
-6.06189
-5.90671
-5.74566
-5.57873
-5.40589
-5.22719
-5.04269
-4.85251
-4.65679
-4.45565
-4.24921
-4.03763
-3.82106
-3.59969
-3.3737
-3.14331
-2.9087
-2.67011
-2.42774
-2.18179
-1.93246
-1.67995
-1.42442
-1.16608
-0.905215
-0.642097
-0.376917
-0.10985
0.158919
0.429191
0.700763
0.973417
1.24694
1.52109
1.79564
2.07035
2.34496
2.61923
2.8929
3.16581
3.43768
3.70808
3.97662
4.24302
4.50704
4.76838
5.02675
5.28186
5.53341
5.78114
6.0248
6.26405
6.49852
6.72793
6.95211
7.17088
7.38404
7.59145
7.79296
7.98846
8.17774
8.3606
8.53684
8.70639
8.86869
9.02434
9.1686
9.31803
9.40096
-7.24322
-7.2472
-7.25454
-7.26342
-7.27214
-7.28029
-7.2881
-7.29578
-7.3034
-7.31083
-7.31786
-7.32423
-7.32981
-7.33452
-7.33834
-7.34122
-7.34315
-7.34409
-7.34404
-7.34297
-7.34092
-7.3379
-7.33395
-7.3291
-7.32341
-7.31695
-7.30983
-7.30227
-7.29449
-7.2868
-7.27954
-7.27319
-7.26825
-7.26526
-7.2647
-7.26699
-7.27241
-7.28114
-7.29322
-7.3086
-7.32718
-7.34879
-7.37325
-7.40036
-7.42988
-7.46159
-7.49523
-7.53053
-7.5672
-7.60497
-7.6436
-7.68287
-7.72259
-7.76261
-7.80278
-7.84301
-7.88323
-7.9234
-7.96353
-8.0036
-8.04361
-8.08357
-8.12345
-8.16321
-8.20275
-8.24191
-8.2805
-8.31825
-8.35483
-8.38985
-8.42283
-8.4533
-8.48074
-8.50471
-8.52477
-8.54052
-8.55152
-8.55742
-8.55802
-8.55333
-8.54344
-8.52839
-8.50818
-8.48281
-8.45232
-8.41688
-8.37669
-8.33195
-8.28292
-8.22991
-8.17313
-8.11265
-8.04859
-7.98099
-7.90991
-7.83532
-7.75718
-7.6754
-7.58986
-7.50046
-7.40706
-7.30954
-7.20768
-7.10133
-6.99024
-6.87424
-6.7531
-6.62669
-6.49482
-6.35741
-6.21429
-6.06538
-5.91057
-5.74988
-5.58324
-5.41066
-5.23214
-5.0478
-4.85773
-4.66211
-4.46102
-4.25463
-4.04305
-3.82648
-3.60508
-3.37908
-3.14866
-2.91407
-2.67549
-2.43315
-2.18725
-1.938
-1.6856
-1.4302
-1.172
-0.911303
-0.648365
-0.383365
-0.116462
0.152142
0.422262
0.693682
0.966205
1.2396
1.51365
1.78811
2.06275
2.33731
2.61156
2.88526
3.15829
3.43038
3.70098
3.96966
4.23619
4.50034
4.76186
5.02044
5.27579
5.52761
5.77563
6.01964
6.25928
6.49407
6.72371
6.94809
7.16706
7.38042
7.588
7.78968
7.98533
8.17472
8.35754
8.53364
8.70291
8.86476
9.01979
9.16309
9.31179
9.39191
-7.213
-7.21719
-7.22587
-7.23635
-7.24608
-7.2548
-7.26326
-7.27169
-7.28002
-7.28825
-7.29625
-7.30361
-7.30999
-7.31534
-7.3198
-7.3234
-7.32609
-7.32782
-7.32853
-7.3282
-7.3268
-7.32431
-7.32073
-7.31605
-7.31035
-7.30371
-7.29629
-7.28828
-7.27997
-7.27172
-7.26398
-7.25724
-7.25204
-7.24889
-7.24826
-7.25054
-7.25598
-7.26477
-7.27697
-7.29258
-7.31152
-7.33366
-7.35881
-7.38678
-7.41731
-7.45016
-7.48502
-7.52159
-7.55954
-7.59856
-7.63837
-7.67873
-7.7194
-7.7602
-7.80101
-7.84174
-7.88235
-7.92284
-7.96323
-8.00356
-8.04387
-8.08419
-8.12452
-8.16484
-8.20505
-8.24502
-8.28451
-8.32324
-8.36084
-8.39686
-8.43078
-8.46201
-8.48998
-8.51424
-8.5344
-8.55004
-8.56067
-8.56593
-8.56565
-8.56001
-8.54922
-8.53328
-8.51212
-8.48564
-8.45389
-8.41708
-8.37551
-8.32942
-8.27909
-8.22492
-8.16713
-8.10577
-8.04093
-7.97274
-7.90125
-7.82644
-7.74823
-7.66649
-7.5811
-7.49195
-7.39893
-7.30188
-7.20061
-7.09487
-6.98444
-6.86907
-6.74857
-6.62275
-6.49148
-6.35462
-6.21205
-6.06365
-5.90935
-5.74909
-5.58283
-5.41058
-5.23236
-5.04825
-4.85833
-4.66276
-4.46167
-4.25521
-4.04354
-3.82686
-3.60535
-3.37925
-3.14876
-2.91411
-2.67551
-2.4332
-2.18737
-1.93826
-1.68606
-1.43096
-1.17317
-0.912884
-0.650302
-0.385608
-0.119001
0.149321
0.419157
0.690303
0.96255
1.23568
1.50947
1.78369
2.0581
2.33246
2.60651
2.88004
3.153
3.42513
3.69579
3.96454
4.23116
4.49543
4.75709
5.01586
5.27141
5.52346
5.77174
6.01611
6.25619
6.49136
6.72126
6.94585
7.16501
7.37855
7.58631
7.78815
7.98398
8.1735
8.3563
8.53221
8.70118
8.86257
9.01699
9.15936
9.30727
9.38523
-7.17863
-7.18362
-7.19414
-7.2066
-7.21744
-7.22658
-7.23536
-7.24456
-7.25405
-7.26345
-7.27253
-7.28097
-7.2883
-7.29437
-7.29949
-7.30387
-7.30742
-7.31002
-7.31158
-7.31203
-7.31129
-7.30928
-7.306
-7.30144
-7.29563
-7.28866
-7.2807
-7.272
-7.26292
-7.25386
-7.24532
-7.23783
-7.23194
-7.22814
-7.22692
-7.22865
-7.23364
-7.24209
-7.25411
-7.26975
-7.28896
-7.31162
-7.33756
-7.36656
-7.39834
-7.43258
-7.46893
-7.507
-7.54644
-7.58689
-7.62801
-7.66952
-7.71117
-7.75278
-7.79421
-7.83541
-7.87635
-7.91705
-7.95758
-7.998
-8.03842
-8.07889
-8.11946
-8.1601
-8.20076
-8.24128
-8.28143
-8.3209
-8.35927
-8.39606
-8.43065
-8.46231
-8.4904
-8.51451
-8.53436
-8.5495
-8.55934
-8.5636
-8.56232
-8.55588
-8.54454
-8.52813
-8.50637
-8.47914
-8.44659
-8.40904
-8.36683
-8.32019
-8.26936
-8.21453
-8.15585
-8.09354
-8.02784
-7.95894
-7.88689
-7.81169
-7.73325
-7.65141
-7.56606
-7.47709
-7.38439
-7.28776
-7.18699
-7.08181
-6.97197
-6.85719
-6.73728
-6.61203
-6.48133
-6.34498
-6.20291
-6.05497
-5.90113
-5.74124
-5.57532
-5.40334
-5.22537
-5.04144
-4.85164
-4.65606
-4.45491
-4.24832
-4.03651
-3.81966
-3.59799
-3.37172
-3.1411
-2.90633
-2.66767
-2.42533
-2.17954
-1.9305
-1.67845
-1.42361
-1.16621
-0.906345
-0.644132
-0.379785
-0.11353
0.154439
0.423911
0.69469
0.966557
1.23931
1.51271
1.78655
2.06057
2.33453
2.60816
2.88123
3.15346
3.42466
3.69454
3.96284
4.22922
4.49338
4.75499
5.01374
5.2693
5.52137
5.76967
6.01412
6.25442
6.48988
6.72003
6.9448
7.16413
7.37782
7.58573
7.7877
7.98374
8.17347
8.35631
8.53206
8.70074
8.86168
9.01552
9.15701
9.30408
9.38056
-7.14227
-7.14835
-7.16119
-7.17558
-7.18682
-7.19625
-7.20599
-7.21632
-7.22686
-7.23731
-7.24746
-7.25699
-7.26532
-7.27229
-7.27833
-7.28371
-7.28832
-7.29199
-7.29458
-7.29598
-7.29605
-7.29468
-7.2918
-7.28735
-7.28137
-7.27395
-7.26527
-7.25561
-7.24536
-7.23498
-7.22502
-7.21602
-7.20858
-7.20324
-7.20053
-7.2009
-7.2047
-7.21221
-7.22359
-7.23895
-7.25825
-7.28142
-7.30825
-7.33851
-7.37183
-7.4078
-7.44596
-7.48585
-7.52703
-7.56908
-7.6116
-7.65429
-7.69687
-7.73913
-7.78096
-7.82234
-7.86327
-7.90381
-7.94406
-7.98417
-8.02427
-8.06447
-8.10487
-8.14547
-8.18623
-8.22699
-8.26752
-8.30748
-8.3464
-8.38364
-8.41839
-8.44972
-8.47702
-8.50037
-8.51998
-8.53544
-8.54589
-8.55074
-8.55004
-8.54398
-8.53261
-8.51578
-8.49333
-8.46518
-8.43164
-8.39317
-8.35013
-8.30278
-8.25131
-8.19571
-8.13609
-8.07283
-8.00631
-7.93671
-7.8641
-7.78849
-7.7098
-7.6279
-7.54265
-7.45397
-7.36169
-7.26558
-7.16538
-7.06084
-6.95166
-6.83757
-6.71835
-6.59381
-6.46377
-6.32806
-6.18654
-6.03912
-5.88569
-5.72617
-5.56055