/*--------------------------------*- C++ -*----------------------------------*\
  =========                 |
  \\      /  F ield         | OpenFOAM: The Open Source CFD Toolbox
   \\    /   O peration     | Website:  https://openfoam.org
    \\  /    A nd           | Version:  13
     \\/     M anipulation  |
\*---------------------------------------------------------------------------*/
FoamFile
{
    format      ascii;
    class       surfaceScalarField;
    location    "700";
    object      phi;
}
// * * * * * * * * * * * * * * * * * * * * * * * * * * * * * * * * * * * * * //

dimensions      [0 3 -1 0 0 0 0];

internalField   nonuniform List<scalar> 
24170
(
3.0399e-06
1.48483e-07
2.87958e-06
1.60202e-07
2.72998e-06
1.49545e-07
2.59628e-06
1.33708e-07
2.47462e-06
1.21668e-07
2.37105e-06
1.03586e-07
2.28655e-06
8.44845e-08
2.21534e-06
7.12061e-08
2.1562e-06
5.91262e-08
2.10798e-06
4.8204e-08
2.07164e-06
3.63295e-08
2.04447e-06
2.71665e-08
2.02407e-06
2.03934e-08
2.00897e-06
1.50975e-08
1.99796e-06
1.10089e-08
1.99128e-06
6.68796e-09
1.99016e-06
1.10906e-09
-5.30645e-09
1.99546e-06
3.49391e-06
7.17578e-08
3.54606e-06
1.07856e-07
3.57551e-06
1.19867e-07
3.58804e-06
1.21081e-07
3.58375e-06
1.25905e-07
3.56405e-06
1.23268e-07
3.53583e-06
1.12673e-07
3.50481e-06
1.02211e-07
3.47323e-06
9.0688e-08
3.44257e-06
7.88566e-08
3.4094e-06
6.9482e-08
3.37359e-06
6.2969e-08
3.33845e-06
5.55257e-08
3.30436e-06
4.91824e-08
3.27111e-06
4.42495e-08
3.23992e-06
3.78763e-08
3.21215e-06
2.8878e-08
2.06212e-08
3.18622e-06
3.67567e-06
5.86032e-08
3.6969e-06
8.65431e-08
3.71387e-06
1.02879e-07
3.73108e-06
1.03868e-07
3.74997e-06
1.07055e-07
3.76764e-06
1.05613e-07
3.78182e-06
9.84921e-08
3.79301e-06
9.10226e-08
3.801e-06
8.26939e-08
3.80607e-06
7.37827e-08
3.80876e-06
6.67888e-08
3.80984e-06
6.18904e-08
3.8089e-06
5.64681e-08
3.80647e-06
5.161e-08
3.80319e-06
4.7527e-08
3.79883e-06
4.22337e-08
3.7924e-06
3.53086e-08
2.85344e-08
3.78448e-06
3.93477e-06
4.91948e-08
3.94381e-06
7.74845e-08
3.9511e-06
9.55253e-08
3.95678e-06
9.81159e-08
3.96426e-06
9.95425e-08
3.97221e-06
9.76401e-08
3.97946e-06
9.12187e-08
3.98639e-06
8.40796e-08
3.99264e-06
7.64427e-08
3.99795e-06
6.84702e-08
4.00285e-06
6.1875e-08
4.0079e-06
5.68415e-08
4.01259e-06
5.17786e-08
4.01704e-06
4.71544e-08
4.02156e-06
4.30023e-08
4.02565e-06
3.81446e-08
4.02856e-06
3.23944e-08
2.70395e-08
4.03005e-06
4.21795e-06
3.83852e-08
4.22197e-06
7.34768e-08
4.22855e-06
8.89705e-08
4.23488e-06
9.18132e-08
4.24156e-06
9.28907e-08
4.24796e-06
9.12633e-08
4.25333e-06
8.58529e-08
4.25808e-06
7.9341e-08
4.26215e-06
7.23763e-08
4.26541e-06
6.52143e-08
4.26827e-06
5.90087e-08
4.27121e-06
5.39059e-08
4.27401e-06
4.89783e-08
4.27677e-06
4.43944e-08
4.27967e-06
4.01052e-08
4.28238e-06
3.54306e-08
4.28445e-06
3.0322e-08
2.55915e-08
4.28589e-06
4.51665e-06
3.08263e-08
4.52385e-06
6.62903e-08
4.53168e-06
8.11333e-08
4.53819e-06
8.52708e-08
4.54451e-06
8.6557e-08
4.55059e-06
8.51631e-08
4.55578e-06
8.06474e-08
4.56025e-06
7.48537e-08
4.56406e-06
6.85613e-08
4.56715e-06
6.21249e-08
4.56982e-06
5.63387e-08
4.57242e-06
5.1304e-08
4.57488e-06
4.65128e-08
4.57727e-06
4.20066e-08
4.57967e-06
3.77008e-08
4.58186e-06
3.32337e-08
4.58356e-06
2.86263e-08
2.43444e-08
4.5848e-06
4.83767e-06
2.58908e-08
4.84618e-06
5.78462e-08
4.85347e-06
7.38924e-08
4.85994e-06
7.88247e-08
4.86632e-06
8.02022e-08
4.8724e-06
7.90971e-08
4.87774e-06
7.53152e-08
4.8824e-06
7.01996e-08
4.88643e-06
6.45339e-08
4.88984e-06
5.87222e-08
4.89284e-06
5.33434e-08
4.89565e-06
4.84964e-08
4.89827e-06
4.38899e-08
4.90076e-06
3.95194e-08
4.90315e-06
3.53121e-08
4.90528e-06
3.10967e-08
4.90699e-06
2.69176e-08
2.302e-08
4.90831e-06
5.184e-06
2.14802e-08
5.19101e-06
5.08553e-08
5.1986e-06
6.63049e-08
5.20536e-06
7.20417e-08
5.21174e-06
7.38125e-08
5.21778e-06
7.3042e-08
5.2232e-06
6.98851e-08
5.228e-06
6.53882e-08
5.23222e-06
6.0308e-08
5.23588e-06
5.5065e-08
5.23913e-06
5.00823e-08
5.24215e-06
4.54802e-08
5.24493e-06
4.11074e-08
5.24751e-06
3.69338e-08
5.24991e-06
3.2911e-08
5.25204e-06
2.89648e-08
5.2538e-06
2.51522e-08
2.16127e-08
5.25521e-06
5.55494e-06
1.78911e-08
5.56138e-06
4.44485e-08
5.56882e-06
5.88925e-08
5.57572e-06
6.5157e-08
5.58224e-06
6.73135e-08
5.58837e-06
6.69206e-08
5.59392e-06
6.43433e-08
5.59886e-06
6.04498e-08
5.60324e-06
5.59337e-08
5.60709e-06
5.12221e-08
5.61053e-06
4.66424e-08
5.6137e-06
4.23124e-08
5.61661e-06
3.8189e-08
5.6193e-06
3.42469e-08
5.62175e-06
3.04563e-08
5.62393e-06
2.679e-08
5.62578e-06
2.32994e-08
2.00679e-08
5.62732e-06
5.95274e-06
1.49342e-08
5.95877e-06
3.84264e-08
5.96584e-06
5.18266e-08
5.97273e-06
5.82582e-08
5.97935e-06
6.06783e-08
5.98562e-06
6.06399e-08
5.99135e-06
5.86036e-08
5.99649e-06
5.52989e-08
6.00107e-06
5.13434e-08
6.00514e-06
4.71443e-08
6.0088e-06
4.29801e-08
6.01214e-06
3.89659e-08
6.01521e-06
3.51165e-08
6.01803e-06
3.14284e-08
6.02059e-06
2.78942e-08
6.02286e-06
2.45136e-08
6.02484e-06
2.13246e-08
1.83786e-08
6.02652e-06
6.37925e-06
1.24985e-08
6.38481e-06
3.2893e-08
6.39152e-06
4.51274e-08
6.39831e-06
5.14822e-08
6.40495e-06
5.4037e-08
6.41132e-06
5.42806e-08
6.41721e-06
5.27095e-08
6.42257e-06
4.99423e-08
6.42739e-06
4.65183e-08
6.43172e-06
4.28113e-08
6.43563e-06
3.90655e-08
6.4392e-06
3.53987e-08
6.44246e-06
3.18524e-08
6.44544e-06
2.84474e-08
6.44814e-06
2.51905e-08
6.45056e-06
2.20977e-08
6.45268e-06
1.91974e-08
1.65254e-08
6.45453e-06
5.74259e-06
1.0752e-08
5.74686e-06
2.8633e-08
5.75224e-06
3.9757e-08
5.75785e-06
4.58774e-08
5.76342e-06
4.84576e-08
5.76883e-06
4.88751e-08
5.7739e-06
4.76299e-08
5.77858e-06
4.5264e-08
5.78284e-06
4.22577e-08
5.7867e-06
3.89474e-08
5.79021e-06
3.55544e-08
5.79341e-06
3.21944e-08
5.79634e-06
2.89283e-08
5.799e-06
2.57794e-08
5.80142e-06
2.27744e-08
5.80359e-06
1.99278e-08
5.80552e-06
1.72689e-08
1.48235e-08
5.80721e-06
6.99989e-06
9.02219e-09
7.00438e-06
2.41593e-08
7.01018e-06
3.39542e-08
7.0164e-06
3.96585e-08
7.0227e-06
4.21615e-08
7.02887e-06
4.27042e-08
7.03474e-06
4.17605e-08
7.0402e-06
3.97942e-08
7.04524e-06
3.72174e-08
7.04985e-06
3.43311e-08
7.05407e-06
3.13303e-08
7.05794e-06
2.83283e-08
7.06148e-06
2.53875e-08
7.06471e-06
2.25509e-08
7.06764e-06
1.98408e-08
7.07029e-06
1.72844e-08
7.07266e-06
1.48978e-08
1.27135e-08
7.07477e-06
8.53256e-06
7.30911e-09
8.53716e-06
1.95717e-08
8.54332e-06
2.78063e-08
8.55011e-06
3.28744e-08
8.5571e-06
3.51768e-08
8.56404e-06
3.57685e-08
8.57072e-06
3.50802e-08
8.57702e-06
3.34917e-08
8.58289e-06
3.1343e-08
8.58833e-06
2.8895e-08
8.59334e-06
2.63141e-08
8.59796e-06
2.37109e-08
8.6022e-06
2.11467e-08
8.60608e-06
1.86675e-08
8.60962e-06
1.63012e-08
8.61284e-06
1.4073e-08
8.61574e-06
1.19984e-08
1.01023e-08
8.61835e-06
1.04009e-05
5.6062e-09
1.04056e-05
1.49488e-08
1.0412e-05
2.13932e-08
1.04193e-05
2.5581e-08
1.04269e-05
2.75248e-08
1.04346e-05
2.80671e-08
1.04422e-05
2.75638e-08
1.04493e-05
2.63127e-08
1.04561e-05
2.45811e-08
1.04624e-05
2.25729e-08
1.04683e-05
2.04404e-08
1.04737e-05
1.8268e-08
1.04788e-05
1.6126e-08
1.04834e-05
1.40483e-08
1.04876e-05
1.20714e-08
1.04915e-05
1.02105e-08
1.0495e-05
8.48456e-09
6.91024e-09
1.04982e-05
1.26785e-05
3.90937e-09
1.26831e-05
1.0307e-08
1.26898e-05
1.47687e-08
1.26975e-05
1.7812e-08
1.27059e-05
1.92114e-08
1.27144e-05
1.95752e-08
1.27228e-05
1.91624e-08
1.27309e-05
1.819e-08
1.27386e-05
1.68444e-08
1.27459e-05
1.52827e-08
1.27528e-05
1.36112e-08
1.27591e-05
1.19109e-08
1.2765e-05
1.02274e-08
1.27705e-05
8.60172e-09
1.27755e-05
7.054e-09
1.27801e-05
5.60705e-09
1.27843e-05
4.26555e-09
3.05121e-09
1.27882e-05
1.54549e-05
2.19195e-09
1.54596e-05
5.58737e-09
1.54665e-05
7.8801e-09
1.54748e-05
9.52236e-09
1.54839e-05
1.01666e-08
1.54932e-05
1.0201e-08
1.55026e-05
9.7702e-09
1.55118e-05
9.00186e-09
1.55207e-05
8.00861e-09
1.55291e-05
6.88271e-09
1.5537e-05
5.69534e-09
1.55444e-05
4.49527e-09
1.55513e-05
3.3175e-09
1.55577e-05
2.18684e-09
1.55636e-05
1.12018e-09
1.55691e-05
1.30549e-10
1.55742e-05
-7.77952e-10
-1.59224e-09
1.55788e-05
1.88394e-05
3.8285e-10
1.88445e-05
5.81476e-10
1.88519e-05
4.69773e-10
1.88609e-05
4.49875e-10
1.8871e-05
1.26035e-10
1.88815e-05
-3.20011e-10
1.88921e-05
-8.72679e-10
1.89026e-05
-1.49987e-09
1.89128e-05
-2.16909e-09
1.89225e-05
-2.85383e-09
1.89318e-05
-3.53275e-09
1.89404e-05
-4.18948e-09
1.89486e-05
-4.81201e-09
1.89561e-05
-5.39111e-09
1.89632e-05
-5.92063e-09
1.89697e-05
-6.39527e-09
1.89758e-05
-6.81541e-09
-7.17419e-09
1.89813e-05
2.29654e-05
-1.71234e-09
2.29712e-05
-5.22678e-09
2.29799e-05
-8.1512e-09
2.29904e-05
-1.01355e-08
2.30022e-05
-1.16223e-08
2.30145e-05
-1.26627e-08
2.3027e-05
-1.33942e-08
2.30394e-05
-1.38855e-08
2.30514e-05
-1.4203e-08
2.3063e-05
-1.43913e-08
2.30739e-05
-1.44922e-08
2.30843e-05
-1.45246e-08
2.3094e-05
-1.45089e-08
2.3103e-05
-1.44517e-08
2.31115e-05
-1.4364e-08
2.31193e-05
-1.42461e-08
2.31266e-05
-1.41066e-08
-1.39423e-08
2.31334e-05
1.68124e-05
-3.45318e-09
1.68172e-05
-9.94142e-09
1.6824e-05
-1.50224e-08
1.68323e-05
-1.83958e-08
1.68413e-05
-2.06457e-08
1.68507e-05
-2.20505e-08
1.68601e-05
-2.28357e-08
1.68694e-05
-2.31646e-08
1.68784e-05
-2.31594e-08
1.68869e-05
-2.29423e-08
1.6895e-05
-2.25792e-08
1.69026e-05
-2.21323e-08
1.69097e-05
-2.16261e-08
1.69163e-05
-2.10961e-08
1.69225e-05
-2.05467e-08
1.69283e-05
-1.99976e-08
1.69336e-05
-1.94455e-08
-1.89042e-08
1.69386e-05
1.46364e-05
-5.29186e-09
1.46413e-05
-1.48497e-08
1.46482e-05
-2.19457e-08
1.46563e-05
-2.64307e-08
1.46648e-05
-2.92311e-08
1.46736e-05
-3.08418e-08
1.46824e-05
-3.15759e-08
1.46908e-05
-3.16465e-08
1.4699e-05
-3.12763e-08
1.47066e-05
-3.06239e-08
1.47139e-05
-2.98035e-08
1.47206e-05
-2.88839e-08
1.47269e-05
-2.79212e-08
1.47328e-05
-2.69463e-08
1.47382e-05
-2.59838e-08
1.47432e-05
-2.50415e-08
1.47479e-05
-2.41306e-08
-2.32515e-08
1.47523e-05
1.27422e-05
-7.36969e-09
1.27476e-05
-2.02742e-08
1.27549e-05
-2.91882e-08
1.27629e-05
-3.44511e-08
1.27712e-05
-3.75762e-08
1.27796e-05
-3.92536e-08
1.27879e-05
-3.9799e-08
1.27957e-05
-3.9523e-08
1.28032e-05
-3.87222e-08
1.28102e-05
-3.76079e-08
1.28167e-05
-3.63164e-08
1.28227e-05
-3.49329e-08
1.28283e-05
-3.35275e-08
1.28335e-05
-3.21358e-08
1.28383e-05
-3.079e-08
1.28428e-05
-2.94938e-08
1.28469e-05
-2.82601e-08
-2.70869e-08
1.28507e-05
1.10934e-05
-9.81189e-09
1.10996e-05
-2.65502e-08
1.11073e-05
-3.6884e-08
1.11154e-05
-4.25024e-08
1.11236e-05
-4.57613e-08
1.11317e-05
-4.7358e-08
1.11395e-05
-4.75958e-08
1.11468e-05
-4.6882e-08
1.11537e-05
-4.56019e-08
1.11601e-05
-4.40051e-08
1.1166e-05
-4.22288e-08
1.11715e-05
-4.03875e-08
1.11765e-05
-3.85474e-08
1.11811e-05
-3.67656e-08
1.11854e-05
-3.50574e-08
1.11893e-05
-3.34418e-08
1.1193e-05
-3.1915e-08
-3.04817e-08
1.11964e-05
9.65815e-06
-1.27502e-08
9.66568e-06
-3.40763e-08
9.67378e-06
-4.49568e-08
9.68182e-06
-5.05466e-08
9.68986e-06
-5.38014e-08
9.6977e-06
-5.51956e-08
9.70511e-06
-5.50036e-08
9.71201e-06
-5.37884e-08
9.71841e-06
-5.20024e-08
9.72431e-06
-4.98984e-08
9.72972e-06
-4.76425e-08
9.73468e-06
-4.53427e-08
9.73921e-06
-4.30859e-08
9.74337e-06
-4.09212e-08
9.74719e-06
-3.88779e-08
9.75071e-06
-3.69629e-08
9.75398e-06
-3.51742e-08
-3.35134e-08
9.75701e-06
8.40917e-06
-1.65698e-08
8.41819e-06
-4.30921e-08
8.42646e-06
-5.32341e-08
8.43439e-06
-5.84714e-08
8.4423e-06
-6.17066e-08
8.44991e-06
-6.28054e-08
8.45702e-06
-6.21181e-08
8.4636e-06
-6.03659e-08
8.46965e-06
-5.80489e-08
8.47518e-06
-5.54337e-08
8.48022e-06
-5.26813e-08
8.4848e-06
-4.99231e-08
8.48895e-06
-4.72458e-08
8.49274e-06
-4.47088e-08
8.4962e-06
-4.23384e-08
8.49938e-06
-4.0138e-08
8.50231e-06
-3.81081e-08
-3.62265e-08
8.50503e-06
7.3227e-06
-2.19906e-08
7.33281e-06
-5.31896e-08
7.34112e-06
-6.1543e-08
7.34909e-06
-6.6441e-08
7.35713e-06
-6.97467e-08
7.36482e-06
-7.0498e-08
7.37196e-06
-6.92607e-08
7.37852e-06
-6.69284e-08
7.38451e-06
-6.40401e-08
7.38994e-06
-6.08612e-08
7.39483e-06
-5.7575e-08
7.39923e-06
-5.43239e-08
7.40317e-06
-5.11952e-08
7.40672e-06
-4.82582e-08
7.40992e-06
-4.554e-08
7.41283e-06
-4.30449e-08
7.41549e-06
-4.07727e-08
-3.8704e-08
7.41796e-06
6.37837e-06
-3.02996e-08
6.3882e-06
-6.30189e-08
6.39741e-06
-7.07577e-08
6.4068e-06
-7.58451e-08
6.41622e-06
-7.91589e-08
6.42506e-06
-7.93382e-08
6.43312e-06
-7.73278e-08
6.44039e-06
-7.42e-08
6.44688e-06
-7.0531e-08
6.45262e-06
-6.65988e-08
6.45764e-06
-6.26106e-08
6.46202e-06
-5.87019e-08
6.46581e-06
-5.4985e-08
6.46908e-06
-5.15288e-08
6.47189e-06
-4.83504e-08
6.47431e-06
-4.54686e-08
6.47642e-06
-4.28804e-08
-4.05709e-08
6.47827e-06
5.55901e-06
-4.38473e-08
5.57084e-06
-7.48604e-08
5.58604e-06
-8.59654e-08
5.60212e-06
-9.19416e-08
5.61686e-06
-9.38978e-08
5.6295e-06
-9.19812e-08
5.63999e-06
-8.78161e-08
5.64847e-06
-8.26799e-08
5.65512e-06
-7.71858e-08
5.66013e-06
-7.16228e-08
5.6637e-06
-6.61792e-08
5.66598e-06
-6.09925e-08
5.66715e-06
-5.61553e-08
5.66738e-06
-5.17596e-08
5.66682e-06
-4.77898e-08
5.66563e-06
-4.42768e-08
5.66398e-06
-4.12411e-08
-3.88055e-08
5.66222e-06
4.88732e-06
-1.03559e-07
4.93205e-06
-1.19606e-07
4.96369e-06
-1.17613e-07
4.98187e-06
-1.10139e-07
4.98843e-06
-1.00468e-07
4.98644e-06
-8.9992e-08
4.9786e-06
-7.99786e-08
4.96668e-06
-7.07585e-08
4.95187e-06
-6.23771e-08
4.93503e-06
-5.48007e-08
4.91682e-06
-4.79754e-08
4.8977e-06
-4.18671e-08
4.87803e-06
-3.64943e-08
4.85813e-06
-3.18598e-08
4.83839e-06
-2.80512e-08
4.8192e-06
-2.50812e-08
4.80069e-06
-2.27422e-08
-2.12925e-08
4.78317e-06
4.09912e-06
3.97951e-06
3.8619e-06
3.75176e-06
3.65129e-06
3.5613e-06
3.48132e-06
3.41056e-06
3.34818e-06
3.29338e-06
3.2454e-06
3.20354e-06
3.16704e-06
3.13518e-06
3.10713e-06
3.08205e-06
3.0593e-06
3.03801e-06
-7.45501e-09
7.46663e-09
-2.0162e-08
1.2785e-08
-3.4275e-08
1.41153e-08
-4.63629e-08
1.21818e-08
-5.1878e-08
5.48075e-09
-4.50238e-08
-6.71962e-09
-2.39816e-08
-2.1149e-08
9.83695e-09
-3.36701e-08
5.21484e-08
-4.24555e-08
9.90188e-08
-4.67346e-08
1.45686e-07
-4.68092e-08
1.89695e-07
-4.38932e-08
2.28574e-07
-3.90135e-08
2.61568e-07
-3.28978e-08
2.87518e-07
-2.60836e-08
3.06453e-07
-1.88545e-08
3.17683e-07
-1.13717e-08
3.21357e-07
-3.60527e-09
3.16824e-07
4.39248e-09
3.04511e-07
1.23787e-08
2.84423e-07
1.99445e-08
2.57715e-07
2.67693e-08
2.25108e-07
3.24645e-08
1.885e-07
3.66514e-08
1.49477e-07
3.8874e-08
1.10674e-07
3.8797e-08
7.42537e-08
3.6222e-08
4.28214e-08
3.13485e-08
1.77383e-08
2.48316e-08
-2.39389e-10
1.78062e-08
-1.19086e-08
1.13824e-08
-1.79547e-08
5.84516e-09
-1.87715e-08
5.40851e-10
-1.37664e-08
-5.20594e-09
-2.05923e-09
-1.19785e-08
1.75201e-08
-1.97568e-08
4.44409e-08
-2.71264e-08
7.55269e-08
-3.12256e-08
1.05539e-07
-3.01624e-08
1.29761e-07
-2.43401e-08
1.45277e-07
-1.56396e-08
1.52153e-07
-6.98607e-09
1.53186e-07
-1.14386e-09
1.51728e-07
1.35234e-09
1.503e-07
1.3242e-09
1.49939e-07
2.54727e-10
1.46251e-07
3.58099e-09
1.30881e-07
1.52827e-08
9.54676e-08
3.53196e-08
3.35717e-08
6.18165e-08
-5.32416e-08
8.6745e-08
-1.59178e-07
1.05895e-07
-2.80502e-07
1.21287e-07
-4.13683e-07
1.33151e-07
-5.54918e-07
1.41205e-07
-7.00118e-07
1.45161e-07
-8.44395e-07
1.44246e-07
-9.84231e-07
1.3979e-07
-1.11833e-06
1.34071e-07
-1.24539e-06
1.27014e-07
-1.36319e-06
1.17778e-07
-1.47171e-06
1.08487e-07
-1.57213e-06
1.00401e-07
-1.66364e-06
9.14773e-08
-1.74723e-06
8.35763e-08
-1.8245e-06
7.72396e-08
-1.89557e-06
7.10512e-08
-1.96135e-06
6.57528e-08
-2.02242e-06
6.10606e-08
-2.07938e-06
5.69289e-08
-2.13269e-06
5.3293e-08
-2.18277e-06
5.00578e-08
-2.22997e-06
4.71642e-08
-2.27454e-06
4.45447e-08
-2.31672e-06
4.21512e-08
-2.3567e-06
3.99367e-08
-2.39461e-06
3.78704e-08
-2.43058e-06
3.59216e-08
-2.4647e-06
3.40715e-08
-2.49705e-06
3.23001e-08
-2.5277e-06
3.05979e-08
-2.55671e-06
2.89525e-08
-2.58412e-06
2.73594e-08
-2.60998e-06
2.58109e-08
-2.63433e-06
2.43034e-08
-2.65721e-06
2.28341e-08
-2.67867e-06
2.14013e-08
-2.69872e-06
1.99997e-08
-2.71738e-06
1.86357e-08
-2.73468e-06
1.72934e-08
-2.75067e-06
1.59792e-08
-2.76539e-06
1.467e-08
-2.77883e-06
1.33765e-08
-2.79099e-06
1.20842e-08
-2.80185e-06
1.07994e-08
-2.81142e-06
9.50658e-09
-2.81968e-06
8.20525e-09
-2.82661e-06
6.88011e-09
-2.83216e-06
5.51989e-09
-2.83628e-06
4.10806e-09
-2.83891e-06
2.62099e-09
-2.83995e-06
1.06208e-09
-2.83942e-06
-5.03292e-10
-2.83751e-06
-1.86836e-09
-2.83442e-06
-3.05831e-09
-2.83017e-06
-4.2229e-09
-2.82477e-06
-5.39378e-09
-2.8182e-06
-6.57222e-09
-2.81045e-06
-7.76714e-09
-2.8015e-06
-8.97502e-09
-2.79134e-06
-1.01968e-08
-2.77995e-06
-1.14329e-08
-2.76731e-06
-1.26789e-08
-2.75342e-06
-1.39394e-08
-2.73825e-06
-1.5206e-08
-2.72181e-06
-1.64856e-08
-2.70408e-06
-1.77665e-08
-2.68506e-06
-1.90552e-08
-2.66474e-06
-2.03405e-08
-2.64312e-06
-2.16316e-08
-2.62022e-06
-2.29213e-08
-2.59605e-06
-2.42176e-08
-2.57059e-06
-2.55039e-08
-2.54385e-06
-2.67901e-08
-2.51582e-06
-2.80547e-08
-2.48654e-06
-2.93152e-08
-2.45599e-06
-3.05518e-08
-2.42422e-06
-3.17842e-08
-2.3912e-06
-3.29921e-08
-2.35699e-06
-3.41964e-08
-2.32158e-06
-3.53758e-08
-2.285e-06
-3.65437e-08
-2.24726e-06
-3.76755e-08
-2.20842e-06
-3.87933e-08
-2.16846e-06
-3.98713e-08
-2.12746e-06
-4.09187e-08
-2.08546e-06
-4.19013e-08
-2.04252e-06
-4.28297e-08
-1.99869e-06
-4.37047e-08
-1.95385e-06
-4.47042e-08
-1.90797e-06
-4.5756e-08
-1.86114e-06
-4.67071e-08
-1.81341e-06
-4.76267e-08
-1.76479e-06
-4.85218e-08
-1.71531e-06
-4.93898e-08
-1.66499e-06
-5.02353e-08
-1.61388e-06
-5.10547e-08
-1.56197e-06
-5.18515e-08
-1.50932e-06
-5.26188e-08
-1.45593e-06
-5.33612e-08
-1.40185e-06
-5.40685e-08
-1.34711e-06
-5.47463e-08
-1.29175e-06
-5.53794e-08
-1.23581e-06
-5.59757e-08
-1.17935e-06
-5.65213e-08
-1.12239e-06
-5.7026e-08
-1.065e-06
-5.748e-08
-1.00721e-06
-5.78937e-08
-9.4906e-07
-5.82636e-08
-8.90602e-07
-5.85933e-08
-8.31856e-07
-5.88867e-08
-7.72884e-07
-5.91357e-08
-7.13703e-07
-5.93444e-08
-6.54384e-07
-5.95063e-08
-5.9495e-07
-5.96166e-08
-5.35481e-07
-5.96775e-08
-4.75994e-07
-5.96863e-08
-4.16574e-07
-5.96468e-08
-3.57226e-07
-5.95595e-08
-2.98026e-07
-5.94383e-08
-2.39012e-07
-5.92336e-08
-1.80291e-07
-5.8967e-08
-1.21847e-07
-5.86655e-08
-6.38087e-08
-5.82833e-08
-6.33534e-09
-5.76908e-08
5.02564e-08
-5.68217e-08
1.05099e-07
-5.50368e-08
1.55875e-07
-5.09854e-08
2.01058e-07
-4.53759e-08
-1.79284e-08
2.18835e-07
-3.27536e-09
1.07504e-08
-8.87907e-09
1.85239e-08
-1.15507e-08
1.67481e-08
-4.43349e-09
5.22785e-09
1.67244e-08
-1.57589e-08
5.19454e-08
-4.18388e-08
9.69526e-08
-6.62372e-08
1.46935e-07
-8.35856e-08
1.96705e-07
-9.22966e-08
2.43334e-07
-9.33018e-08
2.84996e-07
-8.85361e-08
3.2119e-07
-8.00295e-08
3.51497e-07
-6.93848e-08
3.76317e-07
-5.76671e-08
3.957e-07
-4.55368e-08
4.10239e-07
-3.33537e-08
4.20085e-07
-2.12978e-08
4.25961e-07
-9.45517e-09
4.28069e-07
2.19922e-09
4.26701e-07
1.37652e-08
4.21303e-07
2.52572e-08
4.11538e-07
3.65355e-08
3.96652e-07
4.72662e-08
3.76355e-07
5.69349e-08
3.50295e-07
6.48413e-08
3.1886e-07
7.0185e-08
2.82784e-07
7.21791e-08
2.43746e-07
7.03054e-08
2.03925e-07
6.44919e-08
1.66401e-07
5.52003e-08
1.34379e-07
4.31796e-08
1.10922e-07
2.91149e-08
9.77935e-08
1.33863e-08
9.59696e-08
-3.5976e-09
1.04803e-07
-2.10578e-08
1.22385e-07
-3.75047e-08
1.4408e-07
-4.89915e-08
1.63649e-07
-5.09174e-08
1.76254e-07
-4.28919e-08
1.80051e-07
-2.82456e-08
1.74846e-07
-1.05504e-08
1.61669e-07
6.07807e-09
1.42269e-07
1.81265e-08
1.12745e-07
3.07676e-08
6.36217e-08
5.03017e-08
-1.40877e-08
7.78424e-08
-1.23351e-07
1.12739e-07
-2.57617e-07
1.49487e-07
-4.06267e-07
1.83926e-07
-5.6031e-07
2.15829e-07
-7.16329e-07
2.42739e-07
-8.72513e-07
2.62061e-07
-1.0254e-06
2.74155e-07
-1.17155e-06
2.79288e-07
-1.30784e-06
2.77467e-07
-1.43193e-06
2.6923e-07
-1.54354e-06
2.5584e-07
-1.6431e-06
2.3932e-07
-1.73075e-06
2.217e-07
-1.80775e-06
2.03986e-07
-1.87647e-06
1.86482e-07
-1.93805e-06
1.70037e-07
-1.99303e-06
1.55366e-07
-2.04353e-06
1.41957e-07
-2.09009e-06
1.30118e-07
-2.13287e-06
1.20006e-07
-2.17295e-06
1.11108e-07
-2.2106e-06
1.03383e-07
-2.24617e-06
9.66193e-08
-2.27991e-06
9.06524e-08
-2.31198e-06
8.53465e-08
-2.34252e-06
8.05755e-08
-2.37161e-06
7.62387e-08
-2.39934e-06
7.22484e-08
-2.42575e-06
6.85365e-08
-2.45088e-06
6.50466e-08
-2.47478e-06
6.17351e-08
-2.49746e-06
5.85675e-08
-2.51894e-06
5.55185e-08
-2.53925e-06
5.25674e-08
-2.55839e-06
4.97008e-08
-2.57638e-06
4.69069e-08
-2.59323e-06
4.41784e-08
-2.60897e-06
4.15087e-08
-2.62359e-06
3.88933e-08
-2.63712e-06
3.63285e-08
-2.64958e-06
3.38111e-08
-2.66095e-06
3.13403e-08
-2.67125e-06
2.89098e-08
-2.68047e-06
2.65213e-08
-2.68866e-06
2.41556e-08
-2.69584e-06
2.18127e-08
-2.702e-06
1.94886e-08
-2.70714e-06
1.71804e-08
-2.71128e-06
1.48856e-08
-2.71442e-06
1.25977e-08
-2.71656e-06
1.03109e-08
-2.71773e-06
8.01736e-09
-2.71794e-06
5.71159e-09
-2.71723e-06
3.39443e-09
-2.71568e-06
1.07541e-09
-2.71339e-06
-1.2148e-09
-2.71042e-06
-3.45276e-09
-2.70659e-06
-5.67199e-09
-2.70169e-06
-7.92475e-09
-2.69569e-06
-1.02058e-08
-2.68856e-06
-1.25169e-08
-2.68028e-06
-1.48574e-08
-2.67083e-06
-1.72307e-08
-2.66019e-06
-1.9634e-08
-2.64835e-06
-2.20676e-08
-2.63529e-06
-2.45287e-08
-2.62098e-06
-2.70153e-08
-2.60543e-06
-2.95254e-08
-2.58861e-06
-3.2055e-08
-2.57052e-06
-3.46022e-08
-2.55116e-06
-3.71608e-08
-2.53051e-06
-3.97251e-08
-2.50857e-06
-4.22916e-08
-2.48535e-06
-4.48615e-08
-2.46086e-06
-4.74327e-08
-2.4351e-06
-5.00044e-08
-2.40808e-06
-5.25652e-08
-2.37979e-06
-5.51109e-08
-2.35024e-06
-5.76301e-08
-2.31945e-06
-6.01256e-08
-2.28742e-06
-6.25895e-08
-2.25418e-06
-6.50268e-08
-2.21974e-06
-6.74292e-08
-2.18412e-06
-6.9802e-08
-2.14734e-06
-7.21354e-08
-2.10942e-06
-7.44312e-08
-2.07038e-06
-7.66794e-08
-2.03024e-06
-7.88885e-08
-1.98901e-06
-8.10468e-08
-1.94672e-06
-8.3153e-08
-1.90336e-06
-8.51912e-08
-1.85894e-06
-8.71725e-08
-1.81344e-06
-8.91189e-08
-1.76696e-06
-9.10925e-08
-1.71958e-06
-9.30506e-08
-1.67127e-06
-9.49314e-08
-1.62207e-06
-9.67548e-08
-1.572e-06
-9.85304e-08
-1.52107e-06
-1.00253e-07
-1.46933e-06
-1.01928e-07
-1.41678e-06
-1.03551e-07
-1.36347e-06
-1.05126e-07
-1.30942e-06
-1.06643e-07
-1.25466e-06
-1.08109e-07
-1.19921e-06
-1.09506e-07
-1.14312e-06
-1.10843e-07
-1.08642e-06
-1.12093e-07
-1.02916e-06
-1.13266e-07
-9.71379e-07
-1.14339e-07
-9.13133e-07
-1.15328e-07
-8.5446e-07
-1.16215e-07
-7.95416e-07
-1.17021e-07
-7.36033e-07
-1.17732e-07
-6.76369e-07
-1.18364e-07
-6.16456e-07
-1.18908e-07
-5.56348e-07
-1.19372e-07
-4.9608e-07
-1.19741e-07
-4.35711e-07
-1.20023e-07
-3.75282e-07
-1.20193e-07
-3.14857e-07
-1.20268e-07
-2.54472e-07
-1.20233e-07
-1.94195e-07
-1.20104e-07
-1.34056e-07
-1.19872e-07
-7.41079e-08
-1.19575e-07
-1.43205e-08
-1.192e-07
4.52844e-08
-1.18762e-07
1.04573e-07
-1.1813e-07
1.63299e-07
-1.17192e-07
2.21229e-07
-1.15789e-07
2.7783e-07
-1.13593e-07
3.32466e-07
-1.09828e-07
3.84614e-07
-1.03294e-07
4.31223e-07
-9.21353e-08
-6.14082e-08
4.74574e-07
4.46772e-10
1.03006e-08
3.94187e-09
1.51164e-08
1.77809e-08
2.87849e-09
4.92895e-08
-2.62164e-08
9.72078e-08
-6.37189e-08
1.53202e-07
-9.7786e-08
2.07782e-07
-1.20858e-07
2.55568e-07
-1.31327e-07
2.94549e-07
-1.31316e-07
3.25371e-07
-1.24078e-07
3.4929e-07
-1.12492e-07
3.67916e-07
-9.86116e-08
3.82219e-07
-8.37271e-08
3.93161e-07
-6.85711e-08
4.01112e-07
-5.35333e-08
4.06594e-07
-3.88068e-08
4.0972e-07
-2.44779e-08
4.10869e-07
-1.05877e-08
4.10158e-07
2.84867e-09
4.08072e-07
1.58571e-08
4.04765e-07
2.84988e-08
4.00498e-07
4.07935e-08
3.95022e-07
5.26711e-08
3.88013e-07
6.39158e-08
3.78661e-07
7.41119e-08
3.66181e-07
8.26098e-08
3.49726e-07
8.85372e-08
3.29053e-07
9.08987e-08
3.0464e-07
8.8792e-08
2.781e-07
8.16377e-08
2.51825e-07
6.93204e-08
2.28573e-07
5.22434e-08
2.10539e-07
3.12629e-08
1.99072e-07
7.72866e-09
1.93679e-07
-1.58129e-08
1.90133e-07
-3.40735e-08
1.81573e-07
-4.05414e-08
1.64228e-07
-3.3662e-08
1.37943e-07
-1.67008e-08
1.03434e-07
6.17731e-09
5.90843e-08
3.36949e-08
-2.70577e-10
6.53328e-08
-8.2121e-08
9.98862e-08
-1.89677e-07
1.38261e-07
-3.19882e-07
1.80462e-07
-4.66236e-07
2.24162e-07
-6.19407e-07
2.65881e-07
-7.72707e-07
3.02765e-07
-9.21347e-07
3.32545e-07
-1.05993e-06
3.54391e-07
-1.18525e-06
3.68046e-07
-1.29659e-06
3.73392e-07
-1.39361e-06
3.71153e-07
-1.47664e-06
3.62304e-07
-1.54715e-06
3.47968e-07
-1.60745e-06
3.29517e-07
-1.66015e-06
3.08514e-07
-1.70733e-06
2.86483e-07
-1.75033e-06
2.64684e-07
-1.79025e-06
2.4389e-07
-1.82828e-06
2.24487e-07
-1.86499e-06
2.06731e-07
-1.90043e-06
1.90794e-07
-1.93506e-06
1.76562e-07
-1.96892e-06
1.6397e-07
-2.00184e-06
1.5291e-07
-2.03389e-06
1.43144e-07
-2.06503e-06
1.34504e-07
-2.09523e-06
1.26807e-07
-2.12448e-06
1.1989e-07
-2.15276e-06
1.13613e-07
-2.18006e-06
1.07856e-07
-2.20635e-06
1.02518e-07
-2.23163e-06
9.75155e-08
-2.25589e-06
9.27794e-08
-2.27912e-06
8.82551e-08
-2.30131e-06
8.39012e-08
-2.32245e-06
7.96844e-08
-2.34253e-06
7.55809e-08
-2.36156e-06
7.15728e-08
-2.37954e-06
6.7648e-08
-2.39646e-06
6.37978e-08
-2.41232e-06
6.00163e-08
-2.42713e-06
5.62994e-08
-2.44091e-06
5.26441e-08
-2.45366e-06
4.90483e-08
-2.46539e-06
4.55102e-08
-2.4761e-06
4.20278e-08
-2.48579e-06
3.86009e-08
-2.49449e-06
3.52199e-08
-2.50223e-06
3.18808e-08
-2.50901e-06
2.85755e-08
-2.51485e-06
2.52972e-08
-2.51975e-06
2.20459e-08
-2.52371e-06
1.88153e-08
-2.52674e-06
1.56013e-08
-2.52885e-06
1.23974e-08
-2.53004e-06
9.19585e-09
-2.53033e-06
5.99438e-09
-2.52973e-06
2.7883e-09
-2.52823e-06
-4.14628e-10
-2.52582e-06
-3.6144e-09
-2.52243e-06
-6.81628e-09
-2.51803e-06
-1.00597e-08
-2.51257e-06
-1.33645e-08
-2.50604e-06
-1.67288e-08
-2.49841e-06
-2.01457e-08
-2.48966e-06
-2.36162e-08
-2.47976e-06
-2.7138e-08
-2.46871e-06
-3.07092e-08
-2.45647e-06
-3.4328e-08
-2.44303e-06
-3.79898e-08
-2.42838e-06
-4.16925e-08
-2.4125e-06
-4.54297e-08
-2.39539e-06
-4.91989e-08
-2.37702e-06
-5.29919e-08
-2.3574e-06
-5.68031e-08
-2.33651e-06
-6.06222e-08
-2.31437e-06
-6.44464e-08
-2.29097e-06
-6.82724e-08
-2.26632e-06
-7.20993e-08
-2.24043e-06
-7.59197e-08
-2.2133e-06
-7.97256e-08
-2.18494e-06
-8.35034e-08
-2.15534e-06
-8.72481e-08
-2.12452e-06
-9.09526e-08
-2.09251e-06
-9.4616e-08
-2.0593e-06
-9.82332e-08
-2.02492e-06
-1.01803e-07
-1.98939e-06
-1.05322e-07
-1.95272e-06
-1.08787e-07
-1.91494e-06
-1.12193e-07
-1.87606e-06
-1.15536e-07
-1.8361e-06
-1.18819e-07
-1.79507e-06
-1.22038e-07
-1.753e-06
-1.25183e-07
-1.70989e-06
-1.28252e-07
-1.66576e-06
-1.31249e-07
-1.62063e-06
-1.34194e-07
-1.57455e-06
-1.3711e-07
-1.52757e-06
-1.39975e-07
-1.4797e-06
-1.42761e-07
-1.43095e-06
-1.4547e-07
-1.38134e-06
-1.48106e-07
-1.33089e-06
-1.50666e-07
-1.27965e-06
-1.5315e-07
-1.22762e-06
-1.55557e-07
-1.17485e-06
-1.57885e-07
-1.12135e-06
-1.60132e-07
-1.06716e-06
-1.62291e-07
-1.01231e-06
-1.64358e-07
-9.56834e-07
-1.66321e-07
-9.00769e-07
-1.68166e-07
-8.44163e-07
-1.69881e-07
-7.8706e-07
-1.71457e-07
-7.29513e-07
-1.7289e-07
-6.71567e-07
-1.74182e-07
-6.13273e-07
-1.75334e-07
-5.54677e-07
-1.76352e-07
-4.95827e-07
-1.77235e-07
-4.36771e-07
-1.77989e-07
-3.77554e-07
-1.78612e-07
-3.18224e-07
-1.79095e-07
-2.58832e-07
-1.79436e-07
-1.9943e-07
-1.79619e-07
-1.4007e-07
-1.79647e-07
-8.08011e-08
-1.79522e-07
-2.16545e-08
-1.79268e-07
3.73416e-08
-1.78885e-07
9.61236e-08
-1.78369e-07
1.54621e-07
-1.77708e-07
2.12737e-07
-1.76886e-07
2.70387e-07
-1.75787e-07
3.27463e-07
-1.74275e-07
3.83782e-07
-1.72115e-07
4.39042e-07
-1.68859e-07
4.92902e-07
-1.63694e-07
5.44992e-07
-1.55395e-07
5.94534e-07
-1.41691e-07
-1.11823e-07
6.44944e-07
9.11439e-11
1.0193e-08
1.23574e-08
2.89775e-09
4.96599e-08
-3.44632e-08
1.08287e-07
-8.48025e-08
1.72405e-07
-1.27868e-07
2.28633e-07
-1.53975e-07
2.71007e-07
-1.63259e-07
3.00098e-07
-1.60377e-07
3.18996e-07
-1.50241e-07
3.31299e-07
-1.36341e-07
3.39476e-07
-1.20696e-07
3.45251e-07
-1.04348e-07
3.49319e-07
-8.78255e-08
3.52182e-07
-7.14007e-08
3.53839e-07
-5.52271e-08
3.5446e-07
-3.94017e-08
3.5393e-07
-2.3992e-08
3.52409e-07
-9.05226e-09
3.49838e-07
5.36699e-09
3.46458e-07
1.92406e-08
3.42344e-07
3.25546e-08
3.37836e-07
4.52887e-08
3.33039e-07
5.74015e-08
3.28136e-07
6.87851e-08
3.22939e-07
7.92287e-08
3.17159e-07
8.83315e-08
3.10127e-07
9.54726e-08
3.01155e-07
9.97885e-08
2.8961e-07
1.00225e-07
2.75393e-07
9.57546e-08
2.58929e-07
8.5659e-08
2.41337e-07
6.97225e-08
2.23794e-07
4.8665e-08
2.06377e-07
2.50243e-08
1.85158e-07
5.27548e-09
1.53925e-07
-2.93707e-09
1.10339e-07
2.94197e-09
5.51417e-08
2.14518e-08
-1.25698e-08
5.09207e-08
-9.57661e-08
8.93019e-08
-1.96061e-07
1.33931e-07
-3.12749e-07
1.81977e-07
-4.4376e-07
2.30862e-07
-5.84069e-07
2.78544e-07
-7.26799e-07
3.23169e-07
-8.65514e-07
3.6286e-07
-9.94599e-07
3.94949e-07
-1.10994e-06
4.18092e-07
-1.20999e-06
4.32578e-07
-1.29431e-06
4.38705e-07
-1.3636e-06
4.3732e-07
-1.41976e-06
4.29539e-07
-1.46514e-06
4.16518e-07
-1.50231e-06
3.99468e-07
-1.5339e-06
3.79541e-07
-1.56226e-06
3.57865e-07
-1.58925e-06
3.35482e-07
-1.61602e-06
3.13244e-07
-1.64316e-06
2.91808e-07
-1.6709e-06
2.71615e-07
-1.69933e-06
2.52898e-07
-1.72837e-06
2.35755e-07
-1.75779e-06
2.20199e-07
-1.78742e-06
2.06176e-07
-1.81705e-06
1.9359e-07
-1.84646e-06
1.82311e-07
-1.87551e-06
1.72177e-07
-1.90405e-06
1.63034e-07
-1.93198e-06
1.5473e-07
-1.95923e-06
1.47124e-07
-1.98572e-06
1.40092e-07
-2.0114e-06
1.33527e-07
-2.03623e-06
1.27336e-07
-2.06017e-06
1.21442e-07
-2.08318e-06
1.15783e-07
-2.10525e-06
1.1031e-07
-2.12635e-06
1.04985e-07
-2.14646e-06
9.97785e-08
-2.16557e-06
9.46721e-08
-2.18367e-06
8.96514e-08
-2.20075e-06
8.47085e-08
-2.21681e-06
7.98382e-08
-2.23185e-06
7.50381e-08
-2.24588e-06
7.03073e-08
-2.2589e-06
6.56454e-08
-2.27092e-06
6.10522e-08
-2.28196e-06
5.6528e-08
-2.29202e-06
5.20719e-08
-2.30111e-06
4.7681e-08
-2.30923e-06
4.33571e-08
-2.31643e-06
3.90818e-08
-2.32273e-06
3.48555e-08
-2.32812e-06
3.06662e-08
-2.3326e-06
2.65125e-08
-2.33619e-06
2.2385e-08
-2.33889e-06
1.82789e-08
-2.34069e-06
1.41842e-08
-2.34159e-06
1.00925e-08
-2.34159e-06
5.99737e-09
-2.34069e-06
1.88948e-09
-2.33886e-06
-2.23266e-09
-2.33608e-06
-6.38216e-09
-2.33231e-06
-1.05706e-08
-2.32753e-06
-1.48269e-08
-2.32173e-06
-1.9161e-08
-2.31488e-06
-2.35762e-08
-2.30696e-06
-2.80663e-08
-2.29795e-06
-3.26319e-08
-2.28783e-06
-3.72692e-08
-2.27658e-06
-4.19753e-08
-2.26419e-06
-4.67471e-08
-2.25062e-06
-5.15782e-08
-2.23587e-06
-5.64655e-08
-2.21992e-06
-6.13997e-08
-2.20276e-06
-6.63774e-08
-2.18438e-06
-7.13866e-08
-2.16478e-06
-7.64194e-08
-2.14394e-06
-8.14635e-08
-2.12188e-06
-8.65155e-08