/*--------------------------------*- C++ -*----------------------------------*\
  =========                 |
  \\      /  F ield         | OpenFOAM: The Open Source CFD Toolbox
   \\    /   O peration     | Website:  https://openfoam.org
    \\  /    A nd           | Version:  13
     \\/     M anipulation  |
\*---------------------------------------------------------------------------*/
FoamFile
{
    format      ascii;
    class       volVectorField;
    location    "700";
    object      U;
}
// * * * * * * * * * * * * * * * * * * * * * * * * * * * * * * * * * * * * * //

dimensions      [0 1 -1 0 0 0 0];

internalField   nonuniform List<vector> 
12225
(
(9.75092 0.0530045 0)
(9.27875 0.10693 0)
(8.79422 0.110889 0)
(8.34995 0.0894046 0)
(7.94641 0.095591 0)
(7.58101 0.0925177 0)
(7.29664 0.0696218 0)
(7.05231 0.0526817 0)
(6.84756 0.0372973 0)
(6.68187 0.0197306 0)
(6.54318 0.0126198 0)
(6.4527 0.0183369 0)
(6.37528 0.0108032 0)
(6.32309 0.00732643 0)
(6.27914 0.0132906 0)
(6.25335 0.0100628 0)
(6.23997 -0.0109549 0)
(6.24358 -0.0188601 0)
(10.105 0.0565832 0)
(10.3116 0.0892992 0)
(10.436 0.0980999 0)
(10.493 0.101157 0)
(10.5104 0.0969588 0)
(10.4648 0.0904774 0)
(10.3938 0.0866232 0)
(10.3027 0.0819079 0)
(10.2113 0.07585 0)
(10.1174 0.0709889 0)
(10.0325 0.0625711 0)
(9.92558 0.0512337 0)
(9.82069 0.0451438 0)
(9.72015 0.0392912 0)
(9.62251 0.0313274 0)
(9.52464 0.025567 0)
(9.43724 0.0232352 0)
(9.36163 0.0166132 0)
(10.0082 0.0474982 0)
(10.055 0.065319 0)
(10.1175 0.0736916 0)
(10.1647 0.0757502 0)
(10.2129 0.0841702 0)
(10.2637 0.0882877 0)
(10.3081 0.0862224 0)
(10.3429 0.0837738 0)
(10.3689 0.0799864 0)
(10.3864 0.0742872 0)
(10.3974 0.0697205 0)
(10.4021 0.0677273 0)
(10.4024 0.0643525 0)
(10.3973 0.0611516 0)
(10.3897 0.0590147 0)
(10.3788 0.0544979 0)
(10.3647 0.0463489 0)
(10.3443 0.0371926 0)
(10.0048 0.0334979 0)
(10.0338 0.046581 0)
(10.0553 0.0615603 0)
(10.0744 0.0676676 0)
(10.0892 0.0731621 0)
(10.1086 0.0752474 0)
(10.1284 0.0729376 0)
(10.1467 0.0698853 0)
(10.1636 0.0658682 0)
(10.1783 0.0610808 0)
(10.1912 0.0574424 0)
(10.2039 0.055214 0)
(10.2163 0.0524235 0)
(10.2279 0.0498627 0)
(10.2393 0.0476286 0)
(10.2505 0.0440237 0)
(10.2595 0.0385505 0)
(10.2659 0.0330414 0)
(10.0194 0.0271204 0)
(10.0292 0.0489832 0)
(10.0413 0.0628156 0)
(10.0589 0.0696738 0)
(10.0742 0.0731354 0)
(10.0893 0.0742572 0)
(10.1035 0.0722614 0)
(10.1157 0.0693902 0)
(10.1262 0.0658435 0)
(10.1349 0.0617125 0)
(10.1421 0.058241 0)
(10.1489 0.0556567 0)
(10.1557 0.0528053 0)
(10.1623 0.0500135 0)
(10.169 0.0472959 0)
(10.1757 0.0436175 0)
(10.1815 0.0387649 0)
(10.1859 0.0340404 0)
(10.0088 0.0216936 0)
(10.0235 0.0502733 0)
(10.041 0.0612306 0)
(10.0581 0.0644247 0)
(10.0718 0.0673346 0)
(10.0852 0.0686839 0)
(10.0979 0.0675038 0)
(10.1088 0.0651221 0)
(10.118 0.0619637 0)
(10.1256 0.0583087 0)
(10.1319 0.0549901 0)
(10.1377 0.0521698 0)
(10.1433 0.0492552 0)
(10.1486 0.0463385 0)
(10.1539 0.0433628 0)
(10.159 0.0397778 0)
(10.1635 0.035523 0)
(10.1667 0.031318 0)
(10.003 0.018567 0)
(10.0181 0.0384912 0)
(10.0349 0.0520082 0)
(10.0499 0.0581621 0)
(10.0632 0.0617727 0)
(10.0758 0.063514 0)
(10.0877 0.0628984 0)
(10.0982 0.0609577 0)
(10.1072 0.0582719 0)
(10.1149 0.0551321 0)
(10.1214 0.0521404 0)
(10.1274 0.0494486 0)
(10.133 0.0466759 0)
(10.1383 0.0438575 0)
(10.1433 0.0409326 0)
(10.148 0.037605 0)
(10.1521 0.0338707 0)
(10.1552 0.0301395 0)
(10.0015 0.0144457 0)
(10.0143 0.0355971 0)
(10.0288 0.0477543 0)
(10.0436 0.0535397 0)
(10.0562 0.0569949 0)
(10.0679 0.0586639 0)
(10.079 0.0583461 0)
(10.089 0.0567786 0)
(10.0978 0.0544867 0)
(10.1053 0.05176 0)
(10.112 0.0490376 0)
(10.118 0.0464237 0)
(10.1236 0.0437355 0)
(10.1287 0.0409822 0)
(10.1335 0.0380869 0)
(10.1379 0.0349138 0)
(10.1417 0.0315167 0)
(10.1448 0.0281286 0)
(10.0012 0.0122184 0)
(10.011 0.0308136 0)
(10.0242 0.0424313 0)
(10.038 0.0487863 0)
(10.05 0.0523646 0)
(10.0612 0.0541205 0)
(10.0718 0.0540804 0)
(10.0813 0.0528215 0)
(10.0897 0.0508268 0)
(10.0971 0.0484112 0)
(10.1036 0.0458831 0)
(10.1096 0.0433734 0)
(10.115 0.0408135 0)
(10.1201 0.0381604 0)
(10.1247 0.0353789 0)
(10.1289 0.0324202 0)
(10.1325 0.0293551 0)
(10.1356 0.0263121 0)
(10.0009 0.0102064 0)
(10.0087 0.0270856 0)
(10.0204 0.0378618 0)
(10.0328 0.0439605 0)
(10.0443 0.0475194 0)
(10.055 0.0493564 0)
(10.0651 0.0495721 0)
(10.0743 0.0486247 0)
(10.0825 0.0469413 0)
(10.0898 0.0448332 0)
(10.0962 0.0425478 0)
(10.1021 0.0401889 0)
(10.1075 0.0377503 0)
(10.1124 0.0352244 0)
(10.1169 0.0325953 0)
(10.121 0.0298525 0)
(10.1246 0.027049 0)
(10.1277 0.0242796 0)
(10.0008 0.00863564 0)
(10.007 0.0233663 0)
(10.0171 0.0331114 0)
(10.0283 0.0390881 0)
(10.039 0.0425799 0)
(10.0491 0.0444423 0)
(10.0588 0.0448508 0)
(10.0677 0.0441802 0)
(10.0757 0.0428005 0)
(10.0828 0.0409877 0)
(10.0893 0.0389461 0)
(10.0951 0.0367721 0)
(10.1005 0.0344942 0)
(10.1054 0.0321245 0)
(10.1098 0.0296668 0)
(10.1138 0.0271358 0)
(10.1174 0.0245773 0)
(10.1205 0.0220575 0)
(10.0006 0.00732404 0)
(10.0057 0.0201201 0)
(10.0145 0.0289493 0)
(10.0246 0.0346389 0)
(10.0345 0.0380183 0)
(10.044 0.0398792 0)
(10.0532 0.0404261 0)
(10.0617 0.0399726 0)
(10.0696 0.0388386 0)
(10.0766 0.0372671 0)
(10.083 0.0354341 0)
(10.0889 0.0334357 0)
(10.0942 0.0313179 0)
(10.0991 0.0291038 0)
(10.1035 0.0268144 0)
(10.1075 0.0244732 0)
(10.1111 0.0221221 0)
(10.1142 0.0198134 0)
(10.0005 0.00621895 0)
(10.0047 0.0172532 0)
(10.0123 0.0251172 0)
(10.0214 0.0304067 0)
(10.0305 0.0335821 0)
(10.0394 0.0353682 0)
(10.0481 0.0359758 0)
(10.0562 0.0356725 0)
(10.0638 0.0347319 0)
(10.0707 0.0333687 0)
(10.077 0.0317344 0)
(10.0827 0.0299192 0)
(10.088 0.0279742 0)
(10.0929 0.0259318 0)
(10.0973 0.023821 0)
(10.1012 0.0216702 0)
(10.1048 0.0195166 0)
(10.108 0.0174085 0)
(10.0004 0.00513825 0)
(10.0039 0.0142816 0)
(10.0103 0.0210127 0)
(10.0183 0.0257459 0)
(10.0266 0.028624 0)
(10.0348 0.0302699 0)
(10.0428 0.0308889 0)
(10.0504 0.0307012 0)
(10.0576 0.0299315 0)
(10.0643 0.0287644 0)
(10.0704 0.0273278 0)
(10.076 0.025705 0)
(10.0812 0.023949 0)
(10.086 0.0221009 0)
(10.0903 0.02019 0)
(10.0943 0.0182508 0)
(10.0979 0.0163111 0)
(10.1011 0.0144193 0)
(10.0004 0.00407008 0)
(10.0032 0.0112545 0)
(10.0086 0.0166944 0)
(10.0154 0.0206937 0)
(10.0228 0.0231532 0)
(10.0303 0.0245737 0)
(10.0376 0.0251345 0)
(10.0447 0.0250095 0)
(10.0515 0.024374 0)
(10.0578 0.0233772 0)
(10.0637 0.022129 0)
(10.0691 0.0207034 0)
(10.0741 0.019153 0)
(10.0788 0.0175159 0)
(10.083 0.0158266 0)
(10.0869 0.014114 0)
(10.0905 0.0124051 0)
(10.0937 0.0107388 0)
(10.0003 0.00300532 0)
(10.0026 0.00821388 0)
(10.0071 0.0122238 0)
(10.013 0.0152994 0)
(10.0195 0.0171919 0)
(10.0262 0.0182758 0)
(10.0329 0.0186863 0)
(10.0395 0.0185527 0)
(10.0457 0.0180025 0)
(10.0517 0.0171473 0)
(10.0573 0.0160747 0)
(10.0625 0.0148459 0)
(10.0673 0.0135081 0)
(10.0718 0.0120963 0)
(10.0759 0.0106418 0)
(10.0797 0.00917004 0)
(10.0832 0.00770226 0)
(10.0864 0.00627048 0)
(10.0003 0.00193151 0)
(10.0022 0.00514969 0)
(10.0059 0.00761102 0)
(10.011 0.00957459 0)
(10.0167 0.0107362 0)
(10.0228 0.0113506 0)
(10.0289 0.0115008 0)
(10.0349 0.0112698 0)
(10.0408 0.0107396 0)
(10.0464 0.00998465 0)
(10.0517 0.00906469 0)
(10.0566 0.00802632 0)
(10.0613 0.00690359 0)
(10.0656 0.00572688 0)
(10.0696 0.00451767 0)
(10.0733 0.00329917 0)
(10.0767 0.00208286 0)
(10.0798 0.000897395 0)
(10.0002 0.000816993 0)
(10.0019 0.00198245 0)
(10.0052 0.00276347 0)
(10.0096 0.00342879 0)
(10.0148 0.00367991 0)
(10.0204 0.00367404 0)
(10.026 0.00343722 0)
(10.0317 0.00300618 0)
(10.0372 0.00241919 0)
(10.0425 0.0017119 0)
(10.0475 0.000914261 0)
(10.0523 5.1153e-05 0)
(10.0568 -0.00085783 0)
(10.0609 -0.00179522 0)
(10.0648 -0.00274732 0)
(10.0684 -0.00370015 0)
(10.0718 -0.00464703 0)
(10.0748 -0.00556927 0)
(10.0002 -0.000419159 0)
(10.0018 -0.00149991 0)
(10.0049 -0.00259208 0)
(10.0092 -0.00341877 0)
(10.0142 -0.00424647 0)
(10.0195 -0.00501256 0)
(10.0249 -0.0057497 0)
(10.0304 -0.00646838 0)
(10.0357 -0.00717685 0)
(10.0409 -0.00787927 0)
(10.0458 -0.00858071 0)
(10.0504 -0.00928007 0)
(10.0548 -0.00997848 0)
(10.0589 -0.010672 0)
(10.0627 -0.01136 0)
(10.0662 -0.0120363 0)
(10.0696 -0.0127025 0)
(10.0726 -0.0133485 0)
(10.0002 -0.00163793 0)
(10.002 -0.00490216 0)
(10.0054 -0.00779169 0)
(10.0101 -0.0100205 0)
(10.0153 -0.0118467 0)
(10.0209 -0.0133103 0)
(10.0265 -0.0144992 0)
(10.0321 -0.0154706 0)
(10.0376 -0.0162744 0)
(10.0428 -0.0169591 0)
(10.0477 -0.0175574 0)
(10.0524 -0.0180969 0)
(10.0568 -0.0185922 0)
(10.0609 -0.0190592 0)
(10.0647 -0.0195023 0)
(10.0683 -0.0199297 0)
(10.0716 -0.0203422 0)
(10.0746 -0.0207443 0)
(10.0003 -0.00277065 0)
(10.0024 -0.0080259 0)
(10.0065 -0.0124648 0)
(10.0118 -0.0157982 0)
(10.0176 -0.0183686 0)
(10.0236 -0.0203303 0)
(10.0296 -0.0218166 0)
(10.0355 -0.0229211 0)
(10.0412 -0.0237379 0)
(10.0466 -0.0243519 0)
(10.0517 -0.0248222 0)
(10.0565 -0.0251945 0)
(10.061 -0.0254988 0)
(10.0651 -0.0257617 0)
(10.069 -0.0259956 0)
(10.0726 -0.0262135 0)
(10.0759 -0.0264196 0)
(10.079 -0.0266227 0)
(10.0004 -0.00400595 0)
(10.0031 -0.011367 0)
(10.0082 -0.0172642 0)
(10.0144 -0.0215047 0)
(10.0211 -0.0246499 0)
(10.0277 -0.0269787 0)
(10.0342 -0.0286468 0)
(10.0406 -0.0297864 0)
(10.0466 -0.0305432 0)
(10.0523 -0.0310327 0)
(10.0576 -0.0313403 0)
(10.0625 -0.0315217 0)
(10.0671 -0.0316263 0)
(10.0713 -0.0316827 0)
(10.0752 -0.0317183 0)
(10.0789 -0.0317399 0)
(10.0822 -0.0317634 0)
(10.0853 -0.0317907 0)
(10.0005 -0.00543322 0)
(10.0041 -0.0151604 0)
(10.0107 -0.0223595 0)
(10.0182 -0.0272624 0)
(10.0257 -0.0308289 0)
(10.0331 -0.033404 0)
(10.0402 -0.035137 0)
(10.0471 -0.0362129 0)
(10.0536 -0.0368341 0)
(10.0596 -0.0371504 0)
(10.0651 -0.0372559 0)
(10.0702 -0.0372249 0)
(10.0749 -0.0371129 0)
(10.0793 -0.0369622 0)
(10.0833 -0.0367983 0)
(10.087 -0.0366366 0)
(10.0904 -0.036487 0)
(10.0936 -0.0363572 0)
(10.0007 -0.00717486 0)
(10.0057 -0.0197123 0)
(10.0144 -0.027823 0)
(10.0233 -0.0330731 0)
(10.0318 -0.0369134 0)
(10.0399 -0.0396285 0)
(10.0478 -0.0413181 0)
(10.0553 -0.0422425 0)
(10.0622 -0.042668 0)
(10.0686 -0.0427648 0)
(10.0744 -0.04264 0)
(10.0798 -0.0423769 0)
(10.0847 -0.042041 0)
(10.0892 -0.0416828 0)
(10.0933 -0.0413294 0)
(10.0971 -0.0410004 0)
(10.1006 -0.0407005 0)
(10.1039 -0.0404417 0)
(10.0013 -0.00936124 0)
(10.0081 -0.0252211 0)
(10.0197 -0.0335898 0)
(10.03 -0.038874 0)
(10.0394 -0.0428612 0)
(10.0484 -0.0456123 0)
(10.0572 -0.0471847 0)
(10.0655 -0.04792 0)
(10.073 -0.0481233 0)
(10.0799 -0.0479748 0)
(10.0862 -0.0475904 0)
(10.0919 -0.0470661 0)
(10.0971 -0.0464789 0)
(10.1018 -0.0458864 0)
(10.1061 -0.0453255 0)
(10.11 -0.0448137 0)
(10.1137 -0.0443607 0)
(10.117 -0.0439648 0)
(10.0021 -0.0122787 0)
(10.0121 -0.0310461 0)
(10.0266 -0.0392021 0)
(10.0384 -0.0446029 0)
(10.0491 -0.0487453 0)
(10.0596 -0.0513911 0)
(10.0699 -0.0527394 0)
(10.0793 -0.0532445 0)
(10.0879 -0.0532265 0)
(10.0957 -0.0528559 0)
(10.1027 -0.0522483 0)
(10.1091 -0.0515089 0)
(10.1148 -0.0507145 0)
(10.1199 -0.0499343 0)
(10.1245 -0.0492048 0)
(10.1286 -0.0485477 0)
(10.1324 -0.0479823 0)
(10.1359 -0.0474952 0)
(10.0025 -0.0165567 0)
(10.0186 -0.0356731 0)
(10.0355 -0.0434373 0)
(10.0509 -0.0497228 0)
(10.0651 -0.0545252 0)
(10.0793 -0.0571716 0)
(10.0928 -0.0581933 0)
(10.1049 -0.0582838 0)
(10.1157 -0.0578339 0)
(10.1253 -0.0570272 0)
(10.1337 -0.0560058 0)
(10.1411 -0.0548815 0)
(10.1475 -0.053746 0)
(10.153 -0.0526755 0)
(10.1578 -0.051704 0)
(10.1618 -0.0508413 0)
(10.1654 -0.0501082 0)
(10.1684 -0.0495045 0)
(10.0018 -0.0259759 0)
(10.0326 -0.0436946 0)
(10.0594 -0.0492064 0)
(10.0889 -0.0548751 0)
(10.1159 -0.0603222 0)
(10.1406 -0.0636148 0)
(10.1617 -0.0650726 0)
(10.1789 -0.0654011 0)
(10.1924 -0.0649962 0)
(10.2028 -0.0640548 0)
(10.2105 -0.0627468 0)
(10.2158 -0.0612162 0)
(10.2188 -0.0596087 0)
(10.22 -0.058038 0)
(10.2197 -0.0566073 0)
(10.218 -0.0553773 0)
(10.2155 -0.0543305 0)
(10.2121 -0.053585 0)
(10.0561 -0.0383343 0)
(10.1695 -0.0669296 0)
(10.2595 -0.0736552 0)
(10.3085 -0.0750846 0)
(10.3309 -0.0753279 0)
(10.3343 -0.0740688 0)
(10.3235 -0.0717089 0)
(10.3025 -0.0688743 0)
(10.2743 -0.065854 0)
(10.2412 -0.0627427 0)
(10.2046 -0.059602 0)
(10.1658 -0.0565098 0)
(10.1254 -0.0535334 0)
(10.0844 -0.0507973 0)
(10.043 -0.0482884 0)
(10.0026 -0.0461203 0)
(9.96342 -0.044403 0)
(9.92603 -0.0434456 0)
(9.86533 -0.0348726 0)
(9.61098 -0.0714918 0)
(9.33435 -0.0843887 0)
(9.05746 -0.0859576 0)
(8.80287 -0.0822035 0)
(8.57637 -0.0760475 0)
(8.37502 -0.0691248 0)
(8.196 -0.0619366 0)
(8.03782 -0.0548948 0)
(7.8986 -0.048234 0)
(7.77663 -0.0420382 0)
(7.66999 -0.0363327 0)
(7.57712 -0.0311745 0)
(7.49603 -0.0265584 0)
(7.42539 -0.0226207 0)
(7.36248 -0.019502 0)
(7.30568 -0.0170769 0)
(7.25471 -0.0155441 0)
(-0.00238623 0.00692665 -9.88908e-19)
(-0.0117169 0.0117125 1.09868e-18)
(-0.0241683 0.0130808 0)
(-0.0374762 0.0115921 0)
(-0.0472166 0.0064931 0)
(-0.0464703 -0.00229312 -7.80854e-19)
(-0.0318339 -0.0144188 0)
(-0.00611363 -0.0272937 0)
(0.0276658 -0.0371959 0)
(0.0667825 -0.0423323 0)
(0.108407 -0.0432187 4.08923e-19)
(0.149318 -0.0408955 0)
(0.186856 -0.036363 0)
(0.21938 -0.0303665 0)
(0.246021 -0.0234859 0)
(0.266337 -0.0160577 2.28994e-19)
(0.280042 -0.00830706 0)
(0.287167 -0.000202773 0)
(0.287112 0.00823041 0)
(0.279564 0.0166594 0)
(0.265039 0.0244174 0)
(0.244084 0.0307944 0)
(0.217427 0.0350942 0)
(0.18616 0.0367721 3.0126e-19)
(0.151835 0.0353738 -3.47286e-19)
(0.116351 0.0307906 4.14219e-19)
(0.0819297 0.0233547 5.12169e-19)
(0.0508215 0.0141346 0)
(0.0251061 0.00498906 0)
(0.00601524 -0.00183224 -1.17412e-18)
(-0.00665293 -0.00542934 -1.34365e-18)
(-0.0146127 -0.00724696 0)
(-0.018246 -0.00883783 0)
(-0.0159802 -0.0111103 -1.26645e-18)
(-0.0082169 -0.014491 0)
(0.00637018 -0.0189716 0)
(0.027627 -0.023535 8.50446e-19)
(0.0540928 -0.0266802 0)
(0.082144 -0.0266715 5.16487e-19)
(0.107278 -0.0229964 8.9338e-19)
(0.125773 -0.0166588 0)
(0.136039 -0.00983681 0)
(0.139336 -0.0046342 0)
(0.138486 -0.00220645 0)
(0.136789 -0.00311472 0)
(0.136137 -0.00848584 8.14759e-19)
(0.135269 -0.0181924 8.15097e-19)
(0.128296 -0.0280495 8.21197e-19)
(0.10816 -0.0275913 0)
(0.0697119 -0.0101593 -9.97989e-19)
(0.00114124 0.0119969 0)
(-0.0955927 0.0326593 5.91189e-19)
(-0.200048 0.0566658 3.73097e-19)
(-0.315889 0.0806566 0)
(-0.440995 0.100068 0)
(-0.572196 0.111118 0)
(-0.705968 0.111402 1.65167e-19)
(-0.838122 0.107437 0)
(-0.964369 0.105897 0)
(-1.08407 0.103175 0)
(-1.19696 0.0948652 0)
(-1.30183 0.0867409 0)
(-1.39805 0.0812805 0)
(-1.48716 0.0721154 0)
(-1.56836 0.0644736 0)
(-1.64316 0.0598081 -9.06111e-20)
(-1.71248 0.0543014 0)
(-1.77654 0.0499279 0)
(-1.83616 0.0460022 8.35571e-20)
(-1.89183 0.042545 8.17441e-20)
(-1.94404 0.0395257 0)
(-1.99319 0.0368371 -7.86419e-20)
(-2.03961 0.0344489 7.72897e-20)
(-2.08359 0.0322937 0)
(-2.12533 0.0303388 -7.48722e-20)
(-2.16504 0.028542 0)
(-2.20285 0.0268817 0)
(-2.23888 0.0253317 7.174e-20)
(-2.27322 0.0238783 0)
(-2.30596 0.0225058 -6.98566e-20)
(-2.33716 0.0212067 0)
(-2.36687 0.0199717 6.80643e-20)
(-2.39513 0.0187963 6.71881e-20)
(-2.42199 0.0176748 6.63181e-20)
(-2.44749 0.0166039 1.30904e-19)
(-2.47166 0.0155807 -1.2917e-19)
(-2.49454 0.0146017 0)
(-2.51614 0.013663 0)
(-2.53649 0.0127661 0)
(-2.5556 0.0118988 -1.22151e-19)
(-2.57353 0.0110623 -1.20362e-19)
(-2.5903 0.01024 1.18557e-19)
(-2.60592 0.00943474 0)
(-2.62038 0.008633 -1.14906e-19)
(-2.63368 0.00783138 -1.13062e-19)
(-2.6458 0.00701147 -1.11208e-19)
(-2.65674 0.00616283 0)
(-2.66647 0.00526946 0)
(-2.67496 0.00432728 0)
(-2.68216 0.00334354 -1.03714e-19)
(-2.68803 0.00234146 0)
(-2.69249 0.00137434 0)
(-2.69545 0.000514502 9.80962e-20)
(-2.69687 -0.000159906 0)
(-2.69727 -0.000728223 0)
(-2.69657 -0.00128638 9.23657e-20)
(-2.69478 -0.0018459 0)
(-2.6919 -0.0024063 0)
(-2.68792 -0.00297329 -8.65124e-20)
(-2.68281 -0.00354393 -8.45174e-20)
(-2.67656 -0.0041198 0)
(-2.66915 -0.00469973 8.04385e-20)
(-2.66056 -0.00528246 0)
(-2.65077 -0.00586863 -7.62111e-20)
(-2.63976 -0.00645474 0)
(-2.62753 -0.00704284 -7.17992e-20)
(-2.61406 -0.00762797 -6.9513e-20)
(-2.59933 -0.00821249 0)
(-2.58333 -0.00879146 0)
(-2.56607 -0.00936849 0)
(-2.54755 -0.00993999 0)
(-2.52777 -0.0105085 0)
(-2.50672 -0.0110674 0)
(-2.4844 -0.0116205 0)
(-2.46079 -0.0121597 -4.87488e-20)
(-2.43592 -0.0126927 4.57893e-20)
(-2.40977 -0.0132117 0)
(-2.38237 -0.0137263 0)
(-2.35371 -0.0142299 0)
(-2.32382 -0.0147355 0)
(-2.29269 -0.0152361 5.90848e-20)
(-2.26035 -0.0157287 0)
(-2.2268 -0.0161976 -4.45992e-20)
(-2.19206 -0.016653 3.70055e-20)
(-2.15616 -0.0170647 0)
(-2.11913 -0.0173835 0)
(-2.08101 -0.0175199 0)
(-2.04186 -0.0174316 -4.06682e-21)
(-2.00172 -0.0172035 4.8672e-21)
(-1.96055 -0.0173269 0)
(-1.91824 -0.0177518 2.37278e-20)
(-1.87485 -0.018113 3.37052e-20)
(-1.83044 -0.0184754 -4.40782e-20)
(-1.78502 -0.0188391 0)
(-1.73863 -0.0192022 0)
(-1.69126 -0.0195722 -7.78472e-20)
(-1.64296 -0.0199434 0)
(-1.59372 -0.0203241 0)
(-1.5436 -0.0207059 0)
(-1.49257 -0.0210982 0)
(-1.44071 -0.0214895 1.45188e-19)
(-1.38799 -0.0218906 1.60706e-19)
(-1.3345 -0.022287 0)
(-1.28023 -0.0226918 1.94327e-19)
(-1.22526 -0.0230898 0)
(-1.16958 -0.023495 0)
(-1.1133 -0.023894 2.52297e-19)
(-1.05639 -0.0243 0)
(-0.998947 -0.0247034 2.97006e-19)
(-0.940957 -0.0251132 0)
(-0.882494 -0.0255247 0)
(-0.823568 -0.0259344 3.75624e-19)
(-0.764229 -0.0263442 0)
(-0.704514 -0.0267497 4.37687e-19)
(-0.644468 -0.0271498 0)
(-0.58414 -0.027546 0)
(-0.523578 -0.0279373 0)
(-0.462829 -0.0283258 -5.93613e-19)
(-0.401935 -0.0287139 0)
(-0.340933 -0.029106 6.93317e-19)
(-0.27989 -0.0294862 0)
(-0.21886 -0.0298683 0)
(-0.157891 -0.0302509 0)
(-0.0970568 -0.0305979 0)
(-0.0367018 -0.0308036 0)
(0.023283 -0.0301814 0)
(0.0828573 -0.0284543 0)
(0.137571 -0.0258549 -1.96767e-18)
(0.195898 -0.0222933 0)
(0.212903 -0.00918391 0)
(-7.3329e-05 0.0187461 3.01563e-18)
(-0.00556465 0.0327437 -3.43713e-18)
(-0.0112611 0.0340949 0)
(-0.011554 0.025255 2.46419e-18)
(0.00143776 0.00477019 0)
(0.0290738 -0.0293302 7.27841e-19)
(0.0661202 -0.0682216 -9.23686e-19)
(0.108883 -0.100862 -6.60479e-19)
(0.153462 -0.121572 0)
(0.196577 -0.129656 -4.30304e-19)
(0.236042 -0.127396 -1.87817e-19)
(0.270857 -0.117898 0)
(0.300628 -0.103934 0)
(0.325347 -0.0874997 0)
(0.345194 -0.0699468 0)
(0.360457 -0.0520417 -1.44004e-19)
(0.371488 -0.0341905 0)
(0.378495 -0.0165457 2.91129e-19)
(0.382227 0.000903999 0)
(0.3829 0.0181432 0)
(0.380243 0.0348775 -3.01165e-19)
(0.373819 0.0507406 0)
(0.363121 0.065098 3.18736e-19)
(0.347622 0.0771441 -1.65925e-19)
(0.326991 0.0858589 1.75174e-19)
(0.301171 0.0902304 -1.87858e-19)
(0.270658 0.0893811 -2.05412e-19)
(0.236559 0.0830281 0)
(0.200678 0.0716709 0)
(0.165404 0.0566961 3.0977e-19)
(0.133561 0.0397697 -3.69559e-19)
(0.107946 0.0221372 0)
(0.0912509 0.00417592 0)
(0.0843273 -0.0143076 5.53919e-19)
(0.088322 -0.0324861 0)
(0.101446 -0.0501638 0)
(0.120642 -0.0648524 -3.58402e-19)
(0.14043 -0.0710222 0)
(0.155197 -0.0658614 2.65176e-19)
(0.162409 -0.0517804 -5.01654e-19)
(0.161693 -0.0334198 0)
(0.15364 -0.0167475 0)
(0.139203 -0.00653859 -1.17152e-18)
(0.118147 -0.00204912 -1.26648e-18)
(0.0846657 0.0025129 -1.41351e-18)
(0.0319522 0.0154117 8.33177e-19)
(-0.052921 0.0458937 -6.72216e-19)
(-0.171313 0.0887612 -1.23029e-18)
(-0.301627 0.133618 5.54765e-19)
(-0.437841 0.177227 2.03518e-19)
(-0.579933 0.21435 0)
(-0.7241 0.242139 -1.31756e-19)
(-0.865651 0.26116 1.13473e-19)
(-1.00304 0.271421 0)
(-1.1333 0.273337 0)
(-1.25381 0.268241 0)
(-1.36266 0.257748 -7.83297e-20)
(-1.45967 0.243082 0)
(-1.54576 0.225891 1.41668e-19)
(-1.6217 0.207947 0)
(-1.68946 0.189983 1.31744e-19)
(-1.7498 0.172703 0)
(-1.80409 0.157015 -1.24365e-19)
(-1.85384 0.142771 0)
(-1.89936 0.130056 1.193e-19)
(-1.9417 0.119021 -5.85807e-20)
(-1.9811 0.109318 0)
(-2.01826 0.100868 -1.12985e-19)
(-2.05345 0.0934981 -5.56033e-20)
(-2.0869 0.0870351 -5.47879e-20)
(-2.11883 0.0813343 0)
(-2.14934 0.07626 -5.32144e-20)
(-2.17854 0.0717002 -5.25957e-20)
(-2.20651 0.0675589 0)
(-2.23329 0.0637591 5.12864e-20)
(-2.25893 0.0602371 -1.01233e-19)
(-2.28347 0.0569441 0)
(-2.30691 0.0538407 -4.9459e-20)
(-2.3293 0.0508977 0)
(-2.35062 0.0480907 1.44795e-19)
(-2.37091 0.0454037 0)
(-2.39017 0.0428221 -1.41325e-19)
(-2.40842 0.040337 -4.65415e-20)
(-2.42566 0.0379394 4.59171e-20)
(-2.4419 0.0356234 9.06585e-20)
(-2.45716 0.0333844 -8.94659e-20)
(-2.47146 0.0312181 0)
(-2.48478 0.029121 0)
(-2.49713 0.0270911 0)
(-2.5085 0.0251217 2.53467e-19)
(-2.51894 0.0232039 8.31831e-20)
(-2.52846 0.0213286 -8.1859e-20)
(-2.53705 0.019499 0)
(-2.54473 0.0177087 -7.91823e-20)
(-2.55148 0.0159607 7.77867e-20)
(-2.55732 0.0142454 7.64009e-20)
(-2.56225 0.0125585 0)
(-2.56627 0.0108848 0)
(-2.56941 0.00921047 0)
(-2.57168 0.00752153 7.07586e-20)
(-2.57313 0.00581044 0)
(-2.57384 0.00409896 -1.35875e-19)
(-2.5739 0.00243621 -1.99442e-19)
(-2.5734 0.000893511 1.30067e-19)
(-2.5719 -0.000567679 0)
(-2.56937 -0.00200644 6.21534e-20)
(-2.56579 -0.00343878 0)
(-2.56114 -0.00486547 1.18331e-19)
(-2.55539 -0.00629241 -5.7751e-20)
(-2.54853 -0.00771654 -5.62674e-20)
(-2.54052 -0.00913922 0)
(-2.53135 -0.0105587 -1.59407e-19)
(-2.52101 -0.0119735 1.03259e-19)
(-2.50947 -0.0133835 4.99564e-20)
(-2.49671 -0.0147849 0)
(-2.48273 -0.0161786 4.67454e-20)
(-2.46751 -0.0175585 1.35586e-19)
(-2.45104 -0.0189242 0)
(-2.43331 -0.0202714 8.37507e-20)
(-2.41432 -0.0216037 8.02784e-20)
(-2.39407 -0.0229186 7.67329e-20)
(-2.37257 -0.0242179 0)
(-2.3498 -0.0254921 0)
(-2.32578 -0.026742 0)
(-2.30049 -0.0279571 -3.11067e-20)
(-2.27394 -0.0291443 -2.86639e-20)
(-2.24613 -0.0302951 0)
(-2.21709 -0.0314176 -4.96265e-20)
(-2.18681 -0.0325024 -4.54033e-20)
(-2.15531 -0.0335572 0)
(-2.12261 -0.0345719 -3.61208e-20)
(-2.08871 -0.0355547 -6.4355e-20)
(-2.05364 -0.0364983 2.69893e-20)
(-2.01741 -0.0374154 2.34886e-20)
(-1.98002 -0.0383009 0)
(-1.94149 -0.0391708 0)
(-1.90183 -0.0400231 0)
(-1.86102 -0.0408743 2.44042e-21)
(-1.81905 -0.0417181 1.45887e-21)
(-1.77596 -0.0425287 1.48699e-20)
(-1.73185 -0.0432679 -1.35418e-20)
(-1.68672 -0.0439487 1.7708e-20)
(-1.64057 -0.0445903 2.47763e-20)
(-1.59342 -0.0452031 0)
(-1.54529 -0.0457821 0)
(-1.4962 -0.0463333 -4.10743e-20)
(-1.44618 -0.0468529 0)
(-1.39523 -0.0473467 0)
(-1.34339 -0.0478078 1.21829e-19)
(-1.29066 -0.0482426 0)
(-1.2371 -0.0486412 7.36119e-20)
(-1.1827 -0.049011 -8.23539e-20)
(-1.12753 -0.0493375 0)
(-1.07158 -0.0496303 9.52594e-20)
(-1.01494 -0.0498761 0)
(-0.957601 -0.0500869 0)
(-0.89966 -0.050253 -1.20808e-19)
(-0.841109 -0.0503873 2.5631e-19)
(-0.782033 -0.0504838 -1.37787e-19)
(-0.722435 -0.0505498 0)
(-0.662385 -0.0505853 0)
(-0.601902 -0.0505909 1.63016e-19)
(-0.54104 -0.0505647 0)
(-0.479836 -0.0505084 1.82556e-19)
(-0.418342 -0.0504147 0)
(-0.356605 -0.0502903 0)
(-0.294676 -0.0501317 0)
(-0.232606 -0.0499458 2.27443e-19)
(-0.170437 -0.0497269 0)
(-0.108212 -0.0494889 -2.5054e-19)
(-0.045992 -0.0492273 0)
(0.0163315 -0.0489657 0)
(0.0786847 -0.0486635 5.42092e-19)
(0.140796 -0.0482612 -5.44776e-19)
(0.202476 -0.0476847 0)
(0.263247 -0.0465586 0)
(0.322883 -0.0445242 0)
(0.379159 -0.0413739 1.67071e-18)
(0.436944 -0.0362222 0)
(0.473089 -0.0221766 -1.15885e-18)
(0.000469126 0.0212734 3.07199e-22)
(0.000653328 0.0367654 4.74484e-18)
(0.00634153 0.0297766 0)
(0.0252277 -0.00144411 -3.2777e-18)
(0.0622557 -0.0567416 0)
(0.110986 -0.11875 0)
(0.161811 -0.169202 -3.56192e-22)
(0.207912 -0.199257 3.79665e-19)
(0.246468 -0.209002 3.2528e-19)
(0.27729 -0.203007 2.89847e-19)
(0.301418 -0.186711 0)
(0.320213 -0.164648 0)
(0.334836 -0.139948 -2.39633e-19)
(0.346131 -0.114492 -4.64816e-19)
(0.354647 -0.089312 4.5667e-19)
(0.360767 -0.0649025 0)
(0.364749 -0.0414612 4.56142e-19)
(0.366791 -0.019049 -2.30969e-19)
(0.367088 0.00235933 0)
(0.365984 0.022884 4.73495e-19)
(0.363728 0.0426882 2.39897e-19)
(0.360524 0.0618072 -4.93048e-19)
(0.356423 0.0800285 -2.55028e-19)
(0.351164 0.0968386 0)
(0.344225 0.111378 5.59182e-19)
(0.334833 0.122484 5.89318e-19)
(0.322175 0.128813 0)
(0.305647 0.129121 6.68975e-19)
(0.28529 0.122616 0)
(0.262015 0.109253 7.95866e-19)
(0.237712 0.0897343 4.43555e-19)
(0.214867 0.065253 0)
(0.196052 0.0370821 0)
(0.182949 0.00653453 0)
(0.175956 -0.0252001 0)
(0.17376 -0.0542681 0)
(0.169862 -0.0719587 0)
(0.15796 -0.071457 8.27363e-19)
(0.137556 -0.0554071 -1.16115e-18)
(0.10984 -0.0306281 0)
(0.0749461 -0.00134447 0)
(0.0315263 0.0289217 0)
(-0.0294789 0.0576856 7.36574e-22)
(-0.117785 0.0935477 7.61468e-19)
(-0.227485 0.141778 1.09564e-18)
(-0.353834 0.196688 -8.21367e-19)
(-0.491316 0.252496 -3.22627e-19)
(-0.633017 0.30552 2.62651e-19)
(-0.771842 0.350706 3.80057e-22)
(-0.903654 0.386404 1.93738e-19)
(-1.02467 0.411806 0)
(-1.13313 0.425723 1.55952e-19)
(-1.22873 0.42881 1.04074e-21)
(-1.31131 0.422264 0)
(-1.38185 0.407478 0)
(-1.44205 0.386195 -1.19535e-19)
(-1.49413 0.360497 0)
(-1.54031 0.332708 0)
(-1.58219 0.304845 1.06457e-19)
(-1.62096 0.278047 2.04064e-19)
(-1.65765 0.252923 -9.84669e-20)
(-1.69295 0.229986 0)
(-1.72716 0.209577 9.34431e-20)
(-1.76054 0.191447 0)
(-1.79327 0.175587 8.97679e-20)
(-1.82527 0.161862 8.76224e-20)
(-1.85649 0.149864 -1.72027e-19)
(-1.88696 0.139385 -8.44361e-20)
(-1.91664 0.130172 0)
(-1.9455 0.121999 1.63083e-19)
(-1.97353 0.114685 0)
(-2.00071 0.10807 2.37024e-19)
(-2.02702 0.102026 1.55601e-19)
(-2.05246 0.0964453 1.53335e-19)
(-2.07701 0.0912425 -1.51156e-19)
(-2.10066 0.0863492 2.23655e-19)
(-2.1234 0.0817127 0)
(-2.14522 0.0772915 0)
(-2.16611 0.073055 -1.43037e-19)
(-2.18606 0.0689792 -2.11696e-19)
(-2.20509 0.0650476 0)
(-2.22317 0.0612465 6.86599e-20)
(-2.24031 0.0575668 0)
(-2.25652 0.0540007 -2.00097e-19)
(-2.27179 0.0505423 -3.17427e-23)
(-2.28615 0.0471866 1.96429e-23)
(-2.29958 0.0439295 1.27476e-19)
(-2.31211 0.0407675 0)
(-2.32371 0.0376962 -1.2342e-19)
(-2.33441 0.0347094 1.2377e-23)
(-2.34423 0.0317961 0)
(-2.35318 0.0289505 0)
(-2.36128 0.0261663 0)
(-2.36852 0.0234418 1.12839e-19)
(-2.37491 0.0207722 0)
(-2.38045 0.0181534 0)
(-2.38514 0.0155814 0)
(-2.389 0.0130517 0)
(-2.39201 0.0105639 0)
(-2.39421 0.00811749 9.97369e-20)
(-2.39558 0.00571862 0)
(-2.39612 0.00337097 9.5295e-20)
(-2.39578 0.00106805 9.30417e-20)
(-2.39453 -0.00122889 -9.07988e-20)
(-2.3923 -0.00354114 0)
(-2.38907 -0.00585821 -8.63195e-20)
(-2.38481 -0.00817582 0)
(-2.37951 -0.0104944 -8.18456e-20)
(-2.37313 -0.0128134 7.96051e-20)
(-2.36565 -0.0151313 2.32296e-19)
(-2.35706 -0.0174469 0)
(-2.34733 -0.0197573 2.18779e-19)
(-2.33644 -0.0220607 7.08579e-20)
(-2.32437 -0.0243536 0)
(-2.31111 -0.0266336 1.32203e-19)
(-2.29664 -0.0288965 1.27527e-19)
(-2.28095 -0.0311377 -1.83967e-19)
(-2.26403 -0.0333515 0)
(-2.24587 -0.0355357 -5.63087e-20)
(-2.22647 -0.0376899 -5.38214e-20)
(-2.20584 -0.0398136 -1.54456e-19)
(-2.18397 -0.0419038 0)
(-2.16087 -0.0439539 0)
(-2.13653 -0.0459576 0)
(-2.11094 -0.0479099 -4.14708e-20)
(-2.08413 -0.0498097 0)
(-2.05608 -0.0516553 0)
(-2.02682 -0.0534471 3.24618e-20)
(-1.99635 -0.0551833 2.95998e-20)
(-1.96468 -0.0568643 0)
(-1.93183 -0.0584873 0)
(-1.89781 -0.0600509 4.15177e-20)
(-1.86263 -0.0615532 0)
(-1.82631 -0.0629968 -2.93101e-20)
(-1.78886 -0.0643781 -2.39772e-20)
(-1.75028 -0.0656965 0)
(-1.71058 -0.0669504 0)
(-1.66978 -0.0681483 4.85228e-21)
(-1.62787 -0.0693032 -9.69705e-22)
(-1.5849 -0.0704324 -9.86821e-22)
(-1.54092 -0.0715185 0)
(-1.49593 -0.0725394 -4.45873e-20)
(-1.44994 -0.0735014 0)
(-1.40298 -0.0744107 0)
(-1.35504 -0.0752665 0)
(-1.30617 -0.0760703 5.08505e-20)
(-1.25636 -0.076823 0)
(-1.20566 -0.0775252 -1.28612e-19)
(-1.15408 -0.0781761 -7.28976e-20)
(-1.10164 -0.0787747 0)
(-1.04836 -0.0793183 -8.81271e-20)
(-0.994289 -0.0798036 0)
(-0.939438 -0.0802244 0)
(-0.883854 -0.0805763 -3.3298e-19)
(-0.827574 -0.0808572 2.37462e-19)
(-0.770647 -0.0810665 0)
(-0.713112 -0.081207 2.70788e-19)
(-0.655018 -0.0812804 -1.45256e-19)
(-0.596406 -0.0812923 0)
(-0.537322 -0.0812419 0)
(-0.477808 -0.0811354 0)
(-0.417909 -0.0809713 -5.39364e-19)
(-0.357668 -0.0807467 0)
(-0.297131 -0.0804629 -1.99207e-19)
(-0.236348 -0.0801117 0)
(-0.175369 -0.0796972 0)
(-0.114243 -0.079216 0)
(-0.0530205 -0.0786811 0)
(0.00829148 -0.0781018 0)
(0.0696526 -0.0774869 0)
(0.130978 -0.0768249 -5.07541e-19)
(0.192192 -0.076083 0)
(0.2532 -0.0751954 -2.63808e-19)
(0.313908 -0.0741293 8.00539e-19)
(0.374188 -0.0727891 0)
(0.43372 -0.0709776 0)
(0.49244 -0.0683262 -5.55578e-19)
(0.548832 -0.0642735 -5.66251e-19)
(0.606658 -0.0578241 5.74308e-19)
(0.651923 -0.0431785 5.92899e-19)
(-0.000883807 0.0210523 -6.05988e-18)
(0.00201732 0.0244685 -7.51684e-18)
(0.0223041 -0.015078 -3.28694e-18)
(0.0670784 -0.0923558 -8.86443e-19)
(0.124892 -0.17531 0)
(0.180593 -0.237397 8.16255e-19)
(0.224983 -0.269165 -3.30099e-19)
(0.256327 -0.274295 0)
(0.276972 -0.26136 -2.53766e-19)
(0.290299 -0.238328 0)
(0.299107 -0.210595 4.39511e-19)
(0.305218 -0.181224 0)
(0.309632 -0.151773 2.01931e-19)
(0.312827 -0.122964 3.9531e-19)
(0.314984 -0.095116 -3.91376e-19)
(0.316155 -0.0683653 0)
(0.316351 -0.0427678 -3.95858e-19)
(0.315584 -0.0183512 0)
(0.31389 0.00487252 0)
(0.311372 0.0269353 -4.14062e-19)
(0.308137 0.0478895 0)
(0.304381 0.0677705 -6.5859e-22)
(0.300333 0.0865491 0)
(0.296143 0.10404 0)
(0.291834 0.119829 5.8149e-22)
(0.287199 0.13318 -5.19006e-19)
(0.281804 0.142998 -5.55119e-19)
(0.274975 0.14788 -5.95004e-19)
(0.26603 0.146345 0)
(0.254555 0.137151 -1.39219e-18)
(0.240687 0.11964 0)
(0.225209 0.0940799 -8.49963e-19)
(0.209329 0.0617855 0)
(0.194109 0.025133 0)
(0.178272 -0.0111589 1.04479e-18)
(0.15546 -0.0360163 0)
(0.12118 -0.0395183 -8.20928e-19)
(0.0762036 -0.0230192 -7.9636e-22)
(0.0215894 0.00828888 1.58101e-18)
(-0.0450517 0.0501215 -1.46063e-18)
(-0.127934 0.101118 0)
(-0.226234 0.159614 0)
(-0.339469 0.221537 -3.67014e-19)
(-0.46438 0.284598 0)
(-0.594517 0.347015 -2.48218e-19)
(-0.723749 0.405743 2.1109e-19)
(-0.846929 0.455316 1.84571e-19)
(-0.959096 0.493142 0)
(-1.05775 0.519186 -1.48088e-19)
(-1.14228 0.533329 -1.35532e-19)
(-1.21247 0.536332 2.52052e-19)
(-1.26979 0.52936 -1.1673e-19)
(-1.31626 0.513992 -1.09649e-19)
(-1.35412 0.49203 0)
(-1.38583 0.465236 0)