/*--------------------------------*- C++ -*----------------------------------*\
  =========                 |
  \\      /  F ield         | OpenFOAM: The Open Source CFD Toolbox
   \\    /   O peration     | Website:  https://openfoam.org
    \\  /    A nd           | Version:  13
     \\/     M anipulation  |
\*---------------------------------------------------------------------------*/
FoamFile
{
    format      ascii;
    class       volScalarField;
    location    "6.9";
    object      epsilon;
}
// * * * * * * * * * * * * * * * * * * * * * * * * * * * * * * * * * * * * * //

dimensions      [0 2 -3 0 0 0 0];

internalField   nonuniform List<scalar> 
6400
(
2.72034e-05
0.000139784
0.000339488
0.000547437
0.000704694
0.000793236
0.000825515
0.000828603
0.000833287
0.000863616
0.0009378
0.00108381
0.00131514
0.00163664
0.0020319
0.00247902
0.00295536
0.00345096
0.00394404
0.0044214
0.00489968
0.00541931
0.00603502
0.00678248
0.00763488
0.00850342
0.00936495
0.0102186
0.0110899
0.0120032
0.0129484
0.0138914
0.0148173
0.0157265
0.0166443
0.0175754
0.0185408
0.0195461
0.0206047
0.0217202
0.0229007
0.0241551
0.0254909
0.0269264
0.0284691
0.0301698
0.0321198
0.0345206
0.0370235
0.0395486
0.0420415
0.0444662
0.0467535
0.0488374
0.050643
0.0520802
0.0528515
0.0531608
0.0531606
0.0522119
0.0504844
0.0479682
0.0446959
0.0407765
0.0363184
0.0315265
0.0266381
0.0218539
0.0173525
0.0133232
0.0100589
0.00731906
0.00510529
0.00341
0.0021898
0.0013589
0.000817231
0.000468572
0.000221255
4.70918e-05
0.000131699
0.000131391
0.000214945
0.000311836
0.000384773
0.000429061
0.000450912
0.000460806
0.000471853
0.000497226
0.000550987
0.000653003
0.000819406
0.00106264
0.00138648
0.00179199
0.00228104
0.00285994
0.0035345
0.0043139
0.00520588
0.0062471
0.00748823
0.00895597
0.0106421
0.012567
0.0145689
0.0165045
0.0182691
0.0197712
0.0209102
0.0217932
0.0223929
0.0228051
0.0230665
0.0232353
0.0233521
0.0234506
0.0235547
0.0236835
0.0238597
0.024089
0.0243817
0.0246998
0.0250734
0.0255292
0.0260674
0.0266804
0.0273745
0.0281019
0.0288726
0.0296374
0.0303819
0.0310567
0.0316219
0.031951
0.0320654
0.0319764
0.0316037
0.0308312
0.0296876
0.0281492
0.0262076
0.0239401
0.0214275
0.0187708
0.0160869
0.0134936
0.0110797
0.00893356
0.00712203
0.00556941
0.00423951
0.00310997
0.00217792
0.00142736
0.000870712
0.000488819
0.000253855
0.00024904
0.00028838
0.000239243
0.000320071
0.00040278
0.000452685
0.000477825
0.000491375
0.000506809
0.000538623
0.000604337
0.000727516
0.000935901
0.00125646
0.00170884
0.00230523
0.00305788
0.00397901
0.00508303
0.00637995
0.00787637
0.00957815
0.0114535
0.0134189
0.0153265
0.0169969
0.018199
0.0189217
0.0193206
0.0195185
0.0196566
0.0197397
0.0196755
0.0193693
0.0190845
0.0187813
0.0185175
0.0183022
0.0181704
0.0181153
0.0181085
0.0182154
0.0183999
0.0186767
0.0190776
0.0195867
0.0201864
0.0208674
0.021625
0.0224568
0.0233459
0.024284
0.0252473
0.0262146
0.0271506
0.0280164
0.0287629
0.0293287
0.0295942
0.0296403
0.0293258
0.0285752
0.0273768
0.0256974
0.0236507
0.0213128
0.0187825
0.0161872
0.0136417
0.0112526
0.00910304
0.00724616
0.0056835
0.00439201
0.00333191
0.00246581
0.00177025
0.00120271
0.000752529
0.000466273
0.000665487
0.000501288
0.000413492
0.000505989
0.000585732
0.000626832
0.000647715
0.000668272
0.000708791
0.000791624
0.000947501
0.00121536
0.00163699
0.00224731
0.00306786
0.00410882
0.00537447
0.00686486
0.00856039
0.0104083
0.0123168
0.0141539
0.0157762
0.0170333
0.0177187
0.0180077
0.0180786
0.0180353
0.0176953
0.0171597
0.0165746
0.0159195
0.0154076
0.015017
0.0146839
0.0144324
0.0142753
0.0142052
0.0141899
0.0142713
0.0144346
0.0146841
0.0150128
0.0154263
0.0159237
0.0165019
0.0171608
0.0179015
0.0187228
0.0196235
0.0205987
0.0216412
0.022738
0.023871
0.0250127
0.0261273
0.0271672
0.0280732
0.0287666
0.0291017
0.0291757
0.0288128
0.0280166
0.0267973
0.0249643
0.0227139
0.0201509
0.0174198
0.0146705
0.0120487
0.00967298
0.00762097
0.00591922
0.00455049
0.00346883
0.00261945
0.00195241
0.00141507
0.000977536
0.000698523
0.00110665
0.000804774
0.000656146
0.00074827
0.000825767
0.000869246
0.000902886
0.000953592
0.00105188
0.00123539
0.00155211
0.00205631
0.00279629
0.00380074
0.00507398
0.00659976
0.00834177
0.0102348
0.0121705
0.013991
0.0155301
0.0165711
0.0170397
0.0171762
0.0171309
0.0167259
0.0160197
0.0151599
0.0143598
0.0137053
0.0131044
0.0126019
0.012214
0.0119104
0.0116832
0.0115404
0.0114737
0.0114541
0.0114911
0.0116062
0.011774
0.0120042
0.0122927
0.0126436
0.0130578
0.0135392
0.0140918
0.0147205
0.0154301
0.0162254
0.0171102
0.0180863
0.0191512
0.0202985
0.0215144
0.0227783
0.024057
0.0252965
0.0264363
0.0273987
0.0280027
0.0282309
0.0280743
0.0273388
0.0261726
0.024254
0.0218211
0.0190413
0.016095
0.013176
0.0104682
0.00811003
0.00617104
0.00464927
0.00349142
0.00261871
0.00196157
0.00145926
0.00107162
0.000851573
0.00141027
0.00123838
0.000975573
0.00105159
0.00113112
0.00119139
0.00125904
0.0013703
0.00157021
0.00191454
0.00246729
0.00328835
0.00441434
0.00584461
0.00753894
0.00942059
0.0113749
0.0132475
0.0148564
0.0159487
0.0164259
0.016541
0.0164146
0.0158821
0.0149293
0.0139395
0.0130534
0.012252
0.0115746
0.0110078
0.0105268
0.0101407
0.00983308
0.00959054
0.00940694
0.00927615
0.00919596
0.00915931
0.00915035
0.00918679
0.00926158
0.00937405
0.00952637
0.00971948
0.00995776
0.0102455
0.0105899
0.0109985
0.0114817
0.0120508
0.0127183
0.0134975
0.0143999
0.0154349
0.016606
0.0179073
0.019327
0.0208348
0.0223812
0.0239063
0.0253026
0.0264528
0.0270516
0.0272234
0.0267659
0.0257999
0.0238081
0.0212029
0.0181672
0.0149421
0.0117981
0.00897933
0.00664372
0.00483923
0.00352023
0.00257856
0.00191131
0.0014265
0.00106972
0.00091235
0.00152045
0.00184076
0.00137801
0.00142768
0.00151945
0.00161461
0.00174188
0.00195007
0.00230108
0.00286602
0.00371361
0.00488894
0.00639174
0.00816571
0.0101005
0.0120394
0.0137896
0.0151449
0.0158118
0.01601
0.015949
0.0154213
0.0144037
0.0132905
0.0122865
0.0113732
0.0105958
0.00992562
0.00936467
0.00889011
0.00849115
0.00815936
0.00788124
0.00764922
0.00745712
0.0073
0.00717418
0.0070759
0.00700344
0.00696352
0.00694675
0.0069446
0.00697691
0.00703448
0.00712508
0.0072487
0.00741257
0.00762195
0.00788599
0.00821604
0.00862693
0.00913712
0.00977004
0.0105508
0.011505
0.0126467
0.014005
0.0155848
0.017357
0.019268
0.0212685
0.0232298
0.0250018
0.0262616
0.0267952
0.026819
0.0259751
0.0239314
0.0210773
0.0176655
0.014043
0.0105973
0.00764108
0.00533797
0.00368997
0.00258435
0.0018422
0.00135206
0.00103252
0.000904677
0.00147617
0.00264789
0.00186818
0.00188993
0.00200786
0.00215944
0.00237462
0.00271703
0.00326282
0.00408769
0.00524524
0.00674115
0.00851499
0.0104382
0.0123269
0.0139668
0.0150459
0.0154861
0.0155606
0.0152079
0.0143103
0.0131082
0.0119712
0.0109318
0.0100371
0.00926172
0.00860555
0.00804215
0.00756288
0.00715022
0.00679609
0.00649081
0.00622672
0.00599887
0.00580303
0.00563615
0.00549532
0.00537781
0.00528271
0.00520928
0.00515529
0.00512703
0.00511663
0.00511974
0.00515594
0.00521269
0.00529888
0.0054158
0.00556972
0.00576528
0.00601013
0.00631453
0.00669264
0.00716456
0.00776113
0.00853425
0.00952197
0.0107899
0.0123821
0.0142788
0.016495
0.0189335
0.0214647
0.023909
0.0259709
0.0270529
0.027393
0.0267875
0.0246255
0.0213975
0.0174551
0.013322
0.00952383
0.00643684
0.00420019
0.0027406
0.00184769
0.00129157
0.000969841
0.000869619
0.00137222
0.00368528
0.00244952
0.00244771
0.00261294
0.00284079
0.00316994
0.00367572
0.00443964
0.00552471
0.0069471
0.00865274
0.0105096
0.0123201
0.0138519
0.0147362
0.015039
0.0150483
0.0144511
0.0133156
0.0120603
0.0108844
0.00984914
0.00895103
0.00818749
0.00753187
0.00697162
0.00648757
0.0060707
0.0057095
0.00539789
0.00512893
0.00489807
0.00470141
0.00453517
0.00439633
0.00428245
0.00419141
0.00412142
0.00407071
0.00404122
0.00402859
0.00402622
0.0040447
0.00408143
0.00413574
0.00420987
0.00430478
0.00442321
0.00456794
0.00474328
0.00495459
0.00520924
0.00551733
0.00589236
0.00635509
0.00693496
0.00767947
0.00866859
0.0100525
0.0118897
0.0142269
0.0170035
0.0200711
0.0232072
0.0260455
0.0277959
0.0284579
0.0281011
0.0257418
0.0219673
0.0173525
0.012635
0.00848824
0.00532758
0.00322361
0.00198287
0.00129688
0.000922521
0.000814125
0.0012558
0.00496331
0.00312942
0.00311372
0.00334043
0.00366256
0.00412349
0.0048039
0.0057771
0.00707458
0.0086576
0.0104041
0.012118
0.0135608
0.014354
0.0146099
0.0144941
0.0137325
0.0124855
0.0112166
0.0100159
0.00897261
0.0080786
0.0073155
0.00666554
0.00610737
0.00562889
0.00521758
0.00486625
0.00456704
0.00431473
0.00410362
0.00392931
0.00378735
0.00367387
0.00358529
0.00351845
0.0034706
0.00344115
0.0034276
0.00342393
0.00343296
0.00345613
0.00349176
0.00354003
0.00360122
0.00367612
0.00376591
0.00387209
0.00399661
0.00414197
0.00431137
0.00450907
0.0047408
0.00501458
0.00533925
0.00572895
0.00620637
0.00680865
0.00759707
0.00867249
0.0102337
0.0124914
0.0154534
0.0189927
0.0228091
0.0264988
0.0289405
0.0299052
0.0297206
0.0270484
0.0225462
0.0171474
0.0118317
0.00741083
0.00428625
0.00239603
0.00139928
0.000924025
0.000767204
0.00116235
0.0065012
0.00392254
0.00389289
0.00418912
0.00461528
0.0052111
0.00605252
0.00718981
0.0086083
0.0102076
0.011806
0.0131699
0.0139238
0.0141667
0.0139794
0.0131262
0.0118538
0.0105411
0.00933421
0.00827474
0.0073787
0.00661695
0.00597003
0.00541983
0.00495172
0.0045562
0.00422422
0.00394898
0.00372329
0.00354106
0.00339605
0.00328282
0.00319623
0.0031319
0.00308609
0.0030563
0.00304174
0.00303663
0.00303847
0.00305352
0.00307675
0.00311019
0.00315303
0.00320631
0.0032706
0.00334706
0.00343698
0.00354172
0.00366288
0.00380213
0.00396132
0.00414253
0.00434815
0.0045813
0.00484649
0.00515075
0.00550555
0.0059302
0.00645182
0.00711749
0.00801723
0.00930893
0.0113053
0.0143062
0.0181976
0.0226971
0.0272823
0.0304126
0.0316442
0.0314962
0.0282816
0.0228757
0.0166292
0.0107814
0.00624678
0.00330789
0.00171579
0.000989666
0.000758023
0.00113584
0.00837802
0.00485582
0.00478189
0.00514639
0.00567478
0.00639042
0.00735307
0.00857813
0.00999862
0.0114593
0.0127413
0.0134798
0.0137231
0.0135164
0.0126263
0.0113783
0.0100382
0.00880592
0.00773499
0.00682657
0.0060644
0.00542051
0.00487904
0.00442535
0.00404872
0.00374019
0.0034909
0.00329272
0.00313751
0.00301798
0.00292735
0.0028599
0.00281078
0.00277618
0.00275324
0.00274179
0.00273737
0.00273701
0.0027464
0.00276292
0.00278677
0.0028189
0.00285983
0.00291074
0.00297266
0.003047
0.00313523
0.00323895
0.00335984
0.00349968
0.00366022
0.00384318
0.00405008
0.00428224
0.00454084
0.00482733
0.00514441
0.00549806
0.00590144
0.00638054
0.0069813
0.00777324
0.00890601
0.010649
0.0135489
0.0177268
0.022887
0.0283945
0.0321574
0.0335852
0.0332547
0.0291543
0.0226901
0.0155919
0.00940206
0.00499748
0.00242108
0.00120363
0.000796129
0.0011829
0.0104668
0.00589054
0.00576038
0.00618782
0.00680473
0.00760739
0.00863
0.00984754
0.011145
0.01233
0.0130573
0.0133034
0.0131109
0.0122531
0.0110346
0.00968995
0.00842425
0.0073299
0.00640675
0.00563613
0.00499422
0.00445978
0.00401972
0.00366135
0.00337423
0.00314796
0.00297238
0.00283806
0.00273634
0.00265984
0.00260243
0.00255932
0.00252693
0.00250275
0.00248519
0.00247352
0.00246776
0.00246588
0.00246956
0.00248049
0.00249834
0.0025242
0.00255904
0.00260406
0.00266052
0.00272987
0.00281371
0.00291379
0.00303204
0.00317051
0.00333136
0.00351673
0.00372859
0.00396853
0.00423749
0.0045356
0.00486216
0.00521618
0.00559825
0.00601441
0.00648358
0.00704962
0.00778664
0.00882755
0.010451
0.0132022
0.0176179
0.0234309
0.0298784
0.0341157
0.0356015
0.0347521
0.0293825
0.0216875
0.0138875
0.00769721
0.00372196
0.0016916
0.000937553
0.00136946
0.0127067
0.00700298
0.00680331
0.007281
0.00796141
0.00880414
0.00981278
0.0109239
0.0119874
0.0126919
0.0129365
0.0127902
0.0120032
0.0108211
0.00947925
0.00818224
0.00704995
0.0061029
0.0053179
0.00467117
0.00414068
0.00370988
0.0033658
0.0030953
0.00288635
0.00272702
0.00260648
0.00251526
0.00244551
0.00239111
0.0023475
0.00231154
0.0022812
0.00225537
0.0022336
0.00221588
0.00220246
0.00219522
0.00219267
0.00219487
0.0022061
0.00222515
0.00225339
0.00229192
0.00234193
0.00240484
0.00248221
0.00257587
0.00268788
0.00282058
0.00297655
0.00315855
0.00336939
0.00361169
0.00388756
0.00419813
0.00454307
0.00492019
0.0053256
0.00575509
0.00620794
0.00669506
0.00725412
0.00796891
0.0089658
0.0105327
0.013249
0.0179187
0.0244256
0.0318114
0.0361901
0.0374999
0.035618
0.0285735
0.019616
0.0115141
0.00577783
0.00259251
0.00127258
0.00180572
0.015025
0.00816476
0.00788037
0.00838839
0.00909817
0.00992554
0.0108427
0.0117552
0.0124097
0.0126453
0.0125597
0.0118596
0.0107351
0.00940044
0.00807233
0.00689189
0.00590577
0.00509729
0.00443768
0.00390403
0.00347692
0.00314079
0.00288104
0.00268317
0.0025339
0.00242111
0.0023347
0.00226661
0.00221084
0.00216319
0.00212099
0.00208272
0.00204771
0.00201588
0.00198752
0.00196312
0.00194332
0.00192888
0.00192171
0.00191938
0.00192365
0.00193779
0.00196036
0.00199308
0.00203675
0.00209273
0.00216247
0.00224774
0.00235064
0.00247362
0.00261954
0.00279165
0.00299353
0.00322892
0.00350145
0.00381415
0.00416877
0.00456497
0.00499948
0.00546578
0.00595514
0.00646044
0.00698513
0.00756097
0.0082762
0.00926849
0.0108442
0.0136589
0.0187097
0.0260306
0.0342219
0.0382315
0.0391221
0.0353992
0.0263037
0.0164598
0.00867675
0.00397064
0.00186148
0.00248497
0.0173492
0.00934497
0.00895846
0.00947085
0.01017
0.0109236
0.0116737
0.0122495
0.0124712
0.0124113
0.0118193
0.0107668
0.00945267
0.00809261
0.00685486
0.00581325
0.00496655
0.00428401
0.00373796
0.00330685
0.00297186
0.00271624
0.00252369
0.00237913
0.0022695
0.00218401
0.0021145
0.0020551
0.00200197
0.00195288
0.00190672
0.0018632
0.00182251
0.00178512
0.00175161
0.00172261
0.00169871
0.00168049
0.00166985
0.00166554
0.00166533
0.00167586
0.00169423
0.00172206
0.00176
0.00180923
0.00187104
0.00194709
0.00203935
0.00215026
0.00228273
0.00244022
0.00262678
0.00284696
0.00310568
0.00340788
0.00375786
0.00415844
0.0046096
0.00510722
0.00564213
0.00620074
0.00676908
0.00734308
0.00795054
0.00868873
0.00970817
0.01136
0.0144293
0.0201043
0.0285202
0.0368331
0.0402058
0.0403187
0.0334059
0.0224883
0.0124967
0.005874
0.00270314
0.00334939
0.01964
0.0105132
0.0100045
0.0104908
0.0111377
0.011762
0.0122518
0.0124531
0.0123704
0.0118891
0.0109108
0.00963201
0.00824625
0.00694228
0.00582821
0.00492443
0.00420466
0.00363543
0.00319087
0.00284941
0.00259138
0.00239864
0.00225444
0.0021445
0.00205747
0.00198487
0.00192096
0.00186216
0.00180657
0.00175343
0.00170271
0.0016548
0.00161027
0.00156973
0.00153376
0.00150287
0.00147751
0.00145805
0.00144564
0.00144002
0.00143878
0.00144618
0.00146166
0.00148546
0.00151843
0.00156146
0.00161573
0.00168268
0.00176414
0.00186235
0.00198011
0.00212083
0.00228863
0.00248843
0.00272592
0.0030074
0.00333938
0.00372783
0.00417694
0.00468737
0.0052542
0.0058653
0.00650151
0.00714101
0.00777176
0.00842006
0.00919895
0.0102749
0.0120812
0.0155713
0.0220872
0.0318731
0.0398414
0.04232
0.0399626
0.0294269
0.0173538
0.00838192
0.00382341
0.00434504
0.021843
0.011639
0.0109865
0.0114153
0.0119713
0.0123944
0.0125645
0.0124657
0.0120649
0.0111692
0.00993511
0.00853578
0.00716266
0.00595863
0.0049759
0.00419972
0.0035935
0.00312471
0.002768
0.00250083
0.00230259
0.00215489
0.00204202
0.00195177
0.0018753
0.00180675
0.00174268
0.00168141
0.00162242
0.00156588
0.00151229
0.00146227
0.00141644
0.00137529
0.00133924
0.0013086
0.00128362
0.00126446
0.00125182
0.00124591
0.00124433
0.00124975
0.00126302
0.00128356
0.00131226
0.00134983
0.00139729
0.00145591
0.00152729
0.00161344
0.0017169
0.00184084
0.00198918
0.0021668
0.00237958
0.00263448
0.00293938
0.0033027
0.00373238
0.00423432
0.00480996
0.00545336
0.00614866
0.00686983
0.00758597
0.00827747
0.00897465
0.00980603
0.0109781
0.0130687
0.0172844
0.0249518
0.0361596
0.0426167
0.0437794
0.0367654
0.0233545
0.0116501
0.00527154
0.00542554
0.0238754
0.0126928
0.0118779
0.0122211
0.0126381
0.0128163
0.0127432
0.0123376
0.0115394
0.0103627
0.00896259
0.00752568
0.00621831
0.00513216
0.00427558
0.00361396
0.00310786
0.00272579
0.00244185
0.00223267
0.00207765
0.00195953
0.00186485
0.00178409
0.00171109
0.00164236
0.0015763
0.00151253
0.00145134
0.00139331
0.00133908
0.00128924
0.00124421
0.00120432
0.00116977
0.00114067
0.00111708
0.00109904
0.00108697
0.00108123
0.00107957
0.00108375
0.00109521
0.00111306
0.00113811
0.00117097
0.0012125
0.00126379
0.00132624
0.00140161
0.00149212
0.00160061
0.00173066
0.00188678
0.00207462
0.00230118
0.00257486
0.00290543
0.0033035
0.00377938
0.00434098
0.00499046
0.0057202
0.00650894
0.00732137
0.00811562
0.00886701
0.00961927
0.0105124
0.0118513
0.0144348
0.0198473
0.0293525
0.0406358
0.0450543
0.0433615
0.0304043
0.0158536
0.00709198
0.00655425
0.0256632
0.0136476
0.0126572
0.0128883
0.013109
0.0130978
0.0127263
0.0120282
0.010912
0.00952881
0.0080395
0.00662417
0.00541135
0.00444544
0.00370431
0.00314373
0.00272414
0.00241438
0.00218792
0.00202143
0.00189555
0.00179524
0.00170986
0.00163264
0.00155983
0.00148976
0.00142208
0.00135715
0.00129559
0.00123805
0.00118507
0.00113704
0.00109419
0.00105662
0.00102436
0.000997363
0.000975571
0.000958924
0.000947662
0.000942255
0.000940616
0.000943903
0.000953817
0.000969386
0.00099132
0.00102013
0.00105657
0.00110158
0.00115635
0.0012224
0.00130167
0.00139662
0.00151042
0.00164709
0.00181183
0.00201118
0.00225341
0.00254863
0.00290882
0.00334722
0.00387694
0.00450807
0.00524328
0.00607193
0.00696474
0.00787323
0.00874165
0.00954369
0.010353
0.011332
0.0129424
0.0163199
0.023392
0.0354239
0.0449157
0.0469113
0.0380423
0.0211499
0.00933101
0.00773634
0.0271659
0.0144828
0.0133046
0.0133904
0.0134585
0.0132247
0.0126037
0.01158
0.0102318
0.00871035
0.00719238
0.0058369
0.00473054
0.00387892
0.00324067
0.00276767
0.00242094
0.00216928
0.00198617
0.00184943
0.00174192
0.00165141
0.0015701
0.00149366
0.00142018
0.00134925
0.00128122
0.00121674
0.00115646
0.00110089
0.00105039
0.00100511
0.00096509
0.000930267
0.000900525
0.000875728
0.000855746
0.000840468
0.000829992
0.000824899
0.000823287
0.000825835
0.000834393
0.000847998
0.00086725
0.000892603
0.000924702
0.00096436
0.00101261
0.00107075
0.00114047
0.00122388
0.00132372
0.00144353
0.00158789
0.00176273
0.00197573
0.00223664
0.00255768
0.00295345
0.0034404
0.00403484
0.00474921
0.00558582
0.00652879
0.0075367
0.00854276
0.00947545
0.0103162
0.0111726
0.0122904
0.0143927
0.0191665
0.0286618
0.0422433
0.0480731
0.0451872
0.0276226
0.0120588
0.00895181
0.0283619
0.0151942
0.013813
0.0137488
0.0136636
0.0132014
0.0123364
0.0110621
0.00953752
0.00793567
0.00643327
0.00515949
0.00416083
0.00341362
0.00286536
0.00246689
0.00217982
0.00197319
0.00182142
0.00170443
0.00160782
0.00152224
0.00144243
0.00136597
0.00129225
0.00122155
0.00115453
0.00109184
0.00103399
0.000981292
0.000933872
0.000891705
0.000854671
0.000822593
0.000795274
0.000772525
0.00075418
0.00074011
0.000730288
0.000725433
0.000723821
0.0007257
0.000733048
0.000744941
0.000761876
0.000784262
0.000812662
0.000847782
0.000890519
0.000942003
0.00100367
0.00107736
0.00116542
0.00127092
0.00139784
0.00155142
0.00173854
0.0019682
0.00225206
0.0026049
0.00304462
0.00359149
0.00426555
0.00508133
0.00603913
0.0071138
0.00824489
0.00933986
0.0103104
0.011157
0.0120806
0.0134673
0.0164981
0.0235342
0.0366319
0.0479147
0.0498293
0.0352629
0.0154639
0.0103065
0.0292463
0.0157827
0.0141829
0.0139734
0.0137274
0.0130907
0.0119751
0.0105062
0.00885717
0.00722131
0.00576448
0.00458239
0.00368647
0.00303228
0.0025615
0.0022252
0.00198569
0.00181286
0.00168295
0.00157853
0.00148807
0.00140486
0.00132567
0.00124945
0.00117636
0.001107
0.00104206
0.000982043
0.000927262
0.000877812
0.000833635
0.000794566
0.00076038
0.000730832
0.000705687
0.00068473
0.000667785
0.000654724
0.000645451
0.000640725
0.000639078
0.000640334
0.000646597
0.000656987
0.000671912
0.000691746
0.000716981
0.000748241
0.000786311
0.000832176
0.000887082
0.000952613
0.0010308
0.00112429
0.00123651
0.00137203
0.0015369
0.00173917
0.00198957
0.00230215
0.00269494
0.00319
0.00381226
0.00458582
0.00552641
0.00662917
0.00785343
0.00911136
0.0102793
0.011259
0.012062
0.0131152
0.0150471
0.0198228
0.0302732
0.0456926
0.0517835
0.0436544
0.019867
0.0120663
0.0298335
0.0162464
0.0144265
0.0140725
0.0136844
0.0128607
0.0115576
0.00993857
0.00820987
0.00657514
0.00518237
0.00409395
0.00329255
0.0027198
0.00231474
0.0020293
0.0018268
0.00167869
0.00156359
0.00146695
0.00137993
0.001298
0.00121944
0.00114411
0.00107252
0.00100536
0.000943183
0.000886298
0.000834807
0.000788632
0.000747578
0.000711385
0.000679769
0.000652454
0.000629188
0.000609754
0.00059398
0.000581738
0.000572937
0.000568243
0.000566533
0.000567221
0.000572508
0.000581576
0.000594752
0.000612377
0.00063489
0.000662847
0.000696941
0.000738041
0.000787238
0.000845911
0.000915824
0.000999254
0.00109918
0.00121953
0.00136558
0.00154441
0.00176563
0.00204214
0.00239116
0.00283494
0.00340079
0.00411929
0.00501863
0.00611345
0.00738723
0.00877171
0.0101377
0.0113252
0.0122716
0.0130487
0.0143981
0.0174812
0.025313
0.0408552
0.0521679
0.0513706
0.0255583
0.0144344
0.0301242
0.0165909
0.0145555
0.0140583
0.0135548
0.012558
0.0111067
0.00937882
0.00760743
0.00599901
0.00468004
0.00368223
0.00296573
0.00246327
0.0021132
0.00186865
0.00169439
0.00156399
0.00145876
0.00136691
0.00128195
0.00120106
0.00112354
0.00104975
0.00098035
0.000915921
0.000856829
0.000803195
0.000754943
0.000711862
0.000673668
0.000640045
0.000610683
0.000585295
0.00056363
0.00054548
0.00053068
0.00051911
0.000510686
0.000505971
0.000504182
0.000504384
0.000508789
0.000516691
0.000528339
0.000544042
0.000564198
0.000589305
0.000619985
0.000657012
0.000701352
0.000754222
0.000817163
0.000892157
0.000981783
0.00108945
0.00121971
0.00137875
0.00157503
0.00182014
0.00212994
0.00252576
0.0030354
0.00369288
0.00453532
0.00559422
0.00687876
0.00835081
0.00989918
0.0113392
0.0124944
0.0132835
0.0142014
0.0162291
0.0217502
0.0345444
0.051619
0.0561222
0.0331004
0.0173825
0.0301052
0.0168139
0.0145803
0.0139772
0.0133274
0.0122049
0.0106413
0.00884089
0.00705616
0.00549093
0.00424921
0.00333599
0.00269444
0.00225196
0.00194731
0.00173515
0.00158214
0.00146427
0.0013656
0.00127682
0.00119336
0.00111364
0.00103763
0.000965915
0.000899113
0.000837654
0.000781711
0.000731232
0.000686009
0.000645741
0.00061009
0.000578717
0.000551303
0.000527566
0.000507265
0.000490202
0.000476223
0.000465214
0.000457103
0.000452318
0.000450387
0.000450277
0.000453865
0.000460739
0.000471046
0.000485069
0.000503167
0.000525795
0.000553515
0.000587026
0.000627196
0.00067511
0.000732132
0.000800004
0.000880978
0.000978016
0.00109507
0.00123752
0.00141274
0.001631
0.00190659
0.00225932
0.00271609
0.00331202
0.00408949
0.00509259
0.00635299
0.00786439
0.00954786
0.0112268
0.0126558
0.0136265
0.0142558
0.0156742
0.0193456
0.029199
0.0485343
0.0581664
0.0425862
0.0207882
0.0299427
0.0169555
0.0145421
0.0138028
0.01304
0.0118189
0.0101759
0.00833405
0.00655838
0.00504663
0.00388131
0.00304513
0.00246887
0.00207706
0.00180953
0.00162276
0.00148558
0.00137656
0.00128232
0.0011957
0.0011136
0.00103532
0.000961213
0.000891896
0.000827878
0.000769413
0.000716502
0.000668959
0.000626481
0.000588714
0.000555293
0.000525871
0.000500136
0.000477816
0.000458682
0.000442549
0.000429273
0.000418748
0.000410908
0.000406036
0.000403933
0.000403627
0.00040648
0.000412443
0.000421572
0.000434117
0.000450408
0.00047086
0.00049599
0.000526436
0.000562987
0.000606623
0.000658569
0.000720375
0.00079403
0.000882127
0.000988116
0.00111667
0.00127421
0.00146976
0.00171601
0.00203095
0.00243978
0.00297698
0.00368727
0.00462319
0.00583498
0.00734748
0.0091215
0.0110067
0.0127234
0.0140247
0.0146851
0.0155208
0.0180043
0.0256218
0.0430841
0.0585792
0.0524995
0.0242559
0.0295842
0.0170348
0.0144394
0.0135639
0.0127083
0.0114143
0.00972138
0.00786385
0.00611371
0.00466071
0.00356817
0.00280086
0.00228088
0.0019315
0.00169406
0.00152704
0.00140162
0.00129888
0.00120777
0.00112285
0.00104218
0.000965597
0.000893634
0.00082686
0.000765635
0.000710043
0.000659948
0.000615065
0.000575031
0.00053946
0.00050798
0.000480248
0.000455962
0.000434866
0.000416742
0.000401417
0.000388755
0.000378655
0.000371053
0.000366111
0.000363857
0.000363388
0.00036561
0.000370769
0.000378858
0.000390098
0.000404791
0.000423322
0.000446166
0.000473913
0.000507291
0.000547194
0.00059474
0.000651325
0.000718728
0.000799247
0.000895914
0.00101281
0.00115555
0.001332
0.00155337
0.00183575
0.00220223
0.00268554
0.00333042
0.004194
0.00533996
0.00682026
0.00863811
0.0106926
0.0127279
0.0143428
0.0151595
0.0157026
0.0173576
0.0226509
0.0376302
0.0577727
0.0606562
0.0269858
0.0290272
0.0170318
0.0142674
0.0132792
0.0123467
0.0110031
0.0092855
0.00743308
0.00572
0.00432739
0.0033023
0.00259569
0.00212377
0.00180967
0.00159646
0.00144475
0.00132807
0.00122988
0.00114111
0.00105772
0.000978574
0.000903862
0.000834156
0.000769927
0.00071138
0.000658459
0.000610919
0.000568408
0.000530525
0.000496873
0.000467081
0.000440816
0.000417791
0.000397761
0.000380523
0.000365911
0.000353795
0.000344079
0.000336697
0.000331709
0.000329327
0.000328715
0.000330406
0.000334855
0.000342026
0.00035211
0.000365386
0.000382209
0.000403022
0.000428375
0.000458943
0.000495557
0.000539245
0.000591286
0.000653292
0.000727327
0.000816084
0.00092316
0.00105348
0.00121391
0.00141431
0.00166895
0.00199866
0.0024338
0.00301759
0.00380864
0.00487921
0.00630232
0.00811889
0.0102797
0.012575
0.0146013
0.0157158
0.016215
0.0171575
0.0207875
0.0324338
0.0555415
0.064778
0.0282162
0.0283031
0.0169979
0.0140589
0.0129629
0.0119674
0.0105945
0.00887343
0.00704253
0.00537413
0.00404096
0.0030771
0.00242333
0.00199213
0.00170716
0.00151337
0.00137351
0.00126339
0.00116859
0.0010817
0.000999771
0.000922232
0.000849466
0.000782018
0.000720233
0.000664179
0.000613686
0.00056843
0.000528011
0.000492013
0.000460036
0.000431715
0.000406731
0.00038481
0.00036572
0.000349266
0.000335292
0.00032367
0.000314307
0.000307137
0.000302132
0.000299641
0.000298905
0.00030015
0.000303977
0.000310336
0.000319395
0.00033141
0.000346709
0.000365709
0.000388924
0.000416987
0.000450675
0.000490948
0.000538992
0.000596288
0.000664714
0.000746697
0.00084544
0.000965286
0.00111228
0.00129507
0.00152624
0.00182443
0.00221733
0.00274567
0.0034674
0.00445945
0.00581075
0.00759578
0.00981776
0.0123221
0.0147179
0.0162364
0.0168237
0.0172777
0.0197989
0.0289609
0.0513821
0.0662585
0.0284201
0.0274529
0.016919
0.0138239
0.0126268
0.0115809
0.0101954
0.00848839
0.00669155
0.00507239
0.00379604
0.00288686
0.00227855
0.00188156
0.00162053
0.00144226
0.00131159
0.00120644
0.00111424
0.00102896
0.000948471
0.000872576
0.000801752
0.000736476
0.000676972
0.000623191
0.000574872
0.000531636
0.000493055
0.000458706
0.00042819
0.000401157
0.000377298
0.000356351
0.000338094
0.000322342
0.000308942
0.000297771
0.000288732
0.000281758
0.000276806
0.000274203
0.000273353
0.000274229
0.000277511
0.000283154
0.000291303
0.000302193
0.000316131
0.000333508
0.000354805
0.000380622
0.000411691
0.000448916
0.000493409
0.000546549
0.000610073
0.000686194
0.000777802
0.000888773
0.00102445
0.00119245
0.00140385
0.00167524
0.00203158
0.00251055
0.00316781
0.00408156
0.00535101
0.00707768
0.00931498
0.0119794
0.0147472
0.016769
0.0175441
0.0178375
0.019352
0.0263218
0.0466726
0.0663013
0.0278542
0.026511
0.0168109
0.0135731
0.0122814
0.0111953
0.00981125
0.00813197
0.00637858
0.00481104
0.00358779
0.00272663
0.00215704
0.00178857
0.00154708
0.00138118
0.00125766
0.00115634
0.00106624
0.000982392
0.000903305
0.000829035
0.000760082
0.000696839
0.000639419
0.000587676
0.000541284
0.000499823
0.000462852
0.000429942
0.000400707
0.000374804
0.000351937
0.000331854
0.000314342
0.000299221
0.000286343
0.000275584
0.000266848
0.000260064
0.000255187
0.000252487
0.000251537
0.000252107
0.000254916
0.000259926
0.000267268
0.000277156
0.000289878
0.000305798
0.000325374
0.000349171
0.000377885
0.000412372
0.000453685
0.000503126
0.000562318
0.000633312
0.000718752
0.000822137
0.00094824
0.00110379
0.00129859
0.00154732
0.00187235
0.0023081
0.00290702
0.00374624
0.0049308
0.00658263
0.00879742
0.0115559
0.0146122
0.0172079
0.0182662
0.0184999
0.0192317
0.0243862
0.0423423
0.0641243
0.0269221
0.0255078
0.0166883
0.0133154
0.0119349
0.0108172
0.00944556
0.00780472
0.00610151
0.00458614
0.00341182
0.00259237
0.00205531
0.00171036
0.0014847
0.00132865
0.00121073
0.00111241
0.00102403
0.000941497
0.000863769
0.000791062
0.000723863
0.00066248
0.000606933
0.000556998
0.000512298
0.000472391
0.000436824
0.000405175
0.000377061
0.000352153
0.000330163
0.00031085
0.000294005
0.000279454
0.000267049
0.000256669
0.000248215
0.000241614
0.000236818
0.000234037
0.000232998
0.000233319
0.000235717
0.00024017
0.000246796
0.000255793
0.000267428
0.000282044
0.000300073
0.000322051
0.000348641
0.00038066
0.000419112
0.000465234
0.000520563
0.000587026
0.000667076
0.000763919
0.000881862
0.00102691
0.00120776
0.00143739
0.00173578
0.00213408
0.00268093
0.00345066
0.0045505
0.00611747
0.00828512
0.0110947
0.0143513
0.0174998
0.0190443
0.0193559
0.0195098
0.0230531
0.0384766
0.0610754
0.0257857
0.0244472
0.0165685
0.0130614
0.011595
0.0104519
0.00910083
0.00750636
0.00585791
0.00439423
0.00326434
0.00248062
0.00197049
0.0016447
0.00143176
0.0012835
0.00116997
0.00107405
0.000987137
0.000905822
0.000829388
0.000758147
0.000692557
0.000632846
0.000578958
0.00053061
0.000487388
0.000448834
0.000414491
0.000383942
0.000356812
0.00033278
0.000311568
0.00029294
0.000276692
0.000262654
0.000250678
0.000240644
0.000232451
0.000226022
0.000221304
0.000218455
0.000217333
0.000217454
0.000219496
0.00022346
0.000229453
0.000237658
0.000248324
0.000261773
0.000278414
0.000298757
0.000323432
0.000353222
0.000389088
0.000432217
0.000484078
0.0005465
0.000621794
0.000712936
0.00082387
0.000960014
0.00112912
0.00134271
0.00161856
0.00198472
0.00248581
0.0031922
0.00421019
0.00568624
0.00778564
0.0106147
0.0140646
0.0176238
0.0197924
0.0202586
0.0201571
0.0223583