/*--------------------------------*- C++ -*----------------------------------*\
  =========                 |
  \\      /  F ield         | OpenFOAM: The Open Source CFD Toolbox
   \\    /   O peration     | Website:  https://openfoam.org
    \\  /    A nd           | Version:  13
     \\/     M anipulation  |
\*---------------------------------------------------------------------------*/
FoamFile
{
    format      ascii;
    class       volScalarField;
    location    "6.9";
    object      p;
}
// * * * * * * * * * * * * * * * * * * * * * * * * * * * * * * * * * * * * * //

dimensions      [0 2 -2 0 0 0 0];

internalField   nonuniform List<scalar> 
6400
(
3.96461e-09
1.95908e-05
2.84743e-05
1.36083e-05
-3.02582e-05
-9.8145e-05
-0.000180475
-0.000268222
-0.000355131
-0.000438123
-0.000517848
-0.000598432
-0.00068452
-0.000781255
-0.000893733
-0.001026
-0.001181
-0.00136048
-0.00156566
-0.00179727
-0.00205575
-0.00234234
-0.00265981
-0.00301258
-0.00340699
-0.00384763
-0.00433064
-0.00484708
-0.00537594
-0.00588159
-0.00635821
-0.0068136
-0.00724562
-0.00765152
-0.00802621
-0.00836138
-0.00864606
-0.00886745
-0.00901195
-0.00906606
-0.00901683
-0.0088531
-0.00856637
-0.00815171
-0.00760599
-0.0069227
-0.0060954
-0.00513783
-0.00406626
-0.00288799
-0.00162277
-0.000291363
0.00107785
0.00245302
0.00379466
0.00505776
0.00619779
0.00717314
0.00794371
0.00847725
0.00875419
0.00877084
0.00853928
0.00808169
0.00745307
0.0067073
0.00590912
0.00512204
0.00440336
0.00378385
0.00329871
0.0029609
0.00274064
0.00261119
0.00255483
0.00254738
0.00256937
0.00260549
0.00264498
0.00267211
-1.48189e-05
5.17999e-06
9.51855e-06
-1.02721e-05
-5.69732e-05
-0.000124831
-0.00020334
-0.000284017
-0.00036193
-0.000435745
-0.00050743
-0.000580989
-0.00066124
-0.000752842
-0.000859624
-0.000985068
-0.00113247
-0.00130434
-0.00150138
-0.00172387
-0.00197091
-0.00224282
-0.00254254
-0.00287279
-0.00323662
-0.00364082
-0.00409309
-0.00459267
-0.00512652
-0.00567123
-0.00619824
-0.00669728
-0.0071703
-0.00761423
-0.00802349
-0.00838969
-0.00870201
-0.00894821
-0.00911545
-0.00919136
-0.00916413
-0.00902366
-0.00876207
-0.00837315
-0.0078516
-0.00719337
-0.0064068
-0.00549745
-0.00446643
-0.00332992
-0.00210586
-0.000816688
0.000510277
0.00184239
0.00314227
0.00437003
0.00548337
0.00644017
0.00720374
0.00774328
0.00803873
0.00808557
0.007895
0.00749319
0.00692415
0.00624195
0.00550869
0.00478427
0.00412184
0.00356362
0.00312981
0.00282798
0.00264589
0.00255931
0.00254324
0.00257214
0.00261473
0.00265317
0.0026855
0.00271124
-3.07441e-05
-8.4934e-06
-9.69091e-06
-3.84876e-05
-9.31229e-05
-0.000163601
-0.000238397
-0.000309359
-0.000373764
-0.000433253
-0.000491491
-0.000553357
-0.000623857
-0.000706751
-0.000804499
-0.000918881
-0.00105143
-0.00120438
-0.00137997
-0.00158088
-0.00181062
-0.00207245
-0.00237056
-0.00270977
-0.0030944
-0.00352693
-0.00400788
-0.00453379
-0.0050944
-0.00567261
-0.00624851
-0.00680595
-0.00733538
-0.0078302
-0.0082836
-0.00868676
-0.00902972
-0.00930173
-0.00949142
-0.00958759
-0.00958016
-0.00946025
-0.0092206
-0.00885581
-0.0083636
-0.00774385
-0.00698839
-0.00611206
-0.0051212
-0.00402718
-0.0028461
-0.00159892
-0.000311489
0.000985589
0.00225742
0.00346614
0.00457026
0.00552838
0.00630452
0.00686891
0.00720098
0.00729392
0.00715815
0.00681893
0.00631746
0.00570641
0.0050362
0.00437796
0.00377497
0.00326592
0.0028757
0.00261938
0.00248521
0.00244571
0.00246697
0.00252655
0.00259509
0.0026528
0.0027
0.00273698
-3.93278e-05
-1.78854e-05
-2.64621e-05
-6.63322e-05
-0.000131054
-0.000204808
-0.0002761
-0.000338407
-0.000390317
-0.00043399
-0.000475538
-0.00052162
-0.000577715
-0.000647532
-0.000732829
-0.000834366
-0.000953456
-0.00109286
-0.00125642
-0.00144954
-0.00167917
-0.00195302
-0.00227855
-0.0026584
-0.00309498
-0.00358962
-0.00413866
-0.00473206
-0.00535444
-0.00598926
-0.00662008
-0.00723178
-0.00781185
-0.00835117
-0.00884146
-0.00927369
-0.00963914
-0.00992835
-0.0101314
-0.0102387
-0.0102416
-0.0101325
-0.00990479
-0.00955408
-0.00907874
-0.00847797
-0.00775069
-0.00690222
-0.00593953
-0.00487346
-0.00371921
-0.00249639
-0.00122883
5.5484e-05
0.00132413
0.00253973
0.00366134
0.00464896
0.00546477
0.00607769
0.00646602
0.00661888
0.00654384
0.0062657
0.00582298
0.00526427
0.00464517
0.0040268
0.00345924
0.00298182
0.00261909
0.0023827
0.00226544
0.00225166
0.00231304
0.00240806
0.00250842
0.00259639
0.0026675
0.00271685
-3.38846e-05
-1.96109e-05
-3.81816e-05
-8.95117e-05
-0.000163815
-0.000240558
-0.00030834
-0.000362083
-0.000401776
-0.00043162
-0.000458748
-0.000490711
-0.000533428
-0.000590553
-0.0006642
-0.000756144
-0.000869404
-0.00100962
-0.00118375
-0.00139978
-0.00166749
-0.00199241
-0.00237936
-0.00283279
-0.00335225
-0.00393209
-0.00456253
-0.00522938
-0.00591529
-0.00660414
-0.0072805
-0.00793192
-0.0085478
-0.00911774
-0.00963268
-0.0100841
-0.0104637
-0.0107631
-0.0109738
-0.0110875
-0.0110972
-0.0109966
-0.0107799
-0.0104428
-0.00998436
-0.009404
-0.00870212
-0.00788112
-0.00694587
-0.00590616
-0.0047765
-0.0035752
-0.00232323
-0.00104463
0.000231159
0.00146632
0.00261962
0.0036541
0.00453141
0.00521712
0.00568752
0.0059275
0.00593823
0.00573918
0.00536954
0.00487546
0.00431098
0.00373372
0.00319689
0.00274202
0.00239643
0.00217134
0.00206389
0.00205804
0.00212947
0.00224466
0.00237045
0.00248585
0.00257945
0.002638
-5.77869e-06
-5.15182e-06
-3.60038e-05
-0.000101038
-0.000183603
-0.000261563
-0.00032545
-0.000371651
-0.000401337
-0.000420483
-0.000437338
-0.000459897
-0.000494234
-0.000544651
-0.000614887
-0.000709255
-0.000834165
-0.000998278
-0.00121242
-0.00148375
-0.0018198
-0.00222791
-0.00270975
-0.00326252
-0.00387767
-0.00454351
-0.0052479
-0.00597719
-0.00671616
-0.00744971
-0.00816381
-0.00884683
-0.00948867
-0.0100799
-0.0106119
-0.0110764
-0.0114654
-0.0117716
-0.0119881
-0.0121075
-0.0121249
-0.0120356
-0.0118343
-0.0115172
-0.0110846
-0.0105346
-0.00986714
-0.00908395
-0.00818869
-0.00718836
-0.00609524
-0.00492531
-0.00369502
-0.00242432
-0.00114147
0.000113763
0.00130373
0.00239704
0.0033534
0.00413338
0.00471288
0.00507174
0.00520571
0.00512435
0.0048609
0.00446175
0.00397859
0.00346515
0.00297472
0.00255163
0.00222598
0.00201189
0.00190857
0.00190279
0.00197215
0.00208832
0.00222093
0.00234654
0.0024497
0.00251132
5.52022e-05
3.85447e-05
-8.30921e-06
-9.0124e-05
-0.000178035
-0.000256395
-0.000317114
-0.000357902
-0.000381865
-0.000396193
-0.000409732
-0.000430728
-0.000465896
-0.000521249
-0.000603466
-0.000719937
-0.000880864
-0.00109811
-0.00137992
-0.00173494
-0.00216974
-0.00268585
-0.00327479
-0.00392604
-0.00462965
-0.00537378
-0.00614486
-0.00692922
-0.00771331
-0.00848389
-0.00922859
-0.00993667
-0.0105985
-0.0112054
-0.0117495
-0.0122219
-0.0126153
-0.0129248
-0.0131452
-0.0132726
-0.0133024
-0.0132298
-0.0130503
-0.0127614
-0.0123617
-0.0118486
-0.0112225
-0.0104857
-0.00964335
-0.00870155
-0.00766658
-0.00654675
-0.00535632
-0.00411591
-0.00285166
-0.00159045
-0.000361836
0.000800388
0.00184633
0.00273975
0.00345578
0.00396655
0.00426267
0.00434477
0.00423485
0.00397263
0.00360805
0.00319223
0.00277584
0.00240448
0.00211118
0.00191344
0.00181375
0.00180354
0.00186252
0.0019668
0.00208952
0.00220739
0.00230486
0.00236119
0.000159132
0.000122127
5.38226e-05
-4.18361e-05
-0.000135235
-0.000214899
-0.00027454
-0.000314137
-0.000338548
-0.00035602
-0.000375842
-0.000406686
-0.000456605
-0.000534403
-0.000649679
-0.000813689
-0.00103848
-0.00133569
-0.0017135
-0.0021784
-0.00272732
-0.00335219
-0.00404266
-0.00478716
-0.00557292
-0.00638705
-0.00721646
-0.00804847
-0.00887075
-0.00967156
-0.01044
-0.0111665
-0.0118415
-0.0124563
-0.0130033
-0.0134762
-0.0138716
-0.0141856
-0.0144138
-0.0145531
-0.0145975
-0.0145422
-0.0143839
-0.0141199
-0.0137533
-0.0132795
-0.0126996
-0.0120165
-0.0112351
-0.0103601
-0.00939444
-0.00834246
-0.00721653
-0.00603414
-0.00481399
-0.00357373
-0.00233507
-0.00113902
-1.65333e-05
0.0010046
0.00187682
0.00256698
0.00306121
0.00334865
0.00344146
0.0033651
0.00316304
0.00288424
0.00257569
0.00228279
0.00204104
0.00187152
0.00178093
0.00176408
0.00180715
0.00189105
0.00199157
0.00208916
0.00216648
0.00220812
0.000311322
0.000253825
0.000160997
5.18862e-05
-4.80869e-05
-0.000130656
-0.000192908
-0.000237119
-0.000269964
-0.000300666
-0.000339005
-0.00039453
-0.000477348
-0.00059925
-0.000773194
-0.00101125
-0.00132638
-0.00172974
-0.00222429
-0.00280603
-0.00346799
-0.0041987
-0.00498518
-0.00581408
-0.00667239
-0.00754725
-0.00842644
-0.00929815
-0.0101511
-0.0109745
-0.0117589
-0.0124949
-0.0131734
-0.0137874
-0.0143328
-0.0148081
-0.0152101
-0.0155321
-0.0157689
-0.015915
-0.0159677
-0.0159255
-0.0157871
-0.0155519
-0.015216
-0.0147826
-0.0142515
-0.013624
-0.0129022
-0.0120891
-0.0111895
-0.0102101
-0.00915978
-0.00805089
-0.00689685
-0.00570848
-0.00449983
-0.00329862
-0.00212665
-0.00101827
-1.24332e-05
0.000869304
0.00158136
0.00210502
0.00244113
0.00259971
0.00260751
0.00250808
0.00234449
0.00215991
0.00199256
0.00186753
0.00179592
0.00177725
0.00180275
0.00185923
0.00192933
0.00199769
0.00204441
0.00206716
0.000519048
0.000438911
0.000318911
0.000194871
8.58804e-05
-2.52115e-06
-7.22536e-05
-0.000128381
-0.000179399
-0.000235471
-0.00030706
-0.000404986
-0.000541878
-0.000732341
-0.000990018
-0.0013272
-0.00175585
-0.00228015
-0.00289606
-0.00359536
-0.00436666
-0.00519551
-0.00606845
-0.00697188
-0.00789305
-0.00881951
-0.00973972
-0.0106426
-0.0115177
-0.0123555
-0.0131471
-0.0138848
-0.014563
-0.0151777
-0.015724
-0.0161976
-0.0165933
-0.0169072
-0.0171376
-0.0172825
-0.01734
-0.0173088
-0.0171887
-0.0169794
-0.0166771
-0.0162844
-0.0158022
-0.0152316
-0.0145741
-0.0138317
-0.0130076
-0.0121066
-0.0111346
-0.0100982
-0.00900516
-0.00786685
-0.00670334
-0.00552977
-0.00435806
-0.00320728
-0.00210422
-0.00107769
-0.000168759
0.000605908
0.00120837
0.00163881
0.00190228
0.00202659
0.0020483
0.00200571
0.00193738
0.00187467
0.00183451
0.00182176
0.00183267
0.00186045
0.00189601
0.00192782
0.00194114
0.00194518
0.000785089
0.000676251
0.000528224
0.000384141
0.000264333
0.000165427
8.18985e-05
5.12632e-06
-7.53454e-05
-0.000170628
-0.000291972
-0.000452049
-0.000665632
-0.00094786
-0.00131175
-0.00176793
-0.00232203
-0.00297224
-0.0037095
-0.00452119
-0.00539328
-0.00631095
-0.0072605
-0.00822852
-0.00920256
-0.0101707
-0.0111219
-0.0120461
-0.0129338
-0.0137768
-0.0145677
-0.0153004
-0.0159707
-0.016574
-0.0171071
-0.0175668
-0.0179498
-0.0182538
-0.0184777
-0.0186204
-0.0186809
-0.0186584
-0.0185529
-0.0183644
-0.0180915
-0.0177353
-0.017297
-0.0167779
-0.0161795
-0.0155036
-0.0147529
-0.0139305
-0.0130403
-0.0120862
-0.0110723
-0.0100051
-0.00889411
-0.00774938
-0.00658645
-0.0054275
-0.00428352
-0.0031681
-0.00210268
-0.00112194
-0.000257617
0.000456473
0.00100731
0.00139784
0.00164762
0.00178622
0.00184704
0.00186554
0.00186938
0.00187102
0.00187362
0.0018753
0.00187585
0.0018688
0.00185063
0.00183835
0.00109767
0.000959759
0.00077728
0.000610263
0.000476048
0.000362697
0.000258327
0.000151124
2.88833e-05
-0.000120302
-0.00030889
-0.000550869
-0.000861665
-0.00125527
-0.00174213
-0.00232817
-0.00301291
-0.00378818
-0.00464079
-0.00555636
-0.00651961
-0.00751587
-0.00853134
-0.00955289
-0.0105684
-0.0115665
-0.012537
-0.0134708
-0.01436
-0.0151977
-0.0159781
-0.0166967
-0.01735
-0.0179351
-0.0184496
-0.0188917
-0.0192595
-0.0195518
-0.0197677
-0.0199066
-0.0199681
-0.0199519
-0.0198582
-0.0196872
-0.019439
-0.0191144
-0.0187145
-0.0182406
-0.0176944
-0.0170776
-0.0163923
-0.0156409
-0.0148261
-0.0139504
-0.0130166
-0.012028
-0.0109886
-0.00990228
-0.00877577
-0.00761881
-0.00644512
-0.00527962
-0.00412495
-0.00299643
-0.00192242
-0.000946932
-0.000104504
0.000579358
0.00109742
0.00145959
0.00168891
0.00181555
0.00187696
0.00190082
0.00190005
0.00188073
0.00184953
0.00180735
0.00176307
0.00173686
0.00144285
0.00127437
0.00105297
0.000860177
0.00070796
0.000574291
0.000441025
0.000292985
0.000116435
-0.000101476
-0.000373682
-0.000715092
-0.00113988
-0.00165899
-0.00227858
-0.00299876
-0.00381244
-0.00470661
-0.0056661
-0.00667545
-0.00771906
-0.00878237
-0.00985165
-0.0109141
-0.0119583
-0.0129736
-0.0139512
-0.0148834
-0.0157637
-0.016587
-0.0173492
-0.0180472
-0.0186787
-0.0192419
-0.0197355
-0.0201584
-0.0205097
-0.0207889
-0.0209956
-0.0211295
-0.0211905
-0.0211788
-0.0210948
-0.0209389
-0.0207117
-0.0204141
-0.0200473
-0.0196127
-0.0191118
-0.0185463
-0.0179182
-0.0172292
-0.0164812
-0.015676
-0.0148151
-0.0139
-0.0129322
-0.0119129
-0.0108437
-0.00972614
-0.00856396
-0.00736613
-0.00614746
-0.004928
-0.00371449
-0.00253521
-0.00143293
-0.000457227
0.000353907
0.000979082
0.00142015
0.00169522
0.00183804
0.00189407
0.00189424
0.0018579
0.00180044
0.00173019
0.00166705
0.00163217
0.00180304
0.00160112
0.00133835
0.00111574
0.000941239
0.000781006
0.000610501
0.000411363
0.000168515
-0.000131097
-0.000501422
-0.000956385
-0.00150706
-0.00216008
-0.00291557
-0.00376732
-0.00470309
-0.00570703
-0.00676285
-0.00785441
-0.0089661
-0.0100835
-0.0111932
-0.0122832
-0.0133429
-0.0143633
-0.0153369
-0.0162577
-0.0171212
-0.0179238
-0.0186628
-0.0193366
-0.0199439
-0.0204838
-0.0209557
-0.0213593
-0.0216941
-0.0219602
-0.0221575
-0.0222862
-0.0223462
-0.022338
-0.0222622
-0.0221192
-0.02191
-0.0216355
-0.0212971
-0.020896
-0.0204339
-0.0199124
-0.0193332
-0.0186978
-0.0180078
-0.0172642
-0.0164679
-0.0156192
-0.0147178
-0.0137631
-0.0127541
-0.011689
-0.0105666
-0.00938597
-0.00814934
-0.0068673
-0.00556163
-0.00424516
-0.00294331
-0.00171257
-0.000611919
0.000302148
0.000995025
0.00146432
0.00172946
0.00183805
0.00184764
0.00179734
0.00171781
0.00162609
0.00155097
0.00151098
0.00215393
0.00191717
0.00160983
0.00135538
0.00115445
0.000961434
0.000745609
0.000486204
0.000167131
-0.000225653
-0.000705759
-0.00128398
-0.00196732
-0.00275583
-0.0036438
-0.0046197
-0.00566757
-0.00676991
-0.00790968
-0.00907038
-0.0102366
-0.0113943
-0.0125308
-0.0136352
-0.0146985
-0.0157133
-0.016674
-0.0175765
-0.0184178
-0.0191957
-0.0199092
-0.0205574
-0.02114
-0.0216568
-0.0221078
-0.022493
-0.0228125
-0.0230665
-0.0232553
-0.0233791
-0.0234382
-0.0234331
-0.0233644
-0.0232327
-0.0230391
-0.0227845
-0.0224703
-0.0220978
-0.0216686
-0.0211842
-0.0206463
-0.0200562
-0.0194153
-0.0187243
-0.0179837
-0.017193
-0.0163512
-0.0154564
-0.0145054
-0.0134948
-0.0124202
-0.0112771
-0.0100621
-0.0087747
-0.00742005
-0.00601192
-0.00457899
-0.00315261
-0.00180081
-0.00059943
0.000375617
0.00108172
0.00151935
0.00172029
0.00175525
0.00169785
0.00159839
0.00148825
0.00140562
0.00136137
0.00246894
0.00219749
0.00184511
0.0015568
0.00132528
0.00109319
0.000825026
0.000497946
9.43504e-05
-0.000400804
-0.000997988
-0.0017041
-0.00251984
-0.0034395
-0.00445198
-0.00554129
-0.00668899
-0.00787657
-0.00908649
-0.0103022
-0.0115088
-0.0126929
-0.0138433
-0.0149505
-0.0160074
-0.0170085
-0.0179501
-0.0188297
-0.0196459
-0.0203977
-0.0210851
-0.0217081
-0.022267
-0.0227621
-0.0231938
-0.0235625
-0.0238684
-0.0241119
-0.0242933
-0.0244131
-0.0244717
-0.0244696
-0.0244074
-0.0242858
-0.0241058
-0.0238685
-0.023575
-0.0232268
-0.0228254
-0.0223722
-0.0218688
-0.0213166
-0.0207166
-0.0200697
-0.019376
-0.018635
-0.0178449
-0.0170033
-0.0161064
-0.015149
-0.0141248
-0.0130269
-0.0118484
-0.0105835
-0.00922931
-0.00778821
-0.00627496
-0.00472199
-0.00317887
-0.00172717
-0.000465689
0.000515392
0.00117264
0.00151805
0.00161351
0.00156098
0.00144434
0.00131686
0.00122617
0.0011746
0.0027264
0.00241794
0.00202142
0.00169773
0.00143137
0.00115495
0.000829478
0.000429334
-6.59401e-05
-0.000668582
-0.00138505
-0.00221734
-0.00316004
-0.00420225
-0.00532785
-0.00651747
-0.00775105
-0.00900945
-0.0102749
-0.0115313
-0.0127644
-0.0139622
-0.015115
-0.0162156
-0.0172585
-0.0182403
-0.019159
-0.0200134
-0.0208035
-0.0215294
-0.0221917
-0.022791
-0.0233281
-0.0238037
-0.0242183
-0.0245724
-0.0248666
-0.0251013
-0.0252769
-0.0253937
-0.0254524
-0.0254534
-0.0253972
-0.0252847
-0.0251168
-0.0248945
-0.024619
-0.0242916
-0.0239136
-0.0234867
-0.0230121
-0.0224913
-0.0219253
-0.0213149
-0.0206601
-0.0199605
-0.0192143
-0.0184188
-0.0175699
-0.0166618
-0.0156875
-0.0146385
-0.0135052
-0.0122782
-0.0109494
-0.00951464
-0.00797738
-0.00635523
-0.00468888
-0.00304732
-0.00153277
-0.000264978
0.000657984
0.00120203
0.00140834
0.00138566
0.00125998
0.00111427
0.00100853
0.00094382
0.00289455
0.00255513
0.00211746
0.00175786
0.00145339
0.00112956
0.000743206
0.000264789
-0.000324634
-0.00103443
-0.00186787
-0.00282011
-0.00388077
-0.00503369
-0.00625863
-0.00753387
-0.00883832
-0.0101525
-0.0114588
-0.0127419
-0.0139888
-0.0151892
-0.0163354
-0.0174221
-0.0184459
-0.019405
-0.0202989
-0.0211277
-0.0218922
-0.0225934
-0.0232324
-0.0238103
-0.0243279
-0.0247863
-0.0251862
-0.025528
-0.0258125
-0.0260401
-0.0262111
-0.0263261
-0.0263854
-0.0263896
-0.0263392
-0.0262352
-0.0260781
-0.025869
-0.0256091
-0.0252995
-0.0249416
-0.0245367
-0.0240863
-0.0235916
-0.0230536
-0.0224732
-0.0218505
-0.021185
-0.0204753
-0.0197188
-0.0189113
-0.0180473
-0.0171194
-0.0161184
-0.0150338
-0.0138537
-0.0125664
-0.0111625
-0.0096375
-0.0079972
-0.00626689
-0.00450241
-0.00279458
-0.00126569
-5.5171e-05
0.000738827
0.00111629
0.00116661
0.00104425
0.000879753
0.00074797
0.000665804
0.00295855
0.00259145
0.0021161
0.00172083
0.00137682
0.00100379
0.000553698
-4.13373e-06
-0.000686342
-0.00150009
-0.00244334
-0.00350619
-0.00467277
-0.00592227
-0.00723133
-0.00857666
-0.00993659
-0.0112916
-0.0126248
-0.0139219
-0.0151716
-0.0163656
-0.0174982
-0.0185661
-0.0195676
-0.0205024
-0.0213712
-0.0221751
-0.0229155
-0.023594
-0.024212
-0.0247707
-0.0252715
-0.0257151
-0.0261024
-0.0264341
-0.0267107
-0.0269327
-0.0271004
-0.0272143
-0.0272748
-0.0272824
-0.0272377
-0.0271414
-0.0269941
-0.0267968
-0.0265506
-0.0262565
-0.0259159
-0.0255298
-0.0250997
-0.0246268
-0.0241121
-0.0235564
-0.0229599
-0.0223225
-0.0216428
-0.0209186
-0.0201464
-0.0193207
-0.0184344
-0.0174785
-0.016442
-0.015312
-0.0140749
-0.0127174
-0.0112293
-0.00960691
-0.00786089
-0.00603053
-0.00419548
-0.00246288
-0.000976812
0.000105243
0.000706728
0.000882256
0.000791695
0.000609594
0.000440153
0.000339559
0.00290363
0.00251348
0.00200523
0.00157588
0.00119221
0.000768355
0.000253763
-0.000380589
-0.00115115
-0.00206201
-0.00310558
-0.00426695
-0.00552525
-0.00685584
-0.00823313
-0.00963286
-0.0110331
-0.0124149
-0.0137622
-0.0150623
-0.0163059
-0.0174866
-0.0186007
-0.0196467
-0.0206243
-0.0215346
-0.022379
-0.0231594
-0.0238777
-0.0245357
-0.025135
-0.0256772
-0.0261633
-0.0265945
-0.0269714
-0.0272947
-0.027565
-0.0277827
-0.0279481
-0.0280617
-0.0281238
-0.028135
-0.0280957
-0.0280065
-0.0278682
-0.0276816
-0.0274475
-0.0271671
-0.0268414
-0.0264716
-0.0260588
-0.0256043
-0.0251091
-0.0245738
-0.023999
-0.0233845
-0.0227295
-0.0220321
-0.0212892
-0.0204961
-0.0196464
-0.0187314
-0.0177403
-0.0166602
-0.0154765
-0.0141736
-0.0127375
-0.011158
-0.00943321
-0.00758335
-0.00567484
-0.00380484
-0.0020945
-0.000724787
0.000149871
0.000511661
0.000490292
0.000294606
8.13741e-05
-3.61504e-05
0.00272103
0.00231334
0.00177798
0.00131723
0.000893981
0.000419785
-0.000156077
-0.000862613
-0.00171528
-0.00271365
-0.00384575
-0.00509172
-0.00642634
-0.00782204
-0.00925173
-0.0106906
-0.012117
-0.0135127
-0.014863
-0.0161571
-0.0173876
-0.01855
-0.0196425
-0.020665
-0.0216184
-0.0225048
-0.0233262
-0.0240849
-0.0247832
-0.025423
-0.0260061
-0.0265339
-0.0270076
-0.0274282
-0.0277965
-0.028113
-0.0283783
-0.0285928
-0.0287567
-0.0288706
-0.0289347
-0.0289494
-0.0289153
-0.0288329
-0.0287028
-0.0285258
-0.0283026
-0.0280343
-0.0277217
-0.0273661
-0.0269684
-0.0265296
-0.0260509
-0.0255329
-0.0249761
-0.0243807
-0.023746
-0.0230706
-0.0223521
-0.0215865
-0.0207681
-0.0198893
-0.0189399
-0.0179074
-0.0167769
-0.015532
-0.014156
-0.012635
-0.0109588
-0.00912789
-0.00718235
-0.00523495
-0.00336807
-0.0017447
-0.000575893
2.28947e-05
0.000117201
-7.26637e-05
-0.000327801
-0.000461095
0.00240829
0.001989
0.00143295
0.000944016
0.000482767
-3.93054e-05
-0.000671949
-0.00144433
-0.00237026
-0.00344519
-0.00465268
-0.00596839
-0.00736362
-0.00880869
-0.0102756
-0.0117394
-0.0131791
-0.0145776
-0.0159218
-0.0172027
-0.0184149
-0.0195557
-0.0206249
-0.0216233
-0.0225531
-0.0234167
-0.0242167
-0.0249558
-0.0256362
-0.02626
-0.0268289
-0.0273443
-0.0278075
-0.0282192
-0.0285803
-0.0288913
-0.0291527
-0.0293648
-0.0295279
-0.0296425
-0.0297087
-0.029727
-0.0296979
-0.0296218
-0.0294992
-0.029331
-0.0291177
-0.0288602
-0.0285594
-0.0282162
-0.0278317
-0.0274067
-0.0269422
-0.026439
-0.0258975
-0.0253181
-0.0247004
-0.0240434
-0.0233452
-0.0226027
-0.0218111
-0.0209638
-0.0200516
-0.019063
-0.0179836
-0.0167965
-0.0154838
-0.0140287
-0.0124173
-0.0106378
-0.00869711
-0.00669826
-0.00474335
-0.0029318
-0.00148771
-0.000613803
-0.000345531
-0.000502231
-0.000785895
-0.000935569
0.00196858
0.00154393
0.0009737
0.000460251
-3.61523e-05
-0.000601602
-0.00128534
-0.00211636
-0.00310542
-0.00424473
-0.00551369
-0.00688414
-0.00832467
-0.00980417
-0.0112942
-0.0127703
-0.0142121
-0.015604
-0.0169347
-0.0181971
-0.0193876
-0.0205049
-0.0215499
-0.0225246
-0.0234317
-0.024274
-0.0250545
-0.0257758
-0.0264403
-0.02705
-0.0276065
-0.0281113
-0.0285655
-0.0289698
-0.0293249
-0.0296314
-0.0298896
-0.0301
-0.0302628
-0.0303782
-0.0304467
-0.0304686
-0.0304441
-0.0303739
-0.0302584
-0.0300981
-0.0298938
-0.0296462
-0.0293559
-0.029024
-0.0286512
-0.0282384
-0.0277864
-0.0272961
-0.0267679
-0.0262022
-0.025599
-0.0249576
-0.0242766
-0.0235537
-0.0227849
-0.0219647
-0.0210854
-0.0201364
-0.0191045
-0.0179732
-0.0167239
-0.0153377
-0.013798
-0.0120887
-0.0101999
-0.00816919
-0.00616898
-0.00424079
-0.00256648
-0.00140923
-0.000922398
-0.0010094
-0.00129206
-0.00146453
0.00141006
0.000986283
0.000407975
-0.000125437
-0.000652919
-0.00125679
-0.0019852
-0.0028661
-0.00390766
-0.0050988
-0.00641533
-0.007826
-0.00929743
-0.0107977
-0.0122983
-0.0137754
-0.01521
-0.0165879
-0.0178997
-0.0191399
-0.0203063
-0.0213991
-0.02242
-0.0233718
-0.0242574
-0.02508
-0.0258427
-0.026548
-0.0271984
-0.0277956
-0.0283414
-0.028837
-0.0292834
-0.0296813
-0.0300315
-0.0303342
-0.03059
-0.0307991
-0.0309618
-0.0310784
-0.0311491
-0.0311744
-0.0311544
-0.0310897
-0.0309806
-0.0308278
-0.0306317
-0.030393
-0.0301124
-0.0297906
-0.0294284
-0.0290265
-0.0285858
-0.028107
-0.0275906
-0.027037
-0.0264464
-0.0258185
-0.0251523
-0.0244462
-0.023697
-0.0229004
-0.0220498
-0.0211362
-0.0201476
-0.0190687
-0.017881
-0.0165642
-0.0150995
-0.0134694
-0.0116529
-0.00964599
-0.00760502
-0.0056227
-0.00378606
-0.00237136
-0.00163475
-0.00159195
-0.00185153
-0.00205896
0.000744894
0.000328272
-0.000251967
-0.000800577
-0.0013543
-0.00199119
-0.00275762
-0.00367945
-0.00476261
-0.00599317
-0.00734395
-0.00878131
-0.0102705
-0.0117794
-0.0132797
-0.0147487
-0.0161686
-0.0175268
-0.0188156
-0.0200311
-0.0211723
-0.0222404
-0.0232378
-0.0241676
-0.0250332
-0.0258377
-0.0265841
-0.0272751
-0.0279128
-0.028499
-0.0290354
-0.0295229
-0.0299625
-0.030355
-0.0307009
-0.0310005
-0.0312542
-0.0314624
-0.0316253
-0.0317431
-0.031816
-0.0318445
-0.0318287
-0.0317691
-0.0316661
-0.03152
-0.0313315
-0.031101
-0.0308292
-0.0305167
-0.0301642
-0.0297724
-0.029342
-0.0288735
-0.0283678
-0.0278251
-0.0272459
-0.0266299
-0.0259768
-0.0252853
-0.0245533
-0.0237773
-0.0229519
-0.0220697
-0.0211202
-0.0200895
-0.01896
-0.0177111
-0.0163218
-0.0147733
-0.0130436
-0.0111132
-0.00903713
-0.00703427
-0.00511099
-0.00349172
-0.00249963
-0.00226821
-0.00248216
-0.00273599
-1.00918e-05
-0.000415479
-0.000991283
-0.00155035
-0.00212587
-0.00279034
-0.00358733
-0.00454109
-0.00565527
-0.00691349
-0.00828619
-0.00973805
-0.0112336
-0.0127405
-0.0142317
-0.015685
-0.0170844
-0.0184188
-0.0196821
-0.0208714
-0.021987
-0.0230308
-0.0240055
-0.0249146
-0.0257614
-0.0265492
-0.0272809
-0.0279589
-0.0285852
-0.0291617
-0.0296896
-0.03017
-0.0306037
-0.0309914
-0.0313335
-0.0316305
-0.0318826
-0.0320901
-0.0322532
-0.0323722
-0.0324473
-0.0324787
-0.0324669
-0.032412
-0.0323145
-0.0321748
-0.0319932
-0.0317704
-0.0315067
-0.0312028
-0.0308593
-0.0304767
-0.0300557
-0.029597
-0.029101
-0.0285684
-0.0279995
-0.0273945
-0.0267532
-0.0260749
-0.0253581
-0.0246003
-0.0237973
-0.022943
-0.0220285
-0.0210417
-0.0199664
-0.0187827
-0.017468
-0.0160027
-0.0143667
-0.0125285
-0.0104708
-0.00844525
-0.00649812
-0.00474206
-0.00351856
-0.00307138
-0.00320104
-0.00351681
-0.000836172
-0.00122792
-0.0017944
-0.00235963
-0.00295202
-0.00363817
-0.00445844
-0.00543544
-0.00657067
-0.00784576
-0.00922938
-0.0106851
-0.0121771
-0.0136736
-0.0151482
-0.0165803
-0.017955
-0.0192628
-0.0204989
-0.0216617
-0.0227519
-0.0237719
-0.0247251
-0.0256147
-0.0264441
-0.0272166
-0.0279347
-0.0286009
-0.0292171
-0.0297847
-0.0303051
-0.0307791
-0.0312075
-0.0315909
-0.0319298
-0.0322244
-0.032475
-0.0326819
-0.0328454
-0.0329655
-0.0330426
-0.0330769
-0.0330687
-0.0330182
-0.0329258
-0.0327919
-0.0326168
-0.032401
-0.0321448
-0.0318489
-0.0315137
-0.0311398
-0.0307277
-0.030278
-0.0297913
-0.0292681
-0.0287089
-0.0281141
-0.0274837
-0.0268174
-0.0261144
-0.025373
-0.02459
-0.0237607
-0.0228777
-0.0219306
-0.020905
-0.0197822
-0.01854
-0.0171563
-0.0156105
-0.013872
-0.0119098
-0.00985134
-0.00791163
-0.00609348
-0.00468624
-0.00401865
-0.00402511
-0.00442942
-0.00171536
-0.00209123
-0.00264449
-0.00321154
-0.00381588
-0.00451795
-0.00535479
-0.00634704
-0.00749432
-0.00877674
-0.0101618
-0.0116123
-0.0130928
-0.014572
-0.0160246
-0.0174312
-0.0187784
-0.0200581
-0.0212664
-0.0224026
-0.023468
-0.0244654
-0.0253981
-0.0262694
-0.0270828
-0.027841
-0.0285468
-0.0292023
-0.0298091
-0.0303687
-0.0308822
-0.0313505
-0.0317741
-0.0321537
-0.0324896
-0.0327821
-0.0330314
-0.0332378
-0.0334016
-0.0335228
-0.0336018
-0.0336387
-0.0336338
-0.0335874
-0.0334997
-0.0333711
-0.033202
-0.0329927
-0.0327436
-0.0324551
-0.0321277
-0.0317619
-0.0313581
-0.030917
-0.030439
-0.0299248
-0.0293748
-0.0287896
-0.0281695
-0.0275145
-0.0268243
-0.0260978
-0.025333
-0.0245262
-0.0236716
-0.0227606
-0.0217805
-0.0207145
-0.0195413
-0.0182369
-0.0167802
-0.0151462
-0.0132999
-0.0112481
-0.00932693
-0.00751127
-0.00598429
-0.00510939
-0.00498058
-0.00548512
-0.00262942
-0.0029875
-0.00352414
-0.00408879
-0.00470053
-0.0054133
-0.00626067
-0.00726109
-0.00841259
-0.00969419
-0.0110727
-0.0125109
-0.0139735
-0.0154302
-0.0168568
-0.0182352
-0.0195533
-0.0208042
-0.0219847
-0.0230949
-0.0241364
-0.0251123
-0.0260257
-0.02688
-0.0276784
-0.0284236
-0.029118
-0.0297636
-0.0303619
-0.0309142
-0.0314214
-0.0318844
-0.0323037
-0.0326797
-0.0330129
-0.0333034
-0.0335516
-0.0337576
-0.0339216
-0.0340438
-0.0341245
-0.0341637
-0.0341619
-0.0341192
-0.0340359
-0.0339122
-0.0337486
-0.0335453
-0.0333027
-0.0330211
-0.032701
-0.0323429
-0.031947
-0.031514
-0.0310444
-0.0305388
-0.0299977
-0.0294217
-0.0288114
-0.0281671
-0.0274889
-0.0267763
-0.0260282
-0.0252419
-0.0244131
-0.0235346
-0.022596
-0.0215822
-0.0204734
-0.0192461
-0.0178786
-0.0163498
-0.0146184
-0.0126415
-0.0107165
-0.00894339
-0.0073655
-0.00632536
-0.00608713
-0.00666688
-0.0035607
-0.00389888
-0.00441601
-0.00497493
-0.00559002
-0.00630877
-0.00716132
-0.00816384
-0.00931296
-0.010587
-0.0119526
-0.0133728
-0.0148128
-0.0162434
-0.0176415
-0.0189902
-0.0202786
-0.0215006
-0.022654
-0.0237391
-0.0247579
-0.0257134
-0.0266088
-0.0274473
-0.0282318
-0.028965
-0.0296489
-0.0302853
-0.0308758
-0.0314213
-0.0319228
-0.0323809
-0.0327962
-0.0331689
-0.0334996
-0.0337883
-0.0340354
-0.0342409
-0.0344051
-0.0345282
-0.0346104
-0.0346518
-0.0346527
-0.0346134
-0.034534
-0.0344149
-0.0342563
-0.0340586
-0.033822
-0.0335469
-0.0332337
-0.0328827
-0.0324943
-0.0320691
-0.0316075
-0.0311101
-0.0305776
-0.0300106
-0.0294097
-0.0287757
-0.0281088
-0.0274093
-0.0266766
-0.0259092
-0.0251038
-0.0242551
-0.0233541
-0.0223881
-0.0213391
-0.0201846
-0.0189015
-0.0174688
-0.0158519
-0.0140109
-0.0120802
-0.0103583
-0.00878066
-0.00763301
-0.00733036
-0.00794364
-0.00449189
-0.00480845
-0.00530379
-0.0058543
-0.00646933
-0.00719003
-0.00804321
-0.0090428
-0.0101842
-0.0114455
-0.0127933
-0.0141912
-0.0156055
-0.0170077
-0.0183758
-0.0196943
-0.0209531
-0.022147
-0.0232742
-0.0243354
-0.0253328
-0.0262693
-0.0271479
-0.0279717
-0.0287434
-0.0294654
-0.0301396
-0.0307677
-0.0313509
-0.0318901
-0.0323863
-0.0328399
-0.0332514
-0.0336212
-0.0339495
-0.0342365
-0.0344825
-0.0346876
-0.034852
-0.0349758
-0.0350593
-0.0351026
-0.035106
-0.0350697
-0.034994
-0.034879
-0.034725
-0.0345324
-0.0343013
-0.0340322
-0.0337254
-0.0333811
-0.0329998
-0.032582
-0.0321281
-0.0316386
-0.0311144
-0.030556
-0.0299643
-0.0293402
-0.0286842
-0.0279971
-0.0272789
-0.0265289
-0.025745
-0.0249233
-0.0240567
-0.0231344
-0.0221405
-0.0210542
-0.0198515
-0.0185114
-0.0170083
-0.0153069
-0.0134074
-0.0117289
-0.0101893
-0.00899027
-0.00864802
-0.00923763
-0.005407
-0.00570076
-0.00617277
-0.0067126
-0.00732472
-0.00804406
-0.00889419
-0.00988688
-0.0110166
-0.0122608
-0.0135874
-0.0149605
-0.016347
-0.0177197
-0.0190576
-0.0203461
-0.0215761
-0.0227429
-0.0238453
-0.0248841
-0.0258615
-0.0267802
-0.0276433
-0.0284535
-0.0292134
-0.029925
-0.0305903
-0.0312106
-0.0317871
-0.0323206
-0.0328119
-0.0332613
-0.0336693
-0.0340363
-0.0343624
-0.0346478
-0.0348928
-0.0350974
-0.0352619
-0.0353864
-0.035471
-0.035516
-0.0355217
-0.0354881
-0.0354155
-0.0353042
-0.0351545
-0.0349665
-0.0347405
-0.0344769
-0.034176
-0.033838
-0.0334633
-0.0330525
-0.0326058
-0.032124
-0.0316078
-0.0310578
-0.0304749
-0.0298603
-0.0292149
-0.0285395
-0.0278349
-0.0271011
-0.026337
-0.0255399
-0.0247046
-0.0238219
-0.0228783
-0.0218546
-0.0207279
-0.0194778
-0.0180836
-0.0165039
-0.0147028
-0.0130419
-0.0115484
-0.0103414
-0.00995051
-0.0104379
-0.00629078
-0.00656184
-0.00700959
-0.00753703
-0.00814396
-0.00885929
-0.00970348
-0.0106862
-0.0118016
-0.0130261
-0.0143288
-0.0156756
-0.0170336
-0.0183766
-0.0196847
-0.0209442
-0.0221467
-0.023288
-0.0243672
-0.0253851
-0.0263439
-0.0272463
-0.028095
-0.0288927
-0.0296417
-0.0303439
-0.0310009
-0.0316141
-0.0321844
-0.0327126