/*--------------------------------*- C++ -*----------------------------------*\
  =========                 |
  \\      /  F ield         | OpenFOAM: The Open Source CFD Toolbox
   \\    /   O peration     | Website:  https://openfoam.org
    \\  /    A nd           | Version:  13
     \\/     M anipulation  |
\*---------------------------------------------------------------------------*/
FoamFile
{
    format      ascii;
    class       volVectorField;
    location    "6.9";
    object      U;
}
// * * * * * * * * * * * * * * * * * * * * * * * * * * * * * * * * * * * * * //

dimensions      [0 1 -1 0 0 0 0];

internalField   nonuniform List<vector> 
6400
(
(-0.000124246 8.18665e-05 0)
(0.000436507 -0.000169856 0)
(0.00205928 -0.000426779 0)
(0.00420686 -0.000541071 0)
(0.00634647 -0.000477275 0)
(0.00813422 -0.000319071 0)
(0.00932624 -0.000128409 0)
(0.00992463 1.51345e-05 0)
(0.0100537 6.88628e-05 0)
(0.00995082 4.76814e-05 0)
(0.00974173 -2.91658e-05 0)
(0.00959092 -0.000134511 0)
(0.00956428 -0.000243596 0)
(0.00965924 -0.000332128 0)
(0.00982889 -0.000403992 0)
(0.00999514 -0.00045703 0)
(0.0100853 -0.000491101 0)
(0.0100461 -0.000494996 0)
(0.00983946 -0.000477796 0)
(0.00937181 -0.000438747 0)
(0.00860241 -0.000390248 0)
(0.00747645 -0.000340737 0)
(0.00594861 -0.000294626 0)
(0.00399215 -0.000275746 0)
(0.00157178 -0.000321237 0)
(-0.00128885 -0.000432954 0)
(-0.00459971 -0.000489236 0)
(-0.00859866 -0.00032779 0)
(-0.0134049 0.000168805 0)
(-0.0189959 0.00101654 0)
(-0.0261925 0.00204933 0)
(-0.0342019 0.0029307 0)
(-0.0428972 0.00364717 0)
(-0.0519745 0.0041839 0)
(-0.061181 0.00454496 0)
(-0.0702811 0.00474277 0)
(-0.0790894 0.00480085 0)
(-0.0874482 0.00474197 0)
(-0.09524 0.0045882 0)
(-0.102365 0.00435749 0)
(-0.108747 0.00406209 0)
(-0.114324 0.00371102 0)
(-0.119048 0.00330748 0)
(-0.122894 0.00285546 0)
(-0.125824 0.00236579 0)
(-0.127684 0.00188513 0)
(-0.128505 0.00144587 0)
(-0.128532 0.000768475 0)
(-0.127166 0.00020629 0)
(-0.124884 -0.000467463 0)
(-0.12132 -0.00110798 0)
(-0.116676 -0.00177285 0)
(-0.110819 -0.00241297 0)
(-0.103852 -0.00303858 0)
(-0.0957958 -0.00364564 0)
(-0.0867647 -0.00423443 0)
(-0.076753 -0.00475223 0)
(-0.0659523 -0.0051932 0)
(-0.0545191 -0.00552962 0)
(-0.0426578 -0.00572478 0)
(-0.0306102 -0.00574651 0)
(-0.0186587 -0.0055781 0)
(-0.00706669 -0.00521717 0)
(0.00376619 -0.00470293 0)
(0.0135037 -0.00396341 0)
(0.0218979 -0.00304221 0)
(0.028643 -0.00198087 0)
(0.0334522 -0.000831934 0)
(0.0363463 0.000327159 0)
(0.0367127 0.00156178 0)
(0.0353812 0.00221542 0)
(0.0319559 0.00280434 0)
(0.0267523 0.00301478 0)
(0.0206798 0.00272886 0)
(0.0145087 0.00204943 0)
(0.0090568 0.00122229 0)
(0.00477356 0.000539309 0)
(0.00181486 0.000127827 0)
(0.000170912 -0.000164007 0)
(-0.000231512 -0.000342587 0)
(1.46493e-05 -0.000375821 0)
(0.00178555 -0.00207232 0)
(0.00516934 -0.0034918 0)
(0.00895801 -0.00397815 0)
(0.0124591 -0.00360666 0)
(0.0152528 -0.00274835 0)
(0.0171619 -0.00169819 0)
(0.0182086 -0.000739381 0)
(0.0185173 -5.75918e-05 0)
(0.0182474 0.000313548 0)
(0.0175993 0.000418168 0)
(0.0167369 0.000336566 0)
(0.0157487 0.000188907 0)
(0.0146269 8.69126e-05 0)
(0.0133013 9.34771e-05 0)
(0.0116699 0.000222075 0)
(0.00964372 0.000452304 0)
(0.00716049 0.000767025 0)
(0.00410803 0.00118311 0)
(0.000381685 0.00171243 0)
(-0.00412666 0.00235952 0)
(-0.00963659 0.00314165 0)
(-0.0162539 0.00402863 0)
(-0.024041 0.00500518 0)
(-0.0330449 0.00608815 0)
(-0.0433589 0.00728547 0)
(-0.0549019 0.00862056 0)
(-0.0673286 0.0100939 0)
(-0.080274 0.011654 0)
(-0.0932217 0.0131424 0)
(-0.105607 0.014251 0)
(-0.117658 0.0149504 0)
(-0.129073 0.0152453 0)
(-0.139772 0.015157 0)
(-0.149656 0.0147554 0)
(-0.158658 0.0140895 0)
(-0.166736 0.0132155 0)
(-0.173857 0.0121778 0)
(-0.180007 0.011014 0)
(-0.18517 0.0097533 0)
(-0.189336 0.00841347 0)
(-0.192501 0.00701106 0)
(-0.194656 0.0055526 0)
(-0.195795 0.00405036 0)
(-0.195909 0.00251332 0)
(-0.194962 0.000944713 0)
(-0.192959 -0.0006764 0)
(-0.189928 -0.00237456 0)
(-0.185765 -0.00411477 0)
(-0.180553 -0.00589318 0)
(-0.174212 -0.0076925 0)
(-0.166783 -0.00949689 0)
(-0.158232 -0.0112846 0)
(-0.148587 -0.0130251 0)
(-0.137852 -0.0146849 0)
(-0.126095 -0.0162118 0)
(-0.113434 -0.0175714 0)
(-0.0999645 -0.0187066 0)
(-0.0858576 -0.0195425 0)
(-0.0713331 -0.0200292 0)
(-0.0565975 -0.0201014 0)
(-0.0419089 -0.0197144 0)
(-0.0275543 -0.0188419 0)
(-0.013841 -0.0174896 0)
(-0.0010551 -0.0156249 0)
(0.0105326 -0.0132851 0)
(0.0206346 -0.0104986 0)
(0.0290028 -0.0073962 0)
(0.0354769 -0.00404793 0)
(0.0398605 -0.00063793 0)
(0.0421451 0.00258383 0)
(0.0421907 0.00554895 0)
(0.0400974 0.00798606 0)
(0.0360432 0.0096497 0)
(0.0301849 0.00985705 0)
(0.0229064 0.00893367 0)
(0.0152259 0.00711367 0)
(0.00826024 0.00481984 0)
(0.00308755 0.00234989 0)
(0.000231285 0.000301402 0)
(0.00019952 -0.00160874 0)
(0.00315964 -0.00532782 0)
(0.00740587 -0.00756102 0)
(0.0113908 -0.00784998 0)
(0.0146698 -0.0067721 0)
(0.0170318 -0.00498446 0)
(0.0185003 -0.00305364 0)
(0.0191354 -0.00130867 0)
(0.0190132 6.87539e-05 0)
(0.0182327 0.000996317 0)
(0.016942 0.00150218 0)
(0.0152169 0.00173099 0)
(0.0130741 0.00187614 0)
(0.0104758 0.0021111 0)
(0.00733488 0.0025436 0)
(0.0035496 0.00319998 0)
(-0.0010031 0.00407015 0)
(-0.00648379 0.00516419 0)
(-0.0130183 0.00650479 0)
(-0.0207275 0.00812666 0)
(-0.029697 0.0100373 0)
(-0.0399094 0.0121805 0)
(-0.0513337 0.0144724 0)
(-0.0638347 0.016793 0)
(-0.0771629 0.0190181 0)
(-0.0910179 0.0210548 0)
(-0.105034 0.0228067 0)
(-0.118896 0.0242147 0)
(-0.132266 0.025216 0)
(-0.144882 0.0257908 0)
(-0.156578 0.0259317 0)
(-0.167303 0.0256336 0)
(-0.176983 0.024946 0)
(-0.185686 0.0239022 0)
(-0.193408 0.0225464 0)
(-0.200188 0.0209494 0)
(-0.206048 0.0191567 0)
(-0.211017 0.0172144 0)
(-0.215105 0.0151521 0)
(-0.218327 0.0130046 0)
(-0.220694 0.0107837 0)
(-0.222205 0.00850082 0)
(-0.222858 0.00616494 0)
(-0.222646 0.00377542 0)
(-0.22156 0.00133296 0)
(-0.219589 -0.00116942 0)
(-0.216686 -0.00375029 0)
(-0.212844 -0.00639954 0)
(-0.208039 -0.00909084 0)
(-0.202252 -0.0118331 0)
(-0.195455 -0.014605 0)
(-0.187639 -0.017389 0)
(-0.17879 -0.0201551 0)
(-0.168913 -0.0228626 0)
(-0.158025 -0.0254559 0)
(-0.146168 -0.0278625 0)
(-0.133417 -0.0300124 0)
(-0.119867 -0.0318146 0)
(-0.105633 -0.0331681 0)
(-0.0909037 -0.0339832 0)
(-0.0758946 -0.0341723 0)
(-0.0608336 -0.0336541 0)
(-0.0460041 -0.0323855 0)
(-0.0317124 -0.0303729 0)
(-0.018232 -0.0276123 0)
(-0.00579017 -0.0241361 0)
(0.00533594 -0.0200082 0)
(0.0149242 -0.0153488 0)
(0.0228565 -0.0103126 0)
(0.0289985 -0.00508784 0)
(0.0333114 9.87636e-05 0)
(0.0357758 0.00502254 0)
(0.0362563 0.00933249 0)
(0.0346807 0.0127006 0)
(0.0313199 0.0150261 0)
(0.0262879 0.015614 0)
(0.0197409 0.0145716 0)
(0.0125788 0.0119748 0)
(0.00588552 0.00795093 0)
(0.000786089 0.00297761 0)
(0.000416555 -0.0035428 0)
(0.0042252 -0.00943046 0)
(0.00858775 -0.0117842 0)
(0.0120989 -0.0112992 0)
(0.0146322 -0.00923638 0)
(0.0161819 -0.00652686 0)
(0.0168477 -0.00374279 0)
(0.0167222 -0.00122724 0)
(0.0158844 0.000822479 0)
(0.0143935 0.00233564 0)
(0.0122469 0.00339375 0)
(0.00942171 0.00418554 0)
(0.00586684 0.00494347 0)
(0.00151199 0.00586969 0)
(-0.00371783 0.00708446 0)
(-0.00992109 0.008638 0)
(-0.0172187 0.0105459 0)
(-0.025731 0.0128121 0)
(-0.0355389 0.0154262 0)
(-0.0466567 0.018355 0)
(-0.0589989 0.021506 0)
(-0.0723682 0.0247342 0)
(-0.0864734 0.0278621 0)
(-0.100952 0.0307214 0)
(-0.115504 0.0332184 0)
(-0.129783 0.035169 0)
(-0.143499 0.0364733 0)
(-0.156369 0.0371473 0)
(-0.168228 0.0372564 0)
(-0.179036 0.036847 0)
(-0.188769 0.0359812 0)
(-0.197486 0.0346975 0)
(-0.205228 0.0330332 0)
(-0.212068 0.0310593 0)
(-0.218045 0.0288212 0)
(-0.223224 0.0263748 0)
(-0.227636 0.0237601 0)
(-0.231313 0.0210188 0)
(-0.234273 0.0181742 0)
(-0.236528 0.015247 0)
(-0.238083 0.0122492 0)
(-0.238934 0.00918555 0)
(-0.239072 0.0060565 0)
(-0.238482 0.0028581 0)
(-0.237148 -0.000413213 0)
(-0.235045 -0.00376329 0)
(-0.232137 -0.00719076 0)
(-0.228399 -0.010717 0)
(-0.2238 -0.0143271 0)
(-0.218307 -0.018014 0)
(-0.211883 -0.0217543 0)
(-0.204507 -0.0255253 0)
(-0.196155 -0.0292918 0)
(-0.186809 -0.0330015 0)
(-0.176463 -0.0365799 0)
(-0.165132 -0.0399287 0)
(-0.152856 -0.0429462 0)
(-0.139712 -0.045523 0)
(-0.125792 -0.0475154 0)
(-0.11123 -0.0487787 0)
(-0.0962235 -0.0492012 0)
(-0.0809846 -0.0486606 0)
(-0.0657673 -0.0470809 0)
(-0.0508867 -0.044427 0)
(-0.036695 -0.0407642 0)
(-0.0234513 -0.0361541 0)
(-0.0113992 -0.0306847 0)
(-0.000759946 -0.0244959 0)
(0.00830931 -0.0178163 0)
(0.0156902 -0.0108894 0)
(0.0213282 -0.00396744 0)
(0.0252361 0.00272265 0)
(0.0274589 0.00887115 0)
(0.0280106 0.0140646 0)
(0.0267504 0.0179608 0)
(0.0237168 0.0202565 0)
(0.0190867 0.0205098 0)
(0.013257 0.0185704 0)
(0.00690371 0.0142388 0)
(0.00106914 0.00675084 0)
(0.000692308 -0.00603348 0)
(0.00490983 -0.0137822 0)
(0.00876566 -0.0155548 0)
(0.0114163 -0.0139637 0)
(0.0129972 -0.0108149 0)
(0.0135816 -0.00716454 0)
(0.0133167 -0.00356157 0)
(0.012289 -0.000313081 0)
(0.0105353 0.00242635 0)
(0.00804284 0.00464304 0)
(0.00474842 0.00645259 0)
(0.000563905 0.00806809 0)
(-0.00460316 0.00973329 0)
(-0.0108408 0.0116523 0)
(-0.0182317 0.0139543 0)
(-0.0268536 0.0166966 0)
(-0.0367668 0.0198861 0)
(-0.0479931 0.0234889 0)
(-0.0604704 0.0274056 0)
(-0.0740255 0.0314937 0)
(-0.0883703 0.0355285 0)
(-0.103147 0.0393092 0)
(-0.117997 0.0427025 0)
(-0.132611 0.0454248 0)
(-0.146604 0.0473486 0)
(-0.159658 0.0484866 0)
(-0.17168 0.0488613 0)
(-0.182611 0.0485303 0)
(-0.192502 0.0475988 0)
(-0.201395 0.046162 0)
(-0.209353 0.0443012 0)
(-0.216464 0.0420868 0)
(-0.222775 0.0395682 0)
(-0.228348 0.0367974 0)
(-0.23323 0.0338163 0)
(-0.237469 0.0306661 0)
(-0.241089 0.02738 0)
(-0.244117 0.023988 0)
(-0.246566 0.0205037 0)
(-0.248439 0.0169403 0)
(-0.249735 0.0133055 0)
(-0.25045 0.0095955 0)
(-0.250572 0.00580435 0)
(-0.250082 0.00192266 0)
(-0.248966 -0.00205689 0)
(-0.247189 -0.0061437 0)
(-0.244716 -0.0103417 0)
(-0.241509 -0.014662 0)
(-0.237538 -0.0191049 0)
(-0.232769 -0.0236699 0)
(-0.227139 -0.0283265 0)
(-0.22061 -0.0330484 0)
(-0.213145 -0.0377978 0)
(-0.204702 -0.042513 0)
(-0.195254 -0.047107 0)
(-0.184785 -0.0514591 0)
(-0.173291 -0.0554335 0)
(-0.160829 -0.0589051 0)
(-0.147451 -0.0616865 0)
(-0.133253 -0.0635851 0)
(-0.118407 -0.0644595 0)
(-0.103092 -0.0641305 0)
(-0.0875626 -0.0624799 0)
(-0.0720613 -0.0594354 0)
(-0.0569498 -0.0550195 0)
(-0.0426523 -0.0493632 0)
(-0.0294354 -0.0426002 0)
(-0.0175302 -0.0349331 0)
(-0.00714989 -0.0266248 0)
(0.00155415 -0.0179844 0)
(0.00850836 -0.00933061 0)
(0.0137208 -0.000958224 0)
(0.0172594 0.00682457 0)
(0.0191966 0.013691 0)
(0.0195481 0.01928 0)
(0.0183243 0.0231387 0)
(0.0155355 0.024816 0)
(0.0113893 0.0239918 0)
(0.00624625 0.0200437 0)
(0.000934505 0.0105345 0)
(0.00100011 -0.00892136 0)
(0.00511571 -0.0177931 0)
(0.00802782 -0.0183716 0)
(0.00956483 -0.0155963 0)
(0.0100859 -0.0113582 0)
(0.00964499 -0.00681253 0)
(0.00838768 -0.00241917 0)
(0.00635808 0.00157811 0)
(0.00353946 0.00508322 0)
(-0.0001367 0.00813236 0)
(-0.00477644 0.0108759 0)
(-0.0104943 0.0135371 0)
(-0.0173926 0.0163498 0)
(-0.0255522 0.0195017 0)
(-0.0350285 0.023103 0)
(-0.045837 0.0271774 0)
(-0.0579327 0.0316705 0)
(-0.0711914 0.0364878 0)
(-0.0853906 0.0414002 0)
(-0.100166 0.0461489 0)
(-0.115165 0.0505695 0)
(-0.130038 0.0543053 0)
(-0.144325 0.0571667 0)
(-0.157659 0.0590875 0)
(-0.169902 0.0600305 0)
(-0.181055 0.0600802 0)
(-0.191166 0.0593636 0)
(-0.200309 0.0580127 0)
(-0.20857 0.0561407 0)
(-0.216007 0.0538369 0)
(-0.222696 0.051177 0)
(-0.228688 0.0482174 0)
(-0.234034 0.0450099 0)
(-0.238783 0.0415975 0)
(-0.242974 0.0380139 0)
(-0.246634 0.0342896 0)
(-0.249781 0.0304515 0)
(-0.252434 0.0265233 0)
(-0.254605 0.0225141 0)
(-0.256293 0.0184285 0)
(-0.2575 0.0142691 0)
(-0.258224 0.0100251 0)
(-0.258459 0.00568413 0)
(-0.258196 0.00122918 0)
(-0.257434 -0.00336079 0)
(-0.256143 -0.00810009 0)
(-0.254295 -0.0129939 0)
(-0.251843 -0.0180439 0)
(-0.248742 -0.0232513 0)
(-0.24494 -0.0286194 0)
(-0.240387 -0.0341298 0)
(-0.234998 -0.0397398 0)
(-0.228706 -0.0454048 0)
(-0.221437 -0.0510542 0)
(-0.213169 -0.0566248 0)
(-0.203907 -0.0620284 0)
(-0.193511 -0.067039 0)
(-0.182024 -0.0715204 0)
(-0.169483 -0.0752565 0)
(-0.155886 -0.077986 0)
(-0.141414 -0.0795442 0)
(-0.12619 -0.0796866 0)
(-0.110456 -0.0782757 0)
(-0.094471 -0.075146 0)
(-0.0785181 -0.0702751 0)
(-0.063012 -0.0637496 0)
(-0.0484339 -0.0558399 0)
(-0.0350462 -0.0467694 0)
(-0.0231198 -0.0368527 0)
(-0.0128724 -0.0264751 0)
(-0.00443376 -0.0160418 0)
(0.00216991 -0.00593733 0)
(0.00700602 0.00349125 0)
(0.0101998 0.0119202 0)
(0.0118674 0.0190223 0)
(0.0120741 0.0243707 0)
(0.0108299 0.0274819 0)
(0.00823043 0.0278799 0)
(0.00462753 0.0246376 0)
(0.000559765 0.0136508 0)
(0.00125212 -0.0119585 0)
(0.00477787 -0.0209507 0)
(0.00639303 -0.0200967 0)
(0.00682226 -0.0160456 0)
(0.00619536 -0.0108155 0)
(0.0046949 -0.00542481 0)
(0.00238919 -0.000239852 0)
(-0.00073105 0.00456242 0)
(-0.00473113 0.00894018 0)
(-0.00971485 0.0129671 0)
(-0.0158021 0.0168098 0)
(-0.0231046 0.0206832 0)
(-0.0317078 0.0247949 0)
(-0.0416574 0.0292952 0)
(-0.0529462 0.0342445 0)
(-0.0654849 0.0395986 0)
(-0.0791321 0.0452253 0)
(-0.0935904 0.0508784 0)
(-0.108466 0.0563367 0)
(-0.123424 0.0612302 0)
(-0.137996 0.0652834 0)
(-0.151696 0.0682894 0)
(-0.164313 0.0701588 0)
(-0.175817 0.0709446 0)
(-0.186269 0.0707839 0)
(-0.195736 0.0698177 0)
(-0.204312 0.0681778 0)
(-0.212081 0.0659878 0)
(-0.219116 0.0633464 0)
(-0.225471 0.060336 0)
(-0.231198 0.057023 0)
(-0.236339 0.0534551 0)
(-0.240936 0.0496776 0)
(-0.245023 0.0457274 0)
(-0.248627 0.0416369 0)
(-0.251768 0.0374341 0)
(-0.25446 0.0331459 0)
(-0.256713 0.0287882 0)
(-0.258539 0.0243668 0)
(-0.259966 0.0198259 0)
(-0.261004 0.0152064 0)
(-0.261634 0.0105084 0)
(-0.261851 0.00571645 0)
(-0.26164 0.000815064 0)
(-0.26099 -0.0042153 0)
(-0.259931 -0.00939919 0)
(-0.258446 -0.01476 0)
(-0.256539 -0.0203289 0)
(-0.254185 -0.0261324 0)
(-0.251357 -0.0321993 0)
(-0.248024 -0.0385065 0)
(-0.244087 -0.044988 0)
(-0.23945 -0.0516224 0)
(-0.234008 -0.0583472 0)
(-0.227606 -0.0650443 0)
(-0.220056 -0.0715356 0)
(-0.211257 -0.0776104 0)
(-0.201157 -0.0831226 0)
(-0.189974 -0.0880016 0)
(-0.177449 -0.091791 0)
(-0.163777 -0.0943016 0)
(-0.149015 -0.0952113 0)
(-0.1334 -0.0943377 0)
(-0.117136 -0.0914608 0)
(-0.100565 -0.0865176 0)
(-0.0839744 -0.079469 0)
(-0.0679287 -0.0705747 0)
(-0.0529384 -0.0602208 0)
(-0.039284 -0.0487405 0)
(-0.0272719 -0.0365915 0)
(-0.0171236 -0.0242811 0)
(-0.00894058 -0.0123091 0)
(-0.00269946 -0.00111972 0)
(0.00174189 0.00892114 0)
(0.00458219 0.0175003 0)
(0.00597912 0.0242527 0)
(0.00602169 0.028723 0)
(0.00478016 0.0302988 0)
(0.00264135 0.0277545 0)
(9.73634e-05 0.0156163 0)
(0.00135686 -0.0148051 0)
(0.00378317 -0.0229732 0)
(0.00417295 -0.020597 0)
(0.00336968 -0.0152827 0)
(0.00159964 -0.00916672 0)
(-0.000988843 -0.00296202 0)
(-0.00439416 0.00304396 0)
(-0.00867351 0.00872901 0)
(-0.0139245 0.0140881 0)
(-0.0202612 0.0192144 0)
(-0.0277942 0.0242717 0)
(-0.0366106 0.0294499 0)
(-0.0467551 0.0349116 0)
(-0.0582141 0.0407422 0)
(-0.0708929 0.0469356 0)
(-0.0846166 0.0533484 0)
(-0.0990507 0.0597261 0)
(-0.11383 0.0657926 0)
(-0.128509 0.0711662 0)
(-0.142597 0.075537 0)
(-0.155696 0.0786768 0)
(-0.167697 0.0805691 0)
(-0.178612 0.0813136 0)
(-0.188503 0.0810648 0)
(-0.197456 0.0799562 0)
(-0.205564 0.0781349 0)
(-0.212914 0.0757227 0)
(-0.21957 0.0728287 0)
(-0.225585 0.0695372 0)
(-0.231 0.0659215 0)
(-0.235854 0.0620406 0)
(-0.240179 0.0579428 0)
(-0.244004 0.0536713 0)
(-0.247349 0.0492674 0)
(-0.250228 0.0447697 0)
(-0.252681 0.0401699 0)
(-0.254798 0.0354498 0)
(-0.256567 0.030655 0)
(-0.257999 0.0257825 0)
(-0.259089 0.0208842 0)
(-0.259832 0.0159123 0)
(-0.260241 0.0108475 0)
(-0.260321 0.00568153 0)
(-0.260078 0.000396832 0)
(-0.259519 -0.00502269 0)
(-0.258666 -0.010589 0)
(-0.257495 -0.0163315 0)
(-0.256004 -0.0222671 0)
(-0.254173 -0.0284098 0)
(-0.251977 -0.0347594 0)
(-0.249381 -0.0413746 0)
(-0.246378 -0.0483166 0)
(-0.242925 -0.0555435 0)
(-0.238967 -0.0630247 0)
(-0.234422 -0.0707152 0)
(-0.229201 -0.0785321 0)
(-0.223064 -0.0861169 0)
(-0.215672 -0.093236 0)
(-0.206599 -0.099411 0)
(-0.195897 -0.104431 0)
(-0.183721 -0.108174 0)
(-0.170073 -0.110201 0)
(-0.155153 -0.110282 0)
(-0.139104 -0.108077 0)
(-0.12229 -0.103486 0)
(-0.104993 -0.0963938 0)
(-0.087643 -0.086873 0)
(-0.0709539 -0.0753945 0)
(-0.0554686 -0.0624711 0)
(-0.0415153 -0.0485648 0)
(-0.0294318 -0.0342883 0)
(-0.0194319 -0.0202748 0)
(-0.0115788 -0.00711214 0)
(-0.00577772 0.00471867 0)
(-0.00179876 0.0148558 0)
(0.000638952 0.0229974 0)
(0.00174612 0.0287367 0)
(0.00168929 0.0314053 0)
(0.000798041 0.0293821 0)
(-0.000270215 0.0163578 0)
(0.00127309 -0.017164 0)
(0.00236815 -0.0237178 0)
(0.00145548 -0.0197475 0)
(-0.000569359 -0.0133665 0)
(-0.00346511 -0.00640935 0)
(-0.00716012 0.000609347 0)
(-0.0116968 0.00748067 0)
(-0.0171657 0.0141225 0)
(-0.023675 0.020548 0)
(-0.0313289 0.0268496 0)
(-0.0402108 0.0331704 0)
(-0.0503652 0.0396573 0)
(-0.0617756 0.0464074 0)
(-0.074369 0.0534405 0)
(-0.0879573 0.0606354 0)
(-0.102176 0.0677332 0)
(-0.116676 0.0743988 0)
(-0.13098 0.0802651 0)
(-0.144544 0.0849745 0)
(-0.157134 0.0883508 0)
(-0.168629 0.09038 0)
(-0.179054 0.0912033 0)
(-0.188476 0.090949 0)
(-0.19699 0.0897861 0)
(-0.204682 0.0878527 0)
(-0.211634 0.085287 0)
(-0.217905 0.0821936 0)
(-0.223542 0.0786679 0)
(-0.228586 0.0747853 0)
(-0.233068 0.0706136 0)
(-0.237023 0.066209 0)
(-0.240478 0.061621 0)
(-0.24346 0.0568935 0)
(-0.246041 0.0520282 0)
(-0.248258 0.0470608 0)
(-0.250124 0.0420382 0)
(-0.251609 0.0369937 0)
(-0.252732 0.0318956 0)
(-0.253512 0.0267461 0)
(-0.253986 0.0215435 0)
(-0.254196 0.0162743 0)
(-0.254169 0.0109343 0)
(-0.253928 0.00550978 0)
(-0.253497 -2.14693e-05 0)
(-0.252894 -0.00568754 0)
(-0.252084 -0.0115039 0)
(-0.251094 -0.0175086 0)
(-0.249917 -0.0237318 0)
(-0.248554 -0.0302039 0)
(-0.246991 -0.0369454 0)
(-0.245211 -0.0439687 0)
(-0.243184 -0.0512768 0)
(-0.240866 -0.0588626 0)
(-0.23819 -0.0666969 0)
(-0.235071 -0.0747128 0)
(-0.231381 -0.0828471 0)
(-0.227123 -0.0912784 0)
(-0.222139 -0.0996811 0)
(-0.216195 -0.10777 0)
(-0.208881 -0.114943 0)
(-0.199468 -0.120505 0)
(-0.187821 -0.123961 0)
(-0.174468 -0.125459 0)
(-0.159375 -0.124424 0)
(-0.142951 -0.120713 0)
(-0.12548 -0.114131 0)
(-0.107335 -0.104595 0)
(-0.0891254 -0.0923774 0)
(-0.0717029 -0.07814 0)
(-0.0556917 -0.0625776 0)
(-0.0414699 -0.0463037 0)
(-0.0293973 -0.0300932 0)
(-0.0196654 -0.0147028 0)
(-0.0122777 -0.00079316 0)
(-0.00704074 0.011137 0)
(-0.00360208 0.020758 0)
(-0.00159653 0.0277336 0)
(-0.000690432 0.0313257 0)
(-0.000492649 0.029732 0)
(-0.000378572 0.0162006 0)
(0.00103371 -0.0185153 0)
(0.000668132 -0.0230725 0)
(-0.0015733 -0.0176038 0)
(-0.00476665 -0.0102973 0)
(-0.00878047 -0.00253828 0)
(-0.0135873 0.00530544 0)
(-0.0192567 0.0130822 0)
(-0.025896 0.0207327 0)
(-0.0336064 0.0282686 0)
(-0.0424667 0.035763 0)
(-0.0525198 0.0433205 0)
(-0.0637517 0.051028 0)
(-0.0761053 0.0589225 0)
(-0.0894139 0.0669123 0)
(-0.103315 0.0747311 0)
(-0.11742 0.0820349 0)
(-0.131281 0.088449 0)
(-0.144404 0.0935892 0)
(-0.15655 0.0973019 0)
(-0.167628 0.0996021 0)
(-0.177632 0.100581 0)
(-0.186652 0.100414 0)
(-0.194771 0.0992622 0)
(-0.202077 0.0972857 0)
(-0.208635 0.0946141 0)
(-0.214505 0.0913669 0)
(-0.219728 0.0876375 0)
(-0.224341 0.0835129 0)
(-0.228381 0.0790652 0)
(-0.231883 0.0743603 0)
(-0.234884 0.0694535 0)
(-0.237422 0.0643932 0)
(-0.239541 0.0592176 0)
(-0.241245 0.0539784 0)
(-0.242567 0.0486818 0)
(-0.243545 0.0433392 0)
(-0.244208 0.0379616 0)
(-0.244618 0.0325533 0)
(-0.244819 0.027126 0)
(-0.244829 0.0216805 0)
(-0.244657 0.0162034 0)
(-0.244329 0.0106808 0)
(-0.243861 0.00509303 0)
(-0.243271 -0.000583918 0)
(-0.242563 -0.00637548 0)
(-0.241741 -0.012315 0)
(-0.240829 -0.0184311 0)
(-0.239834 -0.024758 0)
(-0.238765 -0.0313294 0)
(-0.237623 -0.0381792 0)
(-0.236407 -0.0453405 0)
(-0.235107 -0.0528409 0)
(-0.233704 -0.0606966 0)
(-0.232157 -0.0689062 0)
(-0.230399 -0.0774351 0)
(-0.228329 -0.0862032 0)
(-0.225835 -0.095089 0)
(-0.222756 -0.103938 0)
(-0.21886 -0.112644 0)
(-0.214115 -0.121251 0)
(-0.208161 -0.129169 0)
(-0.200452 -0.135491 0)
(-0.189892 -0.139061 0)
(-0.176794 -0.139736 0)
(-0.161635 -0.137502 0)
(-0.144771 -0.132087 0)
(-0.126511 -0.123217 0)
(-0.107428 -0.111008 0)
(-0.0882635 -0.0958727 0)
(-0.0700618 -0.0787493 0)
(-0.0535482 -0.0605417 0)
(-0.039157 -0.0420396 0)
(-0.0272461 -0.0241884 0)
(-0.0179598 -0.00786057 0)
(-0.0112118 0.00622733 0)
(-0.00666269 0.017589 0)
(-0.00380128 0.0258887 0)
(-0.00216716 0.0302761 0)
(-0.00115158 0.0291335 0)
(-0.000345283 0.0155965 0)
(0.000724792 -0.0188786 0)
(-0.00121465 -0.0210272 0)
(-0.00471596 -0.0142439 0)
(-0.00903992 -0.00608453 0)
(-0.0141553 0.00244428 0)
(-0.0200492 0.011114 0)
(-0.026814 0.0198161 0)
(-0.0345542 0.0284919 0)
(-0.0433509 0.0371322 0)
(-0.0532471 0.0457738 0)
(-0.0642339 0.0544682 0)
(-0.0762666 0.0632509 0)
(-0.0892054 0.0720586 0)
(-0.102718 0.0806313 0)
(-0.116397 0.0886161 0)
(-0.129812 0.0956374 0)
(-0.142544 0.101334 0)
(-0.154317 0.105512 0)
(-0.165033 0.108175 0)
(-0.174689 0.109419 0)
(-0.183352 0.109417 0)
(-0.191115 0.108353 0)
(-0.198048 0.106385 0)
(-0.204217 0.103656 0)
(-0.209668 0.100285 0)
(-0.214444 0.0963786 0)
(-0.218581 0.0920275 0)
(-0.222118 0.0873174 0)
(-0.225096 0.0823224 0)
(-0.22756 0.0771102 0)
(-0.229554 0.0717378 0)
(-0.231125 0.0662533 0)
(-0.232318 0.060694 0)
(-0.233173 0.0550922 0)
(-0.233739 0.0494676 0)
(-0.234059 0.0438395 0)
(-0.234168 0.0382213 0)
(-0.234102 0.0326157 0)
(-0.233882 0.0270187 0)
(-0.233529 0.0214222 0)
(-0.233058 0.0158128 0)
(-0.232486 0.0101727 0)
(-0.231828 0.00448069 0)
(-0.231098 -0.00128623 0)
(-0.230306 -0.00715129 0)
(-0.229463 -0.0131506 0)
(-0.228587 -0.0193131 0)
(-0.227693 -0.0256729 0)
(-0.226794 -0.0322637 0)
(-0.225903 -0.0391215 0)
(-0.225032 -0.0462826 0)
(-0.224187 -0.0537817 0)
(-0.223371 -0.0616481 0)
(-0.222573 -0.0699032 0)
(-0.221758 -0.0785551 0)
(-0.22087 -0.0875936 0)
(-0.21982 -0.0969706 0)
(-0.21847 -0.106553 0)
(-0.216624 -0.116129 0)
(-0.214043 -0.125414 0)
(-0.21041 -0.134087 0)
(-0.205575 -0.142346 0)
(-0.199047 -0.149069 0)
(-0.189854 -0.153012 0)
(-0.177107 -0.152873 0)
(-0.161923 -0.149406 0)
(-0.144468 -0.141997 0)
(-0.125323 -0.130622 0)
(-0.105191 -0.115486 0)
(-0.0850247 -0.0972467 0)
(-0.0660686 -0.0771535 0)
(-0.0491661 -0.0563684 0)
(-0.034792 -0.0358836 0)
(-0.0232694 -0.0168178 0)
(-0.0146596 -0.000148379 0)
(-0.00873479 0.0133799 0)
(-0.00492267 0.0232785 0)
(-0.00269685 0.0285556 0)
(-0.00119243 0.0279718 0)
(-0.000167312 0.0148048 0)
(0.00015451 -0.0180947 0)
(-0.00319251 -0.0176521 0)
(-0.00784659 -0.00968243 0)
(-0.0132484 -0.000764215 0)
(-0.0194199 0.00849922 0)
(-0.0263451 0.0179838 0)
(-0.034124 0.0276041 0)
(-0.0428501 0.0372817 0)
(-0.0525746 0.0469698 0)
(-0.0632961 0.0566563 0)
(-0.0749786 0.0663469 0)
(-0.0875092 0.0759957 0)
(-0.100597 0.0853582 0)
(-0.113846 0.0940817 0)
(-0.126845 0.101791 0)
(-0.139224 0.108147 0)
(-0.150693 0.112919 0)
(-0.161106 0.116057 0)
(-0.170469 0.117671 0)
(-0.178829 0.117926 0)
(-0.186269 0.117018 0)
(-0.19286 0.115117 0)
(-0.198653 0.112371 0)
(-0.203696 0.108909 0)
(-0.208028 0.104846 0)
(-0.211692 0.100285 0)
(-0.214733 0.0953216 0)
(-0.217204 0.0900448 0)
(-0.219161 0.0845325 0)
(-0.22066 0.078854 0)
(-0.22176 0.0730667 0)
(-0.222515 0.0672173 0)
(-0.222979 0.0613418 0)
(-0.223197 0.0554692 0)
(-0.223215 0.0496185 0)
(-0.223067 0.043804 0)
(-0.222779 0.0380304 0)
(-0.222374 0.0322927 0)
(-0.22187 0.0265833 0)
(-0.221281 0.0208902 0)
(-0.220619 0.0151977 0)
(-0.219897 0.00948723 0)
(-0.219125 0.00373727 0)
(-0.218316 -0.00207494 0)
(-0.217478 -0.00797398 0)
(-0.216625 -0.0139913 0)
(-0.215771 -0.0201566 0)
(-0.214934 -0.0265028 0)
(-0.214129 -0.0330638 0)
(-0.213376 -0.0398755 0)
(-0.212694 -0.046975 0)
(-0.2121 -0.0543991 0)
(-0.211609 -0.0621822 0)
(-0.211231 -0.0703537 0)
(-0.210962 -0.0789367 0)
(-0.210783 -0.0879441 0)
(-0.210652 -0.0973699 0)
(-0.210484 -0.107173 0)
(-0.210144 -0.117261 0)
(-0.209426 -0.127445 0)
(-0.208039 -0.137377 0)
(-0.205633 -0.146575 0)
(-0.201747 -0.15475 0)
(-0.196119 -0.161675 0)
(-0.187873 -0.165652 0)
(-0.175576 -0.164912 0)
(-0.160207 -0.159957 0)
(-0.142039 -0.150353 0)
(-0.121875 -0.136179 0)
(-0.100619 -0.117858 0)
(-0.0794736 -0.096344 0)
(-0.059893 -0.0732548 0)
(-0.0428337 -0.0500718 0)
(-0.0287713 -0.0280016 0)
(-0.0179484 -0.00834024 0)
(-0.0102928 0.00786182 0)
(-0.00530893 0.0198235 0)
(-0.00244663 0.0264255 0)
(-0.000746226 0.0266754 0)
(9.06023e-05 0.0142675 0)
(-0.000420716 -0.0160633 0)
(-0.00512967 -0.0129852 0)
(-0.0108473 -0.00400063 0)
(-0.0172598 0.00559544 0)
(-0.0244143 0.0155521 0)
(-0.0322835 0.0258263 0)
(-0.0409643 0.0363292 0)
(-0.050531 0.0469468 0)
(-0.0609983 0.0575832 0)
(-0.0723379 0.0681809 0)
(-0.0844585 0.0786829 0)
(-0.0971148 0.0888596 0)
(-0.109944 0.0983766 0)
(-0.122564 0.106856 0)
(-0.13463 0.113965 0)
(-0.145852 0.119452 0)
(-0.156037 0.123196 0)
(-0.165162 0.125287 0)
(-0.173276 0.1259 0)
(-0.180442 0.125226 0)
(-0.186729 0.123455 0)
(-0.192187 0.120743 0)
(-0.196858 0.117229 0)
(-0.200787 0.11304 0)
(-0.204021 0.108294 0)
(-0.206618 0.103101 0)
(-0.208641 0.0975632 0)
(-0.210159 0.0917734 0)
(-0.211241 0.0858117 0)
(-0.211952 0.0797462 0)
(-0.212357 0.0736312 0)
(-0.212509 0.0675087 0)
(-0.212459 0.0614095 0)
(-0.212246 0.0553553 0)
(-0.211905 0.0493586 0)
(-0.21146 0.0434244 0)
(-0.210931 0.0375508 0)
(-0.210331 0.0317301 0)
(-0.209672 0.0259506 0)
(-0.208963 0.0201985 0)
(-0.208212 0.0144568 0)
(-0.207425 0.00870624 0)
(-0.20661 0.00292585 0)
(-0.205775 -0.00290693 0)
(-0.204928 -0.00881649 0)
(-0.204081 -0.0148304 0)
(-0.203247 -0.0209769 0)
(-0.202442 -0.0272865 0)
(-0.201685 -0.0337916 0)
(-0.200997 -0.0405263 0)
(-0.200401 -0.047527 0)
(-0.199922 -0.0548309 0)
(-0.199584 -0.0624757 0)
(-0.199408 -0.0704973 0)
(-0.199408 -0.0789286 0)
(-0.199591 -0.0877952 0)
(-0.199943 -0.0971094 0)
(-0.200429 -0.106863 0)
(-0.200975 -0.117018 0)
(-0.201451 -0.127491 0)
(-0.20165 -0.138115 0)
(-0.201265 -0.148586 0)
(-0.199884 -0.158337 0)
(-0.196975 -0.166692 0)
(-0.191986 -0.173437 0)
(-0.184255 -0.177215 0)
(-0.172267 -0.17573 0)
(-0.156513 -0.169101 0)
(-0.137477 -0.156988 0)
(-0.116169 -0.139677 0)
(-0.0937739 -0.117889 0)
(-0.071773 -0.0929432 0)
(-0.051842 -0.066947 0)
(-0.03501 -0.041699 0)
(-0.0216838 -0.0186682 0)
(-0.0119703 0.000719346 0)
(-0.00553086 0.0153519 0)
(-0.00188292 0.0239247 0)
(-4.02136e-05 0.0254997 0)
(0.000378606 0.0142249 0)
(-0.00100075 -0.0128768 0)
(-0.00694634 -0.00714623 0)
(-0.0136239 0.0027181 0)
(-0.0209584 0.0129135 0)
(-0.0290019 0.0235127 0)
(-0.0377027 0.0345283 0)
(-0.0471502 0.0458498 0)
(-0.0573938 0.0573135 0)
(-0.0684201 0.0687738 0)
(-0.080155 0.0801203 0)
(-0.0923938 0.0911178 0)
(-0.104826 0.101465 0)
(-0.117108 0.110786 0)
(-0.128903 0.118739 0)
(-0.139926 0.125045 0)
(-0.149953 0.12953 0)
(-0.158913 0.132223 0)
(-0.166841 0.133298 0)
(-0.173797 0.132954 0)
(-0.179838 0.131386 0)
(-0.185018 0.12877 0)
(-0.189377 0.125255 0)
(-0.192966 0.120984 0)
(-0.19584 0.116089 0)
(-0.198067 0.110699 0)
(-0.199721 0.104931 0)
(-0.200883 0.0988919 0)
(-0.201631 0.092675 0)
(-0.20204 0.0863573 0)
(-0.202175 0.0800007 0)
(-0.202096 0.0736522 0)
(-0.201852 0.0673455 0)
(-0.201481 0.0611029 0)
(-0.201015 0.0549374 0)
(-0.200476 0.0488535 0)
(-0.199881 0.0428498 0)
(-0.19924 0.0369192 0)
(-0.198562 0.0310512 0)
(-0.197852 0.0252322 0)
(-0.197113 0.0194456 0)
(-0.196349 0.0136743 0)
(-0.195561 0.00789982 0)
(-0.194755 0.00210129 0)
(-0.193934 -0.00374258 0)
(-0.193105 -0.00965455 0)
(-0.192277 -0.0156591 0)
(-0.191464 -0.0217819 0)
(-0.190678 -0.0280503 0)
(-0.18994 -0.0344934 0)
(-0.189272 -0.0411428 0)
(-0.188698 -0.0480319 0)
(-0.188247 -0.0551969 0)
(-0.187948 -0.0626754 0)
(-0.187832 -0.0705065 0)
(-0.187924 -0.0787294 0)
(-0.188247 -0.0873806 0)
(-0.188809 -0.0964894 0)
(-0.189602 -0.106071 0)
(-0.190593 -0.11612 0)
(-0.191707 -0.126595 0)
(-0.192816 -0.137404 0)
(-0.193711 -0.148384 0)
(-0.194075 -0.159248 0)
(-0.193459 -0.169475 0)
(-0.191285 -0.178218 0)
(-0.186799 -0.184599 0)
(-0.17925 -0.187837 0)
(-0.167253 -0.185342 0)
(-0.150873 -0.1767 0)
(-0.130782 -0.161654 0)
(-0.108255 -0.14081 0)
(-0.084781 -0.11522 0)
(-0.0622094 -0.0867605 0)
(-0.0423929 -0.058127 0)
(-0.0263517 -0.0313873 0)
(-0.0143273 -0.0083045 0)
(-0.00617052 0.00963266 0)
(-0.00150876 0.0209141 0)
(0.000604159 0.0244518 0)
(0.000583643 0.0146134 0)
(-0.00155205 -0.00859946 0)
(-0.00858097 -0.000253564 0)
(-0.0161068 0.0103699 0)
(-0.0242604 0.0210873 0)
(-0.0330761 0.0322673 0)
(-0.0424777 0.0439583 0)
(-0.0525429 0.0560107 0)
(-0.0632949 0.0682092 0)
(-0.0746846 0.0803463 0)
(-0.0865343 0.0921523 0)
(-0.0986005 0.10334 0)
(-0.110583 0.113553 0)
(-0.122147 0.122421 0)
(-0.133018 0.129643 0)
(-0.14295 0.134991 0)
(-0.151822 0.138426 0)
(-0.159639 0.140084 0)
(-0.166455 0.140175 0)
(-0.172324 0.138902 0)
(-0.177297 0.136456 0)
(-0.181421 0.133005 0)
(-0.184748 0.128706 0)
(-0.187343 0.123711 0)
(-0.189283 0.118164 0)
(-0.190654 0.112201 0)
(-0.191544 0.105945 0)
(-0.192041 0.0995015 0)
(-0.192225 0.0929573 0)
(-0.192166 0.0863817 0)
(-0.191926 0.0798267 0)
(-0.191552 0.0733289 0)
(-0.191083 0.066912 0)
(-0.190548 0.0605892 0)
(-0.189968 0.0543653 0)
(-0.189356 0.0482382 0)
(-0.18872 0.0422012 0)
(-0.188065 0.036243 0)
(-0.187393 0.0303506 0)
(-0.186703 0.0245097 0)
(-0.185995 0.0187024 0)
(-0.185269 0.0129106 0)
(-0.184523 0.00711735 0)
(-0.183758 0.0013032 0)
(-0.182978 -0.00455191 0)
(-0.182186 -0.0104682 0)
(-0.18139 -0.0164674 0)
(-0.180601 -0.0225719 0)
(-0.179831 -0.0288055 0)
(-0.179098 -0.0351937 0)
(-0.178424 -0.041764 0)
(-0.177835 -0.0485466 0)
(-0.177359 -0.0555742 0)
(-0.177029 -0.0628828 0)
(-0.176879 -0.0705113 0)
(-0.176946 -0.0785015 0)
(-0.17726 -0.0868962 0)
(-0.177849 -0.0957368 0)
(-0.178725 -0.105059 0)
(-0.179883 -0.114884 0)
(-0.181287 -0.12521 0)