/*--------------------------------*- C++ -*----------------------------------*\
  =========                 |
  \\      /  F ield         | OpenFOAM: The Open Source CFD Toolbox
   \\    /   O peration     | Website:  https://openfoam.org
    \\  /    A nd           | Version:  13
     \\/     M anipulation  |
\*---------------------------------------------------------------------------*/
FoamFile
{
    format      ascii;
    class       volScalarField;
    location    "3.7";
    object      p;
}
// * * * * * * * * * * * * * * * * * * * * * * * * * * * * * * * * * * * * * //

dimensions      [0 2 -2 0 0 0 0];

internalField   nonuniform List<scalar> 
6400
(
3.31895e-08
1.46622e-05
1.97181e-05
6.13814e-06
-2.98317e-05
-8.47247e-05
-0.000151884
-0.000224806
-0.000298661
-0.000371466
-0.000443319
-0.00051662
-0.000595019
-0.000682101
-0.000781576
-0.000896617
-0.0010297
-0.00118236
-0.00135604
-0.00155186
-0.0017702
-0.00201176
-0.00227843
-0.00257316
-0.00290037
-0.00326399
-0.00366178
-0.00408861
-0.00453395
-0.00497556
-0.00539969
-0.00580492
-0.00618873
-0.00654691
-0.0068749
-0.00716725
-0.00741695
-0.00761552
-0.00775346
-0.00782075
-0.0078073
-0.00770325
-0.00749985
-0.00719034
-0.00677057
-0.00623826
-0.00558959
-0.00481796
-0.00393017
-0.00294147
-0.00186103
-0.000703484
0.000511904
0.00176101
0.00301519
0.00424094
0.00539842
0.00644679
0.00734758
0.0080643
0.00856753
0.00883947
0.00887694
0.00869148
0.00830598
0.00776868
0.00713231
0.00645529
0.00579432
0.00519894
0.00469487
0.00431068
0.00404719
0.0038786
0.00378786
0.00375335
0.00375553
0.00377785
0.00380882
0.00383396
-1.1341e-05
3.52515e-06
5.56217e-06
-1.13551e-05
-4.91211e-05
-0.000103783
-0.00016804
-0.00023586
-0.000303478
-0.000369815
-0.000435676
-0.000503647
-0.000577302
-0.000659861
-0.000754285
-0.000863473
-0.00099024
-0.00113668
-0.00130363
-0.0014918
-0.00170082
-0.00193084
-0.00218393
-0.00246215
-0.00276738
-0.0031032
-0.00347486
-0.00388359
-0.00432373
-0.00478181
-0.00523732
-0.005675
-0.00608958
-0.00647802
-0.00683534
-0.00715523
-0.00743046
-0.00765249
-0.0078121
-0.0078997
-0.00790608
-0.00782225
-0.00764036
-0.00735394
-0.00695802
-0.00644873
-0.00582286
-0.00508477
-0.00423946
-0.00329116
-0.0022485
-0.00112957
4.74817e-05
0.00125834
0.00247491
0.00366373
0.00478859
0.00581178
0.00669581
0.00740711
0.00791711
0.00820762
0.00827471
0.00812911
0.00779556
0.00731494
0.00673678
0.00611892
0.00551401
0.00496902
0.00451986
0.00417828
0.00394864
0.00381662
0.00376147
0.00376177
0.00378733
0.00381754
0.00384634
0.00387053
-2.17246e-05
-5.38456e-06
-7.08413e-06
-3.00789e-05
-7.31372e-05
-0.000129537
-0.000191234
-0.000252338
-0.000310462
-0.000366576
-0.000422695
-0.000481898
-0.000547724
-0.000622908
-0.000709559
-0.000809475
-0.000924179
-0.00105567
-0.00120586
-0.00137686
-0.00157134
-0.00179133
-0.00203964
-0.00232036
-0.00263669
-0.00299084
-0.00338354
-0.00381281
-0.00427296
-0.00475387
-0.00524078
-0.00571899
-0.00617744
-0.00660772
-0.00700342
-0.0073577
-0.00766303
-0.00791134
-0.00809432
-0.00820318
-0.00822954
-0.00816576
-0.00800489
-0.00774098
-0.00736973
-0.00688932
-0.00629949
-0.00559289
-0.00478061
-0.00386975
-0.00286819
-0.00179027
-0.000653477
0.000519721
0.00170279
0.00286469
0.00397153
0.00498606
0.00587141
0.00659505
0.00712937
0.00745535
0.00756729
0.00747476
0.00720108
0.00678448
0.00627277
0.00571598
0.00517147
0.00468019
0.00427412
0.00397576
0.00378792
0.00369886
0.00367944
0.00370795
0.00375813
0.00380736
0.0038503
0.00388459
-2.47138e-05
-8.84328e-06
-1.5713e-05
-4.63524e-05
-9.6474e-05
-0.000155297
-0.000214656
-0.00026968
-0.000319077
-0.000363696
-0.000407503
-0.000454765
-0.000509277
-0.000573897
-0.000650296
-0.000739614
-0.000843301
-0.000963555
-0.00110344
-0.00126659
-0.00145794
-0.00168299
-0.0019472
-0.00225518
-0.00260808
-0.00300663
-0.00344979
-0.00393218
-0.00444383
-0.00497189
-0.00550325
-0.00602503
-0.00652544
-0.00699444
-0.00742414
-0.00780725
-0.00813648
-0.00840471
-0.00860413
-0.00872709
-0.0087662
-0.00871496
-0.00856731
-0.00831802
-0.00796353
-0.00750221
-0.00693281
-0.00625434
-0.00547096
-0.0045886
-0.0036156
-0.00256476
-0.00145257
-0.000299438
0.000870387
0.00202801
0.00314002
0.0041703
0.00508248
0.00584246
0.00642227
0.00680068
0.00696878
0.00693385
0.00671787
0.00635555
0.00589264
0.00538083
0.00487322
0.00441395
0.00403577
0.00375809
0.00359059
0.00352125
0.00353252
0.00359037
0.00366664
0.00374184
0.00380602
0.0038508
-1.49289e-05
-3.8388e-06
-1.79076e-05
-5.66359e-05
-0.000113739
-0.000175015
-0.000232136
-0.000281121
-0.000321713
-0.000356278
-0.000389373
-0.000425858
-0.000469884
-0.000524357
-0.000591336
-0.000672706
-0.000771119
-0.000890352
-0.00103579
-0.00121347
-0.00142991
-0.00169123
-0.00200106
-0.00236262
-0.00277719
-0.00324229
-0.00375165
-0.00429615
-0.00486335
-0.00543935
-0.00601141
-0.00656765
-0.00709824
-0.0075943
-0.00804721
-0.00844958
-0.00879459
-0.00907563
-0.00928548
-0.00941725
-0.00946486
-0.00942296
-0.00928649
-0.00905084
-0.00871254
-0.00827015
-0.00772272
-0.00707029
-0.00631495
-0.00546064
-0.00451468
-0.00348853
-0.00239794
-0.00126073
-9.77305e-05
0.00106431
0.002192
0.00325052
0.00420516
0.00502068
0.00566718
0.00612125
0.00636899
0.00641134
0.00626741
0.00597133
0.00556581
0.00509999
0.00462685
0.00419304
0.00383348
0.00357032
0.00341121
0.0033491
0.00336728
0.00343853
0.00353298
0.00362894
0.00371064
0.00376233
1.41087e-05
1.58033e-05
-7.36279e-06
-5.60405e-05
-0.000119526
-0.000182161
-0.000236837
-0.000280616
-0.000313958
-0.000340572
-0.000365852
-0.000394992
-0.000432393
-0.000481482
-0.000545368
-0.000627758
-0.000733773
-0.000869582
-0.00104222
-0.00125975
-0.00152687
-0.00184904
-0.0022301
-0.00266917
-0.00316186
-0.00370007
-0.00427379
-0.00487321
-0.00548687
-0.0061023
-0.00670743
-0.00729114
-0.00784454
-0.00835945
-0.00882812
-0.00924367
-0.00959927
-0.00988877
-0.010106
-0.0102444
-0.0102995
-0.0102677
-0.0101446
-0.00992627
-0.00960934
-0.00919311
-0.00867566
-0.00805687
-0.00733821
-0.006522
-0.00561326
-0.00462109
-0.00355995
-0.00244403
-0.00129091
-0.000127284
0.00101566
0.00210581
0.00311159
0.00399616
0.00472701
0.00527926
0.00563389
0.00578633
0.00574578
0.00554344
0.00522098
0.00482453
0.00440413
0.00400772
0.00367294
0.00342425
0.0032713
0.00321045
0.00322692
0.00329692
0.00339397
0.0034942
0.0035809
0.00363397
6.98336e-05
5.90133e-05
2.39328e-05
-3.73837e-05
-0.000105472
-0.000168914
-0.000221588
-0.000261473
-0.000290611
-0.000313465
-0.000335871
-0.000363489
-0.000401294
-0.000453865
-0.0005262
-0.000624722
-0.000756835
-0.00093093
-0.00115399
-0.001433
-0.00177406
-0.00217934
-0.00264672
-0.00316851
-0.00373602
-0.0043407
-0.00497265
-0.00562093
-0.00627438
-0.00692197
-0.00755317
-0.0081582
-0.00872878
-0.0092573
-0.00973694
-0.010161
-0.0105223
-0.0108159
-0.0110365
-0.0111813
-0.011247
-0.0112295
-0.0111243
-0.0109281
-0.0106385
-0.0102545
-0.00977316
-0.00919426
-0.00851881
-0.00775025
-0.00689383
-0.00595603
-0.00494237
-0.00386555
-0.00274346
-0.00159609
-0.000446184
0.000676156
0.00173698
0.00269797
0.00352807
0.00419992
0.00468795
0.00498385
0.00508752
0.00501898
0.00481513
0.00452008
0.00418089
0.00384439
0.00354988
0.0033245
0.0031811
0.00311884
0.00312854
0.00318726
0.00327356
0.00336394
0.00344152
0.00348755
0.000159261
0.000133109
8.21393e-05
9.24611e-06
-6.35893e-05
-0.000128335
-0.00018034
-0.000219349
-0.000248528
-0.000273276
-0.000299882
-0.000334551
-0.000383295
-0.000452427
-0.000549255
-0.00068271
-0.000862471
-0.00109584
-0.00139092
-0.00175355
-0.00218502
-0.00267967
-0.00323096
-0.0038303
-0.00446775
-0.00513309
-0.005816
-0.00650598
-0.00719274
-0.00786645
-0.00851787
-0.00913848
-0.0097207
-0.0102574
-0.010742
-0.0111678
-0.0115308
-0.0118272
-0.0120536
-0.0122088
-0.0122879
-0.0122857
-0.0121991
-0.012025
-0.011761
-0.0114093
-0.0109661
-0.0104314
-0.00980672
-0.00909516
-0.00830094
-0.0074277
-0.006477
-0.00545844
-0.0043864
-0.00327653
-0.00214778
-0.001021
7.28767e-05
0.00110616
0.00204534
0.0028499
0.00349399
0.00396307
0.00424829
0.00435589
0.00431291
0.00415723
0.00393248
0.00368335
0.00345022
0.00326264
0.00313711
0.00307714
0.0030751
0.00311608
0.00318294
0.00325344
0.00330928
0.00334043
0.000285663
0.000243632
0.000174229
8.88551e-05
1.07949e-05
-5.63429e-05
-0.000110228
-0.000152378
-0.000187325
-0.000221345
-0.000261314
-0.000314269
-0.000387612
-0.000489456
-0.000629485
-0.00081868
-0.00106624
-0.00137958
-0.00176496
-0.00222172
-0.00274458
-0.00332653
-0.00395829
-0.00462923
-0.00532874
-0.00604651
-0.00677246
-0.0074969
-0.00821047
-0.00890431
-0.00957019
-0.0102006
-0.0107886
-0.0113273
-0.0118113
-0.0122376
-0.0126048
-0.0129076
-0.0131422
-0.0133042
-0.0133906
-0.0133993
-0.0133283
-0.0131762
-0.0129421
-0.0126227
-0.0122199
-0.011733
-0.0111623
-0.0105092
-0.0097752
-0.00896291
-0.00807848
-0.00712872
-0.00612336
-0.00507381
-0.00399078
-0.0028864
-0.00178372
-0.000708249
0.000308974
0.0012372
0.00204857
0.00270745
0.0032008
0.00352137
0.00368079
0.00370488
0.00363167
0.00350087
0.00335266
0.00322026
0.00312394
0.00307164
0.00306052
0.00308134
0.00312079
0.00316388
0.00319145
0.00320455
0.000453495
0.000393222
0.000302175
0.000205028
0.000119079
4.7208e-05
-1.2027e-05
-6.25226e-05
-0.000110304
-0.000162549
-0.000226896
-0.000311425
-0.000424901
-0.00057737
-0.000780151
-0.00104443
-0.00137845
-0.00178648
-0.00226833
-0.00281996
-0.00343293
-0.00409726
-0.00480188
-0.00553593
-0.00628896
-0.00705101
-0.00781249
-0.00856443
-0.00929828
-0.0100061
-0.0106806
-0.0113152
-0.011904
-0.012442
-0.0129255
-0.0133513
-0.0137152
-0.0140139
-0.0142458
-0.0144081
-0.0144988
-0.0145163
-0.0144595
-0.0143278
-0.0141209
-0.0138355
-0.013473
-0.0130336
-0.0125177
-0.0119257
-0.0112586
-0.0105178
-0.00970697
-0.00883015
-0.00789259
-0.0069006
-0.00586396
-0.00479988
-0.003722
-0.00264249
-0.00157964
-0.000561275
0.00038494
0.00122842
0.00193638
0.00249022
0.00288628
0.00313017
0.00324668
0.00326929
0.00323324
0.00317467
0.00312029
0.0030836
0.00306793
0.00306837
0.00307887
0.00308898
0.00308758
0.00308356
0.000662415
0.000580487
0.000466254
0.000352852
0.000257715
0.000178305
0.000109295
4.41844e-05
-2.46224e-05
-0.000105278
-0.000206278
-0.000336692
-0.000506683
-0.000727562
-0.00101097
-0.00136649
-0.00179834
-0.00230612
-0.00288616
-0.00353008
-0.00422681
-0.00496539
-0.00573435
-0.006523
-0.00732118
-0.00811936
-0.00890854
-0.00968039
-0.0104272
-0.0111419
-0.0118182
-0.0124505
-0.0130341
-0.0135651
-0.0140403
-0.0144569
-0.0148119
-0.0151034
-0.0153301
-0.0154904
-0.0155832
-0.0156073
-0.0155621
-0.0154475
-0.0152632
-0.0150079
-0.014682
-0.0142859
-0.0138201
-0.0132851
-0.0126815
-0.0120106
-0.011274
-0.010474
-0.00961335
-0.00869498
-0.00772398
-0.00670852
-0.00565785
-0.00458691
-0.00351457
-0.0024511
-0.00141164
-0.000427067
0.000471668
0.00125788
0.00190387
0.00239803
0.00274159
0.00295461
0.00306421
0.00310272
0.00310421
0.00309115
0.00307501
0.0030583
0.00304085
0.00301814
0.00299055
0.00297178
0.000903131
0.00079939
0.000657545
0.000525389
0.000418882
0.000328619
0.000244655
0.000157857
5.90468e-05
-6.09189e-05
-0.000211299
-0.000402068
-0.000644305
-0.000949379
-0.00132717
-0.00178315
-0.00231752
-0.00292605
-0.00360052
-0.00432992
-0.00510241
-0.00590656
-0.00673104
-0.00756545
-0.00839999
-0.0092256
-0.0100339
-0.0108173
-0.0115689
-0.0122827
-0.0129535
-0.0135767
-0.0141488
-0.0146667
-0.0151282
-0.0155312
-0.0158739
-0.0161553
-0.0163744
-0.0165303
-0.0166226
-0.0166506
-0.0166142
-0.0165134
-0.0163482
-0.0161184
-0.0158243
-0.0154664
-0.0150452
-0.0145612
-0.0140151
-0.0134076
-0.0127396
-0.0120122
-0.0112267
-0.0103843
-0.00948724
-0.00853838
-0.00754149
-0.006503
-0.00543223
-0.00434262
-0.00325541
-0.00217972
-0.00113399
-0.000151059
0.000730887
0.00148204
0.00207951
0.00251824
0.00281052
0.00297854
0.00305519
0.0030759
0.00306389
0.0030329
0.00299044
0.00293902
0.00289044
0.00285974
0.00116529
0.00103823
0.000865521
0.000712151
0.000591534
0.00048627
0.000381571
0.000265585
0.000127553
-4.26102e-05
-0.000254725
-0.000519327
-0.000847195
-0.00124803
-0.0017282
-0.00228873
-0.00292547
-0.00363015
-0.004392
-0.00519863
-0.00603797
-0.00689848
-0.00776914
-0.00863989
-0.00950139
-0.0103452
-0.0111636
-0.0119499
-0.0126984
-0.0134039
-0.0140626
-0.014671
-0.0152265
-0.0157271
-0.0161713
-0.0165579
-0.016886
-0.0171551
-0.0173646
-0.0175144
-0.0176042
-0.0176339
-0.0176038
-0.017514
-0.0173648
-0.0171565
-0.0168896
-0.0165647
-0.0161823
-0.0157431
-0.0152476
-0.0146964
-0.01409
-0.0134287
-0.0127126
-0.0119419
-0.0111168
-0.0102375
-0.00930469
-0.00831958
-0.00728438
-0.00620387
-0.00508819
-0.0039531
-0.00281404
-0.00168741
-0.000610371
0.000376625
0.00123322
0.00192373
0.00243384
0.00276985
0.00295262
0.00302263
0.00302244
0.00298
0.00291554
0.00284023
0.00277639
0.00273769
0.00143458
0.0012823
0.00107672
0.000899302
0.00076136
0.00063659
0.000505153
0.00035244
0.000166114
-6.43858e-05
-0.000349101
-0.00069836
-0.00112129
-0.00162466
-0.00221018
-0.00287411
-0.00360829
-0.00440188
-0.0052424
-0.00611698
-0.00701351
-0.00792055
-0.0088275
-0.00972473
-0.0106035
-0.0114562
-0.012276
-0.0130573
-0.0137954
-0.0144866
-0.015128
-0.0157172
-0.0162528
-0.0167333
-0.0171582
-0.017527
-0.0178394
-0.0180951
-0.0182942
-0.0184369
-0.0185232
-0.0185533
-0.0185276
-0.0184466
-0.0183107
-0.0181205
-0.0178766
-0.0175797
-0.0172306
-0.0168298
-0.0163781
-0.0158758
-0.0153233
-0.0147205
-0.0140669
-0.0133617
-0.0126039
-0.011792
-0.0109242
-0.00999891
-0.00901458
-0.00797093
-0.00686946
-0.00571457
-0.00451684
-0.0032987
-0.00207967
-0.000898338
0.000194772
0.0011439
0.00190027
0.00244111
0.00277041
0.0029187
0.00294294
0.00289458
0.00281007
0.00271422
0.00263911
0.00259419
0.0016929
0.0015149
0.00127382
0.00107053
0.000912071
0.000763193
0.000598959
0.000402122
0.000159607
-0.000139303
-0.000505234
-0.000946501
-0.00146975
-0.0020773
-0.00276596
-0.00352793
-0.00435201
-0.00522545
-0.00613487
-0.00706729
-0.00801072
-0.00895403
-0.0098871
-0.0108009
-0.0116876
-0.0125405
-0.013354
-0.0141235
-0.0148457
-0.015518
-0.0161385
-0.0167059
-0.0172196
-0.0176789
-0.018084
-0.0184347
-0.0187312
-0.0189737
-0.0191625
-0.0192979
-0.0193804
-0.0194102
-0.0193878
-0.019314
-0.0191892
-0.0190141
-0.0187896
-0.0185164
-0.0181954
-0.0178272
-0.0174126
-0.0169521
-0.0164457
-0.0158934
-0.0152945
-0.0146476
-0.0139508
-0.0132017
-0.0123968
-0.0115325
-0.0106046
-0.00960933
-0.00854359
-0.00740615
-0.00619915
-0.00493162
-0.00362194
-0.00230112
-0.00101638
0.000168757
0.00118109
0.00195937
0.00247609
0.0027445
0.0028187
0.00277493
0.0026731
0.00255856
0.00247226
0.00241938
0.0019207
0.00171615
0.00143968
0.00120895
0.00102691
0.000849389
0.000646608
0.000399839
9.55543e-05
-0.000278496
-0.000730951
-0.00126789
-0.00189214
-0.00260083
-0.00338678
-0.00423869
-0.00514315
-0.00608613
-0.00705387
-0.00803348
-0.00901323
-0.00998245
-0.0109317
-0.0118528
-0.012739
-0.0135846
-0.0143854
-0.015138
-0.0158403
-0.0164907
-0.0170884
-0.0176329
-0.0181242
-0.0185625
-0.0189481
-0.0192815
-0.019563
-0.0197931
-0.0199723
-0.0201011
-0.0201799
-0.0202092
-0.0201896
-0.0201218
-0.0200064
-0.0198442
-0.019636
-0.0193828
-0.0190853
-0.0187445
-0.018361
-0.0179355
-0.0174681
-0.0169587
-0.0164064
-0.01581
-0.015167
-0.0144745
-0.0137281
-0.012923
-0.0120532
-0.0111123
-0.0100938
-0.00899236
-0.00780497
-0.00653229
-0.00518245
-0.0037775
-0.00235735
-0.000982271
0.000266136
0.00129586
0.00203768
0.00247352
0.00263799
0.0026173
0.00250607
0.00237296
0.00227065
0.00220639
0.00209985
0.00186863
0.00155744
0.00129842
0.00109
0.000879642
0.000634129
0.000333714
-3.71741e-05
-0.000489872
-0.00103081
-0.00166333
-0.00238472
-0.00318832
-0.00406305
-0.00499489
-0.0059689
-0.00697034
-0.00798536
-0.00900131
-0.0100069
-0.0109921
-0.0119483
-0.0128685
-0.0137469
-0.0145794
-0.0153627
-0.0160949
-0.0167749
-0.017402
-0.0179763
-0.018498
-0.0189677
-0.0193859
-0.0197534
-0.0200709
-0.0203388
-0.0205579
-0.0207286
-0.0208516
-0.0209273
-0.0209564
-0.0209394
-0.0208768
-0.0207696
-0.0206184
-0.0204241
-0.0201877
-0.01991
-0.0195919
-0.0192344
-0.0188379
-0.0184029
-0.0179292
-0.0174162
-0.0168626
-0.0162659
-0.015623
-0.0149294
-0.0141793
-0.0133658
-0.0124812
-0.0115167
-0.0104636
-0.00931451
-0.00806468
-0.00671438
-0.00527468
-0.00377445
-0.00226587
-0.000826527
0.00044163
0.00143129
0.00207601
0.00237959
0.00241645
0.00230792
0.0021562
0.00202934
0.00195097
0.00221025
0.0019556
0.00161178
0.00132435
0.00108716
0.000840901
0.000550477
0.000193714
-0.000246332
-0.000778333
-0.00140666
-0.00213005
-0.00294194
-0.00383159
-0.00478468
-0.00578521
-0.00681725
-0.00786574
-0.00891694
-0.00995861
-0.01098
-0.011972
-0.0129271
-0.0138394
-0.0147045
-0.0155194
-0.0162822
-0.016992
-0.0176486
-0.0182523
-0.0188038
-0.0193037
-0.0197532
-0.0201531
-0.0205043
-0.0208076
-0.0210637
-0.0212734
-0.0214371
-0.0215554
-0.0216289
-0.0216581
-0.0216436
-0.021586
-0.021486
-0.0213444
-0.021162
-0.0209398
-0.0206786
-0.0203796
-0.0200434
-0.019671
-0.0192626
-0.0188184
-0.0183379
-0.0178199
-0.0172623
-0.016662
-0.0160145
-0.0153139
-0.0145531
-0.0137232
-0.0128145
-0.0118161
-0.0107174
-0.0095095
-0.00818691
-0.00675124
-0.00521901
-0.00363023
-0.00205496
-0.000589313
0.000644143
0.00153109
0.00202026
0.00215651
0.00207254
0.00190496
0.00174477
0.0016512
0.0022394
0.00196399
0.00159047
0.00127504
0.00100747
0.00072429
0.000387604
-2.76367e-05
-0.000535968
-0.00114485
-0.00185587
-0.00266318
-0.00355653
-0.00452157
-0.00554145
-0.00659881
-0.00767714
-0.00876135
-0.00983798
-0.0108953
-0.0119235
-0.0129144
-0.0138616
-0.0147606
-0.0156082
-0.0164026
-0.0171432
-0.0178298
-0.0184632
-0.0190443
-0.0195741
-0.0200541
-0.0204853
-0.0208688
-0.0212057
-0.0214969
-0.0217431
-0.021945
-0.0221031
-0.022218
-0.0222901
-0.02232
-0.0223082
-0.0222553
-0.0221619
-0.0220287
-0.0218567
-0.0216466
-0.0213995
-0.0211163
-0.0207979
-0.0204451
-0.0200586
-0.0196384
-0.0191844
-0.0186958
-0.0181706
-0.0176061
-0.0169981
-0.0163412
-0.0156279
-0.0148495
-0.0139953
-0.0130536
-0.0120116
-0.0108573
-0.00958111
-0.00817748
-0.00665162
-0.00502935
-0.00336964
-0.00175989
-0.000316017
0.000817953
0.00153209
0.00181871
0.00179079
0.00161305
0.00141423
0.00130672
0.00217679
0.00188422
0.00148479
0.00114256
0.00084451
0.000523841
0.000139967
-0.000331963
-0.000905595
-0.00158707
-0.00237347
-0.00325574
-0.00421991
-0.00524863
-0.00632323
-0.00742547
-0.00853858
-0.00964764
-0.0107396
-0.0118036
-0.0128306
-0.0138137
-0.0147477
-0.0156294
-0.0164568
-0.0172292
-0.0179469
-0.0186106
-0.0192217
-0.0197815
-0.0202917
-0.0207536
-0.0211687
-0.0215381
-0.0218629
-0.022144
-0.0223821
-0.0225779
-0.0227318
-0.0228444
-0.022916
-0.0229471
-0.0229382
-0.0228898
-0.0228025
-0.022677
-0.022514
-0.0223145
-0.0220793
-0.0218095
-0.0215058
-0.0211693
-0.0208005
-0.0203999
-0.0199675
-0.0195027
-0.019004
-0.0184691
-0.0178945
-0.0172749
-0.0166036
-0.0158719
-0.0150693
-0.0141834
-0.0132004
-0.012106
-0.0108875
-0.00953479
-0.00804387
-0.00642594
-0.00472388
-0.00302462
-0.00142297
-6.13802e-05
0.000900728
0.00138213
0.00144535
0.00127233
0.00103938
0.000917666
0.00201638
0.00171079
0.00128998
0.000923206
0.000595474
0.000237492
-0.000192542
-0.000717792
-0.00135198
-0.00209894
-0.0029522
-0.00389915
-0.00492262
-0.00600298
-0.00712027
-0.00825579
-0.00939275
-0.0105166
-0.0116149
-0.0126776
-0.0136969
-0.0146668
-0.0155837
-0.0164454
-0.017251
-0.0180008
-0.0186959
-0.0193377
-0.019928
-0.0204684
-0.0209609
-0.021407
-0.0218081
-0.0221656
-0.0224803
-0.0227533
-0.022985
-0.0231762
-0.0233273
-0.0234386
-0.0235104
-0.0235433
-0.0235375
-0.0234935
-0.0234119
-0.0232934
-0.0231385
-0.0229482
-0.0227233
-0.0224647
-0.0221734
-0.0218504
-0.0214962
-0.0211116
-0.0206966
-0.0202511
-0.0197739
-0.0192633
-0.0187162
-0.0181282
-0.0174931
-0.0168029
-0.0160475
-0.0152145
-0.0142897
-0.0132576
-0.0121029
-0.0108124
-0.00937608
-0.00779287
-0.00608546
-0.00433603
-0.00263291
-0.00109055
0.000110965
0.000819642
0.00102142
0.000876074
0.000622827
0.000483629
0.00175664
0.00144253
0.00100546
0.000617066
0.000260836
-0.000133232
-0.000605823
-0.00117983
-0.00186875
-0.00267296
-0.00358328
-0.00458385
-0.00565486
-0.00677495
-0.00792339
-0.00908126
-0.010232
-0.0113616
-0.0124584
-0.0135132
-0.0145194
-0.0154723
-0.0163693
-0.0172094
-0.0179927
-0.0187202
-0.0193937
-0.0200149
-0.0205861
-0.0211092
-0.0215861
-0.0220185
-0.0224079
-0.0227554
-0.023062
-0.0233285
-0.0235555
-0.0237434
-0.0238927
-0.0240036
-0.0240764
-0.0241113
-0.0241088
-0.0240692
-0.0239931
-0.0238809
-0.0237333
-0.0235511
-0.0233352
-0.0230863
-0.0228055
-0.0224937
-0.0221517
-0.0217801
-0.0213793
-0.0209494
-0.0204896
-0.0199987
-0.0194743
-0.0189125
-0.0183082
-0.0176541
-0.0169408
-0.0161566
-0.0152874
-0.0143172
-0.0132287
-0.0120065
-0.0106378
-0.00911262
-0.00743461
-0.00565492
-0.00390163
-0.00223726
-0.000827838
0.000119479
0.000500382
0.000412788
0.000162198
-5.22935e-07
0.00140027
0.00108237
0.000634286
0.000227385
-0.0001551
-0.00058238
-0.00109347
-0.00171098
-0.00244706
-0.00329967
-0.00425678
-0.00529978
-0.00640679
-0.00755529
-0.0087241
-0.00989439
-0.01105
-0.0121775
-0.0132661
-0.0143078
-0.0152969
-0.01623
-0.0171055
-0.0179234
-0.0186845
-0.0193905
-0.0200436
-0.020646
-0.0212
-0.0217078
-0.0221713
-0.0225921
-0.0229716
-0.023311
-0.0236111
-0.0238727
-0.0240962
-0.024282
-0.0244304
-0.0245416
-0.0246158
-0.0246532
-0.0246542
-0.0246189
-0.0245479
-0.0244416
-0.0243007
-0.0241257
-0.0239176
-0.0236772
-0.0234054
-0.0231031
-0.0227712
-0.0224104
-0.0220213
-0.0216041
-0.0211584
-0.0206836
-0.0201776
-0.0196376
-0.0190592
-0.0184361
-0.0177598
-0.0170196
-0.0162019
-0.0152908
-0.0142685
-0.0131171
-0.0118217
-0.0103688
-0.00874895
-0.0069742
-0.00518714
-0.00345791
-0.00189115
-0.000719026
-0.000132456
-0.000119547
-0.000349887
-0.000543553
0.000953428
0.00063702
0.000182837
-0.000239225
-0.000645201
-0.0011015
-0.00164625
-0.00230142
-0.00307684
-0.0039686
-0.00496217
-0.00603673
-0.00716885
-0.0083353
-0.00951476
-0.0106887
-0.0118414
-0.0129602
-0.0140354
-0.0150598
-0.016029
-0.0169406
-0.0177939
-0.0185895
-0.0193291
-0.0200149
-0.0206492
-0.0212345
-0.0217733
-0.0222677
-0.0227197
-0.0231307
-0.0235021
-0.023835
-0.0241301
-0.0243881
-0.0246092
-0.0247938
-0.0249421
-0.0250542
-0.0251302
-0.0251703
-0.0251747
-0.0251437
-0.0250776
-0.0249768
-0.0248419
-0.0246735
-0.0244724
-0.0242394
-0.0239754
-0.0236813
-0.0233579
-0.0230062
-0.0226267
-0.0222199
-0.0217859
-0.0213241
-0.0208333
-0.0203113
-0.0197545
-0.0191577
-0.0185136
-0.0178124
-0.0170416
-0.016186
-0.0152274
-0.0141468
-0.0129266
-0.011552
-0.0100071
-0.00828842
-0.00646896
-0.00471481
-0.0030528
-0.00169378
-0.000892478
-0.00073025
-0.000923721
-0.00115733
0.000426271
0.000115257
-0.000339874
-0.000773219
-0.00119911
-0.00168043
-0.00225397
-0.00294005
-0.00374691
-0.00466867
-0.00568879
-0.00678472
-0.00793201
-0.00910703
-0.0102886
-0.0114586
-0.012602
-0.0137069
-0.0147645
-0.0157688
-0.0167163
-0.0176054
-0.0184363
-0.0192103
-0.0199295
-0.0205964
-0.0212136
-0.0217836
-0.022309
-0.0227919
-0.023234
-0.0236369
-0.0240018
-0.0243295
-0.0246208
-0.0248761
-0.0250958
-0.0252799
-0.0254287
-0.0255421
-0.0256202
-0.0256632
-0.0256711
-0.0256442
-0.0255827
-0.025487
-0.0253577
-0.0251952
-0.0250004
-0.024774
-0.0245168
-0.0242297
-0.0239138
-0.0235697
-0.0231984
-0.0228003
-0.0223758
-0.0219249
-0.0214466
-0.0209395
-0.0204009
-0.0198264
-0.01921
-0.018543
-0.0178143
-0.0170095
-0.016111
-0.0150993
-0.013955
-0.0126619
-0.0112027
-0.00956117
-0.00774483
-0.00597915
-0.00427931
-0.00278475
-0.00178422
-0.00144774
-0.00157505
-0.00185879
-0.000168359
-0.000471799
-0.000922747
-0.00136341
-0.00180562
-0.00230787
-0.0029049
-0.00361527
-0.00444575
-0.00538879
-0.00642622
-0.00753428
-0.00868789
-0.00986335
-0.0110398
-0.0121996
-0.0133284
-0.0144154
-0.0154525
-0.0164348
-0.0173595
-0.0182259
-0.0190349
-0.0197882
-0.0204883
-0.0211378
-0.0217394
-0.0222959
-0.0228096
-0.0232825
-0.0237164
-0.0241125
-0.0244721
-0.0247959
-0.0250843
-0.0253379
-0.0255567
-0.025741
-0.0258906
-0.0260057
-0.0260862
-0.026132
-0.0261434
-0.0261204
-0.0260633
-0.0259724
-0.0258482
-0.0256912
-0.0255021
-0.0252815
-0.0250304
-0.0247496
-0.02444
-0.0241026
-0.0237382
-0.0233475
-0.0229312
-0.0224892
-0.0220215
-0.0215269
-0.0210034
-0.0204479
-0.0198552
-0.0192182
-0.0185268
-0.0177679
-0.0169252
-0.0159792
-0.0149089
-0.0136961
-0.0123235
-0.010769
-0.0090235
-0.00723525
-0.00553531
-0.00396298
-0.00279679
-0.00228546
-0.00232215
-0.00266968
-0.000817418
-0.00111078
-0.00155355
-0.00199807
-0.00245302
-0.00297195
-0.00358691
-0.00431515
-0.00516187
-0.00611813
-0.00716456
-0.00827662
-0.00942892
-0.0105979
-0.0117633
-0.0129079
-0.0140183
-0.0150843
-0.016099
-0.0170581
-0.0179597
-0.0188038
-0.0195916
-0.0203254
-0.0210077
-0.0216413
-0.0222291
-0.0227736
-0.0232771
-0.0237415
-0.0241683
-0.024559
-0.0249143
-0.025235
-0.0255214
-0.0257739
-0.0259925
-0.0261772
-0.0263281
-0.026445
-0.0265279
-0.0265767
-0.0265914
-0.0265722
-0.0265193
-0.0264329
-0.0263134
-0.0261614
-0.0259774
-0.0257621
-0.0255164
-0.0252412
-0.0249373
-0.0246057
-0.0242473
-0.023863
-0.0234536
-0.0230194
-0.0225605
-0.0220764
-0.0215659
-0.0210266
-0.0204544
-0.0198433
-0.0191848
-0.0184672
-0.0176754
-0.0167907
-0.015792
-0.0146588
-0.0133734
-0.0119133
-0.0102649
-0.00847316
-0.00679734
-0.00520726
-0.00392223
-0.00324058
-0.0031768
-0.0035923
-0.00150736
-0.00178825
-0.00221971
-0.00266492
-0.00312893
-0.00366004
-0.00428778
-0.00502792
-0.00588417
-0.00684646
-0.00789464
-0.00900374
-0.0101484
-0.0113054
-0.0124548
-0.0135805
-0.0146695
-0.0157127
-0.0167037
-0.0176393
-0.0185181
-0.0193405
-0.0201083
-0.0208238
-0.0214897
-0.022109
-0.0226844
-0.0232183
-0.0237129
-0.02417
-0.024591
-0.0249771
-0.025329
-0.0256473
-0.0259323
-0.0261842
-0.026403
-0.0265885
-0.0267408
-0.0268597
-0.026945
-0.0269967
-0.0270147
-0.0269991
-0.0269501
-0.0268678
-0.0267528
-0.0266053
-0.026426
-0.0262156
-0.0259748
-0.0257045
-0.0254057
-0.0250792
-0.0247262
-0.0243476
-0.0239441
-0.0235166
-0.0230654
-0.0225904
-0.022091
-0.0215655
-0.021011
-0.0204226
-0.0197931
-0.0191123
-0.0183666
-0.0175385
-0.0166076
-0.015552
-0.0143544
-0.0129957
-0.011449
-0.00969523
-0.00803141
-0.00647565
-0.00512952
-0.00430163
-0.00414272
-0.00461533
-0.00222412
-0.002491
-0.0029085
-0.003351
-0.00382052
-0.00435976
-0.00499564
-0.00574235
-0.00660221
-0.00756433
-0.00860813
-0.00970852
-0.0108404
-0.0119809
-0.013111
-0.0142149
-0.0152807
-0.0162999
-0.017267
-0.0181792
-0.0190357
-0.0198375
-0.0205864
-0.021285
-0.021936
-0.0225423
-0.0231066
-0.0236312
-0.0241181
-0.0245689
-0.024985
-0.0253673
-0.0257166
-0.0260331
-0.0263171
-0.0265688
-0.026788
-0.0269746
-0.0271284
-0.0272493
-0.027337
-0.0273915
-0.0274126
-0.0274004
-0.0273551
-0.0272767
-0.0271657
-0.0270224
-0.0268474
-0.0266414
-0.026405
-0.0261393
-0.025845
-0.0255233
-0.025175
-0.0248014
-0.0244033
-0.0239817
-0.0235372
-0.0230701
-0.0225804
-0.0220669
-0.0215277
-0.0209591
-0.0203551
-0.019707
-0.0190028
-0.0182264
-0.0173582
-0.0163761
-0.0152617
-0.013997
-0.0125541
-0.0109118
-0.00924086
-0.00772943
-0.00637099
-0.00543905
-0.00521177
-0.00571562
-0.00295416
-0.00320574
-0.00360704
-0.00404396
-0.00451574
-0.00505948
-0.00569938
-0.006448
-0.00730643
-0.00826319
-0.00929759
-0.0103847
-0.0114998
-0.0126207
-0.0137289
-0.0148093
-0.0158509
-0.0168457
-0.0177889
-0.0186783
-0.0195136
-0.0202959
-0.0210272
-0.0217102
-0.0223477
-0.0229424
-0.0234968
-0.0240131
-0.0244933
-0.0249388
-0.0253507
-0.02573
-0.026077
-0.0263922
-0.0266756
-0.0269273
-0.0271472
-0.0273349
-0.0274903
-0.0276131
-0.0277032
-0.0277603
-0.0277844
-0.0277754
-0.0277335
-0.0276587
-0.0275514
-0.0274119
-0.0272409
-0.0270389
-0.0268066
-0.026545
-0.0262549
-0.0259374
-0.0255935
-0.0252244
-0.0248311
-0.0244148
-0.0239762
-0.0235162
-0.0230349
-0.0225321
-0.0220063
-0.0214549
-0.0208733
-0.0202543
-0.0195872
-0.0188578
-0.0180475
-0.017135
-0.0160998
-0.0149242
-0.0135827
-0.0120611
-0.0104142
-0.00895333
-0.00761253
-0.00661778
-0.00634734
-0.00683608
-0.00368461
-0.00391972
-0.00430304
-0.00473212
-0.00520337
-0.00574841
-0.00638877
-0.00713541
-0.00798827
-0.00893546
-0.0099565
-0.0110269
-0.0121224
-0.0132214
-0.0143061
-0.0153622
-0.0163791
-0.0173498
-0.0182698
-0.0191374
-0.0199525
-0.0207166
-0.0214317
-0.0221005
-0.0227257
-0.0233099
-0.0238555
-0.0243647
-0.024839
-0.0252798
-0.0256882
-0.0260649
-0.0264102
-0.0267244
-0.0270075
-0.0272594
-0.0274799
-0.0276688
-0.0278258
-0.0279506
-0.0280429
-0.0281025
-0.0281293
-0.0281233
-0.0280845
-0.028013
-0.0279091
-0.0277732
-0.0276057
-0.0274074
-0.0271789
-0.026921
-0.0266347
-0.0263211
-0.0259812
-0.0256162
-0.0252273
-0.0248157
-0.0243826
-0.0239288
-0.0234551
-0.0229616
-0.0224476
-0.0219115
-0.0213497
-0.0207563
-0.0201224
-0.0194353
-0.0186781
-0.0178304
-0.0168706
-0.0157828
-0.0145471
-0.0131374
-0.0115404
-0.0101141
-0.00882263
-0.0078035
-0.00748735
-0.00789829
-0.00440369
-0.00462134
-0.00498537
-0.00540477
-0.00587314
-0.00641681
-0.00705465
-0.00779617
-0.00864034
-0.0095745
-0.0105793
-0.0116305
-0.0127045
-0.0137803
-0.0148408
-0.0158723
-0.0168649
-0.017812
-0.0187098
-0.0195568
-0.0203531
-0.0211003
-0.0218006
-0.0224564
-0.0230705
-0.0236454
-0.0241833
-0.024686
-0.0251552
-0.0255921
-0.0259974
-0.0263719
-0.0267158
-0.0270292
-0.0273121
-0.0275644
-0.0277857
-0.0279757
-0.0281342
-0.0282608
-0.0283552
-0.0284171
-0.0284465
-0.0284432
-0.0284072
-0.0283387
-0.0282379
-0.0281053
-0.0279411
-0.0277461
-0.027521
-0.0272666
-0.0269838
-0.0266737
-0.0263374
-0.0259762
-0.0255914
-0.0251842
-0.0247559
-0.0243078
-0.0238409
-0.0233556
-0.0228522
-0.0223295
-0.021785
-0.0212144
-0.0206099
-0.0199607
-0.0192515
-0.018463
-0.017574
-0.0165681
-0.0154286
-0.0141277
-0.0126339
-0.0112161
-0.00997358
-0.00895823
-0.00858239
-0.00888874
-0.0051001
-0.00530007
-0.00564404
-0.00605236
-0.00651593
-0.00705601
-0.0076889
-0.0084228
-0.00925626
-0.0101748
-0.011161
-0.0121916
-0.0132431
-0.0142952
-0.0153314
-0.0163387
-0.0173077
-0.0182324
-0.0191091
-0.0199368