/*--------------------------------*- C++ -*----------------------------------*\
  =========                 |
  \\      /  F ield         | OpenFOAM: The Open Source CFD Toolbox
   \\    /   O peration     | Website:  https://openfoam.org
    \\  /    A nd           | Version:  13
     \\/     M anipulation  |
\*---------------------------------------------------------------------------*/
FoamFile
{
    format      ascii;
    class       volVectorField;
    location    "3.7";
    object      U;
}
// * * * * * * * * * * * * * * * * * * * * * * * * * * * * * * * * * * * * * //

dimensions      [0 1 -1 0 0 0 0];

internalField   nonuniform List<vector> 
6400
(
(-7.3997e-05 4.5609e-05 0)
(0.000437138 -0.00015121 0)
(0.00176409 -0.000338424 0)
(0.00348177 -0.000417916 0)
(0.00519619 -0.000373072 0)
(0.00664401 -0.0002626 0)
(0.0076476 -0.000130531 0)
(0.00820412 -2.92809e-05 0)
(0.00841222 1.29827e-05 0)
(0.00840381 1.47478e-06 0)
(0.00832656 -4.37772e-05 0)
(0.00825121 -0.000115852 0)
(0.00824431 -0.00019055 0)
(0.00830722 -0.000257909 0)
(0.00840852 -0.000315126 0)
(0.00850047 -0.000361295 0)
(0.00852697 -0.000392496 0)
(0.00846129 -0.000399376 0)
(0.00825208 -0.000390207 0)
(0.00783221 -0.000364447 0)
(0.00717187 -0.000331073 0)
(0.00621503 -0.000295406 0)
(0.00493026 -0.000259763 0)
(0.00329635 -0.000238253 0)
(0.00128588 -0.000259039 0)
(-0.00109109 -0.000333492 0)
(-0.00382197 -0.000399578 0)
(-0.00707154 -0.00034531 0)
(-0.0109352 -8.14618e-05 0)
(-0.0154428 0.000441493 0)
(-0.0209782 0.00116277 0)
(-0.0274218 0.001894 0)
(-0.0345212 0.00254027 0)
(-0.0421299 0.00309216 0)
(-0.0500395 0.00352805 0)
(-0.0580694 0.00384259 0)
(-0.0660361 0.004038 0)
(-0.0737929 0.00412539 0)
(-0.0812049 0.00411776 0)
(-0.0881691 0.00402924 0)
(-0.0945918 0.00387223 0)
(-0.100399 0.00365494 0)
(-0.105526 0.00338348 0)
(-0.109922 0.00305907 0)
(-0.113544 0.00268346 0)
(-0.116359 0.00226485 0)
(-0.118267 0.00183226 0)
(-0.119154 0.00144307 0)
(-0.119348 0.000950417 0)
(-0.118326 0.000320031 0)
(-0.11635 -0.000225272 0)
(-0.113264 -0.000861858 0)
(-0.109092 -0.00146433 0)
(-0.103818 -0.00208389 0)
(-0.0974502 -0.00266933 0)
(-0.0900391 -0.00323433 0)
(-0.0816942 -0.00377659 0)
(-0.0724353 -0.00426611 0)
(-0.0624077 -0.00468753 0)
(-0.051771 -0.00500963 0)
(-0.0407185 -0.00519514 0)
(-0.0294912 -0.00521101 0)
(-0.0183684 -0.00504391 0)
(-0.00762016 -0.00468715 0)
(0.00238706 -0.00416552 0)
(0.0113111 -0.00344424 0)
(0.0188762 -0.0025467 0)
(0.0248102 -0.00153332 0)
(0.0288663 -0.000451307 0)
(0.0310365 0.000622451 0)
(0.0308513 0.00161234 0)
(0.0291364 0.00217282 0)
(0.0254192 0.00254594 0)
(0.0204736 0.00250724 0)
(0.0150834 0.00207523 0)
(0.0099643 0.00139888 0)
(0.00567217 0.00074755 0)
(0.00247875 0.00027844 0)
(0.00055017 -3.87141e-05 0)
(-0.000146577 -0.00024823 0)
(4.57702e-05 -0.000393235 0)
(0.00155577 -0.0017522 0)
(0.00431573 -0.00282811 0)
(0.0074154 -0.0031948 0)
(0.0102966 -0.00291461 0)
(0.0126218 -0.00226535 0)
(0.0142429 -0.00146742 0)
(0.0151744 -0.000734589 0)
(0.0155179 -0.00020069 0)
(0.0153843 0.000108332 0)
(0.0149412 0.000221157 0)
(0.0142756 0.000208753 0)
(0.0134667 0.000146233 0)
(0.0125077 0.000107801 0)
(0.0113474 0.000139188 0)
(0.00991377 0.000254219 0)
(0.00813828 0.000443314 0)
(0.00597214 0.000701106 0)
(0.00332149 0.00104375 0)
(0.000104988 0.00148057 0)
(-0.00376367 0.00201563 0)
(-0.00845108 0.00265321 0)
(-0.0140428 0.00337045 0)
(-0.0205967 0.00415263 0)
(-0.028166 0.00500554 0)
(-0.0368075 0.00596259 0)
(-0.0465168 0.00703687 0)
(-0.057085 0.00820332 0)
(-0.0682707 0.00946297 0)
(-0.0797254 0.0107341 0)
(-0.0910053 0.0118291 0)
(-0.102043 0.0126546 0)
(-0.112718 0.013178 0)
(-0.122893 0.0134031 0)
(-0.132442 0.0133369 0)
(-0.141301 0.0130237 0)
(-0.149394 0.0124944 0)
(-0.156687 0.0117868 0)
(-0.163143 0.0109322 0)
(-0.168745 0.00995918 0)
(-0.173474 0.00888969 0)
(-0.177314 0.00773719 0)
(-0.180258 0.00651493 0)
(-0.182287 0.00523098 0)
(-0.183399 0.00389463 0)
(-0.183576 0.00251154 0)
(-0.182791 0.00108398 0)
(-0.181016 -0.000395388 0)
(-0.178287 -0.00194833 0)
(-0.174513 -0.00357322 0)
(-0.169737 -0.00522887 0)
(-0.163919 -0.00692864 0)
(-0.157059 -0.00863622 0)
(-0.149149 -0.0103421 0)
(-0.140193 -0.0120081 0)
(-0.130212 -0.0136013 0)
(-0.11924 -0.0150665 0)
(-0.107384 -0.0163742 0)
(-0.0947476 -0.0174673 0)
(-0.0815026 -0.0182758 0)
(-0.0678505 -0.0187427 0)
(-0.0539985 -0.0188012 0)
(-0.0402012 -0.0184088 0)
(-0.0267387 -0.0175346 0)
(-0.0139092 -0.0161724 0)
(-0.00199611 -0.0143063 0)
(0.00871033 -0.0119758 0)
(0.0179306 -0.00923021 0)
(0.0254391 -0.00618554 0)
(0.0310591 -0.00294447 0)
(0.0346421 0.000277902 0)
(0.03615 0.00323825 0)
(0.0354977 0.00584057 0)
(0.0328148 0.00780498 0)
(0.0283597 0.00861954 0)
(0.0222789 0.00835706 0)
(0.0153997 0.00710497 0)
(0.0087745 0.00518961 0)
(0.0034821 0.00285425 0)
(0.000327635 0.00069113 0)
(0.00019226 -0.00145813 0)
(0.00261204 -0.00442935 0)
(0.00607103 -0.00616788 0)
(0.00936791 -0.00640257 0)
(0.0121041 -0.00556912 0)
(0.0141006 -0.00417313 0)
(0.0153664 -0.00265667 0)
(0.015944 -0.00127642 0)
(0.015897 -0.000168538 0)
(0.0152919 0.000609604 0)
(0.0142381 0.00108621 0)
(0.0127881 0.00136733 0)
(0.0109563 0.00158469 0)
(0.00871268 0.00185983 0)
(0.0059852 0.002274 0)
(0.00269668 0.00285162 0)
(-0.00125452 0.00359403 0)
(-0.0059937 0.00451391 0)
(-0.0116178 0.00563024 0)
(-0.0182212 0.0069662 0)
(-0.0258745 0.00853411 0)
(-0.0345745 0.010289 0)
(-0.0443195 0.0121764 0)
(-0.0550397 0.0141314 0)
(-0.0665787 0.0160548 0)
(-0.0787091 0.0178483 0)
(-0.0911597 0.0194561 0)
(-0.103639 0.0208143 0)
(-0.115911 0.0218882 0)
(-0.127708 0.0226285 0)
(-0.138848 0.0230179 0)
(-0.149221 0.0230548 0)
(-0.158744 0.0227373 0)
(-0.167393 0.0221157 0)
(-0.175182 0.0212088 0)
(-0.182118 0.0200513 0)
(-0.188217 0.0186915 0)
(-0.1935 0.0171629 0)
(-0.197982 0.0154957 0)
(-0.201673 0.0137139 0)
(-0.204585 0.0118457 0)
(-0.206724 0.00989756 0)
(-0.208089 0.00788058 0)
(-0.208675 0.00579921 0)
(-0.208475 0.00365172 0)
(-0.207477 0.00143908 0)
(-0.205668 -0.000843526 0)
(-0.203003 -0.0032081 0)
(-0.199468 -0.00565452 0)
(-0.195041 -0.00816461 0)
(-0.189699 -0.0107264 0)
(-0.183414 -0.0133387 0)
(-0.17617 -0.0159708 0)
(-0.167953 -0.0186006 0)
(-0.15876 -0.0211831 0)
(-0.148603 -0.0236661 0)
(-0.137517 -0.0259787 0)
(-0.125575 -0.0280491 0)
(-0.112857 -0.0297835 0)
(-0.0994838 -0.0310901 0)
(-0.0856391 -0.0318728 0)
(-0.0715259 -0.0320382 0)
(-0.0573732 -0.0315099 0)
(-0.0434636 -0.0302491 0)
(-0.0300847 -0.0282385 0)
(-0.0175011 -0.0254839 0)
(-0.00595637 -0.022022 0)
(0.00428293 -0.0179268 0)
(0.0130097 -0.0133404 0)
(0.0200909 -0.00842904 0)
(0.025399 -0.00339632 0)
(0.0289375 0.00151857 0)
(0.0306184 0.00601688 0)
(0.0302955 0.00974986 0)
(0.0280162 0.0125684 0)
(0.0241261 0.0139086 0)
(0.0186069 0.0136964 0)
(0.0121934 0.0118624 0)
(0.00585728 0.00839463 0)
(0.000813739 0.00349916 0)
(0.00034901 -0.00304705 0)
(0.00339165 -0.00774901 0)
(0.00694901 -0.0096315 0)
(0.00986204 -0.00926887 0)
(0.0119821 -0.00764487 0)
(0.0132982 -0.00549439 0)
(0.0138814 -0.00327111 0)
(0.0137985 -0.00124394 0)
(0.0131016 0.000441077 0)
(0.0118355 0.00173436 0)
(0.00999385 0.0027021 0)
(0.00755616 0.00348295 0)
(0.00448219 0.00424052 0)
(0.000714402 0.00511928 0)
(-0.00380707 0.00620944 0)
(-0.00916655 0.0075577 0)
(-0.0154607 0.0091823 0)
(-0.0227827 0.0110867 0)
(-0.0311987 0.0132692 0)
(-0.0407299 0.0157083 0)
(-0.0513326 0.0183498 0)
(-0.0628801 0.0210893 0)
(-0.0751769 0.0237963 0)
(-0.0879626 0.0263446 0)
(-0.10094 0.0286194 0)
(-0.11387 0.0305389 0)
(-0.126477 0.0319745 0)
(-0.138535 0.0328783 0)
(-0.149836 0.0332883 0)
(-0.160262 0.0332475 0)
(-0.169792 0.0327973 0)
(-0.178403 0.0319731 0)
(-0.186139 0.0308048 0)
(-0.193027 0.0293332 0)
(-0.19912 0.0276085 0)
(-0.204451 0.0256668 0)
(-0.209069 0.023548 0)
(-0.213 0.0212807 0)
(-0.216267 0.0188958 0)
(-0.218888 0.0164095 0)
(-0.220872 0.0138378 0)
(-0.222224 0.0111892 0)
(-0.22294 0.00846531 0)
(-0.223011 0.00566524 0)
(-0.222422 0.00278372 0)
(-0.221156 -0.00018313 0)
(-0.219188 -0.00324048 0)
(-0.216485 -0.00638718 0)
(-0.21302 -0.00964261 0)
(-0.208763 -0.0129976 0)
(-0.203679 -0.0164411 0)
(-0.197732 -0.0199566 0)
(-0.190897 -0.0235157 0)
(-0.183146 -0.0270882 0)
(-0.17446 -0.0306205 0)
(-0.164829 -0.0340395 0)
(-0.154258 -0.0372494 0)
(-0.142789 -0.0401526 0)
(-0.130481 -0.0426358 0)
(-0.117422 -0.0445531 0)
(-0.103749 -0.0457623 0)
(-0.0896484 -0.046146 0)
(-0.075321 -0.0455796 0)
(-0.0610397 -0.043987 0)
(-0.0471185 -0.0413417 0)
(-0.0338822 -0.0377101 0)
(-0.0215788 -0.033127 0)
(-0.0104543 -0.0277036 0)
(-0.000728487 -0.0216143 0)
(0.00744138 -0.0150887 0)
(0.0139454 -0.00838256 0)
(0.0187339 -0.0017537 0)
(0.021813 0.00451438 0)
(0.0232416 0.0100765 0)
(0.0229441 0.0145277 0)
(0.0208541 0.0175618 0)
(0.0171721 0.0187438 0)
(0.0121834 0.0177793 0)
(0.00644107 0.0142724 0)
(0.000995092 0.00710841 0)
(0.000534327 -0.00502745 0)
(0.00385757 -0.0112392 0)
(0.0070121 -0.0127213 0)
(0.00920794 -0.0114825 0)
(0.0105225 -0.00897393 0)
(0.0110129 -0.00604393 0)
(0.0107879 -0.00313046 0)
(0.00990826 -0.000473027 0)
(0.00839325 0.00181418 0)
(0.0062276 0.00372673 0)
(0.00336032 0.0053538 0)
(-0.000277598 0.00684993 0)
(-0.0047595 0.00838875 0)
(-0.0101575 0.0101182 0)
(-0.016539 0.0121377 0)
(-0.0239695 0.0144987 0)
(-0.032503 0.0172126 0)
(-0.0421605 0.0202538 0)
(-0.052907 0.0235648 0)
(-0.0646277 0.0270378 0)
(-0.0771264 0.0305337 0)
(-0.0901324 0.0338777 0)
(-0.103365 0.0369285 0)
(-0.116532 0.0395571 0)
(-0.129369 0.0415778 0)
(-0.141589 0.0429329 0)
(-0.152972 0.0436488 0)
(-0.163471 0.0437499 0)
(-0.173039 0.0432897 0)
(-0.181718 0.0423512 0)
(-0.189538 0.0410059 0)
(-0.196549 0.0393213 0)
(-0.202821 0.0373469 0)
(-0.208389 0.0351251 0)
(-0.213305 0.0326961 0)
(-0.217608 0.0300904 0)
(-0.221335 0.0273406 0)
(-0.224506 0.0244706 0)
(-0.227146 0.0214971 0)
(-0.229265 0.0184325 0)
(-0.230863 0.0152889 0)
(-0.231944 0.0120665 0)
(-0.232503 0.00876046 0)
(-0.232528 0.00536318 0)
(-0.232004 0.00186401 0)
(-0.230915 -0.00174565 0)
(-0.229226 -0.00547383 0)
(-0.226904 -0.00932455 0)
(-0.223915 -0.0133086 0)
(-0.220227 -0.0174286 0)
(-0.215808 -0.0216847 0)
(-0.210597 -0.0260506 0)
(-0.204555 -0.0304944 0)
(-0.197645 -0.0349845 0)
(-0.189826 -0.0394618 0)
(-0.181069 -0.0438416 0)
(-0.17134 -0.048003 0)
(-0.16065 -0.0518248 0)
(-0.14903 -0.0551673 0)
(-0.136528 -0.0578399 0)
(-0.123238 -0.0596692 0)
(-0.109312 -0.0604828 0)
(-0.0949338 -0.0601126 0)
(-0.0803399 -0.0584356 0)
(-0.0657946 -0.0553768 0)
(-0.0516896 -0.0509748 0)
(-0.0384067 -0.0453603 0)
(-0.0261839 -0.0386623 0)
(-0.0152752 -0.0311036 0)
(-0.00588464 -0.0229682 0)
(0.00184912 -0.0145776 0)
(0.00786248 -0.00625944 0)
(0.0121719 0.00167325 0)
(0.0148428 0.00887874 0)
(0.015924 0.0149967 0)
(0.015435 0.0196044 0)
(0.0134138 0.0222376 0)
(0.010024 0.0224718 0)
(0.00554237 0.0194765 0)
(0.000811155 0.0105474 0)
(0.000736478 -0.00726241 0)
(0.00396048 -0.0144495 0)
(0.00634945 -0.0150317 0)
(0.00760594 -0.0128293 0)
(0.00801051 -0.00941945 0)
(0.00760784 -0.0057341 0)
(0.00650619 -0.00214194 0)
(0.00473306 0.00116909 0)
(0.00226767 0.00413036 0)
(-0.000947966 0.00677331 0)
(-0.00499859 0.00921059 0)
(-0.00997505 0.0116041 0)
(-0.0159588 0.0141215 0)
(-0.023016 0.0168991 0)
(-0.031192 0.0200223 0)
(-0.0405046 0.0235208 0)
(-0.0509316 0.0273663 0)
(-0.0623862 0.0314645 0)
(-0.0747025 0.0356914 0)
(-0.0876435 0.0398523 0)
(-0.100913 0.0437712 0)
(-0.11422 0.0472733 0)
(-0.127251 0.0501102 0)
(-0.139651 0.0521868 0)
(-0.151196 0.0534714 0)
(-0.161804 0.0539618 0)
(-0.171489 0.0537423 0)
(-0.180296 0.0529178 0)
(-0.188269 0.0515865 0)
(-0.195482 0.0498387 0)
(-0.201976 0.0477401 0)
(-0.207816 0.0453551 0)
(-0.213047 0.0427269 0)
(-0.217709 0.0398972 0)
(-0.221846 0.0368985 0)
(-0.225487 0.0337557 0)
(-0.228655 0.0304923 0)
(-0.231371 0.0271296 0)
(-0.233653 0.0236784 0)
(-0.235502 0.0201446 0)
(-0.236922 0.016536 0)
(-0.237914 0.0128446 0)
(-0.238475 0.0090596 0)
(-0.238598 0.00516903 0)
(-0.238273 0.00115619 0)
(-0.237495 -0.00299852 0)
(-0.236241 -0.00731118 0)
(-0.234483 -0.0117894 0)
(-0.232179 -0.0164366 0)
(-0.229275 -0.021247 0)
(-0.225732 -0.0262291 0)
(-0.221502 -0.0313732 0)
(-0.216502 -0.0366274 0)
(-0.210672 -0.0419582 0)
(-0.203952 -0.0473078 0)
(-0.196351 -0.0526382 0)
(-0.187763 -0.0577901 0)
(-0.178136 -0.0625965 0)
(-0.167488 -0.0669103 0)
(-0.155809 -0.070499 0)
(-0.143152 -0.0731427 0)
(-0.129623 -0.0746285 0)
(-0.115359 -0.07473 0)
(-0.100602 -0.0732713 0)
(-0.0855967 -0.0701077 0)
(-0.0706341 -0.0652059 0)
(-0.0562017 -0.058721 0)
(-0.0426971 -0.0508647 0)
(-0.0303915 -0.0418997 0)
(-0.0195593 -0.0321656 0)
(-0.0103982 -0.0220612 0)
(-0.00301773 -0.0119993 0)
(0.00257204 -0.00237447 0)
(0.00644581 0.00644317 0)
(0.00872557 0.0140917 0)
(0.00951491 0.0201819 0)
(0.0088741 0.0242303 0)
(0.00688456 0.0256799 0)
(0.00392159 0.023444 0)
(0.000446702 0.0132497 0)
(0.000904689 -0.00956599 0)
(0.00365793 -0.0169834 0)
(0.00498022 -0.0164196 0)
(0.0052778 -0.0131676 0)
(0.00468579 -0.00891835 0)
(0.00334784 -0.00450851 0)
(0.00131304 -0.000229545 0)
(-0.00143137 0.00378558 0)
(-0.00494271 0.00751008 0)
(-0.00930684 0.0110021 0)
(-0.0146198 0.0143844 0)
(-0.0209708 0.0178125 0)
(-0.0284286 0.0214346 0)
(-0.0370307 0.0253587 0)
(-0.0467731 0.0296324 0)
(-0.0576017 0.0342324 0)
(-0.0693966 0.039077 0)
(-0.0819734 0.0439898 0)
(-0.095042 0.0487582 0)
(-0.108312 0.0532172 0)
(-0.121456 0.0570539 0)
(-0.134069 0.0600926 0)
(-0.145857 0.0622147 0)
(-0.156707 0.0633969 0)
(-0.166614 0.0637135 0)
(-0.175631 0.0632756 0)
(-0.183816 0.0621964 0)
(-0.191236 0.0605786 0)
(-0.197959 0.0585207 0)
(-0.204045 0.0561022 0)
(-0.209539 0.0533877 0)
(-0.214491 0.0504314 0)
(-0.218931 0.0472713 0)
(-0.222898 0.0439443 0)
(-0.226421 0.0404777 0)
(-0.229525 0.0368945 0)
(-0.232226 0.0332173 0)
(-0.234532 0.029467 0)
(-0.236451 0.0256559 0)
(-0.238018 0.0217311 0)
(-0.239257 0.0177103 0)
(-0.240138 0.0136141 0)
(-0.240665 0.00942399 0)
(-0.240824 0.00512874 0)
(-0.240602 0.000712143 0)
(-0.239986 -0.00384266 0)
(-0.238995 -0.0085604 0)
(-0.23761 -0.0134641 0)
(-0.235826 -0.0185814 0)
(-0.233627 -0.0239374 0)
(-0.23097 -0.0295446 0)
(-0.227839 -0.0354386 0)
(-0.224146 -0.0415072 0)
(-0.219788 -0.0477332 0)
(-0.214661 -0.0540508 0)
(-0.208599 -0.0603381 0)
(-0.201549 -0.0664931 0)
(-0.193351 -0.0722859 0)
(-0.184062 -0.0776439 0)
(-0.173641 -0.0823168 0)
(-0.162016 -0.0859854 0)
(-0.149293 -0.0884081 0)
(-0.135509 -0.0892572 0)
(-0.120883 -0.0883341 0)
(-0.105632 -0.0854213 0)
(-0.0900508 -0.0804067 0)
(-0.0745383 -0.0733275 0)
(-0.0596502 -0.064483 0)
(-0.045813 -0.0542153 0)
(-0.0333508 -0.0429091 0)
(-0.0225476 -0.0310454 0)
(-0.0135943 -0.0191424 0)
(-0.00656366 -0.00770621 0)
(-0.00141139 0.00281007 0)
(0.00202291 0.0120176 0)
(0.0039285 0.0195415 0)
(0.00444993 0.0249272 0)
(0.00372059 0.0275432 0)
(0.00206765 0.0259692 0)
(4.15741e-05 0.0148273 0)
(0.000978804 -0.0116932 0)
(0.00286389 -0.0185847 0)
(0.00313005 -0.0167706 0)
(0.00236409 -0.0124537 0)
(0.000766245 -0.0074418 0)
(-0.00153618 -0.0023271 0)
(-0.00454706 0.00266546 0)
(-0.00831628 0.00744851 0)
(-0.0129256 0.0120234 0)
(-0.018469 0.0164617 0)
(-0.0250359 0.0208825 0)
(-0.0326965 0.0254204 0)
(-0.0414873 0.0301893 0)
(-0.0513967 0.0352502 0)
(-0.0623512 0.0405909 0)
(-0.074232 0.046136 0)
(-0.0868221 0.0517054 0)
(-0.0998047 0.0570843 0)
(-0.112895 0.0619959 0)
(-0.125683 0.0661744 0)
(-0.137764 0.0694024 0)
(-0.148957 0.0715771 0)
(-0.159212 0.0727353 0)
(-0.168545 0.0729737 0)
(-0.177014 0.072416 0)
(-0.184689 0.0711741 0)
(-0.191644 0.0693619 0)
(-0.197947 0.0670784 0)
(-0.203656 0.0644121 0)
(-0.208816 0.0614319 0)
(-0.213465 0.0581965 0)
(-0.217637 0.0547525 0)
(-0.22136 0.0511376 0)
(-0.224659 0.0473861 0)
(-0.227554 0.0435272 0)
(-0.230053 0.0395893 0)
(-0.232226 0.0355399 0)
(-0.234085 0.0314066 0)
(-0.235645 0.0271904 0)
(-0.236899 0.0229397 0)
(-0.237837 0.0186276 0)
(-0.238479 0.0142186 0)
(-0.238828 0.00971013 0)
(-0.238891 0.00508554 0)
(-0.238669 0.000328857 0)
(-0.238173 -0.00457823 0)
(-0.237406 -0.00965064 0)
(-0.236349 -0.0149163 0)
(-0.234994 -0.0203943 0)
(-0.233321 -0.0261012 0)
(-0.231304 -0.0320412 0)
(-0.228901 -0.038205 0)
(-0.226093 -0.044714 0)
(-0.222842 -0.0515137 0)
(-0.219091 -0.0585688 0)
(-0.214752 -0.0658187 0)
(-0.209743 -0.0731795 0)
(-0.203825 -0.080313 0)
(-0.196659 -0.086953 0)
(-0.188102 -0.0928224 0)
(-0.178085 -0.0976547 0)
(-0.166776 -0.101298 0)
(-0.154053 -0.103252 0)
(-0.140105 -0.103265 0)
(-0.12508 -0.101027 0)
(-0.109257 -0.0963413 0)
(-0.0929876 -0.0891326 0)
(-0.076799 -0.0795846 0)
(-0.0613585 -0.0681729 0)
(-0.0471454 -0.0553867 0)
(-0.0345166 -0.0417531 0)
(-0.0237725 -0.0279049 0)
(-0.0150867 -0.0144837 0)
(-0.00847924 -0.00207798 0)
(-0.00381742 0.00882795 0)
(-0.000864293 0.0178218 0)
(0.000655967 0.0244976 0)
(0.00101624 0.0281841 0)
(0.000506758 0.0271737 0)
(-0.000226759 0.0153369 0)
(0.000927271 -0.0134326 0)
(0.00173125 -0.0191152 0)
(0.000870161 -0.0159617 0)
(-0.000959354 -0.0107275 0)
(-0.00355327 -0.00498471 0)
(-0.00683356 0.000836571 0)
(-0.010842 0.00657816 0)
(-0.0156537 0.0121871 0)
(-0.0213587 0.0176793 0)
(-0.0280435 0.0231238 0)
(-0.0357765 0.0286213 0)
(-0.0445946 0.0342721 0)
(-0.0544873 0.0401406 0)
(-0.0653784 0.0462259 0)
(-0.0771509 0.0524622 0)
(-0.0895809 0.0586755 0)
(-0.10235 0.0646331 0)
(-0.115108 0.0700155 0)
(-0.127458 0.0745484 0)
(-0.139036 0.0779981 0)
(-0.149723 0.0803132 0)
(-0.15948 0.0815439 0)
(-0.168325 0.0817973 0)
(-0.176327 0.0811916 0)
(-0.183562 0.07986 0)
(-0.190101 0.0779158 0)
(-0.196012 0.0754682 0)
(-0.201348 0.0726049 0)
(-0.206153 0.0694033 0)
(-0.210463 0.0659245 0)
(-0.214309 0.0622214 0)
(-0.21772 0.0583368 0)
(-0.220723 0.0543068 0)
(-0.223342 0.0501621 0)
(-0.22561 0.045919 0)
(-0.227564 0.0415915 0)
(-0.229187 0.0372284 0)
(-0.230482 0.0328168 0)
(-0.23148 0.0283491 0)
(-0.2322 0.0238236 0)
(-0.232664 0.0192293 0)
(-0.232899 0.0145595 0)
(-0.232921 0.00980528 0)
(-0.232749 0.00495025 0)
(-0.232398 -2.75423e-05 0)
(-0.231882 -0.00515743 0)
(-0.23118 -0.010456 0)
(-0.230308 -0.0159579 0)
(-0.22926 -0.0216927 0)
(-0.228031 -0.0276906 0)
(-0.226609 -0.033974 0)
(-0.224968 -0.0405557 0)
(-0.223081 -0.0474397 0)
(-0.220904 -0.054613 0)
(-0.218368 -0.0620468 0)
(-0.215386 -0.069675 0)
(-0.21184 -0.0774345 0)
(-0.207707 -0.0854396 0)
(-0.20282 -0.093393 0)
(-0.196971 -0.10097 0)
(-0.189714 -0.107586 0)
(-0.180572 -0.112693 0)
(-0.16966 -0.116061 0)
(-0.157107 -0.117434 0)
(-0.143007 -0.116381 0)
(-0.127547 -0.112548 0)
(-0.111085 -0.105801 0)
(-0.0940077 -0.096108 0)
(-0.0770423 -0.0838434 0)
(-0.0609951 -0.0697099 0)
(-0.0464048 -0.0543727 0)
(-0.0336643 -0.0385168 0)
(-0.0230791 -0.0229371 0)
(-0.0147844 -0.00839409 0)
(-0.00872147 0.00445602 0)
(-0.00464902 0.0150998 0)
(-0.00219191 0.0231184 0)
(-0.000953332 0.0277274 0)
(-0.000490865 0.0272616 0)
(-0.000273264 0.0151688 0)
(0.000767846 -0.0143825 0)
(0.000363726 -0.0184679 0)
(-0.00165895 -0.0140304 0)
(-0.00451062 -0.00798535 0)
(-0.00808437 -0.00154245 0)
(-0.0123423 0.00499059 0)
(-0.0173422 0.0115105 0)
(-0.023172 0.0179844 0)
(-0.0299172 0.024427 0)
(-0.0376446 0.0308901 0)
(-0.0463911 0.0374424 0)
(-0.0561503 0.0441376 0)
(-0.0668542 0.0509791 0)
(-0.0783907 0.0579133 0)
(-0.0905392 0.064775 0)
(-0.102998 0.0713108 0)
(-0.115374 0.0771909 0)
(-0.127265 0.0821183 0)
(-0.138415 0.0858856 0)
(-0.148668 0.088435 0)
(-0.157996 0.0898314 0)
(-0.166424 0.0901679 0)
(-0.174018 0.0895871 0)
(-0.180855 0.0882237 0)
(-0.187007 0.0862049 0)
(-0.192532 0.0836379 0)
(-0.197484 0.0806194 0)
(-0.201903 0.0772278 0)
(-0.205823 0.0735327 0)
(-0.209274 0.0695912 0)
(-0.212286 0.0654535 0)
(-0.214886 0.0611615 0)
(-0.217103 0.0567507 0)
(-0.218965 0.0522499 0)
(-0.220489 0.0476834 0)
(-0.221701 0.043063 0)
(-0.222618 0.0384014 0)
(-0.223287 0.0337001 0)
(-0.223729 0.0289668 0)
(-0.223963 0.0242013 0)
(-0.224014 0.0193961 0)
(-0.2239 0.01454 0)
(-0.22364 0.00961836 0)
(-0.223251 0.00461144 0)
(-0.222751 -0.000504496 0)
(-0.222144 -0.00575547 0)
(-0.221437 -0.0111724 0)
(-0.220648 -0.0167848 0)
(-0.219782 -0.0226259 0)
(-0.218847 -0.0287287 0)
(-0.217841 -0.0351251 0)
(-0.216756 -0.0418456 0)
(-0.215579 -0.0489181 0)
(-0.214283 -0.056354 0)
(-0.212826 -0.0641502 0)
(-0.211136 -0.0722721 0)
(-0.209113 -0.0806432 0)
(-0.206647 -0.0891413 0)
(-0.203575 -0.0976021 0)
(-0.199689 -0.105944 0)
(-0.194911 -0.114072 0)
(-0.188881 -0.121383 0)
(-0.180993 -0.126964 0)
(-0.170679 -0.130055 0)
(-0.158381 -0.130726 0)
(-0.144082 -0.128366 0)
(-0.128126 -0.122725 0)
(-0.11089 -0.113622 0)
(-0.0929171 -0.101172 0)
(-0.075115 -0.0859847 0)
(-0.0584543 -0.0690352 0)
(-0.0435539 -0.0511919 0)
(-0.0308323 -0.0333236 0)
(-0.0205786 -0.0163951 0)
(-0.0128533 -0.00127951 0)
(-0.0074784 0.0113222 0)
(-0.0040341 0.0208618 0)
(-0.00205644 0.0264197 0)
(-0.000916008 0.0265594 0)
(-0.000193123 0.0146729 0)
(0.000534804 -0.0145853 0)
(-0.00117115 -0.0166368 0)
(-0.0042925 -0.0110339 0)
(-0.00813135 -0.00423647 0)
(-0.012667 0.00287316 0)
(-0.017874 0.0101156 0)
(-0.0238241 0.0174267 0)
(-0.0306058 0.0247765 0)
(-0.0382892 0.0321626 0)
(-0.0469131 0.0396066 0)
(-0.0564756 0.0471341 0)
(-0.0669199 0.0547416 0)
(-0.0781452 0.0623834 0)
(-0.0899446 0.0699035 0)
(-0.102025 0.0770452 0)
(-0.114003 0.0834703 0)
(-0.125489 0.0888613 0)
(-0.136255 0.0930385 0)
(-0.146145 0.0959289 0)
(-0.155103 0.0975647 0)
(-0.163171 0.098068 0)
(-0.170405 0.0975768 0)
(-0.176882 0.096242 0)
(-0.182668 0.0941934 0)
(-0.18782 0.0915475 0)
(-0.192385 0.0884024 0)
(-0.196402 0.0848451 0)
(-0.199905 0.0809491 0)
(-0.202928 0.0767801 0)
(-0.205501 0.0723946 0)
(-0.207657 0.0678424 0)
(-0.209428 0.0631655 0)
(-0.210846 0.0583989 0)
(-0.211945 0.05357 0)
(-0.212754 0.0487001 0)
(-0.213308 0.0438051 0)
(-0.213637 0.038899 0)
(-0.213771 0.0339852 0)
(-0.213734 0.0290655 0)
(-0.213549 0.024137 0)
(-0.213237 0.0191899 0)
(-0.212815 0.0142105 0)
(-0.2123 0.0091811 0)
(-0.21171 0.00408071 0)
(-0.21106 -0.00111391 0)
(-0.210361 -0.00642702 0)
(-0.209626 -0.0118932 0)
(-0.208873 -0.017543 0)
(-0.208115 -0.0234107 0)
(-0.207363 -0.0295311 0)
(-0.206627 -0.0359398 0)
(-0.205911 -0.0426726 0)
(-0.205217 -0.0497635 0)
(-0.204537 -0.0572387 0)
(-0.20385 -0.0651151 0)
(-0.203115 -0.0733944 0)
(-0.202265 -0.0820575 0)
(-0.201206 -0.0910485 0)
(-0.199796 -0.100233 0)
(-0.19785 -0.109402 0)
(-0.195139 -0.118272 0)
(-0.191354 -0.126578 0)
(-0.18632 -0.134244 0)
(-0.179524 -0.140208 0)
(-0.169977 -0.143175 0)
(-0.15785 -0.142929 0)
(-0.143312 -0.139122 0)
(-0.126712 -0.131366 0)
(-0.108577 -0.119617 0)
(-0.0896353 -0.104159 0)
(-0.0709935 -0.0858825 0)
(-0.0538009 -0.0660909 0)
(-0.0387532 -0.0458853 0)
(-0.0262766 -0.0263546 0)
(-0.0165997 -0.00864239 0)
(-0.0096605 0.00629911 0)
(-0.00508272 0.0177045 0)
(-0.0023882 0.024504 0)
(-0.000822138 0.0254411 0)
(4.57646e-07 0.0141416 0)
(0.00012591 -0.0138234 0)
(-0.0027994 -0.013656 0)
(-0.00692582 -0.0069937 0)
(-0.0117007 0.00047566 0)
(-0.0171519 0.00821973 0)
(-0.0232516 0.0161599 0)
(-0.030077 0.0242538 0)
(-0.0377081 0.0324583 0)
(-0.0461919 0.0407408 0)
(-0.0555334 0.0490816 0)
(-0.0656871 0.0574538 0)
(-0.0765664 0.0658091 0)
(-0.0879854 0.0739986 0)
(-0.0996675 0.0817739 0)
(-0.111252 0.0887987 0)
(-0.12238 0.0947475 0)
(-0.132815 0.0994261 0)
(-0.142397 0.102749 0)
(-0.151054 0.104722 0)
(-0.158813 0.105469 0)
(-0.165737 0.105141 0)
(-0.171891 0.10389 0)
(-0.177342 0.10186 0)
(-0.182142 0.099171 0)
(-0.186336 0.0959295 0)
(-0.189963 0.0922278 0)
(-0.19306 0.0881485 0)
(-0.195663 0.0837642 0)
(-0.197808 0.0791409 0)
(-0.199535 0.074336 0)
(-0.200882 0.0693998 0)
(-0.20189 0.0643746 0)
(-0.202595 0.0592947 0)
(-0.203037 0.0541878 0)
(-0.203251 0.0490747 0)
(-0.203269 0.0439696 0)
(-0.203122 0.0388827 0)
(-0.202834 0.0338154 0)
(-0.202428 0.0287656 0)
(-0.201924 0.0237266 0)
(-0.201339 0.018687 0)
(-0.200689 0.0136316 0)
(-0.199988 0.00854184 0)
(-0.199251 0.0033963 0)
(-0.198492 -0.00182836 0)
(-0.197725 -0.00715759 0)
(-0.196965 -0.0126235 0)
(-0.196227 -0.0182576 0)
(-0.195528 -0.0240946 0)
(-0.194884 -0.0301706 0)
(-0.19431 -0.0365232 0)
(-0.193822 -0.0431914 0)
(-0.193428 -0.0502132 0)
(-0.193137 -0.0576228 0)
(-0.192943 -0.0654481 0)
(-0.19283 -0.0737072 0)
(-0.192763 -0.0824043 0)
(-0.192683 -0.0915206 0)
(-0.192493 -0.100999 0)
(-0.192047 -0.110729 0)
(-0.191138 -0.120507 0)
(-0.189488 -0.129986 0)
(-0.186761 -0.138706 0)
(-0.182547 -0.14639 0)
(-0.176478 -0.15242 0)
(-0.167607 -0.155179 0)
(-0.155576 -0.153992 0)
(-0.140663 -0.148482 0)
(-0.123254 -0.138297 0)
(-0.104109 -0.123588 0)
(-0.0841629 -0.104863 0)
(-0.0647757 -0.0833759 0)
(-0.0472547 -0.0608147 0)
(-0.0323535 -0.0385305 0)
(-0.0204589 -0.0179067 0)
(-0.0116835 -0.000204333 0)
(-0.00575905 0.0135392 0)
(-0.00226583 0.0220761 0)
(-0.000392991 0.0242111 0)
(0.000250957 0.0138966 0)
(-0.000307157 -0.0120779 0)
(-0.00440349 -0.00957078 0)
(-0.00945586 -0.00198101 0)
(-0.0151027 0.0060892 0)
(-0.0214016 0.0144309 0)
(-0.0283129 0.0230432 0)
(-0.0359118 0.0318879 0)
(-0.0442631 0.0408951 0)
(-0.0533853 0.0499911 0)
(-0.0632466 0.0591051 0)
(-0.0737755 0.0681689 0)
(-0.0848089 0.0770349 0)
(-0.0960982 0.0854694 0)
(-0.107315 0.0931444 0)
(-0.118127 0.0997315 0)
(-0.128284 0.105009 0)
(-0.137612 0.108856 0)
(-0.14603 0.111269 0)
(-0.15354 0.112348 0)
(-0.160204 0.112256 0)
(-0.166084 0.111154 0)
(-0.171241 0.109192 0)
(-0.175727 0.106502 0)
(-0.179586 0.103197 0)
(-0.182859 0.0993783 0)
(-0.185586 0.0951376 0)
(-0.187807 0.0905574 0)
(-0.189567 0.0857125 0)
(-0.190911 0.0806701 0)
(-0.191884 0.0754888 0)
(-0.192533 0.0702186 0)
(-0.192902 0.0649009 0)
(-0.193031 0.0595688 0)
(-0.192959 0.0542468 0)
(-0.192719 0.0489522 0)
(-0.192342 0.0436958 0)
(-0.191852 0.0384829 0)
(-0.191271 0.033312 0)
(-0.190616 0.0281777 0)
(-0.189902 0.0230708 0)
(-0.189144 0.0179777 0)
(-0.188353 0.0128827 0)
(-0.18754 0.00776676 0)
(-0.186717 0.00260853 0)
(-0.185896 -0.00261529 0)
(-0.18509 -0.00793031 0)
(-0.184312 -0.013366 0)
(-0.183579 -0.0189531 0)
(-0.182908 -0.0247254 0)
(-0.182317 -0.0307185 0)
(-0.181828 -0.0369707 0)
(-0.181458 -0.0435219 0)
(-0.181228 -0.0504132 0)
(-0.181153 -0.0576845 0)
(-0.181243 -0.0653729 0)
(-0.181499 -0.0735098 0)
(-0.181908 -0.0821158 0)
(-0.182437 -0.0911939 0)
(-0.183028 -0.100721 0)
(-0.183582 -0.110637 0)
(-0.183951 -0.120827 0)
(-0.183912 -0.131093 0)
(-0.183161 -0.141103 0)
(-0.18131 -0.150305 0)
(-0.177857 -0.158038 0)
(-0.17228 -0.163871 0)
(-0.163733 -0.166161 0)
(-0.151637 -0.16384 0)
(-0.136128 -0.15629 0)
(-0.117747 -0.143308 0)
(-0.0974993 -0.125261 0)
(-0.0765936 -0.102996 0)
(-0.0566962 -0.0782518 0)
(-0.0392116 -0.0531315 0)
(-0.0248962 -0.0293109 0)
(-0.0140489 -0.00841105 0)
(-0.00656158 0.00820155 0)
(-0.00211342 0.0190961 0)
(9.48657e-05 0.0229602 0)
(0.000452453 0.0140328 0)
(-0.000750916 -0.00937951 0)
(-0.00591662 -0.00448027 0)
(-0.0118009 0.0039256 0)
(-0.0182381 0.012528 0)
(-0.0252982 0.0214219 0)
(-0.0329197 0.0306633 0)
(-0.0411704 0.040203 0)
(-0.0500951 0.0499319 0)
(-0.059682 0.0597232 0)
(-0.0698746 0.0694703 0)
(-0.0805352 0.0790114 0)
(-0.0914526 0.0881211 0)
(-0.102334 0.096487 0)
(-0.112865 0.103777 0)
(-0.122796 0.109742 0)
(-0.131929 0.114214 0)
(-0.140166 0.117164 0)
(-0.147494 0.118676 0)
(-0.153956 0.118903 0)
(-0.159617 0.11802 0)
(-0.164533 0.116186 0)
(-0.168756 0.113543 0)
(-0.172333 0.110216 0)
(-0.175304 0.106314 0)
(-0.177715 0.101942 0)
(-0.179613 0.0971905 0)
(-0.181046 0.0921463 0)
(-0.182068 0.0868862 0)
(-0.182731 0.0814777 0)
(-0.183086 0.0759788 0)
(-0.183181 0.0704377 0)
(-0.183061 0.0648925 0)
(-0.182765 0.0593717 0)
(-0.182329 0.0538954 0)
(-0.181781 0.0484763 0)
(-0.181146 0.0431205 0)
(-0.180444 0.0378286 0)
(-0.179689 0.0325959 0)
(-0.178896 0.0274138 0)
(-0.178073 0.0222711 0)
(-0.17723 0.0171529 0)
(-0.176375 0.0120425 0)
(-0.175515 0.00692104 0)
(-0.174659 0.00176782 0)
(-0.173816 -0.00343983 0)
(-0.172995 -0.00872629 0)
(-0.172211 -0.0141186 0)
(-0.171477 -0.0196457 0)
(-0.170812 -0.0253389 0)
(-0.170236 -0.0312324 0)
(-0.169771 -0.037363 0)
(-0.16944 -0.0437702 0)
(-0.16927 -0.0504958 0)
(-0.169283 -0.0575831 0)
(-0.169499 -0.0650753 0)
(-0.169934 -0.0730135 0)
(-0.170592 -0.0814328 0)
(-0.171462 -0.0903571 0)
(-0.17251 -0.0997906 0)
(-0.173674 -0.109708 0)
(-0.174849 -0.120041 0)
(-0.175878 -0.13066 0)
(-0.176528 -0.141352 0)
(-0.176467 -0.151773 0)
(-0.175248 -0.161353 0)
(-0.172331 -0.169286 0)
(-0.167036 -0.174689 0)
(-0.158507 -0.176191 0)
(-0.146055 -0.172364 0)
(-0.129706 -0.162342 0)
(-0.110205 -0.146077 0)
(-0.0888247 -0.12425 0)
(-0.0671483 -0.0981832 0)
(-0.0471269 -0.0702613 0)
(-0.0302304 -0.0430532 0)
(-0.0171168 -0.0185235 0)
(-0.0078716 0.00151725 0)
(-0.00227807 0.0154293 0)
(0.000408467 0.0216348 0)
(0.000620238 0.0144773 0)
(-0.00118044 -0.00578248 0)
(-0.0072828 0.00151744 0)
(-0.0138957 0.0106327 0)
(-0.0210305 0.0196988 0)
(-0.028747 0.0290891 0)
(-0.0369607 0.0388991 0)
(-0.0457276 0.0490553 0)
(-0.0550707 0.0593964 0)
(-0.0649591 0.0697611 0)
(-0.0752776 0.0799535 0)
(-0.0858487 0.0897351 0)
(-0.0964194 0.0988174 0)
(-0.106704 0.106856 0)
(-0.116452 0.113582 0)
(-0.125448 0.118778 0)
(-0.133567 0.122371 0)
(-0.140777 0.124419 0)
(-0.147105 0.125062 0)
(-0.152608 0.124478 0)
(-0.157345 0.122841 0)
(-0.161368 0.120303 0)
(-0.164723 0.117002 0)
(-0.167457 0.113061 0)
(-0.169617 0.108593 0)
(-0.171257 0.103702 0)
(-0.172431 0.0984852 0)
(-0.173199 0.0930306 0)
(-0.173618 0.0874154 0)
(-0.173744 0.0817057 0)
(-0.17363 0.0759565 0)
(-0.173323 0.070211 0)
(-0.172865 0.064502 0)
(-0.17229 0.0588526 0)
(-0.171628 0.0532771 0)
(-0.170903 0.0477828 0)
(-0.170132 0.0423708 0)
(-0.169328 0.0370375 0)
(-0.168502 0.0317746 0)
(-0.167662 0.0265715 0)
(-0.166812 0.021415 0)
(-0.165956 0.016289 0)
(-0.165099 0.011176 0)
(-0.164244 0.00605853 0)
(-0.163396 0.000916363 0)
(-0.16256 -0.00427155 0)
(-0.161747 -0.0095277 0)
(-0.160965 -0.0148765 0)
(-0.16023 -0.020344 0)
(-0.159558 -0.0259587 0)
(-0.158969 -0.0317518 0)
(-0.158487 -0.0377574 0)
(-0.158138 -0.0440131 0)
(-0.157951 -0.05056 0)
(-0.157956 -0.0574421 0)
(-0.158181 -0.0647062 0)
(-0.158652 -0.0723997 0)