/*--------------------------------*- C++ -*----------------------------------*\
  =========                 |
  \\      /  F ield         | OpenFOAM: The Open Source CFD Toolbox
   \\    /   O peration     | Website:  https://openfoam.org
    \\  /    A nd           | Version:  13
     \\/     M anipulation  |
\*---------------------------------------------------------------------------*/
FoamFile
{
    format      ascii;
    class       volScalarField;
    location    "3";
    object      epsilon;
}
// * * * * * * * * * * * * * * * * * * * * * * * * * * * * * * * * * * * * * //

dimensions      [0 2 -3 0 0 0 0];

internalField   nonuniform List<scalar> 
6400
(
2.23049e-05
0.000112917
0.000262394
0.000419467
0.000551368
0.000648777
0.000718178
0.000773021
0.000827425
0.000893062
0.000980354
0.00109446
0.00123942
0.00141737
0.00162795
0.00186879
0.00213581
0.00242248
0.00272076
0.00302408
0.00333343
0.00366414
0.00404475
0.00449749
0.00502701
0.00560825
0.00619831
0.00679289
0.00740216
0.00803955
0.00871077
0.0094061
0.010089
0.0107608
0.0114163
0.0120692
0.0127253
0.0133955
0.0140876
0.0148101
0.0155693
0.0163705
0.0172211
0.0181277
0.0190874
0.0201024
0.0211812
0.0223614
0.0237157
0.0254234
0.0271336
0.0288817
0.0305958
0.0322498
0.0337863
0.0351449
0.0362563
0.0369781
0.0373257
0.0374329
0.0369327
0.0358035
0.0340626
0.0317563
0.0289297
0.0256985
0.022197
0.0186318
0.0151654
0.0118879
0.00893833
0.00660597
0.00468825
0.00318034
0.00206557
0.00128417
0.000761216
0.000420213
0.000188896
3.94698e-05
0.000108842
0.000100948
0.00015596
0.000223074
0.000281664
0.000329282
0.000368776
0.000405215
0.000444472
0.000492676
0.000556162
0.000640083
0.000749699
0.000890374
0.00106747
0.00128643
0.0015525
0.00187061
0.00224561
0.00268361
0.00319437
0.00378686
0.00447712
0.00528923
0.00622481
0.00726836
0.00842533
0.00963567
0.0108365
0.0119799
0.0130037
0.0138553
0.0145488
0.0150844
0.0154879
0.0157852
0.0160013
0.0161624
0.0162899
0.0164024
0.0165145
0.016643
0.0167999
0.0169675
0.0171456
0.0173422
0.0175861
0.017886
0.0182373
0.0186435
0.0190927
0.0195594
0.0200418
0.0205091
0.0209454
0.0213173
0.0215602
0.0216554
0.0216359
0.0214178
0.020951
0.0202111
0.0191992
0.0179063
0.0163695
0.0146353
0.0127824
0.010897
0.00905942
0.00734021
0.00579971
0.00451941
0.00343572
0.00252403
0.00177379
0.00117724
0.000724071
0.000403107
0.000205677
0.000204948
0.000239715
0.000174587
0.000211458
0.000259732
0.000301692
0.000339643
0.000378546
0.000424056
0.000482594
0.000561989
0.000670093
0.000816281
0.0010108
0.00126433
0.00158827
0.00199485
0.00249436
0.00309549
0.00380429
0.00462361
0.00555306
0.00658877
0.0077103
0.00885959
0.00995992
0.0109229
0.0116549
0.012162
0.0125161
0.0127583
0.0129577
0.0130983
0.0131354
0.0130451
0.0129211
0.0127826
0.012648
0.0125314
0.0124475
0.0124086
0.0123985
0.0124352
0.0125221
0.0126739
0.0128997
0.0131967
0.0135482
0.0139557
0.0144141
0.0149204
0.0154699
0.0160522
0.0166597
0.017275
0.0178811
0.0184516
0.0189561
0.0193646
0.0195897
0.019657
0.0195216
0.0191024
0.0183703
0.0173191
0.0159929
0.0144391
0.0127271
0.0109415
0.00916634
0.00748133
0.00595426
0.00463639
0.00353507
0.00263706
0.00191867
0.00134945
0.000901678
0.000557703
0.000347931
0.000519635
0.000410182
0.000288798
0.000320117
0.000363923
0.000405071
0.000448634
0.000501805
0.000572827
0.000671414
0.000808884
0.000999686
0.00125929
0.00160358
0.00204773
0.00260478
0.00328388
0.00408847
0.00501126
0.00603083
0.00710899
0.00819224
0.0092143
0.0101004
0.0107828
0.0112126
0.0114368
0.0115368
0.0115702
0.0114689
0.0112214
0.010934
0.0105784
0.0103012
0.0100921
0.00990445
0.00976415
0.00967518
0.00963665
0.00962986
0.00968299
0.00978453
0.00993806
0.0101435
0.0104024
0.0107141
0.011077
0.0114899
0.0119541
0.0124688
0.0130331
0.0136451
0.0143001
0.014992
0.0157103
0.0164406
0.0171617
0.0178458
0.0184587
0.0189573
0.0192468
0.0193453
0.0192153
0.0187976
0.0180619
0.0169165
0.0154722
0.0137846
0.0119417
0.0100448
0.00820018
0.00650254
0.00502165
0.0037902
0.00280766
0.00204624
0.00146638
0.00102403
0.000688457
0.000496974
0.000825316
0.000635178
0.000438653
0.000461776
0.00050683
0.000557688
0.000619466
0.000701755
0.000816758
0.000979457
0.00120764
0.00152125
0.00194016
0.00248144
0.00315653
0.00396789
0.00490518
0.00594094
0.00702676
0.00809424
0.00906061
0.00984963
0.010388
0.0106499
0.0107495
0.0107695
0.0105804
0.0102049
0.00976729
0.00935145
0.00899732
0.00867035
0.00839276
0.00818288
0.00802222
0.00790784
0.00785135
0.00783122
0.00783947
0.00790228
0.0080013
0.00814022
0.00831734
0.00853309
0.00878775
0.00908208
0.00941741
0.00979575
0.0102195
0.0106906
0.0112113
0.0117832
0.012407
0.0130814
0.0138032
0.0145657
0.0153571
0.0161577
0.016941
0.0176718
0.0183017
0.0187397
0.0189224
0.0189046
0.0185114
0.0178406
0.0166485
0.0150965
0.0132678
0.0112693
0.00923394
0.00729753
0.00557419
0.0041349
0.00299905
0.00214296
0.00151772
0.00106635
0.000746425
0.00059236
0.00102371
0.000934617
0.000627584
0.000637951
0.000689166
0.000760767
0.00085403
0.000981963
0.00116198
0.00141517
0.00176503
0.00223461
0.00284212
0.00359589
0.00448944
0.00549721
0.00657137
0.00764124
0.00861864
0.00941602
0.00993373
0.0101686
0.0102391
0.0101602
0.00985394
0.00935726
0.00884421
0.00838519
0.00795787
0.00759609
0.00729308
0.00704238
0.00684764
0.00670253
0.00659903
0.00654165
0.00651768
0.00651337
0.00654455
0.00660653
0.0066932
0.0068066
0.00694511
0.00710954
0.00730049
0.00751959
0.00776905
0.00805189
0.00837183
0.00873325
0.00914108
0.00960071
0.0101178
0.0106971
0.0113421
0.0120545
0.0128331
0.0136728
0.0145599
0.015475
0.0163797
0.0172233
0.0179417
0.0183749
0.0185253
0.0183217
0.0177641
0.0165596
0.0149147
0.0129206
0.0107234
0.00850669
0.00645211
0.00469773
0.00331048
0.0022852
0.00156666
0.00107803
0.000760366
0.000635537
0.00110167
0.00132797
0.000859711
0.000852982
0.000919927
0.00102286
0.00116126
0.00135205
0.00161803
0.00198524
0.00247913
0.00311895
0.00391075
0.00484085
0.00587107
0.00693744
0.00795414
0.00882354
0.00943959
0.00972895
0.00981836
0.00974408
0.00940334
0.00887246
0.00830594
0.00778132
0.00730577
0.00689948
0.00655137
0.00626714
0.00603533
0.0058514
0.00571026
0.0056055
0.00553185
0.00548874
0.00546906
0.00546385
0.00548
0.0055169
0.00556907
0.00563778
0.00572222
0.0058234
0.00594208
0.00607996
0.00623916
0.00642255
0.00663378
0.00687746
0.00715911
0.00748531
0.00786383
0.00830433
0.00881717
0.00941256
0.0101005
0.0108894
0.0117807
0.012768
0.0138416
0.0149676
0.0160958
0.0171434
0.0179756
0.0183713
0.0184434
0.0180109
0.0168099
0.0150296
0.0127954
0.0103199
0.00786379
0.00566676
0.00388697
0.00257281
0.00167817
0.00110594
0.000763227
0.000644331
0.0010957
0.0018322
0.0011384
0.001114
0.00120736
0.0013521
0.00154881
0.00181791
0.00218617
0.00268067
0.00332193
0.00411552
0.00504401
0.00606159
0.00709394
0.00804517
0.0088128
0.00925446
0.00942182
0.00944068
0.00917058
0.00864513
0.00804142
0.0074632
0.00693045
0.00646955
0.00607524
0.0057476
0.00547601
0.0052561
0.00507831
0.00493752
0.00482789
0.00474452
0.0046835
0.00464191
0.00461895
0.00460948
0.00460841
0.00462394
0.00464955
0.00468682
0.004735
0.00479493
0.00486728
0.00495337
0.00505492
0.00517411
0.00531373
0.00547727
0.00566904
0.00589437
0.00615993
0.00647405
0.00684691
0.00729124
0.00782238
0.00845787
0.00921941
0.0101225
0.0111791
0.012386
0.013724
0.0151463
0.01656
0.0178207
0.0185986
0.0188848
0.0186305
0.0173944
0.0153945
0.0128178
0.00998093
0.00724439
0.00490867
0.0031364
0.001931
0.00119056
0.000780172
0.000643628
0.00106754
0.00245909
0.00146691
0.00142866
0.00155661
0.00175313
0.00201899
0.0023767
0.00285354
0.00347158
0.00423782
0.00513487
0.00611473
0.00709874
0.00798634
0.00867057
0.00900948
0.00911864
0.00901947
0.00859912
0.00799228
0.007375
0.00678156
0.00625896
0.00580729
0.00542888
0.00511348
0.00485434
0.00464172
0.00446933
0.00432999
0.00421905
0.00413185
0.00406483
0.00401507
0.00398027
0.00395993
0.00395089
0.0039489
0.00395894
0.00397811
0.00400641
0.00404363
0.00409025
0.00414679
0.0042142
0.0042937
0.00438682
0.00449548
0.00462204
0.00476938
0.00494098
0.00514103
0.00537465
0.00564849
0.0059712
0.00635421
0.00681394
0.00737354
0.00806291
0.00891643
0.0099687
0.0112483
0.0127513
0.0144428
0.0162305
0.0179309
0.0191336
0.0196388
0.0195544
0.0182097
0.015873
0.0128458
0.00958561
0.00656735
0.00414241
0.00244245
0.00139467
0.000841166
0.000654239
0.00106689
0.00321527
0.0018506
0.00180216
0.00196976
0.00222551
0.00256641
0.00301429
0.00359198
0.00430953
0.00515303
0.00607724
0.0070049
0.00783558
0.0084441
0.00872709
0.00880565
0.00860819
0.00810763
0.00747386
0.00683324
0.00624344
0.00572273
0.00528295
0.00491428
0.00461006
0.00435944
0.00415459
0.00398758
0.00385281
0.00374497
0.0036602
0.00359504
0.00354671
0.00351281
0.0034932
0.00348468
0.00348287
0.00349076
0.0035082
0.00353308
0.00356579
0.00360618
0.00365465
0.00371167
0.003778
0.00385459
0.00394254
0.0040433
0.00415851
0.0042901
0.00444028
0.0046117
0.00480747
0.0050315
0.00528876
0.00558587
0.00593124
0.0063361
0.00681949
0.00741407
0.00817403
0.00916164
0.0104475
0.0120565
0.0139851
0.01614
0.0183022
0.01994
0.0206521
0.0206608
0.0191041
0.0162884
0.0127135
0.00900623
0.00576668
0.00335384
0.00181366
0.00099209
0.000696846
0.00111018
0.00414418
0.00230583
0.0022361
0.00244489
0.00276244
0.00317712
0.00370581
0.00436137
0.00513595
0.00599107
0.00685516
0.0076313
0.00818764
0.00843696
0.00849651
0.00823557
0.00769989
0.00706276
0.00641034
0.00581616
0.00530046
0.00486505
0.0045049
0.00420781
0.00396493
0.00376681
0.00360654
0.00347793
0.0033763
0.00329751
0.00323829
0.00319563
0.00316738
0.00315349
0.00314863
0.00314948
0.0031611
0.0031796
0.00320523
0.00323716
0.00327566
0.0033208
0.00337306
0.003433
0.00350142
0.00357931
0.00366777
0.00376812
0.00388183
0.0040105
0.00415588
0.00431978
0.00450418
0.0047112
0.00494324
0.00520337
0.0054959
0.00582752
0.00620876
0.00665315
0.00718357
0.00784516
0.00872577
0.00996048
0.0116374
0.0137678
0.0162856
0.0189309
0.0209817
0.0218616
0.0218617
0.019889
0.0164453
0.0122422
0.00813731
0.00481416
0.0025586
0.00130323
0.000806067
0.00124368
0.00522167
0.00282457
0.00272487
0.00297386
0.00335056
0.00382971
0.0044188
0.00511614
0.00589322
0.00668854
0.00741282
0.00793631
0.00816678
0.00821248
0.00793145
0.00738969
0.00674348
0.00608832
0.00548657
0.00496944
0.00453619
0.00417909
0.00388738
0.00364979
0.00345786
0.00330387
0.00318194
0.00308699
0.00301495
0.00296211
0.00292534
0.00290321
0.00289306
0.00289021
0.00289401
0.00290575
0.00292388
0.00294728
0.00297604
0.00300997
0.00304944
0.00309486
0.00314689
0.00320633
0.00327416
0.00335156
0.00343979
0.0035403
0.00365466
0.00378452
0.0039316
0.00409757
0.00428405
0.00449249
0.00472409
0.00497992
0.00526104
0.00556919
0.00590803
0.00628519
0.00671514
0.00721383
0.00782165
0.00862026
0.00976706
0.0114763
0.0137941
0.0166803
0.0198214
0.0222218
0.0232072
0.0230055
0.0203669
0.0161123
0.0112762
0.00692991
0.0037395
0.00184808
0.00103543
0.0015342
0.00641809
0.00339648
0.00325887
0.00354365
0.00397124
0.00449783
0.0051178
0.00581253
0.00653383
0.00720384
0.00770234
0.00792334
0.00796565
0.0076941
0.00716247
0.00651513
0.00585254
0.00524282
0.00471737
0.00428093
0.00392326
0.00363296
0.00339873
0.00321092
0.00306203
0.00294554
0.00285624
0.00278958
0.00274158
0.00270873
0.00268932
0.0026804
0.00267772
0.00267983
0.00268878
0.0027023
0.00272002
0.00274167
0.00276751
0.0027978
0.00283315
0.00287425
0.00292196
0.00297733
0.0030415
0.00311579
0.00320165
0.00330072
0.00341474
0.00354559
0.00369521
0.00386553
0.00405836
0.00427525
0.00451727
0.00478486
0.0050777
0.00539483
0.00573522
0.00609918
0.0064912
0.00692379
0.0074125
0.00799199
0.00874605
0.00983981
0.0115634
0.0140831
0.0173577
0.021007
0.023612
0.0245758
0.0238552
0.0202603
0.0150753
0.00973674
0.00543645
0.00268978
0.00142065
0.00199714
0.00770134
0.00400993
0.0038252
0.00413753
0.00460252
0.00515343
0.00576918
0.00641444
0.00702579
0.00750132
0.00772074
0.00776505
0.00751841
0.00701153
0.00636921
0.00569858
0.00507499
0.00453621
0.00408955
0.0037265
0.00343375
0.00319952
0.0030135
0.00286737
0.00275435
0.00266858
0.00260516
0.00255965
0.00252824
0.0025079
0.00249691
0.002492
0.0024906
0.00249264
0.00249908
0.00250822
0.00252039
0.00253575
0.00255483
0.0025782
0.00260665
0.00264104
0.00268237
0.00273175
0.00279043
0.00285977
0.00294133
0.00303686
0.00314827
0.00327769
0.00342738
0.00359973
0.00379709
0.00402164
0.00427508
0.00455835
0.00487124
0.00521211
0.00557783
0.00596414
0.00636706
0.00678755
0.00723644
0.00772961
0.00829969
0.00904057
0.0101305
0.0118961
0.0146615
0.018374
0.0225344
0.0250729
0.0258291
0.0241444
0.0192904
0.0132041
0.00769739
0.00387202
0.00198092
0.00261467
0.00903282
0.00465052
0.0044084
0.0047366
0.00522148
0.0057701
0.00634534
0.00689795
0.00735111
0.0075723
0.0076161
0.00740614
0.00693001
0.00630063
0.00562192
0.00497958
0.00442011
0.00395644
0.00358154
0.00328175
0.00304364
0.00285618
0.00271015
0.00259802
0.00251342
0.00245084
0.00240545
0.00237308
0.00235047
0.002335
0.00232457
0.00231725
0.00231245
0.00231025
0.00230972
0.00231141
0.00231584
0.00232324
0.00233454
0.00235036
0.00237157
0.00239903
0.00243376
0.00247681
0.00252939
0.00259285
0.00266873
0.0027588
0.00286507
0.00298985
0.00313573
0.00330555
0.00350232
0.00372908
0.00398861
0.00428308
0.0046135
0.00497915
0.00537703
0.00580156
0.00624478
0.00669797
0.00715717
0.00763193
0.00813846
0.00871509
0.00946227
0.0105861
0.0124775
0.0155812
0.0198331
0.0243639
0.026507
0.026848
0.0235127
0.0172311
0.0105535
0.00543979
0.00273165
0.00335069
0.0103667
0.00530127
0.00499164
0.00532149
0.00580665
0.0063261
0.0068281
0.00725409
0.00747905
0.00752166
0.00735496
0.00691556
0.0063047
0.00562066
0.00495531
0.00436758
0.00387851
0.00348452
0.00317171
0.00292527
0.00273262
0.00258359
0.0024697
0.00238385
0.00231996
0.00227272
0.00223765
0.00221121
0.0021907
0.00217404
0.00215981
0.00214714
0.00213589
0.00212612
0.00211791
0.00211233
0.00210989
0.00210959
0.00211398
0.00212333
0.00213845
0.00216004
0.002189
0.0022263
0.002273
0.00233035
0.0023998
0.00248305
0.00258212
0.00269941
0.00283768
0.00300016
0.00319043
0.00341238
0.00366998
0.00396693
0.00430612
0.00468887
0.00511403
0.00557704
0.00606933
0.00657841
0.00708972
0.00759363
0.0080993
0.00862418
0.00921354
0.00999196
0.0111977
0.0133233
0.0169031
0.0218455
0.0263378
0.0280066
0.0271518
0.0215953
0.0140268
0.00744523
0.00368885
0.00416083
0.0116718
0.00594562
0.00555788
0.00587395
0.00633957
0.00680508
0.00720577
0.00743368
0.00748307
0.0073604
0.00696482
0.00637907
0.0056935
0.00500345
0.00437996
0.00385616
0.00343424
0.00310129
0.00284097
0.0026389
0.00248341
0.00236499
0.00227562
0.00220857
0.00215803
0.00211914
0.00208813
0.00206219
0.00203931
0.00201815
0.00199802
0.00197876
0.00196058
0.00194385
0.0019291
0.00191702
0.00190828
0.0019041
0.00190315
0.00190748
0.00191821
0.00193538
0.00195981
0.00199227
0.0020337
0.00208518
0.00214802
0.00222381
0.00231447
0.00242235
0.0025503
0.0027017
0.00288052
0.0030913
0.00333902
0.00362887
0.00396578
0.00435365
0.00479431
0.00528618
0.00582283
0.00639185
0.00697467
0.00754866
0.00809563
0.00862191
0.00916215
0.00979098
0.0106241
0.0119807
0.0144908
0.0186861
0.0243746
0.0282604
0.0292178
0.0258914
0.0180804
0.00995344
0.00487378
0.00499605
0.012909
0.0065682
0.00609191
0.0063784
0.00680616
0.00719756
0.00744589
0.00751793
0.0074116
0.00707249
0.00652075
0.00584012
0.00512632
0.00446134
0.00389275
0.00343251
0.00307059
0.00278964
0.00257307
0.00240729
0.00228135
0.00218624
0.00211436
0.00205938
0.00201601
0.00198016
0.00194888
0.00192015
0.00189271
0.00186595
0.00183979
0.0018145
0.00179055
0.00176852
0.00174902
0.0017327
0.00172009
0.00171263
0.00170971
0.00171033
0.00171819
0.00173228
0.00175329
0.00178185
0.00181871
0.00186482
0.00192132
0.00198963
0.00207153
0.00216925
0.00228552
0.00242373
0.00258797
0.00278313
0.00301486
0.00328953
0.00361382
0.00399419
0.00443584
0.00494127
0.00550839
0.00612839
0.00678412
0.00744969
0.0080934
0.00868949
0.00922802
0.00976619
0.0104437
0.0113697
0.0129887
0.016138
0.0212274
0.027312
0.0299874
0.029494
0.0225386
0.0130391
0.0062997
0.00586897
0.0140451
0.0071547
0.00658067
0.00682279
0.00719729
0.00747846
0.00758218
0.00750774
0.0072366
0.00672438
0.00605911
0.00532663
0.00461738
0.00399466
0.00348422
0.00308249
0.00277242
0.00253509
0.00235443
0.00221765
0.00211439
0.00203607
0.00197562
0.00192728
0.00188657
0.00185029
0.00181632
0.00178344
0.00175106
0.00171915
0.00168805
0.00165826
0.00163039
0.00160506
0.00158286
0.0015643
0.00154989
0.00154057
0.0015364
0.00153564
0.00154141
0.00155343
0.00157186
0.00159725
0.00163022
0.00167154
0.00172222
0.0017835
0.00185697
0.00194467
0.00204914
0.0021736
0.00232204
0.00249939
0.00271161
0.00296571
0.00326966
0.003632
0.00406104
0.00456352
0.00514258
0.00579511
0.00650879
0.00725959
0.00801119
0.00871939
0.00937168
0.00990693
0.0104355
0.0111751
0.0122611
0.0143282
0.0183752
0.0246756
0.0300809
0.0314998
0.0270525
0.0167623
0.00800367
0.00675376
0.0150794
0.00769524
0.00701407
0.00719729
0.0075033
0.00765641
0.00765125
0.00743432
0.00698338
0.00634584
0.00560548
0.0048542
0.00417045
0.00359746
0.00314292
0.00279292
0.00252681
0.00232558
0.00217391
0.00205968
0.00197306
0.00190606
0.00185226
0.00180669
0.00176579
0.00172725
0.00168976
0.00165274
0.00161617
0.0015804
0.00154596
0.00151347
0.00148353
0.00145669
0.00143342
0.00141414
0.00139919
0.00138916
0.00138444
0.00138324
0.00138766
0.00139817
0.00141458
0.00143733
0.00146693
0.00150403
0.0015495
0.00160442
0.00167019
0.00174861
0.00184199
0.00195328
0.00208621
0.00224551
0.00243706
0.0026681
0.00294726
0.00328448
0.00369052
0.0041759
0.00474913
0.00541386
0.00616523
0.00698579
0.00784224
0.00868472
0.00945371
0.0101287
0.0106511
0.0111691
0.0120017
0.0133802
0.016237
0.0215331
0.0288677
0.0323027
0.0310685
0.0211266
0.0100798
0.00770811
0.0159657
0.00817943
0.00738559
0.0074995
0.00770936
0.0077704
0.00763587
0.0072773
0.00669098
0.00595971
0.00517611
0.00442964
0.00378317
0.00326121
0.00285772
0.00255236
0.00232308
0.00215134
0.00202258
0.00192534
0.00185039
0.00179044
0.00173987
0.00169464
0.0016521
0.00161076
0.00156995
0.00152964
0.00149015
0.00145201
0.00141584
0.00138222
0.00135166
0.00132461
0.0013014
0.00128229
0.00126752
0.00125744
0.00125259
0.00125123
0.00125473
0.00126401
0.0012787
0.00129915
0.00132578
0.00135916
0.00140003
0.00144932
0.00150826
0.00157843
0.00166187
0.00176122
0.00187986
0.00202216
0.0021937
0.00240152
0.00265437
0.00296287
0.00333934
0.00379721
0.00434964
0.00500693
0.00577265
0.00663856
0.00757909
0.0085473
0.00947562
0.0103076
0.010955
0.0114471
0.0119723
0.012976
0.0148828
0.0190309
0.0261158
0.0324566
0.0338437
0.0260107
0.0126857
0.00887651
0.0166947
0.00860164
0.00769051
0.00772393
0.00783879
0.00781413
0.00756946
0.00706983
0.00637827
0.00558207
0.00478004
0.00405396
0.0034501
0.00297695
0.00261867
0.00235131
0.00215254
0.00200455
0.00189353
0.00180869
0.00174152
0.00168555
0.00163605
0.00158991
0.0015453
0.00150141
0.00145809
0.00141562
0.00137453
0.00133539
0.00129877
0.00126517
0.00123498
0.00120849
0.00118594
0.00116745
0.00115316
0.00114325
0.0011384
0.00113692
0.00113965
0.0011478
0.00116091
0.00117927
0.00120324
0.00123331
0.00127013
0.0013145
0.0013675
0.00143049
0.00150527
0.00159415
0.00170015
0.00182721
0.00198043
0.00216641
0.00239362
0.0026727
0.00301669
0.00344088
0.00396195
0.00459603
0.00535508
0.00624146
0.00724082
0.00831476
0.00939585
0.0103909
0.0112409
0.0118311
0.0122694
0.0128833
0.014226
0.0171386
0.023162
0.0316066
0.0352053
0.0310763
0.0159803
0.0104031
0.0172631
0.00896193
0.00792159
0.00787349
0.00791122
0.00779363
0.00743582
0.00683175
0.00606022
0.00522337
0.00442121
0.00372484
0.00316467
0.00273634
0.00241736
0.002182
0.00200828
0.00187916
0.00178161
0.00170555
0.00164331
0.00158929
0.00153969
0.00149222
0.00144576
0.00139999
0.00135513
0.00131163
0.00127005
0.00123094
0.00119477
0.00116191
0.00113261
0.00110705
0.00108537
0.00106761
0.00105383
0.00104408
0.00103913
0.0010375
0.00103944
0.00104645
0.00105805
0.00107446
0.001096
0.00112312
0.00115636
0.00119645
0.0012443
0.00130113
0.00136847
0.00144837
0.00154348
0.00165726
0.00179432
0.00196068
0.00216422
0.00241518
0.0027266
0.00311459
0.00359809
0.00419771
0.00493281
0.00581635
0.00684724
0.00800076
0.00921941
0.0104084
0.0114628
0.0122322
0.0127102
0.0131049
0.0140012
0.0159757
0.0207157
0.0293759
0.0357116
0.0355916
0.0200567
0.0122833
0.0176647
0.0092598
0.00808597
0.00795508
0.00791593
0.00772603
0.00726483
0.00657653
0.0057477
0.00488973
0.00410017
0.00343825
0.00292028
0.00253205
0.00224685
0.00203824
0.00188489
0.0017706
0.00168309
0.0016131
0.00155384
0.00150059
0.0014504
0.0014017
0.00135391
0.00130708
0.00126159
0.00121796
0.00117672
0.00113832
0.00110311
0.00107132
0.0010431
0.00101856
0.000997716
0.000980593
0.000967191
0.000957539
0.000952304
0.000950419
0.000951501
0.000957342
0.000967457
0.000982025
0.00100134
0.00102579
0.00105586
0.0010922
0.00113562
0.00118716
0.00124819
0.00132046
0.00140629
0.00150874
0.00163186
0.00178107
0.00196354
0.00218882
0.00246942
0.00282146
0.00326495
0.00382345
0.00452213
0.00538349
0.00641977
0.00762208
0.00894759
0.0103086
0.0115715
0.0126061
0.0132282
0.0135561
0.0140028
0.0154267
0.0188695
0.0263885
0.0358333
0.0385649
0.0251871
0.0143365
0.0179058
0.00949775
0.00819202
0.00797587
0.00788147
0.00760379
0.00706665
0.00631463
0.00544811
0.00458412
0.00381545
0.00318954
0.00271086
0.00235794
0.0021015
0.00191512
0.00177824
0.00167546
0.00159536
0.0015295
0.00147197
0.0014189
0.00136809
0.00131853
0.00127004
0.00122287
0.00117748
0.00113438
0.001094
0.00105667
0.00102262
0.000991992
0.00096485
0.000941213
0.000921073
0.000904416
0.000891224
0.000881501
0.000875797
0.000873558
0.000873752
0.000878378
0.000887037
0.000899859
0.000917109
0.000939138
0.000966397
0.000999452
0.00103903
0.00108604
0.00114168
0.00120749
0.00128549
0.00137834
0.00148962
0.00162411
0.00178826
0.00199077
0.00224333
0.00256145
0.00296525
0.00347983
0.0041344
0.0049593
0.00597934
0.00720266
0.00860565
0.0101164
0.0116029
0.0129129
0.013758
0.014164
0.0144395
0.0152515
0.0176607
0.0238159
0.0347275
0.0402371
0.0310499
0.0166239
0.0179541
0.00967566
0.00824953
0.007956
0.00779726
0.00744884
0.00685134
0.00605399
0.00516613
0.00430738
0.00356447
0.00297407
0.00253108
0.00220888
0.00197681
0.00180882
0.00168516
0.0015913
0.00151662
0.00145357
0.00139705
0.00134397
0.00129273
0.00124277
0.00119414
0.00114721
0.00110245
0.00106026
0.00102099
0.000984865
0.000952008
0.000922476
0.000896272
0.000873376
0.000853755
0.000837381
0.000824238
0.000814325
0.000807963
0.000805124
0.000804651
0.000807983
0.000815222
0.000826392
0.000841729
0.000861559
0.000886293
0.000916447
0.000952669
0.00099578
0.00104683
0.00110716
0.00117854
0.00126331
0.00136459
0.00148658
0.00163502
0.00181774
0.00204543
0.00233265
0.0026989
0.00316961
0.00377636
0.00455522
0.00554166
0.00676018
0.00820814
0.00983553
0.0115262
0.0130939
0.014262
0.0147952
0.0150083
0.0153732
0.0170699
0.0219568
0.0324012
0.0409476
0.037028
0.0189793
0.0178917
0.00980149
0.00825714
0.00789789
0.00767079
0.00726904
0.00662689
0.00580034
0.00490443
0.00405893
0.00334419
0.00278751
0.0023764
0.00208072
0.0018692
0.00171636
0.0016033
0.00151632
0.00144564
0.00138452
0.00132866
0.00127559
0.00122422
0.00117427
0.00112596
0.00107968
0.00103584
0.000994765
0.000956694
0.000921753
0.000889993
0.000861411
0.000835973
0.000813634
0.000794353
0.000778099
0.000764864
0.000754659
0.000747534
0.000743972
0.000742937
0.000744999
0.00075087
0.000760488
0.000774056
0.000791877
0.000814333
0.000841902
0.000875173
0.000914887
0.000961978
0.00101764
0.00108343
0.00116138
0.00125424
0.00136569
0.00150079
0.00166651
0.00187254
0.00213226
0.0024641
0.00289297
0.0034513
0.00417893
0.00511974
0.00631297
0.00777709
0.00948643
0.0113444
0.0131624
0.0147182
0.0154825
0.0157449
0.0158769
0.0168506
0.0204037
0.0298752
0.0411412
0.0422279
0.021113
0.0177253
0.00989054
0.0082382
0.00779763
0.00751642
0.00707227
0.00639953
0.0055576
0.00466416
0.00383739
0.00315146
0.00262602
0.00224303
0.0019701
0.00177583
0.00163545
0.00153088
0.00144923
0.00138153
0.00132181
0.00126645
0.00121354
0.00116232
0.00111273
0.00106506
0.00101967
0.000976899
0.000936989
0.000900079
0.000866224
0.000835417
0.000807618
0.000782772
0.000760826
0.000741735
0.000725475
0.000712037
0.000701436
0.0006937
0.000689309
0.000687708
0.000688595
0.000693172
0.000701341
0.000713277
0.000729259
0.000749648
0.000774891
0.000805534
0.000842256
0.000885904
0.000937549
0.000998568
0.00107076
0.00115652
0.00125909
0.00138292
0.00153419
0.00172155
0.0019572
0.00225822
0.00264837
0.00315985
0.00383439
0.0047219
0.00587405
0.00732959
0.00909011
0.0110895
0.013166
0.0150549
0.0161658
0.0165123
0.016536
0.0168748
0.0194563
0.0272936
0.0409957
0.0460387
0.0227993
0.01746
0.00994929
0.00818955
0.00767215
0.00734183
0.00686517
0.00617408
0.00532827
0.00444543
0.00364092
0.0029833
0.00248623
0.00212781
0.00187427
0.00169445
0.0015643
0.00146653
0.00138904
0.00132362
0.001265
0.00121012
0.00115752
0.00110669
0.00105771
0.00101087
0.000966489
0.000924826
0.000886038
0.000850193
0.000817289
0.000787282
0.00076011
0.000735711
0.000714029
0.000695027
0.000678685
0.000665002
0.000653998
0.00064571
0.000640488
0.000638293
0.000638189
0.000641552
0.000648382
0.000658816
0.000673113
0.000691615
0.000714744
0.000743017
0.000777067
0.000817676
0.000865818
0.00092273
0.000990013
0.00106978
0.00116487
0.0012792
0.00141824
0.00158967
0.00180449
0.00207833
0.00243347
0.00290101
0.0035231
0.00435342
0.00545335
0.0068796
0.00865977
0.0107569
0.0130326
0.0152339
0.0168059
0.0173766
0.0174019
0.0173973
0.019016
0.025391
0.0395274
0.0482218
0.0237561
0.0170959
0.00997837
0.00811288
0.00752705
0.00715356
0.00665319
0.0059541
0.00511379
0.0042477
0.00346749
0.00283693
0.00236529
0.00202812
0.00179104
0.00162328
0.00150152
0.00140922
0.00133502
0.00127139
0.00121368
0.00115933
0.00110717
0.00105692
0.0010087
0.000962786
0.000919441
0.000878849
0.000841096
0.000806194
0.000774102
0.000744757
0.000718085
0.000694023
0.000672523
0.000653553
0.000637103
0.00062318
0.000611813
0.000603052
0.000597024
0.000594079
0.000593363
0.000595586
0.000601192
0.000610255
0.000623009
0.000639781
0.000660973
0.000687081
0.000718709
0.000756591
0.000801631
0.000854959
0.000918015
0.000992678
0.00108146
0.0011878
0.00131651
0.00147443
0.00167137
0.00192155
0.00224552
0.0026728
0.00324478
0.00401694
0.00505772
0.00643939
0.00821559
0.0103826
0.0128306
0.0153058
0.0173624
0.0182345
0.0183117
0.0180574
0.0188787
0.0240021
0.0376574
0.0491871
0.0241577
0.0166615
0.00997963
0.00801976
0.00736864
0.00695726
0.00644069
0.00574216
0.0049148
0.00406997
0.00331506
0.00270987
0.00226076
0.00194184
0.00171862
0.00156089
0.001446
0.00135811
0.00128654
0.00122437
0.00116748
0.0011137
0.00106211
0.00101255
0.000965164
0.000920201
0.000877861
0.000838262
0.000801438
0.000767357
0.000735958
0.000707162
0.000680897
0.000657104
0.000635741
0.000616786
0.000600237
0.000586106
0.000574423
0.000565233
0.000558597
0.000554932
0.000553699
0.000554935
0.000559444
0.000567265
0.000578612
0.000593793
0.000613199
0.000637311
0.000666712
0.000702107
0.000744352
0.000794501
0.000853871
0.000924152
0.00100758
0.00110719
0.00122722
0.00137371
0.00155543
0.00178516
0.00208174
0.00247274
0.00299801
0.00371318
0.0046911
0.00601645
0.00776662
0.00997303
0.0125653
0.0153138
0.0178177
0.019116
0.0193514
0.0189118
0.0190179
0.022872
0.0357069
0.0494292
0.0242649
0.0161729
0.00997263
0.00791717
0.00720262
0.0067577
0.00623113
0.00553998
0.00473137
0.00391101
0.00318165
0.00259996
0.00217058
0.00186718
0.00165557
0.00150611
0.00139683
0.00131252
0.00124309
0.00118215
0.00112603
0.00107286
0.00102191
0.000973099
0.000926574
0.000882539
0.000841142
0.000802446
0.000766444
0.000733079
0.000702274
0.000673946
0.000648029
0.000624468
0.000603233
0.000584308
0.000567696
0.000553413
0.000541486
0.000531956
0.000524871
0.000520573
0.000518886
0.000519306
0.000522851
0.000529562
0.000539631
0.000553353
0.000571107
0.000593363
0.000620694
0.000653787
0.000693473
0.000740753
0.000796856
0.000863327
0.000942175
0.00103609
0.00114883
0.00128572
0.00145453
0.00166675
0.00193948
0.00229824
0.00278076
0.00344161
0.00435579
0.00561723
0.00732414
0.00954224
0.0122438
0.0152376
0.0181232
0.0199452
0.0204418
0.019888
0.0195737
0.0221638
0.0336874
0.0490557
0.0242443
0.0156371
0.00995544
0.00781001
0.00703384
0.00655885
0.00602715
0.0053487
0.00456317
0.00376946
0.00306543
0.00250528
0.00209305
0.0018027
0.00160068
0.001458
0.00135329
0.00127189
0.00120421
0.00114434
0.00108895
0.00103642
0.000986157
0.000938114
0.000892434
0.000849279
0.000808748
0.000770866
0.000735593
0.000702857
0.000672573
0.000644662
0.000619061
0.000595727
0.000574634
0.000555774
0.000539155
0.000524792
0.000512712
0.000502949
0.000495547
0.000490728
0.000488607
0.000488429
0.000491135
0.000496864
0.000505784
0.000518173
0.000534399
0.000554925
0.000580317
0.000611258
0.000648566
0.000693214
0.000746374
0.000809488
0.000884384
0.000973476
0.00108008
0.00120891
0.00136685
0.00156417
0.00181632
0.0021467
0.00259066
0.00320076
0.00405229
0.00524538
0.00689554
0.00910096
0.0118787
0.0150811
0.0183343
0.0207138
0.0215146
0.0210521
0.0202737
0.0218279
0.0318133
0.04792
0.0239471
0.0150886
0.00993409
0.00770293
0.0068664
0.00636392
0.00583075
0.00516893
0.00440962
0.00364398
0.00296472
0.0024242
0.00202672
0.00174721
0.001553
0.0014158
0.00131477
0.00123572
0.0011695
0.00111057
0.00105588
0.00100401
0.000954444
0.000907164
0.000862293
0.000819957
0.000780218
0.000743067
0.000708447
0.000676275
0.000646465
0.000618942
0.00059365
0.000570554
0.000549635
0.00053089
0.000514329
0.000499966
0.000487824
0.000477934
0.000470332
0.000465106
0.000462553
0.000461997
0.000463997
0.000468872
0.000476771
0.000487951
0.00050277
0.000521683
0.000545256
0.000574172
0.000609248
0.00065145
0.00070192
0.00076203
0.000833478
0.000918449
0.0010199
0.00114199
0.00129084
0.00147556
0.00171007
0.0020157
0.00242526
0.00298873
0.00378021