/*--------------------------------*- C++ -*----------------------------------*\
  =========                 |
  \\      /  F ield         | OpenFOAM: The Open Source CFD Toolbox
   \\    /   O peration     | Website:  https://openfoam.org
    \\  /    A nd           | Version:  13
     \\/     M anipulation  |
\*---------------------------------------------------------------------------*/
FoamFile
{
    format      ascii;
    class       volScalarField;
    location    "3";
    object      k;
}
// * * * * * * * * * * * * * * * * * * * * * * * * * * * * * * * * * * * * * //

dimensions      [0 2 -2 0 0 0 0];

internalField   nonuniform List<scalar> 
6400
(
4.35634e-07
2.20536e-06
5.12487e-06
8.19264e-06
1.07683e-05
1.26698e-05
1.40236e-05
1.50928e-05
1.61533e-05
1.74334e-05
1.91371e-05
2.1365e-05
2.41967e-05
2.76734e-05
3.17882e-05
3.64944e-05
4.17122e-05
4.73136e-05
5.31414e-05
5.90674e-05
6.51109e-05
7.15719e-05
7.90077e-05
8.78526e-05
9.81979e-05
0.000109553
0.00012108
0.000132696
0.000144598
0.00015705
0.000170162
0.000183746
0.000197085
0.000210209
0.000223012
0.000235767
0.000248583
0.000261677
0.000275197
0.000289311
0.000304143
0.000319795
0.000336412
0.000354125
0.000372875
0.000392705
0.00041378
0.000436839
0.000463299
0.000496667
0.000530078
0.000564232
0.00059772
0.000630034
0.00066005
0.000686593
0.000708305
0.000722403
0.000729192
0.000731285
0.00072151
0.000699447
0.000665434
0.000620373
0.000565152
0.000502029
0.000433622
0.000363972
0.000296254
0.000232227
0.000174609
0.000129047
9.15848e-05
6.21281e-05
4.03514e-05
2.50867e-05
1.48709e-05
8.2094e-06
3.69048e-06
7.71147e-07
2.12571e-06
1.78365e-05
4.1633e-05
6.49864e-05
8.40585e-05
9.82985e-05
0.000108888
0.000117579
0.000126137
0.000136075
0.000148627
0.00016476
0.000185061
0.000209678
0.000238429
0.000270911
0.000306576
0.000344638
0.000384208
0.000424617
0.000466066
0.000510174
0.000559959
0.000617624
0.000683197
0.000753576
0.000824218
0.00089408
0.000963142
0.00103191
0.00110013
0.00116688
0.00122884
0.00128645
0.00133929
0.00138885
0.00143576
0.00148117
0.00152588
0.00157077
0.00161654
0.00166372
0.00171298
0.00176475
0.00181885
0.00187513
0.00193328
0.00199329
0.0020536
0.00211278
0.00217588
0.0022401
0.00230539
0.00236906
0.0024295
0.00248376
0.00252908
0.00255713
0.00256787
0.00256711
0.00254032
0.0024836
0.00239532
0.00227604
0.00212643
0.0019487
0.00175099
0.00154213
0.0013272
0.0011145
0.000911946
0.000718676
0.000545257
0.000397303
0.000277425
0.000184428
0.000115726
6.69075e-05
3.0699e-05
4.00423e-06
4.68138e-06
3.92481e-05
8.76979e-05
0.000129973
0.000162307
0.000186454
0.000205586
0.000222935
0.000241445
0.000263635
0.000291612
0.000326869
0.000370293
0.000422124
0.000482094
0.000549586
0.000623693
0.000703152
0.000786482
0.000872157
0.000958818
0.00104524
0.00113054
0.00121284
0.00128895
0.00135589
0.00141284
0.00145933
0.00149703
0.00152941
0.00155896
0.00158781
0.00161716
0.0016475
0.00167802
0.00171022
0.00174439
0.00178127
0.00182121
0.00186465
0.00191199
0.00196318
0.00201842
0.00207766
0.00214098
0.00220846
0.00228016
0.00235572
0.0024346
0.00251714
0.00260309
0.00269102
0.00277989
0.00286773
0.00295246
0.00303124
0.00310075
0.00315708
0.00319205
0.00320492
0.0031983
0.00315714
0.00307838
0.00296083
0.00280349
0.00260584
0.00237722
0.00212773
0.00186413
0.00159711
0.00133676
0.00109104
0.000866782
0.000669174
0.00050089
0.000361933
0.000249884
0.000158562
7.72724e-05
1.01528e-05
8.01017e-06
6.54151e-05
0.000137591
0.000194918
0.00023764
0.000270637
0.000298844
0.00032668
0.000358038
0.000396233
0.000443898
0.000502733
0.000573392
0.000655487
0.000747785
0.000848339
0.000954478
0.00106294
0.00117006
0.001272
0.00136542
0.00144737
0.0015156
0.00156944
0.001608
0.00163193
0.00164533
0.0016534
0.00166184
0.0016722
0.00168442
0.00169938
0.00171592
0.00173591
0.00175954
0.0017869
0.00181812
0.00185338
0.00189275
0.00193613
0.00198373
0.0020355
0.00209156
0.00215192
0.00221659
0.00228547
0.00235828
0.00243537
0.00251686
0.00260247
0.00269171
0.00278368
0.00287736
0.00297121
0.0030633
0.00315099
0.00323108
0.00329974
0.00335257
0.00337937
0.00338646
0.00336526
0.00331221
0.00322087
0.00308698
0.00290719
0.00268308
0.00242741
0.0021496
0.00186143
0.00157506
0.00130164
0.00105022
0.000826852
0.000634632
0.000473762
0.000340993
0.000228305
0.000118591
1.61254e-05
1.2404e-05
9.81596e-05
0.000194309
0.000266083
0.00031925
0.000361813
0.000400439
0.000440791
0.000487726
0.000545204
0.000615993
0.000701295
0.0008006
0.000911787
0.00103141
0.00115499
0.00127725
0.00139247
0.00149518
0.00158037
0.0016462
0.00169033
0.00171101
0.00171724
0.00171375
0.00170324
0.0016947
0.00168878
0.00168636
0.00168611
0.00169141
0.00170075
0.00171419
0.00173166
0.00175273
0.00177739
0.00180561
0.00183723
0.00187203
0.00191005
0.00195125
0.00199563
0.00204326
0.00209423
0.00214875
0.00220708
0.00226965
0.00233648
0.00240764
0.00248313
0.00256288
0.00264658
0.00273375
0.00282361
0.00291506
0.00300644
0.00309529
0.0031786
0.00325259
0.00331234
0.00334683
0.00335797
0.00333573
0.00327557
0.00317315
0.00303696
0.00284567
0.00260792
0.00233538
0.00204072
0.00173856
0.00144378
0.00116943
0.000924637
0.000714123
0.00053837
0.000393572
0.000269829
0.000145409
2.00015e-05
1.82521e-05
0.000139343
0.000260781
0.000347669
0.000412268
0.000465641
0.000516242
0.000571039
0.000635735
0.000714496
0.000809451
0.000920288
0.00104421
0.0011763
0.00131013
0.00143839
0.00155364
0.00164898
0.00172083
0.001761
0.00177534
0.00177508
0.00175398
0.00173254
0.0017125
0.00169529
0.00168107
0.00167074
0.00166527
0.00166332
0.001665
0.00167102
0.00168027
0.00169259
0.00170752
0.00172513
0.00174516
0.00176727
0.00179144
0.00181769
0.00184604
0.00187661
0.00190953
0.001945
0.0019833
0.0020247
0.00206949
0.00211784
0.0021702
0.00222696
0.00228853
0.0023553
0.00242748
0.00250508
0.00258782
0.00267515
0.00276609
0.00285871
0.00295073
0.00303807
0.00311576
0.0031763
0.00320504
0.00320984
0.0031683
0.00307892
0.00294738
0.00274872
0.00249879
0.00220897
0.00189583
0.00157877
0.00127674
0.00100466
0.000771201
0.000578259
0.000421567
0.000289513
0.000157962
2.1524e-05
2.5935e-05
0.000190211
0.000338664
0.000441722
0.000518883
0.000584219
0.000648021
0.000718456
0.00080167
0.00090128
0.00101778
0.00114831
0.00128695
0.00142564
0.00155524
0.00166686
0.00175337
0.00180428
0.00182299
0.00182183
0.00179609
0.00176853
0.00173722
0.00170795
0.00168063
0.0016557
0.00163599
0.00162164
0.001612
0.00160679
0.00160474
0.00160467
0.00160819
0.00161385
0.00162186
0.0016316
0.0016429
0.00165554
0.00166956
0.00168492
0.00170155
0.00171958
0.00173914
0.00176038
0.00178351
0.00180876
0.00183645
0.00186695
0.00190078
0.00193852
0.00198081
0.00202838
0.00208216
0.00214307
0.00221189
0.0022893
0.00237574
0.00247064
0.00257246
0.0026795
0.0027887
0.0028945
0.00298909
0.0030567
0.00308461
0.00307678
0.00300773
0.00288188
0.00267579
0.00240661
0.00209058
0.00175091
0.00141374
0.00110281
0.000834432
0.000614799
0.000440115
0.000297276
0.000160799
2.14065e-05
3.57845e-05
0.000251359
0.000428556
0.000548893
0.000639506
0.000717468
0.000794856
0.000880725
0.000981016
0.0010979
0.00122934
0.00136928
0.00150865
0.00163687
0.0017436
0.00181924
0.00185431
0.00186145
0.00184071
0.00181011
0.00177046
0.00172837
0.00168384
0.00164608
0.00161341
0.00158743
0.0015672
0.00155157
0.00153984
0.0015314
0.00152563
0.00152278
0.00152183
0.00152214
0.00152468
0.00152844
0.00153345
0.00153949
0.00154651
0.00155451
0.00156349
0.0015735
0.00158461
0.00159696
0.00161071
0.00162607
0.00164331
0.00166273
0.00168472
0.0017098
0.00173851
0.0017715
0.00180959
0.00185373
0.00190515
0.00196533
0.00203598
0.00211923
0.00221582
0.00232416
0.00244525
0.00257558
0.00270933
0.00283908
0.00295052
0.00300975
0.00302453
0.00297934
0.00285872
0.00263587
0.00233627
0.00198345
0.00160956
0.00124893
0.000929981
0.000668332
0.000464109
0.000303707
0.000160412
2.08551e-05
4.80308e-05
0.000322674
0.000530201
0.000668693
0.000773151
0.000863605
0.000953712
0.00105295
0.00116633
0.00129383
0.00143039
0.0015669
0.00169198
0.00179428
0.00185882
0.00188341
0.00188237
0.00185369
0.00181352
0.00176141
0.00170353
0.00165086
0.00160615
0.00156868
0.00153736
0.0015121
0.00149162
0.00147512
0.00146203
0.0014519
0.00144435
0.00143916
0.00143613
0.00143483
0.00143462
0.00143608
0.00143876
0.00144254
0.00144729
0.00145298
0.00145959
0.00146713
0.00147564
0.00148523
0.00149605
0.00150827
0.00152213
0.0015379
0.00155589
0.00157636
0.00159965
0.00162605
0.00165591
0.00168958
0.0017277
0.00177099
0.00182065
0.00187878
0.0019486
0.00203598
0.00214255
0.0022705
0.00241368
0.0025721
0.00273422
0.00288458
0.00297937
0.00301165
0.00298637
0.00286417
0.0026135
0.00227239
0.00187421
0.00146243
0.00108018
0.000758467
0.000508013
0.00031816
0.000161678
2.08413e-05
6.28035e-05
0.000403023
0.000642436
0.000799638
0.000917661
0.00101943
0.00111991
0.00122849
0.00134868
0.00147787
0.00160811
0.00172804
0.00182556
0.00188314
0.00190255
0.00189298
0.00186262
0.00181075
0.00174399
0.00167747
0.00161839
0.00156758
0.00152507
0.00148956
0.00146004
0.00143581
0.0014159
0.00139977
0.00138701
0.00137728
0.00137025
0.00136579
0.00136368
0.00136303
0.00136376
0.00136639
0.00137014
0.00137499
0.00138077
0.00138742
0.00139491
0.00140323
0.00141243
0.0014226
0.00143387
0.0014464
0.00146037
0.00147601
0.00149351
0.00151307
0.0015349
0.0015592
0.00158611
0.00161568
0.00164814
0.00168364
0.00172247
0.0017656
0.0018145
0.00187145
0.00194037
0.00202819
0.00214823
0.00229919
0.00247396
0.0026659
0.00285253
0.00298094
0.00302805
0.00301339
0.00287758
0.00258694
0.00219392
0.00174539
0.00129814
0.000902248
0.000586456
0.000350177
0.000169024
2.16851e-05
8.09502e-05
0.000489886
0.000763471
0.00093938
0.00106988
0.00118069
0.00128777
0.00140004
0.00151922
0.00164021
0.00175294
0.00184521
0.001898
0.00191424
0.0019005
0.00186585
0.00180377
0.00172742
0.00165473
0.00158881
0.00153264
0.00148535
0.00144594
0.0014131
0.00138593
0.00136373
0.00134585
0.00133188
0.00132146
0.00131422
0.00131033
0.00130879
0.00130863
0.00131073
0.00131435
0.00131938
0.00132538
0.00133228
0.00133993
0.00134827
0.00135727
0.00136698
0.00137744
0.00138877
0.0014011
0.00141457
0.00142938
0.00144569
0.0014637
0.0014836
0.00150556
0.00152975
0.0015563
0.00158537
0.00161672
0.00165017
0.00168534
0.00172236
0.00176169
0.00180385
0.00185116
0.00190762
0.00197989
0.00207801
0.00222247
0.00241015
0.00262546
0.00284698
0.00300346
0.00306088
0.00304432
0.00287814
0.00253337
0.00207926
0.00158119
0.00110807
0.00071203
0.000411862
0.000189222
2.42901e-05
0.000102002
0.000583063
0.000891134
0.0010849
0.00122597
0.00134256
0.00145139
0.00156069
0.00167051
0.0017739
0.00185988
0.00190934
0.00192398
0.00190868
0.0018692
0.00179954
0.00171682
0.00163641
0.00156464
0.00150271
0.00145094
0.00140779
0.00137205
0.00134263
0.0013188
0.00129996
0.00128559
0.00127529
0.00126892
0.00126598
0.00126518
0.00126636
0.00126964
0.00127453
0.00128057
0.00128752
0.00129514
0.00130334
0.00131203
0.00132122
0.00133093
0.00134124
0.00135227
0.00136416
0.00137708
0.00139123
0.00140681
0.00142403
0.0014431
0.00146422
0.00148754
0.00151318
0.00154116
0.00157142
0.00160381
0.00163814
0.00167425
0.00171109
0.00174812
0.00178508
0.00182284
0.00186329
0.00191036
0.00197031
0.00205474
0.00218119
0.00237359
0.00261041
0.00286282
0.00303775
0.00309781
0.00306354
0.00284477
0.00242905
0.0019098
0.00137053
0.000888919
0.00050989
0.000230231
2.99616e-05
0.000125378
0.000681037
0.0010226
0.0012327
0.00138176
0.00150018
0.00160529
0.00170473
0.00179736
0.00187543
0.00192147
0.00193501
0.00191816
0.00187581
0.0018007
0.00171282
0.0016255
0.00154675
0.00147924
0.00142256
0.00137573
0.00133715
0.00130574
0.0012806
0.0012611
0.00124664
0.00123668
0.00123134
0.0012292
0.00122893
0.0012312
0.00123524
0.00124071
0.00124713
0.00125419
0.00126172
0.00126959
0.00127777
0.00128626
0.00129514
0.00130451
0.00131451
0.0013253
0.00133708
0.00135007
0.00136448
0.00138056
0.00139857
0.00141874
0.00144131
0.00146647
0.00149435
0.001525
0.00155833
0.00159406
0.00163175
0.00167073
0.00171025
0.00174925
0.00178567
0.00182062
0.00185527
0.00189217
0.00193345
0.00198426
0.00205841
0.0021736
0.00236271
0.00261852
0.00289724
0.00307576
0.00312654
0.00305604
0.00275225
0.0022539
0.00167231
0.00111061
0.000644281
0.000291216
3.90026e-05
0.00015045
0.00078153
0.00115468
0.00137905
0.00153309
0.00164908
0.00174495
0.0018281
0.00189701
0.00193837
0.00195041
0.00193156
0.00188772
0.00180922
0.00171701
0.00162309
0.00153699
0.00146289
0.00140101
0.00134999
0.00130842
0.00127487
0.00124839
0.00122816
0.0012135
0.00120379
0.00119902
0.00119734
0.00119732
0.00119992
0.00120414
0.00120945
0.00121548
0.0012219
0.00122854
0.00123533
0.00124225
0.00124936
0.00125675
0.00126456
0.00127295
0.00128211
0.00129223
0.00130353
0.00131624
0.00133061
0.0013469
0.00136539
0.00138636
0.0014101
0.00143687
0.0014669
0.00150031
0.00153714
0.00157718
0.00162001
0.00166486
0.00171061
0.00175596
0.00180147
0.00184073
0.00187245
0.00190052
0.00192954
0.00196601
0.00201296
0.00207958
0.00218847
0.00237546
0.00264836
0.00294791
0.00310791
0.00313623
0.00300209
0.00258061
0.00199146
0.00136433
0.000808914
0.000369965
5.10638e-05
0.000176466
0.000882096
0.00128414
0.00152036
0.00167619
0.00178553
0.00186709
0.00192854
0.0019637
0.00197305
0.00195227
0.00190715
0.00182743
0.00173086
0.00163054
0.00153659
0.00145491
0.00138675
0.00133094
0.00128575
0.00124968
0.00122149
0.00120022
0.00118501
0.00117517
0.00117037
0.00116872
0.00116865
0.0011709
0.00117468
0.00117928
0.00118433
0.00118955
0.0011948
0.00120002
0.00120526
0.0012106
0.00121617
0.00122213
0.00122866
0.00123593
0.00124416
0.00125353
0.00126426
0.00127659
0.00129074
0.00130699
0.00132561
0.00134692
0.00137125
0.00139894
0.00143032
0.00146568
0.0015052
0.00154891
0.0015966
0.00164767
0.00170109
0.00175529
0.00180816
0.00185984
0.00190539
0.0019369
0.00195928
0.00197794
0.00200569
0.00205035
0.00211138
0.00221846
0.00241038
0.00270301
0.00300082
0.00313276
0.00311871
0.0028585
0.00230635
0.0016372
0.000995935
0.000461847
6.54402e-05
0.000202528
0.000980202
0.00140794
0.00165342
0.00180796
0.00190683
0.00196987
0.00200099
0.00200758
0.00198539
0.00193627
0.00185679
0.00175623
0.00164926
0.00154692
0.0014565
0.00138073
0.00131895
0.0012693
0.00122997
0.00119951
0.00117668
0.00116046
0.00114982
0.00114449
0.00114243
0.00114207
0.00114348
0.00114637
0.00114989
0.00115363
0.00115736
0.00116096
0.00116443
0.00116784
0.00117131
0.001175
0.00117909
0.00118375
0.00118917
0.00119553
0.00120301
0.0012118
0.00122208
0.00123406
0.00124794
0.00126397
0.00128242
0.00130362
0.00132792
0.00135572
0.00138745
0.00142353
0.00146436
0.00151022
0.0015612
0.00161704
0.00167707
0.00173996
0.00180365
0.00186528
0.00192376
0.00197525
0.00200763
0.0020238
0.0020344
0.002051
0.00209009
0.00215094
0.00226027
0.00246441
0.00277755
0.0030471
0.00314042
0.00303508
0.00259467
0.00191801
0.00119933
0.000562427
8.1265e-05
0.000228029
0.00107372
0.00152346
0.00177573
0.0019265
0.00201085
0.00204807
0.00205465
0.00203145
0.00197775
0.00189883
0.00179468
0.00168099
0.00156954
0.00146915
0.00138411
0.00131478
0.0012594
0.00121583
0.00118225
0.00115718
0.00113933
0.00112748
0.00112095
0.0011181
0.00111727
0.00111755
0.00111925
0.00112149
0.00112381
0.00112597
0.0011279
0.00112964
0.00113127
0.00113296
0.00113487
0.00113721
0.00114016
0.00114389
0.00114856
0.00115435
0.00116139
0.00116984
0.00117985
0.00119158
0.0012052
0.00122094
0.00123904
0.00125981
0.00128361
0.00131087
0.00134207
0.00137776
0.0014185
0.00146482
0.00151712
0.00157559
0.00164001
0.00170956
0.00178263
0.00185663
0.00192785
0.00199364
0.00205083
0.00207972
0.00209191
0.00209634
0.00210325
0.00213382
0.00219618
0.00231327
0.00254188
0.00287432
0.0030729
0.00310054
0.00283757
0.00219544
0.00141446
0.000667788
9.75809e-05
0.000252202
0.0011608
0.00162867
0.00188558
0.00202853
0.0020932
0.00210913
0.00208891
0.00203382
0.00195456
0.00184765
0.00172744
0.00160633
0.00149462
0.00139849
0.00131963
0.00125681
0.00120764
0.0011699
0.00114174
0.00112158
0.00110799
0.0010997
0.00109561
0.00109388
0.00109339
0.00109358
0.0010945
0.00109541
0.00109608
0.00109643
0.00109656
0.00109659
0.00109668
0.00109702
0.00109778
0.00109919
0.00110142
0.00110461
0.00110892
0.00111444
0.00112131
0.00112964
0.00113954
0.00115113
0.00116456
0.00118001
0.0011977
0.00121789
0.00124093
0.00126726
0.00129737
0.00133188
0.00137146
0.00141683
0.00146869
0.00152761
0.00159388
0.00166731
0.00174695
0.00183085
0.00191578
0.0019971
0.00207086
0.00212954
0.00215403
0.00216068
0.00215864
0.00215563
0.00218016
0.00224602
0.00237911
0.00264633
0.00296278
0.00309322
0.00298469
0.0024536
0.00163645
0.000773986
0.000114632
0.000274401
0.0012398
0.00172176
0.00198092
0.00211179
0.00215743
0.00215482
0.00210665
0.00202438
0.00191613
0.00179017
0.00165924
0.00153507
0.00142587
0.00133519
0.00126273
0.0012062
0.00116294
0.00113062
0.00110733
0.00109136
0.00108113
0.00107519
0.00107214
0.00107059
0.00106977
0.00106927
0.00106887
0.00106818
0.00106715
0.00106586
0.00106446
0.00106312
0.0010621
0.00106164
0.00106159
0.00106246
0.00106432
0.00106729
0.00107147
0.00107694
0.0010838
0.00109213
0.00110202
0.00111355
0.00112684
0.00114204
0.00115932
0.00117893
0.00120118
0.00122646
0.00125526
0.00128821
0.00132603
0.00136955
0.00141968
0.00147731
0.0015432
0.00161777
0.00170084
0.00179125
0.00188657
0.00198274
0.00207393
0.00215474
0.002211
0.00222962
0.00223161
0.00221633
0.00220569
0.00222781
0.0023021
0.00246401
0.00277431
0.00300284
0.00303768
0.00268168
0.00186316
0.000881586
0.000131916
0.00029461
0.00130894
0.0018018
0.0020584
0.00217661
0.00220803
0.00218266
0.00210694
0.00200133
0.00187034
0.00173013
0.00159283
0.00146874
0.0013637
0.00127898
0.00121279
0.00116221
0.00112438
0.00109692
0.00107777
0.00106507
0.00105715
0.00105246
0.00104968
0.00104776
0.00104613
0.00104449
0.00104262
0.0010404
0.00103791
0.0010353
0.00103276
0.00103049
0.0010287
0.00102769
0.00102735
0.00102787
0.00102957
0.00103247
0.00103663
0.00104212
0.00104902
0.00105737
0.00106726
0.00107874
0.00109192
0.00110691
0.00112385
0.00114296
0.00116449
0.0011888
0.00121635
0.00124771
0.00128361
0.00132491
0.00137263
0.00142787
0.00149177
0.00156529
0.00164896
0.00174258
0.0018447
0.00195218
0.00205977
0.00215993
0.00224669
0.00229436
0.00230701
0.00229902
0.00226646
0.00224997
0.00227775
0.00236851
0.00258603
0.00290162
0.00303047
0.00285429
0.00209113
0.000997531
0.000150557
0.000311926
0.0013677
0.00186753
0.00211912
0.00222526
0.00224404
0.0021971
0.00209899
0.00196829
0.00182034
0.00167016
0.00152987
0.00140797
0.00130799
0.0012293
0.00116907
0.00112397
0.00109103
0.00106773
0.00105189
0.00104157
0.00103503
0.00103081
0.00102777
0.00102511
0.00102244
0.00101954
0.00101634
0.00101284
0.00100921
0.00100563
0.0010023
0.000999426
0.000997172
0.000995853
0.000995364
0.000995669
0.000997276
0.00100011
0.00100424
0.0010097
0.00101657
0.00102488
0.00103471
0.00104611
0.00105916
0.00107396
0.00109062
0.00110933
0.0011303
0.00115384
0.00118034
0.00121033
0.00124447
0.00128361
0.00132877
0.00138117
0.00144216
0.00151312
0.00159523
0.00168917
0.0017946
0.00190961
0.00203014
0.00214943
0.0022579
0.00234381
0.00237876
0.0023838
0.00235708
0.00230747
0.00228694
0.0023293
0.00245275
0.00274134
0.00294232
0.00293596
0.00231661
0.00113589
0.000173377
0.000326171
0.0014163
0.00191848
0.00216399
0.00225853
0.0022654
0.00219709
0.00207993
0.00192979
0.00176868
0.00161202
0.00147126
0.00135288
0.00125832
0.00118548
0.00113078
0.00109063
0.00106194
0.00104207
0.00102876
0.00102001
0.00101417
0.0010099
0.00100627
0.00100272
0.000998978
0.000994938
0.000990624
0.000986151
0.000981697
0.000977455
0.000973611
0.000970337
0.000967781
0.000966222
0.000965611
0.000965717
0.000967159
0.000969842
0.000973819
0.000979133
0.000985838
0.000993995
0.00100366
0.00101489
0.00102776
0.00104236
0.00105878
0.00107719
0.00109775
0.00112073
0.00114647
0.00117541
0.00120815
0.00124545
0.00128829
0.00133789
0.0013957
0.00146334
0.00154248
0.00163453
0.00174023
0.00185898
0.00198813
0.00212217
0.0022523
0.00236623
0.00244197
0.00246356
0.00245422
0.0024
0.00233948
0.00232356
0.00238924
0.00258791
0.00287368
0.00295749
0.00253366
0.00130823
0.000203194
0.000337276
0.00145474
0.00195525
0.00219388
0.00227843
0.00227413
0.00219023
0.00205298
0.00188796
0.00171717
0.00155683
0.00141735
0.00130326
0.00121416
0.00114683
0.00109718
0.00106141
0.00103631
0.00101917
0.00100767
0.000999879
0.000994238
0.000989616
0.00098528
0.000980832
0.000976122
0.000971143
0.000965987
0.000960805
0.000955776
0.000951077
0.000946869
0.000943295
0.00094048
0.000938621
0.000937794
0.00093768
0.000938799
0.000941175
0.000944836
0.00094983
0.000956214
0.000964059
0.000973426
0.000984381
0.000996997
0.00101135
0.00102755
0.00104572
0.00106601
0.00108864
0.00111388
0.00114213
0.00117387
0.00120979
0.00125077
0.00129795
0.00135277
0.00141696
0.00149246
0.00158125
0.00168499
0.00180436
0.00193825
0.00208279
0.00223047
0.00236964
0.00248375
0.00253687
0.00254604
0.00250921
0.00241998
0.00236455
0.00236704
0.00247857
0.00276155
0.00292123
0.00271574
0.0015109
0.000239922
0.00034512
0.00148307
0.00197864
0.00220985
0.00228669
0.0022715
0.00217381
0.00202132
0.00184464
0.0016671
0.00150522
0.00136819
0.00125873
0.00117494
0.0011127
0.00106757
0.00103559
0.00101346
0.000998426
0.000988182
0.000980885
0.000975149
0.000970032
0.000964977
0.000959727
0.000954224
0.000948523
0.00094275
0.00093706
0.000931615
0.000926565
0.000922043
0.000918166
0.000915039
0.000912762
0.000911545
0.000911163
0.000911774
0.00091366
0.000916824
0.00092132
0.000927214
0.000934588
0.000943517
0.000954076
0.000966345
0.000980409
0.000996365
0.00101433
0.00103443
0.00105686
0.00108185
0.0011097
0.00114085
0.00117586
0.00121551
0.00126081
0.00131312
0.00137414
0.00144593
0.00153083
0.00163118
0.00174879
0.00188409
0.00203506
0.0021959
0.00235606
0.00249966
0.00259904
0.00262924
0.00261605
0.00253679
0.00242155
0.00237662
0.00242788
0.00263737
0.00284658
0.00281665
0.00172771
0.000280032
0.000349827
0.00150193
0.00198965
0.00221298
0.00228453
0.00226137
0.00215016
0.00198644
0.00180116
0.00161932
0.00145748
0.00132364
0.00121889
0.0011401
0.00108251
0.00104137
0.00101263
0.000992903
0.000979441
0.000970012
0.000962908
0.000956917
0.000951274
0.000945572
0.000939658
0.000933536
0.000927296
0.000921068
0.000914993
0.000909205
0.000903826
0.000898962
0.000894708
0.000891156
0.000888386
0.000886569
0.000885783
0.000885755
0.000886969
0.000889461
0.000893294
0.000898541
0.000905297
0.000913653
0.000923699
0.000935524
0.000949223
0.000964896
0.000982653
0.00100262
0.00102496
0.00104985
0.00107757
0.00110846
0.00114298
0.0011818
0.00122581
0.0012762
0.00133459
0.00140301
0.00148396
0.00158022
0.00169448
0.00182859
0.0019824
0.00215229
0.00232974
0.00250039
0.00264032
0.00270533
0.00271496
0.00265856
0.00252592
0.00242205
0.00241
0.00253698
0.00279632
0.00285295
0.00196245
0.000324722
0.000350767
0.00151145
0.00198949
0.00220821
0.00227518
0.00224175
0.00212168
0.0019497
0.00175852
0.00157435
0.0014137
0.00128344
0.00118329
0.00110914
0.00105572
0.00101808
0.000992049
0.000974243
0.000961939
0.000953017
0.000945921
0.000939612
0.00093348
0.000927233
0.000920793
0.0009142
0.000907551
0.000900964
0.000894556
0.000888434
0.000882692
0.000877417
0.000872693
0.000868603
0.000865235
0.000862686
0.000861136
0.000860556
0.000860925
0.000862593
0.00086562
0.000870086
0.000876099
0.000883764
0.000893187
0.000904473
0.000917728
0.00093306
0.000950583
0.000970421
0.000992713
0.00101763
0.00104539
0.00107626
0.00111065
0.00114909
0.00119233
0.00124142
0.00129781
0.00136342
0.00144075
0.00153279
0.00164286
0.00177392
0.00192758
0.00210239
0.00229206
0.00248375
0.00265709
0.00277073
0.00280408
0.00277653
0.00265459
0.00248486
0.00241688
0.00247483
0.00272313
0.00285498
0.0021954
0.000370741
0.000349545
0.00151431
0.00198384
0.00219502
0.00225615
0.00221606
0.00208969
0.00191218
0.00171742
0.0015325
0.00137384
0.00124731
0.00115153
0.00108162
0.00103191
0.000997276
0.000973507
0.000957215
0.000945751
0.000937124
0.000929938
0.000923309
0.000916753
0.000910066
0.000903215
0.000896255
0.000889274
0.00088237
0.000875633
0.000869144
0.000862978
0.000857208
0.000851914
0.000847178
0.000843094
0.000839762
0.000837286
0.000835907
0.000835504
0.000836217
0.000838324
0.000841906
0.000847075
0.000853953
0.00086266
0.000873318
0.000886046
0.000900966
0.000918201
0.000937878
0.000960133
0.000985119
0.00101302
0.00104406
0.00107857
0.00111697
0.0011599
0.00120825
0.00126327
0.00132672
0.00140098
0.00148909
0.00159469
0.00172163
0.00187299
0.00204957
0.00224768
0.0024571
0.00265974
0.00282023
0.00288522
0.00288673
0.00278845
0.00259467
0.00245934
0.0024514
0.00262721
0.00280186
0.00239848
0.000412429
0.000346292
0.00151224
0.00196989
0.00217303
0.00223029
0.00218556
0.0020553
0.0018747
0.00167833
0.00149393
0.00133776
0.00121494
0.00112323
0.00105714
0.00101068
0.000978635
0.000956731
0.000941627
0.000930768
0.000922301
0.000914981
0.000908058
0.000901149
0.000894111
0.000886933
0.000879669
0.000872391
0.000865172
0.000858079
0.000851173
0.000844515
0.000838173
0.000832225
0.000826759
0.000821874
0.000817683
0.000814303
0.000811871
0.000810669
0.000810456
0.000811557
0.000814184
0.00081844
0.000824459
0.000832375
0.000842324
0.000854446
0.000868875
0.00088575
0.000905208
0.000927388
0.000952438
0.00098052
0.00101183
0.00104663
0.00108526
0.00112824
0.0011763
0.00123052
0.00129245
0.00136429
0.00144897
0.00155026
0.00167256
0.00182014
0.00199575
0.00219828
0.00241998
0.00264415
0.00284455
0.00295957
0.00298557
0.00291912
0.00272835
0.00251196
0.00244746
0.00256702
0.00275593
0.00255577
0.000445375
0.000341107
0.00150594
0.00194862
0.00214496
0.00219906
0.0021514
0.00201943
0.00183786
0.00164157
0.00145865
0.00130528
0.00118606
0.00109806
0.00103536
0.000991747
0.000961887
0.000941514
0.000927338
0.000916913
0.000908522
0.000901056
0.000893878
0.000886679
0.000879353
0.0008719
0.000864362
0.000856792
0.00084924
0.000841753
0.000834379
0.000827172
0.000820199
0.000813541
0.000807292
0.000801563
0.000796475
0.000792157
0.000788745
0.000786466
0.000785484
0.000785558
0.000787191
0.000790495
0.000795608
0.000802678
0.000811856
0.000823296
0.000837153
0.000853583
0.000872739
0.000894774
0.000919838
0.000948088
0.000979698
0.00101488
0.00105391
0.0010972
0.00114534
0.00119924
0.00126024
0.00133029
0.00141217
0.00150958
0.00162719
0.00177016
0.00194295
0.00214709
0.00237801
0.00262172
0.00285242
0.00301978
0.00307632
0.00304483
0.00287347
0.00260387
0.00246844
0.00251107
0.002712
0.00264706
0.000464059
0.000333991
0.00149403
0.00192236
0.00211205
0.00216363
0.0021146
0.00198279
0.00180212
0.00160732
0.00142663
0.00127623
0.00116037
0.00107572
0.001016
0.000974832
0.000946815
0.000927691
0.00091424
0.000904126
0.00089576
0.000888152
0.000880753
0.00087331
0.000865739
0.000858037
0.000850233
0.00084236
0.000834449
0.000826534
0.000818654
0.000810861
0.000803224
0.000795831
0.000788785
0.000782206
0.000776225
0.000770985
0.000766632
0.000763322
0.000761331
0.000760631
0.00076125
0.000763588
0.000767777
0.000773968
0.000782326
0.000793021
0.000806227
0.000822121
0.000840877
0.000862668
0.00088766
0.000916013
0.000947893
0.00098348
0.001023
0.00106677
0.00111527
0.00116924
0.0012298
0.00129867
0.00137838
0.00147246
0.00158564
0.00172362
0.00189219
0.00209522
0.00233138
0.00259025
0.0028494
0.00306475
0.0031588
0.00316002
0.00301293
0.00273049
0.00250751
0.00248387
0.00266979
0.00268929
0.000471896
0.000325501
0.00147907
0.00189224
0.00207543
0.00212507
0.00207599
0.00194598
0.00176779
0.00157565
0.00139778
0.0012504
0.00113765
0.00105594
0.000998802
0.000959717
0.000933237
0.000915126
0.000902238
0.000892345
0.000883973
0.000876231
0.000868641
0.000860985
0.000853191
0.00084525
0.000837176
0.000828984
0.000820693
0.000812327
0.00080392
0.000795528
0.000787225
0.000779105
0.000771281
0.000763883
0.000757049
0.00075093
0.00074568
0.000741458
0.000738431
0.000736937
0.00073669
0.000738076
0.000741348
0.000746652
0.000754162
0.000764062
0.000776545
0.000791811
0.00081006
0.000831492
0.000856295
0.000884648
0.00091672
0.000952678
0.000992712
0.00103707
0.00108611
0.00114043
0.00120097
0.00126918
0.00134732
0.00143869
0.0015479
0.0016809
0.00184446
0.00204445
0.00228256
0.00255169
0.00283151
0.00308696
0.0032358
0.00326634
0.00315518
0.00287224
0.00256413
0.00247374
0.00262457
0.00270336
0.000473986
0.000315954
0.00146175
0.00185927
0.00203609
0.0020843
0.00203629
0.00190946
0.00173507
0.00154657
0.00137197
0.00122759
0.00111765
0.0010385
0.000983556
0.000946215
0.000921
0.000903701
0.000891247
0.000881508
0.000873109
0.000865241
0.000857477
0.000849627
0.000841621
0.000833442
0.000825091
0.00081657
0.000807887
0.000799063
0.000790133
0.000781155
0.00077221
0.000763401
0.00075485
0.000746692
0.000739075
0.000732153
0.000726085
0.000721029
0.000717141
0.00071472
0.0007138
0.00071429
0.000716677
0.00072111
0.000727764
0.000736836
0.000748537
0.000763091
0.000780726
0.000801672
0.000826152
0.000854373
0.00088652
0.000922765
0.000963274
0.00100824
0.00105794
0.00111283
0.00117365
0.00124165
0.00131877
0.00140803
0.00151382
0.00164211
0.00180031
0.00199595
0.00223367
0.00251029
0.00280904
0.00309531
0.00329921
0.00336355
0.00329107
0.0030224
0.00265075
0.00248187
0.00256706
0.00270548
0.000473577
0.000305484
0.00144286
0.00182435
0.00199491
0.00204212
0.0019961
0.00187357
0.0017041
0.00152004
0.00134905
0.00120762
0.00110018
0.0010232
0.000970073
0.000934162
0.000909968
0.000893312
0.000881185
0.000871547
0.000863106
0.000855116
0.00084719
0.000839155
0.000830941
0.000822523
0.000813891
0.000805038
0.000795968
0.000786698
0.000777267
0.000767741
0.000758205
0.00074877
0.000739566
0.000730734
0.000722427
0.000714803
0.00070802
0.00070224
0.000697621
0.000694346
0.000692746
0.000692511
0.000694066
0.000697663
0.000703475
0.000711707
0.000722584
0.000736353
0.000753273
0.00077361
0.000797625
0.000825563
0.000857642
0.000894051
0.000934952
0.000980503
0.00103091
0.0010865
0.00114786
0.00121599
0.00129257
0.00138029
0.00148322