/*--------------------------------*- C++ -*----------------------------------*\
  =========                 |
  \\      /  F ield         | OpenFOAM: The Open Source CFD Toolbox
   \\    /   O peration     | Website:  https://openfoam.org
    \\  /    A nd           | Version:  13
     \\/     M anipulation  |
\*---------------------------------------------------------------------------*/
FoamFile
{
    format      ascii;
    class       volScalarField;
    location    "3";
    object      nut;
}
// * * * * * * * * * * * * * * * * * * * * * * * * * * * * * * * * * * * * * //

dimensions      [0 2 -1 0 0 0 0];

internalField   nonuniform List<scalar> 
6400
(
7.65745e-10
3.87651e-09
9.00856e-09
1.4401e-08
1.89277e-08
2.22682e-08
2.46451e-08
2.6521e-08
2.83816e-08
3.06286e-08
3.36212e-08
3.75363e-08
4.25142e-08
4.86278e-08
5.58642e-08
6.41409e-08
7.33173e-08
8.31676e-08
9.34155e-08
1.03835e-07
1.14461e-07
1.25822e-07
1.38896e-07
1.54448e-07
1.72638e-07
1.92604e-07
2.12871e-07
2.33294e-07
2.54221e-07
2.76113e-07
2.99167e-07
3.23047e-07
3.465e-07
3.69572e-07
3.92082e-07
4.14505e-07
4.37037e-07
4.60058e-07
4.83829e-07
5.08644e-07
5.34723e-07
5.62243e-07
5.91461e-07
6.22604e-07
6.55572e-07
6.9044e-07
7.27498e-07
7.68045e-07
8.14575e-07
8.73253e-07
9.32e-07
9.92054e-07
1.05094e-06
1.10775e-06
1.16053e-06
1.2072e-06
1.24537e-06
1.27016e-06
1.28209e-06
1.28577e-06
1.26857e-06
1.22978e-06
1.16997e-06
1.09074e-06
9.9364e-07
8.82657e-07
7.62378e-07
6.39917e-07
5.20855e-07
4.08285e-07
3.06986e-07
2.26883e-07
1.6102e-07
1.09231e-07
7.09444e-08
4.4107e-08
2.61462e-08
1.44343e-08
6.48913e-09
1.35598e-09
3.73638e-09
2.83637e-07
1.00024e-06
1.70388e-06
2.25774e-06
2.641e-06
2.89362e-06
3.07055e-06
3.22166e-06
3.38248e-06
3.57469e-06
3.8169e-06
4.11135e-06
4.44404e-06
4.79297e-06
5.13462e-06
5.44862e-06
5.71461e-06
5.91617e-06
6.0467e-06
6.12e-06
6.18585e-06
6.30313e-06
6.49081e-06
6.74851e-06
7.0317e-06
7.25672e-06
7.46644e-06
7.70432e-06
7.99968e-06
8.37657e-06
8.84457e-06
9.3412e-06
9.87418e-06
1.04231e-05
1.09978e-05
1.15945e-05
1.22166e-05
1.28637e-05
1.35381e-05
1.42412e-05
1.49683e-05
1.57196e-05
1.65192e-05
1.73653e-05
1.82473e-05
1.91276e-05
1.99926e-05
2.0812e-05
2.15487e-05
2.23174e-05
2.309e-05
2.38668e-05
2.46291e-05
2.53622e-05
2.60452e-05
2.67002e-05
2.71759e-05
2.74292e-05
2.76921e-05
2.77214e-05
2.74674e-05
2.6896e-05
2.60373e-05
2.48603e-05
2.33525e-05
2.15873e-05
1.96415e-05
1.7499e-05
1.52298e-05
1.29055e-05
1.02855e-05
7.78802e-06
5.62848e-06
3.9051e-06
2.60036e-06
1.66465e-06
9.99474e-07
4.12388e-07
7.04103e-09
8.22805e-09
7.94088e-07
3.27339e-06
5.85364e-06
7.85871e-06
9.21217e-06
1.00487e-05
1.05481e-05
1.08717e-05
1.11307e-05
1.14213e-05
1.17802e-05
1.22086e-05
1.26842e-05
1.31699e-05
1.36271e-05
1.40354e-05
1.43751e-05
1.46334e-05
1.48064e-05
1.48999e-05
1.49236e-05
1.4919e-05
1.4943e-05
1.50128e-05
1.51479e-05
1.54142e-05
1.57595e-05
1.61152e-05
1.65005e-05
1.68804e-05
1.7323e-05
1.79186e-05
1.87261e-05
1.96127e-05
2.05935e-05
2.16526e-05
2.27879e-05
2.39815e-05
2.5218e-05
2.65366e-05
2.78937e-05
2.92813e-05
3.06536e-05
3.19807e-05
3.32626e-05
3.45375e-05
3.57883e-05
3.70091e-05
3.82188e-05
3.94216e-05
4.06017e-05
4.17474e-05
4.28449e-05
4.38751e-05
4.48175e-05
4.56487e-05
4.63238e-05
4.68117e-05
4.70283e-05
4.7159e-05
4.69617e-05
4.6427e-05
4.55558e-05
4.42296e-05
4.23251e-05
3.99624e-05
3.72391e-05
3.41193e-05
3.06854e-05
2.70099e-05
2.3107e-05
1.91278e-05
1.52827e-05
1.17686e-05
8.73658e-06
6.23258e-06
4.05729e-06
1.54454e-06
1.78533e-08
1.40783e-08
1.33354e-06
5.32246e-06
9.39582e-06
1.25473e-05
1.46935e-05
1.60176e-05
1.67673e-05
1.71834e-05
1.74686e-05
1.77397e-05
1.80631e-05
1.84524e-05
1.88842e-05
1.93207e-05
1.9724e-05
2.00546e-05
2.02915e-05
2.04306e-05
2.04837e-05
2.0482e-05
2.04616e-05
2.04678e-05
2.0559e-05
2.07543e-05
2.09575e-05
2.11186e-05
2.12646e-05
2.16721e-05
2.24271e-05
2.33541e-05
2.45699e-05
2.57248e-05
2.6873e-05
2.81326e-05
2.94312e-05
3.07489e-05
3.20808e-05
3.34818e-05
3.48418e-05
3.61964e-05
3.75218e-05
3.88148e-05
4.00644e-05
4.12721e-05
4.24397e-05
4.35631e-05
4.46535e-05
4.57234e-05
4.67699e-05
4.77884e-05
4.8769e-05
4.97018e-05
5.05738e-05
5.13692e-05
5.20688e-05
5.26502e-05
5.30884e-05
5.33609e-05
5.34018e-05
5.3353e-05
5.30434e-05
5.25261e-05
5.16922e-05
5.06991e-05
4.91628e-05
4.70022e-05
4.44081e-05
4.14015e-05
3.80286e-05
3.43364e-05
3.03654e-05
2.61906e-05
2.19156e-05
1.77145e-05
1.37758e-05
1.02193e-05
6.81391e-06
2.54691e-06
2.8356e-08
2.18007e-08
1.97691e-06
7.35866e-06
1.25722e-05
1.64481e-05
1.90193e-05
2.0565e-05
2.14099e-05
2.18579e-05
2.21526e-05
2.24488e-05
2.28143e-05
2.32471e-05
2.37039e-05
2.41295e-05
2.44763e-05
2.47138e-05
2.48348e-05
2.48573e-05
2.48086e-05
2.47622e-05
2.47545e-05
2.47402e-05
2.46897e-05
2.45437e-05
2.4677e-05
2.53292e-05
2.62794e-05
2.73693e-05
2.84382e-05
2.96965e-05
3.10182e-05
3.23186e-05
3.36412e-05
3.49634e-05
3.62127e-05
3.7468e-05
3.8751e-05
3.99132e-05
4.10367e-05
4.20952e-05
4.30941e-05
4.40334e-05
4.49175e-05
4.57541e-05
4.65529e-05
4.73287e-05
4.80769e-05
4.88004e-05
4.9498e-05
5.01688e-05
5.08098e-05
5.14169e-05
5.19846e-05
5.25057e-05
5.29709e-05
5.33661e-05
5.36751e-05
5.38793e-05
5.39536e-05
5.37958e-05
5.36316e-05
5.29731e-05
5.21647e-05
5.07942e-05
4.98592e-05
4.82764e-05
4.61353e-05
4.35572e-05
4.05905e-05
3.72774e-05
3.36562e-05
2.97664e-05
2.56567e-05
2.14178e-05
1.71874e-05
1.30734e-05
8.77876e-06
3.21247e-06
3.51716e-08
3.208e-08
2.78447e-06
9.59416e-06
1.57852e-05
2.01071e-05
2.28493e-05
2.44261e-05
2.52567e-05
2.57032e-05
2.6031e-05
2.6389e-05
2.68193e-05
2.72906e-05
2.77388e-05
2.81013e-05
2.83362e-05
2.84301e-05
2.83945e-05
2.83041e-05
2.80962e-05
2.78961e-05
2.76961e-05
2.72514e-05
2.74157e-05
2.82069e-05
2.92464e-05
3.0332e-05
3.15692e-05
3.28567e-05
3.41415e-05
3.54284e-05
3.66999e-05
3.79106e-05
3.9072e-05
4.0113e-05
4.10955e-05
4.20829e-05
4.29506e-05
4.37194e-05
4.44272e-05
4.50604e-05
4.56363e-05
4.61586e-05
4.66371e-05
4.70786e-05
4.74893e-05
4.7871e-05
4.8218e-05
4.85362e-05
4.88279e-05
4.90966e-05
4.93456e-05
4.95779e-05
4.97955e-05
4.99992e-05
5.0189e-05
5.03635e-05
5.05155e-05
5.06374e-05
5.07143e-05
5.07288e-05
5.06084e-05
5.03136e-05
5.00545e-05
4.93094e-05
4.80281e-05
4.72136e-05
4.55919e-05
4.3493e-05
4.09534e-05
3.80261e-05
3.47681e-05
3.12291e-05
2.74404e-05
2.34236e-05
1.92094e-05
1.48369e-05
9.92099e-06
3.53351e-06
3.78477e-08
4.55857e-08
3.78756e-06
1.21016e-05
1.90892e-05
2.36901e-05
2.64524e-05
2.7953e-05
2.87115e-05
2.91354e-05
2.94891e-05
2.98912e-05
3.03457e-05
3.07926e-05
3.11562e-05
3.1379e-05
3.14376e-05
3.1358e-05
3.10382e-05
3.0743e-05
3.04243e-05
2.97961e-05
2.99354e-05
3.0613e-05
3.16085e-05
3.26688e-05
3.37708e-05
3.4913e-05
3.61258e-05
3.73165e-05
3.84999e-05
3.96089e-05
4.05844e-05
4.15244e-05
4.23738e-05
4.31319e-05
4.38084e-05
4.44594e-05
4.50131e-05
4.54728e-05
4.58792e-05
4.62192e-05
4.65076e-05
4.6745e-05
4.69372e-05
4.7086e-05
4.71933e-05
4.726e-05
4.72876e-05
4.72803e-05
4.72416e-05
4.71756e-05
4.70877e-05
4.69858e-05
4.68798e-05
4.67802e-05
4.6699e-05
4.66484e-05
4.66327e-05
4.66461e-05
4.66836e-05
4.67621e-05
4.68465e-05
4.69055e-05
4.67806e-05
4.66124e-05
4.61947e-05
4.52049e-05
4.44661e-05
4.28745e-05
4.07381e-05
3.81154e-05
3.50863e-05
3.17429e-05
2.81598e-05
2.43566e-05
2.02709e-05
1.57632e-05
1.0421e-05
3.61162e-06
3.76393e-08
6.29013e-08
4.99504e-06
1.48379e-05
2.24585e-05
2.72222e-05
2.99123e-05
3.12786e-05
3.1933e-05
3.23111e-05
3.26573e-05
3.30492e-05
3.34543e-05
3.37937e-05
3.39926e-05
3.40097e-05
3.37993e-05
3.34392e-05
3.30985e-05
3.23006e-05
3.21555e-05
3.26318e-05
3.34335e-05
3.41915e-05
3.51871e-05
3.62125e-05
3.73307e-05
3.84598e-05
3.95657e-05
4.06001e-05
4.15626e-05
4.2426e-05
4.32272e-05
4.39319e-05
4.45228e-05
4.50719e-05
4.55196e-05
4.59126e-05
4.62857e-05
4.65516e-05
4.67757e-05
4.69412e-05
4.70604e-05
4.71311e-05
4.71569e-05
4.71384e-05
4.70768e-05
4.69727e-05
4.6826e-05
4.66375e-05
4.64113e-05
4.61485e-05
4.58512e-05
4.55226e-05
4.5169e-05
4.48022e-05
4.444e-05
4.41091e-05
4.38424e-05
4.36537e-05
4.34876e-05
4.34468e-05
4.35022e-05
4.36173e-05
4.38063e-05
4.39658e-05
4.38354e-05
4.35961e-05
4.28803e-05
4.22842e-05
4.06187e-05
3.83244e-05
3.54743e-05
3.2185e-05
2.85995e-05
2.48176e-05
2.08183e-05
1.6283e-05
1.06405e-05
3.59817e-06
3.66676e-08
8.44322e-08
6.38803e-06
1.7709e-05
2.58532e-05
3.06871e-05
3.32459e-05
3.44431e-05
3.49681e-05
3.52663e-05
3.55515e-05
3.58611e-05
3.61365e-05
3.62953e-05
3.62806e-05
3.58648e-05
3.54349e-05
3.4972e-05
3.42874e-05
3.44216e-05
3.49377e-05
3.54143e-05
3.61689e-05
3.70947e-05
3.81361e-05
3.91817e-05
4.02427e-05
4.12504e-05
4.21909e-05
4.30442e-05
4.38157e-05
4.45015e-05
4.51147e-05
4.56654e-05
4.61476e-05
4.65377e-05
4.6872e-05
4.71546e-05
4.74266e-05
4.76181e-05
4.77624e-05
4.78572e-05
4.79077e-05
4.7913e-05
4.78762e-05
4.77988e-05
4.76837e-05
4.75333e-05
4.73504e-05
4.71376e-05
4.68915e-05
4.66098e-05
4.62873e-05
4.59159e-05
4.54852e-05
4.49904e-05
4.44234e-05
4.37823e-05
4.30841e-05
4.23836e-05
4.18407e-05
4.14443e-05
4.12478e-05
4.11195e-05
4.12256e-05
4.14552e-05
4.17644e-05
4.17538e-05
4.1566e-05
4.10471e-05
4.0545e-05
3.87283e-05
3.61782e-05
3.29806e-05
2.9309e-05
2.53504e-05
2.11978e-05
1.66541e-05
1.08306e-05
3.5959e-06
3.66414e-08
1.10406e-07
7.8993e-06
2.06115e-05
2.92156e-05
3.40547e-05
3.64445e-05
3.74475e-05
3.78139e-05
3.79868e-05
3.81463e-05
3.82971e-05
3.83662e-05
3.82794e-05
3.77967e-05
3.7329e-05
3.66247e-05
3.62724e-05
3.63971e-05
3.66257e-05
3.70617e-05
3.77559e-05
3.86453e-05
3.96227e-05
4.0635e-05
4.16162e-05
4.25603e-05
4.34288e-05
4.4223e-05
4.49394e-05
4.55865e-05
4.61677e-05
4.66991e-05
4.71891e-05
4.75994e-05
4.79175e-05
4.82199e-05
4.85104e-05
4.87438e-05
4.891e-05
4.90352e-05
4.91108e-05
4.91418e-05
4.91281e-05
4.90727e-05
4.89782e-05
4.88477e-05
4.86849e-05
4.84936e-05
4.82746e-05
4.80277e-05
4.77522e-05
4.74446e-05
4.7097e-05
4.66937e-05
4.62251e-05
4.56722e-05
4.50196e-05
4.42796e-05
4.34515e-05
4.25149e-05
4.14547e-05
4.04096e-05
3.97549e-05
3.9461e-05
3.93879e-05
3.96302e-05
4.00129e-05
4.01073e-05
3.99581e-05
3.95555e-05
3.90097e-05
3.69774e-05
3.40738e-05
3.04428e-05
2.63004e-05
2.1845e-05
1.7067e-05
1.11241e-05
3.68981e-06
3.81217e-08
1.42311e-07
9.36709e-06
2.34604e-05
3.24837e-05
3.72924e-05
3.94893e-05
4.02752e-05
4.04486e-05
4.04448e-05
4.04147e-05
4.0342e-05
4.01547e-05
3.95983e-05
3.90885e-05
3.82595e-05
3.80455e-05
3.80294e-05
3.80244e-05
3.84431e-05
3.90616e-05
3.98849e-05
4.08144e-05
4.17692e-05
4.27102e-05
4.36003e-05
4.44352e-05
4.52004e-05
4.5904e-05
4.65487e-05
4.71404e-05
4.77187e-05
4.82421e-05
4.86605e-05
4.90315e-05
4.93788e-05
4.97445e-05
5.00134e-05
5.02416e-05
5.04133e-05
5.05394e-05
5.06148e-05
5.06433e-05
5.06251e-05
5.05628e-05
5.04584e-05
5.03147e-05
5.01342e-05
4.99192e-05
4.96719e-05
4.93942e-05
4.90881e-05
4.8755e-05
4.83966e-05
4.80148e-05
4.75884e-05
4.70993e-05
4.65135e-05
4.58148e-05
4.4988e-05
4.40167e-05
4.29327e-05
4.1747e-05
4.04318e-05
3.90174e-05
3.81997e-05
3.79722e-05
3.80934e-05
3.85336e-05
3.86942e-05
3.85702e-05
3.8154e-05
3.74846e-05
3.51236e-05
3.17835e-05
2.76521e-05
2.2954e-05
1.78335e-05
1.17145e-05
3.99772e-06
4.26964e-08
1.79328e-07
1.08323e-05
2.6229e-05
3.56208e-05
4.03725e-05
4.2359e-05
4.29048e-05
4.28485e-05
4.26173e-05
4.2342e-05
4.1998e-05
4.13419e-05
4.07937e-05
3.99239e-05
3.96461e-05
3.94402e-05
3.93376e-05
3.95851e-05
4.01581e-05
4.08963e-05
4.17687e-05
4.26811e-05
4.35836e-05
4.44515e-05
4.52678e-05
4.60338e-05
4.67473e-05
4.74161e-05
4.80649e-05
4.86962e-05
4.92457e-05
4.97142e-05
5.01475e-05
5.05843e-05
5.09974e-05
5.13445e-05
5.16316e-05
5.18723e-05
5.20588e-05
5.21952e-05
5.22794e-05
5.23135e-05
5.22981e-05
5.22352e-05
5.21266e-05
5.19747e-05
5.1782e-05
5.15512e-05
5.12847e-05
5.0985e-05
5.06538e-05
5.02916e-05
4.98977e-05
4.94697e-05
4.90037e-05
4.84978e-05
4.79527e-05
4.73144e-05
4.65524e-05
4.56288e-05
4.45334e-05
4.33149e-05
4.19928e-05
4.05313e-05
3.89037e-05
3.731e-05
3.67588e-05
3.67668e-05
3.72131e-05
3.73737e-05
3.7216e-05
3.67162e-05
3.57613e-05
3.29578e-05
2.91107e-05
2.43945e-05
1.90175e-05
1.26612e-05
4.60732e-06
5.26612e-08
2.20433e-07
1.22901e-05
2.88794e-05
3.85926e-05
4.32695e-05
4.50327e-05
4.53175e-05
4.49976e-05
4.44982e-05
4.39419e-05
4.31407e-05
4.25305e-05
4.15711e-05
4.11585e-05
4.0744e-05
4.05268e-05
4.06324e-05
4.10693e-05
4.17466e-05
4.25447e-05
4.34173e-05
4.42939e-05
4.51479e-05
4.59665e-05
4.67445e-05
4.74855e-05
4.81906e-05
4.89168e-05
4.9601e-05
5.01798e-05
5.07291e-05
5.12326e-05
5.17385e-05
5.22345e-05
5.26517e-05
5.30194e-05
5.33329e-05
5.35956e-05
5.38037e-05
5.39585e-05
5.4059e-05
5.4106e-05
5.40999e-05
5.40422e-05
5.39344e-05
5.37786e-05
5.35772e-05
5.33334e-05
5.30503e-05
5.27309e-05
5.23778e-05
5.19923e-05
5.15743e-05
5.11208e-05
5.06262e-05
5.00817e-05
4.94755e-05
4.87958e-05
4.80173e-05
4.70516e-05
4.59573e-05
4.47416e-05
4.34709e-05
4.20973e-05
4.05161e-05
3.87543e-05
3.67717e-05
3.56753e-05
3.55516e-05
3.59623e-05
3.60591e-05
3.57983e-05
3.52353e-05
3.36489e-05
3.03281e-05
2.58501e-05
2.04196e-05
1.38891e-05
5.37261e-06
6.85523e-08
2.64523e-07
1.37087e-05
3.13699e-05
4.13678e-05
4.59605e-05
4.74932e-05
4.74999e-05
4.68906e-05
4.60987e-05
4.50793e-05
4.43441e-05
4.32427e-05
4.2657e-05
4.20159e-05
4.16583e-05
4.16063e-05
4.18938e-05
4.24593e-05
4.31964e-05
4.40153e-05
4.48711e-05
4.57182e-05
4.65446e-05
4.73444e-05
4.81171e-05
4.88727e-05
4.96657e-05
5.04081e-05
5.10321e-05
5.167e-05
5.22627e-05
5.28284e-05
5.33865e-05
5.3908e-05
5.4355e-05
5.4757e-05
5.51048e-05
5.53998e-05
5.56389e-05
5.58221e-05
5.59481e-05
5.60166e-05
5.60275e-05
5.5981e-05
5.5878e-05
5.57201e-05
5.55096e-05
5.52497e-05
5.49443e-05
5.45978e-05
5.42146e-05
5.37986e-05
5.33526e-05
5.28766e-05
5.23675e-05
5.18167e-05
5.12103e-05
5.0528e-05
4.97515e-05
4.89723e-05
4.78945e-05
4.64892e-05
4.49225e-05
4.33501e-05
4.19134e-05
4.03382e-05
3.84202e-05
3.62342e-05
3.46385e-05
3.43552e-05
3.47077e-05
3.46717e-05
3.42729e-05
3.3595e-05
3.10703e-05
2.70319e-05
2.17638e-05
1.52093e-05
6.21866e-06
8.97535e-08
3.1027e-07
1.50582e-05
3.36655e-05
4.39208e-05
4.84278e-05
4.97273e-05
4.94444e-05
4.85267e-05
4.72106e-05
4.6269e-05
4.50393e-05
4.42e-05
4.33701e-05
4.27941e-05
4.25617e-05
4.2674e-05
4.31002e-05
4.37458e-05
4.45135e-05
4.53367e-05
4.61795e-05
4.70149e-05
4.78378e-05
4.86454e-05
4.94512e-05
5.03009e-05
5.11051e-05
5.17964e-05
5.24963e-05
5.31862e-05
5.38439e-05
5.4477e-05
5.50728e-05
5.56125e-05
5.61126e-05
5.65623e-05
5.69553e-05
5.72979e-05
5.75809e-05
5.78056e-05
5.79692e-05
5.80705e-05
5.81077e-05
5.808e-05
5.79868e-05
5.78289e-05
5.76078e-05
5.73264e-05
5.69892e-05
5.66014e-05
5.61698e-05
5.57014e-05
5.5203e-05
5.46799e-05
5.41346e-05
5.35644e-05
5.29604e-05
5.23047e-05
5.157e-05
5.07192e-05
4.98515e-05
4.87827e-05
4.71756e-05
4.52692e-05
4.32641e-05
4.1543e-05
3.99855e-05
3.78999e-05
3.54993e-05
3.35592e-05
3.31549e-05
3.32642e-05
3.33224e-05
3.26047e-05
3.12763e-05
2.77831e-05
2.28587e-05
1.64105e-05
7.02772e-06
1.15026e-07
3.56102e-07
1.63115e-05
3.5741e-05
4.62358e-05
5.06632e-05
5.17286e-05
5.1147e-05
4.96765e-05
4.85002e-05
4.71653e-05
4.5877e-05
4.48684e-05
4.40293e-05
4.35545e-05
4.34619e-05
4.37141e-05
4.42376e-05
4.49319e-05
4.57171e-05
4.65445e-05
4.73879e-05
4.8232e-05
4.90745e-05
4.99138e-05
5.08146e-05
5.16837e-05
5.24613e-05
5.32199e-05
5.39891e-05
5.47376e-05
5.54572e-05
5.61456e-05
5.67935e-05
5.73962e-05
5.79566e-05
5.84556e-05
5.88926e-05
5.93117e-05
5.96571e-05
5.99392e-05
6.01538e-05
6.03005e-05
6.03753e-05
6.03756e-05
6.02994e-05
6.01459e-05
5.99154e-05
5.96099e-05
5.92334e-05
5.87919e-05
5.82933e-05
5.77473e-05
5.71647e-05
5.65566e-05
5.59321e-05
5.52971e-05
5.46513e-05
5.39855e-05
5.32791e-05
5.2498e-05
5.15929e-05
5.06318e-05
4.95288e-05
4.77706e-05
4.55124e-05
4.31916e-05
4.1091e-05
3.9348e-05
3.71852e-05
3.45104e-05
3.2337e-05
3.17839e-05
3.17276e-05
3.16927e-05
3.05341e-05
2.80574e-05
2.36039e-05
1.73877e-05
7.71762e-06
1.42847e-07
4.00946e-07
1.74512e-05
3.75835e-05
4.83134e-05
5.26892e-05
5.34773e-05
5.23902e-05
5.1111e-05
4.96333e-05
4.78279e-05
4.65914e-05
4.54421e-05
4.46679e-05
4.43119e-05
4.4351e-05
4.47123e-05
4.53022e-05
4.60289e-05
4.68299e-05
4.76693e-05
4.85284e-05
4.9398e-05
5.02756e-05
5.12041e-05
5.21375e-05
5.30147e-05
5.38293e-05
5.46721e-05
5.55077e-05
5.63213e-05
5.71075e-05
5.78618e-05
5.85781e-05
5.92534e-05
5.98848e-05
6.04661e-05
6.09933e-05
6.14441e-05
6.18777e-05
6.2243e-05
6.25197e-05
6.27237e-05
6.28467e-05
6.2885e-05
6.28347e-05
6.26931e-05
6.24588e-05
6.21325e-05
6.17168e-05
6.12169e-05
6.06412e-05
6.00005e-05
5.93088e-05
5.85815e-05
5.7835e-05
5.70838e-05
5.63381e-05
5.56009e-05
5.48636e-05
5.41034e-05
5.32795e-05
5.23313e-05
5.12878e-05
5.01455e-05
4.80841e-05
4.56799e-05
4.31688e-05
4.0663e-05
3.85715e-05
3.62322e-05
3.32357e-05
3.11197e-05
3.05053e-05
3.00718e-05
2.96121e-05
2.79885e-05
2.39926e-05
1.80906e-05
8.23481e-06
1.71532e-07
4.43453e-07
1.84633e-05
3.91882e-05
5.01674e-05
5.44131e-05
5.47874e-05
5.3769e-05
5.22375e-05
5.02293e-05
4.86148e-05
4.71177e-05
4.59863e-05
4.53008e-05
4.50651e-05
4.5217e-05
4.566e-05
4.62975e-05
4.70513e-05
4.7873e-05
4.87357e-05
4.9626e-05
5.0538e-05
5.14765e-05
5.24587e-05
5.34185e-05
5.43367e-05
5.5228e-05
5.61489e-05
5.70571e-05
5.79463e-05
5.88077e-05
5.96415e-05
6.04427e-05
6.12056e-05
6.19261e-05
6.25962e-05
6.32176e-05
6.37504e-05
6.42306e-05
6.47084e-05
6.50559e-05
6.53247e-05
6.55042e-05
6.55889e-05
6.55735e-05
6.54534e-05
6.52253e-05
6.48878e-05
6.44413e-05
6.38896e-05
6.32393e-05
6.25012e-05
6.16901e-05
6.08243e-05
5.99254e-05
5.90159e-05
5.81166e-05
5.72434e-05
5.64024e-05
5.55858e-05
5.47674e-05
5.38998e-05
5.29115e-05
5.1809e-05
5.04294e-05
4.80565e-05
4.5532e-05
4.29416e-05
4.00438e-05
3.76245e-05
3.49546e-05
3.15663e-05
2.96916e-05
2.89259e-05
2.8716e-05
2.71837e-05
2.40394e-05
1.84841e-05
8.55831e-06
2.01509e-07
4.82491e-07
1.93354e-05
4.05432e-05
5.17624e-05
5.57665e-05
5.60149e-05
5.51152e-05
5.32007e-05
5.09674e-05
4.91406e-05
4.76019e-05
4.65169e-05
4.59307e-05
4.58059e-05
4.60495e-05
4.65546e-05
4.72308e-05
4.80133e-05
4.8864e-05
4.97623e-05
5.0698e-05
5.16662e-05
5.26635e-05
5.36789e-05
5.46788e-05
5.56653e-05
5.66535e-05
5.76546e-05
5.86446e-05
5.96185e-05
6.05704e-05
6.14963e-05
6.23905e-05
6.32534e-05
6.40849e-05
6.4839e-05
6.55493e-05
6.61768e-05
6.6727e-05
6.72843e-05
6.77185e-05
6.80537e-05
6.82933e-05
6.84297e-05
6.84566e-05
6.83677e-05
6.81579e-05
6.78233e-05
6.7362e-05
6.67747e-05
6.60655e-05
6.52428e-05
6.432e-05
6.33159e-05
6.22544e-05
6.11636e-05
6.00734e-05
5.90121e-05
5.80017e-05
5.70515e-05
5.61531e-05
5.52749e-05
5.43595e-05
5.33234e-05
5.21599e-05
5.04585e-05
4.77404e-05
4.52418e-05
4.2364e-05
3.91815e-05
3.64306e-05
3.32888e-05
2.9737e-05
2.80728e-05
2.69784e-05
2.63645e-05
2.39249e-05
1.86384e-05
8.73942e-06
2.31896e-07
5.18029e-07
2.00381e-05
4.16566e-05
5.29826e-05
5.68266e-05
5.73093e-05
5.6038e-05
5.37411e-05
5.16194e-05
4.96129e-05
4.80604e-05
4.70396e-05
4.6553e-05
4.65249e-05
4.68422e-05
4.73977e-05
4.81102e-05
4.8926e-05
4.98139e-05
5.07566e-05
5.17442e-05
5.27689e-05
5.38212e-05
5.48873e-05
5.59532e-05
5.70244e-05
5.81064e-05
5.91957e-05
6.02779e-05
6.13477e-05
6.23989e-05
6.34257e-05
6.44218e-05
6.53808e-05
6.63122e-05
6.71718e-05
6.79581e-05
6.86762e-05
6.92981e-05
6.99189e-05
7.04365e-05
7.08347e-05
7.11327e-05
7.13221e-05
7.13956e-05
7.13459e-05
7.11664e-05
7.08508e-05
7.03944e-05
6.97947e-05
6.90518e-05
6.81705e-05
6.71605e-05
6.60379e-05
6.48258e-05
6.35543e-05
6.22591e-05
6.09791e-05
5.97507e-05
5.86023e-05
5.75459e-05
5.65699e-05
5.56328e-05
5.46594e-05
5.35405e-05
5.23085e-05
5.01145e-05
4.7292e-05
4.46612e-05
4.13926e-05
3.79624e-05
3.48974e-05
3.10947e-05
2.79514e-05
2.62489e-05
2.55872e-05
2.36004e-05
1.86284e-05
8.88469e-06
2.64665e-07
5.48476e-07
2.05828e-05
4.25002e-05
5.38916e-05
5.78079e-05
5.8326e-05
5.68961e-05
5.44868e-05
5.2111e-05
5.00408e-05
4.85012e-05
4.75537e-05
4.71602e-05
4.72142e-05
4.75924e-05
4.81924e-05
4.89426e-05
4.97971e-05
5.0729e-05
5.17223e-05
5.27662e-05
5.38507e-05
5.4965e-05
5.60988e-05
5.72464e-05
5.84104e-05
5.95892e-05
6.07752e-05
6.19577e-05
6.31299e-05
6.42844e-05
6.54132e-05
6.65082e-05
6.75609e-05
6.8584e-05
6.95374e-05
7.03912e-05
7.11848e-05
7.18669e-05
7.25404e-05
7.31273e-05
7.35804e-05
7.39304e-05
7.41693e-05
7.42899e-05
7.42845e-05
7.41449e-05
7.38633e-05
7.34323e-05
7.28458e-05
7.20999e-05
7.11942e-05
7.01332e-05
6.89279e-05
6.75971e-05
6.6169e-05
6.46806e-05
6.31767e-05
6.17062e-05
6.03151e-05
5.90386e-05
5.78902e-05
5.68536e-05
5.58754e-05
5.48623e-05
5.36812e-05
5.21773e-05
4.94069e-05
4.66843e-05
4.36814e-05
4.00257e-05
3.62755e-05
3.28102e-05
2.84505e-05
2.58978e-05
2.4006e-05
2.29226e-05
1.85693e-05
9.15373e-06
3.04778e-07
5.73527e-07
2.09879e-05
4.30728e-05
5.45648e-05
5.8566e-05
5.9109e-05
5.73949e-05
5.50722e-05
5.25482e-05
5.04366e-05
4.89274e-05
4.80551e-05
4.77453e-05
4.78691e-05
4.83e-05
4.89427e-05
4.97334e-05
5.06318e-05
5.16134e-05
5.26627e-05
5.3768e-05
5.49186e-05
5.61048e-05
5.73194e-05
5.85587e-05
5.98212e-05
6.11013e-05
6.23897e-05
6.36761e-05
6.49516e-05
6.62068e-05
6.74316e-05
6.86164e-05
6.97513e-05
7.08492e-05
7.18799e-05
7.27869e-05
7.3637e-05
7.43621e-05
7.50707e-05
7.571e-05
7.62057e-05
7.65971e-05
7.68783e-05
7.70427e-05
7.70824e-05
7.6989e-05
7.67532e-05
7.63656e-05
7.58168e-05
7.50989e-05
7.42061e-05
7.31365e-05
7.18942e-05
7.04912e-05
6.89494e-05
6.73025e-05
6.55961e-05
6.38858e-05
6.22318e-05
6.06906e-05
5.93027e-05
5.80802e-05
5.6996e-05
5.59779e-05
5.4909e-05
5.36316e-05
5.16501e-05
4.85925e-05
4.58187e-05
4.22517e-05
3.82343e-05
3.41559e-05
2.99768e-05
2.60234e-05
2.35148e-05
2.23605e-05
1.85912e-05
9.63879e-06
3.57193e-07
5.93053e-07
2.12525e-05
4.34343e-05
5.50174e-05
5.90571e-05
5.97216e-05
5.80621e-05
5.5524e-05
5.29348e-05
5.08066e-05
4.93384e-05
4.85389e-05
4.83029e-05
4.84871e-05
4.89663e-05
4.96522e-05
5.04872e-05
5.14344e-05
5.2471e-05
5.35816e-05
5.47541e-05
5.59783e-05
5.72457e-05
5.85503e-05
5.98876e-05
6.12526e-05
6.26366e-05
6.40286e-05
6.54172e-05
6.67908e-05
6.81379e-05
6.94467e-05
7.07065e-05
7.19073e-05
7.30545e-05
7.41388e-05
7.509e-05
7.59719e-05
7.67207e-05
7.74407e-05
7.81149e-05
7.86382e-05
7.90576e-05
7.93705e-05
7.95714e-05
7.96534e-05
7.96079e-05
7.94253e-05
7.90947e-05
7.86042e-05
7.79422e-05
7.70977e-05
7.60625e-05
7.48326e-05
7.34111e-05
7.18111e-05
7.00583e-05
6.81934e-05
6.62726e-05
6.43643e-05
6.25422e-05
6.08731e-05
5.94011e-05
5.81315e-05
5.7019e-05
5.59635e-05
5.48155e-05
5.33427e-05
5.05302e-05
4.76944e-05
4.45824e-05
4.02191e-05
3.59395e-05
3.15642e-05
2.66898e-05
2.33645e-05
2.15062e-05
1.86496e-05
1.02437e-05
4.21765e-07
6.06842e-07
2.13779e-05
4.35757e-05
5.52491e-05
5.94504e-05
6.0105e-05
5.8541e-05
5.59132e-05
5.3281e-05
5.11544e-05
4.97325e-05
4.90006e-05
4.88298e-05
4.90681e-05
4.95938e-05
5.03247e-05
5.12077e-05
5.22084e-05
5.3305e-05
5.44821e-05
5.57279e-05
5.70327e-05
5.83885e-05
5.9789e-05
6.12277e-05
6.26962e-05
6.4183e-05
6.56752e-05
6.71587e-05
6.86199e-05
7.00449e-05
7.14212e-05
7.27373e-05
7.39839e-05
7.51537e-05
7.62622e-05
7.72543e-05
7.81377e-05
7.88925e-05
7.95975e-05
8.02886e-05
8.08231e-05
8.12552e-05
8.15867e-05
8.1814e-05
8.19314e-05
8.19314e-05
8.18044e-05
8.15389e-05
8.11216e-05
8.05378e-05
7.97722e-05
7.88104e-05
7.76404e-05
7.62557e-05
7.46582e-05
7.28625e-05
7.08994e-05
6.88189e-05
6.66905e-05
6.45984e-05
6.26315e-05
6.08658e-05
5.93449e-05
5.80598e-05
5.69368e-05
5.58351e-05
5.45513e-05
5.25385e-05
4.93541e-05
4.65624e-05
4.27244e-05
3.7689e-05
3.29525e-05
2.81148e-05
2.3723e-05
2.03517e-05
1.85147e-05
1.06661e-05
4.92284e-07
6.15113e-07
2.13757e-05
4.34914e-05
5.5261e-05
5.95975e-05
6.05279e-05
5.88806e-05
5.62398e-05
5.35923e-05
5.14814e-05
5.01075e-05
4.94373e-05
4.93245e-05
4.9613e-05
5.01851e-05
5.09635e-05
5.18982e-05
5.29567e-05
5.41178e-05
5.53664e-05
5.66909e-05
5.80816e-05
5.95305e-05
6.10296e-05
6.25698e-05
6.41393e-05
6.5724e-05
6.7308e-05
6.8875e-05
7.0409e-05
7.18949e-05
7.3319e-05
7.46699e-05
7.59385e-05
7.71174e-05
7.82167e-05
7.92339e-05
8.01027e-05
8.08455e-05
8.15089e-05
8.21946e-05
8.2725e-05
8.3154e-05
8.34893e-05
8.37302e-05
8.38731e-05
8.3912e-05
8.38381e-05
8.36404e-05
8.33049e-05
8.28148e-05
8.21517e-05
8.12956e-05
8.02274e-05
7.89307e-05
7.73957e-05
7.56236e-05
7.36314e-05
7.14573e-05
6.91641e-05
6.68383e-05
6.45832e-05
6.25033e-05
6.06814e-05
5.91523e-05
5.78828e-05
5.67641e-05
5.56202e-05
5.40738e-05
5.10102e-05
4.82186e-05
4.49108e-05
3.97676e-05
3.46175e-05
2.95984e-05
2.43226e-05
2.02648e-05
1.82055e-05
1.1163e-05
5.70863e-07
6.16761e-07
2.12497e-05
4.31813e-05
5.51605e-05
5.97491e-05
6.07195e-05
5.91323e-05
5.65116e-05
5.3873e-05
5.17883e-05
5.0462e-05
4.98475e-05
4.97873e-05
5.01238e-05
5.07431e-05
5.15715e-05
5.25614e-05
5.36815e-05
5.49111e-05
5.62352e-05
5.76422e-05
5.91221e-05
6.06657e-05
6.22629e-05
6.39014e-05
6.55662e-05
6.72399e-05
6.89041e-05
7.054e-05
7.213e-05
7.3658e-05
7.51103e-05
7.6476e-05
7.7747e-05
7.89183e-05
7.99879e-05
8.09719e-05
8.1847e-05
8.25623e-05
8.31747e-05
8.38089e-05
8.43266e-05
8.4737e-05
8.50607e-05
8.53012e-05
8.54573e-05
8.55251e-05
8.54977e-05
8.53651e-05
8.51136e-05
8.47258e-05
8.41808e-05
8.34546e-05
8.25218e-05
8.13572e-05
7.99391e-05
7.82545e-05
7.63044e-05
7.41106e-05
7.17225e-05
6.922e-05
6.67119e-05
6.43233e-05
6.21731e-05
6.03429e-05
5.88453e-05
5.76038e-05
5.64494e-05
5.51276e-05
5.2767e-05
4.96186e-05
4.68951e-05
4.22578e-05
3.6148e-05
3.07981e-05
2.51052e-05
2.05977e-05
1.79151e-05
1.17149e-05
6.51784e-07
6.14608e-07
2.10562e-05
4.28971e-05
5.49048e-05
5.97227e-05
6.08033e-05
5.93057e-05
5.67347e-05
5.41258e-05
5.20756e-05
5.07953e-05
5.02312e-05
5.02195e-05
5.06029e-05
5.12705e-05
5.21513e-05
5.31992e-05
5.43838e-05
5.56848e-05
5.7087e-05
5.85785e-05
6.01484e-05
6.17857e-05
6.34774e-05
6.5208e-05
6.69591e-05
6.87103e-05
7.04407e-05
7.21296e-05
7.37583e-05
7.53104e-05
7.67723e-05
7.81343e-05
7.93894e-05
8.05343e-05
8.15679e-05
8.24909e-05
8.33312e-05
8.40444e-05
8.45909e-05
8.51363e-05
8.56276e-05
8.60046e-05
8.63015e-05
8.65267e-05
8.66821e-05
8.67666e-05
8.67757e-05
8.6701e-05
8.65303e-05
8.62463e-05
8.58272e-05
8.52464e-05
8.44733e-05
8.34752e-05
8.22199e-05
8.06801e-05
7.88397e-05
7.67013e-05
7.42955e-05
7.16879e-05
6.89824e-05
6.6315e-05
6.38344e-05
6.16689e-05
5.98869e-05
5.84648e-05
5.72777e-05
5.61227e-05
5.43844e-05
5.09034e-05
4.8441e-05
4.44454e-05
3.81628e-05
3.23045e-05
2.65071e-05
2.07932e-05
1.71735e-05
1.22607e-05
7.25089e-07
6.08883e-07
2.08097e-05
4.2393e-05
5.45017e-05
5.956e-05
6.07865e-05
5.94083e-05
5.6914e-05
5.43532e-05
5.23437e-05
5.11074e-05
5.05891e-05
5.06229e-05
5.10524e-05
5.17694e-05
5.27044e-05
5.38123e-05
5.50635e-05
5.64373e-05
5.79186e-05
5.94945e-05
6.11528e-05
6.28799e-05
6.46599e-05
6.64738e-05
6.83001e-05
7.01157e-05
7.18974e-05
7.36235e-05
7.52745e-05
7.6834e-05
7.82896e-05
7.96322e-05
8.08565e-05
8.19604e-05
8.29449e-05
8.38131e-05
8.45724e-05
8.52625e-05
8.57606e-05
8.61939e-05
8.6641e-05
8.69711e-05
8.7227e-05
8.74223e-05
8.75628e-05
8.76503e-05
8.76833e-05
8.76559e-05
8.75579e-05
8.73733e-05
8.70807e-05
8.66519e-05
8.60533e-05
8.52461e-05
8.41889e-05
8.28414e-05
8.11705e-05
7.91585e-05
7.68135e-05
7.418e-05
7.13477e-05
6.84522e-05
6.56613e-05
6.31446e-05
6.10262e-05
5.93372e-05
5.79826e-05
5.67416e-05
5.53116e-05
5.23628e-05
4.96251e-05
4.6445e-05
4.05145e-05
3.36536e-05
2.77084e-05
2.1729e-05
1.66741e-05
1.27692e-05
7.8302e-07
5.99762e-07
2.05148e-05
4.17289e-05
5.39714e-05
5.92804e-05
6.06785e-05
5.94466e-05
5.70536e-05
5.45568e-05
5.25936e-05
5.13992e-05
5.09226e-05
5.09993e-05
5.14746e-05
5.22415e-05
5.32317e-05
5.44007e-05
5.57189e-05
5.71657e-05
5.87251e-05
6.03832e-05
6.21258e-05
6.39366e-05
6.57964e-05
6.76832e-05
6.95724e-05
7.14386e-05
7.32573e-05
7.50057e-05
7.66644e-05
7.82176e-05
7.96535e-05
8.09644e-05
8.21463e-05
8.31987e-05
8.41238e-05
8.49263e-05
8.5613e-05
8.62114e-05
8.66974e-05
8.70119e-05
8.73884e-05
8.76614e-05
8.78638e-05
8.80159e-05
8.81276e-05
8.82042e-05
8.82473e-05
8.82542e-05
8.82172e-05
8.81227e-05
8.79506e-05
8.76729e-05
8.72542e-05
8.66518e-05
8.58167e-05
8.46977e-05
8.32458e-05
8.14229e-05
7.92128e-05
7.66342e-05
7.37546e-05
7.06976e-05
6.76385e-05
6.47795e-05
6.23023e-05
6.03087e-05
5.87709e-05
5.75083e-05
5.61875e-05
5.38746e-05
5.06808e-05
4.80182e-05
4.27032e-05
3.50751e-05
2.88383e-05
2.23501e-05
1.67464e-05
1.30776e-05
8.15856e-07
5.87245e-07
2.01327e-05
4.09956e-05
5.33368e-05
5.8896e-05
6.04878e-05
5.94266e-05
5.71568e-05
5.47385e-05
5.28263e-05
5.16718e-05
5.12335e-05
5.13508e-05
5.18708e-05
5.26875e-05
5.3733e-05
5.4963e-05
5.63476e-05
5.78657e-05
5.95005e-05
6.12366e-05
6.30573e-05
6.49437e-05
6.68735e-05
6.88216e-05
7.07611e-05
7.26647e-05
7.4507e-05
7.62649e-05
7.79192e-05
7.94549e-05
8.08612e-05
8.21315e-05
8.32631e-05
8.42566e-05
8.51155e-05
8.58461e-05
8.64565e-05
8.69568e-05
8.7377e-05
8.76487e-05
8.78976e-05
8.81081e-05
8.82468e-05
8.83442e-05
8.84146e-05
8.84669e-05
8.85062e-05
8.8533e-05
8.85431e-05
8.85256e-05
8.84629e-05
8.83284e-05
8.80868e-05
8.76931e-05
8.70933e-05
8.62271e-05
8.50316e-05
8.34496e-05
8.14402e-05
7.89938e-05
7.61488e-05
7.30071e-05
6.97379e-05
6.65627e-05
6.37114e-05
6.13559e-05
5.9543e-05
5.81593e-05
5.69511e-05
5.52303e-05
5.1722e-05
4.92867e-05
4.46162e-05
3.71595e-05
2.99748e-05
2.3134e-05
1.70352e-05
1.32332e-05
8.29623e-07
5.72314e-07
1.9729e-05
4.01822e-05
5.26102e-05
5.84184e-05
6.02227e-05
5.93534e-05
5.72265e-05
5.48997e-05
5.30429e-05
5.19269e-05
5.15235e-05
5.16787e-05
5.22421e-05
5.31077e-05
5.42076e-05
5.5497e-05
5.69458e-05
5.85321e-05
6.02379e-05
6.20458e-05
6.3937e-05
6.58897e-05
6.78787e-05
6.98764e-05
7.18539e-05
7.37828e-05
7.56371e-05
7.73938e-05
7.90343e-05
8.05443e-05
8.19141e-05
8.31382e-05
8.42147e-05
8.51453e-05
8.59346e-05
8.65896e-05
8.71197e-05
8.75363e-05
8.78544e-05
8.8077e-05
8.82141e-05
8.83493e-05
8.84158e-05
8.84491e-05
8.84677e-05
8.8484e-05
8.85063e-05
8.85388e-05
8.85807e-05
8.86248e-05
8.86565e-05
8.86521e-05
8.85775e-05
8.83877e-05
8.80258e-05
8.74249e-05
8.65108e-05
8.52092e-05
8.34554e-05
8.12105e-05
7.84801e-05
7.53354e-05
7.19274e-05
6.84828e-05
6.52692e-05