/*--------------------------------*- C++ -*----------------------------------*\
  =========                 |
  \\      /  F ield         | OpenFOAM: The Open Source CFD Toolbox
   \\    /   O peration     | Website:  https://openfoam.org
    \\  /    A nd           | Version:  13
     \\/     M anipulation  |
\*---------------------------------------------------------------------------*/
FoamFile
{
    format      ascii;
    class       volScalarField;
    location    "3";
    object      p;
}
// * * * * * * * * * * * * * * * * * * * * * * * * * * * * * * * * * * * * * //

dimensions      [0 2 -2 0 0 0 0];

internalField   nonuniform List<scalar> 
6400
(
3.18138e-08
1.22638e-05
1.41531e-05
-1.36854e-06
-3.687e-05
-8.94581e-05
-0.000153866
-0.000224767
-0.000298165
-0.000372233
-0.000446779
-0.000523107
-0.000603623
-0.000691041
-0.000788144
-0.000897591
-0.0010217
-0.00116237
-0.0013211
-0.00149876
-0.00169559
-0.00191243
-0.00215072
-0.00241279
-0.00270225
-0.00302122
-0.00336778
-0.00373802
-0.00412339
-0.00450724
-0.00487953
-0.00523803
-0.00557826
-0.00589509
-0.00618358
-0.00643848
-0.00665397
-0.00682344
-0.00693969
-0.00699521
-0.00698244
-0.00689392
-0.00672271
-0.0064631
-0.00611131
-0.00566602
-0.00512714
-0.0044888
-0.00374444
-0.00290967
-0.00199765
-0.00101347
2.68839e-05
0.00110661
0.00220289
0.00329039
0.00433963
0.00531828
0.00619226
0.00692824
0.00749717
0.00787796
0.00806001
0.00804523
0.00784849
0.00748645
0.00701839
0.00648278
0.00593084
0.00541029
0.00495082
0.0045793
0.00431267
0.00413374
0.00402626
0.00397492
0.00396221
0.00397249
0.00399451
0.00401548
-9.92098e-06
2.32251e-06
1.83897e-06
-1.612e-05
-5.27816e-05
-0.000104859
-0.000166735
-0.000233595
-0.000302142
-0.000371148
-0.00044067
-0.000512268
-0.000588262
-0.000671061
-0.000763338
-0.00086787
-0.000986972
-0.00112223
-0.00127495
-0.00144578
-0.00163427
-0.00184101
-0.00206788
-0.00231608
-0.00258714
-0.00288406
-0.00321
-0.0035653
-0.00394588
-0.00434181
-0.00473701
-0.00511895
-0.00548208
-0.00582214
-0.00613388
-0.00641133
-0.00664826
-0.00683786
-0.00697303
-0.00704645
-0.00705106
-0.00698014
-0.00682745
-0.0065876
-0.00625657
-0.00583206
-0.00531223
-0.00469512
-0.00398454
-0.00318812
-0.00230794
-0.00135724
-0.000349858
0.000696535
0.00176061
0.00281734
0.00383766
0.00479032
0.00564421
0.00636957
0.0069387
0.00733001
0.00753285
0.00754812
0.00738873
0.0070789
0.0066594
0.00617489
0.00567313
0.00519797
0.00478441
0.00445733
0.00422213
0.00407386
0.00399775
0.00397662
0.00398487
0.00400339
0.00402502
0.00404557
-1.64923e-05
-3.75643e-06
-7.31084e-06
-2.99072e-05
-7.04514e-05
-0.000123584
-0.000183088
-0.000244546
-0.000305775
-0.000367105
-0.000428991
-0.000493171
-0.000561939
-0.000637491
-0.000722014
-0.000817396
-0.000925453
-0.00104812
-0.00118701
-0.00134391
-0.00152099
-0.00171965
-0.0019421
-0.00219178
-0.0024713
-0.00278227
-0.00312491
-0.00349696
-0.00389375
-0.00430766
-0.00472728
-0.00514061
-0.0055379
-0.00591086
-0.00625321
-0.00655875
-0.00682103
-0.00703344
-0.00718931
-0.00728193
-0.00730483
-0.00725207
-0.00711828
-0.00689868
-0.00658968
-0.00618934
-0.0056969
-0.00511045
-0.00443009
-0.00366519
-0.00282078
-0.00190675
-0.000935921
7.53858e-05
0.00110721
0.00213609
0.00313513
0.00407458
0.00492339
0.0056531
0.00623739
0.00665463
0.00689267
0.00695174
0.00684318
0.00659074
0.00623032
0.005805
0.00535827
0.00493484
0.00456618
0.00427492
0.00407762
0.00396678
0.00392207
0.00392532
0.00395457
0.0039894
0.00402286
0.00405142
-1.35438e-05
-2.1679e-06
-9.8542e-06
-3.80733e-05
-8.36212e-05
-0.000138365
-0.000196017
-0.000252837
-0.00030757
-0.000359791
-0.000411909
-0.000466205
-0.000525231
-0.000591243
-0.000666201
-0.000751889
-0.000850194
-0.000963289
-0.00109369
-0.00124425
-0.00141881
-0.00162173
-0.00185696
-0.00212845
-0.00243755
-0.00278429
-0.0031674
-0.00358251
-0.00402173
-0.00447457
-0.00493055
-0.00537923
-0.00581027
-0.00621454
-0.0065848
-0.00691446
-0.00719731
-0.00742736
-0.00759837
-0.00770433
-0.00773955
-0.00769879
-0.00757743
-0.00737144
-0.00707781
-0.0066947
-0.00622117
-0.00565648
-0.00500224
-0.0042632
-0.00344506
-0.00255675
-0.00160992
-0.000619455
0.000396515
0.00141601
0.00241325
0.00335975
0.00422537
0.00498074
0.0055994
0.00605867
0.00634442
0.00645441
0.00639851
0.00619769
0.00588479
0.00550154
0.00509274
0.00470033
0.00435889
0.00409141
0.0039117
0.00381641
0.0037949
0.00382148
0.00387153
0.00392714
0.00397748
0.00401419
3.85689e-06
1.04463e-05
-2.92107e-06
-3.70946e-05
-8.76509e-05
-0.000144211
-0.000200316
-0.00025277
-0.000300876
-0.000345521
-0.000389089
-0.000434349
-0.000484308
-0.000541578
-0.000608586
-0.000687763
-0.000781901
-0.000894388
-0.00102961
-0.00119238
-0.00138761
-0.00162045
-0.00189335
-0.00220874
-0.00256799
-0.00296889
-0.00340621
-0.00387261
-0.0043582
-0.00485152
-0.00534186
-0.00581913
-0.00627455
-0.00670059
-0.0070896
-0.00743503
-0.00773116
-0.00797233
-0.00815275
-0.00826689
-0.00830992
-0.0082776
-0.00816606
-0.00797184
-0.00769214
-0.00732514
-0.00687014
-0.00632689
-0.00569654
-0.00498213
-0.0041885
-0.00332332
-0.00239731
-0.00142369
-0.000418368
0.000598236
0.00160154
0.00256493
0.00345979
0.00425567
0.00492555
0.00544533
0.00579802
0.00597552
0.00598494
0.00584614
0.00558841
0.00525006
0.00487598
0.00450936
0.00418641
0.00393152
0.00375935
0.00367153
0.00365571
0.00369172
0.00375497
0.00382552
0.00388875
0.00393063
4.08186e-05
3.92728e-05
1.83648e-05
-2.36705e-05
-7.91244e-05
-0.00013701
-0.000191639
-0.000240492
-0.000283352
-0.000322001
-0.000359263
-0.000398421
-0.000442871
-0.000495902
-0.000560902
-0.000641727
-0.000742921
-0.000869691
-0.00102783
-0.00122384
-0.00146159
-0.00174437
-0.00207525
-0.00245437
-0.00287832
-0.00334015
-0.00383153
-0.00434384
-0.00486803
-0.00539415
-0.00591201
-0.00641181
-0.00688553
-0.00732631
-0.00772747
-0.00808313
-0.00838766
-0.00863573
-0.0088223
-0.00894198
-0.00899103
-0.00896674
-0.00886573
-0.00868505
-0.00842228
-0.0080758
-0.00764449
-0.00712802
-0.00652721
-0.0058436
-0.00508054
-0.00424417
-0.00334418
-0.0023918
-0.00140119
-0.000391532
0.000616081
0.00159726
0.00252507
0.00336893
0.00410123
0.0046967
0.00513485
0.00540411
0.00550348
0.00544844
0.00526756
0.00499522
0.00467273
0.0043437
0.00404577
0.00380653
0.00364181
0.00355482
0.0035369
0.00357089
0.00363464
0.00370668
0.00377229
0.00381408
0.000102509
9.06334e-05
5.9268e-05
7.1907e-06
-5.28043e-05
-0.000111856
-0.000165421
-0.000211742
-0.00025152
-0.000287138
-0.000321996
-0.000359974
-0.000405162
-0.000461879
-0.000534984
-0.000630388
-0.000754339
-0.000913582
-0.00111433
-0.00136149
-0.00165994
-0.00201106
-0.00241355
-0.00286194
-0.00334857
-0.00386577
-0.00440564
-0.00495888
-0.00551624
-0.00606873
-0.0066075
-0.00712401
-0.00761095
-0.00806189
-0.00847107
-0.00883304
-0.00914192
-0.00939288
-0.00958166
-0.00970555
-0.00976246
-0.00974891
-0.00966142
-0.00949751
-0.00925543
-0.00893377
-0.00853041
-0.0080448
-0.00747766
-0.00683102
-0.00610841
-0.00531468
-0.0044553
-0.00353905
-0.0025782
-0.00158608
-0.000579807
0.000416362
0.00137382
0.00226688
0.00306819
0.00375105
0.0042915
0.00467478
0.00489375
0.00495485
0.00487989
0.00470107
0.00445584
0.00418543
0.00392822
0.00371403
0.00356109
0.00347515
0.00345118
0.00347562
0.003529
0.00359171
0.00364776
0.00368218
0.000192772
0.00016899
0.000123607
6.16979e-05
-4.02105e-06
-6.45189e-05
-0.000117962
-0.000163777
-0.000203567
-0.000240489
-0.00027863
-0.00032263
-0.000377598
-0.000449235
-0.000544183
-0.000669985
-0.000834491
-0.00104377
-0.00130439
-0.00162073
-0.00199407
-0.00242007
-0.0028929
-0.00340594
-0.00395068
-0.00451841
-0.0051007
-0.0056886
-0.00627346
-0.00684705
-0.00740164
-0.00792997
-0.00842549
-0.00888231
-0.00929515
-0.0096586
-0.00996808
-0.0102201
-0.0104122
-0.0105435
-0.0106105
-0.0106086
-0.0105353
-0.0103885
-0.0101667
-0.00986913
-0.00949482
-0.00904345
-0.00851579
-0.00791373
-0.0072401
-0.00649815
-0.00569013
-0.0048215
-0.00390159
-0.00294235
-0.0019603
-0.000972706
6.84958e-07
0.000939263
0.00180989
0.00258488
0.00324021
0.00375627
0.00411988
0.00432869
0.00439379
0.00434031
0.00420152
0.004015
0.00381856
0.00364371
0.00351139
0.00343071
0.00340005
0.00340993
0.00344551
0.00349121
0.00352779
0.00354919
0.000313908
0.000276942
0.000214712
0.000141532
7.05477e-05
7.1119e-06
-4.81003e-05
-9.62987e-05
-0.000140353
-0.000184364
-0.000233263
-0.000292666
-0.000368903
-0.000469022
-0.000601301
-0.000774739
-0.000996292
-0.00127238
-0.00160821
-0.00200325
-0.00245295
-0.00295174
-0.00349192
-0.00406477
-0.00466116
-0.00527244
-0.00589026
-0.00650639
-0.00711301
-0.00770273
-0.00826866
-0.00880442
-0.00930425
-0.00976279
-0.0101753
-0.0105382
-0.0108494
-0.0111054
-0.0113034
-0.0114401
-0.0115124
-0.0115187
-0.0114575
-0.0113272
-0.0111267
-0.0108554
-0.0105128
-0.010099
-0.00961396
-0.00905865
-0.0084343
-0.00774277
-0.00698791
-0.00617481
-0.00531009
-0.00440254
-0.00346185
-0.00249666
-0.00152318
-0.000566853
0.000353139
0.00121373
0.00198449
0.00264058
0.00316504
0.00354588
0.003782
0.00388692
0.00388613
0.00381134
0.00369788
0.00357896
0.00347859
0.00340972
0.00337514
0.00336937
0.00338294
0.00340421
0.00341711
0.00342323
0.00046812
0.000414578
0.00033393
0.000247197
0.000169271
0.00010166
4.22496e-05
-1.21722e-05
-6.59066e-05
-0.000124153
-0.000192842
-0.000278652
-0.000388989
-0.000532236
-0.000717814
-0.000954421
-0.00124844
-0.0016038
-0.00202042
-0.00249462
-0.00301972
-0.0035875
-0.00418857
-0.00481394
-0.00545464
-0.00610244
-0.00674935
-0.00738785
-0.0080109
-0.00861191
-0.00918481
-0.00972411
-0.0102249
-0.0106827
-0.0110938
-0.0114552
-0.0117642
-0.012018
-0.0122147
-0.0123518
-0.0124277
-0.012441
-0.0123909
-0.0122764
-0.0120968
-0.0118517
-0.0115409
-0.0111643
-0.0107222
-0.0102152
-0.00964404
-0.00900974
-0.00831459
-0.0075617
-0.00675494
-0.00589924
-0.0050013
-0.00407292
-0.00312586
-0.00217243
-0.00122408
-0.000306723
0.000557618
0.00134646
0.00203085
0.00259386
0.00302253
0.00331497
0.00348358
0.0035509
0.00354574
0.00350089
0.00344497
0.00339552
0.0033608
0.00334085
0.00333154
0.00332506
0.00331456
0.00330624
0.00065093
0.00057936
0.000476979
0.000374634
0.000288394
0.000214668
0.000147838
8.24484e-05
1.26092e-05
-6.80985e-05
-0.000166646
-0.000290625
-0.000448404
-0.000649194
-0.000902301
-0.00121517
-0.00159119
-0.00202998
-0.00252867
-0.00308016
-0.00367537
-0.00430512
-0.00495975
-0.00563032
-0.00630831
-0.00698589
-0.00765562
-0.00831064
-0.00894459
-0.00955167
-0.0101266
-0.0106649
-0.0111622
-0.011615
-0.0120202
-0.0123755
-0.0126784
-0.0129272
-0.0131203
-0.0132563
-0.0133341
-0.0133529
-0.013312
-0.0132111
-0.0130495
-0.0128281
-0.0125461
-0.0122037
-0.0118014
-0.0113398
-0.0108192
-0.0102407
-0.00960525
-0.00891468
-0.00817101
-0.00737673
-0.00653559
-0.00565374
-0.00473809
-0.0037978
-0.00284874
-0.00190289
-0.000972238
-8.38724e-05
0.000741563
0.00147764
0.00210255
0.00260036
0.00296554
0.00320559
0.00333842
0.00339036
0.00339305
0.00337158
0.00334095
0.00330903
0.00327785
0.00324496
0.00321363
0.00319262
0.000854036
0.000764237
0.000636875
0.000517305
0.000420936
0.000338478
0.000260287
0.00017845
8.53654e-05
-2.66333e-05
-0.000165402
-0.000339205
-0.00055704
-0.000827957
-0.00115972
-0.00155647
-0.00201802
-0.00254103
-0.00311864
-0.00374158
-0.00440001
-0.0050843
-0.00578502
-0.00649354
-0.00720178
-0.00790239
-0.00858852
-0.00925396
-0.00989309
-0.0105009
-0.011073
-0.0116056
-0.0120952
-0.012539
-0.0129348
-0.0132806
-0.0135749
-0.0138164
-0.014004
-0.014137
-0.0142146
-0.0142365
-0.0142026
-0.0141127
-0.0139674
-0.0137655
-0.0135084
-0.0131963
-0.0128297
-0.012409
-0.0119347
-0.0114073
-0.0108276
-0.0101962
-0.00951412
-0.00878231
-0.00800245
-0.00717699
-0.00630899
-0.00540313
-0.004467
-0.00350969
-0.00254669
-0.00159071
-0.000658021
0.000222063
0.00102659
0.00172892
0.00230575
0.00274438
0.00304587
0.00322429
0.003306
0.00332383
0.00330277
0.00326095
0.00320966
0.00315325
0.00310494
0.00307384
0.00106899
0.00095917
0.000804667
0.000665589
0.000557043
0.000462712
0.000368689
0.000264483
0.000140719
-1.14287e-05
-0.00020031
-0.000434634
-0.000723159
-0.00107338
-0.0014901
-0.00197376
-0.00252064
-0.00312388
-0.00377436
-0.00446167
-0.00517574
-0.00590692
-0.00664616
-0.00738523
-0.00811658
-0.00883337
-0.0095294
-0.0101992
-0.0108379
-0.0114415
-0.0120062
-0.012529
-0.0130073
-0.0134391
-0.0138227
-0.0141569
-0.0144406
-0.014673
-0.0148535
-0.0149818
-0.0150576
-0.0150809
-0.0150517
-0.0149704
-0.0148373
-0.0146527
-0.0144172
-0.0141313
-0.0137957
-0.0134111
-0.0129778
-0.0124963
-0.0119669
-0.0113899
-0.0107653
-0.0100931
-0.00937335
-0.00860626
-0.00779237
-0.00693305
-0.00603086
-0.00508981
-0.00411694
-0.00312203
-0.0021221
-0.00113263
-0.000180599
0.000704657
0.00148943
0.00214051
0.0026363
0.00297302
0.0031636
0.00323879
0.00323699
0.00318881
0.00311884
0.00304178
0.00297993
0.00294077
0.00128282
0.00115187
0.000968099
0.00080792
0.000684763
0.000575046
0.000460436
0.000327766
0.000165896
-3.44951e-05
-0.000282044
-0.000585609
-0.000952192
-0.00138691
-0.0018907
-0.00246003
-0.00308787
-0.00376504
-0.00448095
-0.0052248
-0.00598653
-0.00675673
-0.00752679
-0.00828897
-0.00903629
-0.00976252
-0.0104622
-0.0111307
-0.0117641
-0.0123589
-0.0129124
-0.0134223
-0.0138867
-0.0143043
-0.0146741
-0.0149953
-0.0152672
-0.0154896
-0.0156621
-0.0157848
-0.0158576
-0.0158809
-0.0158549
-0.0157801
-0.0156571
-0.0154865
-0.015269
-0.0150053
-0.0146963
-0.0143426
-0.0139448
-0.0135033
-0.0130184
-0.0124898
-0.0119173
-0.0113001
-0.0106371
-0.00992699
-0.00916849
-0.00836037
-0.00750194
-0.00659356
-0.00563708
-0.00463654
-0.00360027
-0.00254119
-0.00148057
-0.000447813
0.000520377
0.00137959
0.00208476
0.00260685
0.0029403
0.00310205
0.00313481
0.0030882
0.00300175
0.00290607
0.00283158
0.00278409
0.00148058
0.00132817
0.00111408
0.000931252
0.000790939
0.000662206
0.000522149
0.000354956
0.000148701
-0.000106235
-0.000419545
-0.000798026
-0.00124666
-0.00176701
-0.00235576
-0.00300603
-0.00370828
-0.00445163
-0.00522477
-0.00601686
-0.00681805
-0.00761929
-0.0084125
-0.00919049
-0.00994693
-0.0106763
-0.0113742
-0.0120366
-0.0126604
-0.013243
-0.0137825
-0.0142773
-0.0147263
-0.0151287
-0.0154839
-0.0157915
-0.0160514
-0.0162635
-0.0164278
-0.0165445
-0.0166138
-0.0166363
-0.0166123
-0.0165425
-0.0164275
-0.0162683
-0.0160657
-0.0158205
-0.0155337
-0.0152061
-0.0148383
-0.014431
-0.0139842
-0.0134977
-0.0129711
-0.012403
-0.0117918
-0.0111353
-0.0104308
-0.00967526
-0.00886556
-0.00799895
-0.0070737
-0.00608968
-0.00504894
-0.00395781
-0.00283067
-0.00169208
-0.000577908
0.000464649
0.00137711
0.00210373
0.00261027
0.00289362
0.00298755
0.00295552
0.00285785
0.00274393
0.00265404
0.00259636
0.00164862
0.00147322
0.00122883
0.00102226
0.000862436
0.000711131
0.000540964
0.000334576
7.9539e-05
-0.000235592
-0.000618758
-0.00107481
-0.00160597
-0.00220916
-0.00287781
-0.00360216
-0.00437079
-0.00517174
-0.00599345
-0.00682528
-0.00765769
-0.00848212
-0.00929107
-0.010078
-0.0108374
-0.0115645
-0.0122558
-0.0129082
-0.0135193
-0.0140874
-0.0146112
-0.0150899
-0.0155229
-0.0159098
-0.0162505
-0.016545
-0.0167932
-0.0169954
-0.0171518
-0.0172626
-0.0173284
-0.0173496
-0.0173268
-0.0172609
-0.0171525
-0.0170025
-0.016812
-0.016582
-0.0163135
-0.0160075
-0.0156647
-0.0152858
-0.0148711
-0.0144203
-0.013933
-0.0134077
-0.0128426
-0.0122348
-0.0115808
-0.0108764
-0.010117
-0.00929749
-0.00841319
-0.00746046
-0.00643724
-0.00534435
-0.00418869
-0.0029872
-0.0017701
-0.000582646
0.000514251
0.00144692
0.00215055
0.00259089
0.00278085
0.00278499
0.002686
0.0025535
0.00244187
0.00237227
0.00176882
0.00157272
0.00129912
0.00106839
0.000887012
0.000709842
0.000505944
0.000257333
-5.04452e-05
-0.000428677
-0.000883017
-0.00141651
-0.00202674
-0.00270741
-0.00344881
-0.0042389
-0.00506494
-0.00591447
-0.00677595
-0.00763906
-0.00849467
-0.0093348
-0.0101526
-0.0109424
-0.0116993
-0.0124198
-0.0131009
-0.0137404
-0.0143368
-0.0148891
-0.0153967
-0.0158591
-0.0162764
-0.0166484
-0.0169754
-0.0172575
-0.0174949
-0.017688
-0.0178372
-0.0179427
-0.0180051
-0.0180251
-0.0180032
-0.0179402
-0.017837
-0.0176946
-0.017514
-0.0172964
-0.0170428
-0.0167543
-0.0164319
-0.0160763
-0.015688
-0.0152669
-0.0148126
-0.0143237
-0.0137983
-0.0132334
-0.0126252
-0.0119688
-0.0112585
-0.0104877
-0.00964984
-0.0087382
-0.00774762
-0.00667473
-0.00552027
-0.00429346
-0.00301606
-0.0017269
-0.00048366
0.000636141
0.00154348
0.00216993
0.00249546
0.00256717
0.00248073
0.00233154
0.00219133
0.00210898
0.00182992
0.00161465
0.0013136
0.00105882
0.00085412
0.000648256
0.000408888
0.000115897
-0.000247177
-0.000688803
-0.00121331
-0.00182036
-0.00250402
-0.00325481
-0.00406033
-0.00490692
-0.00578103
-0.00667002
-0.00756259
-0.0084488
-0.00932005
-0.010169
-0.0109896
-0.011777
-0.0125273
-0.0132376
-0.013906
-0.0145309
-0.0151117
-0.0156478
-0.0161392
-0.0165861
-0.0169885
-0.0173467
-0.0176612
-0.0179321
-0.01816
-0.0183451
-0.018488
-0.018589
-0.0186486
-0.0186674
-0.0186462
-0.0185856
-0.0184868
-0.0183505
-0.0181779
-0.0179703
-0.0177287
-0.0174543
-0.0171483
-0.0168114
-0.0164444
-0.0160475
-0.0156202
-0.0151616
-0.0146698
-0.0141419
-0.013574
-0.012961
-0.0122968
-0.011574
-0.0107844
-0.00991956
-0.00897137
-0.00793358
-0.00680209
-0.00557912
-0.00427822
-0.00292863
-0.00158149
-0.000310918
0.000787553
0.00161639
0.00211093
0.00228464
0.00223462
0.0020743
0.00190011
0.0018057
0.00182124
0.00158911
0.00126324
0.00098508
0.000755695
0.000520253
0.000244082
-9.54788e-05
-0.000512794
-0.00101571
-0.00160691
-0.00228174
-0.00303144
-0.00384362
-0.00470384
-0.00559733
-0.00651013
-0.0074297
-0.00834504
-0.00924671
-0.0101267
-0.0109785
-0.0117968
-0.0125776
-0.0133179
-0.0140157
-0.0146698
-0.0152794
-0.0158443
-0.0163647
-0.0168409
-0.0172731
-0.017662
-0.018008
-0.0183114
-0.0185727
-0.0187924
-0.0189709
-0.0191085
-0.0192057
-0.0192631
-0.0192811
-0.0192606
-0.0192022
-0.0191068
-0.0189756
-0.0188095
-0.0186098
-0.0183778
-0.0181146
-0.0178216
-0.0174996
-0.0171495
-0.0167718
-0.0163662
-0.0159322
-0.0154681
-0.0149713
-0.0144381
-0.0138635
-0.0132412
-0.0125636
-0.0118217
-0.0110059
-0.0101059
-0.00911279
-0.00801959
-0.00682237
-0.00552696
-0.00415327
-0.00274187
-0.0013615
-0.000103877
0.000919613
0.00160738
0.0019232
0.00193723
0.00177542
0.00156924
0.00146204
0.00173509
0.00148908
0.00114179
0.0008415
0.00058716
0.000321773
8.12041e-06
-0.000376924
-0.000846258
-0.00140715
-0.00205899
-0.00279438
-0.00360154
-0.00446569
-0.00537092
-0.00630179
-0.00724424
-0.00818596
-0.00911636
-0.0100266
-0.0109093
-0.0117588
-0.0125707
-0.0133417
-0.0140698
-0.0147537
-0.0153927
-0.015987
-0.0165367
-0.0170422
-0.0175043
-0.0179235
-0.0183005
-0.0186357
-0.0189297
-0.019183
-0.019396
-0.019569
-0.0197025
-0.0197969
-0.0198526
-0.0198702
-0.0198504
-0.0197939
-0.0197016
-0.0195745
-0.0194137
-0.0192204
-0.0189959
-0.0187415
-0.0184585
-0.0181481
-0.0178112
-0.0174484
-0.01706
-0.0166455
-0.0162037
-0.0157325
-0.0152284
-0.0146869
-0.0141018
-0.0134656
-0.012769
-0.0120018
-0.0111524
-0.0102097
-0.0091643
-0.00800855
-0.00674062
-0.00537194
-0.00393189
-0.0024806
-0.00110482
9.00825e-05
0.000977285
0.0014659
0.00157219
0.0014266
0.00120099
0.0010778
0.00156734
0.00131099
0.000946254
0.000625792
0.000347355
5.18354e-05
-0.000299
-0.000726471
-0.00124397
-0.00185754
-0.00256318
-0.00335089
-0.00420631
-0.00511282
-0.00605352
-0.00701264
-0.00797624
-0.00893234
-0.00987089
-0.0107836
-0.011664
-0.0125072
-0.0133094
-0.0140684
-0.0147829
-0.0154522
-0.0160763
-0.0166558
-0.0171911
-0.0176832
-0.0181327
-0.0185405
-0.0189072
-0.0192334
-0.0195197
-0.0197665
-0.0199741
-0.0201429
-0.0202733
-0.0203657
-0.0204204
-0.020438
-0.020419
-0.0203643
-0.0202746
-0.0201509
-0.0199943
-0.0198061
-0.0195875
-0.0193399
-0.0190647
-0.0187631
-0.0184362
-0.0180849
-0.0177097
-0.0173103
-0.0168862
-0.0164355
-0.0159553
-0.0154417
-0.0148888
-0.0142895
-0.0136348
-0.0129139
-0.0121151
-0.0112255
-0.0102333
-0.00912879
-0.00790472
-0.00656343
-0.00512386
-0.00363466
-0.00218139
-0.000852854
0.000216744
0.000894214
0.00112901
0.00102223
0.000795096
0.000649825
0.00131745
0.00105465
0.000676798
0.000338712
3.70913e-05
-0.000287608
-0.000672804
-0.00113934
-0.00170067
-0.00236022
-0.00311191
-0.00394317
-0.00483752
-0.00577697
-0.00674405
-0.00772294
-0.00869993
-0.00966349
-0.0106041
-0.0115143
-0.0123883
-0.0132218
-0.0140122
-0.0147578
-0.015458
-0.0161127
-0.0167225
-0.0172881
-0.0178104
-0.0182905
-0.0187291
-0.0191271
-0.0194852
-0.0198041
-0.0200842
-0.0203259
-0.0205295
-0.0206953
-0.0208236
-0.0209146
-0.0209689
-0.0209868
-0.0209689
-0.0209158
-0.0208284
-0.0207076
-0.0205544
-0.0203702
-0.0201562
-0.0199138
-0.0196444
-0.0193493
-0.0190299
-0.0186871
-0.0183218
-0.017934
-0.0175234
-0.0170888
-0.016628
-0.0161373
-0.0156118
-0.0150448
-0.0144276
-0.0137499
-0.0129997
-0.0121633
-0.0112271
-0.0101793
-0.00900989
-0.00771356
-0.00629862
-0.00479803
-0.00330245
-0.00188266
-0.00065944
0.000205312
0.00059516
0.00055529
0.000343489
0.000170842
0.000988067
0.000723152
0.000336467
-1.64623e-05
-0.000339496
-0.000691454
-0.00110768
-0.00160904
-0.00220852
-0.00290715
-0.0036968
-0.00456277
-0.00548695
-0.00645046
-0.00743554
-0.00842651
-0.00941001
-0.010375
-0.0113127
-0.0122162
-0.0130805
-0.0139022
-0.0146793
-0.0154108
-0.0160966
-0.0167373
-0.0173336
-0.0178865
-0.0183973
-0.0188668
-0.0192961
-0.019686
-0.0200372
-0.0203503
-0.0206256
-0.0208635
-0.0210642
-0.021228
-0.021355
-0.0214456
-0.0214999
-0.0215184
-0.0215017
-0.0214502
-0.0213648
-0.0212464
-0.0210961
-0.020915
-0.0207044
-0.0204658
-0.0202007
-0.0199104
-0.0195963
-0.0192597
-0.0189015
-0.0185222
-0.0181219
-0.0176997
-0.017254
-0.016782
-0.0162792
-0.0157398
-0.0151559
-0.0145174
-0.0138126
-0.0130278
-0.0121482
-0.0111597
-0.010051
-0.00881226
-0.0074421
-0.00595616
-0.0044354
-0.00296721
-0.00162963
-0.000596742
-3.8429e-05
2.20658e-05
-0.000162128
-0.000368773
0.000585331
0.000321873
-6.91834e-05
-0.000434182
-0.000776232
-0.00115206
-0.00159579
-0.00212769
-0.00275904
-0.0034895
-0.00430902
-0.00520119
-0.00614669
-0.00712611
-0.00812166
-0.00911792
-0.010102
-0.0110634
-0.011994
-0.0128876
-0.0137399
-0.0145482
-0.0153112
-0.0160285
-0.0167005
-0.0173278
-0.0179117
-0.0184534
-0.018954
-0.0194146
-0.0198361
-0.0202195
-0.0205652
-0.0208738
-0.0211456
-0.0213809
-0.0215798
-0.0217425
-0.021869
-0.0219596
-0.0220144
-0.0220339
-0.0220184
-0.0219686
-0.021885
-0.0217687
-0.0216206
-0.0214419
-0.0212339
-0.0209981
-0.0207359
-0.0204489
-0.0201385
-0.0198061
-0.0194529
-0.0190796
-0.0186867
-0.0182738
-0.0178398
-0.0173825
-0.0168985
-0.0163823
-0.0158271
-0.0152237
-0.0145605
-0.0138243
-0.0129998
-0.0120716
-0.0110263
-0.00985219
-0.00854148
-0.00709875
-0.00556425
-0.00407829
-0.00267314
-0.00150646
-0.00078006
-0.000589015
-0.000730866
-0.000978759
0.000117996
-0.000141789
-0.00053297
-0.000906704
-0.00126483
-0.0016612
-0.00212859
-0.00268588
-0.00334295
-0.0040981
-0.00493974
-0.00585015
-0.00680922
-0.0077973
-0.00879674
-0.0097925
-0.0107722
-0.0117259
-0.0126462
-0.0135275
-0.0143662
-0.0151604
-0.0159091
-0.0166124
-0.0172711
-0.0178862
-0.018459
-0.0189907
-0.0194825
-0.0199357
-0.0203509
-0.0207291
-0.0210707
-0.0213761
-0.0216455
-0.0218792
-0.0220771
-0.0222394
-0.0223661
-0.0224573
-0.022513
-0.0225337
-0.0225196
-0.0224713
-0.0223895
-0.0222749
-0.0221286
-0.0219517
-0.0217456
-0.0215116
-0.0212514
-0.0209665
-0.0206584
-0.0203286
-0.0199786
-0.0196094
-0.0192216
-0.0188154
-0.0183902
-0.0179445
-0.0174754
-0.0169786
-0.016448
-0.0158753
-0.0152497
-0.0145585
-0.0137865
-0.0129174
-0.0119359
-0.0108299
-0.00958724
-0.0082032
-0.00668829
-0.00519237
-0.00376394
-0.00250411
-0.00162963
-0.00129739
-0.00137808
-0.00167458
-0.000404539
-0.000658379
-0.00104544
-0.00142461
-0.00179585
-0.00220943
-0.00269646
-0.00327395
-0.00395071
-0.00472377
-0.00558035
-0.00650181
-0.00746759
-0.00845803
-0.00945578
-0.0104462
-0.0114175
-0.0123604
-0.0132679
-0.0141353
-0.0149596
-0.0157392
-0.0164738
-0.0171638
-0.0178102
-0.0184141
-0.0189769
-0.0195
-0.0199845
-0.0204315
-0.0208417
-0.0212159
-0.0215545
-0.0218578
-0.0221258
-0.0223587
-0.0225565
-0.0227191
-0.0228465
-0.0229386
-0.0229957
-0.0230177
-0.0230052
-0.0229585
-0.0228782
-0.0227651
-0.0226203
-0.0224447
-0.0222399
-0.0220071
-0.021748
-0.0214641
-0.0211572
-0.0208289
-0.0204806
-0.0201138
-0.0197293
-0.0193277
-0.0189089
-0.018472
-0.0180148
-0.0175339
-0.0170241
-0.0164779
-0.0158858
-0.0152355
-0.0145125
-0.0137002
-0.012782
-0.0117443
-0.0105731
-0.00925788
-0.00780288
-0.00629544
-0.00487234
-0.00356235
-0.00257154
-0.00210743
-0.00211782
-0.0024596
-0.000971757
-0.0012171
-0.00159644
-0.00197799
-0.00235957
-0.00278711
-0.00328935
-0.00388208
-0.00457284
-0.00535758
-0.00622265
-0.00714885
-0.00811545
-0.00910297
-0.0100944
-0.0110757
-0.0120355
-0.0129651
-0.0138583
-0.0147109
-0.0155203
-0.0162855
-0.0170064
-0.0176838
-0.0183188
-0.0189127
-0.0194668
-0.0199825
-0.0204609
-0.0209029
-0.0213093
-0.0216807
-0.0220172
-0.0223192
-0.0225867
-0.0228196
-0.0230179
-0.0231813
-0.0233098
-0.0234034
-0.0234619
-0.0234856
-0.0234746
-0.0234295
-0.0233507
-0.023239
-0.0230953
-0.0229208
-0.0227167
-0.0224845
-0.0222258
-0.0219423
-0.0216357
-0.0213077
-0.0209601
-0.0205943
-0.0202117
-0.019813
-0.0193986
-0.0189682
-0.0185203
-0.0180522
-0.0175597
-0.0170364
-0.0164737
-0.0158603
-0.0151823
-0.0144237
-0.0135669
-0.0125964
-0.0114991
-0.0102612
-0.00887851
-0.00737983
-0.00597863
-0.00466188
-0.00359085
-0.0030062
-0.00294605
-0.00332288
-0.0015722
-0.00180678
-0.00217579
-0.00255718
-0.00294611
-0.00338399
-0.00389734
-0.00450067
-0.00520023
-0.00599109
-0.00685904
-0.0077846
-0.0087471
-0.00972737
-0.0107089
-0.011678
-0.012624
-0.0135389
-0.0144167
-0.015254
-0.0160485
-0.0167997
-0.0175077
-0.0181734
-0.018798
-0.019383
-0.0199296
-0.020439
-0.0209124
-0.0213506
-0.0217541
-0.0221235
-0.0224589
-0.0227604
-0.023028
-0.0232615
-0.0234607
-0.0236254
-0.0237555
-0.0238507
-0.023911
-0.0239364
-0.0239272
-0.0238836
-0.0238062
-0.0236957
-0.023553
-0.0233792
-0.0231755
-0.0229434
-0.0226846
-0.0224008
-0.0220938
-0.0217654
-0.0214175
-0.0210518
-0.0206697
-0.0202725
-0.019861
-0.0194352
-0.0189943
-0.0185365
-0.0180583
-0.0175544
-0.0170173
-0.0164367
-0.0157997
-0.0150907
-0.0142922
-0.0133874
-0.0123643
-0.0112075
-0.0099044
-0.00844952
-0.00705693
-0.00576968
-0.00465969
-0.00397297
-0.00384878
-0.00425181
-0.00219427
-0.00241676
-0.00277326
-0.0031517
-0.00354511
-0.00399006
-0.00451081
-0.00512053
-0.00582431
-0.00661649
-0.00748255
-0.00840302
-0.00935747
-0.0103271
-0.0112959
-0.0122507
-0.0131814
-0.0140805
-0.0149426
-0.0157645
-0.0165445
-0.0172823
-0.0179781
-0.0186332
-0.0192485
-0.0198256
-0.0203657
-0.0208699
-0.0213393
-0.0217745
-0.022176
-0.0225441
-0.0228791
-0.0231807
-0.023449
-0.0236836
-0.0238842
-0.0240506
-0.0241824
-0.0242796
-0.0243418
-0.0243691
-0.0243617
-0.0243197
-0.0242437
-0.0241343
-0.0239924
-0.023819
-0.0236155
-0.0233832
-0.0231239
-0.0228392
-0.0225312
-0.0222018
-0.0218528
-0.0214863
-0.0211039
-0.0207071
-0.0202971
-0.0198743
-0.0194386
-0.0189888
-0.0185223
-0.0180348
-0.0175198
-0.0169682
-0.016368
-0.0157045
-0.0149606
-0.014119
-0.0131663
-0.012087
-0.0108663
-0.00949971
-0.00810454
-0.00685667
-0.00574275
-0.00498166
-0.00480596
-0.00520711
-0.0028269
-0.00303625
-0.00337826
-0.00375133
-0.00414663
-0.00459576
-0.00512064
-0.00573312
-0.00643716
-0.00722664
-0.00808693
-0.00899876
-0.00994206
-0.0108985
-0.0118526
-0.0127917
-0.0137062
-0.0145891
-0.0154353
-0.0162422
-0.0170084
-0.0177335
-0.0184182
-0.0190635
-0.0196706
-0.0202408
-0.0207754
-0.0212753
-0.0217414
-0.0221744
-0.0225746
-0.0229422
-0.0232772
-0.0235795
-0.0238489
-0.0240849
-0.0242873
-0.0244556
-0.0245896
-0.0246888
-0.0247531
-0.0247824
-0.0247768
-0.0247364
-0.0246618
-0.0245534
-0.0244122
-0.0242391
-0.0240355
-0.0238027
-0.0235425
-0.0232567
-0.0229473
-0.0226163
-0.0222657
-0.0218977
-0.0215142
-0.0211169
-0.0207073
-0.0202863
-0.0198543
-0.0194106
-0.0189536
-0.0184797
-0.0179837
-0.0174574
-0.0168902
-0.0162682
-0.015575
-0.014793
-0.013907
-0.0129033
-0.0117665
-0.0104915
-0.00911497
-0.00790981
-0.00681525
-0.00600627
-0.00578383
-0.006133
-0.00345965
-0.00365485
-0.00398083
-0.0043466
-0.00474152
-0.00519227
-0.00571846
-0.00633059
-0.00703166
-0.00781516
-0.00866661
-0.00956709
-0.010497
-0.0114385
-0.0123766
-0.0132992
-0.0141972
-0.0150638
-0.0158946
-0.0166871
-0.0174401
-0.0181535
-0.0188279
-0.0194644
-0.0200642
-0.0206285
-0.0211584
-0.0216548
-0.0221185
-0.0225499
-0.0229493
-0.0233169
-0.0236525
-0.0239558
-0.0242266
-0.0244644
-0.0246688
-0.0248392
-0.0249754
-0.0250768
-0.0251433
-0.0251747
-0.0251709
-0.0251322
-0.0250589
-0.0249515
-0.0248109
-0.024638
-0.0244341
-0.0242007
-0.0239395
-0.0236522
-0.023341
-0.023008
-0.0226554
-0.0222853
-0.0219001
-0.0215015
-0.0210915
-0.0206712
-0.0202416
-0.0198025
-0.019353
-0.0188904
-0.0184104
-0.0179062
-0.0173681
-0.0167834
-0.0161367
-0.0154105
-0.0145882
-0.0136589
-0.0126078
-0.0114207
-0.0100893
-0.00890904
-0.00785298
-0.00702159
-0.00674609
-0.00702522
-0.00408254
-0.00426308
-0.00457198
-0.00492887
-0.00532143
-0.00577162
-0.00629672
-0.00690597
-0.00760145
-0.00837643
-0.00921673
-0.0101039
-0.0110189
-0.0119443
-0.0128658
-0.0137716
-0.0146531
-0.0155038
-0.0163198
-0.0170987
-0.0178394
-0.018542
-0.0192072
-0.0198359
-0.0204293
-0.0209884
-0.0215144
-0.022008
-0.0224698
-0.0229002
-0.0232994
-0.0236673
-0.0240038
-0.0243085
-0.0245809
-0.0248207
-0.0250272
-0.0252
-0.0253384
-0.0254422
-0.0255109
-0.0255443
-0.0255424
-0.0255053
-0.0254333
-0.0253269
-0.0251868
-0.0250141
-0.0248099
-0.0245757
-0.0243132
-0.0240243
-0.0237111
-0.0233758
-0.0230207
-0.0226483
-0.0222608
-0.0218604
-0.0214492
-0.0210288
-0.0206004
-0.0201646
-0.0197209
-0.0192676
-0.0188011
-0.0183158
-0.0178033
-0.0172519
-0.0166471
-0.015972
-0.0152101
-0.0143503
-0.013378
-0.0122777
-0.0110323
-0.00985818
-0.00884067
-0.00800697
-0.00768076
-0.00790168
-0.00468694
-0.00485224
-0.00514343
-0.00549026
-0.00587884
-0.00632666
-0.00684873
-0.00745311