/*--------------------------------*- C++ -*----------------------------------*\
  =========                 |
  \\      /  F ield         | OpenFOAM: The Open Source CFD Toolbox
   \\    /   O peration     | Website:  https://openfoam.org
    \\  /    A nd           | Version:  13
     \\/     M anipulation  |
\*---------------------------------------------------------------------------*/
FoamFile
{
    format      ascii;
    class       surfaceScalarField;
    location    "3";
    object      phi;
}
// * * * * * * * * * * * * * * * * * * * * * * * * * * * * * * * * * * * * * //

dimensions      [0 3 -1 0 0 0 0];

internalField   nonuniform List<scalar> 
12640
(
2.71833e-09
-2.71896e-09
1.3968e-08
-1.12497e-08
3.14086e-08
-1.74406e-08
5.0715e-08
-1.93064e-08
6.81763e-08
-1.74612e-08
8.17567e-08
-1.35805e-08
9.07918e-08
-9.03509e-09
9.57793e-08
-4.9875e-09
9.78331e-08
-2.05376e-09
9.81226e-08
-2.89493e-10
9.76279e-08
4.94732e-10
9.69917e-08
6.36154e-10
9.65401e-08
4.51554e-10
9.62983e-08
2.41822e-10
9.60724e-08
2.25962e-10
9.55292e-08
5.43144e-10
9.42602e-08
1.26899e-09
9.17423e-08
2.51793e-09
8.73498e-08
4.39249e-09
8.04386e-08
6.91115e-09
7.05221e-08
9.91652e-09
5.71499e-08
1.33722e-08
4.00812e-08
1.70687e-08
1.92164e-08
2.08648e-08
-5.41639e-09
2.46328e-08
-3.40595e-08
2.86431e-08
-6.7436e-08
3.33765e-08
-1.06594e-07
3.91575e-08
-1.53035e-07
4.64416e-08
-2.08339e-07
5.53038e-08
-2.72772e-07
6.44327e-08
-3.45184e-07
7.24128e-08
-4.23901e-07
7.87164e-08
-5.07172e-07
8.3271e-08
-5.93178e-07
8.60059e-08
-6.80136e-07
8.69585e-08
-7.6639e-07
8.62536e-08
-8.50441e-07
8.40516e-08
-9.30984e-07
8.0543e-08
-1.00689e-06
7.59065e-08
-1.07722e-06
7.0326e-08
-1.14114e-06
6.39277e-08
-1.19795e-06
5.68082e-08
-1.24699e-06
4.90397e-08
-1.28764e-06
4.06501e-08
-1.31928e-06
3.1633e-08
-1.34122e-06
2.19436e-08
-1.35336e-06
1.21376e-08
-1.35569e-06
2.33326e-09
-1.34639e-06
-9.29789e-09
-1.32593e-06
-2.0458e-08
-1.29334e-06
-3.2599e-08
-1.24853e-06
-4.48092e-08
-1.19129e-06
-5.72342e-08
-1.12179e-06
-6.95061e-08
-1.0404e-06
-8.139e-08
-9.47892e-07
-9.25038e-08
-8.4528e-07
-1.02612e-07
-7.33679e-07
-1.116e-07
-6.14686e-07
-1.18994e-07
-4.90512e-07
-1.24174e-07
-3.6392e-07
-1.26592e-07
-2.38103e-07
-1.25817e-07
-1.1662e-07
-1.21482e-07
-3.32586e-09
-1.13294e-07
9.86767e-08
-1.02003e-07
1.84843e-07
-8.61659e-08
2.51904e-07
-6.70617e-08
2.97251e-07
-4.53468e-08
3.19414e-07
-2.21631e-08
3.18535e-07
8.79329e-10
2.96086e-07
2.24491e-08
2.55573e-07
4.05127e-08
2.02692e-07
5.28806e-08
1.46587e-07
5.61051e-08
9.44405e-08
5.21468e-08
5.14878e-08
4.29527e-08
2.06229e-08
3.08649e-08
3.68486e-09
1.6938e-08
3.68486e-09
9.85548e-09
-1.25744e-08
3.50099e-08
-3.64041e-08
6.7371e-08
-4.98017e-08
9.95222e-08
-5.14576e-08
1.26921e-07
-4.48604e-08
1.47528e-07
-3.41868e-08
1.61095e-07
-2.2602e-08
1.68248e-07
-1.21413e-08
1.69993e-07
-3.79833e-09
1.67393e-07
2.31018e-09
1.61517e-07
6.37077e-09
1.53067e-07
9.08655e-09
1.42358e-07
1.11609e-08
1.29273e-07
1.33266e-08
1.13387e-07
1.61112e-08
9.41494e-08
1.97813e-08
7.08721e-08
2.45463e-08
4.27001e-08
3.06899e-08
8.67144e-09
3.84211e-08
-3.23379e-08
4.79205e-08
-8.17282e-08
5.93068e-08
-1.40578e-07
7.22223e-08
-2.09608e-07
8.60985e-08
-2.89483e-07
1.0074e-07
-3.80687e-07
1.15837e-07
-4.83104e-07
1.3106e-07
-5.95615e-07
1.45888e-07
-7.16091e-07
1.59634e-07
-8.41557e-07
1.71907e-07
-9.68469e-07
1.82216e-07
-1.09396e-06
1.89924e-07
-1.21651e-06
1.94958e-07
-1.33473e-06
1.9694e-07
-1.44729e-06
1.95826e-07
-1.55302e-06
1.91745e-07
-1.65105e-06
1.84981e-07
-1.74071e-06
1.75915e-07
-1.82152e-06
1.64867e-07
-1.89315e-06
1.52168e-07
-1.95532e-06
1.38079e-07
-2.00783e-06
1.22838e-07
-2.05051e-06
1.066e-07
-2.08317e-06
8.94773e-08
-2.10569e-06
7.1559e-08
-2.11793e-06
5.28829e-08
-2.11975e-06
3.34611e-08
-2.11103e-06
1.32178e-08
-2.09124e-06
-7.65381e-09
-2.0601e-06
-2.88072e-08
-2.01802e-06
-5.13751e-08
-1.96412e-06
-7.43585e-08
-1.89872e-06
-9.79957e-08
-1.82152e-06
-1.22014e-07
-1.73253e-06
-1.46223e-07
-1.63176e-06
-1.70279e-07
-1.51942e-06
-1.9373e-07
-1.39589e-06
-2.1603e-07
-1.26194e-06
-2.36563e-07
-1.11896e-06
-2.54586e-07
-9.68813e-07
-2.69136e-07
-8.13561e-07
-2.79426e-07
-6.55662e-07
-2.84491e-07
-4.97958e-07
-2.83521e-07
-3.43589e-07
-2.75851e-07
-1.95847e-07
-2.61037e-07
-5.88116e-08
-2.39038e-07
6.46566e-08
-2.09634e-07
1.71187e-07
-1.73593e-07
2.57729e-07
-1.31888e-07
3.21923e-07
-8.63575e-08
3.61822e-07
-3.90199e-08
3.77273e-07
6.99852e-09
3.67514e-07
5.02719e-08
3.34994e-07
8.54009e-08
2.81317e-07
1.09782e-07
2.12801e-07
1.20663e-07
1.39307e-07
1.16446e-07
7.21007e-08
9.80717e-08
2.23685e-08
6.66702e-08
2.60533e-08
1.60714e-08
-2.86459e-08
4.92387e-08
-6.95714e-08
8.48801e-08
-8.54431e-08
1.15709e-07
-8.22862e-08
1.39367e-07
-6.85186e-08
1.55472e-07
-5.02916e-08
1.64421e-07
-3.15513e-08
1.66733e-07
-1.44537e-08
1.6309e-07
-1.55338e-10
1.53992e-07
1.14088e-08
1.4006e-07
2.03021e-08
1.21508e-07
2.76394e-08
9.81329e-08
3.45355e-08
6.944e-08
4.20196e-08
3.46758e-08
5.08754e-08
-7.18821e-09
6.16453e-08
-5.73496e-08
7.47077e-08
-1.16931e-07
9.02716e-08
-1.86962e-07
1.08452e-07
-2.68212e-07
1.2917e-07
-3.61001e-07
1.52096e-07
-4.65265e-07
1.76486e-07
-5.80568e-07
2.01401e-07
-7.05707e-07
2.2588e-07
-8.38658e-07
2.48788e-07
-9.76712e-07
2.69114e-07
-1.11691e-06
2.86086e-07
-1.25642e-06
2.99142e-07
-1.39261e-06
3.08097e-07
-1.52323e-06
3.12834e-07
-1.64662e-06
3.13319e-07
-1.76144e-06
3.09771e-07
-1.8669e-06
3.02401e-07
-1.96277e-06
2.91696e-07
-2.04909e-06
2.78068e-07
-2.12594e-06
2.61837e-07
-2.19348e-06
2.43445e-07
-2.25185e-06
2.23241e-07
-2.30122e-06
2.01535e-07
-2.3417e-06
1.7856e-07
-2.37339e-06
1.54531e-07
-2.39637e-06
1.29575e-07
-2.41064e-06
1.03749e-07
-2.41616e-06
7.7084e-08
-2.41283e-06
4.95563e-08
-2.40049e-06
2.11196e-08
-2.37904e-06
-8.23901e-09
-2.34822e-06
-3.84694e-08
-2.30734e-06
-6.96921e-08
-2.25664e-06
-1.02076e-07
-2.19562e-06
-1.35369e-07
-2.12409e-06
-1.69535e-07
-2.04178e-06
-2.04318e-07
-1.94856e-06
-2.39444e-07
-1.84436e-06
-2.74473e-07
-1.72931e-06
-3.08783e-07
-1.60375e-06
-3.4159e-07
-1.46831e-06
-3.72003e-07
-1.324e-06
-3.98899e-07
-1.17219e-06
-4.20943e-07
-1.01477e-06
-4.36849e-07
-8.53954e-07
-4.45306e-07
-6.92458e-07
-4.45017e-07
-5.33288e-07
-4.35021e-07
-3.79649e-07
-4.14676e-07
-2.34682e-07
-3.84005e-07
-1.01495e-07
-3.42821e-07
1.68609e-08
-2.91949e-07
1.18077e-07
-2.33104e-07
1.99926e-07
-1.68207e-07
2.61048e-07
-1.00142e-07
3.00117e-07
-3.20704e-08
3.17101e-07
3.32872e-08
3.10856e-07
9.16457e-08
2.8238e-07
1.38258e-07
2.34382e-07
1.68661e-07
1.71212e-07
1.79616e-07
1.01161e-07
1.68122e-07
3.66013e-08
1.3123e-07
6.26547e-08
2.01948e-08
-4.88407e-08
5.56367e-08
-1.05013e-07
8.81009e-08
-1.17907e-07
1.1252e-07
-1.06705e-07
1.28545e-07
-8.45438e-08
1.36957e-07
-5.87035e-08
1.38376e-07
-3.29697e-08
1.33249e-07
-9.32735e-09
1.21724e-07
1.13702e-08
1.03999e-07
2.91335e-08
7.97164e-08
4.45848e-08
4.84858e-08
5.887e-08
9.72094e-09
7.33003e-08
-3.7334e-08
8.90745e-08
-9.3604e-08
1.07145e-07
-1.60117e-07
1.28159e-07
-2.37836e-07
1.52427e-07
-3.27514e-07
1.79949e-07
-4.29527e-07
2.10465e-07
-5.43605e-07
2.43248e-07
-6.68738e-07
2.77229e-07
-8.03243e-07
3.10991e-07
-9.44574e-07
3.42733e-07
-1.08989e-06
3.71195e-07
-1.23619e-06
3.95091e-07
-1.38064e-06
4.13558e-07
-1.52063e-06
4.26081e-07
-1.65388e-06
4.32387e-07
-1.77854e-06
4.3276e-07
-1.89361e-06
4.27901e-07
-1.99873e-06
4.18443e-07
-2.09388e-06
4.04915e-07
-2.17935e-06
3.87876e-07
-2.25547e-06
3.6782e-07
-2.32266e-06
3.45252e-07
-2.38136e-06
3.20542e-07
-2.43198e-06
2.94059e-07
-2.47482e-06
2.66084e-07
-2.51014e-06
2.36851e-07
-2.53811e-06
2.06537e-07
-2.55886e-06
1.75279e-07
-2.57243e-06
1.43144e-07
-2.5788e-06
1.10123e-07
-2.5779e-06
7.61759e-08
-2.56955e-06
4.12093e-08
-2.55356e-06
5.12898e-09
-2.52971e-06
-3.20903e-08
-2.49765e-06
-7.05251e-08
-2.45704e-06
-1.10305e-07
-2.40762e-06
-1.51493e-07
-2.34898e-06
-1.94009e-07
-2.28078e-06
-2.37741e-07
-2.20267e-06
-2.82422e-07
-2.11437e-06
-3.27743e-07
-2.01562e-06
-3.73224e-07
-1.90628e-06
-4.18123e-07
-1.78645e-06
-4.61423e-07
-1.65645e-06
-5.02007e-07
-1.51687e-06
-5.38474e-07
-1.36873e-06
-5.69088e-07
-1.2135e-06
-5.92076e-07
-1.05314e-06
-6.05666e-07
-8.901e-07
-6.08055e-07
-7.2738e-07
-5.97741e-07
-5.68427e-07
-5.73629e-07
-4.16663e-07
-5.35768e-07
-2.75074e-07
-4.84409e-07
-1.46693e-07
-4.2033e-07
-3.42839e-08
-3.45513e-07
6.01817e-08
-2.62672e-07
1.35171e-07
-1.75131e-07
1.89657e-07
-8.65564e-08
2.23968e-07
-1.02363e-09
2.37644e-07
7.79699e-08
2.30746e-07
1.45156e-07
2.03689e-07
1.95718e-07
1.5909e-07
2.24215e-07
1.013e-07
2.25913e-07
3.94895e-08
1.93041e-07
1.02144e-07
2.23374e-08
-7.11781e-08
5.52054e-08
-1.37881e-07
8.05782e-08
-1.4328e-07
9.64329e-08
-1.2256e-07
1.03515e-07
-9.16255e-08
1.03033e-07
-5.82222e-08
9.55821e-08
-2.55186e-08
8.13085e-08
4.94628e-09
5.99925e-08
3.26862e-08
3.11851e-08
5.79409e-08
-5.83518e-09
8.16051e-08
-5.19069e-08
1.04942e-07
-1.07906e-07
1.29299e-07
-1.74718e-07
1.55887e-07
-2.53166e-07
1.85593e-07
-3.43901e-07
2.18894e-07
-4.47246e-07
2.55771e-07
-5.62964e-07
2.95668e-07
-6.90139e-07
3.3764e-07
-8.27018e-07
3.80127e-07
-9.70954e-07
4.21165e-07
-1.11905e-06
4.59083e-07
-1.26815e-06
4.9184e-07
-1.41528e-06
5.18319e-07
-1.55752e-06
5.37337e-07
-1.6922e-06
5.48239e-07
-1.81758e-06
5.51458e-07
-1.93301e-06
5.47815e-07
-2.03841e-06
5.38156e-07
-2.13396e-06
5.23458e-07
-2.22006e-06
5.0454e-07
-2.29726e-06
4.82119e-07
-2.36614e-06
4.56756e-07
-2.4272e-06
4.2888e-07
-2.48091e-06
3.98958e-07
-2.52769e-06
3.67326e-07
-2.5679e-06
3.34262e-07
-2.60181e-06
2.99999e-07
-2.62966e-06
2.64695e-07
-2.65152e-06
2.28406e-07
-2.66748e-06
1.9123e-07
-2.67754e-06
1.53204e-07
-2.68166e-06
1.14246e-07
-2.67974e-06
7.426e-08
-2.67163e-06
3.30977e-08
-2.65709e-06
-9.40978e-09
-2.63582e-06
-5.33576e-08
-2.60747e-06
-9.88819e-08
-2.57172e-06
-1.46048e-07
-2.52827e-06
-1.9495e-07
-2.47661e-06
-2.45668e-07
-2.41624e-06
-2.98111e-07
-2.34673e-06
-3.5193e-07
-2.26768e-06
-4.06795e-07
-2.17862e-06
-4.62285e-07
-2.0791e-06
-5.17642e-07
-1.96891e-06
-5.71611e-07
-1.84804e-06
-6.22872e-07
-1.71661e-06
-6.69912e-07
-1.5752e-06
-7.10491e-07
-1.42482e-06
-7.42457e-07
-1.26703e-06
-7.63461e-07
-1.10381e-06
-7.71269e-07
-9.37875e-07
-7.63681e-07
-7.72526e-07
-7.38977e-07
-6.11987e-07
-6.96308e-07
-4.59955e-07
-6.36442e-07
-3.19586e-07
-5.60699e-07
-1.93991e-07
-4.71108e-07
-8.57718e-08
-3.70892e-07
3.24379e-09
-2.64147e-07
7.22129e-08
-1.55526e-07
1.20767e-07
-4.95782e-08
1.49676e-07
4.90615e-08
1.59326e-07
1.35506e-07
1.50416e-07
2.04628e-07
1.23974e-07
2.50656e-07
8.25745e-08
2.67312e-07
3.30749e-08
2.4254e-07
1.35219e-07
2.25571e-08
-9.37352e-08
4.904e-08
-1.64364e-07
6.49842e-08
-1.59224e-07
7.07551e-08
-1.28331e-07
6.80569e-08
-8.89272e-08
5.78813e-08
-4.80466e-08
4.0532e-08
-8.16924e-09
1.57765e-08
2.97017e-08
-1.6964e-08
6.54268e-08
-5.85605e-08
9.95374e-08
-1.10004e-07
1.33048e-07
-1.72287e-07
1.67226e-07
-2.46304e-07
2.03316e-07
-3.32737e-07
2.42319e-07
-4.31954e-07
2.8481e-07
-5.43877e-07
3.30817e-07
-6.67801e-07
3.79695e-07
-8.02236e-07
4.30103e-07
-9.44839e-07
4.80243e-07
-1.09282e-06
5.28111e-07
-1.24285e-06
5.71196e-07
-1.39164e-06
6.07867e-07
-1.5359e-06
6.36102e-07
-1.67238e-06
6.54797e-07
-1.79916e-06
6.6412e-07
-1.91569e-06
6.64768e-07
-2.02206e-06
6.5783e-07
-2.11872e-06
6.44468e-07
-2.20628e-06
6.25719e-07
-2.28535e-06
6.02527e-07
-2.35649e-06
5.75681e-07
-2.42027e-06
5.45898e-07
-2.4772e-06
5.13687e-07
-2.52778e-06
4.79458e-07
-2.57241e-06
4.43588e-07
-2.61142e-06
4.06334e-07
-2.64506e-06
3.6791e-07
-2.67358e-06
3.28513e-07
-2.69715e-06
2.88268e-07
-2.71579e-06
2.4705e-07
-2.72952e-06
2.04957e-07
-2.7384e-06
1.62083e-07
-2.74238e-06
1.18228e-07
-2.74139e-06
7.32733e-08
-2.73534e-06
2.70437e-08
-2.72409e-06
-2.0656e-08
-2.70743e-06
-7.0021e-08
-2.68498e-06
-1.21327e-07
-2.65631e-06
-1.74719e-07
-2.62099e-06
-2.30275e-07
-2.57857e-06
-2.88084e-07
-2.52843e-06
-3.48258e-07
-2.46993e-06
-4.10427e-07
-2.40256e-06
-4.74162e-07
-2.32586e-06
-5.38987e-07
-2.23917e-06
-6.04336e-07
-2.14166e-06
-6.69114e-07
-2.03307e-06
-7.31465e-07
-1.91295e-06
-7.90038e-07
-1.78138e-06
-8.42055e-07
-1.63882e-06
-8.85016e-07
-1.48616e-06
-9.16124e-07
-1.32509e-06
-9.32337e-07
-1.158e-06
-9.30771e-07
-9.87758e-07
-9.0922e-07
-8.18259e-07
-8.65807e-07
-6.5431e-07
-8.00391e-07
-5.00066e-07
-7.14943e-07
-3.59119e-07
-6.12055e-07
-2.34779e-07
-4.95232e-07
-1.29561e-07
-3.69365e-07
-4.50054e-08
-2.40081e-07
1.85595e-08
-1.13143e-07
6.1771e-08
5.85001e-09
8.57488e-08
1.11528e-07
9.17589e-08
1.98618e-07
8.09884e-08
2.61427e-07
5.58843e-08
2.92417e-07
2.22546e-08
2.7617e-07
1.57474e-07
2.06697e-08
-1.14405e-07
3.79042e-08
-1.81599e-07
4.29676e-08
-1.64288e-07
3.7901e-08
-1.23265e-07
2.47438e-08
-7.577e-08
4.15943e-09
-2.74622e-08
-2.39704e-08
1.99606e-08
-6.02321e-08
6.59633e-08
-1.05527e-07
1.10721e-07
-1.60914e-07
1.54924e-07
-2.2745e-07
1.99585e-07
-3.06037e-07
2.45812e-07
-3.97284e-07
2.94564e-07
-5.01381e-07
3.46416e-07
-6.17945e-07
4.01374e-07
-7.45967e-07
4.58839e-07
-8.83664e-07
5.17393e-07
-1.02844e-06
5.74874e-07
-1.17708e-06
6.28886e-07
-1.32616e-06
6.77187e-07
-1.47201e-06
7.17056e-07
-1.61077e-06
7.46625e-07
-1.74005e-06
7.6538e-07
-1.85891e-06
7.7366e-07
-1.96742e-06
7.72623e-07
-2.06612e-06
7.63467e-07
-2.15568e-06
7.47398e-07
-2.2368e-06
7.25585e-07
-2.31017e-06
6.99088e-07
-2.37642e-06
6.68776e-07
-2.43612e-06
6.35384e-07
-2.48973e-06
5.99514e-07
-2.53767e-06
5.6162e-07
-2.5803e-06
5.22092e-07
-2.61796e-06
4.81243e-07
-2.65091e-06
4.39287e-07
-2.67931e-06
3.9631e-07
-2.70329e-06
3.5249e-07
-2.72301e-06
3.07987e-07
-2.7388e-06
2.62839e-07
-2.75074e-06
2.16905e-07
-2.75869e-06
1.70031e-07
-2.76258e-06
1.22117e-07
-2.76231e-06
7.29989e-08
-2.75774e-06
2.24731e-08
-2.74884e-06
-2.95489e-08
-2.73557e-06
-8.32928e-08
-2.71785e-06
-1.39052e-07
-2.6955e-06
-1.9707e-07
-2.66821e-06
-2.57561e-07
-2.63563e-06
-3.20659e-07
-2.59736e-06
-3.8653e-07
-2.55251e-06
-4.55276e-07
-2.49995e-06
-5.26724e-07
-2.43857e-06
-6.00372e-07
-2.36751e-06
-6.75395e-07
-2.28573e-06
-7.50896e-07
-2.1927e-06
-8.24494e-07
-2.088e-06
-8.94737e-07
-1.9705e-06
-9.59552e-07
-1.84012e-06
-1.0154e-06
-1.69702e-06
-1.05922e-06
-1.54217e-06
-1.08718e-06
-1.37722e-06
-1.09572e-06
-1.20496e-06
-1.08148e-06
-1.02888e-06
-1.04189e-06
-8.5365e-07
-9.75625e-07
-6.84811e-07
-8.83781e-07
-5.27185e-07
-7.69681e-07
-3.84782e-07
-6.37635e-07
-2.61149e-07
-4.92998e-07
-1.58716e-07
-3.42515e-07
-7.85254e-08
-1.93333e-07
-2.02353e-08
-5.24401e-08
1.75618e-08
7.37312e-08
3.68303e-08
1.79349e-07
3.97503e-08
2.58507e-07
2.91257e-08
3.03041e-07
1.06737e-08
2.94622e-07
1.68147e-07
1.63871e-08
-1.30792e-07
2.27467e-08
-1.87958e-07
1.59507e-08
-1.57492e-07
-3.8808e-10
-1.06926e-07
-2.43391e-08
-5.1819e-08
-5.58483e-08
4.04698e-09
-9.53666e-08
5.94789e-08
-1.43756e-07
1.14353e-07
-2.02078e-07
1.69043e-07
-2.714e-07
2.24246e-07
-3.52622e-07
2.80808e-07
-4.46321e-07
3.39511e-07
-5.52601e-07
4.00844e-07
-6.70946e-07
4.6476e-07
-8.00185e-07
5.30613e-07
-9.38361e-07
5.97015e-07
-1.0827e-06
6.61732e-07
-1.22984e-06
7.22017e-07
-1.37609e-06
7.75135e-07
-1.5171e-06
8.18194e-07
-1.64964e-06
8.49599e-07
-1.77208e-06
8.69065e-07
-1.88406e-06
8.7736e-07
-1.98592e-06
8.75512e-07
-2.07829e-06
8.65002e-07
-2.16195e-06
8.47119e-07
-2.23766e-06
8.23111e-07
-2.30616e-06
7.94085e-07
-2.36807e-06
7.60999e-07
-2.42393e-06
7.24631e-07
-2.47418e-06
6.85633e-07
-2.51918e-06
6.44521e-07
-2.55927e-06
6.01707e-07
-2.59471e-06
5.57529e-07
-2.62572e-06
5.12257e-07
-2.6526e-06
4.6617e-07
-2.67575e-06
4.19454e-07
-2.69539e-06
3.72132e-07
-2.7115e-06
3.24099e-07
-2.72411e-06
2.75445e-07
-2.73329e-06
2.26086e-07
-2.73908e-06
1.75824e-07
-2.74156e-06
1.24599e-07
-2.7408e-06
7.22318e-08
-2.7368e-06
1.84757e-08
-2.72963e-06
-3.67211e-08
-2.71921e-06
-9.37138e-08
-2.70542e-06
-1.5284e-07
-2.6881e-06
-2.14389e-07
-2.66701e-06
-2.78649e-07
-2.64182e-06
-3.45852e-07
-2.61223e-06
-4.16119e-07
-2.57782e-06
-4.8968e-07
-2.53808e-06
-5.66464e-07
-2.49232e-06
-6.46133e-07
-2.43956e-06
-7.28157e-07
-2.37848e-06
-8.1198e-07
-2.30637e-06
-8.96603e-07
-2.22175e-06
-9.79357e-07
-2.12336e-06
-1.05794e-06
-2.01073e-06
-1.12803e-06
-1.8833e-06
-1.18665e-06
-1.74085e-06
-1.22964e-06
-1.58416e-06
-1.25241e-06
-1.41507e-06
-1.25057e-06
-1.23665e-06
-1.22031e-06
-1.05334e-06
-1.15893e-06
-8.71039e-07
-1.06609e-06
-6.96341e-07
-9.44378e-07
-5.34765e-07
-7.99211e-07
-3.90808e-07
-6.36955e-07
-2.68192e-07
-4.6513e-07
-1.69107e-07
-2.92419e-07
-9.40177e-08
-1.27529e-07
-4.17387e-08
2.14522e-08
-9.63789e-09
1.47248e-07
5.40843e-09
2.43461e-07
7.46903e-09
3.00981e-07
1.96326e-09
3.00128e-07
1.70111e-07
9.90304e-09
-1.40695e-07
4.1394e-09
-1.82195e-07
-1.46047e-08
-1.38748e-07
-4.21337e-08
-7.93968e-08
-7.72238e-08
-1.67289e-08
-1.19949e-07
4.67725e-08
-1.71094e-07
1.10624e-07
-2.31695e-07
1.74953e-07
-3.02814e-07
2.40162e-07
-3.8535e-07
3.06782e-07
-4.79866e-07
3.75324e-07
-5.86441e-07
4.46086e-07
-7.04524e-07
5.18927e-07
-8.32949e-07
5.93185e-07
-9.69746e-07
6.6741e-07
-1.11201e-06
7.3928e-07
-1.25618e-06
8.059e-07
-1.39821e-06
8.64049e-07
-1.53398e-06
9.10899e-07
-1.66073e-06
9.44943e-07
-1.77731e-06
9.66186e-07
-1.88353e-06
9.75278e-07
-1.97974e-06
9.73579e-07
-2.06672e-06
9.6249e-07
-2.14528e-06
9.43557e-07
-2.2162e-06
9.18039e-07
-2.28021e-06
8.87124e-07
-2.33794e-06
8.51813e-07
-2.38989e-06
8.1295e-07
-2.43649e-06
7.71235e-07
-2.47812e-06
7.27255e-07
-2.51508e-06
6.81483e-07
-2.54769e-06
6.34314e-07
-2.57622e-06
5.86068e-07
-2.60096e-06
5.36997e-07
-2.62203e-06
4.8724e-07
-2.63954e-06
4.3696e-07
-2.65362e-06
3.86207e-07
-2.66447e-06
3.34954e-07
-2.67228e-06
2.83249e-07
-2.67721e-06
2.31017e-07
-2.67949e-06
1.78108e-07
-2.67928e-06
1.24392e-07
-2.67673e-06
6.96744e-08
-2.67194e-06
1.36892e-08
-2.66497e-06
-4.36895e-08
-2.65579e-06
-1.02891e-07
-2.6444e-06
-1.64232e-07
-2.63075e-06
-2.28035e-07
-2.61477e-06
-2.94633e-07
-2.59629e-06
-3.64331e-07
-2.57502e-06
-4.37393e-07
-2.55061e-06
-5.14087e-07
-2.52255e-06
-5.9452e-07
-2.49008e-06
-6.78613e-07
-2.45218e-06
-7.66055e-07
-2.40809e-06
-8.5607e-07
-2.35661e-06
-9.48075e-07
-2.29582e-06
-1.04015e-06
-2.22321e-06
-1.13055e-06
-2.13516e-06
-1.21608e-06
-2.02985e-06
-1.29196e-06
-1.90696e-06
-1.35253e-06
-1.76615e-06
-1.39322e-06
-1.60785e-06
-1.40886e-06
-1.43404e-06
-1.39413e-06
-1.24848e-06
-1.34449e-06
-1.05673e-06
-1.25783e-06
-8.66264e-07
-1.13485e-06
-6.85121e-07
-9.80354e-07
-5.19653e-07
-8.02423e-07
-3.74809e-07
-6.09975e-07
-2.54333e-07
-4.12895e-07
-1.59994e-07
-2.21868e-07
-9.13531e-08
-4.71886e-08
-4.59641e-08
1.01859e-07
-1.97817e-08
2.17278e-07
-6.93803e-09
2.88137e-07
-2.68894e-09
2.95878e-07
1.67422e-07
1.68282e-09
-1.42378e-07
-1.64528e-08
-1.64059e-07
-4.71619e-08
-1.08038e-07
-8.59877e-08
-4.0571e-08
-1.32099e-07
2.93827e-08
-1.85959e-07
1.00632e-07
-2.48524e-07
1.73189e-07
-3.20857e-07
2.47286e-07
-4.03874e-07
3.23179e-07
-4.98162e-07
4.01069e-07
-6.03824e-07
4.80986e-07
-7.20353e-07
5.62615e-07
-8.46636e-07
6.45211e-07
-9.80732e-07
7.27281e-07
-1.11979e-06
8.06468e-07
-1.26016e-06
8.7965e-07
-1.39759e-06
9.4333e-07
-1.52838e-06
9.94838e-07
-1.65012e-06
1.03264e-06
-1.76173e-06
1.05656e-06
-1.86302e-06
1.06748e-06
-1.95443e-06
1.06669e-06
-2.03671e-06
1.05586e-06
-2.11073e-06
1.03651e-06
-2.17725e-06
1.01008e-06
-2.23699e-06
9.77775e-07
-2.29053e-06
9.40667e-07
-2.33837e-06
8.99655e-07
-2.38093e-06
8.55508e-07
-2.41856e-06
8.08869e-07
-2.45159e-06
7.60286e-07
-2.48032e-06
7.10209e-07
-2.50502e-06
6.59016e-07
-2.52596e-06
6.07009e-07
-2.54337e-06
5.54403e-07
-2.55748e-06
5.01347e-07
-2.5685e-06
4.47983e-07
-2.57666e-06
3.94372e-07
-2.58223e-06
3.40518e-07
-2.58539e-06
2.86412e-07
-2.58634e-06
2.31968e-07
-2.58528e-06
1.77048e-07
-2.58238e-06
1.21492e-07
-2.57779e-06
6.50856e-08
-2.57164e-06
7.53462e-09
-2.56404e-06
-5.12852e-08
-2.5551e-06
-1.11836e-07
-2.5449e-06
-1.74427e-07
-2.53353e-06
-2.3941e-07
-2.52101e-06
-3.07156e-07
-2.5073e-06
-3.78033e-07
-2.4923e-06
-4.52398e-07
-2.4758e-06
-5.30588e-07
-2.45747e-06
-6.12846e-07
-2.4368e-06
-6.99285e-07
-2.41304e-06
-7.89819e-07
-2.38501e-06
-8.84091e-07
-2.35155e-06
-9.81541e-07
-2.3108e-06
-1.0809e-06
-2.26129e-06
-1.18006e-06
-2.20026e-06
-1.27711e-06
-2.12398e-06
-1.36825e-06
-2.02816e-06
-1.44834e-06
-1.91076e-06
-1.51062e-06
-1.77192e-06
-1.5477e-06
-1.61154e-06
-1.5545e-06
-1.43205e-06
-1.52399e-06
-1.23813e-06
-1.45175e-06
-1.03679e-06
-1.33619e-06
-8.37479e-07
-1.17966e-06
-6.49943e-07
-9.8996e-07
-4.81484e-07
-7.78434e-07
-3.37321e-07
-5.57057e-07
-2.21019e-07
-3.3817e-07
-1.33495e-07
-1.34712e-07
-7.29949e-08
4.13595e-08
-3.52707e-08
1.79554e-07
-1.38555e-08
2.66722e-07
-3.60935e-09
2.85632e-07
1.63812e-07
-7.59718e-09
-1.34781e-07
-3.82691e-08
-1.33387e-07
-8.0572e-08
-6.57356e-08
-1.30347e-07
9.20436e-09
-1.87152e-07
8.61871e-08
-2.51709e-07
1.65189e-07
-3.25043e-07
2.46524e-07
-4.08117e-07
3.30359e-07
-5.01583e-07
4.16646e-07
-6.0562e-07
5.05107e-07
-7.1981e-07
5.95175e-07
-8.43141e-07
6.85947e-07
-9.73784e-07
7.75853e-07
-1.109e-06
8.62495e-07
-1.24518e-06
9.4265e-07
-1.37817e-06
1.01264e-06
-1.50454e-06
1.0697e-06
-1.62202e-06
1.11232e-06
-1.72943e-06
1.14004e-06
-1.82657e-06
1.1537e-06
-1.91386e-06
1.15477e-06
-1.99208e-06
1.1449e-06
-2.06204e-06
1.12582e-06
-2.12454e-06
1.099e-06
-2.18022e-06
1.06577e-06
-2.22968e-06
1.02723e-06
-2.27339e-06
9.84379e-07
-2.31178e-06
9.38043e-07
-2.34522e-06
8.88945e-07
-2.37405e-06
8.37701e-07
-2.3986e-06
7.8484e-07
-2.4192e-06
7.30806e-07
-2.43614e-06
6.7596e-07
-2.44971e-06
6.2058e-07
-2.46019e-06
5.64879e-07
-2.46786e-06
5.09012e-07
-2.47297e-06
4.53098e-07
-2.47578e-06
3.97181e-07
-2.47652e-06
3.4126e-07
-2.4754e-06
2.85293e-07
-2.47261e-06
2.29179e-07
-2.46834e-06
1.72777e-07
-2.46276e-06
1.15913e-07
-2.45606e-06
5.83796e-08
-2.44833e-06
-1.90082e-10
-2.43984e-06
-5.9782e-08
-2.43066e-06
-1.21009e-07
-2.42098e-06
-1.84109e-07
-2.41093e-06
-2.49459e-07
-2.40063e-06
-3.17457e-07
-2.39015e-06
-3.88511e-07
-2.37952e-06
-4.63035e-07
-2.36868e-06
-5.41429e-07
-2.35748e-06
-6.24042e-07
-2.34563e-06
-7.11135e-07
-2.33262e-06
-8.02834e-07
-2.31762e-06
-8.99084e-07
-2.29961e-06
-9.99552e-07
-2.27709e-06
-1.10342e-06
-2.24783e-06
-1.20932e-06
-2.20959e-06
-1.31535e-06
-2.15973e-06
-1.4181e-06
-2.09404e-06
-1.51404e-06
-2.00746e-06
-1.59719e-06
-1.89581e-06
-1.65936e-06
-1.75822e-06
-1.69209e-06
-1.5946e-06
-1.6876e-06
-1.408e-06
-1.63835e-06
-1.20433e-06
-1.53986e-06
-9.92504e-07
-1.39149e-06
-7.84377e-07
-1.19809e-06
-5.91594e-07
-9.71217e-07
-4.22194e-07
-7.26457e-07
-2.81488e-07
-4.78877e-07
-1.72413e-07
-2.43788e-07
-9.44851e-08
-3.6568e-08
-4.40588e-08
1.29128e-07
-1.5224e-08
2.37887e-07
-1.83743e-09
2.72246e-07
1.61975e-07
-1.75701e-08
-1.17211e-07
-6.03263e-08
-9.06309e-08
-1.13642e-07
-1.24198e-08
-1.73761e-07
6.93233e-08
-2.40646e-07
1.53072e-07
-3.15122e-07
2.39666e-07
-3.98185e-07
3.29586e-07
-4.90598e-07
4.22772e-07
-5.9267e-07
5.18718e-07
-7.04126e-07
6.16563e-07
-8.24107e-07
7.15156e-07
-9.50931e-07
8.12771e-07
-1.08203e-06
9.06952e-07
-1.214e-06
9.94465e-07
-1.3429e-06
1.07155e-06
-1.46544e-06
1.13517e-06
-1.57937e-06
1.18363e-06
-1.68335e-06
1.2163e-06
-1.77707e-06
1.23376e-06
-1.86095e-06
1.23758e-06
-1.9357e-06
1.22951e-06
-2.00214e-06
1.21135e-06
-2.06103e-06
1.18471e-06
-2.11301e-06
1.15099e-06
-2.15865e-06
1.11141e-06
-2.19845e-06
1.06703e-06
-2.23284e-06
1.01877e-06
-2.26223e-06
9.67433e-07
-2.28701e-06
9.13718e-07
-2.30754e-06
8.58236e-07
-2.32421e-06
8.01503e-07
-2.33735e-06
7.43946e-07
-2.34729e-06
6.85906e-07
-2.35436e-06
6.27646e-07
-2.35885e-06
5.69369e-07
-2.36105e-06
5.11215e-07
-2.36122e-06
4.53266e-07
-2.35958e-06
3.95547e-07
-2.35636e-06
3.38035e-07
-2.35173e-06
2.80667e-07
-2.34588e-06
2.23331e-07
-2.33899e-06
1.65879e-07
-2.3312e-06
1.08131e-07
-2.32269e-06
4.98684e-08
-2.31371e-06
-9.16954e-09
-2.3043e-06
-6.92005e-08
-2.29471e-06
-1.30594e-07
-2.28514e-06
-1.93683e-07
-2.27576e-06
-2.58839e-07
-2.26675e-06
-3.26465e-07
-2.25827e-06
-3.96988e-07
-2.25045e-06
-4.70857e-07
-2.24336e-06
-5.4852e-07
-2.23699e-06
-6.30408e-07
-2.23123e-06
-7.16899e-07
-2.22577e-06
-8.08288e-07
-2.22013e-06
-9.04731e-07
-2.21352e-06
-1.00615e-06
-2.2048e-06
-1.11215e-06
-2.19225e-06
-1.22187e-06
-2.17375e-06
-1.33385e-06
-2.14619e-06
-1.44566e-06
-2.10626e-06
-1.55397e-06
-2.04983e-06
-1.65362e-06
-1.97046e-06
-1.73873e-06
-1.8633e-06
-1.79925e-06
-1.7254e-06
-1.82551e-06
-1.55672e-06
-1.80702e-06
-1.36119e-06
-1.73539e-06
-1.14643e-06
-1.60625e-06
-9.23895e-07
-1.42062e-06
-7.08198e-07
-1.18691e-06
-5.12772e-07
-9.21883e-07
-3.46028e-07
-6.45621e-07
-2.13057e-07
-3.76759e-07
-1.15419e-07
-1.34205e-07
-5.06954e-08
6.44038e-08
-1.40943e-08
2.01286e-07
1.19481e-09
2.56957e-07
1.6317e-07
-2.76506e-08
-8.956e-08
-8.16966e-08
-3.65848e-08
-1.45189e-07
5.10725e-08
-2.14911e-07
1.39045e-07
-2.90991e-07
2.29152e-07
-3.74318e-07
3.22993e-07
-4.65767e-07
4.21035e-07
-5.65832e-07
5.22837e-07
-6.74439e-07
6.27325e-07
-7.90936e-07
7.3306e-07
-9.1384e-07
8.3806e-07
-1.04081e-06
9.39739e-07
-1.16875e-06
1.03489e-06
-1.29398e-06
1.11969e-06
-1.41327e-06
1.19084e-06
-1.52431e-06
1.24621e-06
-1.62562e-06
1.28494e-06
-1.71669e-06
1.30738e-06
-1.79786e-06
1.31493e-06
-1.8698e-06
1.30952e-06
-1.9333e-06
1.29301e-06
-1.98911e-06
1.26715e-06
-2.03786e-06
1.23346e-06
-2.08014e-06
1.19327e-06
-2.11645e-06
1.14772e-06
-2.14726e-06
1.09784e-06
-2.17302e-06
1.04453e-06
-2.19415e-06
9.8857e-07
-2.2111e-06
9.3067e-07
-2.22429e-06
8.71421e-07
-2.2341e-06
8.11312e-07
-2.2409e-06
7.50749e-07
-2.24504e-06
6.9005e-07
-2.24685e-06
6.29452e-07
-2.24661e-06
5.69129e-07
-2.24458e-06
5.09188e-07
-2.241e-06
4.49678e-07
-2.23605e-06
3.90597e-07
-2.22991e-06
3.319e-07
-2.22275e-06
2.73506e-07
-2.21471e-06
2.15293e-07
-2.20594e-06
1.57111e-07
-2.19659e-06
9.87788e-08
-2.18681e-06
4.00869e-08
-2.17678e-06
-1.91981e-08
-2.16665e-06
-7.93351e-08
-2.15661e-06
-1.4063e-07
-2.14688e-06
-2.03411e-07
-2.13768e-06
-2.68042e-07
-2.12923e-06
-3.34918e-07
-2.12175e-06
-4.04469e-07
-2.11545e-06
-4.77157e-07
-2.1105e-06
-5.53462e-07
-2.10704e-06
-6.33871e-07
-2.10509e-06
-7.18854e-07
-2.10454e-06
-8.08836e-07
-2.10512e-06
-9.04147e-07
-2.10632e-06
-1.00496e-06
-2.10729e-06
-1.11118e-06
-2.10678e-06
-1.22238e-06
-2.10302e-06
-1.3376e-06
-2.09352e-06
-1.45516e-06
-2.0751e-06
-1.57239e-06
-2.04345e-06
-1.68527e-06
-1.99391e-06
-1.78827e-06
-1.91965e-06
-1.8735e-06
-1.81439e-06
-1.93077e-06
-1.67375e-06
-1.94766e-06
-1.49764e-06
-1.9115e-06
-1.29124e-06
-1.81265e-06
-1.06452e-06
-1.64735e-06
-8.3218e-07
-1.41925e-06
-6.11883e-07
-1.14218e-06
-4.18264e-07
-8.3924e-07
-2.59705e-07
-5.35318e-07
-1.40312e-07
-2.53598e-07
-5.95343e-08
-1.63742e-08
-1.38611e-08
1.55613e-07
3.92997e-09
2.39166e-07
1.671e-07
-3.73247e-08
-5.22353e-08
-1.01574e-07
2.7664e-08
-1.74319e-07
1.23818e-07
-2.52642e-07
2.17368e-07
-3.36818e-07
3.13328e-07
-4.27698e-07
4.13873e-07
-5.25979e-07
5.19316e-07
-6.3185e-07
6.28708e-07
-7.44931e-07
7.40406e-07
-8.64001e-07
8.5213e-07
-9.86968e-07
9.61026e-07
-1.11113e-06
1.0639e-06
-1.23308e-06
1.15684e-06
-1.34967e-06
1.23629e-06
-1.45847e-06
1.29964e-06
-1.55782e-06
1.34557e-06
-1.64702e-06
1.37415e-06
-1.72623e-06
1.38658e-06
-1.79607e-06
1.38477e-06
-1.85729e-06
1.37074e-06
-1.91063e-06
1.34636e-06
-1.95675e-06
1.31328e-06
-1.99624e-06
1.27295e-06
-2.02964e-06
1.22666e-06
-2.05744e-06
1.17552e-06
-2.08014e-06
1.12054e-06
-2.09823e-06
1.06262e-06
-2.1122e-06
1.00254e-06
-2.12251e-06
9.40984e-07
-2.1296e-06
8.78514e-07
-2.13388e-06
8.15593e-07
-2.13573e-06
7.52592e-07
-2.13547e-06
6.89789e-07
-2.1334e-06
6.27384e-07
-2.12978e-06
5.65507e-07
-2.12482e-06
5.04229e-07
-2.1187e-06
4.43564e-07
-2.11159e-06
3.83483e-07
-2.10361e-06
3.23919e-07
-2.09488e-06
2.64774e-07
-2.08551e-06
2.05923e-07
-2.07561e-06
1.47214e-07
-2.0653e-06
8.84723e-08
-2.05472e-06
2.95011e-08
-2.044e-06
-2.99184e-08
-2.0333e-06
-9.00304e-08
-2.02282e-06
-1.51112e-07
-2.01277e-06
-2.13466e-07
-2.00337e-06
-2.77433e-07
-1.9949e-06
-3.4339e-07
-1.98762e-06
-4.11752e-07
-1.9818e-06
-4.82976e-07
-1.97771e-06
-5.57556e-07
-1.97556e-06
-6.36012e-07
-1.97554e-06
-7.18879e-07
-1.97769e-06
-8.06681e-07
-1.98195e-06
-8.99893e-07
-1.98802e-06
-9.98888e-07
-1.99533e-06
-1.10386e-06
-2.00298e-06
-1.21473e-06
-2.00959e-06
-1.331e-06
-2.01317e-06
-1.45158e-06
-2.01101e-06
-1.57456e-06
-1.99942e-06
-1.69686e-06
-1.97384e-06
-1.81384e-06
-1.9285e-06
-1.91884e-06
-1.85637e-06
-2.00291e-06
-1.74987e-06
-2.05416e-06
-1.60347e-06
-2.05789e-06
-1.41725e-06
-1.99887e-06
-1.19825e-06
-1.86635e-06
-9.59547e-07
-1.65795e-06
-7.2003e-07
-1.3817e-06
-5.00299e-07
-1.05897e-06
-3.1508e-07
-7.20537e-07
-1.72047e-07
-3.96631e-07
-7.33658e-08
-1.15055e-07
-1.67093e-08
9.89561e-08
5.33109e-09
2.17125e-07
1.72431e-07
-4.61861e-08
-6.04921e-09
-1.19394e-07
1.00872e-07
-2.00255e-07
2.04678e-07
-2.86026e-07
3.03139e-07
-3.77026e-07
4.04328e-07
-4.74001e-07
5.10849e-07
-5.77442e-07
6.22756e-07
-6.87327e-07
7.38593e-07
-8.02787e-07
8.55866e-07
-9.21976e-07
9.71319e-07
-1.04258e-06
1.08163e-06
-1.16158e-06
1.1829e-06
-1.27592e-06
1.27118e-06
-1.38305e-06
1.34342e-06
-1.48112e-06
1.39771e-06
-1.56921e-06
1.43365e-06
-1.64724e-06
1.45218e-06
-1.71572e-06
1.45507e-06
-1.77539e-06
1.44444e-06
-1.82697e-06
1.42232e-06
-1.87114e-06
1.39052e-06
-1.90851e-06
1.35065e-06
-1.93964e-06
1.30409e-06
-1.9651e-06
1.25211e-06
-1.98542e-06
1.19584e-06
-2.00113e-06
1.13626e-06
-2.01278e-06
1.07427e-06
-2.02089e-06
1.01064e-06
-2.02593e-06
9.46023e-07
-2.02834e-06
8.80927e-07
-2.02853e-06
8.1578e-07
-2.02684e-06
7.50903e-07
-2.02357e-06
6.86522e-07
-2.01898e-06
6.22789e-07
-2.01326e-06
5.59789e-07
-2.00658e-06
4.97549e-07
-1.99907e-06
4.36053e-07
-1.99083e-06
3.75243e-07
-1.98194e-06
3.15034e-07
-1.97249e-06
2.55317e-07
-1.96253e-06
1.95964e-07
-1.95214e-06
1.36826e-07
-1.94141e-06
7.77387e-08
-1.93043e-06
1.85225e-08
-1.91932e-06
-4.1024e-08
-1.90824e-06
-1.01117e-07
-1.89735e-06
-1.62002e-07
-1.88686e-06
-2.2395e-07
-1.87703e-06
-2.87268e-07
-1.86812e-06
-3.52301e-07
-1.86043e-06
-4.19436e-07
-1.8543e-06
-4.89112e-07
-1.85004e-06
-5.61813e-07
-1.84798e-06
-6.38076e-07
-1.84838e-06
-7.18473e-07
-1.85146e-06
-8.036e-07
-1.85731e-06
-8.94049e-07
-1.86584e-06
-9.90361e-07