/*--------------------------------*- C++ -*----------------------------------*\
  =========                 |
  \\      /  F ield         | OpenFOAM: The Open Source CFD Toolbox
   \\    /   O peration     | Website:  https://openfoam.org
    \\  /    A nd           | Version:  13
     \\/     M anipulation  |
\*---------------------------------------------------------------------------*/
FoamFile
{
    format      ascii;
    class       volVectorField;
    location    "3";
    object      U;
}
// * * * * * * * * * * * * * * * * * * * * * * * * * * * * * * * * * * * * * //

dimensions      [0 1 -1 0 0 0 0];

internalField   nonuniform List<vector> 
6400
(
(-3.23493e-05 1.30749e-05 0)
(0.0005228 -0.000164317 0)
(0.00176298 -0.0003191 0)
(0.00328882 -0.000379971 0)
(0.00479425 -0.000346692 0)
(0.00605929 -0.00025841 0)
(0.0069658 -0.00015471 0)
(0.00751747 -7.27371e-05 0)
(0.00778612 -3.05337e-05 0)
(0.0078649 -2.70791e-05 0)
(0.0078481 -5.00737e-05 0)
(0.00779705 -9.20719e-05 0)
(0.00775143 -0.000143377 0)
(0.0077257 -0.000196536 0)
(0.00771158 -0.000245691 0)
(0.00768583 -0.000284309 0)
(0.00762056 -0.000309281 0)
(0.00747822 -0.000320912 0)
(0.00721055 -0.000318023 0)
(0.00676866 -0.000300572 0)
(0.00611099 -0.000276396 0)
(0.00518856 -0.000249033 0)
(0.00397989 -0.000221234 0)
(0.0024687 -0.000207616 0)
(0.000625598 -0.000228585 0)
(-0.00150698 -0.000286537 0)
(-0.00397923 -0.000327414 0)
(-0.00689042 -0.000280056 0)
(-0.0103147 -7.1148e-05 0)
(-0.014272 0.000339019 0)
(-0.0190874 0.000900825 0)
(-0.0246061 0.00147035 0)
(-0.0306797 0.00198984 0)
(-0.0371983 0.00245175 0)
(-0.0440065 0.00283808 0)
(-0.0509648 0.00313767 0)
(-0.057928 0.00334793 0)
(-0.0647711 0.00347235 0)
(-0.0713794 0.00351845 0)
(-0.0776577 0.00349497 0)
(-0.0835231 0.00341132 0)
(-0.0889039 0.00327419 0)
(-0.0937383 0.0030879 0)
(-0.0979733 0.00285371 0)
(-0.101559 0.00257075 0)
(-0.104465 0.00224163 0)
(-0.106669 0.00187808 0)
(-0.10796 0.00153776 0)
(-0.108481 0.00122555 0)
(-0.108337 0.000659951 0)
(-0.107036 0.000219376 0)
(-0.104961 -0.000331696 0)
(-0.101815 -0.000860322 0)
(-0.0977377 -0.00141488 0)
(-0.0926369 -0.00195391 0)
(-0.0865818 -0.00247448 0)
(-0.079592 -0.00295919 0)
(-0.071767 -0.00340941 0)
(-0.0631819 -0.00382363 0)
(-0.0539496 -0.00417709 0)
(-0.0442116 -0.00442162 0)
(-0.0341729 -0.00453255 0)
(-0.0240689 -0.00448656 0)
(-0.0141543 -0.00426888 0)
(-0.00464713 -0.00387134 0)
(0.00401025 -0.00336333 0)
(0.0115072 -0.00262738 0)
(0.0176826 -0.0017618 0)
(0.0222311 -0.000808145 0)
(0.025056 0.00016315 0)
(0.0258284 0.00117214 0)
(0.0250005 0.00165493 0)
(0.0225115 0.00204615 0)
(0.0185409 0.00212816 0)
(0.0140469 0.00184628 0)
(0.0095791 0.00131803 0)
(0.00567801 0.000772392 0)
(0.00266054 0.000354044 0)
(0.000726028 5.30564e-05 0)
(-7.7651e-05 -0.000156635 0)
(9.16612e-05 -0.000489264 0)
(0.00158963 -0.00171229 0)
(0.00406266 -0.00256681 0)
(0.00673132 -0.00280755 0)
(0.00915391 -0.00253494 0)
(0.0110931 -0.00198644 0)
(0.0124602 -0.0013439 0)
(0.0132796 -0.00075996 0)
(0.0136264 -0.00031707 0)
(0.0135729 -2.44986e-05 0)
(0.0132257 0.00013182 0)
(0.0126407 0.000202423 0)
(0.0118744 0.000225748 0)
(0.0109293 0.000244621 0)
(0.00978142 0.000292327 0)
(0.00838269 0.000387579 0)
(0.00669629 0.000534541 0)
(0.0046556 0.000749177 0)
(0.00218258 0.00104605 0)
(-0.000799137 0.00143435 0)
(-0.00436914 0.00191712 0)
(-0.00869054 0.00249031 0)
(-0.0137912 0.00311564 0)
(-0.0197323 0.00379211 0)
(-0.0265585 0.00452399 0)
(-0.0343238 0.00534792 0)
(-0.0429702 0.00627024 0)
(-0.0523635 0.00726157 0)
(-0.0622958 0.0083116 0)
(-0.0724886 0.00936954 0)
(-0.0825715 0.010282 0)
(-0.0925082 0.0109965 0)
(-0.102168 0.0114857 0)
(-0.11143 0.0117365 0)
(-0.120181 0.0117558 0)
(-0.128349 0.011565 0)
(-0.135868 0.0111898 0)
(-0.142696 0.0106552 0)
(-0.148798 0.00998622 0)
(-0.154153 0.00920456 0)
(-0.158742 0.0083299 0)
(-0.16255 0.00737441 0)
(-0.165563 0.00634764 0)
(-0.167768 0.0052596 0)
(-0.169156 0.00411739 0)
(-0.169722 0.0029244 0)
(-0.169449 0.00168375 0)
(-0.168294 0.000408146 0)
(-0.166263 -0.000916404 0)
(-0.163341 -0.00233681 0)
(-0.159477 -0.00379745 0)
(-0.154715 -0.00530238 0)
(-0.148997 -0.00683448 0)
(-0.142348 -0.00837727 0)
(-0.134744 -0.00990979 0)
(-0.126209 -0.0113993 0)
(-0.116762 -0.0128039 0)
(-0.106447 -0.0140828 0)
(-0.0953374 -0.015207 0)
(-0.0835786 -0.0161118 0)
(-0.0713403 -0.0167428 0)
(-0.0587837 -0.0170378 0)
(-0.0461246 -0.0169471 0)
(-0.0336029 -0.0164277 0)
(-0.0214761 -0.0154441 0)
(-0.0100342 -0.0140172 0)
(0.000448116 -0.0120914 0)
(0.00970083 -0.00974625 0)
(0.0174723 -0.00704747 0)
(0.0235697 -0.00411103 0)
(0.0277803 -0.00110803 0)
(0.0300717 0.0017166 0)
(0.0303251 0.00423481 0)
(0.0285953 0.0062297 0)
(0.025157 0.00727433 0)
(0.0201019 0.00733526 0)
(0.0141453 0.00645923 0)
(0.00822886 0.00490271 0)
(0.00335869 0.00288128 0)
(0.000341903 0.000849417 0)
(0.000232459 -0.00156763 0)
(0.00247693 -0.00415618 0)
(0.00543134 -0.00543987 0)
(0.00813694 -0.00547114 0)
(0.0103293 -0.00469659 0)
(0.0119199 -0.00353919 0)
(0.012922 -0.00232093 0)
(0.013369 -0.00121448 0)
(0.0133099 -0.000301234 0)
(0.012788 0.000391274 0)
(0.0118627 0.000888389 0)
(0.0105628 0.00125452 0)
(0.00889351 0.00156533 0)
(0.00682262 0.00189621 0)
(0.00430026 0.00230219 0)
(0.00125968 0.0028165 0)
(-0.00239877 0.00346926 0)
(-0.00676688 0.00428447 0)
(-0.0119309 0.00528176 0)
(-0.0179693 0.00647704 0)
(-0.0249358 0.00787253 0)
(-0.0328103 0.00941818 0)
(-0.0416104 0.0110653 0)
(-0.051264 0.0127643 0)
(-0.061639 0.0144369 0)
(-0.072545 0.0159948 0)
(-0.0837432 0.0173837 0)
(-0.0949911 0.0185638 0)
(-0.106082 0.0195023 0)
(-0.116803 0.0201667 0)
(-0.126983 0.020534 0)
(-0.136533 0.0206011 0)
(-0.145344 0.0203665 0)
(-0.153394 0.0198742 0)
(-0.160681 0.0191439 0)
(-0.167206 0.0181969 0)
(-0.172978 0.0170708 0)
(-0.17801 0.0157925 0)
(-0.182317 0.014388 0)
(-0.185906 0.0128756 0)
(-0.18879 0.0112769 0)
(-0.190974 0.00960427 0)
(-0.192463 0.00786474 0)
(-0.193252 0.0060626 0)
(-0.19334 0.00419682 0)
(-0.192716 0.00226665 0)
(-0.191369 0.000273229 0)
(-0.189276 -0.00178584 0)
(-0.186407 -0.00392308 0)
(-0.182749 -0.00613868 0)
(-0.178279 -0.00840361 0)
(-0.172979 -0.010727 0)
(-0.166823 -0.0130869 0)
(-0.159801 -0.0154644 0)
(-0.151899 -0.0178272 0)
(-0.143121 -0.0201324 0)
(-0.133483 -0.0223274 0)
(-0.123029 -0.0243529 0)
(-0.111821 -0.0261299 0)
(-0.0999448 -0.0275695 0)
(-0.0875449 -0.0285963 0)
(-0.0747833 -0.0291154 0)
(-0.0618492 -0.0290498 0)
(-0.0489755 -0.0283296 0)
(-0.0364184 -0.0269186 0)
(-0.0244307 -0.0248052 0)
(-0.0132489 -0.0219732 0)
(-0.00312408 -0.0184848 0)
(0.00570811 -0.0144483 0)
(0.0130707 -0.0100105 0)
(0.0188246 -0.0053615 0)
(0.0228655 -0.000726722 0)
(0.0251867 0.0036452 0)
(0.0256573 0.00740037 0)
(0.0241891 0.010318 0)
(0.0211464 0.0119589 0)
(0.0165198 0.0121635 0)
(0.0109415 0.0108235 0)
(0.00528465 0.00789337 0)
(0.000732087 0.0034406 0)
(0.000367234 -0.003062 0)
(0.00301762 -0.00701625 0)
(0.00589881 -0.00826039 0)
(0.00816862 -0.00772402 0)
(0.00977721 -0.0062997 0)
(0.0107498 -0.00453993 0)
(0.0111408 -0.00275858 0)
(0.0109918 -0.0011284 0)
(0.0103259 0.000268785 0)
(0.00916285 0.00141473 0)
(0.00748951 0.00235852 0)
(0.00527892 0.00318582 0)
(0.00249081 0.00399535 0)
(-0.000925687 0.00487768 0)
(-0.00503828 0.00590562 0)
(-0.00992838 0.00713247 0)
(-0.015679 0.00859037 0)
(-0.0223618 0.0102936 0)
(-0.0300257 0.0122428 0)
(-0.0386791 0.0144133 0)
(-0.0482753 0.0167516 0)
(-0.0587025 0.0191695 0)
(-0.0697959 0.0215462 0)
(-0.0813289 0.0237752 0)
(-0.0930534 0.0257671 0)
(-0.104744 0.0274466 0)
(-0.11618 0.0287262 0)
(-0.127161 0.0295471 0)
(-0.137511 0.0299281 0)
(-0.147106 0.0299186 0)
(-0.15592 0.029555 0)
(-0.163924 0.0288675 0)
(-0.171136 0.0278832 0)
(-0.177591 0.026631 0)
(-0.183312 0.0251582 0)
(-0.188338 0.0234963 0)
(-0.192703 0.0216767 0)
(-0.196436 0.0197238 0)
(-0.199556 0.0176619 0)
(-0.202085 0.0155079 0)
(-0.204031 0.0132737 0)
(-0.205402 0.0109686 0)
(-0.206199 0.00859455 0)
(-0.206418 0.00615114 0)
(-0.20605 0.00363421 0)
(-0.20508 0.0010396 0)
(-0.203491 -0.00163629 0)
(-0.201257 -0.00439659 0)
(-0.198353 -0.00724894 0)
(-0.194757 -0.0102011 0)
(-0.190438 -0.0132396 0)
(-0.185367 -0.0163587 0)
(-0.179517 -0.019538 0)
(-0.172863 -0.0227531 0)
(-0.16538 -0.0259657 0)
(-0.157054 -0.0291194 0)
(-0.14788 -0.0321441 0)
(-0.137877 -0.0349588 0)
(-0.127081 -0.0374611 0)
(-0.115552 -0.0395319 0)
(-0.103388 -0.0410429 0)
(-0.0907366 -0.0418812 0)
(-0.0777592 -0.0419148 0)
(-0.0646811 -0.0410565 0)
(-0.0517526 -0.0392366 0)
(-0.0392806 -0.0364813 0)
(-0.0274967 -0.0327735 0)
(-0.0166392 -0.0281788 0)
(-0.00695249 -0.0228433 0)
(0.00136976 -0.0169527 0)
(0.00818381 -0.0107485 0)
(0.0133903 -0.00449373 0)
(0.0169644 0.00155031 0)
(0.0189163 0.0070433 0)
(0.019232 0.0115881 0)
(0.0178255 0.014849 0)
(0.0148838 0.0164239 0)
(0.0106564 0.0159895 0)
(0.00563105 0.0131029 0)
(0.000846194 0.00661908 0)
(0.000504399 -0.00480391 0)
(0.00321419 -0.00984494 0)
(0.00562561 -0.0106476 0)
(0.00723273 -0.00937186 0)
(0.00813438 -0.00724764 0)
(0.00839276 -0.00487482 0)
(0.00807619 -0.00253838 0)
(0.00721343 -0.000381242 0)
(0.00580019 0.0015393 0)
(0.00380973 0.00323556 0)
(0.00119264 0.00476912 0)
(-0.00211386 0.00623794 0)
(-0.00617919 0.00775137 0)
(-0.0110745 0.00941016 0)
(-0.0168691 0.011293 0)
(-0.0236247 0.0134502 0)
(-0.0313842 0.0158997 0)
(-0.0401554 0.0186256 0)
(-0.0498973 0.0215798 0)
(-0.0605029 0.0246657 0)
(-0.0717969 0.0277586 0)
(-0.0835447 0.030717 0)
(-0.0954917 0.0333975 0)
(-0.107407 0.0357111 0)
(-0.119048 0.037514 0)
(-0.130179 0.038734 0)
(-0.140606 0.0393921 0)
(-0.15025 0.0395189 0)
(-0.15908 0.0391482 0)
(-0.167109 0.0383454 0)
(-0.174365 0.0371815 0)
(-0.180878 0.0357139 0)
(-0.186712 0.0339907 0)
(-0.191899 0.0320489 0)
(-0.196477 0.0299255 0)
(-0.200488 0.0276487 0)
(-0.203961 0.0252437 0)
(-0.20692 0.0227323 0)
(-0.209387 0.0201286 0)
(-0.211373 0.0174436 0)
(-0.212883 0.0146877 0)
(-0.213924 0.0118631 0)
(-0.214492 0.00896572 0)
(-0.214581 0.00598972 0)
(-0.214182 0.00292605 0)
(-0.21328 -0.00023447 0)
(-0.211855 -0.00349959 0)
(-0.209874 -0.00687305 0)
(-0.207313 -0.0103641 0)
(-0.20415 -0.0139827 0)
(-0.200352 -0.0177266 0)
(-0.195877 -0.021584 0)
(-0.190687 -0.0255333 0)
(-0.184749 -0.0295494 0)
(-0.178028 -0.033592 0)
(-0.170489 -0.0375971 0)
(-0.1621 -0.0414781 0)
(-0.152855 -0.045136 0)
(-0.142758 -0.0484481 0)
(-0.131833 -0.0512578 0)
(-0.12014 -0.0534106 0)
(-0.107789 -0.0547376 0)
(-0.0949143 -0.0550819 0)
(-0.0817129 -0.0543049 0)
(-0.0683965 -0.0522919 0)
(-0.0552825 -0.0490132 0)
(-0.0427356 -0.0445337 0)
(-0.0309783 -0.0389181 0)
(-0.0202769 -0.0323336 0)
(-0.0108687 -0.0250162 0)
(-0.00293086 -0.0172609 0)
(0.00341687 -0.00939543 0)
(0.00812929 -0.00174516 0)
(0.0112397 0.00533633 0)
(0.0127962 0.0114807 0)
(0.0128176 0.0162703 0)
(0.0113638 0.0192541 0)
(0.00857224 0.0199793 0)
(0.00475288 0.0176231 0)
(0.000676131 0.00959468 0)
(0.000632777 -0.00663812 0)
(0.00308596 -0.0122837 0)
(0.00477372 -0.0123177 0)
(0.00557426 -0.0102677 0)
(0.00568972 -0.00743962 0)
(0.00517215 -0.00446375 0)
(0.00407748 -0.00156442 0)
(0.00240667 0.00115707 0)
(0.000124987 0.0036757 0)
(-0.00282771 0.0060261 0)
(-0.00652827 0.00828609 0)
(-0.0110582 0.0105599 0)
(-0.0164941 0.0129551 0)
(-0.0229005 0.0155644 0)
(-0.0303216 0.0184515 0)
(-0.0387725 0.0216415 0)
(-0.0482267 0.0251103 0)
(-0.0585979 0.0287809 0)
(-0.0697334 0.0325488 0)
(-0.0814249 0.036248 0)
(-0.0934131 0.0397056 0)
(-0.105431 0.0428072 0)
(-0.117231 0.0453393 0)
(-0.128528 0.0472004 0)
(-0.139082 0.0483695 0)
(-0.148818 0.0488435 0)
(-0.157727 0.0486812 0)
(-0.165838 0.0479767 0)
(-0.173193 0.0468152 0)
(-0.179848 0.0452749 0)
(-0.185842 0.0434168 0)
(-0.191224 0.041302 0)
(-0.196042 0.0389741 0)
(-0.200331 0.0364672 0)
(-0.204131 0.0338142 0)
(-0.207471 0.0310374 0)
(-0.210371 0.0281572 0)
(-0.212853 0.0251892 0)
(-0.214934 0.0221442 0)
(-0.21662 0.0190285 0)
(-0.217914 0.0158479 0)
(-0.218818 0.0125985 0)
(-0.219333 0.00927007 0)
(-0.219454 0.0058533 0)
(-0.219173 0.00233458 0)
(-0.218484 -0.00130287 0)
(-0.217372 -0.00507492 0)
(-0.215815 -0.00898874 0)
(-0.213779 -0.0130479 0)
(-0.211223 -0.0172534 0)
(-0.208119 -0.0216139 0)
(-0.204427 -0.0261258 0)
(-0.200092 -0.0307627 0)
(-0.19506 -0.0354974 0)
(-0.1893 -0.0403047 0)
(-0.182783 -0.0451404 0)
(-0.17542 -0.0498848 0)
(-0.167176 -0.0544195 0)
(-0.158036 -0.0586165 0)
(-0.147964 -0.062284 0)
(-0.136992 -0.0652343 0)
(-0.125166 -0.0672592 0)
(-0.112589 -0.0681594 0)
(-0.0994225 -0.0677163 0)
(-0.0858972 -0.0657875 0)
(-0.072219 -0.0622643 0)
(-0.0587944 -0.0571823 0)
(-0.0460083 -0.0506935 0)
(-0.0341255 -0.0429645 0)
(-0.023445 -0.0342714 0)
(-0.0142063 -0.0249738 0)
(-0.00657786 -0.0154795 0)
(-0.000636681 -0.00619533 0)
(0.00363497 0.00247774 0)
(0.00631635 0.0101414 0)
(0.00750311 0.0163818 0)
(0.00728945 0.0207359 0)
(0.00575963 0.0226336 0)
(0.00330249 0.020993 0)
(0.000367366 0.0118704 0)
(0.000717196 -0.00840015 0)
(0.00264543 -0.014059 0)
(0.00342553 -0.0131838 0)
(0.00338149 -0.0102977 0)
(0.0026426 -0.00681031 0)
(0.0012972 -0.00324129 0)
(-0.000638125 0.000243798 0)
(-0.00319428 0.00358468 0)
(-0.00643355 0.00678576 0)
(-0.0104375 0.00989859 0)
(-0.0152937 0.0130074 0)
(-0.0210826 0.0162109 0)
(-0.0278668 0.0196008 0)
(-0.0356803 0.0232444 0)
(-0.0445183 0.0271691 0)
(-0.0543294 0.031351 0)
(-0.0649999 0.0357104 0)
(-0.0763626 0.0401026 0)
(-0.0881683 0.0443478 0)
(-0.100145 0.0483081 0)
(-0.112034 0.0517288 0)
(-0.123493 0.0544467 0)
(-0.134251 0.056372 0)
(-0.144186 0.0574625 0)
(-0.153269 0.0577771 0)
(-0.161547 0.0574122 0)
(-0.169065 0.0564655 0)
(-0.175876 0.0550307 0)
(-0.182041 0.0531945 0)
(-0.187614 0.051031 0)
(-0.19264 0.0486014 0)
(-0.197162 0.0459563 0)
(-0.201215 0.043134 0)
(-0.204829 0.0401671 0)
(-0.208035 0.037082 0)
(-0.210855 0.033897 0)
(-0.213305 0.0306316 0)
(-0.215397 0.0273035 0)
(-0.217136 0.0239245 0)
(-0.21855 0.0204584 0)
(-0.219667 0.0169059 0)
(-0.220462 0.013291 0)
(-0.220936 0.00959733 0)
(-0.221082 0.00581498 0)
(-0.220891 0.00193021 0)
(-0.220352 -0.00207278 0)
(-0.219464 -0.00621213 0)
(-0.218225 -0.0105094 0)
(-0.216625 -0.0149885 0)
(-0.214646 -0.0196686 0)
(-0.212255 -0.0245609 0)
(-0.209432 -0.0296888 0)
(-0.206123 -0.0350089 0)
(-0.202247 -0.0404812 0)
(-0.19771 -0.0460565 0)
(-0.192415 -0.0516638 0)
(-0.186321 -0.0572385 0)
(-0.179317 -0.0626238 0)
(-0.171444 -0.0677704 0)
(-0.162561 -0.0724126 0)
(-0.152646 -0.0763196 0)
(-0.141707 -0.0792539 0)
(-0.129776 -0.0809371 0)
(-0.116952 -0.0811206 0)
(-0.103421 -0.0795891 0)
(-0.0894333 -0.0761636 0)
(-0.0752772 -0.0707918 0)
(-0.0614122 -0.0636197 0)
(-0.0482762 -0.0548946 0)
(-0.0361879 -0.0449058 0)
(-0.0254711 -0.0340754 0)
(-0.0163745 -0.0228978 0)
(-0.00904253 -0.0118856 0)
(-0.0035044 -0.00153444 0)
(0.00031516 0.00769675 0)
(0.0025654 0.0153766 0)
(0.00341688 0.0210475 0)
(0.00303059 0.0240751 0)
(0.00172289 0.0230694 0)
(5.31907e-05 0.0131814 0)
(0.000725145 -0.00993013 0)
(0.00187598 -0.0150201 0)
(0.00172797 -0.0131223 0)
(0.000769059 -0.0094333 0)
(-0.000845045 -0.00532506 0)
(-0.00305767 -0.00115999 0)
(-0.00587998 0.00294626 0)
(-0.00937265 0.00696904 0)
(-0.0136168 0.0109335 0)
(-0.0187009 0.0148985 0)
(-0.0247064 0.0189417 0)
(-0.0316949 0.0231423 0)
(-0.0396962 0.0275611 0)
(-0.0486964 0.0322219 0)
(-0.0586282 0.0370964 0)
(-0.0693735 0.0421139 0)
(-0.0807424 0.0471185 0)
(-0.0924658 0.0519205 0)
(-0.104293 0.0563105 0)
(-0.115877 0.0600463 0)
(-0.126875 0.0629561 0)
(-0.137089 0.0649368 0)
(-0.146468 0.0660068 0)
(-0.155012 0.0662423 0)
(-0.162764 0.0657572 0)
(-0.169791 0.0646521 0)
(-0.17615 0.0630272 0)
(-0.181904 0.0609738 0)
(-0.187108 0.0585725 0)
(-0.191807 0.0558891 0)
(-0.196042 0.0529797 0)
(-0.199845 0.0498889 0)
(-0.203241 0.0466506 0)
(-0.206257 0.0432946 0)
(-0.208911 0.039846 0)
(-0.211217 0.036327 0)
(-0.213209 0.03273 0)
(-0.214916 0.0290609 0)
(-0.216347 0.0253246 0)
(-0.217501 0.0215545 0)
(-0.218368 0.0177397 0)
(-0.218965 0.0138436 0)
(-0.219294 0.00986387 0)
(-0.219361 0.00578567 0)
(-0.219169 0.00159537 0)
(-0.218722 -0.00272075 0)
(-0.218019 -0.00717935 0)
(-0.217052 -0.011804 0)
(-0.21581 -0.0166148 0)
(-0.214278 -0.021628 0)
(-0.212435 -0.0268535 0)
(-0.21025 -0.0322908 0)
(-0.207692 -0.0379912 0)
(-0.204735 -0.0439608 0)
(-0.201327 -0.0501636 0)
(-0.1974 -0.0565527 0)
(-0.192882 -0.0630744 0)
(-0.18762 -0.0694945 0)
(-0.181342 -0.0755817 0)
(-0.174044 -0.0812439 0)
(-0.165614 -0.0862154 0)
(-0.156033 -0.0902608 0)
(-0.145238 -0.0930183 0)
(-0.133259 -0.0941692 0)
(-0.1202 -0.093397 0)
(-0.106244 -0.0904681 0)
(-0.0916918 -0.085229 0)
(-0.0769396 -0.0777091 0)
(-0.0625371 -0.068184 0)
(-0.0489912 -0.0570511 0)
(-0.0366699 -0.0447433 0)
(-0.0259293 -0.0318477 0)
(-0.0170151 -0.0189959 0)
(-0.0100377 -0.00681044 0)
(-0.00496779 0.00413689 0)
(-0.00164826 0.013342 0)
(0.000162504 0.0203212 0)
(0.000762488 0.0244189 0)
(0.000466738 0.0240205 0)
(-0.000130023 0.0136404 0)
(0.000651391 -0.0110148 0)
(0.000873768 -0.0150506 0)
(-0.000257239 -0.0120827 0)
(-0.00213121 -0.00767469 0)
(-0.00463066 -0.00295954 0)
(-0.00772757 0.00181293 0)
(-0.0114599 0.00657796 0)
(-0.0159053 0.0113381 0)
(-0.0211519 0.0161281 0)
(-0.0272816 0.0210002 0)
(-0.0343554 0.0260119 0)
(-0.0424018 0.031209 0)
(-0.0514049 0.0366077 0)
(-0.061291 0.042177 0)
(-0.0719503 0.0478407 0)
(-0.0831853 0.0534417 0)
(-0.0947141 0.0587883 0)
(-0.106256 0.0636167 0)
(-0.117459 0.0676904 0)
(-0.127993 0.070811 0)
(-0.137743 0.0729177 0)
(-0.146654 0.0740467 0)
(-0.15474 0.0742935 0)
(-0.16205 0.0737557 0)
(-0.168654 0.0725586 0)
(-0.174617 0.0708041 0)
(-0.18 0.068591 0)
(-0.184858 0.0660039 0)
(-0.189235 0.0631142 0)
(-0.193168 0.0599804 0)
(-0.196689 0.0566516 0)
(-0.199826 0.0531669 0)
(-0.202602 0.0495585 0)
(-0.205041 0.0458516 0)
(-0.207164 0.0420655 0)
(-0.208996 0.0382143 0)
(-0.210538 0.0343246 0)
(-0.211796 0.0303984 0)
(-0.212791 0.0264262 0)
(-0.213533 0.0224065 0)
(-0.214036 0.0183307 0)
(-0.214321 0.0141901 0)
(-0.214401 0.00997714 0)
(-0.214287 0.00567718 0)
(-0.21399 0.00127341 0)
(-0.213521 -0.00325391 0)
(-0.212875 -0.00792778 0)
(-0.212051 -0.0127745 0)
(-0.21105 -0.0178206 0)
(-0.209867 -0.0230918 0)
(-0.208491 -0.0286105 0)
(-0.206905 -0.0343934 0)
(-0.205084 -0.0404492 0)
(-0.202996 -0.0467743 0)
(-0.200589 -0.0533509 0)
(-0.197796 -0.0601389 0)
(-0.194528 -0.0670682 0)
(-0.190721 -0.0741888 0)
(-0.186265 -0.0813168 0)
(-0.181011 -0.0882506 0)
(-0.174636 -0.0944941 0)
(-0.166899 -0.099764 0)
(-0.157801 -0.10382 0)
(-0.147261 -0.106268 0)
(-0.135286 -0.106696 0)
(-0.121967 -0.104743 0)
(-0.10752 -0.100133 0)
(-0.0923132 -0.0927864 0)
(-0.0768595 -0.0828374 0)
(-0.0618505 -0.07075 0)
(-0.0478726 -0.0571041 0)
(-0.0353508 -0.0425092 0)
(-0.0246646 -0.0277269 0)
(-0.0160405 -0.0135294 0)
(-0.00953728 -0.000646167 0)
(-0.00503747 0.0102817 0)
(-0.00226089 0.0186889 0)
(-0.000828546 0.0237797 0)
(-0.000292327 0.0240123 0)
(-0.000142829 0.0135591 0)
(0.000525395 -0.0114507 0)
(-0.000303719 -0.0140786 0)
(-0.0024184 -0.0100924 0)
(-0.00518921 -0.00501132 0)
(-0.00857382 0.000297033 0)
(-0.0125545 0.00568656 0)
(-0.0171882 0.0111401 0)
(-0.0225617 0.0166752 0)
(-0.0287587 0.0223219 0)
(-0.0358421 0.0281123 0)
(-0.0438423 0.0340704 0)
(-0.0527457 0.0401974 0)
(-0.0624837 0.046455 0)
(-0.0729474 0.0527663 0)
(-0.0839412 0.058973 0)
(-0.0952038 0.0648632 0)
(-0.106408 0.0701557 0)
(-0.117206 0.0746024 0)
(-0.127347 0.0780097 0)
(-0.136694 0.0803287 0)
(-0.14521 0.0816072 0)
(-0.152904 0.0819232 0)
(-0.159834 0.0814034 0)
(-0.166068 0.0801685 0)
(-0.171674 0.0783389 0)
(-0.17671 0.076013 0)
(-0.18123 0.0732816 0)
(-0.185275 0.0702201 0)
(-0.188883 0.0668923 0)
(-0.192083 0.0633516 0)
(-0.194903 0.059643 0)
(-0.197366 0.055803 0)
(-0.199497 0.0518622 0)
(-0.201317 0.0478455 0)
(-0.202845 0.0437715 0)
(-0.204101 0.0396527 0)
(-0.205102 0.0354988 0)
(-0.205864 0.0313139 0)
(-0.206409 0.0270991 0)
(-0.206753 0.0228544 0)
(-0.206913 0.0185741 0)
(-0.206905 0.0142479 0)
(-0.206743 0.00986413 0)
(-0.20644 0.00540641 0)
(-0.206007 0.00085533 0)
(-0.205455 -0.00381133 0)
(-0.204791 -0.00861973 0)
(-0.204024 -0.0135961 0)
(-0.20316 -0.0187686 0)
(-0.202203 -0.024166 0)
(-0.201155 -0.0298165 0)
(-0.200008 -0.0357467 0)
(-0.198752 -0.0419808 0)
(-0.197366 -0.0485336 0)
(-0.195817 -0.0554075 0)
(-0.194053 -0.0625862 0)
(-0.192 -0.0700237 0)
(-0.189569 -0.0776376 0)
(-0.186643 -0.0853061 0)
(-0.183052 -0.0928619 0)
(-0.17868 -0.10029 0)
(-0.173298 -0.107167 0)
(-0.166471 -0.11279 0)
(-0.157944 -0.116776 0)
(-0.147724 -0.118794 0)
(-0.135743 -0.118331 0)
(-0.122098 -0.114944 0)
(-0.107068 -0.108392 0)
(-0.0911034 -0.0986501 0)
(-0.0748726 -0.0860188 0)
(-0.0592273 -0.0712079 0)
(-0.0448562 -0.055023 0)
(-0.0322413 -0.0382742 0)
(-0.0217611 -0.0219061 0)
(-0.013603 -0.00684005 0)
(-0.00773834 0.00608745 0)
(-0.00390181 0.0161511 0)
(-0.00170231 0.0223852 0)
(-0.00055307 0.0233951 0)
(-5.28445e-05 0.0132825 0)
(0.000271569 -0.0112517 0)
(-0.00160561 -0.0121141 0)
(-0.0046569 -0.00715953 0)
(-0.00829761 -0.00145519 0)
(-0.0125447 0.00442769 0)
(-0.0173812 0.0104396 0)
(-0.0228752 0.0165971 0)
(-0.0291136 0.0229194 0)
(-0.0361654 0.0294178 0)
(-0.0440664 0.0360915 0)
(-0.0528094 0.0429208 0)
(-0.0623342 0.0498542 0)
(-0.0725396 0.0568098 0)
(-0.0832363 0.0636242 0)
(-0.0941792 0.0700775 0)
(-0.105038 0.0758785 0)
(-0.115469 0.0807546 0)
(-0.125266 0.084538 0)
(-0.13428 0.0871644 0)
(-0.142458 0.0886604 0)
(-0.149823 0.0891247 0)
(-0.156425 0.088682 0)
(-0.162335 0.0874701 0)
(-0.167617 0.0856103 0)
(-0.172331 0.0832134 0)
(-0.176526 0.0803711 0)
(-0.180243 0.0771658 0)
(-0.183518 0.0736657 0)
(-0.186383 0.0699302 0)
(-0.188866 0.0660091 0)
(-0.190994 0.0619449 0)
(-0.192793 0.0577734 0)
(-0.194288 0.0535243 0)
(-0.195503 0.0492209 0)
(-0.196458 0.0448804 0)
(-0.197178 0.0405146 0)
(-0.197684 0.0361337 0)
(-0.197995 0.0317425 0)
(-0.198133 0.0273415 0)
(-0.198113 0.0229287 0)
(-0.197953 0.0184967 0)
(-0.197667 0.0140344 0)
(-0.197269 0.00952814 0)
(-0.196774 0.00496097 0)
(-0.196194 0.000312475 0)
(-0.195542 -0.00444209 0)
(-0.194831 -0.00932541 0)
(-0.194074 -0.0143662 0)
(-0.193282 -0.0195939 0)
(-0.192466 -0.0250398 0)
(-0.191633 -0.0307353 0)
(-0.190788 -0.0367118 0)
(-0.18993 -0.0429994 0)
(-0.189053 -0.0496226 0)
(-0.188138 -0.0565978 0)
(-0.187153 -0.0639289 0)
(-0.186049 -0.071603 0)
(-0.184752 -0.0795832 0)
(-0.18316 -0.0877833 0)
(-0.181129 -0.0960613 0)
(-0.178488 -0.104204 0)
(-0.175011 -0.111942 0)
(-0.170466 -0.119121 0)
(-0.164517 -0.125109 0)
(-0.156594 -0.128979 0)
(-0.146665 -0.130467 0)
(-0.134598 -0.128906 0)
(-0.12052 -0.123841 0)
(-0.104784 -0.115056 0)
(-0.0879654 -0.102629 0)
(-0.0709194 -0.0870891 0)
(-0.0546835 -0.0694502 0)
(-0.0400555 -0.0507964 0)
(-0.027549 -0.0321485 0)
(-0.0175199 -0.0146614 0)
(-0.0100755 0.000586251 0)
(-0.00502976 0.012644 0)
(-0.00203964 0.0203643 0)
(-0.000447725 0.0224002 0)
(0.000123104 0.0130171 0)
(-3.74986e-05 -0.0102266 0)
(-0.00296324 -0.00915705 0)
(-0.00688641 -0.00331886 0)
(-0.0113531 0.00295757 0)
(-0.0164176 0.00939353 0)
(-0.0220562 0.0160224 0)
(-0.0283399 0.0228795 0)
(-0.0353473 0.0299722 0)
(-0.0431256 0.0372805 0)
(-0.0516782 0.0447606 0)
(-0.0609572 0.052341 0)
(-0.0708726 0.0599284 0)
(-0.0812484 0.0673519 0)
(-0.0918521 0.0743898 0)
(-0.102375 0.0807461 0)
(-0.11249 0.0861282 0)
(-0.12199 0.0903707 0)
(-0.13073 0.0933907 0)
(-0.138636 0.0951915 0)
(-0.145726 0.0958775 0)
(-0.152055 0.0955822 0)
(-0.157685 0.0944473 0)
(-0.162683 0.092607 0)
(-0.167104 0.0901763 0)
(-0.170998 0.0872565 0)
(-0.174406 0.0839333 0)
(-0.177364 0.0802829 0)
(-0.179906 0.07637 0)
(-0.182064 0.0722508 0)
(-0.183868 0.0679743 0)
(-0.185348 0.0635823 0)
(-0.186533 0.05911 0)
(-0.187449 0.0545858 0)
(-0.188123 0.050031 0)
(-0.188579 0.0454624 0)
(-0.188841 0.0408922 0)
(-0.18893 0.0363287 0)
(-0.188867 0.0317748 0)
(-0.188668 0.0272294 0)
(-0.18835 0.0226883 0)
(-0.187928 0.0181431 0)
(-0.187414 0.0135821 0)
(-0.186823 0.00899096 0)
(-0.186169 0.00435257 0)
(-0.185465 -0.000353357 0)
(-0.184725 -0.00515077 0)
(-0.183961 -0.010063 0)
(-0.183191 -0.0151186 0)
(-0.182429 -0.0203479 0)
(-0.18169 -0.0257832 0)
(-0.180988 -0.0314583 0)
(-0.180334 -0.0374081 0)
(-0.179736 -0.043667 0)
(-0.179199 -0.0502667 0)
(-0.178717 -0.0572336 0)
(-0.178275 -0.0645854 0)
(-0.177842 -0.0723271 0)
(-0.17737 -0.0804443 0)
(-0.176781 -0.088892 0)
(-0.175965 -0.0975864 0)
(-0.174769 -0.106389 0)
(-0.172986 -0.115063 0)
(-0.170367 -0.123272 0)
(-0.166586 -0.1306 0)
(-0.161296 -0.136665 0)
(-0.153902 -0.140398 0)
(-0.144138 -0.14119 0)
(-0.131848 -0.138306 0)
(-0.117185 -0.131272 0)
(-0.100609 -0.119921 0)
(-0.0828664 -0.1045 0)
(-0.0650436 -0.0858461 0)
(-0.0483778 -0.0653674 0)
(-0.0337524 -0.0444225 0)
(-0.0216799 -0.0243075 0)
(-0.0124562 -0.00640352 0)
(-0.00603186 0.00805908 0)
(-0.00215 0.0177524 0)
(-0.000156811 0.0212429 0)
(0.000318554 0.0129948 0)
(-0.00038093 -0.00840605 0)
(-0.0042976 -0.00526534 0)
(-0.00902441 0.00137356 0)
(-0.014258 0.00817189 0)
(-0.0200769 0.0151337 0)
(-0.0264415 0.0223597 0)
(-0.0334199 0.0298903 0)
(-0.0410764 0.0377079 0)
(-0.0494316 0.0457512 0)
(-0.0584545 0.0539243 0)
(-0.0680698 0.0621152 0)
(-0.0781184 0.0701406 0)
(-0.0883882 0.0777765 0)
(-0.098597 0.0847286 0)
(-0.108438 0.0906931 0)
(-0.117696 0.095477 0)
(-0.126214 0.0989752 0)
(-0.133913 0.101176 0)
(-0.14079 0.102165 0)
(-0.146898 0.102088 0)
(-0.152299 0.101092 0)
(-0.157056 0.0993205 0)
(-0.161225 0.0968989 0)
(-0.164854 0.0939351 0)
(-0.167987 0.0905236 0)
(-0.170662 0.0867467 0)
(-0.172915 0.0826771 0)
(-0.174781 0.0783777 0)
(-0.176295 0.0739043 0)
(-0.177491 0.0693059 0)
(-0.178403 0.0646229 0)
(-0.179059 0.0598885 0)
(-0.17949 0.0551292 0)
(-0.179721 0.0503653 0)
(-0.179778 0.0456121 0)
(-0.179682 0.0408798 0)
(-0.179453 0.0361737 0)
(-0.179108 0.0314946 0)
(-0.178661 0.02684 0)
(-0.178126 0.0222037 0)
(-0.177514 0.0175766 0)
(-0.176839 0.0129467 0)
(-0.176111 0.0082993 0)
(-0.175343 0.00361734 0)
(-0.174547 -0.00111849 0)
(-0.173736 -0.00592861 0)
(-0.172925 -0.0108397 0)
(-0.172131 -0.0158782 0)
(-0.171369 -0.021074 0)
(-0.170658 -0.0264592 0)
(-0.170017 -0.0320687 0)
(-0.169462 -0.0379391 0)
(-0.169009 -0.0441082 0)
(-0.168671 -0.050613 0)
(-0.168455 -0.0574884 0)
(-0.168358 -0.0647636 0)
(-0.168367 -0.0724587 0)
(-0.168451 -0.0805786 0)
(-0.168557 -0.0891047 0)
(-0.168603 -0.0979874 0)
(-0.168471 -0.107133 0)
(-0.167993 -0.116384 0)
(-0.166942 -0.125499 0)
(-0.165024 -0.134103 0)
(-0.161881 -0.14169 0)
(-0.15706 -0.147628 0)
(-0.149989 -0.151018 0)
(-0.1402 -0.1509 0)
(-0.127487 -0.146402 0)
(-0.112062 -0.137029 0)
(-0.0945235 -0.122715 0)
(-0.0758429 -0.10396 0)
(-0.0574101 -0.0820459 0)
(-0.0406237 -0.058825 0)
(-0.0264099 -0.0359396 0)
(-0.0152408 -0.0150502 0)
(-0.00727579 0.00226379 0)
(-0.00236018 0.0144822 0)
(9.85285e-05 0.0199369 0)
(0.000476416 0.0132079 0)
(-0.000733335 -0.00579376 0)
(-0.00555303 -0.000511993 0)
(-0.0110033 0.00684677 0)
(-0.016931 0.0141157 0)
(-0.0234224 0.0215678 0)
(-0.030418 0.0293556 0)
(-0.037978 0.0375118 0)
(-0.0461482 0.0459827 0)
(-0.0549218 0.0546546 0)
(-0.0642428 0.0633947 0)
(-0.0739719 0.0719998 0)
(-0.0839224 0.0802346 0)
(-0.0938425 0.0878136 0)
(-0.103447 0.0944172 0)
(-0.112511 0.0998237 0)
(-0.120864 0.103889 0)
(-0.128414 0.10658 0)
(-0.135141 0.107966 0)
(-0.141087 0.108183 0)
(-0.146313 0.107394 0)
(-0.15088 0.105749 0)
(-0.154845 0.103383 0)
(-0.158257 0.100415 0)
(-0.161161 0.0969482 0)
(-0.163597 0.0930736 0)
(-0.165607 0.0888717 0)
(-0.167227 0.0844135 0)
(-0.168499 0.0797622 0)
(-0.169461 0.0749741 0)
(-0.170148 0.0700953 0)
(-0.170594 0.0651638 0)
(-0.170832 0.0602113 0)
(-0.170888 0.0552615 0)
(-0.170789 0.0503323 0)
(-0.170556 0.0454362 0)
(-0.170209 0.0405801 0)
(-0.169763 0.0357667 0)
(-0.169231 0.0309947 0)
(-0.168624 0.0262596 0)
(-0.167953 0.0215542 0)
(-0.167227 0.0168686 0)
(-0.166454 0.0121906 0)
(-0.165643 0.00750596 0)
(-0.164804 0.00279823 0)
(-0.163949 -0.00195076 0)
(-0.163089 -0.00676098 0)
(-0.162238 -0.0116562 0)
(-0.161412 -0.0166619 0)
(-0.160629 -0.0218064 0)
(-0.159909 -0.0271208 0)
(-0.159274 -0.0326393 0)
(-0.158745 -0.038399 0)
(-0.158344 -0.0444393 0)
(-0.158091 -0.0508011 0)
(-0.158002 -0.057525 0)
(-0.158087 -0.0646498 0)
(-0.158347 -0.0722084 0)
(-0.158768 -0.0802233 0)
(-0.159318 -0.0887001 0)
(-0.159938 -0.0976192 0)
(-0.160539 -0.106923 0)
(-0.16099 -0.116503 0)
(-0.161106 -0.126179 0)
(-0.160632 -0.135671 0)
(-0.159237 -0.144566 0)
(-0.156513 -0.152276 0)
(-0.151955 -0.158045 0)
(-0.144943 -0.160849 0)
(-0.134884 -0.159518 0)
(-0.121515 -0.153004 0)
(-0.105144 -0.14081 0)
(-0.0865562 -0.123044 0)
(-0.0670297 -0.100612 0)
(-0.0483241 -0.0753815 0)
(-0.0319023 -0.0496779 0)
(-0.0186631 -0.0255103 0)
(-0.00899596 -0.00488136 0)
(-0.0028865 0.0104293 0)
(0.000175867 0.018383 0)
(0.00060773 0.0136066 0)
(-0.00107042 -0.00245907 0)
(-0.00668839 0.00501177 0)
(-0.0127697 0.0130139 0)
(-0.0193049 0.0207024 0)
(-0.0263727 0.0286 0)
(-0.0338909 0.0368984 0)
(-0.0419079 0.0456125 0)
(-0.050451 0.0546411 0)
(-0.059495 0.0638363 0)
(-0.0689239 0.0729708 0)
(-0.0785727 0.0817809 0)
(-0.0882252 0.0899971 0)
(-0.0976224 0.0972794 0)
(-0.106533 0.103375 0)
(-0.114775 0.108095 0)
(-0.122233 0.111373 0)
(-0.128873 0.11325 0)
(-0.134719 0.113852 0)
(-0.139828 0.113344 0)
(-0.144262 0.111889 0)
(-0.148078 0.109633 0)
(-0.151326 0.106707 0)
(-0.154054 0.103224 0)
(-0.156306 0.0992853 0)
(-0.158125 0.0949801 0)
(-0.159554 0.0903882 0)
(-0.160637 0.0855812 0)
(-0.161416 0.0806225 0)
(-0.161932 0.0755648 0)
(-0.162221 0.0704515 0)
(-0.162317 0.0653185 0)
(-0.16225 0.0601937 0)
(-0.162046 0.0550974 0)
(-0.161727 0.050044 0)
(-0.16131 0.0450421 0)
(-0.160811 0.0400955 0)
(-0.160241 0.0352041 0)
(-0.159609 0.0303645 0)
(-0.158923 0.0255706 0)
(-0.158188 0.020814 0)
(-0.157409 0.0160846 0)
(-0.156594 0.0113701 0)
(-0.155747 0.00665714 0)
(-0.154876 0.00193034 0)
(-0.15399 -0.00282703 0)
(-0.153099 -0.00763349 0)
(-0.152216 -0.0125101 0)
(-0.151357 -0.01748 0)
(-0.150539 -0.0225692 0)
(-0.149784 -0.0278068 0)
(-0.149114 -0.0332252 0)
(-0.148555 -0.0388606 0)
(-0.148133 -0.0447525 0)