/*--------------------------------*- C++ -*----------------------------------*\
  =========                 |
  \\      /  F ield         | OpenFOAM: The Open Source CFD Toolbox
   \\    /   O peration     | Website:  https://openfoam.org
    \\  /    A nd           | Version:  13
     \\/     M anipulation  |
\*---------------------------------------------------------------------------*/
FoamFile
{
    format      ascii;
    class       volScalarField;
    location    "2.9";
    object      epsilon;
}
// * * * * * * * * * * * * * * * * * * * * * * * * * * * * * * * * * * * * * //

dimensions      [0 2 -3 0 0 0 0];

internalField   nonuniform List<scalar> 
6400
(
2.21555e-05
0.000112231
0.000260222
0.000416614
0.000550606
0.00065379
0.000732404
0.000798648
0.000865104
0.000941684
0.0010365
0.00115516
0.00129985
0.00147252
0.00167365
0.00190235
0.00215615
0.00242997
0.00271703
0.00301135
0.00331311
0.00363568
0.00400616
0.00444559
0.00495934
0.00552496
0.0061023
0.0066837
0.00727998
0.0079044
0.00856283
0.00924737
0.00992106
0.0105843
0.0112323
0.0118763
0.0125232
0.0131824
0.0138622
0.0145703
0.0153136
0.0160967
0.0169273
0.0178122
0.0187474
0.0197355
0.0207832
0.0219265
0.0232335
0.0248749
0.026541
0.0282374
0.0299044
0.0315132
0.0330095
0.0343344
0.0354198
0.0361305
0.0364757
0.0365856
0.0361086
0.0350151
0.0333237
0.0310818
0.0283276
0.0251675
0.0217518
0.0182689
0.0148769
0.0116639
0.00876538
0.00647293
0.00459088
0.00311209
0.00201922
0.00125362
0.000741562
0.000407914
0.000182474
3.8003e-05
0.000108575
9.93967e-05
0.00015236
0.000217993
0.000277022
0.000327291
0.000371423
0.000413983
0.000460145
0.000515117
0.000584013
0.000671648
0.000782255
0.000920701
0.00109239
0.00130315
0.00155887
0.00186509
0.00222725
0.00265163
0.00314751
0.00372432
0.00439383
0.00518048
0.00608663
0.00709783
0.00821663
0.00939335
0.0105646
0.0116848
0.0126947
0.0135388
0.01423
0.0147682
0.0151751
0.0154771
0.0156977
0.0158621
0.0159916
0.0161048
0.0162158
0.0163412
0.0164937
0.0166541
0.0168239
0.0170104
0.0172424
0.0175274
0.0178625
0.0182499
0.0186807
0.0191274
0.0195904
0.0200387
0.0204575
0.0208143
0.0210471
0.0211382
0.0211176
0.0209052
0.0204524
0.0197343
0.0187513
0.017495
0.0159992
0.0143106
0.0125044
0.0106623
0.00886409
0.0071795
0.00566684
0.00441003
0.00334725
0.00245449
0.00172108
0.00113925
0.000698586
0.000387533
0.000197331
0.000197302
0.000240916
0.000171755
0.000204441
0.000250311
0.000293159
0.00033476
0.000379329
0.000431793
0.000497771
0.00058407
0.00069734
0.00084573
0.0010384
0.00128543
0.00159837
0.00198964
0.00247017
0.00304904
0.00373272
0.0045241
0.00542245
0.00642347
0.00750974
0.00862576
0.00969887
0.0106453
0.0113763
0.0118838
0.0122437
0.0124903
0.0126901
0.012841
0.012884
0.0128109
0.0126924
0.0125615
0.0124313
0.0123179
0.0122337
0.0121937
0.0121822
0.0122127
0.0122933
0.0124369
0.0126523
0.0129371
0.0132743
0.013666
0.0141071
0.0145946
0.0151242
0.0156857
0.0162714
0.0168647
0.0174493
0.0179999
0.0184871
0.0188822
0.0191012
0.0191672
0.0190383
0.0186351
0.0179281
0.0169114
0.0156259
0.0141176
0.0124521
0.0107108
0.00897565
0.00732535
0.00582694
0.00453209
0.00344912
0.00256647
0.00186149
0.00130444
0.000867869
0.000534213
0.000332456
0.000498702
0.000414322
0.000284246
0.000309049
0.00035006
0.000393283
0.000442168
0.000502692
0.000581998
0.000688569
0.000832277
0.00102567
0.0012825
0.00161747
0.00204544
0.00257996
0.00323129
0.0040039
0.00489189
0.00587553
0.00691878
0.00797072
0.00896808
0.00983848
0.0105177
0.0109503
0.0111862
0.0112946
0.0113356
0.0112551
0.0110268
0.0107557
0.0104111
0.01014
0.00993477
0.0097509
0.00961256
0.00952245
0.00948252
0.00947431
0.00952202
0.00961864
0.00976491
0.00996241
0.0102118
0.0105127
0.0108632
0.0112623
0.011711
0.0122087
0.0127543
0.013346
0.0139791
0.0146479
0.0153422
0.0160482
0.0167454
0.0174074
0.0180011
0.0184853
0.018769
0.0188669
0.0187468
0.0183493
0.0176417
0.0165358
0.0151381
0.0135005
0.0117071
0.00985554
0.00804971
0.00638334
0.00492613
0.00371196
0.00274227
0.00199113
0.00142027
0.000986505
0.000659479
0.000474853
0.000792
0.000642266
0.000431171
0.00044627
0.000488115
0.0005426
0.000611253
0.000702185
0.000826001
0.000995774
0.001227
0.00153719
0.0019443
0.00246474
0.00311078
0.00388685
0.00478522
0.00578128
0.00682988
0.007866
0.00881034
0.00958776
0.0101346
0.0104062
0.010516
0.0105465
0.0103854
0.0100386
0.00961582
0.00921679
0.00886856
0.008551
0.00827729
0.00807034
0.0079114
0.00779697
0.00773994
0.00771906
0.00772452
0.00778459
0.0078795
0.00801402
0.00818566
0.0083953
0.00864281
0.00892902
0.00925505
0.0096228
0.0100345
0.010492
0.0109973
0.011552
0.0121565
0.0128098
0.0135085
0.0142464
0.0150119
0.0157862
0.016544
0.0172513
0.017862
0.0182892
0.0184685
0.0184578
0.0180838
0.0174443
0.0162955
0.0147958
0.0130223
0.0110767
0.00908754
0.00718822
0.0054916
0.00406973
0.0029447
0.0020957
0.00147613
0.00103042
0.000716527
0.00056691
0.000984029
0.00094304
0.000615067
0.000616073
0.000665265
0.000741465
0.000842556
0.000979515
0.00116738
0.00142447
0.00177123
0.00222809
0.002812
0.00353213
0.00438495
0.00534922
0.00638185
0.00741678
0.00837034
0.00915653
0.00968605
0.00993303
0.0100119
0.00996032
0.00968642
0.00921258
0.00872315
0.00827397
0.0078584
0.00750424
0.00720574
0.00695938
0.00676642
0.00662294
0.00652013
0.00646247
0.00643813
0.00643344
0.00646304
0.00652379
0.00660861
0.00671996
0.00685596
0.0070175
0.00720501
0.00742007
0.00766469
0.00794177
0.00825481
0.00860794
0.00900577
0.00945344
0.00995618
0.0105185
0.0111437
0.0118332
0.012586
0.0133971
0.0142535
0.0151364
0.0160097
0.0168247
0.0175203
0.0179449
0.0180947
0.0179055
0.0173806
0.016226
0.0146411
0.0127096
0.0105697
0.00840118
0.00638138
0.00464799
0.00327101
0.00224972
0.00153289
0.00104669
0.000732603
0.000609986
0.00106259
0.00133424
0.000839693
0.000822603
0.000889266
0.000997086
0.00114348
0.00134242
0.00161341
0.00197887
0.00246098
0.00307705
0.00383363
0.00472034
0.0057046
0.006729
0.00771372
0.00856574
0.00919056
0.00949243
0.0095923
0.00954701
0.00924128
0.00874274
0.00819635
0.0076892
0.00722608
0.00682697
0.00648558
0.00620523
0.00597639
0.00579469
0.00565493
0.00555138
0.00547848
0.00543605
0.00541678
0.00541176
0.00542827
0.00546546
0.0055178
0.00558666
0.00567103
0.00577198
0.00589014
0.00602714
0.00618499
0.00636643
0.00657494
0.00681492
0.00709163
0.00741131
0.00778135
0.00821086
0.00870958
0.0092871
0.00995286
0.0107147
0.011574
0.0125251
0.0135583
0.0146426
0.0157295
0.0167408
0.0175527
0.0179431
0.0180188
0.0176251
0.0164839
0.0147756
0.0126112
0.0102012
0.00779563
0.00562983
0.00386394
0.00255244
0.00165563
0.00108168
0.000739267
0.000621051
0.00106148
0.001831
0.00110803
0.00107356
0.00116677
0.00131635
0.00152036
0.00179536
0.00216396
0.0026493
0.00326924
0.00402918
0.00491479
0.00588639
0.00687737
0.00779927
0.00855457
0.00901289
0.00919827
0.00923256
0.00900309
0.00851512
0.00793806
0.00738171
0.0068624
0.00641214
0.00602449
0.00570152
0.0054336
0.00521607
0.00504027
0.00490101
0.00479261
0.00471037
0.00465038
0.0046098
0.00458808
0.00457944
0.0045789
0.00459592
0.00462237
0.00466065
0.00470967
0.00477033
0.00484321
0.00492961
0.00503114
0.00514992
0.00528863
0.00545065
0.00564013
0.00586223
0.00612336
0.0064315
0.00679639
0.00723008
0.00774696
0.00836348
0.00909981
0.00997066
0.0109872
0.0121473
0.0134333
0.0148014
0.0161643
0.0173855
0.0181522
0.0184378
0.0182299
0.017071
0.0151482
0.012657
0.00989481
0.00720943
0.00489929
0.00313263
0.00192291
0.00117587
0.000761798
0.000623647
0.00104104
0.00244397
0.00142379
0.00137558
0.00150238
0.00170316
0.00197473
0.00233493
0.0028064
0.00340766
0.00414462
0.00500227
0.00593856
0.00688316
0.00774383
0.00842187
0.00877743
0.00889889
0.00883532
0.00845403
0.00788585
0.00729524
0.00672034
0.00621085
0.0057673
0.00539488
0.00508316
0.00482681
0.00461623
0.00444532
0.00430724
0.00419731
0.00411101
0.00404485
0.00399591
0.00396192
0.00394259
0.00393418
0.00393259
0.00394381
0.00396357
0.00399262
0.00403042
0.00407753
0.00413439
0.00420194
0.00428134
0.00437408
0.00448203
0.00460751
0.00475331
0.00492285
0.00512022
0.00535041
0.00561989
0.00593704
0.00631289
0.00676269
0.00730852
0.00797797
0.00880189
0.00981535
0.0110442
0.0124858
0.0141098
0.0158293
0.0174726
0.0186558
0.019158
0.0191295
0.0178703
0.0156333
0.0127095
0.00953023
0.00656085
0.0041531
0.00245022
0.00139221
0.000830313
0.000638669
0.00104615
0.00318157
0.00179267
0.00173308
0.00189811
0.00215681
0.00250118
0.00294768
0.00351452
0.00420938
0.00501947
0.00590458
0.00679545
0.00760035
0.00821217
0.00850837
0.00859875
0.0084424
0.00798675
0.00738513
0.00677214
0.00619938
0.00569001
0.00525748
0.00489331
0.00459218
0.00434343
0.00413996
0.00397385
0.0038397
0.00373231
0.00364787
0.00358297
0.00353487
0.00350119
0.00348185
0.00347351
0.00347178
0.00347995
0.00349772
0.00352278
0.00355572
0.00359624
0.00364475
0.00370169
0.00376779
0.00384396
0.0039313
0.00403119
0.00414525
0.00427538
0.00442377
0.00459298
0.0047861
0.00500693
0.00526028
0.00555252
0.00589222
0.00628987
0.00676396
0.00734591
0.0080833
0.00903626
0.0102695
0.0118107
0.0136576
0.0157243
0.0178065
0.0194215
0.0201429
0.0201912
0.0187497
0.0160624
0.0126032
0.00898036
0.0057821
0.00337607
0.00182619
0.000991194
0.000687774
0.00109946
0.00408785
0.00223094
0.00214728
0.00235176
0.00267069
0.00308655
0.00361051
0.00425143
0.00500084
0.00582378
0.00665599
0.00740954
0.00797008
0.00823127
0.00830291
0.00808419
0.00759304
0.0069916
0.00636352
0.00578651
0.0052806
0.0048513
0.00449467
0.00419961
0.00395787
0.00376024
0.00360014
0.0034714
0.00336949
0.00329032
0.00323069
0.00318762
0.0031589
0.00314471
0.00313966
0.0031402
0.00315172
0.00317018
0.00319583
0.00322777
0.00326629
0.00331142
0.00336359
0.00342335
0.00349145
0.00356884
0.00365659
0.003756
0.0038685
0.00399568
0.00413925
0.00430104
0.004483
0.00468725
0.00491618
0.00517282
0.00546134
0.00578813
0.00616321
0.0066
0.00711949
0.00776441
0.0086175
0.00980274
0.0114064
0.0134428
0.0158541
0.0183992
0.0204199
0.0213073
0.0213504
0.0195364
0.016238
0.0121635
0.00813749
0.00484294
0.00258416
0.00131475
0.000805708
0.00124577
0.00512639
0.00272642
0.00261232
0.00285556
0.00323228
0.00371099
0.00429355
0.00497532
0.00572898
0.00649843
0.00720238
0.00772844
0.00797083
0.00803256
0.00779218
0.0072951
0.00668492
0.00605492
0.00546858
0.00496076
0.00453228
0.00417772
0.00388706
0.00364968
0.00345741
0.00330273
0.00317993
0.00308398
0.00301091
0.00295708
0.0029194
0.00289632
0.00288558
0.00288241
0.00288569
0.00289726
0.00291534
0.00293881
0.00296771
0.00300183
0.0030415
0.00308707
0.00313918
0.00319857
0.0032662
0.00334318
0.00343074
0.0035303
0.00364339
0.00377164
0.00391674
0.00408037
0.00426417
0.00446959
0.00469791
0.00495022
0.00522764
0.00553187
0.00586643
0.00623855
0.00666183
0.00715172
0.00774557
0.00851952
0.0096211
0.0112525
0.0134642
0.016225
0.0192492
0.021615
0.0225988
0.0224857
0.0200219
0.0159407
0.0112323
0.0069498
0.00377262
0.00186964
0.00104522
0.00154698
0.00627562
0.00327145
0.00311948
0.00339741
0.00382431
0.00435021
0.00496423
0.005646
0.00634996
0.0070044
0.007507
0.00774235
0.00779945
0.00756592
0.00707775
0.00646712
0.00583004
0.00523566
0.00471828
0.00428581
0.00392948
0.00363927
0.00340428
0.00321528
0.00306491
0.00294681
0.00285589
0.00278769
0.00273828
0.00270422
0.00268369
0.00267412
0.00267112
0.00267282
0.00268172
0.00269542
0.00271347
0.00273557
0.00276192
0.00279276
0.00282863
0.00287018
0.00291823
0.00297376
0.00303789
0.00311188
0.00319715
0.00329528
0.00340799
0.00353712
0.00368458
0.0038523
0.0040421
0.00425555
0.00449377
0.00475729
0.0050459
0.00535878
0.00569496
0.00605471
0.00644225
0.00686921
0.00735043
0.00791773
0.00864958
0.00970056
0.0113404
0.0137384
0.0168644
0.0203761
0.0229616
0.0239418
0.0233466
0.0199552
0.0149527
0.00972682
0.00546753
0.00271751
0.00143625
0.00201372
0.00750595
0.00385541
0.00365682
0.00396179
0.0044265
0.00497843
0.0055918
0.0062305
0.00683473
0.0073192
0.00755488
0.00761049
0.00740187
0.00693466
0.00632981
0.00568555
0.00507745
0.00454623
0.00410237
0.00373969
0.00344592
0.00321001
0.00302191
0.00287357
0.0027583
0.0026704
0.00260505
0.00255787
0.00252511
0.00250376
0.00249216
0.002487
0.00248555
0.00248776
0.00249468
0.00250453
0.00251749
0.00253375
0.00255373
0.002578
0.00260728
0.00264238
0.00268425
0.00273398
0.00279275
0.00286191
0.00294295
0.00303759
0.0031477
0.00327537
0.00342283
0.00359244
0.00378654
0.00400731
0.0042565
0.0045351
0.00484304
0.00517885
0.00553959
0.00592117
0.00631972
0.00673603
0.00718001
0.00766658
0.00822559
0.00894535
0.00999114
0.0116672
0.0142936
0.0178316
0.0218388
0.0243923
0.0251779
0.0236727
0.0190511
0.0131394
0.00771441
0.00390082
0.00200046
0.0026312
0.00877995
0.00446462
0.00420992
0.00453119
0.00501775
0.00557152
0.00615118
0.00670743
0.0071718
0.00741392
0.00747005
0.00729684
0.00686042
0.00626783
0.00561712
0.00499096
0.00443883
0.0039771
0.00360139
0.00329953
0.00305873
0.00286837
0.00271939
0.00260446
0.00251729
0.0024525
0.0024053
0.00237156
0.00234803
0.00233208
0.00232158
0.00231452
0.00231057
0.00230908
0.00230917
0.00231227
0.00231783
0.00232649
0.00233898
0.00235593
0.00237814
0.00240647
0.00244186
0.00248537
0.00253815
0.00260151
0.00267697
0.00276624
0.00287131
0.00299444
0.00313816
0.00330527
0.00349877
0.00372166
0.00397672
0.00426615
0.00459104
0.00495084
0.00534276
0.00576149
0.00619938
0.0066479
0.00710307
0.00757345
0.00807388
0.00864023
0.0093656
0.0104418
0.0122325
0.0151721
0.0192115
0.0236382
0.0257969
0.0261911
0.0231192
0.0170801
0.0105412
0.00546582
0.00275301
0.00336274
0.0100582
0.00508372
0.00476327
0.00508773
0.00557817
0.00610916
0.006625
0.00706715
0.0073186
0.00737948
0.0072483
0.00685033
0.00627728
0.00562253
0.00497506
0.00439492
0.00390717
0.00351126
0.0031952
0.00294505
0.0027486
0.00259591
0.00247865
0.00238985
0.00232351
0.00227437
0.00223795
0.00221072
0.00218993
0.00217345
0.00215979
0.002148
0.0021379
0.00212931
0.00212244
0.00211857
0.00211716
0.00211835
0.00212407
0.00213469
0.00215085
0.00217334
0.00220302
0.00224081
0.00228777
0.00234511
0.00241425
0.00249685
0.00259489
0.00271071
0.00284705
0.00300705
0.00319426
0.00341251
0.00366573
0.0039576
0.00429104
0.00466746
0.00508589
0.00554206
0.00602775
0.00653087
0.0070372
0.00753709
0.00803865
0.00855757
0.00913647
0.00989155
0.0110437
0.0130552
0.0164479
0.0211491
0.0255566
0.0272479
0.026576
0.0213183
0.013964
0.00746137
0.00370938
0.00416433
0.0113077
0.00569729
0.00530121
0.00561448
0.00609046
0.00657584
0.00700189
0.0072669
0.00734331
0.00725217
0.00689956
0.00635439
0.00570063
0.00503069
0.00441605
0.00389326
0.00346842
0.00313098
0.0028658
0.00265897
0.00249906
0.00237668
0.00228395
0.00221419
0.00216165
0.00212144
0.00208973
0.00206369
0.00204119
0.00202082
0.00200179
0.00198384
0.0019671
0.00195187
0.00193867
0.00192814
0.00192118
0.00191827
0.00191809
0.00192396
0.00193565
0.00195368
0.00197879
0.00201175
0.00205347
0.00210502
0.00216767
0.00224297
0.00233282
0.00243952
0.00256586
0.00271515
0.0028913
0.00309877
0.00334248
0.00362756
0.00395889
0.0043404
0.004774
0.00525831
0.00578725
0.00634888
0.00692519
0.00749397
0.00803706
0.00855858
0.00909199
0.009711
0.0105166
0.0118084
0.0141757
0.0181596
0.023592
0.027464
0.0284664
0.0254458
0.0179351
0.00994899
0.00488989
0.00499091
0.0124921
0.00629086
0.00580956
0.0060969
0.00654133
0.006962
0.00725509
0.00736065
0.00729198
0.00700195
0.00649459
0.00585
0.00515987
0.004506
0.00393898
0.003475
0.00310731
0.00282021
0.00259778
0.0024267
0.00229614
0.00219719
0.00212229
0.00206514
0.0020204
0.00198392
0.00195263
0.00192444
0.00189794
0.00187243
0.00184771
0.00182397
0.00180162
0.00178118
0.00176326
0.00174845
0.00173729
0.00173108
0.00172882
0.00173078
0.00173952
0.00175437
0.00177599
0.00180502
0.0018422
0.00188844
0.00194487
0.00201288
0.00209422
0.00219106
0.00230609
0.00244263
0.0026047
0.0027971
0.00302541
0.00329588
0.00361512
0.00398951
0.00442427
0.00492198
0.00548074
0.00609219
0.00673977
0.00739831
0.0080367
0.00862939
0.009164
0.00969366
0.0103587
0.0112497
0.0127855
0.0157538
0.0205765
0.0264809
0.02915
0.0288522
0.0222689
0.0129994
0.00630499
0.00585062
0.0135816
0.00685127
0.00627612
0.00652354
0.00692136
0.00725077
0.00739451
0.00737135
0.00715211
0.00669057
0.00606743
0.00536419
0.00466997
0.00405054
0.00353616
0.00312743
0.00280975
0.00256526
0.00237825
0.00223603
0.00212831
0.00204656
0.00198367
0.00193385
0.00189247
0.00185622
0.00182286
0.00179101
0.00175996
0.00172956
0.00170005
0.00167186
0.00164556
0.00162172
0.00160091
0.00158364
0.00157038
0.00156227
0.00155892
0.00155871
0.00156543
0.00157806
0.00159704
0.00162286
0.00165614
0.00169766
0.00174838
0.00180954
0.00188268
0.00196981
0.00207342
0.00219667
0.00234347
0.00251869
0.00272816
0.0029788
0.00327845
0.00363555
0.0040583
0.00455342
0.00512415
0.0057676
0.00647195
0.00721391
0.007958
0.00866064
0.00930988
0.00984191
0.0103607
0.0110802
0.0121222
0.0140709
0.0179001
0.0238834
0.0292192
0.0306852
0.0266156
0.0166651
0.00799473
0.00672234
0.0145644
0.0073681
0.00669119
0.00688577
0.00722392
0.00743683
0.00747808
0.0073202
0.00693225
0.0063459
0.00564278
0.00491287
0.00423603
0.00366
0.00319757
0.00283839
0.00256357
0.00235468
0.00219654
0.00207707
0.00198644
0.00191661
0.00186106
0.00181471
0.0017738
0.00173586
0.00169942
0.00166376
0.0016287
0.00159451
0.00156163
0.00153062
0.00150206
0.00147648
0.00145436
0.00143611
0.00142206
0.00141298
0.00140888
0.00140806
0.00141324
0.00142426
0.00144112
0.00146426
0.00149419
0.00153154
0.00157716
0.00163211
0.00169777
0.0017759
0.00186877
0.00197927
0.00211108
0.00226884
0.00245835
0.00268671
0.00296245
0.00329533
0.00369598
0.00417481
0.00474026
0.00539606
0.00613764
0.00694814
0.00779526
0.00863032
0.00939488
0.0100653
0.0105868
0.0110939
0.0118986
0.0132083
0.0158964
0.0209004
0.0279872
0.0314064
0.0304337
0.0209394
0.010056
0.0076713
0.0154182
0.00783334
0.00704849
0.0071789
0.0074384
0.00754884
0.00747774
0.00719561
0.00667177
0.00598947
0.00523677
0.0045037
0.00385709
0.00332723
0.0029131
0.00259722
0.00235864
0.00217911
0.00204409
0.00194205
0.0018637
0.00180161
0.00174999
0.00170461
0.0016626
0.00162226
0.00158278
0.00154396
0.00150599
0.00146934
0.00143456
0.0014022
0.00137276
0.00134669
0.00132433
0.00130596
0.00129184
0.00128243
0.00127802
0.00127692
0.00128099
0.00129067
0.00130574
0.00132655
0.00135352
0.0013872
0.0014283
0.00147777
0.00153679
0.00160691
0.00169015
0.00178908
0.00190705
0.00204836
0.0022185
0.0024244
0.00267469
0.00297983
0.00335196
0.00380434
0.00434996
0.00499904
0.00575523
0.0066106
0.00754028
0.00849848
0.00941895
0.0102477
0.0108906
0.0113796
0.0118845
0.0128512
0.0146575
0.0185741
0.0252843
0.0315386
0.0330092
0.025687
0.0126427
0.00884089
0.0161199
0.00824079
0.00734467
0.00740259
0.00757194
0.00760449
0.0074334
0.00701544
0.0063883
0.00563705
0.0048589
0.00413877
0.00352894
0.00304432
0.00267358
0.00239492
0.00218667
0.00203106
0.00191421
0.00182516
0.00175527
0.00169783
0.00164791
0.00160213
0.00155844
0.0015158
0.0014739
0.0014329
0.0013932
0.00135535
0.00131987
0.00128724
0.00125787
0.00123206
0.00121007
0.00119205
0.00117816
0.00116867
0.00116409
0.00116279
0.00116592
0.00117438
0.00118782
0.00120652
0.00123083
0.00126125
0.00129839
0.00134305
0.00139629
0.00145944
0.00153428
0.00162307
0.00172879
0.00185532
0.0020077
0.00219244
0.00241789
0.00269454
0.00303526
0.00345513
0.0039706
0.0045976
0.005348
0.00622421
0.00721235
0.00827492
0.00934609
0.0103348
0.0111791
0.01177
0.0122023
0.0127786
0.0140623
0.0168059
0.0225022
0.0306549
0.0342594
0.0305586
0.0159045
0.0103627
0.0166647
0.00858843
0.00757576
0.00755555
0.00764299
0.00759568
0.00732841
0.00680405
0.00609608
0.00529914
0.00451382
0.00381681
0.00324605
0.00280368
0.00247111
0.00222411
0.00204101
0.00190465
0.00180182
0.00172222
0.00165793
0.00160306
0.00155355
0.00150681
0.00146149
0.00141707
0.00137359
0.00133141
0.00129102
0.00125293
0.0012176
0.0011854
0.00115662
0.00113146
0.00111007
0.00109254
0.00107896
0.00106939
0.0010646
0.00106307
0.00106527
0.00107252
0.00108441
0.00110114
0.00112304
0.00115054
0.00118418
0.00122466
0.0012729
0.00133006
0.00139768
0.00147776
0.00157291
0.00168656
0.00182325
0.00198894
0.00219141
0.00244078
0.00274992
0.00313473
0.00361393
0.00420783
0.00493555
0.00580989
0.00682983
0.00797115
0.00917744
0.0103556
0.0114056
0.0121716
0.0126512
0.0130342
0.013868
0.015751
0.0202326
0.0284542
0.0347094
0.0348237
0.0199359
0.012214
0.0170578
0.00887837
0.00773886
0.007644
0.00765932
0.00754673
0.00717888
0.00657322
0.00580582
0.00498224
0.00420289
0.00353473
0.00300261
0.00259857
0.00229912
0.00207884
0.00191641
0.00179539
0.00170322
0.00163035
0.00156964
0.00151607
0.00146635
0.00141862
0.00137206
0.00132653
0.00128228
0.00123976
0.00119945
0.00116178
0.0011271
0.00109569
0.00106772
0.00104331
0.00102253
0.00100544
0.000992049
0.000982415
0.000977224
0.000975376
0.000976611
0.000982638
0.000993005
0.00100789
0.00102757
0.00105244
0.00108297
0.0011198
0.00116372
0.00121576
0.00127724
0.00134991
0.00143606
0.0015387
0.00166185
0.00181086
0.00199284
0.00221724
0.00249643
0.00284635
0.00328679
0.003841
0.00453384
0.00538748
0.00641399
0.00760463
0.00891732
0.010266
0.01152
0.0125468
0.0131704
0.0134963
0.0139206
0.0152603
0.0185053
0.0256474
0.0348026
0.0375999
0.0249548
0.0142256
0.0173022
0.00911292
0.00784716
0.0076747
0.00763418
0.00744434
0.00700171
0.00633311
0.00552501
0.00468986
0.00392541
0.00328865
0.00279312
0.0024232
0.00215222
0.00195435
0.00180881
0.00169989
0.00161576
0.00154762
0.00148918
0.00143619
0.00138609
0.00133761
0.00129033
0.00124433
0.00119999
0.00115774
0.001118
0.00108112
0.00104733
0.00101682
0.000989675
0.000965959
0.000945694
0.000928895
0.000915568
0.000905742
0.000899982
0.000897729
0.000897995
0.00090276
0.000911643
0.000924769
0.000942399
0.000964881
0.000992654
0.00102628
0.00106645
0.00111409
0.00117036
0.00123676
0.00131531
0.00140863
0.00152026
0.00165495
0.00181908
0.00202129
0.00227317
0.00259009
0.00299197
0.00350362
0.00415392
0.0049728
0.00598463
0.00719734
0.00858744
0.0100838
0.011556
0.0128576
0.0137022
0.0141064
0.0143654
0.0151153
0.0174069
0.0232397
0.0336694
0.0391586
0.0306339
0.0164528
0.0173731
0.00929208
0.00790901
0.00766157
0.00756595
0.00730718
0.00680603
0.00609153
0.0052586
0.00442339
0.0036795
0.00307453
0.00261269
0.00227274
0.00202607
0.00184689
0.00171508
0.00161566
0.00153756
0.00147277
0.00141576
0.00136304
0.00131266
0.00126378
0.00121626
0.00117033
0.00112638
0.00108478
0.00104589
0.00100994
0.000977102
0.000947457
0.00092105
0.000897896
0.000877993
0.000861342
0.00084795
0.000837835
0.000831339
0.000828446
0.000827978
0.000831409
0.000838846
0.000850311
0.000866036
0.000886342
0.000911635
0.00094242
0.000979334
0.00102318
0.00107499
0.00113609
0.00120822
0.0012937
0.00139561
0.00151812
0.00166694
0.00184984
0.00207745
0.00236423
0.00272953
0.00319856
0.00380256
0.00457719
0.00555741
0.00676721
0.00820375
0.0098175
0.0114941
0.0130502
0.0142118
0.014744
0.0149535
0.0152907
0.016878
0.0215001
0.0314704
0.0398306
0.0363601
0.0187325
0.0173254
0.00942392
0.00792945
0.00761499
0.00745473
0.00714452
0.00659933
0.00585421
0.00500957
0.00418281
0.00346269
0.00288849
0.00245706
0.00214319
0.00191716
0.00175352
0.00163284
0.00154088
0.00146731
0.0014049
0.00134887
0.00129635
0.00124589
0.00119697
0.00114962
0.00110413
0.00106086
0.00102013
0.000982185
0.000947193
0.000915238
0.000886355
0.000860548
0.000837807
0.000818121
0.000801485
0.000787911
0.00077743
0.000770103
0.000766438
0.000765375
0.0007675
0.000773544
0.000783444
0.000797401
0.000815715
0.000838762
0.000867014
0.00090105
0.000941597
0.000989574
0.00104616
0.00111287
0.00119174
0.00128547
0.00139772
0.00153353
0.00169984
0.00190628
0.00216618
0.00249789
0.00292612
0.00348309
0.00420821
0.00514482
0.00633145
0.00778585
0.00948203
0.0113244
0.0131285
0.0146711
0.0154339
0.0156887
0.0158043
0.0166918
0.0200558
0.0290581
0.0400261
0.0412974
0.0207977
0.0171812
0.00951815
0.00791733
0.00752656
0.00731542
0.00696381
0.00638767
0.00562517
0.00477944
0.00396722
0.00327231
0.00272703
0.00232266
0.00203128
0.00182272
0.00167195
0.00156028
0.00147417
0.00140405
0.00134341
0.00128812
0.00123585
0.00118552
0.00113685
0.00108996
0.00104515
0.00100273
0.000962937
0.000925945
0.000891843
0.000860668
0.000832416
0.000807072
0.000784612
0.000765021
0.000748297
0.000734453
0.000723516
0.000715528
0.000710989
0.000709335
0.000710252
0.000714978
0.000723414
0.000735732
0.000752214
0.000773215
0.000799178
0.000830644
0.000868281
0.000912921
0.000965618
0.00102773
0.00110102
0.00118788
0.0012915
0.00141633
0.00156851
0.00175669
0.00199303
0.00229457
0.00268498
0.00319628
0.0038699
0.00475525
0.00590325
0.0073517
0.00910115
0.0110847
0.01314
0.0150129
0.0161221
0.0164685
0.016487
0.0167864
0.019209
0.0266572
0.0398683
0.0449171
0.0224344
0.016937
0.00958403
0.00788103
0.00741427
0.00715557
0.00677146
0.00617581
0.00540711
0.0045687
0.0037752
0.00310571
0.00258703
0.00220645
0.00193436
0.00174049
0.00160037
0.00149598
0.00141451
0.00134706
0.00128779
0.00123314
0.00118121
0.00113122
0.00108302
0.00103679
0.000992784
0.000951262
0.000912397
0.00087629
0.00084298
0.000812466
0.000784724
0.000759725
0.000737446
0.000717873
0.000701007
0.000686865
0.000675481
0.000666902
0.000661494
0.000659225
0.000659123
0.00066261
0.000669687
0.000680492
0.000695285
0.000714407
0.000738281
0.000767419
0.000802449
0.00084414
0.000893452
0.000951601
0.00102016
0.00110122
0.0011976
0.00131318
0.00145342
0.00162602
0.00184193
0.00211684
0.00247294
0.00294131
0.00356385
0.00439388
0.00549207
0.00691409
0.00868631
0.0107709
0.0130301
0.0152128
0.0167672
0.0173322
0.0173512
0.0173187
0.0188248
0.0248983
0.0384572
0.0470158
0.0234109
0.0166031
0.00962107
0.00781614
0.00728271
0.00698146
0.0065728
0.00596737
0.0052017
0.00437714
0.00360508
0.0029604
0.0024658
0.00210593
0.00185026
0.0016687
0.00153736
0.00143888
0.00136108
0.00129575
0.00123761
0.00118357
0.00113209
0.00108258
0.001035
0.000989518
0.000946371
0.000905742
0.000867747
0.000832438
0.000799815
0.000769856
0.000742524
0.00071779
0.00069563
0.000676039
0.000659022
0.000644604
0.000632824
0.000623743
0.000617499
0.000614455
0.000613723
0.000616044
0.000621873
0.000631288
0.000644526
0.000661914
0.000683861
0.000710862
0.000743517
0.000782556
0.000828868
0.000883565
0.000948062
0.00102421
0.00111449
0.00122232
0.00135251
0.00151187
0.00171027
0.00196192
0.00228745
0.00271635
0.00328996
0.0040635
0.00510483
0.00648518
0.0082565
0.0104132
0.0128445
0.0153006
0.0173339
0.018201
0.0182752
0.0179989
0.0187157
0.0235958
0.0367067
0.0479465
0.0238386
0.0161968
0.0096343
0.00773555
0.00713787
0.00679853
0.00637213
0.00576502
0.00500983
0.00420405
0.00345509
0.00283412
0.00236105
0.00201902
0.00177721
0.0016059
0.00148178
0.00138808
0.00131325
0.00124963
0.00119246
0.00113904
0.00108809
0.00103917
0.000992282
0.000947597
0.000905297
0.000865514
0.000828315
0.000793714
0.000761687
0.000732198
0.000705209
0.000680691
0.000658628
0.000639018
0.000621874
0.000607223
0.000595106
0.000585575
0.000578699
0.000574913
0.000573648
0.000574958
0.000579664
0.000587813
0.000599622
0.000615405
0.000635562
0.000660578
0.000691038
0.000727647
0.000771252
0.000822889
0.00088385
0.000955797
0.00104093
0.00114226
0.00126401
0.00141222
0.00159568
0.00182725
0.00212584
0.00251912
0.00304697
0.00376495
0.00474554
0.00607252
0.00782159
0.0100217
0.0125991
0.0153204
0.0178005
0.0190878
0.0193192
0.018867
0.018921
0.022555
0.0348744
0.0481897
0.0239693
0.0157381
0.00963229
0.0076445
0.00698496
0.00661141
0.00617293
0.00557067
0.00483179
0.00404846
0.00332348
0.00272484
0.0022708
0.00194398
0.00171377
0.00155092
0.0014327
0.00134288
0.00127046
0.00120826
0.00115196
0.00109916
0.0010488
0.00100053
0.000954379
0.000910487
0.000868998
0.000829999
0.00079352
0.000759548
0.000728045
0.00069897
0.000672286
0.000647968
0.000626007
0.000606407
0.000589184
0.000574368
0.000561994
0.000552109
0.000544768
0.000540329
0.000538597
0.000539067
0.000542783
0.000549792
0.000560295
0.000574596
0.000593083
0.000616239
0.000644645
0.000678993
0.000720109
0.000768983
0.000826819
0.000895132
0.000975891
0.00107176
0.00118645
0.00132531
0.00149613
0.00171049
0.0019856
0.00234713
0.00283299
0.00349784
0.00441653
0.00568234
0.00739192
0.0096084
0.012301
0.0152755
0.0181269
0.0199294
0.0204176
0.0198453
0.0194899
0.0219266
0.0329781
0.0478703
0.0239757
0.015233
0.00962491
0.00754885
0.0068287
0.00642397
0.0059779
0.00538558
0.00466749
0.00390926
0.00320858
0.00263078
0.00219341
0.0018794
0.00165875
0.00150281
0.00138937
0.00130269
0.00123223
0.00117124
0.00111573
0.00106358
0.00101384
0.000966244
0.000920825
0.0008777
0.000836973
0.000798695
0.000762869
0.000729464
0.000698436
0.000669743
0.00064335
0.000619241
0.00059741
0.000577868
0.000560633
0.000545733
0.0005332
0.000523075
0.000515406
0.000510429
0.000508256
0.0005081
0.000510952
0.000516948
0.000526269
0.000539203
0.000556135
0.000577544
0.000604011
0.000636231
0.000675025
0.000721359
0.000776384
0.00084151
0.000918522
0.00100979
0.00111859
0.00124964
0.00140985
0.00160956
0.00186438
0.00219792
0.00264581
0.00326086
0.00411848
0.00531842
0.00697487
0.0091832
0.0119564
0.0151433
0.0183692
0.0207134
0.0215008
0.0210231
0.0202093
0.0216373
0.0312188
0.046839
0.0237432
0.0147133
0.0096108
0.00745253
0.00667301
0.00623942
0.00578913
0.00521056
0.00451655
0.00378523
0.00310883
0.00255038
0.00212749
0.00182411
0.0016112
0.0014608
0.00135117
0.00126701
0.00119815
0.0011382
0.00108343
0.00103191
0.00098281
0.000935897
0.000891196
0.000848801
0.000808785
0.000771172
0.000735946
0.000703065
0.000672483
0.000644159
0.000618066
0.00059419
0.000572533
0.000553107
0.000535933
0.000521035
0.000508442
0.000498188
0.000490313
0.000484916
0.000482295
0.000481747
0.000483866
0.000488977
0.000497238
0.000508926
0.000524415
0.000544183
0.000568817
0.000599021
0.000635624
0.00067959
0.000732048
0.000794337
0.000868106
0.000955487
0.00105939
0.00118395
0.0013353
0.00152265
0.00176007
0.00206916
0.00248309
0.00305225
0.0038511
0.00498322
0.0065769
0.00875729
0.0115823