/*--------------------------------*- C++ -*----------------------------------*\
  =========                 |
  \\      /  F ield         | OpenFOAM: The Open Source CFD Toolbox
   \\    /   O peration     | Website:  https://openfoam.org
    \\  /    A nd           | Version:  13
     \\/     M anipulation  |
\*---------------------------------------------------------------------------*/
FoamFile
{
    format      ascii;
    class       volScalarField;
    location    "2.9";
    object      nut;
}
// * * * * * * * * * * * * * * * * * * * * * * * * * * * * * * * * * * * * * //

dimensions      [0 2 -1 0 0 0 0];

internalField   nonuniform List<scalar> 
6400
(
7.60904e-10
3.85436e-09
8.9372e-09
1.43078e-08
1.8907e-08
2.24455e-08
2.51376e-08
2.74032e-08
2.96755e-08
3.22961e-08
3.55454e-08
3.96152e-08
4.45822e-08
5.05131e-08
5.74245e-08
6.52845e-08
7.40076e-08
8.34175e-08
9.32812e-08
1.03392e-07
1.13758e-07
1.24837e-07
1.37564e-07
1.5266e-07
1.70309e-07
1.89739e-07
2.09569e-07
2.29539e-07
2.50019e-07
2.71466e-07
2.94079e-07
3.17588e-07
3.40723e-07
3.63498e-07
3.85749e-07
4.07863e-07
4.30078e-07
4.52716e-07
4.76062e-07
5.00381e-07
5.25909e-07
5.52808e-07
5.81336e-07
6.11729e-07
6.43854e-07
6.77792e-07
7.13781e-07
7.53057e-07
7.97961e-07
8.54355e-07
9.11587e-07
9.69863e-07
1.02712e-06
1.08239e-06
1.13379e-06
1.1793e-06
1.21658e-06
1.241e-06
1.25285e-06
1.25662e-06
1.24024e-06
1.20267e-06
1.14458e-06
1.06757e-06
9.72966e-07
8.64426e-07
7.471e-07
6.27469e-07
5.10963e-07
4.00609e-07
3.0106e-07
2.22329e-07
1.57688e-07
1.06897e-07
6.93602e-08
4.30633e-08
2.54748e-08
1.40142e-08
6.26973e-09
1.30587e-09
3.72851e-09
2.87107e-07
1.01553e-06
1.73367e-06
2.30328e-06
2.7066e-06
2.98421e-06
3.18863e-06
3.36579e-06
3.54758e-06
3.75486e-06
3.99449e-06
4.27167e-06
4.57677e-06
4.89358e-06
5.20436e-06
5.49244e-06
5.73907e-06
5.92854e-06
6.0533e-06
6.12386e-06
6.18394e-06
6.2956e-06
6.47485e-06
6.72279e-06
6.99882e-06
7.22494e-06
7.43061e-06
7.6635e-06
7.95245e-06
8.32094e-06
8.78275e-06
9.27389e-06
9.80082e-06
1.0346e-05
1.0915e-05
1.1507e-05
1.21233e-05
1.27647e-05
1.34322e-05
1.41282e-05
1.48476e-05
1.55901e-05
1.63817e-05
1.72187e-05
1.80919e-05
1.89631e-05
1.98202e-05
2.06329e-05
2.13667e-05
2.21222e-05
2.28861e-05
2.36521e-05
2.44048e-05
2.51288e-05
2.58041e-05
2.6452e-05
2.69241e-05
2.71775e-05
2.74419e-05
2.74755e-05
2.72285e-05
2.66661e-05
2.58218e-05
2.46609e-05
2.31699e-05
2.14253e-05
1.9501e-05
1.73724e-05
1.51193e-05
1.2822e-05
1.02221e-05
7.73939e-06
5.59092e-06
3.87511e-06
2.57661e-06
1.64558e-06
9.83366e-07
4.01916e-07
6.77971e-09
8.27163e-09
8.16468e-07
3.38977e-06
6.08151e-06
8.16136e-06
9.56363e-06
1.04387e-05
1.09729e-05
1.1325e-05
1.16013e-05
1.18897e-05
1.22204e-05
1.25972e-05
1.30052e-05
1.34174e-05
1.38065e-05
1.41577e-05
1.44541e-05
1.46828e-05
1.48373e-05
1.492e-05
1.49385e-05
1.49243e-05
1.49391e-05
1.5001e-05
1.51258e-05
1.5379e-05
1.57258e-05
1.60802e-05
1.64697e-05
1.68553e-05
1.72858e-05
1.78779e-05
1.86626e-05
1.95472e-05
2.05157e-05
2.15675e-05
2.26925e-05
2.38801e-05
2.51072e-05
2.6414e-05
2.77667e-05
2.91455e-05
3.05101e-05
3.18299e-05
3.31054e-05
3.43751e-05
3.56219e-05
3.68369e-05
3.80403e-05
3.92347e-05
4.04067e-05
4.15449e-05
4.26348e-05
4.36578e-05
4.45935e-05
4.5419e-05
4.60899e-05
4.65764e-05
4.67934e-05
4.69274e-05
4.67351e-05
4.62031e-05
4.53397e-05
4.40233e-05
4.21287e-05
3.97809e-05
3.70668e-05
3.39605e-05
3.05427e-05
2.6885e-05
2.29991e-05
1.9035e-05
1.5202e-05
1.16963e-05
8.66966e-06
6.16821e-06
3.99483e-06
1.50529e-06
1.71374e-08
1.42235e-08
1.38284e-06
5.5489e-06
9.82426e-06
1.3094e-05
1.52961e-05
1.66452e-05
1.74103e-05
1.78371e-05
1.81208e-05
1.83692e-05
1.86406e-05
1.89508e-05
1.92872e-05
1.96275e-05
1.99446e-05
2.0207e-05
2.03957e-05
2.05041e-05
2.05387e-05
2.05247e-05
2.04942e-05
2.04881e-05
2.05664e-05
2.07656e-05
2.09651e-05
2.11384e-05
2.12918e-05
2.16761e-05
2.24141e-05
2.3325e-05
2.45352e-05
2.56915e-05
2.68352e-05
2.80882e-05
2.93797e-05
3.06971e-05
3.20242e-05
3.3418e-05
3.47803e-05
3.61309e-05
3.74566e-05
3.87471e-05
3.99954e-05
4.12011e-05
4.2367e-05
4.34891e-05
4.45758e-05
4.56413e-05
4.66826e-05
4.7695e-05
4.86691e-05
4.95949e-05
5.04595e-05
5.12472e-05
5.1939e-05
5.25127e-05
5.29437e-05
5.32097e-05
5.32454e-05
5.31951e-05
5.28874e-05
5.23795e-05
5.15437e-05
5.05472e-05
4.90059e-05
4.68386e-05
4.42446e-05
4.1243e-05
3.78786e-05
3.41962e-05
3.02354e-05
2.60709e-05
2.18065e-05
1.76146e-05
1.36823e-05
1.0128e-05
6.72273e-06
2.48576e-06
2.72161e-08
2.20477e-08
2.0544e-06
7.669e-06
1.31426e-05
1.71418e-05
1.97651e-05
2.13275e-05
2.21779e-05
2.26252e-05
2.29027e-05
2.31527e-05
2.34387e-05
2.37666e-05
2.41095e-05
2.44291e-05
2.46891e-05
2.48634e-05
2.49442e-05
2.49439e-05
2.48835e-05
2.48275e-05
2.48151e-05
2.48052e-05
2.4754e-05
2.46497e-05
2.47478e-05
2.53671e-05
2.63118e-05
2.73791e-05
2.84493e-05
2.96917e-05
3.10067e-05
3.22925e-05
3.36175e-05
3.49463e-05
3.61979e-05
3.74555e-05
3.87479e-05
3.99159e-05
4.10494e-05
4.21157e-05
4.31246e-05
4.40728e-05
4.49662e-05
4.5811e-05
4.6616e-05
4.73944e-05
4.8145e-05
4.88695e-05
4.9567e-05
5.02363e-05
5.08743e-05
5.14768e-05
5.20381e-05
5.2551e-05
5.30057e-05
5.33884e-05
5.3683e-05
5.3871e-05
5.39277e-05
5.37484e-05
5.35717e-05
5.289e-05
5.20732e-05
5.069e-05
4.97515e-05
4.81548e-05
4.60033e-05
4.34212e-05
4.04567e-05
3.71456e-05
3.35255e-05
2.96377e-05
2.55326e-05
2.13007e-05
1.70777e-05
1.29668e-05
8.67258e-06
3.14053e-06
3.38134e-08
3.23733e-08
2.88797e-06
9.97687e-06
1.64283e-05
2.08742e-05
2.36679e-05
2.52611e-05
2.60942e-05
2.65291e-05
2.68193e-05
2.71045e-05
2.74303e-05
2.77803e-05
2.81098e-05
2.83715e-05
2.85313e-05
2.85752e-05
2.85124e-05
2.84073e-05
2.82022e-05
2.80156e-05
2.78356e-05
2.73817e-05
2.74921e-05
2.82628e-05
2.92605e-05
3.03576e-05
3.15833e-05
3.28664e-05
3.41521e-05
3.54397e-05
3.67209e-05
3.79472e-05
3.91261e-05
4.01906e-05
4.11824e-05
4.21831e-05
4.30685e-05
4.38507e-05
4.45738e-05
4.52205e-05
4.58095e-05
4.63434e-05
4.68325e-05
4.72831e-05
4.77023e-05
4.80923e-05
4.84462e-05
4.87699e-05
4.90655e-05
4.93361e-05
4.95847e-05
4.98138e-05
5.00252e-05
5.02191e-05
5.03955e-05
5.05524e-05
5.06828e-05
5.07793e-05
5.08277e-05
5.08108e-05
5.06546e-05
5.03258e-05
5.00478e-05
4.9281e-05
4.797e-05
4.71378e-05
4.54959e-05
4.33872e-05
4.08512e-05
3.79234e-05
3.46597e-05
3.11126e-05
2.73176e-05
2.33016e-05
1.90976e-05
1.47314e-05
9.81596e-06
3.46194e-06
3.65102e-08
4.58059e-08
3.90944e-06
1.2535e-05
1.97586e-05
2.44883e-05
2.73057e-05
2.88259e-05
2.95837e-05
2.9982e-05
3.02752e-05
3.05805e-05
3.09136e-05
3.12346e-05
3.14868e-05
3.16248e-05
3.16289e-05
3.1511e-05
3.11795e-05
3.08903e-05
3.06074e-05
2.99597e-05
3.00213e-05
3.06834e-05
3.1665e-05
3.27257e-05
3.38368e-05
3.49836e-05
3.6194e-05
3.73946e-05
3.85939e-05
3.97146e-05
4.0714e-05
4.16752e-05
4.25385e-05
4.33029e-05
4.40011e-05
4.46727e-05
4.52449e-05
4.57216e-05
4.61456e-05
4.65014e-05
4.68051e-05
4.70565e-05
4.72618e-05
4.74224e-05
4.75406e-05
4.7617e-05
4.76528e-05
4.76519e-05
4.76179e-05
4.75547e-05
4.74674e-05
4.73635e-05
4.72523e-05
4.71436e-05
4.70486e-05
4.69784e-05
4.69365e-05
4.69178e-05
4.69194e-05
4.69555e-05
4.6995e-05
4.70081e-05
4.68292e-05
4.6628e-05
4.61947e-05
4.51525e-05
4.43962e-05
4.27876e-05
4.06644e-05
3.80472e-05
3.50143e-05
3.16595e-05
2.80593e-05
2.42416e-05
2.01584e-05
1.56639e-05
1.03337e-05
3.55238e-06
3.64686e-08
6.28667e-08
5.12427e-06
1.52843e-05
2.31368e-05
2.80309e-05
3.07811e-05
3.21697e-05
3.28174e-05
3.31534e-05
3.34176e-05
3.36952e-05
3.39718e-05
3.41899e-05
3.4291e-05
3.42403e-05
3.40335e-05
3.36355e-05
3.32804e-05
3.25288e-05
3.22893e-05
3.27432e-05
3.35447e-05
3.43074e-05
3.52999e-05
3.63302e-05
3.74406e-05
3.85823e-05
3.96982e-05
4.07516e-05
4.17333e-05
4.26237e-05
4.34444e-05
4.41601e-05
4.47767e-05
4.53422e-05
4.5811e-05
4.62254e-05
4.66242e-05
4.69037e-05
4.71472e-05
4.73282e-05
4.74626e-05
4.75467e-05
4.75847e-05
4.75767e-05
4.75241e-05
4.74274e-05
4.72865e-05
4.71015e-05
4.68769e-05
4.66139e-05
4.63148e-05
4.5983e-05
4.56247e-05
4.52515e-05
4.48802e-05
4.45363e-05
4.42485e-05
4.40267e-05
4.38278e-05
4.37411e-05
4.37449e-05
4.3804e-05
4.39326e-05
4.40347e-05
4.38597e-05
4.36078e-05
4.28173e-05
4.21955e-05
4.05553e-05
3.82769e-05
3.54329e-05
3.21416e-05
2.85397e-05
2.47322e-05
2.07121e-05
1.61895e-05
1.05646e-05
3.55104e-06
3.57615e-08
8.39222e-08
6.50947e-06
1.81434e-05
2.65277e-05
3.14954e-05
3.41204e-05
3.53414e-05
3.58512e-05
3.60912e-05
3.62782e-05
3.64645e-05
3.6613e-05
3.66613e-05
3.65649e-05
3.61351e-05
3.56685e-05
3.52244e-05
3.4474e-05
3.46065e-05
3.5109e-05
3.55814e-05
3.63324e-05
3.72421e-05
3.82892e-05
3.93406e-05
4.04102e-05
4.14363e-05
4.23953e-05
4.32717e-05
4.40657e-05
4.4775e-05
4.54082e-05
4.5987e-05
4.64882e-05
4.68915e-05
4.72536e-05
4.75565e-05
4.7854e-05
4.80585e-05
4.82218e-05
4.8331e-05
4.83954e-05
4.84123e-05
4.83851e-05
4.83151e-05
4.82047e-05
4.80563e-05
4.78724e-05
4.76574e-05
4.74067e-05
4.71186e-05
4.67878e-05
4.64066e-05
4.59657e-05
4.54604e-05
4.48822e-05
4.42332e-05
4.35291e-05
4.28254e-05
4.22645e-05
4.18322e-05
4.15866e-05
4.14035e-05
4.14404e-05
4.1602e-05
4.18386e-05
4.17754e-05
4.15738e-05
4.09674e-05
4.04724e-05
3.86794e-05
3.61444e-05
3.2963e-05
2.92905e-05
2.53113e-05
2.11272e-05
1.65767e-05
1.07777e-05
3.56533e-06
3.59324e-08
1.09255e-07
7.99379e-06
2.10176e-05
2.98736e-05
3.48567e-05
3.73204e-05
3.83474e-05
3.86901e-05
3.87921e-05
3.88446e-05
3.8873e-05
3.88276e-05
3.8652e-05
3.81023e-05
3.7596e-05
3.69461e-05
3.64846e-05
3.65969e-05
3.68587e-05
3.72619e-05
3.79537e-05
3.88364e-05
3.98113e-05
4.08352e-05
4.18287e-05
4.27905e-05
4.36808e-05
4.44978e-05
4.52383e-05
4.59091e-05
4.6514e-05
4.70745e-05
4.75859e-05
4.80097e-05
4.83558e-05
4.86815e-05
4.8995e-05
4.92484e-05
4.94317e-05
4.95745e-05
4.96646e-05
4.97087e-05
4.97056e-05
4.96585e-05
4.95697e-05
4.94425e-05
4.92805e-05
4.90876e-05
4.88643e-05
4.86109e-05
4.83268e-05
4.80086e-05
4.76485e-05
4.72322e-05
4.67516e-05
4.61873e-05
4.55214e-05
4.47704e-05
4.39293e-05
4.29701e-05
4.18999e-05
4.08371e-05
4.01378e-05
3.97744e-05
3.96344e-05
3.97931e-05
4.00959e-05
4.0118e-05
3.99276e-05
3.94949e-05
3.89452e-05
3.69263e-05
3.40556e-05
3.04444e-05
2.63012e-05
2.18245e-05
1.70197e-05
1.11145e-05
3.68589e-06
3.7756e-08
1.40391e-07
9.41758e-06
2.38327e-05
3.3122e-05
3.80869e-05
4.03656e-05
4.11756e-05
4.13184e-05
4.12357e-05
4.10959e-05
4.09063e-05
4.06156e-05
3.99738e-05
3.94201e-05
3.86025e-05
3.83258e-05
3.83049e-05
3.83002e-05
3.86935e-05
3.92926e-05
4.01144e-05
4.10424e-05
4.20052e-05
4.29623e-05
4.38702e-05
4.47272e-05
4.55162e-05
4.62444e-05
4.69142e-05
4.75307e-05
4.81383e-05
4.8686e-05
4.9124e-05
4.95215e-05
4.98935e-05
5.02853e-05
5.05767e-05
5.08259e-05
5.10168e-05
5.11606e-05
5.12512e-05
5.12926e-05
5.12845e-05
5.12295e-05
5.11295e-05
5.09872e-05
5.08052e-05
5.05861e-05
5.03319e-05
5.00451e-05
4.9728e-05
4.93825e-05
4.90107e-05
4.86133e-05
4.81688e-05
4.76611e-05
4.70564e-05
4.63424e-05
4.55036e-05
4.45203e-05
4.34242e-05
4.2223e-05
4.08868e-05
3.94456e-05
3.85479e-05
3.82368e-05
3.82524e-05
3.85987e-05
3.86854e-05
3.85298e-05
3.81031e-05
3.74022e-05
3.50823e-05
3.17772e-05
2.76655e-05
2.29692e-05
1.78336e-05
1.17192e-05
4.02373e-06
4.27703e-08
1.76076e-07
1.08573e-05
2.65699e-05
3.62395e-05
4.11602e-05
4.32368e-05
4.38078e-05
4.37169e-05
4.34042e-05
4.30235e-05
4.25764e-05
4.18219e-05
4.1211e-05
4.02957e-05
3.99852e-05
3.9778e-05
3.96509e-05
3.98833e-05
4.0432e-05
4.11601e-05
4.20339e-05
4.2952e-05
4.3869e-05
4.47562e-05
4.5594e-05
4.63844e-05
4.71231e-05
4.7818e-05
4.84953e-05
4.91542e-05
4.97292e-05
5.02283e-05
5.06861e-05
5.11491e-05
5.15935e-05
5.19667e-05
5.22787e-05
5.25425e-05
5.27502e-05
5.29055e-05
5.30058e-05
5.30532e-05
5.30478e-05
5.29916e-05
5.28862e-05
5.27339e-05
5.25374e-05
5.22992e-05
5.20224e-05
5.17094e-05
5.13624e-05
5.09824e-05
5.05694e-05
5.01214e-05
4.96351e-05
4.91098e-05
4.85458e-05
4.78849e-05
4.70925e-05
4.61554e-05
4.50546e-05
4.38213e-05
4.2487e-05
4.10112e-05
3.93572e-05
3.7698e-05
3.70381e-05
3.69251e-05
3.72503e-05
3.73415e-05
3.7181e-05
3.66275e-05
3.56873e-05
3.29253e-05
2.91073e-05
2.4414e-05
1.90426e-05
1.26907e-05
4.63068e-06
5.31048e-08
2.15568e-07
1.22886e-05
2.9189e-05
3.91926e-05
4.40521e-05
4.59146e-05
4.6227e-05
4.58715e-05
4.52917e-05
4.4638e-05
4.37202e-05
4.30207e-05
4.20029e-05
4.15564e-05
4.11608e-05
4.08946e-05
4.09741e-05
4.13895e-05
4.20486e-05
4.28433e-05
4.37215e-05
4.46096e-05
4.54821e-05
4.63224e-05
4.71245e-05
4.78918e-05
4.86244e-05
4.93798e-05
5.0095e-05
5.07034e-05
5.12853e-05
5.18184e-05
5.23524e-05
5.28844e-05
5.3333e-05
5.373e-05
5.40716e-05
5.43603e-05
5.45921e-05
5.47678e-05
5.48861e-05
5.49474e-05
5.49521e-05
5.4901e-05
5.47958e-05
5.46383e-05
5.44311e-05
5.41772e-05
5.38801e-05
5.35431e-05
5.31692e-05
5.27602e-05
5.23167e-05
5.18366e-05
5.13151e-05
5.07441e-05
5.01129e-05
4.94102e-05
4.86088e-05
4.7614e-05
4.64971e-05
4.52642e-05
4.39767e-05
4.26023e-05
4.10035e-05
3.92219e-05
3.72136e-05
3.59768e-05
3.57196e-05
3.59899e-05
3.60016e-05
3.57323e-05
3.5114e-05
3.3589e-05
3.029e-05
2.58472e-05
2.04407e-05
1.39266e-05
5.39689e-06
6.91271e-08
2.57847e-07
1.36796e-05
3.16489e-05
4.19507e-05
4.67405e-05
4.83823e-05
4.84209e-05
4.77766e-05
4.69037e-05
4.57378e-05
4.4883e-05
4.37571e-05
4.31168e-05
4.25186e-05
4.20957e-05
4.20008e-05
4.22594e-05
4.28035e-05
4.35293e-05
4.43499e-05
4.52155e-05
4.60785e-05
4.69262e-05
4.77502e-05
4.85499e-05
4.93319e-05
5.01578e-05
5.09351e-05
5.15925e-05
5.2264e-05
5.28909e-05
5.34912e-05
5.40867e-05
5.4647e-05
5.5129e-05
5.5564e-05
5.59437e-05
5.6268e-05
5.65338e-05
5.67406e-05
5.68867e-05
5.69714e-05
5.69942e-05
5.69552e-05
5.6855e-05
5.6695e-05
5.64774e-05
5.62056e-05
5.58834e-05
5.55155e-05
5.51068e-05
5.46619e-05
5.41839e-05
5.36742e-05
5.313e-05
5.25443e-05
5.19038e-05
5.1189e-05
5.03939e-05
4.95934e-05
4.84801e-05
4.70555e-05
4.54656e-05
4.3863e-05
4.2402e-05
4.08236e-05
3.88911e-05
3.66879e-05
3.49485e-05
3.45225e-05
3.47202e-05
3.45875e-05
3.41849e-05
3.34785e-05
3.0993e-05
2.69944e-05
2.17615e-05
1.5237e-05
6.23544e-06
9.03265e-08
3.0163e-07
1.50015e-05
3.39159e-05
4.4489e-05
4.92082e-05
5.06281e-05
5.03828e-05
4.94322e-05
4.80208e-05
4.69502e-05
4.57388e-05
4.47498e-05
4.39489e-05
4.33156e-05
4.30206e-05
4.30913e-05
4.34883e-05
4.41161e-05
4.48784e-05
4.57077e-05
4.65638e-05
4.74186e-05
4.82654e-05
4.91001e-05
4.99326e-05
5.08178e-05
5.16606e-05
5.23884e-05
5.31255e-05
5.38545e-05
5.45529e-05
5.5228e-05
5.58585e-05
5.64417e-05
5.69908e-05
5.74713e-05
5.7902e-05
5.82766e-05
5.85896e-05
5.88404e-05
5.90268e-05
5.91464e-05
5.91975e-05
5.91787e-05
5.90893e-05
5.89297e-05
5.87013e-05
5.84071e-05
5.80514e-05
5.76397e-05
5.71791e-05
5.66771e-05
5.61413e-05
5.55777e-05
5.49898e-05
5.43764e-05
5.37295e-05
5.3033e-05
5.22608e-05
5.138e-05
5.04959e-05
4.93865e-05
4.77555e-05
4.58408e-05
4.3809e-05
4.20237e-05
4.0436e-05
3.83754e-05
3.59583e-05
3.38706e-05
3.33228e-05
3.32395e-05
3.319e-05
3.25223e-05
3.11737e-05
2.77123e-05
2.2828e-05
1.64131e-05
7.03042e-06
1.15445e-07
3.45558e-07
1.62289e-05
3.59652e-05
4.67908e-05
5.1447e-05
5.26484e-05
5.21174e-05
5.06293e-05
4.93287e-05
4.80015e-05
4.65594e-05
4.5545e-05
4.46373e-05
4.40942e-05
4.39405e-05
4.41518e-05
4.46483e-05
4.53293e-05
4.61139e-05
4.6951e-05
4.7811e-05
4.86773e-05
4.95464e-05
5.04155e-05
5.13523e-05
5.22631e-05
5.30797e-05
5.38791e-05
5.46912e-05
5.54845e-05
5.62499e-05
5.69843e-05
5.76771e-05
5.83273e-05
5.89325e-05
5.94647e-05
5.9952e-05
6.04044e-05
6.0782e-05
6.10912e-05
6.13314e-05
6.14986e-05
6.15893e-05
6.16004e-05
6.15296e-05
6.13758e-05
6.1139e-05
6.08211e-05
6.04259e-05
5.99595e-05
5.94299e-05
5.88473e-05
5.82231e-05
5.7569e-05
5.68953e-05
5.62092e-05
5.55116e-05
5.47951e-05
5.40407e-05
5.32161e-05
5.22737e-05
5.12973e-05
5.01599e-05
4.83668e-05
4.61132e-05
4.37645e-05
4.16122e-05
3.97958e-05
3.7659e-05
3.4951e-05
3.2614e-05
3.19067e-05
3.17101e-05
3.16296e-05
3.04078e-05
2.79593e-05
2.35426e-05
1.73633e-05
7.70347e-06
1.4297e-07
3.88496e-07
1.73441e-05
3.7782e-05
4.88523e-05
5.34708e-05
5.44477e-05
5.34092e-05
5.2002e-05
5.05149e-05
4.86446e-05
4.73633e-05
4.61513e-05
4.52983e-05
4.48679e-05
4.48472e-05
4.51692e-05
4.57355e-05
4.64534e-05
4.7258e-05
4.81104e-05
4.89894e-05
4.98844e-05
5.07921e-05
5.17584e-05
5.27358e-05
5.3654e-05
5.45126e-05
5.54017e-05
5.62859e-05
5.71498e-05
5.79868e-05
5.87918e-05
5.95582e-05
6.02829e-05
6.09609e-05
6.15859e-05
6.21443e-05
6.26368e-05
6.3122e-05
6.35054e-05
6.38107e-05
6.4037e-05
6.4178e-05
6.42292e-05
6.41864e-05
6.40466e-05
6.38081e-05
6.34712e-05
6.30382e-05
6.25143e-05
6.19076e-05
6.12294e-05
6.04938e-05
5.97171e-05
5.89164e-05
5.81074e-05
5.7302e-05
5.65044e-05
5.57081e-05
5.48919e-05
5.40174e-05
5.30261e-05
5.1965e-05
5.07844e-05
4.87056e-05
4.62843e-05
4.37537e-05
4.11894e-05
3.90196e-05
3.6696e-05
3.36692e-05
3.13501e-05
3.05596e-05
3.00116e-05
2.95461e-05
2.78741e-05
2.39048e-05
1.80377e-05
8.1993e-06
1.71353e-07
4.292e-07
1.83338e-05
3.93603e-05
5.06787e-05
5.52624e-05
5.5822e-05
5.4726e-05
5.32697e-05
5.12784e-05
4.95165e-05
4.79348e-05
4.67219e-05
4.59485e-05
4.56352e-05
4.5729e-05
4.61355e-05
4.67534e-05
4.75026e-05
4.83315e-05
4.92104e-05
5.01239e-05
5.10645e-05
5.20417e-05
5.30717e-05
5.40792e-05
5.50343e-05
5.59783e-05
5.69504e-05
5.79119e-05
5.88551e-05
5.97732e-05
6.06612e-05
6.15138e-05
6.2326e-05
6.30918e-05
6.38072e-05
6.44677e-05
6.50394e-05
6.5573e-05
6.60703e-05
6.64462e-05
6.67391e-05
6.69383e-05
6.70381e-05
6.70327e-05
6.69172e-05
6.66879e-05
6.63429e-05
6.58822e-05
6.53091e-05
6.46302e-05
6.3856e-05
6.30014e-05
6.20852e-05
6.11296e-05
6.01582e-05
5.91931e-05
5.82519e-05
5.73426e-05
5.64593e-05
5.55776e-05
5.46521e-05
5.36134e-05
5.24881e-05
5.10764e-05
4.86836e-05
4.61366e-05
4.35283e-05
4.05848e-05
3.80608e-05
3.54036e-05
3.19753e-05
2.98924e-05
2.89224e-05
2.8629e-05
2.70598e-05
2.39343e-05
1.84049e-05
8.5068e-06
2.00877e-07
4.6664e-07
1.91892e-05
4.07014e-05
5.22861e-05
5.66688e-05
5.70072e-05
5.6165e-05
5.42769e-05
5.19671e-05
5.00851e-05
4.84546e-05
4.72732e-05
4.6592e-05
4.63884e-05
4.65765e-05
4.70484e-05
4.77088e-05
4.84904e-05
4.93516e-05
5.02691e-05
5.12309e-05
5.2231e-05
5.32764e-05
5.43475e-05
5.54019e-05
5.64404e-05
5.7473e-05
5.85271e-05
5.95708e-05
6.06065e-05
6.16158e-05
6.25968e-05
6.35478e-05
6.44616e-05
6.53201e-05
6.61298e-05
6.68845e-05
6.75433e-05
6.81338e-05
6.87352e-05
6.91888e-05
6.95497e-05
6.98105e-05
6.99641e-05
7.00037e-05
6.99227e-05
6.97154e-05
6.93775e-05
6.89063e-05
6.83021e-05
6.75686e-05
6.67136e-05
6.57504e-05
6.46978e-05
6.358e-05
6.24259e-05
6.12667e-05
6.01322e-05
5.90464e-05
5.80207e-05
5.7049e-05
5.61015e-05
5.51229e-05
5.40309e-05
5.28456e-05
5.11138e-05
4.83728e-05
4.58495e-05
4.29518e-05
3.97313e-05
3.68418e-05
3.37307e-05
3.00548e-05
2.82038e-05
2.69362e-05
2.62927e-05
2.38166e-05
1.85431e-05
8.68037e-06
2.30813e-07
5.00419e-07
1.98843e-05
4.17836e-05
5.35758e-05
5.77745e-05
5.82522e-05
5.71749e-05
5.49439e-05
5.27006e-05
5.05997e-05
4.89415e-05
4.7812e-05
4.72251e-05
4.71187e-05
4.73835e-05
4.79093e-05
4.86099e-05
4.94285e-05
5.03308e-05
5.12973e-05
5.23173e-05
5.33834e-05
5.44878e-05
5.56092e-05
5.67294e-05
5.78537e-05
5.89886e-05
6.01354e-05
6.12758e-05
6.24062e-05
6.35145e-05
6.45957e-05
6.5643e-05
6.66597e-05
6.76266e-05
6.85152e-05
6.93548e-05
7.01026e-05
7.07636e-05
7.14293e-05
7.19656e-05
7.23901e-05
7.27105e-05
7.29189e-05
7.30078e-05
7.29695e-05
7.27967e-05
7.24826e-05
7.20218e-05
7.1411e-05
7.06499e-05
6.97422e-05
6.86973e-05
6.75308e-05
6.62658e-05
6.49327e-05
6.35683e-05
6.22125e-05
6.09039e-05
5.96732e-05
5.8535e-05
5.74801e-05
5.6469e-05
5.54282e-05
5.4249e-05
5.29918e-05
5.07638e-05
4.79279e-05
4.52671e-05
4.19654e-05
3.84818e-05
3.52929e-05
3.15333e-05
2.82112e-05
2.62683e-05
2.54967e-05
2.34829e-05
1.85291e-05
8.83159e-06
2.63395e-07
5.29756e-07
2.04256e-05
4.26308e-05
5.45318e-05
5.8727e-05
5.93652e-05
5.80966e-05
5.56288e-05
5.32316e-05
5.10633e-05
4.94053e-05
4.83389e-05
4.78418e-05
4.78188e-05
4.81478e-05
4.87216e-05
4.94638e-05
5.03251e-05
5.12758e-05
5.22982e-05
5.33804e-05
5.45119e-05
5.56801e-05
5.68697e-05
5.80733e-05
5.92937e-05
6.05302e-05
6.17756e-05
6.30173e-05
6.42481e-05
6.5458e-05
6.66391e-05
6.77832e-05
6.88888e-05
6.99541e-05
7.09208e-05
7.18294e-05
7.26526e-05
7.33713e-05
7.40864e-05
7.46931e-05
7.51723e-05
7.55454e-05
7.5805e-05
7.59435e-05
7.59527e-05
7.58242e-05
7.55494e-05
7.512e-05
7.45293e-05
7.37725e-05
7.2848e-05
7.17597e-05
7.05176e-05
6.91401e-05
6.76551e-05
6.61001e-05
6.4521e-05
6.29682e-05
6.14903e-05
6.0125e-05
5.88891e-05
5.77691e-05
5.67138e-05
5.56314e-05
5.4388e-05
5.28678e-05
5.00616e-05
4.73232e-05
4.43111e-05
4.05815e-05
3.67784e-05
3.32428e-05
2.8826e-05
2.60663e-05
2.39578e-05
2.28463e-05
1.84815e-05
9.11487e-06
3.0355e-07
5.53867e-07
2.08205e-05
4.32247e-05
5.52179e-05
5.95283e-05
6.01883e-05
5.86693e-05
5.62968e-05
5.37114e-05
5.14902e-05
4.98503e-05
4.88509e-05
4.84355e-05
4.84844e-05
4.88693e-05
4.94894e-05
5.02761e-05
5.11855e-05
5.21905e-05
5.32736e-05
5.44217e-05
5.56226e-05
5.68641e-05
5.81356e-05
5.94329e-05
6.07542e-05
6.20939e-05
6.34416e-05
6.47859e-05
6.61173e-05
6.74249e-05
6.86991e-05
6.99302e-05
7.11091e-05
7.2248e-05
7.32916e-05
7.42473e-05
7.5127e-05
7.58854e-05
7.66311e-05
7.72911e-05
7.78121e-05
7.82268e-05
7.85297e-05
7.8714e-05
7.87716e-05
7.86934e-05
7.84696e-05
7.80901e-05
7.75445e-05
7.68239e-05
7.59212e-05
7.48334e-05
7.35635e-05
7.21223e-05
7.05311e-05
6.88235e-05
6.70455e-05
6.52539e-05
6.35111e-05
6.18764e-05
6.03938e-05
5.90788e-05
5.79078e-05
5.68116e-05
5.56763e-05
5.43477e-05
5.23107e-05
4.92386e-05
4.64384e-05
4.28658e-05
3.87249e-05
3.45662e-05
3.04016e-05
2.62768e-05
2.35574e-05
2.23078e-05
1.85151e-05
9.60714e-06
3.55801e-07
5.72588e-07
2.108e-05
4.35957e-05
5.56958e-05
6.01041e-05
6.08783e-05
5.9266e-05
5.67847e-05
5.41353e-05
5.18874e-05
5.02774e-05
4.9344e-05
4.90016e-05
4.91131e-05
4.95496e-05
5.02164e-05
5.10511e-05
5.20133e-05
5.30774e-05
5.42257e-05
5.54443e-05
5.67209e-05
5.80447e-05
5.94073e-05
6.08038e-05
6.22283e-05
6.36714e-05
6.5121e-05
6.65646e-05
6.79903e-05
6.93857e-05
7.07394e-05
7.20403e-05
7.3278e-05
7.44638e-05
7.55696e-05
7.65521e-05
7.74669e-05
7.82444e-05
7.89964e-05
7.96914e-05
8.02386e-05
8.06809e-05
8.10159e-05
8.12382e-05
8.13405e-05
8.13141e-05
8.11486e-05
8.08323e-05
8.03527e-05
7.96967e-05
7.88522e-05
7.78092e-05
7.65624e-05
7.51134e-05
7.3474e-05
7.1669e-05
6.97391e-05
6.7741e-05
6.57449e-05
6.38273e-05
6.20582e-05
6.04859e-05
5.91193e-05
5.79163e-05
5.67784e-05
5.55567e-05
5.4058e-05
5.1193e-05
4.83309e-05
4.51957e-05
4.08297e-05
3.6411e-05
3.19388e-05
2.70354e-05
2.34959e-05
2.14633e-05
1.8589e-05
1.0193e-05
4.1938e-07
5.86095e-07
2.12174e-05
4.37839e-05
5.59572e-05
6.04313e-05
6.12398e-05
5.98083e-05
5.72132e-05
5.45153e-05
5.22593e-05
5.06857e-05
4.98147e-05
4.95371e-05
4.97048e-05
5.01907e-05
5.09059e-05
5.17921e-05
5.28114e-05
5.39388e-05
5.51566e-05
5.64507e-05
5.78092e-05
5.92219e-05
6.06809e-05
6.21786e-05
6.37056e-05
6.52494e-05
6.6796e-05
6.83307e-05
6.98394e-05
7.13083e-05
7.27245e-05
7.40768e-05
7.53561e-05
7.6558e-05
7.76954e-05
7.87054e-05
7.96202e-05
8.04e-05
8.11317e-05
8.18427e-05
8.23993e-05
8.28531e-05
8.32063e-05
8.34555e-05
8.35951e-05
8.36172e-05
8.35118e-05
8.32668e-05
8.28679e-05
8.22992e-05
8.15439e-05
8.05857e-05
7.94109e-05
7.8011e-05
7.63861e-05
7.45493e-05
7.25305e-05
7.03798e-05
6.81676e-05
6.59806e-05
6.39111e-05
6.20396e-05
6.0414e-05
5.90295e-05
5.78163e-05
5.66372e-05
5.52934e-05
5.32097e-05
5.00095e-05
4.71852e-05
4.33404e-05
3.81834e-05
3.33974e-05
2.85078e-05
2.39208e-05
2.03628e-05
1.84572e-05
1.06089e-05
4.8847e-07
5.94488e-07
2.12333e-05
4.37372e-05
5.59758e-05
6.05666e-05
6.16793e-05
6.01817e-05
5.75753e-05
5.48577e-05
5.26083e-05
5.10742e-05
5.02605e-05
5.00407e-05
5.02605e-05
5.07953e-05
5.15608e-05
5.25018e-05
5.35818e-05
5.47763e-05
5.60677e-05
5.74417e-05
5.88866e-05
6.03922e-05
6.19491e-05
6.35467e-05
6.51724e-05
6.68108e-05
6.84453e-05
7.0059e-05
7.16359e-05
7.31608e-05
7.46202e-05
7.60031e-05
7.73006e-05
7.85059e-05
7.96304e-05
8.06656e-05
8.15583e-05
8.23228e-05
8.30073e-05
8.3711e-05
8.42608e-05
8.47093e-05
8.50651e-05
8.53276e-05
8.54936e-05
8.55568e-05
8.55085e-05
8.53368e-05
8.50269e-05
8.4561e-05
8.39187e-05
8.30784e-05
8.20185e-05
8.07203e-05
7.91718e-05
7.73717e-05
7.53357e-05
7.3101e-05
7.07309e-05
6.83136e-05
6.59558e-05
6.37664e-05
6.1833e-05
6.01954e-05
5.88239e-05
5.76119e-05
5.63846e-05
5.48083e-05
5.16862e-05
4.88488e-05
4.55236e-05
4.03872e-05
3.50392e-05
2.99502e-05
2.45841e-05
2.0347e-05
1.81589e-05
1.10988e-05
5.64972e-07
5.96908e-07
2.11262e-05
4.34549e-05
5.58845e-05
6.07021e-05
6.19311e-05
6.04711e-05
5.78807e-05
5.51671e-05
5.29361e-05
5.14421e-05
5.06802e-05
5.05126e-05
5.07817e-05
5.13658e-05
5.21837e-05
5.31822e-05
5.4326e-05
5.55907e-05
5.69586e-05
5.84156e-05
5.99493e-05
6.15487e-05
6.32018e-05
6.48952e-05
6.66127e-05
6.83361e-05
7.00463e-05
7.17244e-05
7.33527e-05
7.49153e-05
7.63986e-05
7.77921e-05
7.9088e-05
8.02817e-05
8.13714e-05
8.2374e-05
8.32651e-05
8.39978e-05
8.46249e-05
8.52745e-05
8.58081e-05
8.62351e-05
8.65769e-05
8.68376e-05
8.70166e-05
8.71101e-05
8.71113e-05
8.70095e-05
8.67905e-05
8.64355e-05
8.5922e-05
8.5224e-05
8.43134e-05
8.31622e-05
8.1746e-05
8.00487e-05
7.80688e-05
7.58267e-05
7.3371e-05
7.07832e-05
6.81745e-05
6.56749e-05
6.34087e-05
6.1463e-05
5.98555e-05
5.85132e-05
5.72698e-05
5.5877e-05
5.34401e-05
5.02582e-05
4.75089e-05
4.28674e-05
3.66375e-05
3.12299e-05
2.54654e-05
2.07082e-05
1.78762e-05
1.16439e-05
6.43288e-07
5.95257e-07
2.09447e-05
4.31411e-05
5.56501e-05
6.07076e-05
6.20363e-05
6.06766e-05
5.81351e-05
5.54473e-05
5.32437e-05
5.1789e-05
5.10738e-05
5.09539e-05
5.12705e-05
5.19043e-05
5.27763e-05
5.38345e-05
5.50442e-05
5.63811e-05
5.78275e-05
5.93685e-05
6.09911e-05
6.26821e-05
6.4427e-05
6.62091e-05
6.80089e-05
6.98055e-05
7.15774e-05
7.33042e-05
7.49669e-05
7.65494e-05
7.80385e-05
7.94244e-05
8.07007e-05
8.18641e-05
8.29138e-05
8.38509e-05
8.47036e-05
8.54284e-05
8.59848e-05
8.65402e-05
8.70431e-05
8.74329e-05
8.77446e-05
8.79876e-05
8.81647e-05
8.82751e-05
8.83146e-05
8.82747e-05
8.81424e-05
8.78995e-05
8.75225e-05
8.69824e-05
8.6246e-05
8.52773e-05
8.40406e-05
8.25049e-05
8.06509e-05
7.84787e-05
7.60174e-05
7.33329e-05
7.05315e-05
6.77535e-05
6.51535e-05
6.28664e-05
6.09664e-05
5.94334e-05
5.81429e-05
5.68872e-05
5.50926e-05
5.15647e-05
4.90591e-05
4.50451e-05
3.87409e-05
3.2703e-05
2.68905e-05
2.09992e-05
1.71777e-05
1.21905e-05
7.14234e-07
5.90288e-07
2.06987e-05
4.26706e-05
5.52655e-05
6.05561e-05
6.20393e-05
6.0807e-05
5.83435e-05
5.57007e-05
5.35322e-05
5.21154e-05
5.14422e-05
5.13662e-05
5.17289e-05
5.24127e-05
5.33398e-05
5.44589e-05
5.57357e-05
5.71456e-05
5.86704e-05
6.02946e-05
6.20034e-05
6.37815e-05
6.56114e-05
6.74729e-05
6.93437e-05
7.12003e-05
7.30194e-05
7.47793e-05
7.64605e-05
7.80469e-05
7.95261e-05
8.08892e-05
8.21311e-05
8.32499e-05
8.42465e-05
8.51245e-05
8.58902e-05
8.65867e-05
8.70908e-05
8.75279e-05
8.79813e-05
8.83194e-05
8.85857e-05
8.87954e-05
8.89551e-05
8.90677e-05
8.91319e-05
8.91422e-05
8.90877e-05
8.89519e-05
8.87113e-05
8.83358e-05
8.77887e-05
8.70274e-05
8.60066e-05
8.46817e-05
8.30153e-05
8.09862e-05
7.86e-05
7.59005e-05
7.29791e-05
6.99753e-05
6.70633e-05
6.44198e-05
6.21766e-05
6.03705e-05
5.89112e-05
5.7582e-05
5.60876e-05
5.30572e-05
5.02618e-05
4.7041e-05
4.10849e-05
3.40575e-05
2.80388e-05
2.19461e-05
1.67324e-05
1.26959e-05
7.70457e-07
5.8189e-07
2.0414e-05
4.20041e-05
5.47433e-05
6.0289e-05
6.19494e-05
6.08701e-05
5.851e-05
5.59297e-05
5.38027e-05
5.24223e-05
5.17867e-05
5.17512e-05
5.21586e-05
5.28921e-05
5.38745e-05
5.50549e-05
5.63985e-05
5.78807e-05
5.94823e-05
6.11866e-05
6.2977e-05
6.48354e-05
6.67413e-05
6.86715e-05
7.06011e-05
7.25043e-05
7.43565e-05
7.61352e-05
7.78208e-05
7.93977e-05
8.08542e-05
8.21825e-05
8.33787e-05
8.44422e-05
8.53753e-05
8.6183e-05
8.68719e-05
8.747e-05
8.79575e-05
8.82696e-05
8.86464e-05
8.89218e-05
8.91295e-05
8.92914e-05
8.94189e-05
8.95185e-05
8.95925e-05
8.96387e-05
8.96494e-05
8.96104e-05
8.94997e-05
8.92875e-05
8.8935e-05
8.83956e-05
8.76158e-05
8.65391e-05
8.51115e-05
8.32902e-05
8.10554e-05
7.84241e-05
7.54643e-05
7.23033e-05
6.91226e-05
6.61325e-05
6.35227e-05
6.14017e-05
5.97447e-05
5.83696e-05
5.69381e-05
5.45532e-05
5.13358e-05
4.86272e-05
4.32674e-05
3.55963e-05
2.92292e-05
2.26295e-05
1.68429e-05
1.30333e-05
8.03967e-07
5.704e-07
2.00471e-05
4.12764e-05
5.41125e-05
5.99172e-05
6.17754e-05
6.08722e-05
5.86384e-05
5.61363e-05
5.40566e-05
5.2711e-05
5.21089e-05
5.21106e-05
5.25607e-05
5.3343e-05
5.438e-05
5.56206e-05
5.70296e-05
5.85817e-05
6.02567e-05
6.20363e-05
6.39016e-05
6.58319e-05
6.78037e-05
6.97912e-05
7.17671e-05
7.37041e-05
7.55765e-05
7.73616e-05
7.904e-05
8.05968e-05
8.2021e-05
8.33059e-05
8.44487e-05
8.54499e-05
8.6313e-05
8.70442e-05
8.76521e-05
8.81476e-05
8.85601e-05
8.8826e-05
8.90687e-05
8.92751e-05
8.94132e-05
8.95151e-05
8.95968e-05
8.9669e-05
8.97377e-05
8.98044e-05
8.98651e-05
8.99086e-05
8.99159e-05
8.98585e-05
8.96976e-05
8.93841e-05
8.88589e-05
8.80558e-05
8.69059e-05
8.53461e-05
8.33307e-05
8.0847e-05
7.79331e-05
7.46935e-05
7.13038e-05
6.79941e-05
6.50044e-05
6.25154e-05
6.05797e-05
5.90857e-05
5.77743e-05
5.59476e-05
5.23925e-05
4.99065e-05
4.51827e-05
3.76892e-05
3.03357e-05
2.34542e-05
1.71265e-05
1.32113e-05
8.18633e-07
5.56428e-07
1.96454e-05
4.04642e-05
5.33857e-05
5.94511e-05
6.15253e-05
6.08191e-05
5.87319e-05
5.63221e-05
5.42952e-05
5.2983e-05
5.24104e-05
5.24458e-05
5.29362e-05
5.37653e-05
5.48551e-05
5.61537e-05
5.76252e-05
5.92434e-05
6.09867e-05
6.2835e-05
6.47671e-05
6.67598e-05
6.87868e-05
7.082e-05
7.28303e-05
7.47893e-05
7.66709e-05
7.84522e-05
8.01145e-05
8.16434e-05
8.30288e-05
8.42651e-05
8.535e-05
8.62851e-05
8.70748e-05
8.77264e-05
8.82494e-05
8.86561e-05
8.89598e-05
8.91682e-05
8.92959e-05
8.94197e-05
8.94791e-05
8.9511e-05
8.95357e-05
8.95677e-05
8.96168e-05
8.96886e-05
8.97827e-05
8.98922e-05
9.00014e-05
9.00846e-05
9.01048e-05
9.00123e-05
8.97447e-05
8.92285e-05
8.83825e-05
8.71254e-05
8.53862e-05
8.31216e-05
8.03355e-05
7.7101e-05
7.35747e-05
6.99928e-05
6.6634e-05
6.37475e-05