/*--------------------------------*- C++ -*----------------------------------*\
  =========                 |
  \\      /  F ield         | OpenFOAM: The Open Source CFD Toolbox
   \\    /   O peration     | Website:  https://openfoam.org
    \\  /    A nd           | Version:  13
     \\/     M anipulation  |
\*---------------------------------------------------------------------------*/
FoamFile
{
    format      ascii;
    class       surfaceScalarField;
    location    "2.9";
    object      phi;
}
// * * * * * * * * * * * * * * * * * * * * * * * * * * * * * * * * * * * * * //

dimensions      [0 3 -1 0 0 0 0];

internalField   nonuniform List<scalar> 
12640
(
3.01023e-09
-3.00999e-09
1.42519e-08
-1.12416e-08
3.1198e-08
-1.69462e-08
4.97376e-08
-1.85396e-08
6.64587e-08
-1.6721e-08
7.95196e-08
-1.30609e-08
8.83897e-08
-8.8702e-09
9.35385e-08
-5.14881e-09
9.59889e-08
-2.45034e-09
9.67291e-08
-7.4021e-10
9.66395e-08
8.9553e-11
9.62275e-08
4.1207e-10
9.58024e-08
4.25078e-10
9.54116e-08
3.90776e-10
9.49194e-08
4.92199e-10
9.40558e-08
8.63598e-10
9.24786e-08
1.5772e-09
8.97002e-08
2.77838e-09
8.51213e-08
4.57888e-09
7.812e-08
7.0013e-09
6.81997e-08
9.92031e-09
5.49218e-08
1.32779e-08
3.80537e-08
1.68681e-08
1.74939e-08
2.05598e-08
-6.74228e-09
2.42362e-08
-3.49166e-08
2.81743e-08
-6.77628e-08
3.28461e-08
-1.06293e-07
3.85304e-08
-1.51949e-07
4.56558e-08
-2.06273e-07
5.43242e-08
-2.69521e-07
6.32482e-08
-3.40591e-07
7.10696e-08
-4.17891e-07
7.73003e-08
-4.99722e-07
8.1831e-08
-5.84324e-07
8.46015e-08
-6.69942e-07
8.56182e-08
-7.54948e-07
8.50056e-08
-8.3786e-07
8.29119e-08
-9.17383e-07
7.95236e-08
-9.92398e-07
7.50145e-08
-1.06196e-06
6.95661e-08
-1.12527e-06
6.33068e-08
-1.1816e-06
5.6329e-08
-1.23031e-06
4.87079e-08
-1.27078e-06
4.04725e-08
-1.3024e-06
3.16214e-08
-1.32452e-06
2.21167e-08
-1.33696e-06
1.24403e-08
-1.33979e-06
2.82967e-09
-1.3312e-06
-8.59067e-09
-1.31162e-06
-1.95775e-08
-1.28013e-06
-3.14943e-08
-1.23661e-06
-4.3515e-08
-1.18086e-06
-5.57484e-08
-1.11301e-06
-6.78546e-08
-1.03341e-06
-7.95989e-08
-9.42806e-07
-9.06025e-08
-8.42201e-07
-1.00606e-07
-7.32667e-07
-1.09533e-07
-6.15736e-07
-1.16931e-07
-4.93555e-07
-1.22181e-07
-3.68817e-07
-1.24738e-07
-2.44643e-07
-1.24174e-07
-1.24513e-07
-1.20129e-07
-1.22109e-08
-1.12302e-07
8.8899e-08
-1.0111e-07
1.74659e-07
-8.57602e-08
2.41721e-07
-6.70618e-08
2.87399e-07
-4.56785e-08
3.10219e-07
-2.28198e-08
3.10488e-07
-2.68618e-10
2.89232e-07
2.12556e-08
2.50147e-07
3.90857e-08
1.98784e-07
5.13628e-08
1.44066e-07
5.47177e-08
9.30767e-08
5.09893e-08
5.09622e-08
4.21145e-08
2.05872e-08
3.0375e-08
3.78418e-09
1.6803e-08
3.78418e-09
1.00312e-08
-1.30412e-08
3.46223e-08
-3.58327e-08
6.56243e-08
-4.79482e-08
9.60856e-08
-4.9001e-08
1.21891e-07
-4.25261e-08
1.41314e-07
-3.24843e-08
1.54217e-07
-2.17737e-08
1.61216e-07
-1.21477e-08
1.63181e-07
-4.41524e-09
1.61068e-07
1.37297e-09
1.55712e-07
5.44555e-09
1.47717e-07
8.40672e-09
1.37322e-07
1.08207e-08
1.24416e-07
1.32963e-08
1.08648e-07
1.62604e-08
8.9562e-08
1.99497e-08
6.65082e-08
2.4631e-08
3.86478e-08
3.06387e-08
5.0344e-09
3.81923e-08
-3.54489e-08
4.74845e-08
-8.41354e-08
5.86068e-08
-1.42057e-07
7.11996e-08
-2.09931e-07
8.47424e-08
-2.8844e-07
9.90688e-08
-3.78097e-07
1.13893e-07
-4.78781e-07
1.28858e-07
-5.89408e-07
1.43473e-07
-7.0795e-07
1.57073e-07
-8.31507e-07
1.69213e-07
-9.56625e-07
1.79442e-07
-1.0805e-06
1.87122e-07
-1.20161e-06
1.92181e-07
-1.31857e-06
1.94257e-07
-1.43001e-06
1.93277e-07
-1.53479e-06
1.89382e-07
-1.632e-06
1.82826e-07
-1.72098e-06
1.73983e-07
-1.80124e-06
1.63172e-07
-1.87243e-06
1.50714e-07
-1.93428e-06
1.3687e-07
-1.98659e-06
1.21876e-07
-2.02918e-06
1.05894e-07
-2.06188e-06
8.90297e-08
-2.08455e-06
7.13796e-08
-2.09706e-06
5.29842e-08
-2.0993e-06
3.38576e-08
-2.09112e-06
1.39387e-08
-2.07201e-06
-6.67083e-09
-2.04172e-06
-2.74665e-08
-2.00064e-06
-4.96686e-08
-1.94791e-06
-7.23075e-08
-1.88383e-06
-9.55764e-08
-1.80811e-06
-1.19234e-07
-1.72077e-06
-1.43089e-07
-1.62181e-06
-1.66815e-07
-1.51143e-06
-1.8997e-07
-1.39002e-06
-2.1202e-07
-1.25825e-06
-2.32375e-07
-1.11748e-06
-2.50304e-07
-9.69541e-07
-2.64868e-07
-8.16431e-07
-2.75291e-07
-6.6055e-07
-2.80619e-07
-5.04682e-07
-2.80041e-07
-3.51931e-07
-2.72881e-07
-2.05573e-07
-2.58661e-07
-6.94206e-08
-2.37262e-07
5.33973e-08
-2.08578e-07
1.59652e-07
-1.73316e-07
2.46209e-07
-1.32236e-07
3.10793e-07
-8.74034e-08
3.51193e-07
-4.06688e-08
3.67629e-07
4.81998e-09
3.5892e-07
4.77942e-08
3.27619e-07
8.26638e-08
2.75393e-07
1.06944e-07
2.08469e-07
1.17913e-07
1.36571e-07
1.14012e-07
7.07611e-08
9.6185e-08
2.19884e-08
6.55757e-08
2.57726e-08
1.58931e-08
-2.89343e-08
4.77205e-08
-6.76601e-08
8.13065e-08
-8.15342e-08
1.10018e-07
-7.77127e-08
1.31904e-07
-6.4412e-08
1.46748e-07
-4.73278e-08
1.54942e-07
-2.9968e-08
1.56998e-07
-1.42041e-08
1.53458e-07
-8.74812e-10
1.44782e-07
1.00488e-08
1.31417e-07
1.88109e-08
1.13476e-07
2.63474e-08
9.07077e-08
3.35891e-08
6.26455e-08
4.13584e-08
2.85586e-08
5.03472e-08
-1.25597e-08
6.10681e-08
-6.18517e-08
7.39229e-08
-1.2038e-07
8.91668e-08
-1.89146e-07
1.06958e-07
-2.68897e-07
1.27236e-07
-3.59966e-07
1.49676e-07
-4.62344e-07
1.73578e-07
-5.75636e-07
1.98035e-07
-6.98691e-07
2.22123e-07
-8.29566e-07
2.44768e-07
-9.656e-07
2.64892e-07
-1.1039e-06
2.81772e-07
-1.24166e-06
2.94838e-07
-1.3763e-06
3.03852e-07
-1.50558e-06
3.08724e-07
-1.62787e-06
3.09404e-07
-1.74177e-06
3.06086e-07
-1.84649e-06
2.98976e-07
-1.94176e-06
2.88545e-07
-2.02759e-06
2.75209e-07
-2.10405e-06
2.59286e-07
-2.17127e-06
2.41203e-07
-2.22941e-06
2.21314e-07
-2.27862e-06
1.99922e-07
-2.31901e-06
1.77267e-07
-2.3507e-06
1.53557e-07
-2.37373e-06
1.28931e-07
-2.38815e-06
1.03445e-07
-2.3939e-06
7.71358e-08
-2.3909e-06
4.99837e-08
-2.37899e-06
2.19471e-08
-2.35805e-06
-7.00198e-09
-2.32793e-06
-3.67969e-08
-2.28784e-06
-6.75516e-08
-2.23807e-06
-9.94403e-08
-2.17815e-06
-1.32227e-07
-2.10786e-06
-1.65872e-07
-2.02695e-06
-2.00135e-07
-1.93529e-06
-2.34749e-07
-1.83282e-06
-2.6929e-07
-1.71963e-06
-3.03155e-07
-1.59607e-06
-3.35589e-07
-1.46272e-06
-3.65724e-07
-1.32056e-06
-3.92461e-07
-1.17093e-06
-4.14498e-07
-1.01565e-06
-4.30567e-07
-8.56897e-07
-4.39375e-07
-6.97307e-07
-4.39632e-07
-5.39831e-07
-4.30357e-07
-3.87617e-07
-4.10874e-07
-2.43729e-07
-3.81151e-07
-1.11314e-07
-3.40993e-07
6.51802e-09
-2.91148e-07
1.07664e-07
-2.33382e-07
1.89677e-07
-1.69416e-07
2.51172e-07
-1.02164e-07
2.9078e-07
-3.47882e-08
3.08549e-07
3.00261e-08
3.0325e-07
8.79626e-08
2.75896e-07
1.34298e-07
2.29175e-07
1.64634e-07
1.67433e-07
1.75754e-07
9.88794e-08
1.64739e-07
3.57292e-08
1.28726e-07
6.15017e-08
1.95705e-08
-4.85048e-08
5.29531e-08
-1.01043e-07
8.29616e-08
-1.11543e-07
1.05194e-07
-9.9945e-08
1.19586e-07
-7.88039e-08
1.26921e-07
-5.4663e-08
1.27768e-07
-3.08145e-08
1.22471e-07
-8.90744e-09
1.11148e-07
1.04485e-08
9.38346e-08
2.73619e-08
7.01831e-08
4.24624e-08
3.97683e-08
5.67622e-08
1.99664e-09
7.13608e-08
-4.39272e-08
8.72823e-08
-9.89284e-08
1.05348e-07
-1.64021e-07
1.2616e-07
-2.40142e-07
1.50044e-07
-3.2803e-07
1.77055e-07
-4.2806e-07
2.06988e-07
-5.39987e-07
2.39163e-07
-6.62863e-07
2.72552e-07
-7.9508e-07
3.05794e-07
-9.34183e-07
3.37138e-07
-1.07738e-06
3.65325e-07
-1.22174e-06
3.89125e-07
-1.36444e-06
4.0759e-07
-1.50292e-06
4.20252e-07
-1.63491e-06
4.26825e-07
-1.75856e-06
4.27507e-07
-1.87282e-06
4.22987e-07
-1.9773e-06
4.13884e-07
-2.07193e-06
4.00717e-07
-2.157e-06
3.84041e-07
-2.2328e-06
3.64347e-07
-2.29973e-06
3.42136e-07
-2.35822e-06
3.17783e-07
-2.40867e-06
2.91651e-07
-2.45139e-06
2.64031e-07
-2.48662e-06
2.35152e-07
-2.51455e-06
2.05199e-07
-2.5353e-06
1.74305e-07
-2.54892e-06
1.42551e-07
-2.5554e-06
1.09927e-07
-2.55467e-06
7.64009e-08
-2.54657e-06
4.18842e-08
-2.53091e-06
6.28561e-09
-2.50748e-06
-3.04238e-08
-2.47597e-06
-6.83103e-08
-2.43602e-06
-1.07504e-07
-2.38739e-06
-1.48073e-07
-2.32968e-06
-1.89936e-07
-2.26255e-06
-2.32994e-07
-2.18569e-06
-2.76997e-07
-2.0988e-06
-3.21644e-07
-2.00161e-06
-3.66474e-07
-1.89401e-06
-4.10762e-07
-1.77605e-06
-4.53542e-07
-1.64806e-06
-4.93719e-07
-1.51059e-06
-5.29927e-07
-1.36462e-06
-5.60476e-07
-1.21157e-06
-5.83617e-07
-1.05334e-06
-5.97601e-07
-8.92327e-07
-6.00644e-07
-7.31447e-07
-5.91236e-07
-5.74075e-07
-5.68246e-07
-4.23569e-07
-5.31657e-07
-2.82901e-07
-4.81661e-07
-1.55082e-07
-4.18967e-07
-4.29577e-08
-3.45507e-07
5.15227e-08
-2.63896e-07
1.26781e-07
-1.77422e-07
1.81733e-07
-8.97404e-08
2.16555e-07
-4.79623e-09
2.30959e-07
7.35585e-08
2.24892e-07
1.40365e-07
1.98825e-07
1.90701e-07
1.55369e-07
2.1921e-07
9.8874e-08
2.21235e-07
3.84592e-08
1.89141e-07
9.9961e-08
2.1208e-08
-6.97128e-08
5.15004e-08
-1.31335e-07
7.43598e-08
-1.34402e-07
8.82188e-08
-1.13804e-07
9.39692e-08
-8.45543e-08
9.27134e-08
-5.34072e-08
8.49449e-08
-2.3046e-08
7.07158e-08
5.32165e-09
4.97521e-08
3.14121e-08
2.15474e-08
5.55665e-08
-1.46244e-08
7.86342e-08
-5.95919e-08
1.0173e-07
-1.14244e-07
1.26013e-07
-1.79476e-07
1.52515e-07
-2.56136e-07
1.82008e-07
-3.4489e-07
2.14914e-07
-4.46068e-07
2.51222e-07
-5.59468e-07
2.90456e-07
-6.84225e-07
3.31744e-07
-8.18655e-07
3.73594e-07
-9.60201e-07
4.14097e-07
-1.10603e-06
4.51621e-07
-1.25307e-06
4.84179e-07
-1.39837e-06
5.10626e-07
-1.53908e-06
5.29834e-07
-1.67257e-06
5.41077e-07
-1.79702e-06
5.44708e-07
-1.91173e-06
5.41529e-07
-2.01656e-06
5.32342e-07
-2.11168e-06
5.18101e-07
-2.19742e-06
4.99629e-07
-2.27434e-06
4.77634e-07
-2.34298e-06
4.52683e-07
-2.40383e-06
4.25201e-07
-2.45736e-06
3.95663e-07
-2.50399e-06
3.64407e-07
-2.54405e-06
3.31713e-07
-2.57783e-06
2.97818e-07
-2.60557e-06
2.62886e-07
-2.62736e-06
2.26988e-07
-2.64325e-06
1.90199e-07
-2.65329e-06
1.52586e-07
-2.65742e-06
1.14063e-07
-2.65556e-06
7.45444e-08
-2.64757e-06
3.38874e-08
-2.63321e-06
-8.07473e-09
-2.6122e-06
-5.1428e-08
-2.58421e-06
-9.63071e-08
-2.54893e-06
-1.42776e-07
-2.50606e-06
-1.90943e-07
-2.45512e-06
-2.40877e-07
-2.39563e-06
-2.92492e-07
-2.32715e-06
-3.45467e-07
-2.24931e-06
-3.9949e-07
-2.16163e-06
-4.54155e-07
-2.06368e-06
-5.08711e-07
-1.95524e-06
-5.61979e-07
-1.83629e-06
-6.12673e-07
-1.70691e-06
-6.59301e-07
-1.56768e-06
-6.99706e-07
-1.41953e-06
-7.31769e-07
-1.26397e-06
-7.53162e-07
-1.10292e-06
-7.61691e-07
-9.39014e-07
-7.55144e-07
-7.75472e-07
-7.31788e-07
-6.16433e-07
-6.90696e-07
-4.65547e-07
-6.32547e-07
-3.25958e-07
-5.58556e-07
-2.00797e-07
-4.70667e-07
-9.26751e-08
-3.72018e-07
-3.48536e-09
-2.66612e-07
6.58327e-08
-1.59058e-07
1.14951e-07
-5.39149e-08
1.44421e-07
4.40888e-08
1.54716e-07
1.3007e-07
1.46535e-07
1.98883e-07
1.20946e-07
2.44799e-07
8.05595e-08
2.61621e-07
3.22127e-08
2.37487e-07
1.32174e-07
2.09355e-08
-9.06483e-08
4.46266e-08
-1.55026e-07
5.8259e-08
-1.48034e-07
6.24154e-08
-1.17961e-07
5.87463e-08
-8.08852e-08
4.81122e-08
-4.27731e-08
3.07156e-08
-5.64942e-09
6.25164e-09
2.97856e-08
-2.59096e-08
6.35734e-08
-6.66481e-08
9.6305e-08
-1.1695e-07
1.28937e-07
-1.77805e-07
1.62584e-07
-2.50106e-07
1.98314e-07
-3.34562e-07
2.3697e-07
-4.31576e-07
2.79022e-07
-5.41119e-07
3.24457e-07
-6.62524e-07
3.72627e-07
-7.94377e-07
4.22309e-07
-9.34441e-07
4.71808e-07
-1.07997e-06
5.19127e-07
-1.22775e-06
5.61875e-07
-1.37457e-06
5.98439e-07
-1.51725e-06
6.26855e-07
-1.65253e-06
6.45914e-07
-1.77843e-06
6.5573e-07
-1.8943e-06
6.56952e-07
-2.00018e-06
6.50579e-07
-2.09644e-06
6.37794e-07
-2.18369e-06
6.19596e-07
-2.26251e-06
5.96919e-07
-2.33344e-06
5.7056e-07
-2.39704e-06
5.41227e-07
-2.45379e-06
5.09441e-07
-2.50421e-06
4.75614e-07
-2.54868e-06
4.40134e-07
-2.58753e-06
4.03261e-07
-2.62103e-06
3.65212e-07
-2.6494e-06
3.26182e-07
-2.67282e-06
2.86307e-07
-2.69134e-06
2.45511e-07
-2.70495e-06
2.03807e-07
-2.71372e-06
1.61363e-07
-2.71763e-06
1.17968e-07
-2.7166e-06
7.35117e-08
-2.71053e-06
2.78249e-08
-2.69932e-06
-1.92873e-08
-2.68274e-06
-6.80074e-08
-2.66044e-06
-1.18608e-07
-2.63199e-06
-1.71224e-07
-2.597e-06
-2.25936e-07
-2.55504e-06
-2.82841e-07
-2.50549e-06
-3.42043e-07
-2.44776e-06
-4.03196e-07
-2.38135e-06
-4.65896e-07
-2.3058e-06
-5.29705e-07
-2.22045e-06
-5.94067e-07
-2.12451e-06
-6.5792e-07
-2.01767e-06
-7.19509e-07
-1.89951e-06
-7.77457e-07
-1.7701e-06
-8.29123e-07
-1.62981e-06
-8.72062e-07
-1.47948e-06
-9.03486e-07
-1.32074e-06
-9.20427e-07
-1.15591e-06
-9.19977e-07
-9.87752e-07
-8.99948e-07
-8.20055e-07
-8.58393e-07
-6.57544e-07
-7.95058e-07
-5.04345e-07
-7.11756e-07
-3.64045e-07
-6.10967e-07
-2.3997e-07
-4.96093e-07
-1.34693e-07
-3.7189e-07
-4.98254e-08
-2.43926e-07
1.42344e-08
-1.17975e-07
5.79738e-08
3.49361e-10
8.25111e-08
1.05532e-07
8.90884e-08
1.92305e-07
7.89398e-08
2.54948e-07
5.45525e-08
2.86008e-07
2.17279e-08
2.70312e-07
1.53902e-07
1.86593e-08
-1.09308e-07
3.32582e-08
-1.69625e-07
3.63485e-08
-1.51125e-07
3.00865e-08
-1.11698e-07
1.63469e-08
-6.71457e-08
-4.37609e-09
-2.20501e-08
-3.22728e-08
2.22473e-08
-6.79758e-08
6.54886e-08
-1.12413e-07
1.08011e-07
-1.6665e-07
1.50542e-07
-2.31739e-07
1.94025e-07
-3.08578e-07
2.39423e-07
-3.97793e-07
2.87529e-07
-4.99606e-07
3.38783e-07
-6.13697e-07
3.93113e-07
-7.39118e-07
4.49878e-07
-8.74171e-07
5.0768e-07
-1.01635e-06
5.64484e-07
-1.16256e-06
6.18024e-07
-1.30948e-06
6.66042e-07
-1.4536e-06
7.05996e-07
-1.59108e-06
7.35922e-07
-1.71943e-06
7.55202e-07
-1.83764e-06
7.64122e-07
-1.94567e-06
7.63762e-07
-2.04401e-06
7.55297e-07
-2.13332e-06
7.39888e-07
-2.21424e-06
7.18712e-07
-2.28744e-06
6.92798e-07
-2.35355e-06
6.63025e-07
-2.41312e-06
6.30131e-07
-2.46661e-06
5.94718e-07
-2.51442e-06
5.57253e-07
-2.55694e-06
5.1813e-07
-2.59447e-06
4.77666e-07
-2.62729e-06
4.36087e-07
-2.65558e-06
3.93496e-07
-2.67944e-06
3.50041e-07
-2.69902e-06
3.05895e-07
-2.71464e-06
2.61125e-07
-2.72643e-06
2.15599e-07
-2.73423e-06
1.69163e-07
-2.73799e-06
1.21724e-07
-2.7376e-06
7.31245e-08
-2.73294e-06
2.31715e-08
-2.724e-06
-2.82322e-08
-2.71071e-06
-8.12943e-08
-2.69302e-06
-1.36303e-07
-2.67074e-06
-1.93503e-07
-2.64358e-06
-2.53097e-07
-2.61119e-06
-3.15226e-07
-2.57318e-06
-3.80052e-07
-2.5287e-06
-4.47676e-07
-2.47665e-06
-5.17943e-07
-2.416e-06
-5.90361e-07
-2.3459e-06
-6.64162e-07
-2.26537e-06
-7.38457e-07
-2.17385e-06
-8.11027e-07
-2.07089e-06
-8.80416e-07
-1.95541e-06
-9.44607e-07
-1.82724e-06
-1.00023e-06
-1.68653e-06
-1.04419e-06
-1.53415e-06
-1.07281e-06
-1.37167e-06
-1.08246e-06
-1.20179e-06
-1.06983e-06
-1.02788e-06
-1.0323e-06
-8.54466e-07
-9.68472e-07
-6.87013e-07
-8.79209e-07
-5.30326e-07
-7.67655e-07
-3.88424e-07
-6.37994e-07
-2.64891e-07
-4.95423e-07
-1.62233e-07
-3.46583e-07
-8.15982e-08
-1.9861e-07
-2.27409e-08
-5.8508e-08
1.56003e-08
6.71913e-08
3.53563e-08
1.72549e-07
3.87262e-08
2.51578e-07
2.85539e-08
2.9618e-07
1.05409e-08
2.88325e-07
1.64442e-07
1.42067e-08
-1.23514e-07
1.83035e-08
-1.73722e-07
9.96386e-09
-1.42785e-07
-7.04843e-09
-9.46862e-08
-3.12723e-08
-4.29218e-08
-6.26179e-08
9.2955e-09
-1.0161e-07
6.12394e-08
-1.49151e-07
1.1303e-07
-2.06322e-07
1.65182e-07
-2.74199e-07
2.18419e-07
-3.53687e-07
2.73513e-07
-4.45375e-07
3.31111e-07
-5.49394e-07
3.91548e-07
-6.65277e-07
4.54666e-07
-7.91921e-07
5.19757e-07
-9.27454e-07
5.85411e-07
-1.06924e-06
6.49461e-07
-1.21404e-06
7.09288e-07
-1.35831e-06
7.62291e-07
-1.49784e-06
8.0557e-07
-1.62932e-06
8.37478e-07
-1.75102e-06
8.57626e-07
-1.8625e-06
8.6668e-07
-1.96402e-06
8.65644e-07
-2.05619e-06
8.55929e-07
-2.1397e-06
8.38809e-07
-2.21532e-06
8.15511e-07
-2.28376e-06
7.87145e-07
-2.34562e-06
7.54657e-07
-2.40143e-06
7.18837e-07
-2.45164e-06
6.80339e-07
-2.49661e-06
6.39687e-07
-2.53666e-06
5.97302e-07
-2.57205e-06
5.53526e-07
-2.60302e-06
5.08633e-07
-2.62982e-06
4.62894e-07
-2.65285e-06
4.1652e-07
-2.67236e-06
3.69553e-07
-2.68837e-06
3.21901e-07
-2.70085e-06
2.73603e-07
-2.70991e-06
2.24664e-07
-2.71558e-06
1.74834e-07
-2.71794e-06
1.2408e-07
-2.71704e-06
7.22268e-08
-2.71291e-06
1.90423e-08
-2.70561e-06
-3.55354e-08
-2.69507e-06
-9.18357e-08
-2.68118e-06
-1.50194e-07
-2.66379e-06
-2.10895e-07
-2.64266e-06
-2.74219e-07
-2.61749e-06
-3.404e-07
-2.58798e-06
-4.09561e-07
-2.55373e-06
-4.8193e-07
-2.51422e-06
-5.57447e-07
-2.46879e-06
-6.35792e-07
-2.41648e-06
-7.16471e-07
-2.35601e-06
-7.98934e-07
-2.28483e-06
-8.82202e-07
-2.20149e-06
-9.63761e-07
-2.10476e-06
-1.04133e-06
-1.99414e-06
-1.11085e-06
-1.86901e-06
-1.16933e-06
-1.72905e-06
-1.21277e-06
-1.57499e-06
-1.23652e-06
-1.40854e-06
-1.23628e-06
-1.23265e-06
-1.20819e-06
-1.05163e-06
-1.14949e-06
-8.71178e-07
-1.05967e-06
-6.9781e-07
-9.41023e-07
-5.37061e-07
-7.98743e-07
-3.93443e-07
-6.39041e-07
-2.70749e-07
-4.69277e-07
-1.71267e-07
-2.98091e-07
-9.55977e-08
-1.34178e-07
-4.27332e-08
1.43268e-08
-1.01327e-08
1.39949e-07
5.27784e-09
2.36167e-07
7.56953e-09
2.93889e-07
2.15382e-09
2.93741e-07
1.66596e-07
7.8012e-09
-1.31315e-07
3.70617e-11
-1.65958e-07
-1.9525e-08
-1.23223e-07
-4.73756e-08
-6.68356e-08
-8.23307e-08
-7.96675e-09
-1.24561e-07
5.15262e-08
-1.74877e-07
1.11555e-07
-2.34335e-07
1.72488e-07
-3.04018e-07
2.34865e-07
-3.84842e-07
2.99243e-07
-4.7739e-07
3.66061e-07
-5.81767e-07
4.35488e-07
-6.97466e-07
5.07247e-07
-8.23373e-07
5.80574e-07
-9.57614e-07
6.53997e-07
-1.09742e-06
7.25218e-07
-1.23939e-06
7.91427e-07
-1.37965e-06
8.49552e-07
-1.5141e-06
8.9674e-07
-1.63995e-06
9.31427e-07
-1.75596e-06
9.53482e-07
-1.86182e-06
9.63485e-07
-1.95786e-06
9.62718e-07
-2.04476e-06
9.52545e-07
-2.1233e-06
9.34475e-07
-2.19425e-06
9.0976e-07
-2.25832e-06
8.79579e-07
-2.31611e-06
8.44938e-07
-2.36814e-06
8.0668e-07
-2.41481e-06
7.65515e-07
-2.45651e-06
7.22034e-07
-2.49354e-06
6.76718e-07
-2.5262e-06
6.29965e-07
-2.55478e-06
5.82105e-07
-2.57954e-06
5.33394e-07
-2.60064e-06
4.83989e-07
-2.61816e-06
4.34041e-07
-2.63224e-06
3.83631e-07
-2.64307e-06
3.32731e-07
-2.65084e-06
2.81372e-07
-2.6557e-06
2.29525e-07
-2.65789e-06
1.77022e-07
-2.65756e-06
1.23752e-07
-2.65486e-06
6.95241e-08
-2.6499e-06
1.40885e-08
-2.64275e-06
-4.26865e-08
-2.63338e-06
-1.01209e-07
-2.62178e-06
-1.61791e-07
-2.60793e-06
-2.24748e-07
-2.59174e-06
-2.90406e-07
-2.57307e-06
-3.59069e-07
-2.55163e-06
-4.30998e-07
-2.5271e-06
-5.0646e-07
-2.49898e-06
-5.85566e-07
-2.46653e-06
-6.68249e-07
-2.42877e-06
-7.54225e-07
-2.38495e-06
-8.42761e-07
-2.33389e-06
-9.33262e-07
-2.27371e-06
-1.02394e-06
-2.202e-06
-1.11304e-06
-2.11537e-06
-1.19748e-06
-2.01199e-06
-1.27271e-06
-1.89145e-06
-1.3333e-06
-1.75326e-06
-1.37471e-06
-1.59778e-06
-1.39176e-06
-1.42681e-06
-1.37916e-06
-1.24398e-06
-1.33232e-06
-1.05465e-06
-1.24899e-06
-8.66075e-07
-1.1296e-06
-6.86216e-07
-9.78602e-07
-5.21434e-07
-8.03823e-07
-3.76747e-07
-6.13963e-07
-2.56001e-07
-4.18837e-07
-1.61109e-07
-2.2907e-07
-9.17999e-08
-5.49819e-08
-4.5837e-08
9.39858e-08
-1.92865e-08
2.09617e-07
-6.36295e-09
2.80965e-07
-2.2993e-09
2.89677e-07
1.64297e-07
-2.66944e-10
-1.31048e-07
-1.95186e-08
-1.46706e-07
-5.07042e-08
-9.20375e-08
-8.94595e-08
-2.80803e-08
-1.35098e-07
3.76718e-08
-1.88148e-07
1.04577e-07
-2.49586e-07
1.72993e-07
-3.20497e-07
2.43398e-07
-4.01824e-07
3.16191e-07
-4.94183e-07
3.91602e-07
-5.97712e-07
4.6959e-07
-7.11942e-07
5.49719e-07
-8.35823e-07
6.31127e-07
-9.67508e-07
7.12259e-07
-1.10425e-06
7.90741e-07
-1.24256e-06
8.63531e-07
-1.3784e-06
9.27258e-07
-1.50803e-06
9.79189e-07
-1.629e-06
1.01771e-06
-1.74018e-06
1.0426e-06
-1.84127e-06
1.05457e-06
-1.93264e-06
1.05486e-06
-2.01499e-06
1.04506e-06
-2.08913e-06
1.02669e-06
-2.15583e-06
1.00117e-06
-2.21576e-06
9.69691e-07
-2.26951e-06
9.33332e-07
-2.31758e-06
8.93e-07
-2.36036e-06
8.49462e-07
-2.39822e-06
8.03374e-07
-2.43147e-06
7.55285e-07
-2.4604e-06
7.05654e-07
-2.48531e-06
6.54866e-07
-2.50643e-06
6.03228e-07
-2.524e-06
5.50965e-07
-2.53825e-06
4.98236e-07
-2.54939e-06
4.4518e-07
-2.55763e-06
3.91878e-07
-2.56324e-06
3.38334e-07
-2.56641e-06
2.84544e-07
-2.56732e-06
2.30441e-07
-2.56619e-06
1.75887e-07
-2.56317e-06
1.20736e-07
-2.55843e-06
6.47819e-08
-2.55209e-06
7.74238e-09
-2.54426e-06
-5.05083e-08
-2.53506e-06
-1.10414e-07
-2.52457e-06
-1.72276e-07
-2.51288e-06
-2.3644e-07
-2.50002e-06
-3.03271e-07
-2.48596e-06
-3.73129e-07
-2.47059e-06
-4.46369e-07
-2.45372e-06
-5.23323e-07
-2.43505e-06
-6.04237e-07
-2.41407e-06
-6.89231e-07
-2.39006e-06
-7.78234e-07
-2.36191e-06
-8.7091e-07
-2.32845e-06
-9.66723e-07
-2.28792e-06
-1.06447e-06
-2.23882e-06
-1.16214e-06
-2.17848e-06
-1.25782e-06
-2.1033e-06
-1.34789e-06
-2.00927e-06
-1.42733e-06
-1.89426e-06
-1.48972e-06
-1.75818e-06
-1.52784e-06
-1.60085e-06
-1.53649e-06
-1.42445e-06
-1.50872e-06
-1.23348e-06
-1.43996e-06
-1.03469e-06
-1.32839e-06
-8.37318e-07
-1.17598e-06
-6.50985e-07
-9.90155e-07
-4.83048e-07
-7.819e-07
-3.38856e-07
-5.6303e-07
-2.22099e-07
-3.45827e-07
-1.33907e-07
-1.43174e-07
-7.27458e-08
3.28243e-08
-3.4569e-08
1.7144e-07
-1.30909e-08
2.59487e-07
-3.14804e-09
2.79734e-07
1.61149e-07
-8.99494e-09
-1.22054e-07
-4.03531e-08
-1.15348e-07
-8.26148e-08
-4.97758e-08
-1.31908e-07
2.12127e-08
-1.87902e-07
9.3666e-08
-2.51339e-07
1.68014e-07
-3.23263e-07
2.44917e-07
-4.04663e-07
3.24798e-07
-4.96229e-07
4.07758e-07
-5.98182e-07
4.93555e-07
-7.10152e-07
5.8156e-07
-8.31195e-07
6.70761e-07
-9.59563e-07
7.59495e-07
-1.09262e-06
8.45313e-07
-1.22691e-06
9.2503e-07
-1.35842e-06
9.95044e-07
-1.48376e-06
1.0526e-06
-1.60061e-06
1.09603e-06
-1.70772e-06
1.12483e-06
-1.80482e-06
1.1397e-06
-1.89221e-06
1.14197e-06
-1.97065e-06
1.13329e-06
-2.04089e-06
1.11531e-06
-2.10371e-06
1.08951e-06
-2.15975e-06
1.05721e-06
-2.20958e-06
1.01952e-06
-2.25368e-06
9.77431e-07
-2.29247e-06
9.31781e-07
-2.3263e-06
8.83294e-07
-2.35552e-06
8.32595e-07
-2.38045e-06
7.80216e-07
-2.40141e-06
7.26611e-07
-2.41869e-06
6.72147e-07
-2.43257e-06
6.17108e-07
-2.44332e-06
5.61715e-07
-2.45121e-06
5.06133e-07
-2.45652e-06
4.50485e-07
-2.45947e-06
3.94827e-07
-2.4603e-06
3.39165e-07
-2.45922e-06
2.83464e-07
-2.45641e-06
2.27637e-07
-2.45208e-06
1.71549e-07
-2.44638e-06
1.15037e-07
-2.4395e-06
5.79029e-08
-2.43155e-06
-2.06437e-10
-2.42278e-06
-5.92796e-08
-2.41328e-06
-1.19909e-07
-2.40323e-06
-1.82326e-07
-2.39277e-06
-2.46901e-07
-2.38202e-06
-3.14023e-07
-2.37105e-06
-3.84095e-07
-2.3599e-06
-4.57523e-07
-2.34852e-06
-5.34705e-07
-2.33677e-06
-6.15987e-07
-2.32436e-06
-7.01636e-07
-2.31081e-06
-7.91785e-07
-2.29533e-06
-8.86389e-07
-2.27691e-06
-9.8514e-07
-2.25412e-06
-1.08726e-06
-2.22482e-06
-1.19145e-06
-2.18679e-06
-1.29584e-06
-2.13746e-06
-1.39723e-06
-2.07273e-06
-1.49206e-06
-1.9878e-06
-1.57465e-06
-1.87857e-06
-1.63708e-06
-1.74392e-06
-1.67114e-06
-1.5836e-06
-1.66903e-06
-1.40039e-06
-1.62318e-06
-1.19989e-06
-1.52888e-06
-9.90747e-07
-1.38512e-06
-7.84558e-07
-1.19634e-06
-5.92847e-07
-9.73612e-07
-4.23797e-07
-7.32079e-07
-2.82864e-07
-4.8676e-07
-1.73206e-07
-2.52832e-07
-9.45861e-08
-4.57954e-08
-4.36116e-08
1.20465e-07
-1.46075e-08
2.30483e-07
-1.45973e-09
2.66587e-07
1.59689e-07
-1.84774e-08
-1.03576e-07
-6.12855e-08
-7.25398e-08
-1.14104e-07
3.04248e-09
-1.73368e-07
8.04764e-08
-2.39108e-07
1.59407e-07
-3.12172e-07
2.41077e-07
-3.93568e-07
3.26313e-07
-4.84096e-07
4.15326e-07
-5.84114e-07
5.07776e-07
-6.93399e-07
6.0284e-07
-8.11166e-07
6.99327e-07
-9.35823e-07
7.95418e-07
-1.0649e-06
8.8857e-07
-1.19512e-06
9.75537e-07
-1.32266e-06
1.05257e-06
-1.44427e-06
1.11665e-06
-1.55767e-06
1.16601e-06
-1.66149e-06
1.19985e-06
-1.75531e-06
1.21865e-06
-1.83945e-06
1.22383e-06
-1.91457e-06
1.21709e-06
-1.98145e-06
1.20017e-06
-2.04082e-06
1.17468e-06
-2.09333e-06
1.14202e-06
-2.13952e-06
1.1034e-06
-2.17988e-06
1.05988e-06
-2.21484e-06
1.01239e-06
-2.24479e-06
9.61738e-07
-2.27012e-06
9.08625e-07
-2.2912e-06
8.5367e-07
-2.30838e-06
7.97396e-07
-2.322e-06
7.40235e-07
-2.33239e-06
6.82538e-07
-2.33986e-06
6.24574e-07
-2.3447e-06
5.66555e-07
-2.34719e-06
5.08628e-07
-2.3476e-06
4.50887e-07
-2.34613e-06
3.93366e-07
-2.34302e-06
3.3605e-07
-2.33844e-06
2.78886e-07
-2.33258e-06
2.21772e-07
-2.3256e-06
1.64571e-07
-2.31767e-06
1.07112e-07
-2.30896e-06
4.9187e-08
-2.29971e-06
-9.45467e-09
-2.28997e-06
-6.90233e-08
-2.28e-06
-1.29877e-07
-2.26999e-06
-1.92339e-07
-2.26011e-06
-2.56773e-07
-2.25056e-06
-3.23573e-07
-2.2415e-06
-3.9316e-07
-2.23305e-06
-4.65975e-07
-2.22529e-06
-5.42463e-07
-2.21822e-06
-6.23052e-07
-2.21174e-06
-7.08122e-07
-2.20555e-06
-7.97969e-07
-2.19918e-06
-8.92758e-07
-2.19189e-06
-9.92435e-07
-2.18254e-06
-1.09662e-06
-2.16949e-06
-1.20449e-06
-2.15068e-06
-1.31465e-06
-2.12315e-06
-1.42476e-06
-2.0836e-06
-1.5316e-06
-2.02804e-06
-1.63022e-06
-1.95029e-06
-1.71482e-06
-1.84559e-06
-1.77584e-06
-1.71086e-06
-1.80376e-06
-1.5458e-06
-1.78824e-06
-1.35395e-06
-1.72073e-06
-1.14257e-06
-1.5965e-06
-9.22791e-07
-1.41612e-06
-7.08949e-07
-1.18745e-06
-5.14425e-07
-9.26603e-07
-3.47817e-07
-6.53368e-07
-2.14448e-07
-3.86202e-07
-1.1617e-07
-1.44073e-07
-5.08315e-08
5.51266e-08
-1.38886e-08
1.9354e-07
1.38949e-09
2.51308e-07
1.61079e-07
-2.80033e-08
-7.55728e-08
-8.15547e-08
-1.89885e-08
-1.44074e-07
6.55613e-08
-2.12589e-07
1.48992e-07
-2.87219e-07
2.34037e-07
-3.68865e-07
3.22723e-07
-4.58424e-07
4.15872e-07
-5.5644e-07
5.13342e-07
-6.62899e-07
6.14235e-07
-7.77227e-07
7.17168e-07
-8.98045e-07
8.20145e-07
-1.02309e-06
9.20458e-07
-1.14937e-06
1.01486e-06
-1.27331e-06
1.09947e-06
-1.39173e-06
1.17099e-06
-1.50234e-06
1.22727e-06
-1.60359e-06
1.26726e-06
-1.69489e-06
1.29115e-06
-1.77647e-06
1.30022e-06
-1.84893e-06
1.2963e-06
-1.91303e-06
1.28119e-06
-1.96949e-06
1.25663e-06
-2.01893e-06
1.22413e-06
-2.06193e-06
1.18501e-06
-2.09897e-06
1.14044e-06
-2.13052e-06
1.09143e-06
-2.15701e-06
1.03888e-06
-2.17886e-06
9.83594e-07
-2.19651e-06
9.26272e-07
-2.21036e-06
8.67517e-07
-2.22079e-06
8.07825e-07
-2.22816e-06
7.4761e-07
-2.23282e-06
6.87198e-07
-2.23508e-06
6.26835e-07
-2.23523e-06
5.66704e-07
-2.23353e-06
5.06923e-07
-2.23019e-06
4.47551e-07
-2.22542e-06
3.88596e-07
-2.21939e-06
3.30023e-07
-2.21227e-06
2.7176e-07
-2.2042e-06
2.13698e-07
-2.19532e-06
1.55696e-07
-2.18579e-06
9.75832e-08
-2.17577e-06
3.91601e-08
-2.16542e-06
-1.97963e-08
-2.15491e-06
-7.95353e-08
-2.14444e-06
-1.40353e-07
-2.13421e-06
-2.02567e-07
-2.12445e-06
-2.66534e-07
-2.11538e-06
-3.32639e-07
-2.10723e-06
-4.01307e-07
-2.10022e-06
-4.7299e-07
-2.09452e-06
-5.48165e-07
-2.09025e-06
-6.27315e-07
-2.08747e-06
-7.1091e-07
-2.08606e-06
-7.99375e-07
-2.08577e-06
-8.93047e-07
-2.0861e-06
-9.92105e-07
-2.08623e-06
-1.09649e-06
-2.08494e-06
-1.20578e-06
-2.08051e-06
-1.31907e-06
-2.07053e-06
-1.43474e-06
-2.05192e-06
-1.55021e-06
-2.02054e-06
-1.6616e-06
-1.97181e-06
-1.76356e-06
-1.89919e-06
-1.84846e-06
-1.79651e-06
-1.90645e-06
-1.65931e-06
-1.92544e-06
-1.48716e-06
-1.89287e-06
-1.28474e-06
-1.79893e-06
-1.06155e-06
-1.63932e-06
-8.31951e-07
-1.41705e-06
-6.13323e-07
-1.14523e-06
-4.20352e-07
-8.46338e-07
-2.61687e-07
-5.44867e-07
-1.41762e-07
-2.63997e-07
-6.03505e-08
-2.62854e-08
-1.416e-08
1.47349e-07
3.88784e-09
2.33261e-07
1.64966e-07
-3.71337e-08
-3.84391e-08
-1.00332e-07
4.421e-08
-1.71732e-07
1.36961e-07
-2.48508e-07
2.25768e-07
-3.30952e-07
3.1648e-07
-4.19915e-07
4.11687e-07
-5.16122e-07
5.12079e-07
-6.19826e-07
6.17046e-07
-7.30739e-07
7.25148e-07
-8.4777e-07
8.34198e-07
-9.68872e-07
9.41247e-07
-1.09141e-06
1.043e-06
-1.21209e-06
1.13554e-06
-1.32783e-06
1.21521e-06
-1.43624e-06
1.27939e-06
-1.53561e-06
1.32664e-06
-1.62514e-06
1.35679e-06
-1.70488e-06
1.37089e-06
-1.77539e-06
1.37073e-06
-1.83736e-06
1.35827e-06
-1.89152e-06
1.33534e-06
-1.93849e-06
1.3036e-06
-1.97886e-06
1.2645e-06
-2.01315e-06
1.2193e-06
-2.04185e-06
1.16914e-06
-2.06544e-06
1.11502e-06
-2.0844e-06
1.05784e-06
-2.09921e-06
9.984e-07
-2.11032e-06
9.37382e-07
-2.11816e-06
8.75355e-07
-2.12313e-06
8.12793e-07
-2.12559e-06
7.50075e-07
-2.12588e-06
6.87489e-07
-2.12429e-06
6.25245e-07
-2.12107e-06
5.63485e-07
-2.11644e-06
5.02289e-07
-2.11057e-06
4.41684e-07
-2.10362e-06
3.81649e-07
-2.09573e-06
3.2213e-07
-2.08701e-06
2.63039e-07
-2.07757e-06
2.04262e-07
-2.06753e-06
1.45657e-07
-2.05701e-06
8.70614e-08
-2.04614e-06
2.82872e-08
-2.03506e-06
-3.08735e-08
-2.02394e-06
-9.06548e-08
-2.01297e-06
-1.51324e-07
-2.00236e-06
-2.13174e-07
-1.99236e-06
-2.76538e-07
-1.98322e-06
-3.41781e-07
-1.97521e-06
-4.09314e-07
-1.96861e-06
-4.79586e-07
-1.9637e-06
-5.53085e-07
-1.96068e-06
-6.30327e-07
-1.95975e-06
-7.11845e-07
-1.96096e-06
-7.98164e-07
-1.96424e-06
-8.89763e-07
-1.96933e-06
-9.87022e-07
-1.97566e-06
-1.09015e-06
-1.98236e-06
-1.19908e-06
-1.98808e-06
-1.31335e-06
-1.9909e-06
-1.43192e-06
-1.98816e-06
-1.55295e-06
-1.9763e-06
-1.67346e-06
-1.9509e-06
-1.78896e-06
-1.90637e-06
-1.89299e-06
-1.83591e-06
-1.97691e-06
-1.73216e-06
-2.02919e-06
-1.5895e-06
-2.03553e-06
-1.40758e-06
-1.98084e-06
-1.19281e-06
-1.85409e-06
-9.57705e-07
-1.65215e-06
-7.20781e-07
-1.38216e-06
-5.02399e-07
-1.06472e-06
-3.17466e-07
-7.298e-07
-1.74063e-07
-4.074e-07
-7.47483e-08
-1.25601e-07
-1.74413e-08
9.00424e-08
5.07972e-09
2.1074e-07
1.70046e-07
-4.54226e-08
6.98355e-09
-1.17177e-07
1.15964e-07
-1.96328e-07
2.16112e-07
-2.80254e-07
3.09694e-07
-3.69279e-07
4.05506e-07
-4.64151e-07
5.06559e-07
-5.6539e-07
6.13318e-07
-6.73061e-07
7.24716e-07
-7.86432e-07
8.38519e-07
-9.0373e-07
9.51497e-07
-1.02268e-06
1.06019e-06
-1.1404e-06
1.16072e-06
-1.25387e-06
1.24901e-06
-1.3606e-06
1.32194e-06
-1.45873e-06
1.37753e-06
-1.54722e-06
1.41513e-06
-1.62589e-06
1.43546e-06
-1.69516e-06
1.44016e-06
-1.75572e-06
1.43128e-06
-1.80825e-06
1.4108e-06
-1.85342e-06
1.38051e-06
-1.89182e-06
1.34201e-06
-1.92401e-06
1.29668e-06
-1.95051e-06
1.24581e-06
-1.97186e-06
1.19049e-06
-1.98858e-06
1.13174e-06
-2.0012e-06
1.07046e-06
-2.01022e-06
1.00742e-06
-2.01612e-06
9.4328e-07
-2.01933e-06
8.7856e-07
-2.02023e-06
8.13698e-07
-2.01918e-06
7.49025e-07
-2.01648e-06
6.84781e-07
-2.01236e-06
6.21126e-07
-2.00703e-06
5.58158e-07
-2.00066e-06
4.95916e-07
-1.99337e-06
4.34396e-07
-1.98527e-06
3.73549e-07
-1.97644e-06
3.13302e-07
-1.96696e-06
2.53559e-07
-1.9569e-06
1.94201e-07
-1.94633e-06
1.3509e-07
-1.93534e-06
7.60736e-08
-1.92404e-06
1.6982e-08
-1.91254e-06
-4.23758e-08
-1.90099e-06
-1.02205e-07
-1.88957e-06
-1.62743e-07
-1.87849e-06
-2.2425e-07
-1.868e-06
-2.87025e-07
-1.85838e-06
-3.51403e-07
-1.84993e-06
-4.17765e-07
-1.84298e-06
-4.86541e-07
-1.83785e-06
-5.58212e-07
-1.83487e-06
-6.33308e-07
-1.83432e-06
-7.12399e-07
-1.8364e-06
-7.96082e-07
-1.84121e-06
-8.8495e-07