# vtk DataFile Version 2.0
tracks
ASCII
DATASET POLYDATA
POINTS 12025 float
-0.0206 0.000999967 1e-05 -0.02058 0.00099997 1e-05 -0.02056 0.000999974 1e-05 -0.02054 0.00099998
1e-05 -0.02052 0.000999989 1e-05 -0.0205 0.001 1e-05 -0.0202034 0.00100016 1e-05
-0.0199069 0.00100062 1e-05 -0.0196103 0.00100135 1e-05 -0.0193137 0.00100237 1e-05 -0.0190172
0.00100368 1e-05 -0.0187132 0.00100525 1e-05 -0.0184093 0.00100694 1e-05 -0.0181054 0.00100874
1e-05 -0.0178015 0.00101063 1e-05 -0.0174976 0.00101262 1e-05 -0.0172058 0.00101461 1e-05
-0.016914 0.00101664 1e-05 -0.0166222 0.0010187 1e-05 -0.0163305 0.00102081 1e-05 -0.0160387
0.00102295 1e-05 -0.0159348 0.00102372 1e-05 -0.015831 0.0010245 1e-05 -0.0157272 0.00102528
1e-05 -0.0156233 0.00102607 1e-05 -0.0155245 0.00102682 1e-05 -0.0153472 0.00102817 1e-05
-0.0151699 0.00102953 1e-05 -0.0149926 0.00103091 1e-05 -0.0148154 0.0010323 1e-05 -0.0146381
0.00103369 1e-05 -0.0143692 0.00103583 1e-05 -0.0141002 0.00103797 1e-05 -0.0138313 0.00104012
1e-05 -0.0135624 0.00104227 1e-05 -0.0132934 0.00104442 1e-05 -0.0130353 0.00104649 1e-05
-0.0127771 0.00104855 1e-05 -0.0125189 0.00105058 1e-05 -0.0122607 0.00105259 1e-05 -0.0120025
0.00105459 1e-05 -0.0117547 0.00105649 1e-05 -0.0115068 0.00105836 1e-05 -0.0112589 0.00106022
1e-05 -0.0110111 0.00106205 1e-05 -0.0107632 0.00106387 1e-05 -0.0105252 0.0010656 1e-05
-0.0102873 0.00106731 1e-05 -0.0100493 0.00106902 1e-05 -0.00981133 0.00107071 1e-05 -0.00957337
0.0010724 1e-05 -0.00934491 0.00107403 1e-05 -0.00911645 0.00107564 1e-05 -0.00888799 0.00107725
1e-05 -0.00865954 0.00107886 1e-05 -0.00843108 0.00108047 1e-05 -0.00821175 0.00108203 1e-05
-0.00799242 0.00108356 1e-05 -0.00777309 0.00108508 1e-05 -0.00755376 0.0010866 1e-05 -0.00733443
0.0010881 1e-05 -0.00712387 0.00108955 1e-05 -0.0069133 0.00109096 1e-05 -0.00670273 0.00109235
1e-05 -0.00649216 0.00109373 1e-05 -0.0062816 0.00109508 1e-05 -0.00607944 0.00109637 1e-05
-0.00587729 0.00109763 1e-05 -0.00567514 0.00109886 1e-05 -0.00547298 0.00110007 1e-05 -0.00527083
0.00110126 1e-05 -0.00507675 0.0011024 1e-05 -0.00488267 0.00110351 1e-05 -0.0046886 0.0011046
1e-05 -0.00449452 0.00110567 1e-05 -0.00430044 0.00110672 1e-05 -0.00411412 0.00110775 1e-05
-0.0039278 0.00110873 1e-05 -0.00374147 0.0011097 1e-05 -0.00355515 0.00111066 1e-05 -0.00336883
0.00111161 1e-05 -0.00318995 0.00111253 1e-05 -0.00301107 0.00111341 1e-05 -0.00283219 0.00111428
1e-05 -0.00265331 0.00111514 1e-05 -0.00247443 0.00111598 1e-05 -0.0023027 0.00111679 1e-05
-0.00213097 0.00111757 1e-05 -0.00195924 0.00111834 1e-05 -0.0017875 0.00111909 1e-05 -0.00161577
0.00111982 1e-05 -0.0014509 0.00112053 1e-05 -0.00128603 0.00112121 1e-05 -0.00112116 0.00112187
1e-05 -0.000956289 0.00112251 1e-05 -0.000791418 0.00112314 1e-05 -0.000633135 0.00112373 1e-05
-0.000474851 0.00112429 1e-05 -0.000316567 0.00112484 1e-05 -0.000158283 0.00112536 1e-05 0
0.00112586 1e-05 0.000105677 0.0011262 1e-05 0.000211355 0.00112652 1e-05 0.000317032 0.00112683
1e-05 0.00042271 0.00112714 1e-05 0.000528387 0.00112745 1e-05 0.000634886 0.00112775 1e-05
0.000741385 0.00112805 1e-05 0.000847885 0.00112835 1e-05 0.000954384 0.00112865 1e-05 0.00106088
0.00112895 1e-05 0.00116821 0.00112925 1e-05 0.00127554 0.00112954 1e-05 0.00138286 0.00112984
1e-05 0.00149019 0.00113012 1e-05 0.00159752 0.00113041 1e-05 0.00170568 0.00113069 1e-05
0.00181384 0.00113097 1e-05 0.001922 0.00113124 1e-05 0.00203016 0.00113151 1e-05 0.00213833
0.00113176 1e-05 0.00224733 0.00113202 1e-05 0.00235633 0.00113227 1e-05 0.00246533 0.00113252
1e-05 0.00257434 0.00113276 1e-05 0.00268334 0.00113299 1e-05 0.00279319 0.00113322 1e-05
0.00290304 0.00113344 1e-05 0.00301289 0.00113367 1e-05 0.00312274 0.00113388 1e-05 0.00323259
0.00113409 1e-05 0.00334329 0.0011343 1e-05 0.003454 0.00113451 1e-05 0.0035647 0.00113471
1e-05 0.0036754 0.0011349 1e-05 0.00378611 0.00113509 1e-05 0.00389767 0.00113528 1e-05
0.00400924 0.00113546 1e-05 0.0041208 0.00113564 1e-05 0.00423237 0.00113582 1e-05 0.00434393
0.00113599 1e-05 0.00445636 0.00113615 1e-05 0.00456879 0.00113631 1e-05 0.00468123 0.00113646
1e-05 0.00479366 0.00113661 1e-05 0.00490609 0.00113676 1e-05 0.0050194 0.0011369 1e-05
0.0051327 0.00113703 1e-05 0.00524601 0.00113716 1e-05 0.00535931 0.00113728 1e-05 0.00547262
0.0011374 1e-05 0.00558681 0.00113751 1e-05 0.005701 0.00113761 1e-05 0.00581518 0.00113771
1e-05 0.00592937 0.00113781 1e-05 0.00604356 0.00113789 1e-05 0.00615863 0.00113797 1e-05
0.00627371 0.00113805 1e-05 0.00638878 0.00113812 1e-05 0.00650386 0.00113818 1e-05 0.00661893
0.00113823 1e-05 0.0067349 0.00113828 1e-05 0.00685087 0.00113833 1e-05 0.00696684 0.00113836
1e-05 0.00708281 0.00113839 1e-05 0.00719878 0.00113842 1e-05 0.00731565 0.00113843 1e-05
0.00743252 0.00113844 1e-05 0.00754939 0.00113844 1e-05 0.00766626 0.00113844 1e-05 0.00778313
0.00113843 1e-05 0.00790091 0.00113841 1e-05 0.00801869 0.00113838 1e-05 0.00813647 0.00113835
1e-05 0.00825425 0.00113832 1e-05 0.00837203 0.00113827 1e-05 0.00849073 0.00113821 1e-05
0.00860942 0.00113815 1e-05 0.00872812 0.00113809 1e-05 0.00884682 0.00113801 1e-05 0.00896551
0.00113793 1e-05 0.00908513 0.00113784 1e-05 0.00920475 0.00113774 1e-05 0.00932437 0.00113764
1e-05 0.00944398 0.00113753 1e-05 0.0095636 0.00113741 1e-05 0.00958019 0.00113739 1e-05
0.00959678 0.00113738 1e-05 0.00961336 0.00113736 1e-05 0.00962995 0.00113734 1e-05 0.00964645
0.00113732 1e-05 0.00975043 0.00113721 1e-05 0.00985441 0.00113709 1e-05 0.00995839 0.00113697
1e-05 0.0100624 0.00113684 1e-05 0.0101663 0.0011367 1e-05 0.0102878 0.00113654 1e-05
0.0104093 0.00113637 1e-05 0.0105308 0.00113619 1e-05 0.0106523 0.001136 1e-05 0.0107738
0.00113581 1e-05 0.0108962 0.0011356 1e-05 0.0110186 0.00113539 1e-05 0.0111411 0.00113518
1e-05 0.0112635 0.00113496 1e-05 0.0113859 0.00113473 1e-05 0.0115093 0.00113448 1e-05
0.0116327 0.00113423 1e-05 0.0117561 0.00113398 1e-05 0.0118795 0.00113372 1e-05 0.0120028
0.00113345 1e-05 0.0121272 0.00113316 1e-05 0.0122515 0.00113288 1e-05 0.0123759 0.00113259
1e-05 0.0125002 0.00113229 1e-05 0.0126245 0.00113199 1e-05 0.0127498 0.00113166 1e-05
0.0128752 0.00113134 1e-05 0.0130005 0.00113101 1e-05 0.0131258 0.00113067 1e-05 0.0132511
0.00113033 1e-05 0.0133774 0.00112997 1e-05 0.0135036 0.00112961 1e-05 0.0136299 0.00112924
1e-05 0.0137562 0.00112887 1e-05 0.0138825 0.00112849 1e-05 0.0140098 0.00112808 1e-05
0.014137 0.00112768 1e-05 0.0142643 0.00112727 1e-05 0.0143915 0.00112686 1e-05 0.0145188
0.00112644 1e-05 0.0146471 0.001126 1e-05 0.0147753 0.00112556 1e-05 0.0149036 0.00112511
1e-05 0.0150318 0.00112465 1e-05 0.0151601 0.00112419 1e-05 0.0152893 0.0011237 1e-05
0.0154186 0.00112322 1e-05 0.0155478 0.00112272 1e-05 0.0156771 0.00112222 1e-05 0.0158063
0.00112171 1e-05 0.0159366 0.00112119 1e-05 0.0160668 0.00112065 1e-05 0.0161971 0.00112011
1e-05 0.0163273 0.00111956 1e-05 0.0164576 0.001119 1e-05 0.0165889 0.00111843 1e-05
0.0167201 0.00111784 1e-05 0.0168514 0.00111725 1e-05 0.0169827 0.00111664 1e-05 0.0171139
0.00111603 1e-05 0.0172462 0.00111541 1e-05 0.0173785 0.00111477 1e-05 0.0175108 0.00111412
1e-05 0.0176431 0.00111346 1e-05 0.0177754 0.00111279 1e-05 0.0179087 0.00111212 1e-05
0.018042 0.00111142 1e-05 0.0181753 0.00111071 1e-05 0.0183087 0.00110999 1e-05 0.018442
0.00110927 1e-05 0.0185763 0.00110854 1e-05 0.0187107 0.00110778 1e-05 0.018845 0.00110701
1e-05 0.0189794 0.00110622 1e-05 0.0191137 0.00110543 1e-05 0.0192491 0.00110464 1e-05
0.0193845 0.00110382 1e-05 0.0195199 0.00110298 1e-05 0.0196553 0.00110212 1e-05 0.0197907
0.00110127 1e-05 0.0199272 0.00110042 1e-05 0.0200636 0.00109953 1e-05 0.0202001 0.00109861
1e-05 0.0203365 0.00109768 1e-05 0.020473 0.00109676 1e-05 0.0206105 0.00109584 1e-05
0.020748 0.00109488 1e-05 0.0208855 0.00109389 1e-05 0.021023 0.00109288 1e-05 0.0211606
0.00109189 1e-05 0.0212991 0.0010909 1e-05 0.0214377 0.00108987 1e-05 0.0215763 0.0010888
1e-05 0.0217149 0.00108772 1e-05 0.0218535 0.00108665 1e-05 0.0219931 0.0010856 1e-05
0.0221328 0.0010845 1e-05 0.0222724 0.00108335 1e-05 0.0224121 0.00108219 1e-05 0.0225517
0.00108106 1e-05 0.0226925 0.00107993 1e-05 0.0228332 0.00107876 1e-05 0.022974 0.00107754
1e-05 0.0231147 0.00107631 1e-05 0.0232555 0.00107511 1e-05 0.0233973 0.00107392 1e-05
0.0235391 0.00107268 1e-05 0.023681 0.00107139 1e-05 0.0238228 0.00107009 1e-05 0.0239647
0.00106882 1e-05 0.0241076 0.00106757 1e-05 0.0242505 0.00106626 1e-05 0.0243935 0.00106491
1e-05 0.0245364 0.00106355 1e-05 0.0246794 0.00106222 1e-05 0.0248234 0.00106091 1e-05
0.0249675 0.00105955 1e-05 0.0251115 0.00105813 1e-05 0.0252556 0.00105671 1e-05 0.0253996
0.00105533 1e-05 0.0255448 0.00105396 1e-05 0.02569 0.00105255 1e-05 0.0258351 0.00105109
1e-05 0.0259803 0.00104961 1e-05 0.0261255 0.00104818 1e-05 0.0262718 0.00104677 1e-05
0.0264181 0.00104531 1e-05 0.0265644 0.00104381 1e-05 0.0267107 0.0010423 1e-05 0.026857
0.00104082 1e-05 0.0270044 0.00103938 1e-05 0.0271519 0.00103788 1e-05 0.0272993 0.00103634
1e-05 0.0274468 0.00103481 1e-05 0.0275942 0.0010333 1e-05 0.0277428 0.00103182 1e-05
0.0278914 0.0010303 1e-05 0.0280399 0.00102874 1e-05 0.0281885 0.00102718 1e-05 0.0283371
0.00102565 1e-05 0.0284869 0.00102415 1e-05 0.0286366 0.0010226 1e-05 0.0287863 0.00102103
1e-05 0.0289361 0.00101946 1e-05 0.0290858 0.00101791 1e-05 0.0292367 0.00101639 1e-05
0.0293876 0.00101482 1e-05 0.0295385 0.00101325 1e-05 0.0296894 0.00101167 1e-05 0.0298403
0.00101011 1e-05 0.0299924 0.00100858 1e-05 0.0301445 0.001007 1e-05 0.0302966 0.00100542
1e-05 0.0304486 0.00100384 1e-05 0.0306007 0.00100227 1e-05 0.030754 0.00100073 1e-05
0.0309072 0.000999147 1e-05 0.0310605 0.000997565 1e-05 0.0312138 0.000995986 1e-05 0.031367
0.00099441 1e-05 0.0315215 0.000992864 1e-05 0.0316759 0.000991279 1e-05 0.0318304 0.000989696
1e-05 0.0319848 0.000988117 1e-05 0.0321393 0.00098654 1e-05 0.0322949 0.000984985 1e-05
0.0324506 0.000983398 1e-05 0.0326062 0.000981812 1e-05 0.0327619 0.000980228 1e-05 0.0329175
[...]
POINT_DATA 12025
FIELD attributes 4
age 1 12025 float
-9.99856e-06 -7.99865e-06 -5.99885e-06 -3.99914e-06 -1.99952e-06 0 2.96496e-05 5.92801e-05 8.88916e-05 0.000118484 0.000148058
0.000178335 0.000208594 0.000238831 0.000269044 0.000299236 0.000328191 0.000357133 0.000386055 0.000414957 0.00044384
0.000454111 0.000464381 0.000474648 0.000484913 0.000494683 0.000512199 0.000529708 0.000547211 0.000564706 0.000582194
0.000608713 0.000635219 0.000661711 0.000688187 0.000714649 0.000740035 0.000765415 0.000790784 0.000816141 0.000841486
0.000865801 0.000890117 0.000914424 0.000938723 0.000963014 0.000986316 0.00100962 0.00103293 0.00105622 0.00107951
0.00110185 0.0011242 0.00114654 0.00116888 0.00119121 0.00121263 0.00123406 0.00125549 0.00127691 0.00129832
0.00131886 0.00133941 0.00135996 0.0013805 0.00140104 0.00142074 0.00144045 0.00146016 0.00147987 0.00149958
0.00151848 0.00153739 0.0015563 0.00157521 0.00159412 0.00161226 0.00163041 0.00164856 0.0016667 0.00168485
0.00170226 0.00171967 0.00173709 0.0017545 0.00177192 0.00178863 0.00180534 0.00182206 0.00183877 0.00185548
0.00187153 0.00188757 0.00190361 0.00191965 0.00193569 0.0019511 0.0019665 0.00198189 0.00199729 0.0020127
0.00202298 0.00203327 0.00204355 0.00205383 0.00206412 0.00207449 0.00208486 0.00209522 0.00210559 0.00211596
0.00212642 0.00213687 0.00214732 0.00215777 0.00216822 0.00217876 0.00218929 0.00219983 0.00221036 0.0022209
0.00223153 0.00224215 0.00225277 0.00226339 0.00227401 0.00228472 0.00229543 0.00230614 0.00231685 0.00232756
0.00233836 0.00234916 0.00235995 0.00237075 0.00238155 0.00239245 0.00240334 0.00241423 0.00242512 0.00243601
0.002447 0.00245799 0.00246897 0.00247996 0.00249095 0.00250204 0.00251312 0.0025242 0.00253529 0.00254638
0.00255757 0.00256875 0.00257994 0.00259113 0.00260232 0.00261362 0.0026249 0.0026362 0.0026475 0.0026588
0.0026702 0.0026816 0.00269301 0.00270442 0.00271583 0.00272735 0.00273886 0.00275039 0.00276191 0.00277345
0.00278509 0.00279672 0.00280836 0.00282001 0.00283167 0.00284344 0.0028552 0.00286697 0.00287875 0.00289054
0.00290243 0.00291433 0.00292624 0.00293815 0.00295008 0.00295173 0.00295339 0.00295504 0.0029567 0.00295835
0.00296873 0.00297912 0.00298951 0.00299992 0.00301033 0.00302252 0.0030347 0.0030469 0.00305911 0.00307134
0.00308369 0.00309604 0.00310839 0.00312076 0.00313314 0.00314568 0.00315819 0.00317071 0.00318324 0.00319579
0.00320851 0.00322119 0.00323388 0.00324659 0.00325931 0.00327222 0.00328508 0.00329795 0.00331085 0.00332375
0.00333685 0.0033499 0.00336296 0.00337604 0.00338914 0.00340244 0.00341568 0.00342894 0.00344221 0.00345551
0.00346901 0.00348245 0.00349592 0.0035094 0.0035229 0.00353661 0.00355026 0.00356393 0.00357762 0.00359133
0.00360526 0.00361913 0.00363302 0.00364693 0.00366086 0.00367501 0.00368911 0.00370322 0.00371735 0.00373152
0.00374588 0.00376022 0.00377455 0.00378891 0.00380331 0.00381791 0.00383247 0.00384704 0.00386163 0.00387627
0.0038911 0.0039059 0.00392071 0.00393554 0.00395042 0.00396548 0.00398052 0.00399557 0.00401065 0.00402577
0.00404106 0.00405635 0.00407165 0.00408697 0.00410234 0.00411788 0.00413342 0.00414896 0.00416453 0.00418015
0.00419593 0.00421172 0.00422752 0.00424335 0.00425922 0.00427525 0.00429129 0.00430736 0.00432344 0.00433957
0.00435585 0.00437215 0.00438847 0.00440482 0.0044212 0.00443774 0.0044543 0.00447089 0.0044875 0.00450414
0.00452093 0.00453776 0.00455461 0.00457149 0.0045884 0.00460545 0.00462254 0.00463966 0.00465681 0.00467398
0.0046913 0.00470866 0.00472605 0.00474347 0.0047609 0.00477849 0.00479612 0.00481379 0.00483147 0.00484918
0.00486703 0.00488493 0.00490287 0.00492082 0.0049388 0.00495693 0.0049751 0.0049933 0.00501153 0.00502978
0.00504818 0.00506662 0.00508509 0.00510359 0.00512211 0.00514078 0.0051595 0.00517824 0.00519701 0.00521579
0.00523474 0.00525372 0.00527274 0.00529177 0.00531083 0.00533004 0.0053493 0.00536858 0.00538788 0.0054072
0.00542668 0.00544621 0.00546575 0.00548532 0.0055049 0.00552466 0.00554444 0.00556425 0.00558408 0.00560393
0.00562394 0.00564399 0.00566406 0.00568415 0.00570426 0.00572454 0.00574485 0.00576517 0.00578552 0.00580589
0.00582643 0.00584699 0.00586758 0.00588818 0.0059088 0.0059296 0.00595043 0.00597127 0.00599213 0.006013
0.00602125 0.0060295 0.00603775 0.006046 0.00605415 0.00606701 0.00607987 0.00609274 0.00610562 0.0061185
0.00613982 0.00616115 0.0061825 0.00620388 0.00622527 0.00624683 0.00626843 0.00629003 0.00631166 0.00633331
0.00635513 0.00637698 0.00639885 0.00642074 0.00644264 0.00646472 0.00648683 0.00650896 0.0065311 0.00655327
0.00657561 0.00659797 0.00662036 0.00664277 0.00666519 0.00668779 0.00671043 0.00673308 0.00675575 0.00677844
0.0068013 0.0068242 0.00684711 0.00687005 0.006893 0.00691613 0.0069393 0.00696248 0.00698569 0.00700891
0.00703231 0.00705574 0.00707919 0.00710267 0.00712616 0.00714983 0.00717353 0.00719727 0.00722102 0.00724478
0.00726872 0.0072927 0.00731671 0.00734074 0.00736477 0.007389 0.00741325 0.00743754 0.00746185 0.00748616
0.00751066 0.00753519 0.00755976 0.00758434 0.00760893 0.00763371 0.00765853 0.00768337 0.00770824 0.00773311
0.00775817 0.00778326 0.00780839 0.00783354 0.00785869 0.00788403 0.00790941 0.00793482 0.00796025 0.00798567
0.0080113 0.00803696 0.00806266 0.00808836 0.00811407 0.00813999 0.00816593 0.0081919 0.00821789 0.00824388
0.00827008 0.00829631 0.00832256 0.00834883 0.0083751 0.00840158 0.00842809 0.00845463 0.00848118 0.00850773
0.0085345 0.00856129 0.00858811 0.00861494 0.00864178 0.00866883 0.00869591 0.00872301 0.00875012 0.00877725
0.00880459 0.00883196 0.00885934 0.00888674 0.00891415 0.00894178 0.00896944 0.00899711 0.0090248 0.0090525
0.00908042 0.00910837 0.00913633 0.00916431 0.00919231 0.00922053 0.00924877 0.00927703 0.00930531 0.0093336
0.00934668 0.00935977 0.00937286 0.00938596 0.00939845 0.00941404 0.00942963 0.00944523 0.00946083 0.00947644
0.00950527 0.00953413 0.009563 0.0095919 0.00962081 0.00964996 0.00967914 0.00970833 0.00973755 0.00976679
0.00979626 0.00982577 0.00985529 0.00988484 0.00991441 0.00994422 0.00997406 0.0100039 0.0100338 0.0100637
0.0100939 0.0101241 0.0101543 0.0101845 0.0102148 0.0102453 0.0102758 0.0103064 0.010337 0.0103677
0.0103985 0.0104295 0.0104604 0.0104914 0.0105224 0.0105537 0.010585 0.0106163 0.0106477 0.0106791
0.0107107 0.0107424 0.0107742 0.0108059 0.0108377 0.0108698 0.0109019 0.010934 0.0109662 0.0109984
0.0110309 0.0110634 0.011096 0.0111286 0.0111613 0.0111942 0.0112271 0.0112602 0.0112932 0.0113263
0.0113596 0.0113931 0.0114265 0.01146 0.0114936 0.0115274 0.0115613 0.0115952 0.0116291 0.0116631
0.0116631 0.0116632 0.0116632 0.0116632 0.0116632 0.0116975 0.0117318 0.0117662 0.0118006 0.0118351
0.0118699 0.0119048 0.0119397 0.0119746 0.0120096 0.0120449 0.0120803 0.0121157 0.0121511 0.0121867
0.0122225 0.0122584 0.0122943 0.0123303 0.0123664 0.0124027 0.0124392 0.0124756 0.0125122 0.0125488
0.0125857 0.0126227 0.0126597 0.0126968 0.012734 0.0127714 0.012809 0.0128466 0.0128842 0.012922
0.01296 0.0129981 0.0130363 0.0130745 0.0131128 0.0131515 0.0131902 0.013229 0.0132678 0.0133067
0.0133297 0.0133528 0.0133759 0.013399 0.0134216 0.013438 0.0134544 0.0134708 0.0134872 0.0135036
0.0135435 0.0135834 0.0136233 0.0136634 0.0137035 0.0137439 0.0137845 0.013825 0.0138657 0.0139064
0.0139475 0.0139887 0.0140299 0.0140711 0.0141125 0.0141542 0.014196 0.0142379 0.0142798 0.0143218
0.0143642 0.0144066 0.0144491 0.0144917 0.0145343 0.0145774 0.0146205 0.0146637 0.0147069 0.0147502
0.014794 0.0148377 0.0148816 0.0149255 0.0149695 0.0150139 0.0150584 0.015103 0.0151476 0.0151923
0.0151983 0.0152043 0.0152104 0.0152164 0.0152224 0.0152615 0.0153007 0.01534 0.0153793 0.0154186
0.0154644 0.0155103 0.0155563 0.0156023 0.0156485 0.015695 0.0157416 0.0157883 0.0158351 0.0158819
0.0159292 0.0159766 0.016024 0.0160715 0.0161191 0.0161671 0.0162152 0.0162634 0.0163117 0.0163601
0.0164089 0.0164578 0.0165067 0.0165558 0.0166049 0.0166546 0.0167043 0.016754 0.0168039 0.0168538
0.0169043 0.0169548 0.0170054 0.0170561 0.0171069 0.0171084 0.0171098 0.0171113 0.0171128 0.0171143
0.0171641 0.017214 0.017264 0.017314 0.0173642 0.0174163 0.0174686 0.0175209 0.0175733 0.0176258
0.0176789 0.017732 0.0177852 0.0178386 0.017892 0.017946 0.0180001 0.0180542 0.0181085 0.0181629
0.0182179 0.0182729 0.0183281 0.0183833 0.0184387 0.0184947 0.0185507 0.0186069 0.0186632 0.0187196
0.0187766 0.0188338 0.018891 0.0189484 0.0190059 0.0190197 0.0190335 0.0190473 0.0190611 0.0190748
0.0191192 0.0191638 0.0192084 0.0192531 0.0192978 0.0193571 0.0194164 0.0194759 0.0195356 0.0195954
0.0196558 0.0197164 0.0197771 0.0198379 0.0198989 0.0199606 0.0200224 0.0200844 0.0201465 0.0202088
0.0202717 0.0203349 0.0203981 0.0204616 0.0205252 0.0205895 0.020654 0.0207187 0.0207835 0.0208486
0.0208923 0.020936 0.0209798 0.0210237 0.0210663 0.0210889 0.0211115 0.0211341 0.0211568 0.0211795
0.0212467 0.0213142 0.0213818 0.0214496 0.0215177 0.0215865 0.0216555 0.0217247 0.0217941 0.0218638
0.0219343 0.0220049 0.0220758 0.0221469 0.0222183 0.0222905 0.0223629 0.0224355 0.0225084 0.0225816
0.0226556 0.0227298 0.0228043 0.022879 0.0229541 0.0229784 0.0230027 0.023027 0.0230513 0.0230753
0.0231273 0.0231795 0.0232317 0.0232841 0.0233367 0.0234146 0.0234927 0.0235712 0.02365 0.0237291
0.0238091 0.0238894 0.02397 0.0240509 0.0241322 0.0242144 0.024297 0.0243798 0.024463 0.0245466
0.0246312 0.0247161 0.0248014 0.024887 0.024973 0.0250011 0.0250293 0.0250575 0.0250857 0.0251135
0.0251729 0.0252325 0.0252923 0.0253523 0.0254124 0.0255021 0.0255921 0.0256825 0.0257733 0.0258646
0.025957 0.0260497 0.0261429 0.0262366 0.0263307 0.0264259 0.0265216 0.0266177 0.0267143 0.0268114
0.02689 0.0269689 0.027048 0.0271275 0.027204 0.0272248 0.0272456 0.0272665 0.0272873 0.0273082
0.0274097 0.0275117 0.0276142 0.0277173 0.0278209 0.0279257 0.0280311 0.0281371 0.0282436 0.0283506
0.028459 0.028568 0.0286776 0.0287877 0.0288985 0.0289931 0.0290882 0.0291838 0.0292797 0.0293723
0.029391 0.0294097 0.0294284 0.0294471 0.0294658 0.0295819 0.0296986 0.029816 0.0299339 0.0300526
0.0301727 0.0302935 0.0304151 0.0305372 0.0306601 0.0307845 0.0309096 0.0310354 0.0311619 0.0312892
0.03136 0.031431 0.0315023 0.0315737 0.0316438 0.0317031 0.0317625 0.0318221 0.0318818 0.0319417
0.0320752 0.0322094 0.0323443 0.03248 0.0326165 0.0327545 0.0328934 0.0330332 0.0331736 0.0333149
0.0334578 0.0336016 0.0337461 0.0338914 0.0340375 0.0340387 0.0340398 0.0340409 0.034042 0.0340432
0.03419 0.0343376 0.034486 0.0346351 0.034785 0.0349378 0.0350914 0.0352459 0.0354011 0.0355571
0.0357149 0.0358736 0.0360331 0.0361933 0.0363544 0.0364016 0.0364489 0.0364963 0.0365438 0.0365911
0.0367077 0.0368247 0.0369421 0.0370599 0.0371781 0.0373462 0.0375151 0.037685 0.0378556 0.0380269
0.0382002 0.0383745 0.0385495 0.0387253 0.0389019 0.038969 0.0390363 0.0391036 0.0391711 0.0392385
0.039351 0.0394638 0.0395769 0.0396903 0.039804 0.0399878 0.0401725 0.040358 0.0405443 0.0407312
0.0409202 0.0411101 0.0413007 0.0414921 0.0416841 0.0417561 0.0418283 0.0419006 0.0419729 0.0420456
0.0421686 0.0422918 0.0424152 0.042539 0.0426629 0.042862 0.0430619 0.0432624 0.0434637 0.0436654
0.0438692 0.0440737 0.044279 0.0444848 0.044691 0.0447628 0.0448348 0.0449067 0.0449788 0.0450517
0.0451888 0.0453261 0.0454636 0.0456013 0.0457391 0.0459517 0.0461648 0.0463785 0.0465926 0.0468069
0.0470232 0.04724 0.0474574 0.047675 0.0478926 0.0479811 0.0480696 0.0481581 0.0482467 0.0483381
0.0484691 0.0486003 0.0487315 0.0488628 0.0489941 0.0492167 0.0494397 0.049663 0.0498864 0.0501091
0.0503246 0.0505404 0.0507566 0.0509726 0.0511883 0.0512193 0.0512504 0.0512815 0.0513126 0.051344
0.0515367 0.0517293 0.0519217 0.052114 0.0523056 0.0525368 0.0527679 0.0529988 0.0532293 0.0534589
0.0535379 0.0536169 0.0536958 0.0537746 0.0538564 0.0540144 0.0541722 0.0543298 0.0544871 0.0546438
0.054888 0.0551316 0.0553744 0.0556164 0.0558569 0.0559903 0.0561234 0.0562562 0.0563887 0.0565323
0.0566442 0.0567559 0.0568674 0.0569786 0.0570895 0.057342 0.0575933 0.0578433 0.0580919 0.0583384
0.0585555 0.0587716 0.0589864 0.0592 0.0594507 0.0594794 0.0595082 0.0595369 0.0595655 0.0595942
0.0598498 0.0601034 0.0603552 0.060605 0.0608524 0.0611075 0.0613604 0.0616113 0.0618599 0.0621061
0.0622299 0.0623531 0.0624758 0.0625979 0.0627353 0.0628588 0.0629817 0.063104 0.0632257 0.0633468
0.0635977 0.0638461 0.0640921 0.0643355 0.0645763 0.0648239 0.0650689 0.0653113 0.0655511 0.0657882
0.0659459 0.0661025 0.0662579 0.0664122 0.0665969 0.0666734 0.0667497 0.0668256 0.0669013 0.0669768
0.0672161 0.0674526 0.0676864 0.0679175 0.0681461 0.0683808 0.0686126 0.0688418 0.0690682 0.0692921
0.0695219 0.069749 0.0699732 0.0701948 0.0704139 0.0706182 0.0708202 0.07102 0.0712175 0.0714779
0.0714845 0.0714911 0.0714978 0.0715044 0.071511 0.0717309 0.071948 0.0721625 0.0723744 0.0725839
0.0727989 0.0730113 0.073221 0.0734281 0.0736328 0.0738428 0.0740501 0.0742547 0.0744568 0.0746568
0.0748622 0.0750652 0.0752658 0.0754638 0.0756591 0.075859 0.076056 0.0762504 0.0764427 0.0766331
0.0768294 0.0770239 0.0772151 0.0774031 0.077588 0.0777059 0.0778224 0.0779382 0.0780534 0.0781228
0.0781999 0.0782767 0.078353 0.0784289 0.0785044 -9.99991e-06 -7.99991e-06 -5.99992e-06 -3.99994e-06 -1.99997e-06
0 2.96563e-05 5.93112e-05 8.89635e-05 0.000118613 0.000148257 0.000178631 0.000209 0.000239362 0.000269717
0.000300066 0.000329193 0.000358312 0.000387424 0.000416529 0.000445626 0.000473552 0.000501471 0.000529383 0.000557288
0.000585186 0.000611962 0.000638732 0.000665496 0.000692254 0.000719006 0.000744682 0.000770354 0.00079602 0.00082168
0.000847335 0.00087196 0.00089658 0.000921195 0.000945806 0.000970412 0.000994031 0.00101765 0.00104126 0.00106486
0.00108846 0.00111112 0.00113377 0.00115642 0.00117907 0.00120171 0.00122344 0.00124517 0.0012669 0.00128862
0.00131034 0.00133119 0.00135204 0.00137289 0.00139373 0.00141457 0.00143457 0.00145457 0.00147457 0.00149457
0.00151456 0.00153376 0.00155295 0.00157214 0.00159133 0.00161051 0.00162893 0.00164735 0.00166576 0.00168417
0.00170258 0.00172026 0.00173793 0.0017556 0.00177327 0.00179094 0.0018079 0.00182486 0.00184181 0.00185877
0.00187573 0.001892 0.00190828 0.00192456 0.00194083 0.0019571 0.00197273 0.00198835 0.00200397 0.00201959
0.00203521 0.00204563 0.00205606 0.00206649 0.00207691 0.00208734 0.00209785 0.00210835 0.00211886 0.00212937
0.00213987 0.00215046 0.00216105 0.00217163 0.00218222 0.0021928 0.00220347 0.00221414 0.00222481 0.00223547
0.00224614 0.00225689 0.00226764 0.00227839 0.00228914 0.00229989 0.00231072 0.00232155 0.00233238 0.00234321
0.00235404 0.00236495 0.00237587 0.00238678 0.0023977 0.00240861 0.00241961 0.00243061 0.0024416 0.0024526
0.0024636 0.00247468 0.00248576 0.00249685 0.00250793 0.00251901 0.00253018 0.00254134 0.00255251 0.00256368
0.00257485 0.0025861 0.00259735 0.00260861 0.00261986 0.00263111 0.00264245 0.00265379 0.00266513 0.00267647
0.00268781 0.00269924 0.00271067 0.00272209 0.00273352 0.00274495 0.00275646 0.00276798 0.0027795 0.00279101
0.00280253 0.00281413 0.00282574 0.00283734 0.00284895 0.00286055 0.00287225 0.00288394 0.00289563 0.00290733
0.00291902 0.00293081 0.00294259 0.00295438 0.00296616 0.00297795 0.00298983 0.0030017 0.00301358 0.00302546
0.00303733 0.0030493 0.00306127 0.00307324 0.00308521 0.00309717 0.00310924 0.0031213 0.00313336 0.00314542
0.00315748 0.00316963 0.00318179 0.00319394 0.0032061 0.00321825 0.0032305 0.00324275 0.003255 0.00326725
0.0032795 0.00329184 0.00330418 0.00331653 0.00332887 0.00334121 0.00335365 0.00336609 0.00337853 0.00339097
0.00340341 0.00341594 0.00342848 0.00344101 0.00345355 0.00346608 0.00347871 0.00349134 0.00350397 0.00351661
0.00352924 0.00354196 0.00355469 0.00356742 0.00358015 0.00359288 0.0036057 0.00361853 0.00363136 0.00364418
0.00365701 0.00366871 0.00368041 0.00369211 0.00370381 0.00371549 0.00371672 0.00371795 0.00371918 0.00372041
0.00372163 0.00373466 0.00374768 0.00376071 0.00377373 0.00378676 0.00379988 0.003813 0.00382613 0.00383925
0.00385238 0.0038656 0.00387883 0.00389205 0.00390528 0.0039185 0.00393183 0.00394516 0.00395848 0.00397181
0.00398514 0.00399857 0.004012 0.00402543 0.00403886 0.00405228 0.00406582 0.00407935 0.00409288 0.00410642
0.00411995 0.00413359 0.00414723 0.00416086 0.0041745 0.00418814 0.00420188 0.00421563 0.00422937 0.00424311
0.00425685 0.0042707 0.00428455 0.0042984 0.00431225 0.0043261 0.00434006 0.00435402 0.00436797 0.00438193
0.00439589 0.00440995 0.00442402 0.00443808 0.00445215 0.00446621 0.00448039 0.00449456 0.00450874 0.00452291
0.00453709 0.00455137 0.00456565 0.00457994 0.00459422 0.00460851 0.0046229 0.0046373 0.00465169 0.00466609
0.00468048 0.00469499 0.00470949 0.004724 0.0047385 0.00475301 0.00476763 0.00478224 0.00479686 0.00481148
0.0048261 0.00484083 0.00485556 0.00487028 0.00488501 0.00489974 0.00491459 0.00492943 0.00494427 0.00495911
0.00497395 0.00498891 0.00500386 0.00501882 0.00503377 0.00504872 0.00506379 0.00507886 0.00509393 0.005109
0.00512407 0.00513925 0.00515443 0.00516961 0.00518479 0.00519997 0.00521527 0.00523057 0.00524587 0.00526116
0.00527646 0.00529187 0.00530728 0.00532269 0.0053381 0.00535351 0.00536904 0.00538457 0.0054001 0.00541562
0.00543115 0.0054468 0.00546244 0.00547809 0.00549373 0.00550937 0.00552514 0.0055409 0.00555666 0.00557242
0.00558818 0.00560406 0.00561995 0.00563583 0.00565171 0.00566759 0.00568359 0.00569959 0.00571559 0.0057316
0.0057476 0.00576372 0.00577985 0.00579597 0.00581209 0.00582821 0.00584446 0.00586071 0.00587696 0.0058932
0.00590945 0.00591868 0.0059279 0.00593713 0.00594636 0.0059555 0.00596266 0.00596983 0.00597699 0.00598415
0.00599131 0.00600781 0.00602431 0.00604081 0.00605731 0.00607381 0.00609044 0.00610707 0.0061237 0.00614033
0.00615696 0.00617372 0.00619048 0.00620724 0.006224 0.00624076 0.00625766 0.00627455 0.00629144 0.00630833
0.00632522 0.00634226 0.00635929 0.00637631 0.00639334 0.00641037 0.00642755 0.00644471 0.00646187 0.00647903
0.0064962 0.00651352 0.00653083 0.00654813 0.00656543 0.00658274 0.00660021 0.00661766 0.0066351 0.00665254
0.00666999 0.00668761 0.0067052 0.00672279 0.00674037 0.00675797 0.00677574 0.00679349 0.00681121 0.00682894
0.00684669 0.00686462 0.00688252 0.00690039 0.00691826 0.00693617 0.00695425 0.0069723 0.00699032 0.00700835
0.00702641 0.00704465 0.00706286 0.00708104 0.00709923 0.00711745 0.00713585 0.00715422 0.00717256 0.0071909
0.00720929 0.00722786 0.00724639 0.00726489 0.0072834 0.00730195 0.00732068 0.00733938 0.00735805 0.00737672
0.00739544 0.00741435 0.00743322 0.00745206 0.00747091 0.0074898 0.00750888 0.00752793 0.00754695 0.00756598
0.00758504 0.0076043 0.00762352 0.00764273 0.00766195 0.00768119 0.00770063 0.00772004 0.00773944 0.00775884
0.00777827 0.00779789 0.00781748 0.00783708 0.00785668 0.0078763 0.00789611 0.0079159 0.0079357 0.0079555
0.00797532 0.00799533 0.00801532 0.00803532 0.00805534 0.00807536 0.00809557 0.00811577 0.00813598 0.00815621
0.00817645 0.00818323 0.00819001 0.00819679 0.00820357 0.00821021 0.00822388 0.00823756 0.00825124 0.00826492
0.00827861 0.00829925 0.00831989 0.00834054 0.00836121 0.00838189 0.00840277 0.00842364 0.00844452 0.00846542
0.00848633 0.00850746 0.00852856 0.00854968 0.00857081 0.00859196 0.00861334 0.00863469 0.00865605 0.00867743
0.00869883 0.00872047 0.00874208 0.00876369 0.00878531 0.00880698 0.00882889 0.00885076 0.00887263 0.0088945
0.00891644 0.00893862 0.00896077 0.0089829 0.00900505 0.00902726 0.00904972 0.00907215 0.00909456 0.00911699
0.00913948 0.00916222 0.00918494 0.00920763 0.00923035 0.00925313 0.00927616 0.00929917 0.00932217 0.00934519
0.00936827 0.00939159 0.0094149 0.00943821 0.00946155 0.00948493 0.00950856 0.00953217 0.0095558 0.00957946
0.00960315 0.00962709 0.00965102 0.00967498 0.00969897 0.00972299 0.00974724 0.0097715 0.0097958 0.00982012
0.00984448 0.00985035 0.00985621 0.00986208 0.00986796 0.00987378 0.00989252 0.00991129 0.00993007 0.00994887
0.00996769 0.00999261 0.0100176 0.0100426 0.0100676 0.0100926 0.0101179 0.0101432 0.0101686 0.0101939