/*--------------------------------*- C++ -*----------------------------------*\
  =========                 |
  \\      /  F ield         | OpenFOAM: The Open Source CFD Toolbox
   \\    /   O peration     | Website:  https://openfoam.org
    \\  /    A nd           | Version:  13
     \\/     M anipulation  |
\*---------------------------------------------------------------------------*/
FoamFile
{
    format      ascii;
    class       volScalarField;
    location    "5.4";
    object      epsilon;
}
// * * * * * * * * * * * * * * * * * * * * * * * * * * * * * * * * * * * * * //

dimensions      [0 2 -3 0 0 0 0];

internalField   nonuniform List<scalar> 
6400
(
2.42207e-05
0.000124264
0.000300399
0.000484929
0.000626052
0.000706962
0.000737903
0.000742316
0.000747093
0.000774432
0.000840984
0.000972007
0.00118128
0.00147398
0.00183761
0.00225336
0.00270132
0.00317141
0.00364471
0.00410551
0.00456374
0.00505481
0.00562877
0.0063255
0.0071312
0.00797033
0.00880122
0.00962459
0.0104618
0.0113346
0.0122391
0.0131389
0.0140241
0.0148866
0.0157533
0.0166286
0.017533
0.0184734
0.0194628
0.0205065
0.0216113
0.0227854
0.0240362
0.025378
0.0268179
0.028392
0.0301705
0.0323053
0.0348035
0.0371813
0.0396418
0.0419969
0.0442687
0.0463463
0.048178
0.0496672
0.0505953
0.0510227
0.0511441
0.050452
0.0489556
0.0466825
0.0436583
0.0399531
0.0357054
0.0310709
0.0263241
0.0216535
0.0172422
0.0132247
0.0100072
0.00730017
0.00510223
0.00341284
0.0021931
0.0013596
0.000815106
0.000464855
0.000218434
4.63798e-05
0.000117444
0.000116506
0.000190263
0.000276557
0.000342382
0.000383009
0.000403555
0.000413165
0.000423304
0.000446041
0.000493964
0.000584939
0.000734217
0.000953748
0.00124813
0.00161948
0.00207029
0.00260666
0.00323408
0.00395995
0.00479176
0.00575737
0.00690558
0.00826753
0.00984073
0.0116334
0.0135388
0.0154064
0.0171358
0.0186362
0.019798
0.0207027
0.0213361
0.0217718
0.022055
0.0222361
0.0223587
0.022455
0.0225518
0.0226665
0.0228209
0.0230249
0.0232895
0.0235853
0.0239255
0.0243317
0.0248299
0.0253954
0.0260459
0.026736
0.0274684
0.0282097
0.0289351
0.0296094
0.0301886
0.0305685
0.0307197
0.030714
0.0304198
0.0297762
0.0287496
0.0273538
0.0255543
0.0234183
0.0210214
0.0184601
0.0158518
0.0133161
0.0109432
0.00880851
0.00701834
0.00548758
0.00417787
0.00306632
0.00214918
0.00141233
0.000862142
0.000483328
0.000250159
0.000245026
0.000257467
0.000211596
0.000283049
0.000357841
0.000403914
0.00042761
0.000440443
0.000454387
0.000482613
0.000540808
0.00065034
0.000836725
0.00112549
0.00153593
0.00208034
0.00277187
0.00362281
0.00464739
0.00585523
0.00725214
0.00884289
0.0106051
0.0124666
0.0142993
0.0159388
0.0171758
0.0179308
0.0183698
0.0185929
0.0187341
0.0188317
0.0188176
0.0185539
0.0182807
0.0179908
0.0177292
0.0175115
0.017362
0.017293
0.0172756
0.0173459
0.0175049
0.0177423
0.0180937
0.0185513
0.019105
0.0197365
0.0204444
0.0212246
0.0220658
0.0229566
0.0238797
0.0248131
0.0257277
0.0265854
0.0273413
0.027952
0.0282844
0.0283814
0.0281828
0.0275714
0.0265246
0.0250018
0.0230984
0.0208872
0.0184668
0.0159588
0.0134759
0.0111271
0.00899935
0.00715646
0.00560378
0.00432144
0.00327211
0.00241781
0.0017319
0.00117584
0.000735502
0.000455673
0.000651579
0.000447631
0.000365946
0.000449112
0.000522718
0.000561548
0.000581499
0.000600379
0.000636501
0.000710239
0.000849314
0.00108962
0.00147035
0.00202533
0.00277662
0.00373597
0.00490876
0.00629746
0.00788623
0.00962881
0.0114425
0.0132067
0.014784
0.0160364
0.0167689
0.0170899
0.0171816
0.01719
0.0169054
0.0164259
0.0158753
0.0152438
0.0147383
0.0143353
0.0140095
0.0137513
0.0135796
0.0134978
0.0134734
0.0135252
0.0136665
0.0138831
0.0141793
0.0145531
0.0150083
0.015541
0.0161515
0.0168399
0.0176063
0.0184496
0.0193674
0.0203528
0.0213956
0.0224796
0.0235817
0.024669
0.0256992
0.0266168
0.0273582
0.027773
0.0279083
0.0276896
0.0270297
0.0259593
0.0243342
0.0222375
0.0198192
0.0172034
0.0145322
0.0119564
0.0096033
0.00755877
0.00585723
0.0044877
0.00340744
0.00256294
0.00190277
0.00137489
0.000948068
0.000677757
0.00107577
0.00071823
0.000581941
0.000666749
0.000739594
0.000781067
0.000812648
0.00085868
0.00094691
0.00111174
0.00139734
0.00185447
0.00252957
0.00345193
0.00462861
0.00604746
0.00767791
0.00946298
0.0113048
0.0130584
0.0145642
0.0156354
0.0161379
0.0162983
0.0162957
0.0159552
0.0153364
0.0145106
0.0137382
0.0130887
0.0125062
0.0120075
0.0116213
0.0113161
0.0110889
0.0109371
0.0108642
0.0108401
0.0108608
0.0109609
0.0111104
0.0113185
0.011582
0.0119034
0.0122845
0.012728
0.0132384
0.01382
0.0144778
0.0152167
0.016041
0.0169533
0.0179535
0.0190358
0.02019
0.0213976
0.0226317
0.0238455
0.0249803
0.0259659
0.0266557
0.0269483
0.0269591
0.026372
0.0253724
0.0236772
0.021444
0.0188275
0.0159898
0.0131338
0.0104544
0.00809918
0.00614898
0.00461254
0.00344392
0.00256815
0.00191183
0.00141436
0.00103446
0.000821765
0.00136219
0.00110497
0.000867937
0.00094021
0.00101602
0.00107327
0.00113602
0.00123726
0.00141825
0.00173045
0.00223364
0.00298503
0.00402165
0.00534677
0.00692702
0.00869486
0.0105473
0.0123427
0.0139079
0.015024
0.0155373
0.0156788
0.0156054
0.0151367
0.0142877
0.0133336
0.0124696
0.0116914
0.0110284
0.0104725
0.0100037
0.00962449
0.00932454
0.00908792
0.00890986
0.00878271
0.0087054
0.00866974
0.00866051
0.00869411
0.00876411
0.00886916
0.00901121
0.00919022
0.00941064
0.00967567
0.00999189
0.010366
0.0108075
0.0113271
0.0119368
0.0126494
0.0134778
0.014432
0.015518
0.0167337
0.0180676
0.0195005
0.020986
0.0224687
0.0238597
0.0250487
0.0257795
0.0260452
0.0258092
0.0250381
0.0233109
0.0209486
0.0180769
0.0149516
0.0118584
0.00904678
0.00668904
0.00485102
0.00350235
0.00254355
0.00186736
0.00138305
0.00103134
0.000876921
0.00146109
0.00164315
0.00123012
0.0012804
0.00136851
0.00145836
0.00157611
0.00176654
0.00208681
0.00260332
0.00338143
0.00446606
0.00586123
0.00751937
0.00934224
0.0111871
0.0128762
0.0142242
0.0149271
0.0151536
0.0151384
0.0146819
0.0137663
0.0127047
0.0117316
0.0108448
0.0100886
0.00943885
0.00889513
0.00843813
0.00805635
0.00774063
0.00747906
0.00726272
0.00708601
0.00694329
0.0068309
0.00674468
0.00668284
0.00665203
0.00664026
0.00664131
0.00667688
0.00673265
0.00681868
0.0069339
0.007085
0.00727641
0.00751627
0.00781449
0.00818433
0.0086415
0.00920674
0.00990532
0.0107624
0.011799
0.0130324
0.0144828
0.0161351
0.0179424
0.0198476
0.0217542
0.0235224
0.0249213
0.0255862
0.0257196
0.0252299
0.023545
0.0209411
0.017693
0.0141737
0.0107631
0.00778473
0.00542914
0.00372442
0.00257625
0.00181595
0.0013154
0.000995133
0.000868705
0.00141678
0.0023661
0.00167317
0.00169988
0.00181341
0.00195604
0.00215544
0.00247037
0.0029719
0.0037317
0.00480246
0.00619372
0.00785432
0.00966923
0.0114701
0.0130567
0.014154
0.0146285
0.0147281
0.0144474
0.0136568
0.0125238
0.0114256
0.0104237
0.00955568
0.0088071
0.00817567
0.00763738
0.00718268
0.00679513
0.00646562
0.00618453
0.00594414
0.00573885
0.00556444
0.00541739
0.0052944
0.00519292
0.00511194
0.00505048
0.00500681
0.00498536
0.00497829
0.00498718
0.00502226
0.00507715
0.00515786
0.00526638
0.00540803
0.00558734
0.00581073
0.00608719
0.00642877
0.00685232
0.00738257
0.00805983
0.00893297
0.0100503
0.0114705
0.0132049
0.015247
0.0175428
0.0199622
0.0223655
0.0244851
0.0257567
0.0262019
0.0260295
0.0243303
0.0213507
0.0176035
0.0135773
0.0097879
0.00664077
0.00431927
0.00278382
0.00184388
0.00127018
0.000938708
0.000834498
0.00131681
0.00329874
0.00220055
0.00220798
0.00236644
0.00258094
0.00288694
0.00335477
0.00406134
0.00506773
0.006393
0.00799183
0.00974608
0.0114749
0.0129615
0.0138729
0.0142132
0.01425
0.0137492
0.0127029
0.0115084
0.0103797
0.00937873
0.00851466
0.00778091
0.00715665
0.00662701
0.00617407
0.00578778
0.00545661
0.00517366
0.00493189
0.00472634
0.0045528
0.00440743
0.00428708
0.00418942
0.00411224
0.00405386
0.0040124
0.00399076
0.00398247
0.00398218
0.00400429
0.00403962
0.00409227
0.0041624
0.00425193
0.00436292
0.00449822
0.0046616
0.00485799
0.0050937
0.00537728
0.00572041
0.00613973
0.00666072
0.00732083
0.00818337
0.00936482
0.0109798
0.0130835
0.0156256
0.0185184
0.0215384
0.0243992
0.0263684
0.0271862
0.0272804
0.0254722
0.0220106
0.0176303
0.013008
0.00883028
0.00556837
0.00335013
0.00202364
0.00129217
0.000902726
0.000784103
0.00121058
0.00445284
0.00281886
0.0028163
0.00303402
0.00333765
0.00376792
0.00440085
0.0053067
0.00651831
0.00800433
0.00965591
0.0112937
0.0126958
0.0135062
0.0137817
0.0137331
0.0130586
0.0118998
0.0106954
0.00954209
0.00853884
0.0076805
0.00695362
0.00633863
0.00581636
0.00537272
0.00499551
0.0046764
0.0044073
0.00418246
0.00399614
0.00384374
0.00372087
0.00362379
0.00354898
0.00349353
0.00345476
0.00343325
0.00342423
0.00342284
0.00343585
0.00345911
0.00349509
0.00354157
0.00360066
0.00367228
0.00375803
0.00385923
0.00397782
0.00411612
0.00427704
0.00446433
0.004683
0.00493987
0.00524341
0.00560401
0.00604037
0.00658167
0.00727724
0.00820823
0.00952243
0.0114791
0.014133
0.0173918
0.021027
0.0246665
0.0273703
0.0285623
0.0288028
0.0267971
0.0227016
0.0175547
0.0122986
0.00780129
0.00453571
0.00251114
0.00142943
0.000916017
0.000745979
0.00113259
0.00584085
0.00354039
0.00353004
0.00381547
0.00421836
0.00477715
0.00556438
0.00662979
0.00796383
0.00947754
0.0110049
0.0123287
0.0130952
0.0133541
0.0132325
0.012482
0.0112869
0.0100438
0.00888747
0.00787105
0.00701521
0.00629269
0.0056852
0.0051734
0.00474281
0.0043824
0.00408301
0.00383706
0.00363736
0.00347772
0.00335209
0.00325521
0.00318222
0.003129
0.00309208
0.00307003
0.00305991
0.00305711
0.00306295
0.00307835
0.0031023
0.00313458
0.00317604
0.00322688
0.00328842
0.00336149
0.0034476
0.00354813
0.00366472
0.00379905
0.00395292
0.00412823
0.00432715
0.00455228
0.00480724
0.00509765
0.00543269
0.00582793
0.00630615
0.00690299
0.00768939
0.00879339
0.0104518
0.0130473
0.0165816
0.0208165
0.0252749
0.0287031
0.0301949
0.0304878
0.0280954
0.023164
0.0171374
0.0113091
0.00664607
0.0035373
0.00180606
0.00100729
0.000750121
0.00112765
0.00754839
0.00439409
0.0043475
0.00470002
0.00520145
0.00587613
0.00678229
0.00793774
0.00928415
0.0106801
0.0119227
0.0126704
0.0129283
0.0127875
0.0120003
0.0108277
0.00955729
0.00838128
0.00735629
0.00649149
0.00577177
0.00516967
0.00466875
0.00425323
0.00391187
0.00363479
0.00341316
0.00323869
0.0031036
0.00300084
0.00292403
0.00286778
0.0028276
0.00279993
0.00278273
0.00277451
0.00277171
0.00277309
0.00278298
0.00279866
0.00282129
0.00285131
0.00288976
0.00293764
0.00299628
0.00306703
0.0031515
0.00325131
0.00336825
0.00350409
0.00366065
0.00383962
0.00404248
0.00427043
0.00452434
0.00480506
0.00511418
0.00545575
0.00583949
0.0062859
0.00683333
0.00753385
0.00850696
0.00997381
0.0123772
0.0161039
0.0209012
0.0262292
0.0303238
0.0320072
0.0322133
0.0291048
0.0230733
0.0161774
0.00994063
0.00536323
0.00260473
0.00126584
0.000804862
0.00119408
0.00946195
0.00534454
0.00525031
0.00566553
0.00625365
0.00701475
0.00798384
0.00914109
0.0103825
0.0115302
0.0122636
0.0125236
0.0123959
0.0116304
0.0104946
0.0092203
0.00801517
0.00697106
0.00609396
0.00536843
0.00477007
0.00427717
0.00387551
0.00355156
0.00329456
0.00309394
0.00293994
0.00282342
0.00273626
0.0026715
0.0026234
0.00258751
0.00256052
0.00254018
0.00252511
0.0025144
0.00250869
0.00250664
0.00250878
0.00251766
0.00253293
0.00255584
0.00258742
0.00262895
0.00268179
0.00274745
0.00282761
0.00292407
0.00303882
0.00317397
0.00333173
0.00351428
0.00372361
0.00396129
0.00422819
0.00452424
0.0048483
0.00519858
0.00557405
0.00597778
0.00642336
0.0069458
0.00760449
0.00850109
0.00985785
0.0121145
0.015976
0.0213166
0.0275545
0.0321911
0.0339329
0.0338354
0.0294038
0.0221795
0.0144988
0.00818806
0.00401446
0.00182383
0.000978663
0.00142067
0.0115247
0.00637019
0.00621563
0.00668213
0.00733427
0.00813872
0.00910208
0.0101682
0.011199
0.0119072
0.0121648
0.0120765
0.0113749
0.0102815
0.00901549
0.00778232
0.00670492
0.00580665
0.00506853
0.00446684
0.00397842
0.00358585
0.00327534
0.00303351
0.00284852
0.00270885
0.00260427
0.00252581
0.00246615
0.00241952
0.00238171
0.00234983
0.00232207
0.00229754
0.00227595
0.00225745
0.00224255
0.0022325
0.00222808
0.00222734
0.00223458
0.00225019
0.00227468
0.00230944
0.0023557
0.00241491
0.00248874
0.00257903
0.00268793
0.00281781
0.00297134
0.00315132
0.00336064
0.00360196
0.00387741
0.00418807
0.00453345
0.004911
0.00531607
0.00574302
0.00618844
0.00665832
0.0071815
0.0078261
0.00868805
0.00999493
0.0122131
0.0162328
0.0221443
0.0292833
0.0342403
0.0359148
0.0349321
0.0287566
0.0201864
0.012088
0.00617228
0.00279662
0.00136299
0.00191056
0.0136699
0.00744515
0.00721554
0.00771492
0.00839956
0.00919563
0.0100801
0.0109669
0.0116247
0.011874
0.0118367
0.0112219
0.0101863
0.00893457
0.00767561
0.00655412
0.00562024
0.00486024
0.00424683
0.00375581
0.00336676
0.00306351
0.00283128
0.00265599
0.00252492
0.00242662
0.00235159
0.00229226
0.00224301
0.00219996
0.0021607
0.00212392
0.00208916
0.00205655
0.00202654
0.00199981
0.00197713
0.00195932
0.00194823
0.00194359
0.00194319
0.00195323
0.00197208
0.00200092
0.00204092
0.00209332
0.00215967
0.00224178
0.00234178
0.00246221
0.00260599
0.00277647
0.00297733
0.0032124
0.00348543
0.00379949
0.00415636
0.00455556
0.00499347
0.00546282
0.00595339
0.00645532
0.00696702
0.00751126
0.00816132
0.00902146
0.0103348
0.0126406
0.0169545
0.023541
0.031579
0.0363471
0.0376391
0.034999
0.0266745
0.0170547
0.00915323
0.00424012
0.00199129
0.00261733
0.0158292
0.00854042
0.00821907
0.00872707
0.00940684
0.0101395
0.010874
0.0114577
0.0116962
0.0116756
0.0111669
0.0102014
0.00897518
0.00769176
0.00651801
0.00553224
0.00473627
0.00410095
0.00359827
0.00320534
0.00290285
0.00267405
0.00250311
0.0023757
0.00227949
0.00220432
0.00214253
0.00208864
0.00203912
0.00199199
0.00194639
0.00190226
0.00185999
0.00182027
0.00178385
0.00175154
0.00172406
0.00170212
0.00168652
0.00167886
0.00167641
0.00168143
0.00169661
0.00172066
0.00175516
0.001801
0.00185961
0.00193262
0.00202208
0.00213048
0.0022608
0.00241663
0.00260213
0.00282202
0.00308137
0.00338528
0.00373823
0.00414304
0.00459965
0.00510359
0.00564485
0.00620825
0.00677684
0.00734109
0.00791894
0.00859274
0.00947527
0.0108523
0.0133741
0.018216
0.025724
0.0343416
0.0383594
0.0389434
0.0333665
0.0230229
0.0130351
0.00620059
0.00286754
0.00349044
0.0179484
0.0096262
0.00919484
0.00968291
0.0103185
0.0109353
0.0114365
0.0116549
0.0116165
0.0112118
0.0103216
0.00913374
0.00783216
0.00659934
0.00554553
0.00469531
0.00402431
0.00349934
0.00309358
0.00278471
0.00255325
0.00238163
0.00225392
0.00215668
0.00207921
0.00201356
0.00195438
0.00189839
0.00184399
0.00179065
0.00173863
0.00168854
0.00164118
0.00159734
0.00155779
0.00152315
0.00149397
0.00147071
0.00145374
0.00144492
0.00144171
0.00144395
0.00145659
0.00147698
0.00150681
0.00154673
0.00159798
0.00166201
0.00174068
0.00183628
0.00195169
0.00209042
0.00225675
0.00245578
0.00269342
0.00297622
0.00331094
0.00370381
0.00415912
0.00467748
0.00525356
0.00587425
0.00651847
0.00716096
0.00778375
0.0084027
0.0091132
0.0100408
0.0115509
0.014457
0.020107
0.0289172
0.0373178
0.0403483
0.0391779
0.0297548
0.0179218
0.00876883
0.00401958
0.00447616
0.019999
0.0106753
0.010113
0.0105513
0.0111062
0.0115456
0.011737
0.0116884
0.0113514
0.0105458
0.00940689
0.00809847
0.00680504
0.00566768
0.00474225
0.00401715
0.00345659
0.00302764
0.00270422
0.00246388
0.00228674
0.00215528
0.00205473
0.00197358
0.00190354
0.00183915
0.00177732
0.00171665
0.00165692
0.00159858
0.00154241
0.00148925
0.00143993
0.00139512
0.00135536
0.00132105
0.00129249
0.00126988
0.00125341
0.00124462
0.00124132
0.00124237
0.00125314
0.00127074
0.00129666
0.00133142
0.00137608
0.00143189
0.00150048
0.00158389
0.00168474
0.00180627
0.00195256
0.00212867
0.00234072
0.00259597
0.00290268
0.00326963
0.00370513
0.00421531
0.00480158
0.00545752
0.00616596
0.00689839
0.00761962
0.00830343
0.00896891
0.0097201
0.0107237
0.0124643
0.0159857
0.022736
0.0331221
0.0403945
0.0420605
0.0366527
0.0238791
0.0120922
0.00549615
0.00553074
0.0219026
0.0116608
0.0109483
0.0113097
0.0117445
0.0119447
0.0119194
0.0115775
0.0108702
0.00979335
0.00849149
0.00714327
0.00591116
0.00488792
0.00408571
0.00347195
0.00300728
0.00265981
0.00240357
0.00221593
0.00207734
0.00197149
0.00188574
0.00181115
0.00174198
0.00167511
0.00160928
0.00154441
0.00148111
0.00142026
0.00136276
0.0013094
0.00126078
0.00121735
0.00117939
0.00114704
0.00112039
0.00109948
0.00108432
0.00107618
0.00107311
0.00107376
0.00108307
0.00109847
0.0011211
0.00115145
0.0011904
0.00123903
0.00129872
0.00137127
0.00145894
0.00156465
0.00169208
0.00184591
0.00203204
0.00225777
0.00253189
0.00286466
0.00326723
0.00375043
0.00432251
0.00498567
0.00573162
0.00653736
0.00736404
0.00816399
0.00890447
0.00961759
0.0104145
0.0115449
0.0136811
0.018249
0.0266394
0.0379065
0.0428869
0.0423228
0.0307243
0.0163336
0.00732661
0.00661318
0.0235864
0.0125568
0.011681
0.011941
0.0121917
0.0122154
0.0119114
0.0113014
0.0102887
0.00901157
0.00762092
0.00629103
0.00514931
0.00424281
0.00355271
0.00303594
0.00265287
0.00237235
0.00216846
0.00201899
0.0019057
0.00181444
0.00173523
0.00166176
0.00159065
0.00152062
0.00145165
0.00138446
0.00131998
0.00125914
0.00120271
0.00115125
0.00110509
0.00106442
0.00102928
0.000999638
0.000975413
0.000956525
0.000942893
0.000935571
0.000932813
0.000933357
0.000941474
0.000955018
0.000974867
0.00100147
0.00103556
0.00107806
0.00113015
0.00119337
0.00126967
0.00136157
0.00147231
0.00160607
0.00176821
0.00196558
0.00220682
0.00250259
0.00286546
0.00330942
0.00384826
0.00449261
0.00524516
0.0060944
0.00700863
0.00793431
0.00880705
0.00958894
0.0103412
0.0111978
0.012554
0.0153705
0.0215107
0.0323049
0.0424214
0.0450225
0.0379281
0.0216261
0.00956599
0.00775969
0.0250054
0.013343
0.0122919
0.0124194
0.0125205
0.0123461
0.0118064
0.0108892
0.0096542
0.00824219
0.00682156
0.00554783
0.0045086
0.0037128
0.00312169
0.00268792
0.00237263
0.00214521
0.00198023
0.00185681
0.00175879
0.00167469
0.00159726
0.00152259
0.00144915
0.0013769
0.00130658
0.00123918
0.00117566
0.00111677
0.00106302
0.00101469
0.000971877
0.000934532
0.000902534
0.000875719
0.000853919
0.000836985
0.000824788
0.000818215
0.000815743
0.000816209
0.00082328
0.000835222
0.00085269
0.0008761
0.000906073
0.000943398
0.000989094
0.00104446
0.00111118
0.0011914
0.00128791
0.00140434
0.00154543
0.00171735
0.00192811
0.00218796
0.00250975
0.00290893
0.00340287
0.00400882
0.00473985
0.00559826
0.00656694
0.00760114
0.00862707
0.00956023
0.0103634
0.0111221
0.0120998
0.0138619
0.0178835
0.0261967
0.0394145
0.045785
0.0443014
0.0280197
0.0122954
0.00893679
0.0261395
0.0140108
0.0127759
0.0127587
0.0127195
0.0123303
0.0115675
0.010409
0.00900414
0.007513
0.00610556
0.00490966
0.0039742
0.00327893
0.00277353
0.00240951
0.00214906
0.0019623
0.00182499
0.00171827
0.00162862
0.0015473
0.00146951
0.00139327
0.00131834
0.00124543
0.00117557
0.00110975
0.00104872
0.000992973
0.000942746
0.000898071
0.000858836
0.00082485
0.000795879
0.000771689
0.000752065
0.000736832
0.000725847
0.000719864
0.000717605
0.000717931
0.000724053
0.000734577
0.000749987
0.000770667
0.000797152
0.000830123
0.000870457
0.00091927
0.000977992
0.00104846
0.00113307
0.00123493
0.00135814
0.00150811
0.001692
0.00191924
0.0022021
0.00255618
0.00300045
0.00355641
0.00424525
0.00508226
0.00606754
0.00717394
0.00833618
0.00945183
0.0104137
0.0112147
0.0119882
0.0131881
0.0157292
0.0218667
0.0335448
0.0453597
0.0480058
0.0354603
0.0157386
0.0103119
0.0269805
0.0145669
0.0131282
0.0129741
0.0127867
0.0122339
0.0112339
0.00989074
0.00836573
0.00684032
0.00547543
0.00436725
0.00353051
0.00292417
0.00249178
0.0021853
0.00196809
0.00181145
0.00169299
0.00159638
0.00151081
0.0014301
0.00135146
0.00127429
0.00119917
0.00112713
0.00105918
0.000996136
0.000938482
0.000886438
0.000839997
0.000799
0.000763201
0.000732313
0.000706047
0.000684138
0.000666357
0.000652527
0.000642507
0.000636941
0.000634814
0.000634941
0.000640185
0.00064944
0.00066306
0.000681394
0.00070491
0.000734206
0.00077004
0.000813377
0.000865446
0.000927823
0.00100255
0.00109229
0.00120055
0.00133203
0.00149297
0.00169179
0.00193973
0.00225161
0.00264655
0.00314795
0.00378228
0.00457507
0.00554279
0.00667988
0.00794262
0.00923621
0.0104233
0.0113899
0.012103
0.0129812
0.0146143
0.0186736
0.02793
0.0428179
0.0494662
0.0433574
0.0201897
0.0121386
0.0275416
0.0150071
0.0133617
0.0130722
0.0127504
0.0120266
0.0108462
0.00935988
0.00775758
0.00623196
0.00492772
0.00390918
0.00316288
0.00263375
0.0022627
0.00200284
0.00181893
0.00168396
0.00157788
0.00148703
0.00140321
0.00132237
0.00124326
0.00116618
0.00109211
0.00102211
0.000957042
0.000897435
0.000843518
0.000795274
0.000752511
0.000714944
0.000682241
0.00065407
0.000630123
0.000610129
0.000593865
0.000581163
0.000571892
0.000566578
0.000564488
0.000564431
0.000568842
0.000576961
0.000589014
0.00060532
0.000626295
0.000652466
0.000684501
0.000723241
0.000769752
0.000825395
0.000891923
0.000971618
0.00106749
0.00118356
0.00132524
0.0014999
0.00171754
0.00199178
0.00234081
0.00278827
0.00336323
0.00409818
0.00502291
0.00615249
0.00746861
0.00889787
0.0103008
0.0115
0.0123838
0.0129958
0.0141598
0.0167669
0.0236835
0.0378015
0.0496511
0.0502132
0.0259004
0.0145438
0.0278265
0.015336
0.0134868
0.0130616
0.0126347
0.0117463
0.0104257
0.0088353
0.00719126
0.00568987
0.00445579
0.00352379
0.00285829
0.00239528
0.00207509
0.00185238
0.00169361
0.00157386
0.00147566
0.00138796
0.00130484
0.00122395
0.0011451
0.00106911
0.00099705
0.000929869
0.000868174
0.000812239
0.000762058
0.00071743
0.000678042
0.000643529
0.000613521
0.000587669
0.000565667
0.000547255
0.000532224
0.00052042
0.000511728
0.000506542
0.000504402
0.000504202
0.000507835
0.000514931
0.000525608
0.00054015
0.000558932
0.000582426
0.000611225
0.000646073
0.000687906
0.000737912
0.000797609
0.000868966
0.00095457
0.00105787
0.00118353
0.00133792
0.00152984
0.00177144
0.00207946
0.00247656
0.00299234
0.00366307
0.00452821
0.00562091
0.00695
0.00847357
0.0100707
0.0115369
0.0126898
0.0133737
0.0140564
0.015816
0.020571
0.0321031
0.0487946
0.0540519
0.0335189
0.0174399
0.027815
0.0155514
0.0135152
0.0129896
0.012425
0.0114177
0.00999039
0.00833053
0.00667295
0.00521218
0.0040516
0.00320015
0.00260556
0.00219855
0.00192005
0.00172655
0.00158645
0.00147722
0.00138395
0.00129799
0.0012153
0.00113479
0.00105695
0.000982819
0.000913408
0.000849441
0.000791276
0.000738955
0.000692289
0.000650953
0.000614555
0.000582694
0.000554985
0.000531086
0.000510702
0.000493593
0.000479565
0.000468478
0.000460233
0.000455102
0.000452875
0.000452533
0.000455465
0.000461642
0.000471104
0.000484102
0.000500977
0.000522154
0.000548169
0.000579688
0.000617545
0.000662788
0.000716749
0.000781143
0.000858208
0.000950916
0.00106328
0.00120081
0.00137114
0.00158499
0.00185739
0.00220934
0.0026695
0.00327536
0.00407214
0.00510658
0.00641166
0.00797967
0.00972609
0.0114614
0.0129085
0.0137836
0.014308
0.0154392
0.0185744
0.0274194
0.0454362
0.0556304
0.0426889
0.0207437
0.0276685
0.0156888
0.0134823
0.0128311
0.0121585
0.0110572
0.00955431
0.0078545
0.00620498
0.00479479
0.00370686
0.00292851
0.00239533
0.00203532
0.00179068
0.00161988
0.00149352
0.00139149
0.00130133
0.00121645
0.00113432
0.00105471
0.000978501
0.000906746
0.000840304
0.00077966
0.000724941
0.000676002
0.000632524
0.000594101
0.000560302
0.00053071
0.000504948
0.000482688
0.000463654
0.000447623
0.000434419
0.000423914
0.000416023
0.000410904
0.000408574
0.000408089
0.000410399
0.000415754
0.000424139
0.000435778
0.00045098
0.000470134
0.000493728
0.000522369
0.000556807
0.000597982
0.000647078
0.000705606
0.000775522
0.00085941
0.000960737
0.00108426
0.00123659
0.00142709
0.00166908
0.00198157
0.00239139
0.00293537
0.00366138
0.00462536
0.00588005
0.00745008
0.00929174
0.0112454
0.0130147
0.0142252
0.0147811
0.0153778
0.0175349
0.0242511
0.0403759
0.0558613
0.0518689
0.0239736
0.0273394
0.0157703
0.0133911
0.01261
0.0118496
0.0106786
0.00912781
0.0074126
0.00578699
0.00443252
0.00341368
0.00270044
0.00221992
0.00189905
0.00168169
0.00152842
0.00141209
0.00131502
0.00122691
0.00114292
0.00106161
0.00098336
0.000909195
0.000840095
0.000776709
0.000719299
0.000667801
0.00062193
0.000581277
0.000545392
0.000513826
0.000486167
0.000462052
0.000441172
0.000423271
0.000408142
0.000395627
0.000385607
0.000378005
0.00037288
0.000370439
0.000369816
0.000371583
0.000376201
0.00038363
0.000394066
0.00040779
0.000425162
0.000446632
0.000472755
0.000504219
0.000541879
0.000586801
0.000640335
0.000704213
0.000780701
0.000872822
0.000984695
0.00112206
0.00129305
0.00150936
0.00178795
0.00215338
0.0026406
0.00329761
0.00418556
0.005372
0.0069106
0.00880156
0.0109348
0.0130381
0.0146305
0.0153615
0.0157548
0.0170689
0.0216796
0.0352645
0.0551029
0.0589853
0.0263759
0.0268295
0.015773
0.0132341
0.0123456
0.0115119
0.0102931
0.00871834
0.00700757
0.00541697
0.00411981
0.0031649
0.00250882
0.00207307
0.00178457
0.00158908
0.00144928
0.00134032
0.00124671
0.00116009
0.00107698
0.000996785
0.000920225
0.000848343
0.000781975
0.000721567
0.000667184
0.000618612
0.000575465
0.000537281
0.000503586
0.000473933
0.00044792
0.000425204
0.000405495
0.000388554
0.000374193
0.000362263
0.000352656
0.000345303
0.000340171
0.000337616
0.000336862
0.000338159
0.000342121
0.000348699
0.000358065
0.000370476
0.000386267
0.000405855
0.000429756
0.000458606
0.000493192
0.00053449
0.000583723
0.000642445
0.000712671
0.000797059
0.000899208
0.00102411
0.00117883
0.00137361
0.00162342
0.00195039
0.00238691
0.00297938
0.00379075
0.00489817
0.00637824
0.00827106
0.0105203
0.012905
0.0149607
0.0159428
0.0163142
0.0169637
0.020152
0.0307003
0.0527615
0.0624987
0.0274002
0.0261637
0.0157469
0.0130426
0.0120512
0.0111572
0.00990961
0.00833089
0.00664016
0.00509189
0.00385118
0.00295421
0.00234772
0.00194974
0.00168788
0.00150983
0.0013804
0.00127687
0.00118577
0.00110036
0.00101824
0.000939383
0.000864702
0.000795179
0.000731484
0.00067387
0.000622244
0.000576279
0.000535521
0.000499478
0.000467667
0.000439651
0.000415046
0.000393525
0.000374817
0.000358702
0.000345
0.000333576
0.000324325
0.000317178
0.000312095
0.000309409
0.000308528
0.000309421
0.000312801
0.000318621
0.000327032
0.000338273
0.000352653
0.000370563
0.000392486
0.000419016
0.000450887
0.000489001
0.000534485
0.000588755
0.000653624
0.00073146
0.000825439
0.000939926
0.00108109
0.00125786
0.00148343
0.00177749
0.0021696
0.00270346
0.00344147
0.00446623
0.00587197
0.00773445
0.0100497
0.0126469
0.0151197
0.016555
0.0170298
0.0172966
0.0193971
0.0277452
0.0487442
0.063716
0.0275514
0.0253771
0.0156818
0.0128265
0.0117382
0.0107953
0.00953477
0.00796851
0.0063098
0.0048083
0.00362152
0.00277615
0.00221224
0.0018459
0.00160585
0.00144169
0.00132024
0.00122078
0.00113159
0.00104727
0.000966238
0.000888868
0.000816139
0.000748936
0.000687758
0.000632699
0.000583539
0.000539867
0.000501187
0.00046699
0.0004368
0.000410189
0.000386792
0.0003663
0.000348459
0.000333059
0.000319934
0.000308953
0.000300017
0.000293057
0.000288034
0.000285225
0.000284224
0.000284775
0.00028764
0.000292786
0.000300345
0.000310538
0.000323655
0.000340062
0.000360213
0.000384669
0.000414118
0.000449409
0.00049159
0.000541969
0.000602203
0.000674432
0.000761489
0.00086723
0.000997064
0.0011588
0.00136402
0.00163017
0.00198385
0.00246551
0.00313514
0.00407709
0.00539745
0.00720209
0.00954067
0.0123134
0.0151675
0.0171399
0.0177756
0.0178983
0.0190892
0.0253499
0.0445251
0.0636953
0.0270205
0.0245053
0.0155874
0.0125954
0.0114163
0.010434
0.00917355
0.0076328
0.00601501
0.00456246
0.00342615
0.00262615
0.00209837
0.00175833
0.00153604
0.00138293
0.00126766
0.0011713
0.00108365
0.00100037
0.000920507
0.000844684
0.000773887
0.00070888
0.000650014
0.000597245
0.000550258
0.000508585
0.000471702
0.000439097
0.0004103
0.0003849
0.000362547
0.000342947
0.00032586
0.000311088
0.000298472
0.000287885
0.000279232
0.000272444
0.000267481
0.000264561
0.000263449
0.000263714
0.000266127
0.000270672
0.00027747
0.000286725
0.000298708
0.000313764
0.000332322
0.000354913
0.000382191
0.000414956
0.000454198
0.00050114
0.000557319
0.000624696
0.000705833
0.000804174
0.000924501
0.00107368
0.00126186
0.00150446
0.00182527
0.00226119
0.0028688
0.00373151
0.00496234
0.00669
0.00900989
0.0118898
0.0150606
0.0176395
0.018598
0.0186657
0.0190461
0.0236837
0.040568
0.0616922
0.026212
0.0235745
0.0154788
0.0123579
0.0110933
0.0100795
0.00882946
0.00732425
0.00575378
0.00435074
0.00326094
0.00250033
0.00200287
0.00168447
0.00147656
0.00133221
0.00122177
0.00112784
0.00104148
0.000959219
0.000880564
0.00080628
0.000737323
0.000674342
0.000617552
0.000566807
0.000521716
0.000481772
0.000446438
0.000415203
0.000387607
0.000363252
0.000341804
0.000322982
0.000306556
0.000292338
0.000280173
0.00026994
0.000261543
0.000254914
0.00025001
0.000246987
0.000245767
0.000245801
0.000247818
0.000251828
0.000257947
0.000266363
0.000277328
0.000291168
0.000308291
0.000329201
0.00035452
0.000385012
0.000421618
0.000465496
0.000518089
0.000581222
0.000657243
0.00074927
0.000861572
0.00100022
0.00117415
0.00139696
0.00168981
0.00208607
0.00263824
0.00342688
0.00456792
0.0062075
0.00848219
0.0114217
0.0148091
0.0179891
0.0194299
0.0195871
0.0195169
0.022553
0.037037
0.0588525
0.0251652
0.022595
0.0153733
0.0121237
0.0107763
0.00973695
0.00850488
0.00704267
0.00552366
0.00416979
0.00312235
0.00239545
0.00192308
0.00162228
0.00142591
0.0012885
0.00118184
0.00108986
0.00100465
0.000923394
0.000845936
0.00077313
0.000705878
0.000644721
0.000589767
0.000540785
0.000497333
0.000458878
0.000424874
0.000394816
0.000368254
0.000344804
0.000324142
0.000306
0.000290156
0.000276427
0.000264664
0.000254748
0.000246584
0.000240103
0.000235259
0.000232141
0.000230781
0.000230662
0.000232326
0.000235862
0.000241376
0.00024904
0.000259092
0.00027184
0.000287669
0.000307061
0.00033061
0.000359049
0.000393277
0.000434402
0.000483796
0.000543176
0.000614731
0.000701318
0.000806798
0.000936583
0.00109858
0.0013048
0.00157401
0.0019362
0.00243954
0.00316036
0.00421412
0.00575834
0.00796528
0.0109316
0.0145114