/*--------------------------------*- C++ -*----------------------------------*\
  =========                 |
  \\      /  F ield         | OpenFOAM: The Open Source CFD Toolbox
   \\    /   O peration     | Website:  https://openfoam.org
    \\  /    A nd           | Version:  13
     \\/     M anipulation  |
\*---------------------------------------------------------------------------*/
FoamFile
{
    format      ascii;
    class       volScalarField;
    location    "5.4";
    object      k;
}
// * * * * * * * * * * * * * * * * * * * * * * * * * * * * * * * * * * * * * //

dimensions      [0 2 -2 0 0 0 0];

internalField   nonuniform List<scalar> 
6400
(
4.73095e-07
2.42722e-06
5.86766e-06
9.47206e-06
1.22286e-05
1.38089e-05
1.44132e-05
1.44994e-05
1.45927e-05
1.51267e-05
1.64266e-05
1.89859e-05
2.30738e-05
2.87912e-05
3.58941e-05
4.4015e-05
5.2765e-05
6.19471e-05
7.11916e-05
8.01919e-05
8.9142e-05
9.87334e-05
0.000109944
0.000123553
0.00013929
0.000155679
0.000171908
0.00018799
0.000204342
0.000221388
0.000239056
0.00025663
0.00027392
0.000290766
0.000307693
0.000324789
0.000342454
0.000360823
0.000380148
0.000400532
0.000422112
0.000445044
0.000469475
0.000495681
0.000523806
0.000554551
0.00058929
0.000630988
0.000679782
0.000726225
0.000774282
0.00082028
0.000864652
0.00090523
0.000941005
0.000970091
0.000988215
0.000996562
0.000998933
0.000985411
0.000956182
0.000911783
0.000852714
0.000780344
0.000697376
0.000606857
0.000514146
0.00042292
0.000336761
0.000258294
0.000195452
0.00014258
9.96518e-05
6.66561e-05
4.28334e-05
2.65544e-05
1.59198e-05
9.07912e-06
4.26627e-06
9.05852e-07
2.29401e-06
1.93372e-05
4.68722e-05
7.36679e-05
9.37778e-05
0.000105941
0.000111834
0.00011426
0.000116368
0.000120944
0.000131053
0.000150348
0.000180048
0.000219864
0.00026811
0.000322402
0.000380601
0.000440577
0.000500465
0.000559272
0.000618227
0.000681133
0.000753111
0.000837624
0.000932431
0.00102985
0.00112491
0.0012159
0.0013034
0.00138823
0.00146924
0.00154447
0.00161338
0.00167557
0.00173385
0.00178883
0.0018426
0.00189601
0.0019504
0.00200646
0.0020649
0.00212635
0.00219116
0.00225961
0.00233121
0.00240577
0.0024827
0.00255897
0.00263645
0.0027192
0.0028036
0.00288888
0.0029723
0.00305129
0.00312227
0.00318141
0.00321866
0.00323316
0.00323317
0.00320173
0.00313371
0.00302856
0.00288448
0.00270278
0.00248824
0.00224744
0.00199284
0.00173299
0.00147533
0.00122781
0.000989432
0.000771409
0.000580963
0.000421174
0.000293354
0.000195479
0.000124373
7.44567e-05
3.58718e-05
4.78565e-06
5.02904e-06
4.22006e-05
9.8604e-05
0.0001469
0.000180213
0.000200011
0.00021089
0.000218156
0.000227223
0.000243503
0.000272405
0.000318548
0.00038388
0.000467102
0.000564722
0.000672877
0.000788536
0.000909193
0.00103231
0.00115562
0.00127735
0.00139658
0.00151167
0.00161838
0.00171184
0.00178828
0.00184491
0.00188399
0.00191334
0.00193922
0.00196663
0.0019957
0.00202785
0.00205951
0.00209447
0.00213184
0.00217337
0.00221903
0.00226966
0.00232554
0.00238659
0.0024531
0.002525
0.00260207
0.0026844
0.00277185
0.002864
0.00296137
0.0030642
0.00317182
0.00328257
0.00339506
0.003507
0.00361566
0.00371743
0.003808
0.00388218
0.00393042
0.00394925
0.00394508
0.00389884
0.00380915
0.00367116
0.00348528
0.00325368
0.00298078
0.00268419
0.00237303
0.00205731
0.00174812
0.0014546
0.0011838
0.000941289
0.000729877
0.000550723
0.000403116
0.000283879
0.000185614
9.39145e-05
1.27261e-05
8.74349e-06
7.12394e-05
0.000156394
0.00022165
0.000264742
0.000291458
0.000309286
0.000325893
0.000348924
0.000385982
0.00044406
0.000527751
0.000637365
0.000768887
0.000916099
0.00107291
0.00123395
0.0013939
0.00154697
0.00168745
0.00180971
0.00191108
0.00198946
0.00203872
0.00206086
0.00206695
0.00206332
0.00205863
0.00205707
0.00205952
0.00206836
0.00208009
0.00209692
0.00211806
0.00214462
0.00217587
0.00221253
0.00225451
0.00230184
0.0023546
0.002413
0.00247712
0.00254705
0.00262268
0.00270384
0.00279011
0.0028831
0.00298236
0.00308776
0.0031987
0.0033142
0.00343294
0.00355306
0.0036721
0.00378678
0.00389306
0.00398589
0.00405979
0.00410229
0.00411664
0.00409685
0.00403418
0.00392563
0.00377304
0.00356783
0.00330872
0.00301163
0.00268648
0.002349
0.00201382
0.00169356
0.00139778
0.0011324
0.000900054
0.000701093
0.000534105
0.000394746
0.00027357
0.000148174
2.10112e-05
1.40291e-05
0.000110227
0.000225251
0.000306784
0.00035978
0.000394754
0.000422399
0.000453088
0.000496911
0.000563323
0.000659468
0.000787722
0.0009444
0.00112117
0.00130807
0.00149555
0.00167475
0.00183703
0.00197336
0.00207902
0.00214488
0.00217264
0.00217742
0.00215208
0.00212208
0.00209495
0.00207311
0.00205688
0.00204852
0.00204512
0.00204492
0.00205018
0.00206003
0.00207401
0.00209236
0.00211456
0.00214078
0.00217062
0.00220394
0.00224093
0.00228162
0.00232626
0.00237566
0.00243031
0.00249103
0.00255875
0.00263253
0.00271312
0.00280066
0.00289538
0.00299724
0.00310594
0.00322062
0.00334006
0.00346231
0.00358481
0.00370333
0.0038128
0.00390698
0.00397352
0.00400182
0.00400228
0.00394379
0.00383236
0.00366962
0.00345823
0.00318335
0.00286607
0.00252266
0.00217168
0.00183074
0.00151427
0.00123133
0.000985586
0.000776778
0.000602123
0.000455854
0.000325973
0.000184357
2.66055e-05
2.15835e-05
0.000162328
0.000309289
0.00040794
0.00047224
0.000517715
0.000558656
0.00060844
0.000679364
0.000781345
0.000919314
0.00109096
0.00128701
0.00149408
0.00169799
0.00188551
0.00204496
0.00216828
0.00223908
0.00226447
0.0022606
0.00221866
0.00217591
0.00213457
0.00209419
0.00205906
0.00202987
0.00200589
0.001987
0.00197172
0.0019596
0.00195292
0.00194973
0.0019488
0.00195043
0.0019551
0.0019621
0.00197167
0.0019838
0.00199888
0.0020172
0.00203926
0.00206477
0.00209441
0.00212854
0.00216774
0.00221251
0.00226389
0.00232281
0.00239032
0.0024675
0.0025554
0.00265465
0.00276553
0.00288748
0.00301884
0.00315762
0.00330009
0.00344097
0.00357229
0.00368506
0.00375848
0.00378628
0.0037675
0.00368034
0.00353229
0.00330937
0.00301993
0.00268147
0.00231697
0.00195078
0.00160521
0.00129621
0.00103128
0.000810496
0.000629273
0.000479457
0.000346482
0.000199797
2.85373e-05
3.20959e-05
0.000229493
0.000410864
0.000527979
0.000605291
0.000663719
0.000721415
0.000794557
0.000896488
0.00103535
0.00121134
0.00141582
0.0016335
0.00184633
0.00203691
0.0021904
0.00228974
0.00233069
0.0023344
0.0022922
0.0022427
0.00218216
0.00212349
0.00206335
0.00200984
0.00196384
0.00192381
0.0018886
0.00185782
0.00183171
0.00180944
0.00179026
0.0017734
0.00175871
0.00174628
0.00173607
0.00172796
0.00172208
0.00171903
0.0017179
0.00171836
0.00172232
0.00172861
0.00173821
0.00175116
0.00176802
0.00178932
0.00181579
0.00184858
0.00188885
0.00193809
0.0019982
0.00207153
0.00216038
0.00226695
0.00239185
0.0025349
0.0026964
0.00287127
0.00305294
0.00323327
0.0034007
0.00353872
0.00360849
0.00362585
0.0035645
0.00343833
0.00320358
0.00288752
0.00251581
0.00211926
0.00173071
0.00137797
0.00107756
0.00083293
0.000638246
0.000481673
0.000345236
0.000198547
2.7672e-05
4.62176e-05
0.000312834
0.000530785
0.000667766
0.000759715
0.000833199
0.000910129
0.00100861
0.00114116
0.00131178
0.00151424
0.00173324
0.00194829
0.00213825
0.00228559
0.00236445
0.00238863
0.00236663
0.00231537
0.00224568
0.00216611
0.00208031
0.00200437
0.00193572
0.00187821
0.0018261
0.00177952
0.00173728
0.00169924
0.00166496
0.00163392
0.00160583
0.00158052
0.00155799
0.00153826
0.00152112
0.00150645
0.00149424
0.00148444
0.00147693
0.00147207
0.00146988
0.00146933
0.00147174
0.0014772
0.00148577
0.00149801
0.00151436
0.00153515
0.00156097
0.00159257
0.00163095
0.00167737
0.00173369
0.00180284
0.00188998
0.00200161
0.00214111
0.00231257
0.00251072
0.0027287
0.00295759
0.0031808
0.00338031
0.00350686
0.00355305
0.00352205
0.00340892
0.0031494
0.0027942
0.0023759
0.00193718
0.00152161
0.00116212
0.000873247
0.000651064
0.000479972
0.000337648
0.000192023
2.57195e-05
6.44354e-05
0.000412349
0.000668665
0.000826645
0.00093439
0.00102402
0.00112064
0.00124292
0.00140055
0.00159174
0.00180341
0.00201462
0.00220177
0.00234125
0.0024072
0.00242063
0.00238421
0.00232438
0.00223406
0.00212739
0.00202695
0.0019386
0.00186054
0.00179098
0.00172955
0.00167311
0.00162205
0.00157554
0.00153363
0.001496
0.00146253
0.00143309
0.00140758
0.00138577
0.00136743
0.00135234
0.00134027
0.00133097
0.00132417
0.00132009
0.00131831
0.00131792
0.00131992
0.00132436
0.00133111
0.00134029
0.00135205
0.00136659
0.00138416
0.00140506
0.00142966
0.00145848
0.0014921
0.00153131
0.0015772
0.00163153
0.00169728
0.00177892
0.00188541
0.00203373
0.00223197
0.00247456
0.00274037
0.00301805
0.00327832
0.00346252
0.00353676
0.00353701
0.00342141
0.00312895
0.00272219
0.0022469
0.00176125
0.00131993
0.0009586
0.000685322
0.000485029
0.000327417
0.000179577
2.36446e-05
8.6979e-05
0.000526835
0.000822869
0.00100262
0.00112646
0.00123166
0.00134566
0.00148626
0.0016588
0.00185514
0.00205625
0.00223774
0.00237077
0.00243043
0.00243886
0.00239915
0.00232285
0.00221043
0.00208732
0.00197582
0.00187571
0.001788
0.00170972
0.00163948
0.00157625
0.00151883
0.00146761
0.00142217
0.00138261
0.00134864
0.00132007
0.00129655
0.00127764
0.00126287
0.00125174
0.00124372
0.00123845
0.00123588
0.00123497
0.00123532
0.00123794
0.00124179
0.0012474
0.00125456
0.00126336
0.00127388
0.00128627
0.00130073
0.00131746
0.00133674
0.00135882
0.00138384
0.00141211
0.00144392
0.00147965
0.00151961
0.00156487
0.00161728
0.0016806
0.00176198
0.00187313
0.002036
0.00227675
0.00257317
0.00289538
0.00321532
0.00345947
0.00356479
0.00357659
0.00345415
0.00311667
0.00264675
0.00210893
0.00157837
0.00111924
0.000764299
0.000510428
0.000328158
0.000170041
2.21211e-05
0.000114092
0.000653087
0.000990528
0.00119241
0.00133143
0.00144958
0.00157578
0.00172579
0.00189996
0.00208434
0.00225588
0.00238367
0.00244021
0.0024467
0.00240673
0.00231744
0.00218836
0.00205425
0.00192962
0.00181998
0.00172277
0.00163699
0.0015602
0.00149167
0.00143084
0.00137746
0.00133172
0.00129323
0.00126174
0.00123663
0.00121726
0.00120285
0.00119262
0.0011858
0.00118212
0.00118056
0.00118024
0.00118176
0.00118447
0.00118831
0.00119338
0.00119949
0.00120685
0.00121548
0.00122553
0.00123716
0.00125055
0.00126586
0.00128325
0.00130288
0.00132483
0.0013492
0.00137609
0.00140557
0.00143784
0.00147322
0.00151124
0.0015523
0.00159726
0.00164863
0.00171251
0.00180008
0.00193036
0.00213752
0.00244758
0.00280683
0.00318521
0.00348209
0.00361102
0.00362689
0.00348388
0.00308569
0.00254301
0.00194305
0.00137762
0.000914827
0.000575643
0.000344258
0.000170542
2.20245e-05
0.000147446
0.000786346
0.00116823
0.00139163
0.00154349
0.00167002
0.00180086
0.00194914
0.00211047
0.00226659
0.00238815
0.00244309
0.00244941
0.00241016
0.00231277
0.00217298
0.00202913
0.00189333
0.00177294
0.00166774
0.00157481
0.00149294
0.00142071
0.00135796
0.00130441
0.00125986
0.00122394
0.00119585
0.0011747
0.00115941
0.00114892
0.0011422
0.00113873
0.00113726
0.00113695
0.00113796
0.00113994
0.00114282
0.0011464
0.00115079
0.00115607
0.00116235
0.00116984
0.00117868
0.0011891
0.0012013
0.00121551
0.00123193
0.00125074
0.00127207
0.00129602
0.0013226
0.00135172
0.00138319
0.00141671
0.00145197
0.00148877
0.0015272
0.00156729
0.00160849
0.00165276
0.00170527
0.00177545
0.00188219
0.00205899
0.0023583
0.00275253
0.00318344
0.00352215
0.00366367
0.00367424
0.00348591
0.00300892
0.00238796
0.00173451
0.00115305
0.000704319
0.000392611
0.000181724
2.33217e-05
0.000184824
0.000927239
0.00135219
0.00159517
0.0017562
0.00188499
0.00201141
0.00214603
0.0022808
0.00239263
0.00244558
0.00245251
0.00241419
0.00231463
0.00216893
0.00201444
0.00186835
0.00173746
0.00162363
0.00152448
0.00143784
0.00136291
0.00129899
0.00124592
0.00120313
0.00116984
0.00114492
0.00112703
0.00111478
0.00110685
0.00110212
0.00109978
0.0010988
0.00109854
0.00109884
0.00109986
0.00110129
0.00110324
0.0011058
0.00110912
0.0011134
0.00111884
0.00112568
0.00113413
0.00114444
0.00115683
0.00117156
0.00118886
0.00120894
0.001232
0.00125819
0.00128757
0.00132009
0.00135555
0.00139353
0.00143341
0.00147435
0.0015155
0.00155626
0.00159676
0.00163662
0.00167676
0.00172111
0.00177924
0.00187052
0.00202921
0.00230777
0.00273016
0.00320801
0.0035737
0.00371518
0.00370366
0.00343236
0.00286081
0.00216273
0.00147604
0.00090469
0.000492102
0.000214805
2.77465e-05
0.000225115
0.00107233
0.00153778
0.00179751
0.00196314
0.00208721
0.00219973
0.00230936
0.00240581
0.00245421
0.00246121
0.00242273
0.00232517
0.0021769
0.00201363
0.00185619
0.00171487
0.00159181
0.00148594
0.0013948
0.00131706
0.00125215
0.00119938
0.00115802
0.00112679
0.00110417
0.00108846
0.00107798
0.00107124
0.001067
0.00106431
0.0010625
0.00106105
0.00105979
0.00105876
0.00105809
0.00105782
0.00105785
0.00105878
0.00106063
0.0010637
0.00106815
0.00107425
0.0010822
0.00109223
0.00110458
0.00111949
0.00113721
0.00115799
0.0011821
0.00120977
0.00124119
0.00127648
0.00131558
0.00135824
0.00140389
0.00145161
0.00150005
0.00154759
0.00159269
0.0016346
0.00167303
0.00170991
0.00174954
0.00179929
0.00188121
0.00202688
0.00229409
0.00273924
0.00325837
0.00363048
0.00375848
0.00368908
0.00329833
0.00261781
0.00185954
0.00117103
0.000642895
0.000280083
3.73142e-05
0.000267019
0.00121782
0.00172016
0.00199325
0.00215847
0.00227081
0.00236071
0.00243628
0.00247593
0.00248099
0.0024398
0.0023463
0.00219821
0.00202821
0.0018594
0.00170623
0.0015732
0.00145953
0.00136318
0.0012822
0.00121563
0.00116259
0.00112183
0.00109177
0.00107042
0.00105579
0.00104595
0.00103929
0.00103453
0.00103076
0.00102737
0.00102405
0.00102069
0.00101735
0.00101419
0.00101138
0.00100909
0.00100779
0.00100735
0.00100783
0.00101004
0.00101379
0.00101937
0.00102695
0.00103671
0.00104889
0.00106369
0.00108138
0.00110222
0.00112652
0.0011546
0.00118678
0.00122334
0.00126449
0.00131026
0.00136042
0.00141435
0.00147085
0.00152811
0.00158369
0.00163489
0.0016798
0.00171816
0.00174793
0.00178285
0.00183046
0.0019063
0.00204622
0.00231426
0.00278294
0.00333872
0.00368124
0.00377104
0.00361328
0.0030523
0.00227196
0.00148477
0.000836537
0.000369601
5.11178e-05
0.000309195
0.00135998
0.00189483
0.00217756
0.00233727
0.00243161
0.00249082
0.00251729
0.00251722
0.00247005
0.00238036
0.0022342
0.00205958
0.00187995
0.00171358
0.00156868
0.00144579
0.00134276
0.00125747
0.00118825
0.00113388
0.00109275
0.00106281
0.00104177
0.0010273
0.00101728
0.00100999
0.00100413
0.000998827
0.000993583
0.000988176
0.000982592
0.000976957
0.00097148
0.000966386
0.000961905
0.000958262
0.00095584
0.000954746
0.00095454
0.000956234
0.000959692
0.000965032
0.000972415
0.000981995
0.000993952
0.00100849
0.00102583
0.00104626
0.00107009
0.00109767
0.00112942
0.00116577
0.00120711
0.00125381
0.00130604
0.00136366
0.00142604
0.00149182
0.00155872
0.00162347
0.00168203
0.00173187
0.00177247
0.00179336
0.00182181
0.00186876
0.00194203
0.00208354
0.00236673
0.00286816
0.00344146
0.00371448
0.00374162
0.0034247
0.00268549
0.00182804
0.00106185
0.000477495
6.81704e-05
0.000350589
0.00149488
0.00205801
0.00234696
0.00249541
0.00256264
0.00258339
0.00257127
0.00251845
0.00243046
0.0022865
0.00210907
0.00191966
0.0017391
0.00157996
0.00144548
0.00133387
0.00124253
0.0011693
0.00111232
0.00106963
0.00103881
0.0010172
0.00100217
0.000991404
0.000983065
0.000975829
0.000968862
0.00096173
0.000954295
0.000946623
0.000938898
0.000931367
0.000924289
0.000917908
0.000912449
0.000908113
0.000905205
0.000903855
0.000903526
0.000905079
0.000908541
0.00091386
0.0009212
0.000930673
0.000942428
0.000956637
0.000973507
0.000993289
0.00101629
0.00104286
0.00107345
0.00110855
0.00114871
0.00119449
0.00124642
0.00130486
0.00136982
0.00144071
0.00151607
0.00159319
0.00166793
0.00173479
0.00179005
0.00182838
0.00184416
0.00186514
0.00191196
0.00198584
0.00213687
0.00245184
0.00300089
0.00353911
0.00374704
0.00364112
0.00307079
0.00218856
0.00131135
0.000598052
8.74228e-05
0.000390644
0.00162022
0.00220688
0.00249592
0.00262588
0.00266447
0.00265295
0.00259519
0.00249853
0.00235736
0.00217814
0.00198028
0.00178519
0.00160944
0.00146025
0.00133734
0.00123774
0.00115862
0.00109752
0.00105197
0.00101922
0.000996225
0.000980055
0.000968165
0.000958567
0.000949886
0.000941292
0.000932396
0.000923122
0.000913593
0.000904043
0.000894747
0.00088598
0.00087799
0.000870993
0.000865167
0.00086066
0.000857779
0.000856493
0.000856234
0.000857956
0.000861553
0.000866965
0.000874335
0.000883745
0.000895324
0.000909216
0.000925602
0.000944702
0.00096679
0.000992205
0.00102136
0.00105476
0.001093
0.00113677
0.0011868
0.00124381
0.00130838
0.00138068
0.00146023
0.00154543
0.00163312
0.00171819
0.00179352
0.00185375
0.0018864
0.00189776
0.00191144
0.00195817
0.00203714
0.00220714
0.0025734
0.0031735
0.00360673
0.00371041
0.0034005
0.00255512
0.00158148
0.000727836
0.00010802
0.000427828
0.00173363
0.0023363
0.00261997
0.00272913
0.00274496
0.0026937
0.00259045
0.00245115
0.0022687
0.00206356
0.00185428
0.00166007
0.00149268
0.00135486
0.00124408
0.00115674
0.00108964
0.00103976
0.00100391
0.000978711
0.000960873
0.000947569
0.000936617
0.000926529
0.000916443
0.000905979
0.000895099
0.000883967
0.000872852
0.000862051
0.000851847
0.000842485
0.000834168
0.000827055
0.000821272
0.000816912
0.000814309
0.000813229
0.000813111
0.000815102
0.000818851
0.000824365
0.000831759
0.000841106
0.000852517
0.000866117
0.000882063
0.000900546
0.000921805
0.000946137
0.000973916
0.00100561
0.00104179
0.00108316
0.00113054
0.00118486
0.00124705
0.00131792
0.00139787
0.00148647
0.00158197
0.00168068
0.00177643
0.0018604
0.00192109
0.00194626
0.00195328
0.00196081
0.00200804
0.00209682
0.0023005
0.00275089
0.00336866
0.00364818
0.00357506
0.00290367
0.00186716
0.000863689
0.000129162
0.000460715
0.00183207
0.00244429
0.0027196
0.00280939
0.00280153
0.00271078
0.00256895
0.00238405
0.00217143
0.00194878
0.00173513
0.00154625
0.00138922
0.0012634
0.00116484
0.00108941
0.0010334
0.000993117
0.000964766
0.000944686
0.000929688
0.000917317
0.000905905
0.000894496
0.000882682
0.000870431
0.000857935
0.000845483
0.00083339
0.000821944
0.000811385
0.000801903
0.000793639
0.000786698
0.000781154
0.000777064
0.000774775
0.0007739
0.000773936
0.000776131
0.000779973
0.000785527
0.000792891
0.000802136
0.000813362
0.000826683
0.000842238
0.000860194
0.000880757
0.000904184
0.000930796
0.000961002
0.00099532
0.0010344
0.00107906
0.00113028
0.00118917
0.00125693
0.00133461
0.00142281
0.00152113
0.0016275
0.00173738
0.00184319
0.0019342
0.00199133
0.00200661
0.0020085
0.00200976
0.00206119
0.00216792
0.00243368
0.00298397
0.00349397
0.00362532
0.00321488
0.0021631
0.0010008
0.000151555
0.000488432
0.00191406
0.00252986
0.00279498
0.00286965
0.00283391
0.00270584
0.0025251
0.00230655
0.002071
0.0018379
0.00162509
0.00144437
0.00129869
0.00118495
0.00109821
0.0010338
0.00098741
0.000954741
0.000931687
0.000914629
0.000900735
0.00088807
0.000875505
0.00086255
0.000849149
0.000835497
0.0008219
0.000808685
0.000796143
0.000784511
0.000773969
0.000764641
0.000756616
0.00074995
0.000744685
0.000740854
0.000738775
0.000738004
0.0007382
0.000740443
0.000744281
0.000749779
0.000757032
0.000766113
0.000777117
0.000790155
0.000805351
0.000822857
0.000842852
0.000865556
0.000891243
0.000920263
0.00095306
0.00099021
0.00103245
0.00108073
0.00113619
0.00120019
0.0012742
0.00135955
0.00145705
0.00156625
0.00168449
0.00180588
0.00192026
0.00201295
0.00205952
0.00206772
0.00206168
0.00205894
0.00211727
0.00226226
0.00263387
0.00325563
0.00355061
0.00340877
0.00245907
0.00114188
0.000174546
0.000510585
0.00197955
0.00259411
0.00284823
0.00290904
0.00284562
0.00268752
0.00246938
0.00222341
0.00197143
0.00173349
0.00152517
0.00135423
0.00122022
0.0011182
0.00104247
0.000987789
0.000949263
0.000922234
0.000902562
0.000886933
0.00087302
0.000859432
0.000845524
0.00083117
0.000816545
0.000801962
0.000787756
0.000774228
0.000761612
0.00075008
0.000739747
0.000730683
0.000722933
0.000716524
0.000711476
0.000707808
0.000705812
0.000705076
0.000705303
0.000707464
0.000711189
0.000716531
0.000723588
0.000732436
0.000743173
0.000755906
0.000770754
0.000787857
0.000807377
0.000829505
0.000854477
0.000882587
0.000914213
0.000949845
0.000990126
0.0010359
0.00108825
0.00114853
0.0012184
0.00129962
0.00139385
0.00150207
0.00162369
0.00175536
0.00188972
0.00201431
0.00209728
0.00212592
0.00212666
0.00211029
0.0021079
0.00218472
0.00240078
0.00291943
0.00340057
0.00348048
0.00275973
0.00130525
0.000201403
0.000527011
0.00202914
0.0026384
0.00288104
0.0029291
0.00284026
0.00265176
0.00240567
0.00213832
0.00187547
0.00163698
0.00143556
0.0012752
0.00115266
0.00106166
0.000995814
0.000949346
0.000916928
0.000893789
0.000876009
0.000860738
0.000846193
0.000831482
0.000816347
0.000800911
0.000785476
0.000770388
0.000755956
0.000742421
0.000729952
0.000718654
0.000708588
0.000699786
0.000692263
0.000686028
0.000681091
0.000677469
0.000675428
0.000674655
0.000674781
0.000676747
0.000680259
0.000685357
0.00069214
0.000700693
0.000711113
0.00072351
0.000738002
0.000754723
0.000773822
0.000795472
0.00081988
0.000847298
0.000878044
0.000912532
0.000951306
0.000995094
0.00104486
0.00110189
0.00116779
0.00124452
0.00133423
0.00143887
0.00155941
0.00169466
0.00183967
0.0019842
0.00211166
0.00218065
0.00219384
0.00217439
0.00214902
0.0021618
0.00227779
0.00263053
0.00323209
0.00348011
0.00304376
0.00151243
0.00023708
0.000537972
0.00206379
0.00266371
0.0028936
0.00292923
0.00282265
0.0026067
0.00233746
0.00205408
0.00178493
0.00154902
0.00135596
0.00120634
0.00109474
0.00101381
0.000956552
0.000916743
0.000888838
0.00086818
0.000851241
0.000835694
0.000820273
0.000804501
0.000788397
0.000772233
0.000756356
0.000741089
0.000726685
0.000713317
0.000701089
0.000690053
0.000680231
0.000671629
0.000664246
0.000658083
0.000653152
0.000649468
0.000647257
0.000646362
0.00064632
0.000647992
0.000651211
0.000655994
0.000662441
0.000670643
0.000680702
0.000692728
0.000706844
0.000723178
0.000741877
0.000763103
0.000787041
0.000813913
0.000843994
0.000877631
0.000915283
0.000957566
0.00100531
0.00105966
0.00112212
0.00119463
0.00127958
0.00137955
0.00149681
0.00163223
0.00178369
0.00194406
0.00209935
0.00221319
0.00225677
0.00225768
0.00220561
0.00217809
0.00222495
0.00242597
0.00296086
0.00334808
0.00324042
0.00176899
0.000284056
0.000543535
0.00208381
0.00267102
0.00289096
0.00291922
0.00279072
0.00255471
0.00226743
0.00197271
0.00170088
0.0014697
0.00128572
0.00114662
0.00104519
0.000973213
0.000923198
0.000888606
0.000863882
0.000844657
0.000827881
0.00081175
0.000795445
0.000778803
0.000762023
0.000745443
0.000729402
0.000714171
0.000699937
0.000686806
0.00067483
0.000664023
0.000654381
0.000645896
0.000638561
0.000632379
0.000627363
0.000623538
0.000621052
0.000619933
0.000619729
0.000621026
0.000623893
0.000628311
0.000634376
0.000642184
0.000651841
0.000663463
0.000677172
0.000693103
0.000711397
0.000732214
0.000755727
0.00078214
0.000811693
0.000844685
0.000881506
0.000922671
0.000968889
0.00102114
0.00108077
0.0011496
0.00122999
0.00132482
0.00143714
0.00156936
0.00172175
0.00189025
0.002064
0.00222341
0.00231239
0.00233041
0.0022994
0.00223067
0.00221353
0.00232167
0.00271944
0.00323495
0.00332497
0.0020676
0.000340621
0.000543311
0.00209179
0.00266682
0.00287794
0.00289545
0.00275027
0.00249837
0.00219768
0.00189557
0.00162383
0.00139877
0.00122409
0.00109498
0.00100279
0.00093861
0.000894545
0.000863916
0.000841327
0.000822806
0.000805809
0.000789002
0.000771927
0.000754643
0.00073745
0.000720695
0.000704676
0.000689601
0.000675592
0.000662702
0.000650943
0.000640304
0.000630766
0.000622317
0.00061495
0.000608674
0.000603508
0.000599484
0.000596663
0.000595269
0.000594879
0.000595767
0.000598245
0.000602267
0.000607918
0.000615301
0.000624524
0.000635709
0.000648981
0.000664479
0.000682347
0.000702743
0.00072584
0.000751828
0.000780929
0.000813407
0.000849596
0.000889933
0.000935016
0.000985676
0.00104309
0.00110888
0.0011853
0.00127525
0.00138224
0.00150979
0.00166028
0.0018327
0.00201986
0.00220567
0.00234534
0.00239687
0.00239113
0.00230588
0.00224542
0.00227344
0.00250813
0.00308686
0.00333802
0.00239689
0.00040515
0.00054045
0.00209028
0.00265243
0.00285066
0.00285961
0.00270307
0.00243969
0.00212976
0.00182356
0.00155395
0.00133579
0.00117024
0.0010504
0.000966465
0.000908933
0.000869653
0.000841956
0.000820724
0.000802437
0.000785033
0.000767584
0.000749901
0.000732189
0.000714788
0.000698021
0.00068213
0.00066726
0.000653478
0.000640797
0.0006292
0.000618661
0.000609159
0.000600679
0.000593221
0.000586798
0.000581434
0.000577167
0.000574042
0.000572316
0.000571716
0.000572193
0.000574264
0.000577871
0.000583092
0.000590029
0.000598796
0.000609515
0.000622319
0.00063735
0.000654759
0.000674707
0.000697368
0.000722931
0.000751606
0.000783636
0.000819317
0.000859025
0.000903265
0.000952741
0.00100845
0.00107183
0.00114491
0.00123048
0.00133214
0.00145409
0.00160022
0.00177217
0.0019662
0.00216941
0.00235667
0.00245679
0.00247404
0.00241396
0.00229619
0.00226295
0.00239159
0.0028712
0.00323798
0.00270789
0.000468236
0.000534022
0.00208268
0.00262491
0.00281311
0.00281556
0.00265111
0.00238025
0.00206477
0.00175718
0.00149112
0.00128019
0.00112336
0.00101196
0.000935267
0.000883318
0.000847821
0.000822239
0.000801812
0.00078348
0.000765614
0.000747612
0.000729485
0.000711519
0.000694054
0.000677372
0.000661655
0.000646994
0.000633411
0.00062089
0.000609397
0.000598903
0.000589382
0.000580826
0.000573239
0.00056664
0.000561059
0.000556538
0.000553125
0.00055104
0.000550215
0.000550311
0.000551972
0.000555161
0.000559945
0.000566425
0.000574718
0.000584949
0.000597256
0.000611787
0.000628698
0.00064816
0.00067035
0.000695461
0.000723702
0.000755305
0.00079054
0.000829742
0.000873342
0.000921938
0.000976378
0.0010379
0.00110829
0.00119012
0.00128693
0.0014032
0.00154389
0.00171292
0.00191022
0.00212763
0.00234464
0.00249872
0.00254715
0.00252073
0.00238132
0.00229124
0.00233357
0.00269975
0.00312321
0.00293664
0.000515161
0.000524062
0.00206633
0.00258911
0.00276831
0.00276512
0.00259603
0.00232131
0.00200348
0.00169664
0.0014351
0.00123139
0.00108266
0.000978842
0.000908411
0.000861084
0.000828535
0.000804445
0.00078445
0.000765923
0.000747611
0.000729166
0.000710734
0.000692639
0.000675201
0.00065865
0.000643115
0.00062864
0.000615215
0.000602806
0.00059137
0.000580875
0.0005713
0.000562641
0.000554909
0.000548128
0.000542333
0.00053757
0.000533892
0.000531439
0.000530324
0.000530151
0.000531398
0.000534172
0.000538521
0.000544542
0.000552352
0.000562079
0.000573865
0.000587864
0.00060424
0.000623172
0.000644847
0.000669464
0.000697238
0.0007284
0.000763208
0.000801967
0.000845057
0.00089299
0.000946483
0.00100659
0.00107487
0.00115363
0.00124617
0.00135701
0.00149164
0.00165556
0.00185165
0.00207575
0.0023113
0.00251749
0.00261176
0.00261677
0.00249739
0.00233666
0.00231028
0.00253918
0.0030142
0.00304121
0.000535169
0.000511055
0.00204341
0.00254667
0.00271797
0.00271006
0.0025392
0.00226381
0.00194636
0.00164199
0.00138555
0.00118879
0.00104746
0.000950325
0.000885245
0.000841704
0.000811424
0.000788367
0.000768559
0.000749773
0.000731063
0.000712278
0.000693649
0.000675509
0.000658144
0.000641735
0.000626366
0.000612044
0.000598737
0.000586398
0.000574982
0.000564458
0.00055481
0.000546039
0.000538162
0.000531207
0.000525212
0.000520226
0.000516305
0.000513514
0.00051209
0.0005117
0.000512556
0.00051493
0.000518853
0.000524419
0.000531743
0.000540956
0.000552203
0.000565643
0.00058145
0.000599809
0.00062092
0.000644995
0.000672256
0.000702941
0.000737307
0.000775643
0.000818295
0.000865707
0.000918493
0.000977546
0.00104421
0.00112051
0.00120947
0.00131542
0.0014441
0.00160214
0.00179503
0.0020229
0.00227441
0.00252038
0.00266958
0.0027027
0.00262134
0.00240654
0.00230869
0.00242037
0.00291236
0.00306961
0.000538124
0.000495691
0.00201608
0.00249934
0.00266338
0.00265194
0.00248175
0.00220845
0.0018937
0.00159312
0.00134206
0.00115183
0.00101712
0.000925803
0.000865241
0.000824768
0.000796222
0.000773862
0.000754092
0.00073503
0.000715983
0.000696942
0.00067819
0.000660053
0.000642778
0.000626503
0.000611273
0.000597069
0.000583843
0.000571543
0.000560123
0.000549557
0.000539831
0.000530954
0.000522943
0.000515831
0.000509657
0.00050447
0.000500321
0.000497268
0.000495536
0.00049494
0.000495443
0.000497438
0.000500951
0.000506072
0.000512914
0.000521609
0.000532305
0.000545166
0.000560372
0.000578121
0.000598623
0.000622103
0.000648799
0.000678959
0.000712846
0.000750748
0.000792989
0.000839967
0.000892213
0.000950485
0.00101593
0.00109031
0.00117632
0.00127799
0.00140102
0.00155261
0.00174009
0.00196723
0.00222792
0.00249922
0.00270819
0.00277754
0.00273503
0.00252198
0.00235074
0.00236416
0.00276039
0.0030422
0.000527754
0.000478663
0.00198604
0.00244866
0.00260586
0.00259208
0.00242458
0.00215569
0.00184558
0.00154982
0.00130422
0.00111998
0.000991092
0.000904763
0.00084797
0.000809962
0.000782728
0.000760828
0.000741009
0.000721681
0.000702354
0.000683122
0.000664295
0.000646182
0.000628994
0.000612833
0.000597712
0.000583594
0.000570422
0.00055814
0.000546705
0.000536093
0.000526297
0.000517325
0.0005092
0.000501956
0.000495631
0.000490272
0.000485929
0.000482656
0.000480636
0.000479842
0.000480036
0.000481677
0.0004848
0.000489489
0.000495858
0.000504038
0.000514177
0.000526446
0.00054103
0.000558137
0.00057799
0.000600827
0.000626903
0.000656483
0.000689844
0.000727279
0.000769105
0.000815692
0.000867507
0.000925201
0.000989745
0.00106265
0.0011463
0.00124438
0.00136233
0.00150761
0.00168889
0.00191299
0.00217845
0.00246659
0.00272643
0.00284481
0.00284168
0.00264714
0.00239294
0.00234351
0.00263713
0.00298334
0.000511962
0.000460482
0.00195401
0.00239581
0.00254654
0.0025315
0.00236838
0.00210585
0.001802
0.00151181
0.00127162
0.00109277
0.000968903
0.000886774
0.000833082
0.000797035
0.000770788
0.000749183
0.000729268
0.000709699
0.000690142
0.000670763
0.000651887
0.000633802
0.000616687
0.000600614
0.000585573
0.000571516
0.000558378
0.000546103
0.000534651
0.000523999
0.000514145
0.000505098
0.000496884
0.000489535
0.000483089
0.000477592
0.000473089
0.000469633
0.000467351
0.000466348