/*--------------------------------*- C++ -*----------------------------------*\
  =========                 |
  \\      /  F ield         | OpenFOAM: The Open Source CFD Toolbox
   \\    /   O peration     | Website:  https://openfoam.org
    \\  /    A nd           | Version:  13
     \\/     M anipulation  |
\*---------------------------------------------------------------------------*/
FoamFile
{
    format      ascii;
    class       volVectorField;
    location    "5.4";
    object      U;
}
// * * * * * * * * * * * * * * * * * * * * * * * * * * * * * * * * * * * * * //

dimensions      [0 1 -1 0 0 0 0];

internalField   nonuniform List<vector> 
6400
(
(-0.000114453 7.49858e-05 0)
(0.000420481 -0.0001612 0)
(0.00195715 -0.000399997 0)
(0.00399462 -0.000506368 0)
(0.00603344 -0.000447829 0)
(0.00774412 -0.000300958 0)
(0.00889743 -0.00012448 0)
(0.00948807 9.6128e-06 0)
(0.00963356 6.15205e-05 0)
(0.00954886 4.31091e-05 0)
(0.00936758 -2.71601e-05 0)
(0.00923509 -0.000126238 0)
(0.00922193 -0.000228725 0)
(0.00932346 -0.000313254 0)
(0.00949662 -0.000383122 0)
(0.00966688 -0.000436078 0)
(0.00976495 -0.000471683 0)
(0.00973783 -0.000478958 0)
(0.00955465 -0.000465733 0)
(0.00912517 -0.000430414 0)
(0.00840377 -0.000383323 0)
(0.00734282 -0.000335078 0)
(0.00589312 -0.000290265 0)
(0.00403029 -0.000268357 0)
(0.0017226 -0.000304927 0)
(-0.00102189 -0.000406768 0)
(-0.00417522 -0.000479128 0)
(-0.00797281 -0.000361349 0)
(-0.0125348 5.83801e-05 0)
(-0.0178465 0.000815453 0)
(-0.024578 0.00177914 0)
(-0.0322279 0.00265149 0)
(-0.040567 0.00337397 0)
(-0.0493368 0.003931 0)
(-0.0582896 0.004322 0)
(-0.0671944 0.00455528 0)
(-0.0758654 0.00465048 0)
(-0.0841428 0.00462879 0)
(-0.0919058 0.00451075 0)
(-0.0990529 0.00431437 0)
(-0.105505 0.00405241 0)
(-0.111195 0.00373404 0)
(-0.116069 0.00336309 0)
(-0.120093 0.00294101 0)
(-0.123236 0.00247286 0)
(-0.125453 0.00198102 0)
(-0.12651 0.00155292 0)
(-0.126811 0.00110299 0)
(-0.125937 0.000341912 0)
(-0.123932 -0.000194767 0)
(-0.120846 -0.000891184 0)
(-0.116572 -0.00151567 0)
(-0.111171 -0.00217367 0)
(-0.104605 -0.00278995 0)
(-0.0969514 -0.00339615 0)
(-0.088315 -0.00398988 0)
(-0.0786786 -0.00452583 0)
(-0.0682008 -0.00498558 0)
(-0.0570539 -0.00535988 0)
(-0.0454075 -0.00559387 0)
(-0.0335099 -0.00566507 0)
(-0.0216322 -0.0055493 0)
(-0.0100623 -0.00523999 0)
(0.000865359 -0.00475006 0)
(0.0107903 -0.00407102 0)
(0.0193968 -0.00317043 0)
(0.0264033 -0.00214342 0)
(0.0315321 -0.0010129 0)
(0.0347603 0.000135572 0)
(0.0355221 0.00143209 0)
(0.034508 0.00205214 0)
(0.0315058 0.00265598 0)
(0.0265754 0.00292894 0)
(0.0207302 0.00270317 0)
(0.0146914 0.00207383 0)
(0.00927594 0.00127027 0)
(0.00496969 0.000585584 0)
(0.0019541 0.000155976 0)
(0.000250684 -0.000145241 0)
(-0.000215099 -0.000332027 0)
(1.59526e-05 -0.000363477 0)
(0.00169433 -0.00196794 0)
(0.0049156 -0.00331265 0)
(0.00855479 -0.00378752 0)
(0.0119416 -0.00345145 0)
(0.0146634 -0.00264679 0)
(0.0165422 -0.00165554 0)
(0.0175878 -0.000742269 0)
(0.0179239 -8.92363e-05 0)
(0.017698 0.000266073 0)
(0.0171156 0.000368215 0)
(0.0163181 0.000292933 0)
(0.0153987 0.000153658 0)
(0.014348 5.74018e-05 0)
(0.0130986 6.48607e-05 0)
(0.0115505 0.000190282 0)
(0.00961083 0.000414724 0)
(0.00722954 0.00071537 0)
(0.0042986 0.00111075 0)
(0.00071868 0.00161523 0)
(-0.00361381 0.00223339 0)
(-0.00888871 0.00297872 0)
(-0.0152445 0.00383207 0)
(-0.022733 0.00476812 0)
(-0.0314018 0.00580135 0)
(-0.0413285 0.00694513 0)
(-0.0524816 0.00822157 0)
(-0.064534 0.00962361 0)
(-0.0771567 0.01112 0)
(-0.0898678 0.0125771 0)
(-0.10212 0.0137192 0)
(-0.11402 0.0144748 0)
(-0.125358 0.0148442 0)
(-0.136012 0.0148392 0)
(-0.145893 0.0145214 0)
(-0.154925 0.0139387 0)
(-0.163067 0.0131436 0)
(-0.170282 0.0121804 0)
(-0.176553 0.0110857 0)
(-0.181866 0.00988987 0)
(-0.186208 0.00861185 0)
(-0.189574 0.00726748 0)
(-0.191956 0.00586464 0)
(-0.193345 0.00441182 0)
(-0.193737 0.00291569 0)
(-0.19311 0.00138048 0)
(-0.191433 -0.000185508 0)
(-0.188736 -0.00181386 0)
(-0.184954 -0.00352984 0)
(-0.180102 -0.00526681 0)
(-0.174172 -0.00705107 0)
(-0.167139 -0.00883937 0)
(-0.159013 -0.0106258 0)
(-0.149782 -0.0123746 0)
(-0.139474 -0.014056 0)
(-0.128106 -0.015618 0)
(-0.115811 -0.0170249 0)
(-0.102671 -0.018231 0)
(-0.0888426 -0.0191547 0)
(-0.0745438 -0.0197412 0)
(-0.0599681 -0.0199282 0)
(-0.045371 -0.0196645 0)
(-0.0310354 -0.0189141 0)
(-0.0172608 -0.0176678 0)
(-0.00433539 -0.0159132 0)
(0.00743529 -0.0136571 0)
(0.0177661 -0.0109608 0)
(0.0264249 -0.0079129 0)
(0.0332194 -0.00459917 0)
(0.0379291 -0.00119437 0)
(0.0405586 0.00204031 0)
(0.0409529 0.00503263 0)
(0.0391858 0.00753964 0)
(0.0354339 0.00929161 0)
(0.0298798 0.00963897 0)
(0.0228379 0.00885498 0)
(0.0152999 0.00714013 0)
(0.00838423 0.00490794 0)
(0.00316974 0.00245234 0)
(0.0002467 0.000378418 0)
(0.000186763 -0.00153052 0)
(0.00298397 -0.00506217 0)
(0.00705806 -0.00722276 0)
(0.0109331 -0.00754752 0)
(0.01415 -0.0065539 0)
(0.0164908 -0.00486375 0)
(0.0179661 -0.00301795 0)
(0.018634 -0.00134239 0)
(0.0185682 -1.42029e-05 0)
(0.017856 0.000886106 0)
(0.0166451 0.00137907 0)
(0.0150096 0.00160648 0)
(0.0129665 0.00175207 0)
(0.0104786 0.00198349 0)
(0.00746598 0.00240492 0)
(0.00382379 0.0030455 0)
(-0.000559271 0.00388925 0)
(-0.00584335 0.0049439 0)
(-0.0121473 0.00622996 0)
(-0.0195895 0.00778396 0)
(-0.0282575 0.009619 0)
(-0.0381506 0.0116893 0)
(-0.0492277 0.0139125 0)
(-0.0613802 0.0161756 0)
(-0.0743756 0.0183573 0)
(-0.0879297 0.0203641 0)
(-0.101691 0.0221098 0)
(-0.115353 0.0235308 0)
(-0.12859 0.024563 0)
(-0.141131 0.0251876 0)
(-0.152801 0.0253951 0)
(-0.163528 0.0251755 0)
(-0.17324 0.0245784 0)
(-0.181984 0.0236318 0)
(-0.189766 0.0223763 0)
(-0.196617 0.0208764 0)
(-0.202563 0.0191781 0)
(-0.20763 0.0173273 0)
(-0.211834 0.0153527 0)
(-0.215189 0.013287 0)
(-0.217707 0.0111475 0)
(-0.219389 0.00894302 0)
(-0.220236 0.00668243 0)
(-0.220241 0.00436506 0)
(-0.219395 0.00198949 0)
(-0.217684 -0.000446288 0)
(-0.215071 -0.00294943 0)
(-0.211539 -0.00552851 0)
(-0.207071 -0.00817454 0)
(-0.201638 -0.0108633 0)
(-0.195216 -0.0136057 0)
(-0.187784 -0.0163638 0)
(-0.179333 -0.0191208 0)
(-0.169858 -0.0218349 0)
(-0.159372 -0.0244578 0)
(-0.147903 -0.0269182 0)
(-0.135519 -0.0291444 0)
(-0.122308 -0.0310512 0)
(-0.108376 -0.0325344 0)
(-0.093897 -0.0335038 0)
(-0.0790769 -0.0338679 0)
(-0.0641399 -0.0335415 0)
(-0.049358 -0.0324602 0)
(-0.0350354 -0.0306233 0)
(-0.021456 -0.0280253 0)
(-0.00887547 -0.0246947 0)
(0.00245385 -0.020685 0)
(0.0123017 -0.0161175 0)
(0.0205025 -0.0111403 0)
(0.0269286 -0.00594508 0)
(0.0315052 -0.000759813 0)
(0.0342555 0.00420658 0)
(0.035046 0.0086057 0)
(0.0337698 0.0120848 0)
(0.0306456 0.0145468 0)
(0.0258697 0.0153023 0)
(0.0195349 0.0144296 0)
(0.0125164 0.0119783 0)
(0.00588445 0.00805826 0)
(0.000790551 0.00309464 0)
(0.00038444 -0.00335427 0)
(0.00399629 -0.00897934 0)
(0.00822593 -0.0113204 0)
(0.0116794 -0.0109377 0)
(0.0141995 -0.00900495 0)
(0.0157675 -0.00642117 0)
(0.0164739 -0.00374603 0)
(0.0164068 -0.00131804 0)
(0.0156406 0.000669214 0)
(0.0142374 0.0021414 0)
(0.0121928 0.00317484 0)
(0.00948484 0.00395148 0)
(0.00606434 0.00469467 0)
(0.0018636 0.00559963 0)
(-0.00319202 0.00678427 0)
(-0.00919105 0.00829476 0)
(-0.0162517 0.0101449 0)
(-0.0244929 0.0123364 0)
(-0.0339965 0.0148611 0)
(-0.0447846 0.0176951 0)
(-0.0567869 0.0207571 0)
(-0.0698244 0.023909 0)
(-0.0836193 0.0269807 0)
(-0.0978264 0.0298084 0)
(-0.112149 0.0323 0)
(-0.126252 0.0342816 0)
(-0.139848 0.0356421 0)
(-0.152649 0.0363795 0)
(-0.164476 0.0365607 0)
(-0.175277 0.0362302 0)
(-0.18502 0.0354524 0)
(-0.193758 0.0342642 0)
(-0.201526 0.0327035 0)
(-0.208397 0.0308351 0)
(-0.214412 0.0287041 0)
(-0.219632 0.0263653 0)
(-0.224096 0.023857 0)
(-0.227836 0.0212192 0)
(-0.230871 0.0184771 0)
(-0.233219 0.0156507 0)
(-0.234883 0.0127537 0)
(-0.235865 0.00979034 0)
(-0.236156 0.00676102 0)
(-0.235746 0.00366092 0)
(-0.234615 0.000485797 0)
(-0.232739 -0.002769 0)
(-0.230085 -0.0061065 0)
(-0.226628 -0.00954283 0)
(-0.222337 -0.0130759 0)
(-0.217178 -0.016694 0)
(-0.211113 -0.0203855 0)
(-0.20411 -0.0241173 0)
(-0.196146 -0.0278615 0)
(-0.187201 -0.0315715 0)
(-0.177264 -0.0351813 0)
(-0.166339 -0.0385975 0)
(-0.154456 -0.0417136 0)
(-0.141681 -0.0444216 0)
(-0.128103 -0.0465868 0)
(-0.113841 -0.0480579 0)
(-0.0990761 -0.0487181 0)
(-0.0840202 -0.048439 0)
(-0.0689107 -0.0471251 0)
(-0.0540509 -0.044731 0)
(-0.0397943 -0.0412929 0)
(-0.0264315 -0.0368833 0)
(-0.0141984 -0.0315663 0)
(-0.00332903 -0.0255022 0)
(0.00598963 -0.0189008 0)
(0.0136303 -0.012007 0)
(0.0195251 -0.0050844 0)
(0.0236827 0.0016462 0)
(0.0261376 0.00787573 0)
(0.0269269 0.0132 0)
(0.0259131 0.0172472 0)
(0.0231003 0.0197237 0)
(0.0186834 0.0201803 0)
(0.0130314 0.0184379 0)
(0.00680149 0.0142653 0)
(0.00105007 0.00683197 0)
(0.000635806 -0.00570535 0)
(0.00466698 -0.0131703 0)
(0.00845364 -0.0150181 0)
(0.0110957 -0.0135901 0)
(0.0127017 -0.0106067 0)
(0.013334 -0.00710417 0)
(0.0131331 -0.00362617 0)
(0.0121834 -0.000478609 0)
(0.0105209 0.00218348 0)
(0.0081348 0.00434422 0)
(0.00496467 0.00611278 0)
(0.000925196 0.00769416 0)
(-0.00407308 0.00932289 0)
(-0.0101148 0.0111955 0)
(-0.0172795 0.0134363 0)
(-0.0256417 0.0161013 0)
(-0.0352637 0.0191988 0)
(-0.046173 0.0226966 0)
(-0.0583183 0.0265035 0)
(-0.0715449 0.0304963 0)
(-0.0855881 0.0344647 0)
(-0.100093 0.0381939 0)
(-0.114717 0.0415736 0)
(-0.129152 0.0443226 0)
(-0.143025 0.0463027 0)
(-0.156009 0.0475094 0)
(-0.167979 0.0479676 0)
(-0.178876 0.0477263 0)
(-0.188741 0.0468854 0)
(-0.197614 0.045542 0)
(-0.205555 0.043777 0)
(-0.21265 0.0416627 0)
(-0.218947 0.0392488 0)
(-0.224511 0.0365871 0)
(-0.229387 0.0337181 0)
(-0.233626 0.0306822 0)
(-0.237256 0.0275115 0)
(-0.240305 0.0242359 0)
(-0.242788 0.0208684 0)
(-0.244711 0.0174229 0)
(-0.246077 0.0139101 0)
(-0.246882 0.0103224 0)
(-0.247118 0.00665605 0)
(-0.246771 0.00289905 0)
(-0.245822 -0.000958231 0)
(-0.244245 -0.00492528 0)
(-0.241997 -0.00900821 0)
(-0.239047 -0.0132164 0)
(-0.235353 -0.0175506 0)
(-0.230886 -0.0220132 0)
(-0.225607 -0.0265972 0)
(-0.219448 -0.0312606 0)
(-0.212371 -0.0359679 0)
(-0.204338 -0.0406697 0)
(-0.195313 -0.0452874 0)
(-0.185278 -0.0497117 0)
(-0.174215 -0.0537992 0)
(-0.162164 -0.0574207 0)
(-0.149181 -0.0604075 0)
(-0.135348 -0.062563 0)
(-0.120811 -0.0637297 0)
(-0.105754 -0.0637334 0)
(-0.090407 -0.0624289 0)
(-0.0750149 -0.0597311 0)
(-0.0599057 -0.0556276 0)
(-0.0455199 -0.050233 0)
(-0.0321512 -0.0436822 0)
(-0.0200358 -0.0361739 0)
(-0.00941626 -0.0279632 0)
(-0.000456976 -0.0193596 0)
(0.00675388 -0.0106938 0)
(0.0122081 -0.00226593 0)
(0.015969 0.00560841 0)
(0.0181157 0.0126022 0)
(0.0186694 0.0183511 0)
(0.0176384 0.0224037 0)
(0.0150403 0.0243004 0)
(0.0110705 0.0236992 0)
(0.00607672 0.0199405 0)
(0.000898321 0.0105313 0)
(0.00092183 -0.00844142 0)
(0.00490113 -0.0170811 0)
(0.00780799 -0.0178239 0)
(0.00937693 -0.0152505 0)
(0.00995445 -0.0112028 0)
(0.00958403 -0.00682018 0)
(0.00840981 -0.0025646 0)
(0.00647583 0.0013189 0)
(0.00376765 0.00473165 0)
(0.000220024 0.00770666 0)
(-0.00426955 0.0103877 0)
(-0.00981191 0.0129895 0)
(-0.0165062 0.0157371 0)
(-0.024431 0.018811 0)
(-0.0336407 0.0223175 0)
(-0.0441528 0.0262836 0)
(-0.0559321 0.0306637 0)
(-0.0688669 0.0353681 0)
(-0.0827567 0.0401834 0)
(-0.09726 0.0448593 0)
(-0.112013 0.0492456 0)
(-0.126688 0.0529879 0)
(-0.140845 0.0558939 0)
(-0.154088 0.0578836 0)
(-0.166267 0.0589127 0)
(-0.17736 0.0590546 0)
(-0.187411 0.0584283 0)
(-0.196497 0.0571689 0)
(-0.204698 0.0553874 0)
(-0.212077 0.0531772 0)
(-0.218704 0.0506134 0)
(-0.224637 0.0477563 0)
(-0.229925 0.0446561 0)
(-0.234621 0.0413557 0)
(-0.238762 0.0378889 0)
(-0.242381 0.0342869 0)
(-0.245498 0.0305755 0)
(-0.248136 0.0267765 0)
(-0.250306 0.0228998 0)
(-0.25201 0.0189514 0)
(-0.253247 0.0149355 0)
(-0.254025 0.0108352 0)
(-0.254332 0.00664346 0)
(-0.254165 0.00234128 0)
(-0.253515 -0.00209174 0)
(-0.252366 -0.00667557 0)
(-0.250693 -0.0114195 0)
(-0.248463 -0.0163321 0)
(-0.245617 -0.0214068 0)
(-0.24211 -0.0266479 0)
(-0.237879 -0.0320511 0)
(-0.232869 -0.0375873 0)
(-0.226981 -0.043196 0)
(-0.220147 -0.0488207 0)
(-0.212304 -0.0543826 0)
(-0.203491 -0.0598329 0)
(-0.193585 -0.0649656 0)
(-0.182562 -0.0696066 0)
(-0.170467 -0.073568 0)
(-0.157318 -0.076594 0)
(-0.143233 -0.0784894 0)
(-0.128363 -0.0790305 0)
(-0.112902 -0.0780357 0)
(-0.0971209 -0.075351 0)
(-0.0812739 -0.070898 0)
(-0.0657539 -0.0647185 0)
(-0.051064 -0.0570963 0)
(-0.0374947 -0.0482315 0)
(-0.025341 -0.0384381 0)
(-0.0148404 -0.0281082 0)
(-0.00613912 -0.0176571 0)
(0.000717738 -0.00748047 0)
(0.00578496 0.00206287 0)
(0.00918174 0.0106391 0)
(0.0110294 0.0179112 0)
(0.0114039 0.0234603 0)
(0.0103249 0.0267967 0)
(0.00788037 0.027421 0)
(0.00443844 0.0243839 0)
(0.000522903 0.013544 0)
(0.00116588 -0.0113384 0)
(0.0046257 -0.0202134 0)
(0.00628866 -0.0195708 0)
(0.00678116 -0.0157674 0)
(0.00623573 -0.0107368 0)
(0.00482497 -0.0055194 0)
(0.00262057 -0.000484131 0)
(-0.000384931 0.00418977 0)
(-0.00425339 0.00845797 0)
(-0.00908458 0.0123895 0)
(-0.0149946 0.0161443 0)
(-0.0220919 0.0199297 0)
(-0.0304603 0.0239458 0)
(-0.0401458 0.0283376 0)
(-0.0511441 0.033165 0)
(-0.0633756 0.0383914 0)
(-0.0767109 0.0439011 0)
(-0.0908774 0.0494608 0)
(-0.105494 0.0548465 0)
(-0.120234 0.0597159 0)
(-0.134635 0.0637875 0)
(-0.148228 0.0668518 0)
(-0.160761 0.0687987 0)
(-0.172185 0.0696736 0)
(-0.182558 0.0696004 0)
(-0.191938 0.0687213 0)
(-0.200423 0.0671684 0)
(-0.208096 0.0650654 0)
(-0.21503 0.062512 0)
(-0.221282 0.059594 0)
(-0.226906 0.0563778 0)
(-0.231948 0.0529141 0)
(-0.236449 0.0492479 0)
(-0.240447 0.0454165 0)
(-0.243969 0.0414528 0)
(-0.247036 0.0373862 0)
(-0.249665 0.0332422 0)
(-0.251869 0.0290356 0)
(-0.253652 0.0247762 0)
(-0.255095 0.020363 0)
(-0.256145 0.0159116 0)
(-0.256817 0.0113731 0)
(-0.257093 0.00674806 0)
(-0.256968 0.00201662 0)
(-0.256426 -0.00283959 0)
(-0.255479 -0.00784308 0)
(-0.254128 -0.0130185 0)
(-0.25236 -0.0183944 0)
(-0.250176 -0.0240044 0)
(-0.247537 -0.0298665 0)
(-0.244415 -0.0360088 0)
(-0.240769 -0.0423955 0)
(-0.236481 -0.0489392 0)
(-0.231437 -0.0556049 0)
(-0.225515 -0.0623029 0)
(-0.218488 -0.0688541 0)
(-0.210273 -0.0750783 0)
(-0.200734 -0.0807685 0)
(-0.190014 -0.0858343 0)
(-0.178039 -0.0899464 0)
(-0.164833 -0.0928251 0)
(-0.150542 -0.0941978 0)
(-0.135298 -0.0938047 0)
(-0.119363 -0.0914633 0)
(-0.10302 -0.0870434 0)
(-0.0865414 -0.0804706 0)
(-0.0704649 -0.0719566 0)
(-0.055338 -0.0618773 0)
(-0.0414782 -0.0505631 0)
(-0.0292185 -0.0384865 0)
(-0.0187996 -0.026162 0)
(-0.0103436 -0.0141015 0)
(-0.00384635 -0.00276826 0)
(0.000812672 0.00745087 0)
(0.00382992 0.0162228 0)
(0.00538125 0.0231891 0)
(0.0055666 0.0278867 0)
(0.00446874 0.0296948 0)
(0.00246218 0.0273419 0)
(7.07605e-05 0.0153966 0)
(0.00128109 -0.0140784 0)
(0.00371602 -0.0222609 0)
(0.00418661 -0.0201486 0)
(0.00347892 -0.0150923 0)
(0.00180797 -0.00918341 0)
(-0.000671846 -0.00316155 0)
(-0.00395669 0.00268198 0)
(-0.00810074 0.00822243 0)
(-0.0131975 0.013452 0)
(-0.0193574 0.018459 0)
(-0.0266877 0.0234011 0)
(-0.0352737 0.0284619 0)
(-0.0451615 0.0337992 0)
(-0.0563407 0.0394983 0)
(-0.0687216 0.0455513 0)
(-0.0821476 0.0518373 0)
(-0.0963088 0.0581168 0)
(-0.11084 0.064122 0)
(-0.125319 0.0694752 0)
(-0.139264 0.0738688 0)
(-0.152251 0.0770714 0)
(-0.16416 0.0790453 0)
(-0.174978 0.0798694 0)
(-0.184766 0.0797027 0)
(-0.193607 0.0786741 0)
(-0.201592 0.0769321 0)
(-0.208812 0.0745999 0)
(-0.215332 0.0717875 0)
(-0.22121 0.0685821 0)
(-0.226489 0.0650592 0)
(-0.231212 0.0612791 0)
(-0.235413 0.0572914 0)
(-0.239121 0.0531398 0)
(-0.242358 0.0488666 0)
(-0.245137 0.0445101 0)
(-0.247534 0.0400354 0)
(-0.249595 0.0354685 0)
(-0.251321 0.0308313 0)
(-0.252728 0.0261205 0)
(-0.253779 0.0214216 0)
(-0.254511 0.0166214 0)
(-0.254919 0.0117432 0)
(-0.255021 0.00676343 0)
(-0.254825 0.0016696 0)
(-0.25434 -0.00355461 0)
(-0.253574 -0.0089273 0)
(-0.252518 -0.0144774 0)
(-0.251162 -0.0202266 0)
(-0.249492 -0.0261944 0)
(-0.247484 -0.0323899 0)
(-0.245104 -0.0388087 0)
(-0.242307 -0.0455118 0)
(-0.239088 -0.0525615 0)
(-0.235392 -0.0598935 0)
(-0.231151 -0.0674645 0)
(-0.226265 -0.0752179 0)
(-0.220589 -0.0828805 0)
(-0.213791 -0.0901759 0)
(-0.205471 -0.0967137 0)
(-0.195442 -0.10209 0)
(-0.183808 -0.106175 0)
(-0.170775 -0.108722 0)
(-0.15634 -0.109336 0)
(-0.140752 -0.10775 0)
(-0.124295 -0.103788 0)
(-0.107265 -0.0972857 0)
(-0.0900489 -0.0883048 0)
(-0.0733068 -0.0772066 0)
(-0.0576582 -0.0645108 0)
(-0.0434707 -0.0507202 0)
(-0.0311129 -0.0364502 0)
(-0.0208193 -0.0223447 0)
(-0.0126791 -0.0090135 0)
(-0.00662698 0.00303307 0)
(-0.00244682 0.0134105 0)
(0.00014735 0.0217901 0)
(0.00138084 0.0277667 0)
(0.00145095 0.0306655 0)
(0.000677445 0.0288395 0)
(-0.000271443 0.0160477 0)
(0.00122307 -0.0163792 0)
(0.00238989 -0.0230803 0)
(0.00158783 -0.0194093 0)
(-0.0003226 -0.0132804 0)
(-0.0030984 -0.00653983 0)
(-0.00666505 0.000285662 0)
(-0.0110613 0.00698044 0)
(-0.0163736 0.0134599 0)
(-0.0227064 0.0197344 0)
(-0.0301606 0.025892 0)
(-0.0388184 0.0320712 0)
(-0.0487251 0.0384151 0)
(-0.0598698 0.0450199 0)
(-0.0721766 0.0519048 0)
(-0.0854786 0.058963 0)
(-0.099441 0.0659518 0)
(-0.113713 0.0725567 0)
(-0.127824 0.0784031 0)
(-0.141247 0.083141 0)
(-0.153721 0.0865747 0)
(-0.165108 0.0886751 0)
(-0.17542 0.0895733 0)
(-0.184715 0.0893904 0)
(-0.193093 0.0882985 0)
(-0.200637 0.0864344 0)
(-0.207431 0.0839398 0)
(-0.213542 0.080921 0)
(-0.219018 0.0774756 0)
(-0.223903 0.0736816 0)
(-0.228235 0.0696079 0)
(-0.232049 0.0653115 0)
(-0.235376 0.060842 0)
(-0.23824 0.0562428 0)
(-0.240726 0.0515147 0)
(-0.242854 0.0466968 0)
(-0.244624 0.0418486 0)
(-0.246022 0.0369681 0)
(-0.247068 0.0320433 0)
(-0.247793 0.027073 0)
(-0.248236 0.0220589 0)
(-0.248435 0.0169802 0)
(-0.248411 0.0118406 0)
(-0.248188 0.00661982 0)
(-0.247784 0.00129963 0)
(-0.247218 -0.00414598 0)
(-0.246476 -0.00974279 0)
(-0.245564 -0.0155245 0)
(-0.244484 -0.0215237 0)
(-0.243235 -0.0277739 0)
(-0.241808 -0.0343023 0)
(-0.240185 -0.0411267 0)
(-0.238337 -0.0482525 0)
(-0.236227 -0.0556733 0)
(-0.233793 -0.0633683 0)
(-0.230956 -0.0712842 0)
(-0.227599 -0.0793244 0)
(-0.223632 -0.0876102 0)
(-0.219019 -0.0959992 0)
(-0.213532 -0.104237 0)
(-0.206852 -0.111734 0)
(-0.198328 -0.117881 0)
(-0.18748 -0.121935 0)
(-0.17474 -0.123978 0)
(-0.160258 -0.123617 0)
(-0.144365 -0.120644 0)
(-0.127276 -0.114737 0)
(-0.109466 -0.105904 0)
(-0.0914034 -0.0942541 0)
(-0.0739058 -0.0803671 0)
(-0.0576909 -0.0649826 0)
(-0.0432011 -0.048755 0)
(-0.0308212 -0.0324664 0)
(-0.0207728 -0.0168942 0)
(-0.0130841 -0.00272638 0)
(-0.00759708 0.00950173 0)
(-0.00397914 0.019407 0)
(-0.00184418 0.0266473 0)
(-0.000833549 0.0304655 0)
(-0.000539897 0.0290923 0)
(-0.000361806 0.0158661 0)
(0.00101335 -0.0177598 0)
(0.000772568 -0.0225511 0)
(-0.00133523 -0.0173931 0)
(-0.00439592 -0.0103381 0)
(-0.00826882 -0.00280064 0)
(-0.0129267 0.00483789 0)
(-0.0184359 0.0124229 0)
(-0.0248981 0.0198926 0)
(-0.0324119 0.0272561 0)
(-0.0410546 0.0345838 0)
(-0.0508699 0.0419779 0)
(-0.0618486 0.0495252 0)
(-0.0739316 0.0572593 0)
(-0.0869642 0.0651006 0)
(-0.100611 0.0728052 0)
(-0.114501 0.0800384 0)
(-0.128182 0.0864262 0)
(-0.141153 0.0915847 0)
(-0.153174 0.0953481 0)
(-0.16413 0.0977099 0)
(-0.174004 0.0987533 0)
(-0.18288 0.0986483 0)
(-0.19084 0.0975555 0)
(-0.197976 0.0956383 0)
(-0.204356 0.093028 0)
(-0.210045 0.0898479 0)
(-0.215088 0.0861935 0)
(-0.219526 0.0821539 0)
(-0.223399 0.0778028 0)
(-0.226744 0.0732066 0)
(-0.229598 0.0684206 0)
(-0.232 0.0634932 0)
(-0.233995 0.0584619 0)
(-0.235579 0.0533762 0)
(-0.2368 0.0482368 0)
(-0.237684 0.0430629 0)
(-0.238277 0.0378597 0)
(-0.238638 0.0326387 0)
(-0.238803 0.0274078 0)
(-0.238771 0.0221667 0)
(-0.238576 0.0168968 0)
(-0.238234 0.0115888 0)
(-0.237765 0.00621999 0)
(-0.237182 0.000767351 0)
(-0.236497 -0.00479836 0)
(-0.235719 -0.0105059 0)
(-0.234861 -0.016388 0)
(-0.233936 -0.0224789 0)
(-0.232951 -0.0288147 0)
(-0.231911 -0.0354307 0)
(-0.230814 -0.042361 0)
(-0.22965 -0.0496375 0)
(-0.228403 -0.0572834 0)
(-0.227037 -0.0653041 0)
(-0.225492 -0.0736787 0)
(-0.223673 -0.0823424 0)
(-0.221469 -0.0911811 0)
(-0.218732 -0.100046 0)
(-0.215246 -0.108728 0)
(-0.210891 -0.117405 0)
(-0.205475 -0.125576 0)
(-0.198481 -0.132409 0)
(-0.188997 -0.136902 0)
(-0.176647 -0.138251 0)
(-0.162275 -0.136907 0)
(-0.145956 -0.132258 0)
(-0.12817 -0.124185 0)
(-0.109459 -0.112749 0)
(-0.0904354 -0.0981948 0)
(-0.0721286 -0.0813789 0)
(-0.055373 -0.0632802 0)
(-0.0406718 -0.0447338 0)
(-0.028419 -0.0267047 0)
(-0.0187915 -0.010089 0)
(-0.0117373 0.0043512 0)
(-0.00695624 0.01607 0)
(-0.00393436 0.0246864 0)
(-0.00220587 0.0293201 0)
(-0.00112875 0.0284334 0)
(-0.00031261 0.0152565 0)
(0.000736596 -0.0181677 0)
(-0.00103763 -0.0206509 0)
(-0.00438663 -0.0141827 0)
(-0.00855643 -0.0062743 0)
(-0.013513 0.00202795 0)
(-0.0192402 0.0104822 0)
(-0.0258252 0.018978 0)
(-0.03337 0.0274555 0)
(-0.0419543 0.0359044 0)
(-0.0516213 0.044361 0)
(-0.0623657 0.0528776 0)
(-0.0741394 0.0614846 0)
(-0.0868122 0.0701281 0)
(-0.100075 0.0785703 0)
(-0.113539 0.0864738 0)
(-0.126776 0.0934616 0)
(-0.139351 0.0991611 0)
(-0.150987 0.103375 0)
(-0.161572 0.106092 0)
(-0.171082 0.107388 0)
(-0.179585 0.107437 0)
(-0.187173 0.10642 0)
(-0.19392 0.1045 0)
(-0.199896 0.101822 0)
(-0.205152 0.0985101 0)
(-0.209736 0.0946728 0)
(-0.213688 0.0904026 0)
(-0.21705 0.0857863 0)
(-0.219864 0.0808981 0)
(-0.222176 0.0758053 0)
(-0.224029 0.0705643 0)
(-0.225469 0.0652223 0)
(-0.226542 0.0598158 0)
(-0.227287 0.0543765 0)
(-0.227756 0.0489239 0)
(-0.227986 0.043479 0)
(-0.228017 0.0380516 0)
(-0.227879 0.0326438 0)
(-0.227599 0.0272513 0)
(-0.227192 0.0218683 0)
(-0.226681 0.0164782 0)
(-0.226079 0.0110649 0)
(-0.225403 0.00560592 0)
(-0.224668 7.69978e-05 0)
(-0.223885 -0.00554961 0)
(-0.223066 -0.011304 0)
(-0.222228 -0.0172192 0)
(-0.221386 -0.0233301 0)
(-0.220554 -0.0296727 0)
(-0.219746 -0.0362841 0)
(-0.218971 -0.0432019 0)
(-0.218237 -0.0504636 0)
(-0.217547 -0.0581027 0)
(-0.21689 -0.0661443 0)
(-0.21624 -0.0746015 0)
(-0.215544 -0.0834698 0)
(-0.214718 -0.0927151 0)
(-0.213637 -0.102232 0)
(-0.212114 -0.111829 0)
(-0.209928 -0.121215 0)
(-0.206783 -0.130073 0)
(-0.202419 -0.138491 0)
(-0.196553 -0.145764 0)
(-0.188393 -0.150623 0)
(-0.17669 -0.151558 0)
(-0.162319 -0.148985 0)
(-0.145505 -0.142476 0)
(-0.126903 -0.132008 0)
(-0.107148 -0.117674 0)
(-0.08711 -0.100005 0)
(-0.0680125 -0.080158 0)
(-0.0508227 -0.05939 0)
(-0.0360982 -0.0387531 0)
(-0.0242068 -0.0193944 0)
(-0.0152381 -0.00232866 0)
(-0.00901189 0.0116347 0)
(-0.00498955 0.0219286 0)
(-0.00264842 0.0275381 0)
(-0.00110919 0.0272606 0)
(-0.000125352 0.0145193 0)
(0.000205649 -0.0175062 0)
(-0.00295161 -0.0174511 0)
(-0.00743859 -0.00978966 0)
(-0.0126683 -0.00112192 0)
(-0.0186627 0.00790892 0)
(-0.0254037 0.0171692 0)
(-0.0329866 0.02657 0)
(-0.041503 0.0360341 0)
(-0.0510042 0.0455159 0)
(-0.0614911 0.0550051 0)
(-0.0729233 0.0645025 0)
(-0.0851947 0.0739684 0)
(-0.0980364 0.0831811 0)
(-0.11107 0.0918062 0)
(-0.123886 0.0994669 0)
(-0.136104 0.105812 0)
(-0.147423 0.110603 0)
(-0.157694 0.113781 0)
(-0.166903 0.115437 0)
(-0.175089 0.115728 0)
(-0.182342 0.114856 0)
(-0.188735 0.112991 0)
(-0.194325 0.110287 0)
(-0.199166 0.106876 0)
(-0.2033 0.102876 0)
(-0.206776 0.0983918 0)
(-0.209639 0.0935195 0)
(-0.211943 0.0883477 0)
(-0.213743 0.0829535 0)
(-0.215097 0.0774051 0)
(-0.216059 0.0717592 0)
(-0.216684 0.0660615 0)
(-0.217025 0.0603475 0)
(-0.217128 0.0546462 0)
(-0.217037 0.0489769 0)
(-0.216785 0.0433532 0)
(-0.2164 0.0377777 0)
(-0.215907 0.032246 0)
(-0.215323 0.0267506 0)
(-0.214665 0.0212805 0)
(-0.213946 0.0158185 0)
(-0.213178 0.0103466 0)
(-0.212374 0.00484198 0)
(-0.211545 -0.000719213 0)
(-0.210703 -0.00636318 0)
(-0.209861 -0.0121209 0)
(-0.209033 -0.018024 0)
(-0.208237 -0.0241067 0)
(-0.207489 -0.0304046 0)
(-0.206807 -0.0369556 0)
(-0.20621 -0.0437984 0)
(-0.205716 -0.050973 0)
(-0.205339 -0.058517 0)
(-0.205087 -0.0664639 0)
(-0.204959 -0.07484 0)
(-0.204938 -0.0836617 0)
(-0.204983 -0.0929291 0)
(-0.205021 -0.102611 0)
(-0.204923 -0.11263 0)
(-0.2045 -0.122833 0)
(-0.203483 -0.132905 0)
(-0.201538 -0.142388 0)
(-0.198228 -0.150801 0)
(-0.193214 -0.158179 0)
(-0.185883 -0.163072 0)
(-0.174876 -0.163686 0)
(-0.160382 -0.159732 0)
(-0.142999 -0.151213 0)
(-0.123412 -0.138002 0)
(-0.102534 -0.120504 0)
(-0.0814872 -0.0995187 0)
(-0.0617149 -0.0765884 0)
(-0.0443243 -0.0533038 0)
(-0.0298812 -0.0309566 0)
(-0.0186671 -0.0108722 0)
(-0.0106521 0.00582712 0)
(-0.00539902 0.0182808 0)
(-0.00237693 0.0253327 0)
(-0.000636364 0.0259797 0)
(0.0001342 0.0140557 0)
(-0.000341903 -0.0156283 0)
(-0.00484033 -0.012977 0)
(-0.0103751 -0.00429203 0)
(-0.0165983 0.00505399 0)
(-0.0235593 0.0147734 0)
(-0.0312289 0.0248138 0)
(-0.0397002 0.0350855 0)
(-0.0490464 0.0454774 0)
(-0.0592839 0.0558976 0)
(-0.0703794 0.0662831 0)
(-0.0822459 0.0765826 0)
(-0.0946575 0.0865885 0)
(-0.10727 0.0959853 0)
(-0.119702 0.104396 0)
(-0.131598 0.111477 0)
(-0.142663 0.116965 0)
(-0.152692 0.120731 0)
(-0.161655 0.122852 0)
(-0.169589 0.123488 0)
(-0.176559 0.122837 0)
(-0.182641 0.121091 0)
(-0.18789 0.11841 0)
(-0.192354 0.11494 0)
(-0.196083 0.110808 0)
(-0.199127 0.106134 0)
(-0.201545 0.101029 0)
(-0.203399 0.0955931 0)
(-0.204756 0.0899183 0)
(-0.205685 0.0840834 0)
(-0.206249 0.0781553 0)
(-0.20651 0.0721878 0)
(-0.206523 0.0662225 0)
(-0.206338 0.0602901 0)
(-0.205994 0.0544127 0)
(-0.205527 0.0486024 0)
(-0.204961 0.0428644 0)
(-0.204317 0.0371963 0)
(-0.203612 0.0315904 0)
(-0.202857 0.0260353 0)
(-0.202064 0.0205172 0)
(-0.201241 0.0150183 0)
(-0.200395 0.00951904 0)
(-0.199535 0.00399748 0)
(-0.198669 -0.00157001 0)
(-0.197807 -0.00720862 0)
(-0.196961 -0.0129473 0)
(-0.196143 -0.0188157 0)
(-0.195371 -0.0248461 0)
(-0.194663 -0.0310725 0)
(-0.194039 -0.0375311 0)
(-0.193523 -0.0442606 0)
(-0.193139 -0.051301 0)
(-0.19291 -0.0586931 0)
(-0.192856 -0.0664763 0)
(-0.192992 -0.0746869 0)
(-0.193323 -0.0833545 0)
(-0.193838 -0.0924962 0)
(-0.194502 -0.102109 0)
(-0.195246 -0.112162 0)
(-0.195953 -0.122581 0)
(-0.19643 -0.133225 0)
(-0.196395 -0.143829 0)
(-0.195455 -0.153903 0)
(-0.19313 -0.162749 0)
(-0.188796 -0.16988 0)
(-0.181954 -0.174582 0)
(-0.17127 -0.174515 0)
(-0.156547 -0.169143 0)
(-0.138401 -0.158249 0)
(-0.117701 -0.141962 0)
(-0.0956713 -0.120989 0)
(-0.0737141 -0.0964975 0)
(-0.0535392 -0.0705202 0)
(-0.0363336 -0.0450467 0)
(-0.0226048 -0.0215873 0)
(-0.0124969 -0.00165181 0)
(-0.00573854 0.0135648 0)
(-0.00187746 0.022713 0)
(4.24571e-05 0.0248057 0)
(0.000408198 0.0140849 0)
(-0.000897972 -0.0126293 0)
(-0.00661764 -0.00734923 0)
(-0.0131002 0.00222521 0)
(-0.0202308 0.0121726 0)
(-0.0280666 0.022531 0)
(-0.036555 0.0333052 0)
(-0.045782 0.0443862 0)
(-0.0557971 0.0556162 0)
(-0.066583 0.0668474 0)
(-0.0780683 0.0779711 0)
(-0.0900629 0.0887755 0)
(-0.102274 0.0989772 0)
(-0.114361 0.108205 0)
(-0.125978 0.116106 0)
(-0.136835 0.122395 0)
(-0.146698 0.126882 0)
(-0.155487 0.12959 0)
(-0.163231 0.130679 0)
(-0.169986 0.130345 0)
(-0.175818 0.12879 0)
(-0.180785 0.126195 0)
(-0.184936 0.122715 0)
(-0.188324 0.118494 0)
(-0.191008 0.113667 0)
(-0.193054 0.108359 0)
(-0.194537 0.102688 0)
(-0.195533 0.0967591 0)
(-0.19612 0.090663 0)
(-0.19637 0.0844761 0)
(-0.196348 0.07826 0)
(-0.196113 0.0720613 0)
(-0.195714 0.0659143 0)
(-0.195191 0.0598416 0)
(-0.194576 0.0538567 0)
(-0.193893 0.0479645 0)
(-0.193161 0.0421635 0)
(-0.192391 0.0364465 0)
(-0.191594 0.030803 0)
(-0.190776 0.0252197 0)
(-0.189942 0.0196798 0)
(-0.189094 0.0141645 0)
(-0.188239 0.00865513 0)
(-0.187378 0.00313017 0)
(-0.186518 -0.00243307 0)
(-0.185666 -0.00805831 0)
(-0.184832 -0.0137715 0)
(-0.184027 -0.0195999 0)
(-0.183267 -0.0255725 0)
(-0.182572 -0.0317207 0)
(-0.181961 -0.0380779 0)
(-0.181462 -0.0446804 0)
(-0.181101 -0.0515671 0)
(-0.180908 -0.0587787 0)
(-0.180911 -0.0663579 0)
(-0.181138 -0.0743473 0)
(-0.181608 -0.0827872 0)
(-0.18233 -0.0917114 0)
(-0.183297 -0.10114 0)
(-0.184474 -0.111074 0)
(-0.185793 -0.121477 0)
(-0.187132 -0.132265 0)
(-0.1883 -0.143288 0)
(-0.189003 -0.154284 0)
(-0.188822 -0.164804 0)
(-0.187206 -0.174056 0)
(-0.183439 -0.181099 0)
(-0.176804 -0.185289 0)
(-0.166062 -0.184239 0)
(-0.150846 -0.177055 0)
(-0.131714 -0.163352 0)
(-0.109812 -0.143571 0)
(-0.0866702 -0.118765 0)
(-0.0640589 -0.0906204 0)
(-0.0439354 -0.061837 0)
(-0.0274918 -0.0347085 0)
(-0.0150561 -0.0110399 0)
(-0.00654977 0.00755974 0)
(-0.00163038 0.0195349 0)
(0.000613289 0.0237187 0)
(0.000605137 0.0145202 0)
(-0.00142957 -0.00856399 0)
(-0.00822382 -0.000682841 0)
(-0.0155436 0.00966069 0)
(-0.0234803 0.0201334 0)
(-0.0320767 0.0310706 0)
(-0.0412557 0.0425143 0)
(-0.0510914 0.0543194 0)
(-0.0616058 0.0662706 0)
(-0.0727474 0.0781711 0)
(-0.084353 0.0897608 0)
(-0.0961926 0.100775 0)
(-0.10797 0.110867 0)
(-0.119348 0.119657 0)
(-0.130044 0.126839 0)
(-0.139805 0.132172 0)
(-0.148501 0.135604 0)
(-0.15613 0.137263 0)
(-0.162743 0.137353 0)
(-0.1684 0.136082 0)
(-0.17316 0.133647 0)
(-0.177075 0.130221 0)
(-0.180201 0.125965 0)
(-0.182606 0.12103 0)
(-0.184364 0.11556 0)
(-0.18556 0.109688 0)
(-0.186279 0.103535 0)
(-0.186606 0.0972034 0)
(-0.18662 0.0907811 0)
(-0.186391 0.0843363 0)
(-0.185978 0.0779216 0)
(-0.185432 0.0715742 0)
(-0.184792 0.0653186 0)
(-0.18409 0.0591688 0)
(-0.183346 0.0531302 0)
(-0.182577 0.0472012 0)
(-0.181793 0.041375 0)
(-0.180999 0.0356405 0)
(-0.1802 0.029984 0)
(-0.179395 0.0243903 0)
(-0.178586 0.0188433 0)
(-0.177771 0.013322 0)
(-0.176951 0.00780798 0)
(-0.176128 0.00228254 0)
(-0.175304 -0.00327637 0)
(-0.174483 -0.00889024 0)
(-0.173674 -0.014582 0)
(-0.172887 -0.0203758 0)
(-0.172136 -0.0262973 0)
(-0.171439 -0.032374 0)
(-0.170816 -0.0386357 0)
(-0.170294 -0.0451153 0)
(-0.169901 -0.0518486 0)
(-0.169671 -0.0588747 0)
(-0.169637 -0.0662362 0)
(-0.169835 -0.0739785 0)
(-0.170295 -0.0821483 0)
(-0.171044 -0.090791 0)
(-0.172094 -0.0999466 0)
(-0.173438 -0.109642 0)
(-0.175042 -0.119881 0)