/*--------------------------------*- C++ -*----------------------------------*\
  =========                 |
  \\      /  F ield         | OpenFOAM: The Open Source CFD Toolbox
   \\    /   O peration     | Website:  https://openfoam.org
    \\  /    A nd           | Version:  13
     \\/     M anipulation  |
\*---------------------------------------------------------------------------*/
FoamFile
{
    format      ascii;
    class       volScalarField;
    location    "6";
    object      epsilon;
}
// * * * * * * * * * * * * * * * * * * * * * * * * * * * * * * * * * * * * * //

dimensions      [0 2 -3 0 0 0 0];

internalField   nonuniform List<scalar> 
6400
(
2.54825e-05
0.000130855
0.000317182
0.000511867
0.000659795
0.000743499
0.000774192
0.000776949
0.000780595
0.000807971
0.00087607
0.00101217
0.0012297
0.0015338
0.00191017
0.00233847
0.00279755
0.00327716
0.00375778
0.00422464
0.0046904
0.00519255
0.00578322
0.00650109
0.00732738
0.00818085
0.00902637
0.00986381
0.010716
0.0116062
0.0125289
0.0134459
0.0143482
0.0152296
0.0161175
0.0170162
0.0179466
0.0189153
0.0199353
0.0210112
0.0221507
0.023362
0.0246527
0.0260397
0.0275301
0.0291672
0.0310306
0.0332934
0.0358069
0.0382625
0.0407528
0.043152
0.0454462
0.0475393
0.0493721
0.0508487
0.0517191
0.0521009
0.0521733
0.0513711
0.0497716
0.0473865
0.0442481
0.040438
0.0360851
0.0313672
0.0265419
0.0218028
0.0173336
0.0132995
0.0100514
0.00732261
0.00511233
0.00341638
0.00219382
0.00136
0.00081598
0.00046618
0.000219462
4.66204e-05
0.000123474
0.000123013
0.000201278
0.00029244
0.000361441
0.000403512
0.000424265
0.000433471
0.000443392
0.000466448
0.000515787
0.000610583
0.000766299
0.00099513
0.0013012
0.00168603
0.00215173
0.00270449
0.00335014
0.00409696
0.00495258
0.00594891
0.00713573
0.00854295
0.0101661
0.0120181
0.013971
0.0158754
0.0176285
0.0191389
0.0202939
0.0211935
0.0218149
0.0222414
0.0225156
0.0226909
0.0228105
0.0229073
0.0230069
0.0231275
0.0232915
0.0235068
0.023786
0.0240941
0.024452
0.024883
0.0254026
0.0259926
0.026669
0.0273794
0.0281366
0.0288942
0.0296359
0.0303174
0.0308978
0.0312633
0.0314032
0.0313633
0.0310366
0.0303371
0.0292573
0.0277961
0.0259278
0.0237266
0.0212705
0.0186587
0.0160081
0.0134376
0.0110381
0.00889242
0.00708705
0.00554178
0.00421898
0.00309568
0.00216865
0.00142261
0.000867565
0.000486256
0.000251779
0.000246651
0.000270597
0.000223944
0.000300193
0.000379041
0.000426943
0.000451023
0.000463623
0.000477507
0.000506289
0.000566425
0.000680535
0.000875045
0.00117618
0.00160333
0.00216857
0.00288454
0.0037635
0.00482004
0.00606435
0.007503
0.0091417
0.0109545
0.0128647
0.014736
0.0163969
0.0176276
0.0183737
0.0187973
0.0190086
0.0191442
0.019243
0.0192091
0.0189263
0.0186466
0.0183495
0.0180855
0.0178677
0.017725
0.0176618
0.017649
0.0177358
0.0179073
0.0181624
0.018537
0.0190195
0.0195968
0.0202537
0.0209879
0.0217961
0.0226641
0.0235824
0.0245302
0.0254863
0.026418
0.0272868
0.028045
0.0286494
0.0289539
0.02903
0.0287818
0.0281088
0.0269949
0.0253947
0.0234201
0.0211437
0.0186655
0.0161098
0.0135905
0.0112161
0.00907234
0.00721798
0.00565669
0.00436687
0.00330974
0.00244747
0.00175516
0.00119175
0.000745043
0.000460909
0.000658204
0.000470644
0.000387527
0.000475949
0.00055301
0.000592878
0.000612722
0.000631423
0.00066831
0.00074439
0.000889038
0.00113945
0.00153608
0.00211328
0.00289281
0.00388562
0.0050966
0.00652755
0.00816161
0.00995038
0.0118075
0.0136077
0.0152102
0.0164715
0.0171889
0.017498
0.0175794
0.0175736
0.0172625
0.0167603
0.016195
0.0155444
0.0150362
0.014635
0.0143055
0.0140488
0.0138829
0.0138058
0.0137853
0.01385
0.0140014
0.0142331
0.0145445
0.014937
0.0154125
0.0159674
0.0166019
0.0173165
0.0181108
0.0189839
0.0199323
0.0209488
0.0220221
0.0231353
0.0242631
0.0253712
0.0264147
0.027335
0.0280671
0.0284481
0.0285578
0.0282745
0.0275494
0.026413
0.02469
0.0225146
0.0200219
0.0173457
0.0146318
0.0120279
0.00965828
0.00760548
0.00590022
0.0045283
0.00344514
0.00259647
0.00193146
0.00139755
0.000964058
0.000688157
0.00109097
0.000755767
0.000616064
0.000705567
0.000781172
0.000823313
0.000854906
0.000901603
0.000992479
0.00116337
0.00146027
0.00193563
0.00263689
0.00359311
0.0048101
0.00627394
0.00795187
0.0097839
0.0116682
0.0134545
0.0149799
0.0160437
0.0165341
0.0166859
0.0166668
0.016299
0.0156428
0.0148011
0.0140122
0.0133586
0.0127656
0.0122624
0.0118748
0.0115687
0.011341
0.0111924
0.0111219
0.0110997
0.0111271
0.0112336
0.0113911
0.0116089
0.0118836
0.0122182
0.0126144
0.0130754
0.0136054
0.0142092
0.0148919
0.0156582
0.0165125
0.0174572
0.018491
0.0196082
0.0207968
0.0220375
0.023302
0.0245377
0.0256855
0.0266709
0.0273286
0.0275938
0.0275406
0.0268793
0.0258003
0.0239959
0.0216628
0.0189636
0.0160711
0.0131791
0.01048
0.0081185
0.00617022
0.00463842
0.00347323
0.00259736
0.00193951
0.00143864
0.00105386
0.000836518
0.00138578
0.00116338
0.00091786
0.00099337
0.00107132
0.00112932
0.00119286
0.00129657
0.00148351
0.00180715
0.00232934
0.00310874
0.0041824
0.00555191
0.00718095
0.00899813
0.0108957
0.0127269
0.0143141
0.0154228
0.0159216
0.0160516
0.0159621
0.0154652
0.0145707
0.0135982
0.0127218
0.0119312
0.0112594
0.0106973
0.0102216
0.00983835
0.00953446
0.00929451
0.00911362
0.00898429
0.00890509
0.00886857
0.00885919
0.00889309
0.00896465
0.00907219
0.00921796
0.00940234
0.00962978
0.00990399
0.0102318
0.0106205
0.0110801
0.0116219
0.0122577
0.0130015
0.0138654
0.0148594
0.0159888
0.0172499
0.0186296
0.0201077
0.0216323
0.0231481
0.0245544
0.025738
0.0264164
0.026642
0.0263007
0.0254402
0.0235813
0.0210964
0.0181493
0.014971
0.0118463
0.00902552
0.00667467
0.00485062
0.00351517
0.0025638
0.00189127
0.00140601
0.00105093
0.000894096
0.00148957
0.00173022
0.00129899
0.00135053
0.00144044
0.00153161
0.00165164
0.00184736
0.00217823
0.00271297
0.00351875
0.00464087
0.00608167
0.00778976
0.00966161
0.0115483
0.0132651
0.0146222
0.0153094
0.0155243
0.0154902
0.0150047
0.0140435
0.012956
0.0119667
0.0110661
0.0102987
0.00963858
0.00908614
0.00862079
0.00823088
0.00790777
0.00763864
0.00741511
0.00723136
0.00708192
0.00696323
0.00687125
0.00680408
0.00676851
0.00675403
0.00675287
0.00678598
0.00684154
0.00692855
0.0070463
0.00720186
0.00739991
0.00764908
0.00796034
0.0083473
0.0088268
0.00942168
0.0101571
0.0110593
0.0121478
0.013441
0.0149575
0.0166751
0.0185434
0.0205078
0.0224566
0.0242441
0.0255921
0.0262019
0.0262839
0.0256161
0.0237424
0.021035
0.0177055
0.0141277
0.0106926
0.00771982
0.00538719
0.00370908
0.00258155
0.00182964
0.00133391
0.00101354
0.000885924
0.0014449
0.00249075
0.00176398
0.00178988
0.00190521
0.00205023
0.00225409
0.00257804
0.00309572
0.00388097
0.00498727
0.00642275
0.00813231
0.00999491
0.0118353
0.013447
0.0145381
0.0149985
0.0150873
0.0147756
0.0139386
0.0127732
0.0116528
0.0106329
0.0097513
0.00898982
0.00834671
0.00779699
0.00733134
0.00693283
0.00659262
0.00630111
0.00605049
0.00583546
0.00565176
0.00549605
0.00536519
0.00525655
0.0051692
0.00510226
0.00505354
0.00502899
0.00502029
0.00502612
0.00506141
0.0051167
0.00519955
0.0053115
0.00545837
0.00564433
0.00587668
0.0061648
0.00652176
0.00696556
0.00752353
0.0082404
0.00916512
0.0103505
0.0118524
0.0136699
0.0158042
0.0181827
0.0206735
0.0231181
0.025229
0.0264189
0.026815
0.0264261
0.0244975
0.0214038
0.0175524
0.0134645
0.00966254
0.00654077
0.00425946
0.00276144
0.00184517
0.00128005
0.000953377
0.000850951
0.00134235
0.00346991
0.00231614
0.00232081
0.00248163
0.00269996
0.0030131
0.00349412
0.00422242
0.00526042
0.00662629
0.00827102
0.0100703
0.0118356
0.0133429
0.0142425
0.0145668
0.0145927
0.014049
0.0129613
0.0117371
0.0105852
0.00956667
0.00868701
0.00793946
0.00730139
0.0067585
0.00629239
0.00589332
0.00554971
0.00525493
0.00500198
0.00478602
0.00460298
0.00444899
0.00432098
0.00421659
0.00413362
0.00407037
0.004025
0.00400004
0.00398992
0.00398874
0.00400927
0.00404519
0.00409853
0.00417036
0.00426216
0.00437628
0.00451552
0.00468394
0.00488661
0.00513022
0.00542408
0.0057806
0.00621829
0.00676463
0.00746107
0.00837842
0.0096481
0.0113682
0.0135894
0.0162556
0.0192535
0.0223549
0.0252347
0.0271
0.0278235
0.0277085
0.0256392
0.0220177
0.0175126
0.0128296
0.0086603
0.00544568
0.00328365
0.00200079
0.00129285
0.000911067
0.000797714
0.00123046
0.00467878
0.00296236
0.00295522
0.00317593
0.00348511
0.00392534
0.00457535
0.00550735
0.00675408
0.00828118
0.00997397
0.0116454
0.0130659
0.0138684
0.0141353
0.0140572
0.0133422
0.0121414
0.0109061
0.00972982
0.00870775
0.00783311
0.00709062
0.00646071
0.00592362
0.00546578
0.0050749
0.00474298
0.00446201
0.00422639
0.00403038
0.00386945
0.00373914
0.00363566
0.00355546
0.00349553
0.00345316
0.00342845
0.00341759
0.00341525
0.00342662
0.00344978
0.00348555
0.0035327
0.00359264
0.00366559
0.00375299
0.00385625
0.00397731
0.00411856
0.00428303
0.00447468
0.00469883
0.0049628
0.00527523
0.00564815
0.00610193
0.00666935
0.00740532
0.00840009
0.009824
0.0119239
0.0147342
0.0181479
0.0218983
0.0256003
0.0281774
0.0292328
0.029284
0.0269563
0.0226576
0.0173628
0.0120664
0.00760191
0.00440516
0.00244861
0.00141116
0.000917931
0.000754384
0.00114448
0.00613182
0.00371573
0.00369827
0.00398714
0.00439719
0.00496831
0.00577539
0.00686908
0.00823795
0.00978809
0.0113463
0.0126876
0.0134479
0.0136996
0.0135476
0.0127496
0.0115163
0.0102403
0.00906014
0.00802405
0.0071507
0.00641166
0.00578812
0.00526094
0.00481568
0.00444172
0.00412994
0.00387296
0.00366356
0.00349553
0.00336273
0.00325981
0.00318176
0.00312437
0.00308407
0.00305897
0.00304707
0.00304332
0.00304746
0.00306257
0.00308609
0.00311866
0.00316052
0.00321219
0.00327476
0.00334913
0.00343675
0.00353899
0.00365747
0.00379385
0.00394995
0.00412775
0.00432947
0.00455793
0.0048171
0.00511323
0.00545651
0.00586422
0.00636109
0.00698787
0.00782463
0.00901363
0.0108264
0.0136205
0.0173467
0.0217355
0.0263001
0.0295869
0.03093
0.0310149
0.0282441
0.023039
0.0168871
0.0110405
0.00643801
0.00341459
0.00175553
0.000995529
0.000753279
0.00112929
0.00791374
0.0046049
0.00454762
0.00490374
0.00541347
0.00610185
0.00702876
0.00821158
0.00958843
0.0110116
0.0122708
0.0130135
0.0132647
0.0130946
0.0122558
0.0110471
0.00974319
0.00854148
0.00749614
0.00661287
0.00587588
0.00525724
0.00474069
0.00431074
0.00395633
0.0036678
0.00343623
0.00325333
0.00311113
0.00300245
0.00292074
0.00286047
0.00281701
0.00278673
0.00276726
0.00275773
0.0027543
0.00275452
0.00276418
0.00277989
0.00280282
0.00283344
0.0028727
0.00292162
0.00298145
0.00305353
0.00313946
0.00324082
0.00335936
0.00349685
0.00365507
0.00383571
0.00404027
0.00426996
0.00452578
0.00480879
0.00512106
0.00546746
0.0058593
0.00631962
0.00689026
0.00763145
0.00867738
0.0102727
0.0129113
0.0168743
0.0218761
0.0273418
0.0312792
0.032808
0.0328053
0.0291613
0.0228916
0.0158824
0.00966137
0.00516929
0.00250472
0.00123008
0.000798156
0.00118486
0.00990395
0.00559264
0.00548397
0.00590256
0.00649936
0.00727408
0.00826245
0.00944294
0.0107067
0.0118692
0.012598
0.0128512
0.0126919
0.0118804
0.0107065
0.0093987
0.00816594
0.00710024
0.00620413
0.00546074
0.00484568
0.00433726
0.00392162
0.00358542
0.00331792
0.00310849
0.00294717
0.00282464
0.00273255
0.00266377
0.0026124
0.00257391
0.00254489
0.00252302
0.00250688
0.0024956
0.00248966
0.00248753
0.00248998
0.00249943
0.00251556
0.00253943
0.00257216
0.00261495
0.00266913
0.00273617
0.00281774
0.00291561
0.00303173
0.0031682
0.00332719
0.00351085
0.00372116
0.0039597
0.00422735
0.00452409
0.00484896
0.00520047
0.0055783
0.00598685
0.00644219
0.0069836
0.00767746
0.00864033
0.010122
0.0126146
0.0167565
0.0223523
0.0287339
0.0332021
0.0348309
0.0343489
0.0294131
0.0219387
0.0141836
0.00792919
0.00385685
0.00175051
0.000954133
0.00138922
0.0120435
0.00665642
0.00648348
0.00695261
0.00761277
0.00842904
0.00940782
0.0104902
0.0115326
0.0122366
0.0124872
0.0123698
0.0116262
0.0104899
0.00918902
0.0079268
0.00682605
0.00590819
0.00515192
0.00453342
0.00402978
0.00362375
0.00330175
0.00305033
0.00285747
0.00271142
0.00260166
0.00251903
0.002456
0.00240672
0.00236684
0.00233343
0.00230464
0.0022795
0.00225769
0.00223933
0.00222484
0.00221584
0.00221221
0.00221202
0.00222099
0.00223783
0.00226374
0.00229994
0.00234764
0.00240828
0.00248347
0.00257506
0.00268513
0.00281606
0.00297045
0.0031511
0.00336085
0.00360235
0.00387772
0.00418804
0.00453288
0.00490982
0.00531451
0.00574192
0.00618984
0.00666656
0.00720522
0.00788149
0.00880618
0.0102367
0.012696
0.0170489
0.0232769
0.0305838
0.0352828
0.036776
0.0353396
0.0286854
0.0198954
0.0117861
0.00596067
0.00268486
0.00131205
0.00185086
0.0142632
0.00776926
0.00751719
0.00801782
0.00870868
0.0095131
0.0104071
0.0113015
0.0119542
0.0121955
0.012134
0.0114756
0.0103971
0.00910638
0.00781664
0.00667005
0.00571552
0.00493721
0.00430695
0.00380095
0.00339893
0.00308482
0.00284375
0.00266134
0.00252459
0.00242177
0.00234314
0.00228097
0.00222954
0.0021849
0.00214456
0.0021072
0.0020723
0.00203993
0.0020105
0.00198463
0.00196304
0.00194652
0.00193704
0.00193341
0.00193456
0.00194647
0.00196676
0.00199718
0.00203865
0.00209248
0.00216016
0.00224347
0.00234453
0.00246584
0.00261028
0.00278116
0.00298211
0.00321692
0.00348929
0.00380228
0.00415766
0.00455498
0.00499078
0.00545809
0.0059473
0.00644978
0.00696633
0.0075241
0.00820375
0.00912602
0.0105651
0.0131168
0.0178072
0.02478
0.0329822
0.0373599
0.0384518
0.0352436
0.0264923
0.0167422
0.00889772
0.0040931
0.00191922
0.00254307
0.0164928
0.00890135
0.00855318
0.00906034
0.00974337
0.0104793
0.0112152
0.01179
0.0120177
0.0119769
0.0114251
0.0104179
0.00915017
0.00783225
0.00663155
0.0056237
0.00480895
0.00415681
0.00363924
0.00323369
0.00292082
0.00268371
0.00250622
0.00237365
0.00227339
0.00219507
0.00213085
0.00207518
0.00202447
0.00197669
0.00193092
0.00188706
0.00184544
0.00180668
0.00177147
0.00174054
0.00171458
0.00169423
0.00168076
0.00167453
0.00167302
0.00168046
0.001697
0.00172266
0.00175861
0.00180584
0.00186573
0.0019399
0.00203038
0.00213961
0.00227055
0.00242671
0.00261221
0.00283168
0.00309015
0.00339263
0.00374355
0.00414572
0.00459911
0.00509939
0.0056369
0.00619715
0.00676452
0.00733212
0.00792264
0.00862604
0.00957398
0.0110853
0.0138821
0.0191567
0.0271497
0.0356554
0.0393594
0.0397053
0.0334057
0.0227427
0.012746
0.00602207
0.00277624
0.00341095
0.0186868
0.0100228
0.00955933
0.0100436
0.0106783
0.0112919
0.0117813
0.011988
0.0119253
0.0114806
0.0105469
0.00931625
0.00797634
0.00671323
0.00563568
0.00476573
0.00407773
0.00353789
0.00311961
0.00280065
0.00256123
0.00238343
0.00225095
0.00215001
0.0020697
0.00200194
0.00194129
0.00188445
0.00182974
0.0017766
0.00172521
0.0016761
0.00163
0.00158765
0.00154971
0.00151678
0.00148936
0.00146786
0.00145291
0.00144563
0.00144334
0.00144797
0.00146189
0.00148382
0.00151502
0.00155626
0.00160875
0.00167393
0.00175362
0.0018501
0.00196618
0.00210534
0.00227178
0.00247051
0.00270734
0.00298871
0.0033213
0.00371121
0.00416273
0.00467647
0.00524731
0.00586255
0.00650194
0.00714181
0.00776708
0.0083987
0.00914115
0.0101404
0.0117958
0.0149976
0.0211101
0.0304533
0.0386673
0.0414235
0.0396288
0.0295839
0.0176165
0.00855612
0.00390987
0.00440096
0.0208044
0.0111053
0.0105049
0.0109356
0.0114845
0.0119083
0.0120846
0.0120067
0.0116367
0.0107857
0.00960104
0.00825097
0.00692296
0.005759
0.00481249
0.00406975
0.00349418
0.00305264
0.00271916
0.00247102
0.00228792
0.00215191
0.00204789
0.00196413
0.00189221
0.0018266
0.00176417
0.00170347
0.00164421
0.00158677
0.00153183
0.00148016
0.00143251
0.00138946
0.00135151
0.001319
0.00129221
0.00127132
0.00125663
0.00124938
0.00124695
0.00125015
0.00126213
0.00128111
0.0013083
0.00134431
0.00139015
0.00144709
0.00151673
0.00160109
0.00170274
0.00182487
0.0019715
0.00214758
0.00235912
0.00261326
0.00291808
0.00328221
0.00371383
0.00421898
0.00479911
0.00544802
0.00614912
0.00687502
0.00759254
0.00827872
0.00895823
0.00974777
0.0108328
0.0127475
0.0166326
0.0238696
0.0347233
0.0415993
0.0430072
0.0367115
0.0235982
0.0118475
0.00536913
0.00546807
0.0227622
0.0121199
0.011364
0.0117136
0.012132
0.0123157
0.012261
0.0118851
0.0111307
0.0100049
0.00865708
0.00726975
0.0060068
0.0049601
0.00413917
0.00350986
0.00303236
0.00267464
0.00241056
0.00221702
0.00207398
0.00196479
0.00187656
0.00180022
0.00173
0.0016627
0.00159702
0.00153282
0.0014706
0.00141116
0.00135529
0.00130369
0.00125691
0.00121531
0.00117914
0.00114852
0.00112351
0.00110416
0.00109055
0.00108381
0.00108151
0.00108404
0.00109445
0.00111107
0.00113486
0.00116636
0.00120644
0.00125617
0.00131693
0.00139049
0.00147909
0.00158558
0.0017136
0.00186775
0.00205378
0.00227885
0.00255159
0.00288203
0.0032811
0.00375941
0.00432511
0.00498041
0.00571733
0.00651367
0.00733222
0.00812811
0.00887275
0.00960421
0.0104481
0.0116791
0.0140323
0.0190606
0.0280521
0.0393713
0.0440744
0.0429348
0.0305578
0.0160646
0.00719114
0.00657288
0.0244874
0.0130402
0.0121159
0.0123592
0.0125863
0.0125893
0.0122464
0.0115891
0.0105243
0.00919635
0.00776107
0.00639519
0.0052261
0.0042989
0.00359229
0.00306212
0.00266842
0.00237978
0.00216987
0.00201595
0.00189935
0.00180566
0.00172476
0.0016503
0.00157886
0.00150908
0.0014409
0.0013749
0.00131192
0.00125279
0.00119818
0.00114856
0.00110421
0.00106528
0.00103179
0.0010037
0.000980918
0.000963378
0.000951069
0.000944967
0.000942883
0.000945015
0.000954118
0.000968731
0.000989628
0.00101729
0.00105243
0.001096
0.00114916
0.00121343
0.00129075
0.0013836
0.00149516
0.00162954
0.00179199
0.00198922
0.00222968
0.00252377
0.00288382
0.00332347
0.00385626
0.00449261
0.00523525
0.00607309
0.00697555
0.00789145
0.00876079
0.00955235
0.0103353
0.0112502
0.0127317
0.0158417
0.0224807
0.0339562
0.0437718
0.0460572
0.0379981
0.0213527
0.00942464
0.00773457
0.0259386
0.0138459
0.0127409
0.0128449
0.0129236
0.0127138
0.0121296
0.0111563
0.00986551
0.00840248
0.00693941
0.00563299
0.00456954
0.0037555
0.00315005
0.00270499
0.00238111
0.00214736
0.00197779
0.00185098
0.0017505
0.00166471
0.00158628
0.00151127
0.00143811
0.00136668
0.0012976
0.00123175
0.00116996
0.00111289
0.00106097
0.00101441
0.000973266
0.000937486
0.000906934
0.000881451
0.000860878
0.000845079
0.000833975
0.000828451
0.000826557
0.000828355
0.000836302
0.000849179
0.000867588
0.000891961
0.000922924
0.00096127
0.00100802
0.00106446
0.00113225
0.00121352
0.00131103
0.00142834
0.00157009
0.00174233
0.00195288
0.00221177
0.00253154
0.00292726
0.00341589
0.00401431
0.00473536
0.00558143
0.00653595
0.00755565
0.00856985
0.0095005
0.0103221
0.0111374
0.0121798
0.014116
0.0185395
0.0274949
0.0409383
0.047028
0.0447896
0.0277809
0.0121432
0.00892436
0.027095
0.0145311
0.0132332
0.0131907
0.013123
0.0126919
0.0118727
0.0106552
0.00919257
0.00765128
0.00620411
0.00497874
0.0040219
0.00331069
0.00279301
0.00241967
0.00215239
0.00196072
0.00181987
0.00171058
0.00161914
0.00153675
0.00145856
0.00138254
0.00130839
0.00123671
0.00116839
0.00110429
0.00104506
0.000991099
0.000942587
0.000899517
0.000861762
0.000829125
0.00080138
0.000778305
0.000759702
0.000745413
0.000735313
0.00073023
0.000728463
0.000729902
0.000736807
0.00074815
0.000764405
0.000785965
0.000813372
0.000847313
0.000888666
0.000938545
0.000998369
0.00106996
0.00115568
0.0012586
0.00138273
0.00153339
0.00171759
0.00194452
0.00222616
0.0025777
0.00301764
0.00356693
0.00424631
0.00507082
0.00604079
0.00713006
0.0082754
0.00937826
0.010339
0.0111602
0.0120237
0.0133113
0.0161129
0.0227375
0.035203
0.0467381
0.0489799
0.0353263
0.0155527
0.0102778
0.02795
0.0150993
0.0135909
0.0134077
0.0131853
0.0125855
0.011523
0.0101167
0.00853306
0.00695911
0.0055574
0.0044228
0.00356726
0.00294711
0.00250437
0.00219032
0.0019677
0.00180723
0.00168602
0.00158747
0.00150068
0.00141942
0.00134089
0.0012644
0.00119044
0.00111988
0.00105362
0.000992328
0.000936416
0.000886031
0.000841129
0.000801535
0.000766999
0.000737243
0.000711995
0.000691005
0.000674064
0.000661012
0.000651726
0.000646924
0.000645219
0.000646263
0.000652217
0.000662197
0.000676577
0.000695716
0.000720089
0.0007503
0.000787113
0.000831492
0.000884663
0.000948191
0.0010241
0.00111501
0.0012244
0.00135684
0.00151849
0.00171754
0.00196497
0.00227522
0.00266687
0.00316271
0.00378852
0.00456926
0.00552121
0.00663937
0.00788177
0.00915735
0.0103354
0.0113021
0.0120509
0.0130296
0.0148187
0.0192678
0.0291905
0.0443752
0.0506837
0.0435019
0.0199665
0.0120593
0.0285178
0.0155474
0.0138264
0.0135034
0.0131439
0.0123635
0.0111186
0.00956656
0.00790577
0.00633371
0.00499558
0.00395344
0.00319069
0.0026497
0.00227003
0.00200405
0.00181585
0.00167785
0.00156962
0.00147734
0.00139278
0.00131186
0.00123327
0.00115722
0.00108454
0.00101616
0.000952791
0.000894876
0.000842568
0.000795805
0.000754379
0.000718003
0.000686356
0.000659121
0.000636007
0.000616764
0.000601189
0.000589128
0.000580469
0.000575828
0.000574131
0.000574766
0.00057985
0.000588615
0.000601356
0.0006184
0.000640169
0.000667201
0.000700167
0.000739913
0.000787506
0.000844302
0.000912041
0.000992983
0.0010901
0.00120734
0.00135002
0.00152534
0.00174308
0.00201648
0.00236323
0.0028063
0.00337396
0.00409782
0.00500704
0.0061166
0.00740915
0.00881386
0.0101966
0.0113897
0.0123074
0.0129963
0.0142601
0.0171224
0.0245448
0.0394999
0.0509549
0.0508523
0.0256598
0.0144424
0.0287988
0.0158808
0.0139511
0.0134896
0.0130187
0.0120703
0.0106816
0.00902407
0.00732231
0.00577682
0.0045117
0.0035587
0.00287885
0.00240575
0.00207843
0.00185078
0.00168857
0.0015664
0.00146652
0.00137782
0.00129436
0.00121377
0.00113576
0.00106102
0.000990484
0.00092494
0.000864886
0.000810513
0.000761766
0.000718425
0.000680172
0.000646653
0.000617514
0.000592427
0.000571105
0.000553307
0.000538842
0.000527568
0.000519388
0.000514821
0.000513091
0.000513335
0.000517625
0.000525305
0.000536607
0.000551826
0.000571345
0.000595644
0.000625323
0.000661134
0.000704016
0.000755155
0.000816066
0.000888701
0.000975622
0.00108023
0.0012071
0.00136249
0.00155497
0.0017964
0.00210304
0.00249689
0.00300666
0.00366759
0.00451814
0.00559088
0.00689508
0.00839082
0.00996189
0.0114135
0.012566
0.0133041
0.0141071
0.0160116
0.0211813
0.0334083
0.0503569
0.0551823
0.0332264
0.0173718
0.0287813
0.0160971
0.0139753
0.0134112
0.0127985
0.0117282
0.0102305
0.00850287
0.00678884
0.00528638
0.00409745
0.00322736
0.00262032
0.00220477
0.00192039
0.00172285
0.00157995
0.00146876
0.0013742
0.0012876
0.00120492
0.00112501
0.00104823
0.000975484
0.000907622
0.000845238
0.000788594
0.000737671
0.000692255
0.000652013
0.000616563
0.000585521
0.000558523
0.000535248
0.000515421
0.000498816
0.000485258
0.000474617
0.000466809
0.000462245
0.00046043
0.000460369
0.000463921
0.000470635
0.000480667
0.000494289
0.000511846
0.000533774
0.000560618
0.000593051
0.000631913
0.000678255
0.000733411
0.000799086
0.000877503
0.0009716
0.00108533
0.00122409
0.00139536
0.00160957
0.00188137
0.00223109
0.00268653
0.00328399
0.0040674
0.00508236
0.00636151
0.00789811
0.00961061
0.0113159
0.0127527
0.0136762
0.014253
0.0155389
0.0189708
0.0283732
0.0471353
0.0570214
0.0425724
0.0207347
0.0286247
0.0162348
0.0139386
0.0132426
0.0125203
0.011354
0.00977952
0.008012
0.00630757
0.00485811
0.00374431
0.00294942
0.00240547
0.00203825
0.00178873
0.00161461
0.00148592
0.00138228
0.00129115
0.00120594
0.00112409
0.00104531
0.000970297
0.000899975
0.000835046
0.000775882
0.000722535
0.000674821
0.000632412
0.000594906
0.00056189
0.00053297
0.000507789
0.00048604
0.000467464
0.000451854
0.000439049
0.00042893
0.000421424
0.000416811
0.000414845
0.000414602
0.00041747
0.000423319
0.00043223
0.000444444
0.000460278
0.000480132
0.000504503
0.000534005
0.000569398
0.000611628
0.000661884
0.000721674
0.000792948
0.000878265
0.000981051
0.00110598
0.00125953
0.00145083
0.00169284
0.00200401
0.0024103
0.00294736
0.00366153
0.00460724
0.00583626
0.00737369
0.00917835
0.0110953
0.0128366
0.0140964
0.0147019
0.0154272
0.017764
0.0249841
0.0418619
0.0573564
0.0521593
0.0240975
0.0282789
0.0163131
0.0138398
0.0130115
0.0121991
0.0109621
0.00933916
0.00755685
0.00587804
0.00448659
0.00344414
0.00271623
0.00222641
0.00189942
0.00167799
0.00152192
0.00140364
0.00130524
0.00121643
0.00113235
0.00105154
0.000974254
0.000901362
0.000833682
0.000771729
0.000715669
0.000665384
0.000620568
0.000580817
0.000545694
0.000514772
0.000487662
0.000464024
0.000443566
0.000426048
0.000411278
0.000399107
0.000389427
0.000382168
0.000377495
0.000375387
0.000374987
0.000377255
0.000382334
0.00039025
0.000401218
0.000415529
0.000433552
0.000455747
0.000482678
0.000515044
0.000553706
0.00059974
0.000654501
0.000719719
0.000797647
0.000891279
0.00100468
0.00114347
0.0013156
0.00153245
0.00181049
0.00217346
0.00265515
0.00330192
0.004173
0.00533427
0.00683896
0.0086892
0.0107798
0.012848
0.0144556
0.015225
0.0156974
0.0171985
0.0221934
0.0365658
0.0565751
0.0598822
0.0266804
0.027744
0.0163113
0.0136743
0.0127363
0.0118491
0.0105638
0.00891699
0.00714012
0.00549808
0.00416607
0.00318957
0.00252046
0.00207666
0.00178297
0.00158401
0.00144183
0.00133117
0.00123646
0.00114935
0.00106636
0.000986819
0.000911312
0.000840717
0.000775715
0.000716632
0.000663458
0.000615943
0.000573696
0.000536266
0.0005032
0.000474075
0.000448514
0.000426191
0.000406836
0.000390223
0.000376174
0.000364549
0.000355247
0.0003482
0.000343477
0.00034124
0.000340698
0.000342449
0.000346843
0.000353877
0.000363738
0.000376695
0.000393093
0.000413356
0.000438011
0.000467706
0.000503238
0.000545592
0.000596002
0.000656028
0.000727679
0.000813598
0.000917342
0.00104382
0.00119995
0.00139569
0.0016456
0.00197107
0.00240337
0.00298724
0.0037835
0.00486704
0.00631309
0.00816265
0.0103627
0.0126951
0.0147446
0.0157923
0.0162307
0.0170405
0.0204737
0.0316502
0.0543054
0.0637412
0.0278204
0.0270482
0.0162805
0.0134736
0.0124306
0.0114821
0.0101681
0.00851807
0.0067625
0.00516453
0.0038909
0.00297411
0.00235601
0.00195103
0.00168472
0.00150369
0.00137216
0.00126714
0.00117513
0.0010894
0.00100754
0.000929444
0.000855856
0.000787595
0.000725184
0.000668776
0.000618219
0.000573166
0.000533168
0.000497751
0.000466459
0.000438877
0.000414645
0.000393454
0.00037505
0.000359222
0.0003458
0.000334654
0.000325686
0.000318832
0.000314079
0.000311725
0.000311054
0.000312366
0.000316155
0.000322404
0.00033128
0.000343031
0.000357976
0.000376514
0.00039914
0.000426458
0.000459213
0.000498323
0.000544926
0.000600447
0.000666705
0.000746064
0.000841673
0.000957838
0.00110061
0.00127869
0.0015049
0.00179829
0.00218736
0.00271421
0.00343894
0.00444143
0.00581366
0.00763165
0.00989643
0.0124459
0.0148761
0.0163541
0.0168874
0.017256
0.0195937
0.0284042
0.0502169
0.0651181
0.0280028
0.0262304
0.0162072
0.0132476
0.0121061
0.0111082
0.00978188
0.00814543
0.00642331
0.00487377
0.00365579
0.00279215
0.00221784
0.00184537
0.00160145
0.00143467
0.00131134
0.00121054
0.00112058
0.00103607
0.000955416
0.000878863
0.000807231
0.000741237
0.000681249
0.000627274
0.00057905
0.000536159
0.000498117
0.00046444
0.000434676
0.000408425
0.00038534
0.000365131
0.000347555
0.000332413
0.000319546
0.000308826
0.000300158
0.000293477
0.000288746
0.000286272
0.000285483
0.000286424
0.00028968
0.000295234
0.000303232
0.000313905
0.000327549
0.000344542
0.000365346
0.000390534
0.000420807
0.000457029
0.000500261
0.000551828
0.0006134
0.00068712
0.000775811
0.00088329
0.00101488
0.0011782
0.00138451
0.0016507
0.00200242
0.00247857
0.00313682
0.00405843
0.00534621
0.00710445
0.00938576
0.0121002
0.0149122
0.0169097
0.0176184
0.0178328
0.0192082
0.0258757
0.0457264
0.0651481
0.0274583
0.0253255
0.0161054
0.0130066
0.0117728
0.0107354
0.00941017
0.00780064
0.00612097
0.00462196
0.00345595
0.00263895
0.0021018
0.00175634
0.00153065
0.00137518
0.00125818
0.0011606
0.00107228
0.000988911
0.000909496
0.000834516
0.000764791
0.000700926
0.000643149
0.000591348
0.000545177
0.000504169
0.000467821
0.000435646
0.000407201
0.0003821
0.000360012
0.000340659
0.000323811
0.000309277
0.000296903
0.000286566
0.000278173
0.000271656
0.000266975
0.000264391
0.000263494
0.000264124
0.000266914
0.000271851
0.000279069
0.000288778
0.000301257
0.000316859
0.000336024
0.000359294
0.000387335
0.000420964
0.000461187
0.000509245
0.000566696
0.000635512
0.00071826
0.000818365
0.000940544
0.00109152
0.00128118
0.00152444
0.00184423
0.00227604
0.00287417
0.00371876
0.00491893
0.00660055
0.00886028
0.0116737
0.0147843
0.017375
0.0183857
0.0185414
0.0191212
0.024058
0.0415627
0.0630625
0.0265805
0.0243614
0.0159895
0.0127591
0.0114386
0.0103701
0.00905649
0.00748416
0.0058534
0.00440535
0.00328709
0.00251055
0.00200454
0.00168131
0.00147035
0.00132383
0.00121177
0.0011167
0.00102975
0.000947466
0.000869293
0.000795852
0.000727926
0.00066601
0.000610212
0.000560326
0.000515943
0.000476566
0.000441679
0.0004108
0.000383496
0.000359394
0.000338175
0.000319573
0.000303367
0.000289374
0.000277443
0.000267455
0.000259315
0.000252955
0.000248332
0.000245654
0.000244659
0.000245032
0.000247415
0.000251807
0.000258331
0.000267179
0.000278614
0.000292967
0.000310656
0.000332195
0.00035822
0.00038951
0.000427023
0.000471941
0.000525729
0.000590233
0.00066782
0.000761604
0.000875818
0.00101643
0.00119215
0.00141615
0.00170883
0.00210226
0.00264674
0.00341947
0.00453196
0.00612612
0.00833814
0.0112054
0.0145228
0.0176883
0.0191882
0.0194242
0.0194816
0.0228049
0.0378445
0.0601174
0.0254861
0.0233456
0.0158769
0.0125154
0.0111108
0.0100172
0.00872323
0.00719574
0.00561805
0.00422046
0.00314557
0.00240359
0.00192334
0.00161817
0.00141901
0.00127958
0.00117137
0.0010783
0.000992542
0.000911298
0.000834335
0.000762352
0.000696078
0.000635909
0.000581855
0.000533635
0.000490797
0.000452823
0.000419195
0.000389433
0.000363115
0.00033988
0.000319421
0.00030148
0.000285843
0.000272332
0.0002608
0.000251128
0.000243221
0.00023701
0.000232449
0.00022969
0.000228605
0.000228766
0.000230796
0.000234709
0.000240616
0.000248698
0.000259198
0.00027243
0.000288789
0.000308766
0.000332967
0.000362141
0.000397204
0.000439289
0.000489794
0.000550467
0.000623521
0.000711833
0.000819248
0.000951111
0.00111516
0.00132303
0.00159284
0.00195336
0.00245072
0.00315794
0.00418569
0.00568606
0.00782877
0.0107174
0.0142273
0.017828
0.0199497
0.0203667