/*--------------------------------*- C++ -*----------------------------------*\
  =========                 |
  \\      /  F ield         | OpenFOAM: The Open Source CFD Toolbox
   \\    /   O peration     | Website:  https://openfoam.org
    \\  /    A nd           | Version:  13
     \\/     M anipulation  |
\*---------------------------------------------------------------------------*/
FoamFile
{
    format      ascii;
    class       volScalarField;
    location    "6";
    object      k;
}
// * * * * * * * * * * * * * * * * * * * * * * * * * * * * * * * * * * * * * //

dimensions      [0 2 -2 0 0 0 0];

internalField   nonuniform List<scalar> 
6400
(
4.97744e-07
2.55597e-06
6.19548e-06
9.99821e-06
1.28876e-05
1.45226e-05
1.5122e-05
1.51758e-05
1.5247e-05
1.57817e-05
1.71118e-05
1.97701e-05
2.4019e-05
2.99587e-05
3.731e-05
4.56756e-05
5.46425e-05
6.40103e-05
7.33979e-05
8.25168e-05
9.16143e-05
0.000101422
0.00011296
0.000126982
0.000143121
0.000159791
0.000176306
0.000192663
0.000209309
0.000226696
0.000244717
0.000262629
0.000280253
0.000297468
0.000314812
0.000332365
0.000350539
0.000369459
0.000389383
0.000410399
0.000432655
0.000456315
0.000481527
0.000508618
0.00053773
0.000569707
0.000606104
0.000650306
0.000699398
0.000747361
0.000796001
0.000842861
0.000887671
0.000928551
0.000964349
0.000993187
0.00101019
0.00101764
0.00101905
0.00100338
0.000972133
0.000925544
0.000864243
0.000789822
0.000704801
0.000612651
0.000518404
0.000425841
0.00033855
0.000259758
0.000196319
0.000143021
9.98509e-05
6.67266e-05
4.28483e-05
2.65627e-05
1.59373e-05
9.10524e-06
4.28646e-06
9.10578e-07
2.4118e-06
2.03185e-05
4.93148e-05
7.73923e-05
9.8324e-05
0.000110856
0.0001168
0.000119117
0.000121143
0.000125704
0.000136003
0.000155936
0.000186643
0.00022771
0.000277289
0.000332855
0.000392178
0.000453073
0.000513703
0.000573194
0.000633032
0.000697225
0.000771038
0.000857729
0.000954566
0.00105342
0.00114979
0.00124182
0.0013302
0.00141588
0.00149754
0.00157336
0.00164267
0.00170536
0.00176426
0.00181997
0.00187462
0.00192904
0.0019846
0.00204194
0.00210176
0.00216471
0.00223106
0.00230118
0.00237444
0.00245072
0.00252906
0.00260643
0.00268636
0.00277049
0.00285679
0.00294328
0.00302785
0.00310735
0.00317837
0.00323685
0.00327226
0.00328551
0.0032824
0.00324695
0.00317444
0.00306432
0.00291495
0.00272818
0.00250886
0.00226407
0.00200593
0.00174298
0.00148285
0.00123222
0.000992106
0.000773028
0.000582014
0.000421828
0.000293753
0.000195781
0.000124666
7.47654e-05
3.60923e-05
4.81753e-06
5.2855e-06
4.42729e-05
0.000103388
0.000153639
0.00018806
0.000208334
0.000219318
0.000226556
0.000235699
0.000252336
0.000282041
0.000329559
0.000396773
0.000482181
0.000582048
0.000692344
0.000809969
0.000932417
0.00105719
0.00118211
0.00130545
0.00142636
0.00154299
0.00165079
0.00174481
0.00182116
0.00187698
0.0019155
0.00194445
0.00197047
0.00199831
0.00202811
0.00206087
0.00209321
0.00212905
0.00216736
0.00221001
0.00225687
0.00230889
0.00236624
0.00242882
0.00249703
0.00257065
0.00264956
0.00273381
0.00282326
0.00291725
0.00301679
0.00312188
0.00323152
0.00334434
0.0034586
0.00357211
0.00368187
0.00378423
0.00387468
0.00394795
0.0039938
0.00401072
0.00400256
0.0039514
0.00385606
0.00371179
0.00351958
0.0032817
0.00300344
0.00270212
0.00238681
0.00206783
0.00175609
0.00146074
0.00118872
0.00094537
0.000733285
0.000553582
0.000405506
0.000285831
0.00018711
9.47768e-05
1.2856e-05
9.19292e-06
7.46766e-05
0.000163559
0.000231165
0.00027553
0.000302831
0.000320904
0.00033772
0.000361201
0.000399178
0.000458816
0.000544738
0.000657085
0.000791547
0.000941624
0.00110104
0.00126436
0.00142623
0.00158081
0.00172237
0.00184521
0.00194688
0.00202503
0.00207297
0.00209408
0.00209952
0.00209472
0.00209018
0.00208869
0.00209156
0.00210087
0.00211307
0.00213049
0.00215236
0.00217969
0.00221182
0.00224947
0.00229253
0.00234101
0.00239508
0.00245487
0.00252053
0.00259208
0.00266943
0.00275234
0.00284062
0.00293569
0.00303718
0.00314484
0.00325805
0.00337576
0.00349658
0.00361859
0.00373918
0.00385498
0.00396177
0.00405432
0.00412709
0.00416676
0.00417889
0.00415435
0.00408621
0.00397231
0.003813
0.00360083
0.00333506
0.00303208
0.00270189
0.0023605
0.00202258
0.00170058
0.0014038
0.00113784
0.00090507
0.000705705
0.000538251
0.000398342
0.000276476
0.00014998
2.13088e-05
1.47621e-05
0.000115484
0.00023515
0.000319375
0.000373793
0.00040947
0.000437537
0.000468742
0.000513495
0.0005815
0.00068001
0.000811296
0.000971364
0.0011515
0.00134142
0.00153134
0.00171231
0.00187567
0.0020123
0.00211758
0.0021816
0.00220782
0.00221153
0.00218418
0.00215374
0.00212624
0.00210403
0.00208806
0.00207986
0.00207668
0.00207663
0.00208224
0.00209242
0.00210677
0.00212544
0.00214805
0.00217468
0.00220495
0.00223875
0.00227629
0.0023176
0.002363
0.00241334
0.00246915
0.0025313
0.00260051
0.002676
0.00275848
0.00284809
0.00294505
0.00304928
0.00316039
0.00327753
0.00339933
0.00352382
0.00364836
0.0037683
0.00387851
0.00397251
0.00403671
0.00406303
0.00405826
0.00399408
0.00387585
0.00370733
0.00348742
0.00320543
0.00288173
0.00253333
0.00217896
0.0018362
0.00151909
0.00123617
0.000990615
0.000781929
0.000607177
0.000460553
0.000330002
0.000187037
2.70673e-05
2.27237e-05
0.000169914
0.000322379
0.000424028
0.000489887
0.000536185
0.000577752
0.000628406
0.000700794
0.000805037
0.000946056
0.00112127
0.00132095
0.00153128
0.0017377
0.00192671
0.0020865
0.00220935
0.00227832
0.00230238
0.00229517
0.00225191
0.00220851
0.00216581
0.00212501
0.0020894
0.0020599
0.00203583
0.00201678
0.00200132
0.00198883
0.00198165
0.0019781
0.00197692
0.00197778
0.00198201
0.00198845
0.00199755
0.0020093
0.00202412
0.00204228
0.00206436
0.00209003
0.00212003
0.00215473
0.00219473
0.0022406
0.00229339
0.0023541
0.00242374
0.00250349
0.00259426
0.00269671
0.00281104
0.0029365
0.00307128
0.00321361
0.00335905
0.00350246
0.00363491
0.00374757
0.00381726
0.00384209
0.00381621
0.00372221
0.00356707
0.00333397
0.00303595
0.00269061
0.00232127
0.00195258
0.00160652
0.00129829
0.00103453
0.000814781
0.000634155
0.000484433
0.000351026
0.000203023
2.90946e-05
3.37956e-05
0.000239901
0.000427584
0.000547964
0.000626948
0.000686314
0.000744852
0.00081923
0.000923125
0.00106478
0.00124422
0.00145235
0.00167336
0.0018887
0.00208066
0.00223421
0.00233123
0.00236982
0.00237177
0.00232668
0.00227577
0.00221395
0.00215405
0.00209286
0.00203884
0.00199212
0.00195146
0.00191542
0.00188369
0.00185647
0.00183309
0.00181271
0.00179465
0.00177869
0.00176493
0.00175352
0.00174422
0.00173728
0.00173316
0.00173143
0.00173121
0.00173453
0.00174049
0.00174988
0.00176288
0.00177997
0.00180178
0.00182904
0.00186301
0.00190485
0.00195616
0.00201904
0.00209577
0.00218873
0.00230002
0.00242967
0.00257846
0.0027454
0.00292519
0.00311112
0.00329504
0.00346381
0.00359811
0.0036628
0.0036755
0.00360459
0.00346814
0.00322228
0.00289661
0.00251729
0.00211633
0.00172663
0.00137514
0.0010771
0.000834801
0.000641807
0.000485896
0.000349605
0.000201786
2.8222e-05
4.86505e-05
0.000326523
0.000551498
0.000691963
0.000785673
0.000860199
0.000938168
0.0010382
0.00117308
0.00134676
0.00155264
0.00177485
0.00199227
0.00218326
0.00233026
0.00240643
0.00242854
0.00240316
0.00235054
0.00227806
0.00219638
0.00210934
0.00203213
0.00196269
0.00190403
0.00185066
0.00180269
0.00175888
0.00171917
0.00168314
0.00165034
0.00162046
0.0015934
0.00156917
0.00154783
0.00152924
0.00151323
0.00149983
0.001489
0.00148066
0.001475
0.00147235
0.00147158
0.00147361
0.00147914
0.00148784
0.00150046
0.00151735
0.00153887
0.00156564
0.00159845
0.00163838
0.00168676
0.00174565
0.00181833
0.00191069
0.00202837
0.00217547
0.00235508
0.00255965
0.00278481
0.00301904
0.00324576
0.00344453
0.00356412
0.00360505
0.00356454
0.00343492
0.00316285
0.00279589
0.00236941
0.00192712
0.00151214
0.00115593
0.000871103
0.000652184
0.000482935
0.000341476
0.000195126
2.6219e-05
6.77758e-05
0.000429676
0.000693636
0.000855278
0.000964845
0.00105558
0.00115337
0.00127739
0.00143748
0.00163164
0.00184627
0.00205979
0.00224806
0.00238604
0.00244979
0.00246122
0.00242184
0.00235853
0.00226528
0.00215638
0.00205447
0.0019647
0.00188518
0.00181414
0.00175091
0.00169256
0.00163946
0.00159082
0.00154678
0.00150704
0.00147154
0.00144018
0.00141289
0.00138946
0.00136967
0.00135332
0.00134015
0.00132996
0.00132243
0.00131774
0.00131562
0.00131508
0.00131686
0.00132134
0.00132825
0.00133767
0.00134978
0.00136476
0.00138286
0.00140438
0.00142972
0.00145941
0.0014941
0.00153463
0.00158222
0.00163883
0.00170766
0.00179385
0.00190733
0.00206721
0.00227613
0.00252824
0.00280299
0.00308603
0.00334682
0.00352153
0.00358836
0.00357783
0.00344586
0.00313695
0.00271651
0.00223286
0.00174488
0.00130625
0.000950163
0.000682378
0.000486068
0.000329961
0.000182139
2.40334e-05
9.13877e-05
0.000548007
0.000852242
0.00103582
0.0011615
0.00126779
0.00138297
0.00152528
0.0017001
0.00189891
0.00210207
0.00228457
0.00241584
0.00247304
0.00247949
0.0024371
0.00235674
0.00224051
0.00211525
0.00200176
0.00189999
0.00181044
0.00173019
0.00165782
0.00159227
0.00153248
0.00147887
0.00143111
0.00138934
0.00135333
0.0013229
0.00129772
0.00127736
0.00126135
0.00124917
0.0012403
0.00123426
0.00123122
0.00123006
0.00123002
0.00123256
0.00123636
0.00124202
0.00124932
0.00125834
0.00126913
0.00128184
0.00129666
0.00131381
0.00133355
0.00135609
0.00138163
0.00141048
0.00144297
0.00147952
0.00152054
0.00156724
0.0016218
0.00168843
0.00177505
0.00189456
0.00207248
0.00232821
0.00263675
0.00296877
0.00329044
0.00352219
0.0036152
0.00361978
0.00347634
0.00311914
0.00263395
0.00208821
0.00155717
0.0011031
0.000755131
0.000507728
0.000328746
0.000171488
2.23536e-05
0.000119769
0.000678118
0.00102435
0.00123019
0.001371
0.00149013
0.00161734
0.00176876
0.00194468
0.00213064
0.00230297
0.00242887
0.00248277
0.00248718
0.00244446
0.00235034
0.00221732
0.00208103
0.00195419
0.00184247
0.00174316
0.00165506
0.00157581
0.00150473
0.00144132
0.00138547
0.00133738
0.00129675
0.00126335
0.00123656
0.00121576
0.00120013
0.0011889
0.00118126
0.00117683
0.00117483
0.00117428
0.00117539
0.00117804
0.00118177
0.00118691
0.0011931
0.00120063
0.00120947
0.00121979
0.00123171
0.00124541
0.00126104
0.00127876
0.00129869
0.00132094
0.0013456
0.00137277
0.00140258
0.00143522
0.00147106
0.00150966
0.00155161
0.00159799
0.00165164
0.00171935
0.00181348
0.00195517
0.00218322
0.00251284
0.00288283
0.00326716
0.00354998
0.00366435
0.00367166
0.00350339
0.00308199
0.00252384
0.00191731
0.00135387
0.000898312
0.000567327
0.00034217
0.000170688
2.20565e-05
0.000154574
0.000815244
0.00120646
0.00143389
0.00158741
0.00171465
0.00184611
0.00199524
0.00215746
0.00231399
0.00243354
0.00248574
0.00248991
0.00244785
0.00234551
0.00220168
0.00205471
0.00191667
0.00179389
0.00168629
0.00159082
0.00150626
0.00143133
0.00136594
0.0013099
0.00126311
0.0012252
0.00119539
0.00117279
0.00115629
0.0011448
0.00113727
0.00113307
0.00113118
0.00113064
0.00113126
0.00113316
0.00113593
0.00113956
0.00114403
0.0011495
0.00115599
0.00116374
0.00117287
0.0011836
0.00119613
0.00121066
0.00122739
0.00124647
0.00126805
0.00129219
0.0013189
0.00134811
0.00137962
0.00141315
0.00144843
0.00148532
0.00152402
0.00156454
0.00160662
0.00165252
0.00170783
0.00178345
0.00190004
0.00209348
0.00242192
0.00283042
0.00327143
0.00359474
0.0037202
0.00372136
0.00349992
0.00299942
0.00236376
0.00170643
0.00112939
0.000689022
0.000386025
0.000180136
2.31415e-05
0.000193447
0.000959937
0.00139467
0.0016417
0.00180415
0.00193321
0.00205965
0.0021943
0.00232887
0.00243848
0.0024886
0.00249332
0.00245211
0.00234749
0.00219744
0.00203939
0.00189051
0.00175716
0.00164065
0.00153878
0.00144933
0.00137161
0.00130506
0.00124958
0.00120467
0.00116957
0.00114314
0.001124
0.00111074
0.001102
0.00109659
0.00109373
0.00109244
0.00109204
0.00109213
0.0010931
0.00109458
0.00109665
0.0010994
0.00110296
0.00110754
0.0011133
0.00112049
0.00112931
0.00113998
0.00115273
0.00116779
0.00118538
0.00120571
0.00122896
0.00125525
0.00128466
0.00131712
0.00135243
0.00139018
0.00142975
0.00147037
0.00151124
0.00155188
0.00159257
0.00163297
0.00167426
0.00172112
0.00178382
0.00188388
0.00205958
0.00236807
0.00280975
0.00329997
0.00365013
0.00377737
0.00374634
0.00344109
0.00284568
0.00213622
0.00144853
0.000883477
0.000479551
0.000210262
2.71322e-05
0.000235238
0.00110867
0.00158425
0.00184798
0.00201467
0.00213841
0.00225015
0.00235882
0.00245267
0.00249799
0.00250266
0.00246115
0.00235848
0.00220554
0.00203827
0.00187758
0.00173348
0.00160768
0.00149892
0.00140489
0.00132434
0.00125683
0.00120175
0.00115841
0.00112554
0.00110159
0.0010848
0.00107347
0.00106607
0.00106133
0.00105828
0.00105624
0.0010547
0.00105344
0.00105247
0.001052
0.00105185
0.00105225
0.00105349
0.00105574
0.0010592
0.00106408
0.0010706
0.00107896
0.00108939
0.00110211
0.00111735
0.00113535
0.00115635
0.0011806
0.00120832
0.00123968
0.0012748
0.00131361
0.00135586
0.00140099
0.00144808
0.00149585
0.00154276
0.00158741
0.0016293
0.00166849
0.00170672
0.00174772
0.00180172
0.00189156
0.00205438
0.00235231
0.00282135
0.00335475
0.0037075
0.0038182
0.00372749
0.00329948
0.00259952
0.00183313
0.00114678
0.000626374
0.000272245
3.61476e-05
0.000278592
0.00125754
0.00177029
0.00204723
0.00221301
0.00232428
0.00241235
0.00248529
0.00252113
0.0025236
0.00247908
0.00238044
0.00222737
0.00205294
0.00188042
0.00172413
0.0015882
0.00147158
0.00137227
0.00128848
0.00121934
0.00116409
0.00112148
0.00108991
0.00106738
0.00105182
0.00104127
0.00103409
0.00102896
0.00102495
0.00102146
0.00101816
0.00101491
0.00101178
0.00100889
0.00100642
0.00100459
0.00100373
0.00100354
0.00100465
0.00100733
0.00101155
0.00101759
0.0010256
0.00103577
0.00104831
0.00106344
0.00108139
0.00110243
0.00112684
0.00115494
0.00118701
0.00122335
0.00126413
0.00130938
0.00135887
0.00141196
0.00146749
0.00152368
0.00157819
0.00162849
0.00167284
0.00171108
0.00174358
0.00178095
0.00183085
0.00191493
0.00207219
0.00237196
0.00286846
0.00343855
0.00375524
0.00382737
0.0036455
0.0030485
0.00225125
0.00146086
0.000818066
0.000360175
4.96668e-05
0.000322142
0.00140275
0.00194822
0.0022346
0.00239422
0.00248664
0.00254238
0.00256612
0.00256144
0.00251076
0.00241579
0.00226435
0.00208484
0.00190103
0.00173114
0.00158313
0.00145722
0.00135121
0.00126309
0.00119136
0.00113483
0.00109195
0.00106062
0.00103852
0.00102323
0.00101262
0.00100491
0.00099879
0.000993377
0.000988152
0.000982882
0.000977537
0.000972227
0.000967143
0.000962496
0.000958504
0.000955377
0.000953568
0.000952869
0.000953104
0.000955424
0.000959324
0.000965126
0.000972929
0.000982899
0.000995206
0.00101004
0.00102764
0.00104825
0.00107218
0.00109978
0.00113143
0.00116755
0.00120852
0.00125468
0.00130619
0.00136289
0.00142417
0.00148867
0.00155415
0.00161742
0.00167462
0.00172333
0.00176298
0.00178631
0.0018184
0.00186797
0.00194988
0.00210935
0.00242677
0.00296171
0.00353207
0.00378726
0.00379766
0.00343924
0.0026739
0.00180696
0.00104325
0.000467561
6.66176e-05
0.000364995
0.00154017
0.00211426
0.00240676
0.00255388
0.00261795
0.0026356
0.00261872
0.0025607
0.00246779
0.0023182
0.00213541
0.00194129
0.00175676
0.00159422
0.00145661
0.00134199
0.00124782
0.00117207
0.00111298
0.0010686
0.00103647
0.00101388
0.00099813
0.000986859
0.000978199
0.000970805
0.000963831
0.000956827
0.000949641
0.000942319
0.000935027
0.000927989
0.000921444
0.000915621
0.000910727
0.000906947
0.000904713
0.000903809
0.000903768
0.000905995
0.000909843
0.000915583
0.000923298
0.000933118
0.000945186
0.000959672
0.000976775
0.000996738
0.00101985
0.00104647
0.001077
0.00111192
0.00115175
0.00119705
0.0012483
0.00130585
0.00136969
0.00143924
0.00151303
0.00158839
0.00166125
0.00172627
0.00178011
0.00181839
0.00183531
0.00186065
0.00191068
0.00199399
0.00216381
0.0025138
0.003097
0.00362431
0.00381502
0.00368299
0.00307232
0.00217224
0.00129383
0.00058848
8.59541e-05
0.000406358
0.00166814
0.00226547
0.00255708
0.00268517
0.00272091
0.00270435
0.00264074
0.00253874
0.00239133
0.00220621
0.00200305
0.00180344
0.00162391
0.00147139
0.00134541
0.00124295
0.00116129
0.00109808
0.00105087
0.00101686
0.000992941
0.000976117
0.000963792
0.000953947
0.00094519
0.000936677
0.000928003
0.000919075
0.000909992
0.000900965
0.000892243
0.000884077
0.000876696
0.000870298
0.00086505
0.000861089
0.000858828
0.000857942
0.000857933
0.000860236
0.000864155
0.000869913
0.000877589
0.000887285
0.000899127
0.000913257
0.000929854
0.000949133
0.000971356
0.000996848
0.00102601
0.00105931
0.00109734
0.00114073
0.00119019
0.00124642
0.00130995
0.00138096
0.00145895
0.00154232
0.00162796
0.00171081
0.00178391
0.00184253
0.00187499
0.00188748
0.00190643
0.00195771
0.00204664
0.0022373
0.00264321
0.00327304
0.00368412
0.00376799
0.00341947
0.00254618
0.0015661
0.000719321
0.000106797
0.000444598
0.0017835
0.00239661
0.00268232
0.00278911
0.00280166
0.00274423
0.00263455
0.00248813
0.0022993
0.00208817
0.00187373
0.00167521
0.00150418
0.00136314
0.00124945
0.00115953
0.00109028
0.00103873
0.00100163
0.00097553
0.000957078
0.000943386
0.000932242
0.000922139
0.000912202
0.000902035
0.000891578
0.00088097
0.000870449
0.000860284
0.00085073
0.000842012
0.000834313
0.000827781
0.000822533
0.00081866
0.000816546
0.00081575
0.000815927
0.000818322
0.000822318
0.000828085
0.000835705
0.000845266
0.000856878
0.00087067
0.000886797
0.000905448
0.000926855
0.000951303
0.00097915
0.00101084
0.00104692
0.00108806
0.00113505
0.00118876
0.0012501
0.00131982
0.00139829
0.00148511
0.00157853
0.00167489
0.00176809
0.00184942
0.0019085
0.00193327
0.00194146
0.00195475
0.00200862
0.00210864
0.00233735
0.00283019
0.00345792
0.0037273
0.00361943
0.00290578
0.00185547
0.000857189
0.000128376
0.000478294
0.00188331
0.00250561
0.00278253
0.0028704
0.00285741
0.00275946
0.00261064
0.0024181
0.00219876
0.00197015
0.00175151
0.00155852
0.00139802
0.00126917
0.00116795
0.00109029
0.00103255
0.000990985
0.000961737
0.000941056
0.000925694
0.000913162
0.000901774
0.00089056
0.000879096
0.000867326
0.00085541
0.000843607
0.000832196
0.000821435
0.000811541
0.000802683
0.000794993
0.000788565
0.000783474
0.000779777
0.000777825
0.000777116
0.00077746
0.000779881
0.000783883
0.000789593
0.000797096
0.000806476
0.000817836
0.000831296
0.000846995
0.0008651
0.000885813
0.000909382
0.000936117
0.000966408
0.00100075
0.00103976
0.00108421
0.00113503
0.00119329
0.00126013
0.00133654
0.0014231
0.0015194
0.00162343
0.00173069
0.00183368
0.00192174
0.00197732
0.00199268
0.00199591
0.00200511
0.00206291
0.00218547
0.00248289
0.00307133
0.00356989
0.003684
0.003232
0.00215659
0.000997004
0.000151066
0.000506639
0.00196632
0.00259192
0.00285831
0.00293083
0.002889
0.00275323
0.00256388
0.00233764
0.00209522
0.00185626
0.00163866
0.00145404
0.0013051
0.00118857
0.00109949
0.00103325
0.000985505
0.000951902
0.000928234
0.000910813
0.000896768
0.000884142
0.000871795
0.00085922
0.000846336
0.000833304
0.000820393
0.000807892
0.000796059
0.000785104
0.000775187
0.00076642
0.000758883
0.000752634
0.000747714
0.000744159
0.000742294
0.000741626
0.000742015
0.000744362
0.000748266
0.000753825
0.000761132
0.000770269
0.000781339
0.000794457
0.000809752
0.000827378
0.000847511
0.000870369
0.000896217
0.000925389
0.00095831
0.000995526
0.00103774
0.00108584
0.00114092
0.00120426
0.00127728
0.00136123
0.00145689
0.00156381
0.00167942
0.00179793
0.00190939
0.00199904
0.00204362
0.00205181
0.00205
0.00205594
0.00212318
0.00228816
0.00269906
0.00334065
0.00362864
0.00345021
0.00245874
0.00113935
0.000174304
0.000529226
0.00203248
0.00265652
0.00291148
0.00296973
0.00289912
0.00273267
0.00250563
0.00225163
0.00199273
0.00174909
0.00153621
0.0013616
0.00122456
0.00112005
0.00104234
0.000986195
0.000946657
0.000918971
0.000898914
0.000883121
0.000869241
0.00085587
0.00084235
0.000828527
0.000814544
0.000800669
0.000787199
0.000774395
0.000762465
0.000751557
0.000741772
0.000733176
0.000725811
0.000719707
0.00071489
0.000711386
0.000709492
0.000708798
0.000709087
0.00071125
0.00071495
0.000720265
0.000727292
0.000736121
0.000746854
0.000759607
0.000774504
0.000791689
0.000811325
0.000833603
0.000858754
0.000887062
0.000918888
0.0009547
0.000995107
0.0010409
0.00109312
0.00115304
0.00122222
0.00130235
0.001395
0.00150112
0.00162013
0.00174876
0.00187981
0.00200105
0.0020813
0.00210863
0.00210967
0.00209894
0.00210834
0.00219732
0.00243783
0.00299581
0.00347161
0.0035372
0.00276492
0.00130053
0.000200738
0.000545927
0.00208243
0.0027008
0.00294385
0.00298898
0.00289277
0.00269484
0.00243941
0.00216381
0.00189408
0.00165008
0.00144434
0.00128056
0.00115527
0.0010621
0.000994631
0.000947029
0.000913877
0.000890304
0.000872326
0.00085706
0.000842709
0.000828371
0.000813762
0.00079897
0.000784253
0.000769913
0.000756216
0.000743372
0.000731525
0.000720768
0.000711153
0.000702713
0.000695465
0.000689425
0.000684612
0.00068105
0.000679002
0.00067821
0.000678284
0.00068016
0.000683562
0.000688551
0.000695228
0.000703688
0.000714037
0.000726393
0.00074088
0.000757639
0.000776822
0.000798605
0.000823193
0.000850832
0.000881831
0.000916584
0.000955609
0.000999593
0.00104945
0.00110638
0.00117191
0.0012479
0.00133639
0.00143923
0.00155737
0.00168966
0.00183129
0.0019722
0.00209597
0.00216234
0.002175
0.002158
0.00213867
0.00216826
0.00229734
0.00268802
0.00330576
0.00354412
0.0030593
0.00150417
0.000235533
0.000557017
0.00211715
0.00272575
0.00295571
0.00298835
0.00287346
0.00264769
0.00236877
0.00207702
0.00180107
0.00155986
0.00136274
0.00120998
0.00109594
0.00101316
0.000954603
0.00091394
0.000885525
0.000864613
0.000847631
0.000832235
0.000817149
0.000801876
0.000786401
0.00077095
0.000755823
0.000741298
0.00072759
0.000714846
0.000703154
0.00069256
0.000683084
0.000674735
0.000667521
0.000661453
0.000656549
0.000652838
0.000650509
0.0006495
0.000649365
0.000650845
0.000653878
0.000658478
0.000664748
0.000672788
0.000682711
0.000694635
0.00070869
0.000725014
0.000743758
0.000765088
0.000789193
0.000816293
0.000846654
0.000880614
0.00091861
0.000961224
0.00100924
0.00106374
0.00112612
0.00119824
0.00128234
0.00138088
0.00149602
0.00162864
0.00177674
0.00193343
0.00208509
0.00219508
0.00223646
0.00223725
0.00219229
0.00217163
0.00223373
0.00246101
0.00303109
0.0034191
0.0032762
0.00176003
0.000282077
0.000562506
0.00213693
0.00273248
0.00295246
0.00297728
0.00283991
0.00259365
0.00229645
0.00199328
0.00171478
0.00147854
0.00129077
0.00114882
0.00104525
0.000971746
0.000920707
0.00088549
0.000860433
0.000841099
0.000824412
0.000808558
0.000792703
0.000776654
0.000760568
0.000744732
0.000729434
0.000714904
0.000701297
0.000688704
0.000677165
0.000666695
0.000657294
0.00064896
0.000641697
0.000635516
0.000630443
0.000626511
0.000623808
0.000622501
0.000622158
0.000623179
0.000625792
0.000629959
0.000635782
0.000643364
0.000652824
0.000664283
0.000677877
0.000693745
0.000712039
0.000732924
0.00075658
0.00078321
0.000813054
0.000846403
0.000883631
0.00092523
0.000971869
0.00102447
0.00108429
0.00115305
0.00123297
0.00132677
0.00143734
0.001567
0.00171607
0.00188067
0.00205029
0.00220576
0.00229166
0.00230872
0.00227911
0.00222439
0.00221669
0.00234164
0.00277395
0.00329412
0.00337406
0.0020619
0.000339292
0.000562164
0.00214452
0.00272777
0.00293838
0.00295194
0.00279776
0.00253534
0.00222456
0.00191399
0.00163573
0.00140585
0.00122766
0.00109599
0.00100196
0.000936531
0.000891678
0.000860606
0.000837825
0.000819315
0.000802517
0.000786091
0.000769554
0.000752926
0.000736456
0.000720439
0.000705124
0.000690685
0.000677218
0.000664769
0.000653345
0.00064294
0.000633543
0.000625151
0.000617767
0.000611409
0.000606104
0.000601892
0.000598821
0.000597148
0.000596574
0.000597116
0.000599279
0.000602989
0.000608339
0.000615438
0.000624406
0.000635371
0.000648472
0.000663854
0.000681674
0.000702096
0.000725302
0.000751485
0.000780871
0.000813719
0.000850356
0.0008912
0.000936817
0.000987991
0.00104582
0.00111184
0.00118814
0.00127748
0.00138315
0.00150853
0.00165593
0.0018245
0.00200739
0.00218903
0.00232472
0.00237417
0.00236843
0.00228806
0.00223986
0.00228403
0.00254958
0.00314914
0.00339348
0.00239738
0.000404976
0.000559105
0.00214267
0.00271232
0.00290959
0.00291464
0.00274889
0.00247479
0.00215465
0.00184002
0.00156406
0.00134133
0.00117255
0.00105044
0.000964944
0.000906404
0.000866529
0.000838531
0.000817217
0.00079904
0.000781928
0.000764939
0.000747855
0.000730831
0.000714153
0.00069809
0.000682842
0.000668526
0.000655192
0.000642851
0.000631489
0.000621088
0.000611635
0.000603128
0.000595574
0.000588996
0.000583427
0.000578908
0.00057549
0.000573405
0.000572577
0.000572667
0.000574366
0.000577607
0.000582473
0.000589073
0.000597529
0.000607975
0.000620553
0.000635416
0.000652726
0.000672655
0.000695384
0.000721112
0.000750052
0.000782451
0.000818598
0.00085886
0.000903718
0.000953836
0.00101015
0.001074
0.00114729
0.00123263
0.00133342
0.00145362
0.00159696
0.00176512
0.00195465
0.00215318
0.00233625
0.00243333
0.00244982
0.00239275
0.00229001
0.00226812
0.00241438
0.0029294
0.00330088
0.00272131
0.000470659
0.000552351
0.00213442
0.00268359
0.00287092
0.00286902
0.00269529
0.00241361
0.00208786
0.00177189
0.00149966
0.00128441
0.00112462
0.00101122
0.000933213
0.00088046
0.000844519
0.000818747
0.000798327
0.000780184
0.000762681
0.000745197
0.000727704
0.000710431
0.000693662
0.00067763
0.000662481
0.000648283
0.000635052
0.000622772
0.00061142
0.000600974
0.000591421
0.000582762
0.000575012
0.000568198
0.000562357
0.000557538
0.000553799
0.000551278
0.000550105
0.000549884
0.000551097
0.00055387
0.000558251
0.000564347
0.00057228
0.000582188
0.000594218
0.000608529
0.000625291
0.000644684
0.000666898
0.000692135
0.000720612
0.000752567
0.000788272
0.000828054
0.00087233
0.000921665
0.000976856
0.00103906
0.00110994
0.00119192
0.00128829
0.00140328
0.00154162
0.00170712
0.00189991
0.00211236
0.00232475
0.00247501
0.00252179
0.00249638
0.00236413
0.00228846
0.00234715
0.00274169
0.00317757
0.00296691
0.000521111
0.000541903
0.00211697
0.0026464
0.00282511
0.00281694
0.00263862
0.00235306
0.00202496
0.00170982
0.00144227
0.00123448
0.00108305
0.000977475
0.000905947
0.000857983
0.000825107
0.000800913
0.000780992
0.000762716
0.000744818
0.000726928
0.000709141
0.000691722
0.000674935
0.000658966
0.000643914
0.00062981
0.000616642
0.000604381
0.000592998
0.000582471
0.00057279
0.000563964
0.00055601
0.000548961
0.000542858
0.000537754
0.000533708
0.000530789
0.000529242
0.000528766
0.000529516
0.000531832
0.000535737
0.000541331
0.000548738
0.000558095
0.000569557
0.000583287
0.000599464
0.000618278
0.000639929
0.000664629
0.000692603
0.00072409
0.000759355
0.000798701
0.000842502
0.000891244
0.000945604
0.00100657
0.00107559
0.00115481
0.00124733
0.00135735
0.0014901
0.00165083
0.00184246
0.00206129
0.00229168
0.00249369
0.00258584
0.00259078
0.00247706
0.0023342
0.00231786
0.00257548
0.00306221
0.00308118
0.000543381
0.000528312
0.00209303
0.00260264
0.00277352
0.00276033
0.0025803
0.00229411
0.00196642
0.00165382
0.00139154
0.00119092
0.00104713
0.000948459
0.000882465
0.000838418
0.000807902
0.000784801
0.00076512
0.000746628
0.000728368
0.000710153
0.000692159
0.000674661
0.000657889
0.000641986
0.000627013
0.00061297
0.000599829
0.000587552
0.000576109
0.00056548
0.000555663
0.000546667
0.000538518
0.000531249
0.000524904
0.000519536
0.000515199
0.000511958
0.000510039
0.000509322
0.000509651
0.000511532
0.000514977
0.000520079
0.000526962
0.000535764
0.000546643
0.00055977
0.000575329
0.000593522
0.000614561
0.000638671
0.000666089
0.000697064
0.000731863
0.000770779
0.000814156
0.000862424
0.000916165
0.000976216
0.00104382
0.00112088
0.00121018
0.00131579
0.0014431
0.00159841
0.00178707
0.00200953
0.0022553
0.00249653
0.00264289
0.00267522
0.00259649
0.00239642
0.00231302
0.00244216
0.00295781
0.0031129
0.000546945
0.000512339
0.00206468
0.00255399
0.00271758
0.00270075
0.00252146
0.00223744
0.0019125
0.00160379
0.00134704
0.00115315
0.0010162
0.000923539
0.000862213
0.000821337
0.000792618
0.000770259
0.000750651
0.000731912
0.000713332
0.000694859
0.000676719
0.000659176
0.000642428
0.000626579
0.000611658
0.000597645
0.0005845
0.000572183
0.000560664
0.000549928
0.000539976
0.000530823
0.000522496
0.000515032
0.000508475
0.000502874
0.000498286
0.000494769
0.000492499
0.000491539
0.000491514
0.000492985
0.00049599
0.000500617
0.000506985
0.000515235
0.000525525
0.000538031
0.000552946
0.000570482
0.000590864
0.000614331
0.000641137
0.000671544
0.000705831
0.000744292
0.000787256
0.000835116
0.000888379
0.00094776
0.00101432
0.0010897
0.00117639
0.00127816
0.00140033
0.00154969
0.0017333
0.00195504
0.00220955
0.00247524
0.00268089
0.00274945
0.00271011
0.00250569
0.0023495
0.00237837
0.00279956
0.0030857
0.000536307
0.000494665
0.00203364
0.00250199
0.00265866
0.00263948
0.00246301
0.00218353
0.00186332
0.00155951
0.00130835
0.00112063
0.000989685
0.000902179
0.000844742
0.000806407
0.000779046
0.000757175
0.000737539
0.000718549
0.000699691
0.000681011
0.00066276
0.000645185
0.000628454
0.000612638
0.000597742
0.000583732
0.000570562
0.000558191
0.000546591
0.000535752
0.000525678
0.000516388
0.000507909
0.000500281
0.000493545
0.000487751
0.000482952
0.000479209
0.000476616
0.000475359
0.000475101
0.000476183
0.000478772
0.000482943
0.000488812
0.000496517
0.000506218
0.000518095
0.000532349
0.0005492
0.000568885
0.000591661
0.000617799
0.00064758
0.000681298
0.00071926
0.000761795
0.00080927
0.000862143
0.000921028
0.000986831
0.00106095
0.00114559
0.00124416
0.00136175
0.00150535
0.00168321
0.00190208
0.00216105
0.00244286
0.00269859
0.00281566
0.00281396
0.00262759
0.00239202
0.00235357
0.00266619
0.00302153
0.000519161
0.000475833
0.00200062
0.00244783
0.00259796
0.00257758
0.00240565
0.00213269
0.00181884
0.00152069
0.00127505
0.00109287
0.000967098
0.00088393
0.000829688
0.000793369
0.000767022
0.000745461
0.000725737
0.000706507
0.000687407
0.000668554
0.000650209
0.000632602
0.000615872
0.000600066
0.000585171
0.000571144
0.000557936
0.000545506
0.000533829
0.000522899
0.000512722
0.000503319
0.000494719
0.000486958
0.000480079
0.000474127
0.000469153