/*--------------------------------*- C++ -*----------------------------------*\
  =========                 |
  \\      /  F ield         | OpenFOAM: The Open Source CFD Toolbox
   \\    /   O peration     | Website:  https://openfoam.org
    \\  /    A nd           | Version:  13
     \\/     M anipulation  |
\*---------------------------------------------------------------------------*/
FoamFile
{
    format      ascii;
    class       volScalarField;
    location    "6";
    object      nut;
}
// * * * * * * * * * * * * * * * * * * * * * * * * * * * * * * * * * * * * * //

dimensions      [0 2 -1 0 0 0 0];

internalField   nonuniform List<scalar> 
6400
(
8.75011e-10
4.49327e-09
1.08914e-08
1.75764e-08
2.26558e-08
2.55299e-08
2.65836e-08
2.66781e-08
2.68032e-08
2.7743e-08
3.00811e-08
3.47541e-08
4.22232e-08
5.26646e-08
6.55875e-08
8.02934e-08
9.60563e-08
1.12524e-07
1.29027e-07
1.45057e-07
1.61049e-07
1.78291e-07
1.98573e-07
2.23223e-07
2.51594e-07
2.80898e-07
3.09929e-07
3.38683e-07
3.67944e-07
3.9851e-07
4.30188e-07
4.61676e-07
4.92657e-07
5.2292e-07
5.53409e-07
5.84266e-07
6.16216e-07
6.49475e-07
6.84501e-07
7.21446e-07
7.60571e-07
8.02164e-07
8.46484e-07
8.94109e-07
9.45287e-07
1.0015e-06
1.06549e-06
1.14319e-06
1.22949e-06
1.3138e-06
1.3993e-06
1.48168e-06
1.56045e-06
1.63231e-06
1.69523e-06
1.74592e-06
1.7758e-06
1.78889e-06
1.79137e-06
1.76381e-06
1.70888e-06
1.62698e-06
1.51922e-06
1.38839e-06
1.23893e-06
1.07694e-06
9.11271e-07
7.4856e-07
5.95114e-07
4.56613e-07
3.45097e-07
2.51406e-07
1.75521e-07
1.17294e-07
7.53197e-08
4.66926e-08
2.80151e-08
1.60056e-08
7.53496e-09
1.60067e-09
4.23981e-09
3.02045e-07
1.08743e-06
1.84332e-06
2.40726e-06
2.74099e-06
2.89398e-06
2.94598e-06
2.97889e-06
3.04888e-06
3.22752e-06
3.58417e-06
4.09135e-06
4.68951e-06
5.31817e-06
5.91407e-06
6.4331e-06
6.83114e-06
7.0893e-06
7.21746e-06
7.2822e-06
7.35446e-06
7.49818e-06
7.75059e-06
8.06678e-06
8.31015e-06
8.51628e-06
8.74252e-06
9.0336e-06
9.42715e-06
9.9457e-06
1.05122e-05
1.11324e-05
1.17683e-05
1.24418e-05
1.31376e-05
1.38655e-05
1.46202e-05
1.54075e-05
1.62255e-05
1.70691e-05
1.79412e-05
1.88341e-05
1.97802e-05
2.07515e-05
2.17234e-05
2.26613e-05
2.35226e-05
2.43538e-05
2.52308e-05
2.61052e-05
2.69832e-05
2.78415e-05
2.86636e-05
2.94256e-05
3.01614e-05
3.06877e-05
3.09761e-05
3.12429e-05
3.12766e-05
3.09987e-05
3.04037e-05
2.94944e-05
2.82327e-05
2.66329e-05
2.47252e-05
2.26223e-05
2.03471e-05
1.79283e-05
1.53673e-05
1.24995e-05
9.70472e-06
7.22608e-06
5.17317e-06
3.58109e-06
2.42493e-06
1.61226e-06
1.03461e-06
4.65642e-07
8.46853e-09
9.29161e-09
7.87734e-07
3.20467e-06
5.60479e-06
7.45531e-06
8.66091e-06
9.33743e-06
9.67417e-06
9.87547e-06
1.01172e-05
1.052e-05
1.11706e-05
1.20463e-05
1.30509e-05
1.406e-05
1.49558e-05
1.56887e-05
1.62335e-05
1.6587e-05
1.67619e-05
1.67779e-05
1.6715e-05
1.66559e-05
1.66435e-05
1.671e-05
1.69336e-05
1.72571e-05
1.75675e-05
1.79013e-05
1.82534e-05
1.86766e-05
1.92716e-05
2.01966e-05
2.11479e-05
2.22325e-05
2.33763e-05
2.46015e-05
2.58623e-05
2.71652e-05
2.85523e-05
2.99351e-05
3.1337e-05
3.27457e-05
3.40838e-05
3.53656e-05
3.66067e-05
3.78168e-05
3.90269e-05
4.02434e-05
4.14685e-05
4.26849e-05
4.38877e-05
4.50594e-05
4.61828e-05
4.7233e-05
4.8179e-05
4.89632e-05
4.95801e-05
4.98701e-05
5.00957e-05
4.99923e-05
4.95734e-05
4.88277e-05
4.7603e-05
4.58416e-05
4.34953e-05
4.07908e-05
3.7726e-05
3.43108e-05
3.05927e-05
2.66055e-05
2.24822e-05
1.84194e-05
1.46216e-05
1.12691e-05
8.43182e-06
6.16987e-06
4.22915e-06
1.75401e-06
2.25991e-08
1.61606e-08
1.29512e-06
5.05863e-06
8.69668e-06
1.15243e-05
1.34704e-05
1.46782e-05
1.53595e-05
1.57739e-05
1.61308e-05
1.66273e-05
1.73862e-05
1.83877e-05
1.94929e-05
2.0537e-05
2.14076e-05
2.2041e-05
2.24307e-05
2.26029e-05
2.26118e-05
2.25191e-05
2.24278e-05
2.24065e-05
2.24999e-05
2.25548e-05
2.25671e-05
2.24715e-05
2.27775e-05
2.34266e-05
2.4311e-05
2.55547e-05
2.67259e-05
2.79132e-05
2.91453e-05
3.04363e-05
3.17147e-05
3.29869e-05
3.43128e-05
3.56123e-05
3.68732e-05
3.81067e-05
3.93122e-05
4.04835e-05
4.16108e-05
4.26985e-05
4.37432e-05
4.47923e-05
4.58401e-05
4.68872e-05
4.79294e-05
4.89582e-05
4.99655e-05
5.09386e-05
5.1862e-05
5.27162e-05
5.34782e-05
5.41203e-05
5.46176e-05
5.49269e-05
5.5035e-05
5.49354e-05
5.45471e-05
5.37664e-05
5.29976e-05
5.18303e-05
4.99968e-05
4.77016e-05
4.49033e-05
4.16929e-05
3.81199e-05
3.42222e-05
3.00597e-05
2.57319e-05
2.13993e-05
1.72625e-05
1.34998e-05
1.02185e-05
7.13599e-06
2.94184e-06
3.74583e-08
2.59507e-08
1.94833e-06
7.05335e-06
1.17516e-05
1.52736e-05
1.7651e-05
1.91098e-05
1.99246e-05
2.03985e-05
2.08406e-05
2.15006e-05
2.24652e-05
2.3634e-05
2.48095e-05
2.58125e-05
2.6541e-05
2.69708e-05
2.71363e-05
2.70871e-05
2.69411e-05
2.66986e-05
2.65332e-05
2.63802e-05
2.57613e-05
2.56136e-05
2.60108e-05
2.69188e-05
2.80041e-05
2.9144e-05
3.04049e-05
3.16509e-05
3.28606e-05
3.4061e-05
3.52229e-05
3.63259e-05
3.73382e-05
3.83463e-05
3.93239e-05
4.01545e-05
4.09385e-05
4.16417e-05
4.22882e-05
4.29013e-05
4.34979e-05
4.41037e-05
4.47349e-05
4.5357e-05
4.59868e-05
4.66239e-05
4.7273e-05
4.79361e-05
4.86141e-05
4.93057e-05
5.00072e-05
5.07118e-05
5.14098e-05
5.20835e-05
5.2709e-05
5.32519e-05
5.36636e-05
5.38432e-05
5.38205e-05
5.34142e-05
5.24024e-05
5.15497e-05
5.05285e-05
4.87633e-05
4.65056e-05
4.38271e-05
4.0774e-05
3.73773e-05
3.36594e-05
2.96501e-05
2.54283e-05
2.11858e-05
1.71073e-05
1.32694e-05
9.30021e-06
3.76375e-06
4.75813e-08
3.99466e-08
2.83089e-06
9.41598e-06
1.51047e-05
1.91257e-05
2.16911e-05
2.31702e-05
2.3957e-05
2.44584e-05
2.50404e-05
2.59114e-05
2.70543e-05
2.82862e-05
2.93881e-05
3.02023e-05
3.06636e-05
3.07864e-05
3.06907e-05
3.02906e-05
2.99646e-05
2.95361e-05
2.85927e-05
2.83847e-05
2.89736e-05
2.98871e-05
3.08842e-05
3.20075e-05
3.31293e-05
3.42205e-05
3.52659e-05
3.61838e-05
3.70683e-05
3.7889e-05
3.85949e-05
3.91847e-05
3.97024e-05
4.01253e-05
4.05365e-05
4.08583e-05
4.1132e-05
4.13772e-05
4.1608e-05
4.18132e-05
4.2006e-05
4.21908e-05
4.23691e-05
4.25427e-05
4.27222e-05
4.29158e-05
4.31326e-05
4.3385e-05
4.36854e-05
4.40464e-05
4.44795e-05
4.499e-05
4.55699e-05
4.62239e-05
4.69431e-05
4.76951e-05
4.84285e-05
4.91097e-05
4.96446e-05
4.98669e-05
4.98355e-05
4.90144e-05
4.85623e-05
4.74197e-05
4.57058e-05
4.35205e-05
4.09366e-05
3.8018e-05
3.48005e-05
3.12744e-05
2.74021e-05
2.33045e-05
1.91372e-05
1.50218e-05
1.05523e-05
4.14905e-06
5.11452e-08
5.941e-08
3.98752e-06
1.21837e-05
1.87607e-05
2.30972e-05
2.56669e-05
2.70291e-05
2.77301e-05
2.82695e-05
2.89986e-05
3.00216e-05
3.1215e-05
3.23516e-05
3.3229e-05
3.37385e-05
3.38673e-05
3.34505e-05
3.30154e-05
3.26118e-05
3.14528e-05
3.1065e-05
3.14127e-05
3.22315e-05
3.29419e-05
3.38078e-05
3.46811e-05
3.55591e-05
3.63407e-05
3.70438e-05
3.76852e-05
3.82434e-05
3.87154e-05
3.90915e-05
3.93753e-05
3.95867e-05
3.97424e-05
3.98481e-05
3.99219e-05
3.99417e-05
3.99475e-05
3.99441e-05
3.99019e-05
3.98503e-05
3.97756e-05
3.96942e-05
3.95934e-05
3.94839e-05
3.93624e-05
3.9241e-05
3.91219e-05
3.90165e-05
3.89408e-05
3.89188e-05
3.89852e-05
3.91931e-05
3.95279e-05
4.0004e-05
4.06803e-05
4.153e-05
4.24773e-05
4.35132e-05
4.45393e-05
4.55289e-05
4.60825e-05
4.6258e-05
4.56502e-05
4.55944e-05
4.44248e-05
4.26495e-05
4.03682e-05
3.76986e-05
3.47564e-05
3.15919e-05
2.81509e-05
2.42957e-05
2.02622e-05
1.59295e-05
1.08531e-05
4.13646e-06
4.96112e-08
8.55237e-08
5.43972e-06
1.52935e-05
2.26186e-05
2.70971e-05
2.95439e-05
3.07266e-05
3.13362e-05
3.19123e-05
3.27312e-05
3.37804e-05
3.48619e-05
3.57403e-05
3.6247e-05
3.63433e-05
3.58492e-05
3.53903e-05
3.44504e-05
3.36535e-05
3.35085e-05
3.39905e-05
3.43642e-05
3.49538e-05
3.55536e-05
3.62944e-05
3.693e-05
3.75108e-05
3.7978e-05
3.83679e-05
3.86745e-05
3.89019e-05
3.90599e-05
3.91577e-05
3.92104e-05
3.9232e-05
3.92294e-05
3.92057e-05
3.91657e-05
3.91084e-05
3.90444e-05
3.89354e-05
3.88628e-05
3.87773e-05
3.86134e-05
3.84832e-05
3.8317e-05
3.8148e-05
3.79624e-05
3.77601e-05
3.75398e-05
3.73012e-05
3.70429e-05
3.67614e-05
3.64533e-05
3.61112e-05
3.58497e-05
3.57749e-05
3.59369e-05
3.65165e-05
3.73105e-05
3.83861e-05
3.96795e-05
4.10133e-05
4.23256e-05
4.32744e-05
4.36203e-05
4.32729e-05
4.33466e-05
4.20638e-05
4.00818e-05
3.75261e-05
3.45916e-05
3.14627e-05
2.82327e-05
2.47312e-05
2.07466e-05
1.63981e-05
1.10077e-05
4.02689e-06
4.609e-08
1.19144e-07
7.17397e-06
1.8658e-05
2.6529e-05
3.10314e-05
3.32823e-05
3.42643e-05
3.47799e-05
3.5353e-05
3.61593e-05
3.70914e-05
3.79181e-05
3.84298e-05
3.84015e-05
3.79239e-05
3.74266e-05
3.61741e-05
3.56352e-05
3.56317e-05
3.56561e-05
3.58876e-05
3.6314e-05
3.68194e-05
3.73071e-05
3.7789e-05
3.81487e-05
3.84439e-05
3.8648e-05
3.87996e-05
3.88979e-05
3.89623e-05
3.90032e-05
3.90317e-05
3.90546e-05
3.90744e-05
3.90914e-05
3.9104e-05
3.91101e-05
3.91042e-05
3.90695e-05
3.90427e-05
3.90219e-05
3.89274e-05
3.88446e-05
3.87415e-05
3.86159e-05
3.84716e-05
3.83045e-05
3.81144e-05
3.78965e-05
3.76478e-05
3.73648e-05
3.70402e-05
3.66669e-05
3.6233e-05
3.57326e-05
3.5176e-05
3.45661e-05
3.39352e-05
3.38314e-05
3.43112e-05
3.53897e-05
3.67261e-05
3.83415e-05
3.99494e-05
4.11847e-05
4.16508e-05
4.15785e-05
4.16804e-05
4.0224e-05
3.79242e-05
3.49744e-05
3.16402e-05
2.81997e-05
2.47447e-05
2.09455e-05
1.64471e-05
1.07552e-05
3.74285e-06
4.22478e-08
1.60652e-07
9.12385e-06
2.21196e-05
3.04044e-05
3.48388e-05
3.68522e-05
3.76222e-05
3.80188e-05
3.85146e-05
3.91885e-05
3.98722e-05
4.03364e-05
4.02015e-05
3.96896e-05
3.91437e-05
3.80268e-05
3.74659e-05
3.72108e-05
3.69227e-05
3.70648e-05
3.73113e-05
3.76596e-05
3.79969e-05
3.82857e-05
3.85202e-05
3.86707e-05
3.87861e-05
3.88629e-05
3.8934e-05
3.90012e-05
3.90797e-05
3.917e-05
3.92731e-05
3.93849e-05
3.94995e-05
3.96082e-05
3.97044e-05
3.97937e-05
3.98449e-05
3.98698e-05
3.99017e-05
3.98786e-05
3.98314e-05
3.97632e-05
3.96664e-05
3.95465e-05
3.94036e-05
3.92403e-05
3.90588e-05
3.88612e-05
3.86428e-05
3.83941e-05
3.81053e-05
3.776e-05
3.73459e-05
3.68409e-05
3.62283e-05
3.54938e-05
3.46467e-05
3.3758e-05
3.28831e-05
3.24197e-05
3.311e-05
3.4479e-05
3.6223e-05
3.80633e-05
3.96248e-05
4.02379e-05
4.02696e-05
4.03486e-05
3.86453e-05
3.59615e-05
3.25246e-05
2.87072e-05
2.48604e-05
2.09588e-05
1.6441e-05
1.05963e-05
3.50846e-06
3.92944e-08
2.10544e-07
1.1138e-05
2.55352e-05
3.41605e-05
3.8472e-05
4.02239e-05
4.07626e-05
4.09905e-05
4.1316e-05
4.17412e-05
4.20693e-05
4.18475e-05
4.12534e-05
4.06393e-05
3.96959e-05
3.89948e-05
3.84225e-05
3.80618e-05
3.79351e-05
3.80759e-05
3.82446e-05
3.84502e-05
3.86113e-05
3.87342e-05
3.88245e-05
3.8894e-05
3.89769e-05
3.90761e-05
3.92089e-05
3.93697e-05
3.95588e-05
3.97657e-05
3.99818e-05
4.01948e-05
4.04156e-05
4.06086e-05
4.0729e-05
4.08565e-05
4.09846e-05
4.10413e-05
4.10834e-05
4.10795e-05
4.10492e-05
4.09858e-05
4.08918e-05
4.07689e-05
4.06181e-05
4.04409e-05
4.02381e-05
4.00102e-05
3.9757e-05
3.94786e-05
3.91747e-05
3.88444e-05
3.84851e-05
3.80897e-05
3.75913e-05
3.69486e-05
3.61291e-05
3.5134e-05
3.40021e-05
3.28375e-05
3.1778e-05
3.14953e-05
3.2761e-05
3.4412e-05
3.6528e-05
3.8335e-05
3.90712e-05
3.91198e-05
3.91103e-05
3.71059e-05
3.39477e-05
2.99667e-05
2.5624e-05
2.12696e-05
1.65007e-05
1.05845e-05
3.48089e-06
3.87712e-08
2.71728e-07
1.29897e-05
2.88059e-05
3.77353e-05
4.18935e-05
4.33644e-05
4.36394e-05
4.36319e-05
4.369e-05
4.37639e-05
4.34354e-05
4.27327e-05
4.20641e-05
4.11833e-05
4.03994e-05
3.94916e-05
3.8998e-05
3.87084e-05
3.86364e-05
3.87006e-05
3.87624e-05
3.88405e-05
3.88939e-05
3.89539e-05
3.90325e-05
3.91488e-05
3.93164e-05
3.95306e-05
3.97892e-05
4.00773e-05
4.03841e-05
4.06944e-05
4.10177e-05
4.13246e-05
4.15757e-05
4.17656e-05
4.19577e-05
4.21599e-05
4.22815e-05
4.23734e-05
4.2429e-05
4.24458e-05
4.24288e-05
4.23759e-05
4.22891e-05
4.21693e-05
4.2018e-05
4.18361e-05
4.16247e-05
4.13843e-05
4.11148e-05
4.08153e-05
4.0484e-05
4.01175e-05
3.97122e-05
3.92644e-05
3.87725e-05
3.82329e-05
3.75985e-05
3.67604e-05
3.56697e-05
3.43974e-05
3.29894e-05
3.16289e-05
3.05498e-05
3.12851e-05
3.29591e-05
3.52282e-05
3.7181e-05
3.7966e-05
3.79928e-05
3.78052e-05
3.53705e-05
3.16616e-05
2.71257e-05
2.22077e-05
1.70588e-05
1.09028e-05
3.65893e-06
4.06779e-08
3.40063e-07
1.4829e-05
3.1922e-05
4.1095e-05
4.50731e-05
4.62407e-05
4.62084e-05
4.58912e-05
4.55907e-05
4.50879e-05
4.42438e-05
4.35367e-05
4.26378e-05
4.17464e-05
4.05911e-05
3.98269e-05
3.93908e-05
3.91373e-05
3.90477e-05
3.90253e-05
3.90141e-05
3.90384e-05
3.90876e-05
3.91952e-05
3.93653e-05
3.96046e-05
3.99059e-05
4.02543e-05
4.06352e-05
4.10307e-05
4.14276e-05
4.18283e-05
4.22058e-05
4.25401e-05
4.2821e-05
4.30912e-05
4.33112e-05
4.35123e-05
4.36876e-05
4.38049e-05
4.3886e-05
4.39273e-05
4.39302e-05
4.38939e-05
4.38194e-05
4.37071e-05
4.35582e-05
4.33739e-05
4.31556e-05
4.29045e-05
4.26215e-05
4.23065e-05
4.19582e-05
4.15729e-05
4.11449e-05
4.06662e-05
4.01283e-05
3.95247e-05
3.88561e-05
3.81276e-05
3.72531e-05
3.61251e-05
3.47254e-05
3.31448e-05
3.1556e-05
3.02639e-05
3.01195e-05
3.17874e-05
3.4109e-05
3.61155e-05
3.68686e-05
3.67742e-05
3.62322e-05
3.32203e-05
2.89566e-05
2.38161e-05
1.82138e-05
1.18235e-05
4.1702e-06
4.76913e-08
4.13527e-07
1.66189e-05
3.48402e-05
4.42067e-05
4.7985e-05
4.88256e-05
4.84371e-05
4.77363e-05
4.69454e-05
4.58949e-05
4.51421e-05
4.40712e-05
4.30594e-05
4.17351e-05
4.06908e-05
4.0026e-05
3.96198e-05
3.93719e-05
3.92491e-05
3.91835e-05
3.91705e-05
3.92314e-05
3.93666e-05
3.95935e-05
3.99008e-05
4.02794e-05
4.07092e-05
4.11709e-05
4.16472e-05
4.21227e-05
4.25866e-05
4.30304e-05
4.34407e-05
4.38148e-05
4.41569e-05
4.44792e-05
4.4756e-05
4.49716e-05
4.51521e-05
4.53491e-05
4.54624e-05
4.5537e-05
4.5569e-05
4.55553e-05
4.54968e-05
4.53929e-05
4.52443e-05
4.50523e-05
4.48186e-05
4.45458e-05
4.42367e-05
4.38938e-05
4.35187e-05
4.3111e-05
4.26673e-05
4.21794e-05
4.16345e-05
4.10158e-05
4.03064e-05
3.94971e-05
3.85983e-05
3.75827e-05
3.6385e-05
3.48802e-05
3.31763e-05
3.14574e-05
2.99184e-05
2.92104e-05
3.07774e-05
3.31185e-05
3.50625e-05
3.56775e-05
3.53846e-05
3.41566e-05
3.05686e-05
2.56602e-05
1.98567e-05
1.31519e-05
5.08407e-06
6.35371e-08
4.8974e-07
1.83193e-05
3.75211e-05
4.70457e-05
5.06125e-05
5.11089e-05
5.0326e-05
4.91882e-05
4.78535e-05
4.69983e-05
4.55849e-05
4.4441e-05
4.29452e-05
4.16531e-05
4.07129e-05
4.01101e-05
3.97188e-05
3.94756e-05
3.93504e-05
3.93102e-05
3.93689e-05
3.95354e-05
3.98047e-05
4.01724e-05
4.06153e-05
4.11143e-05
4.16462e-05
4.21926e-05
4.27387e-05
4.32728e-05
4.37873e-05
4.42761e-05
4.4735e-05
4.51643e-05
4.55643e-05
4.59327e-05
4.62688e-05
4.65823e-05
4.67924e-05
4.69841e-05
4.72065e-05
4.73116e-05
4.73844e-05
4.73998e-05
4.73618e-05
4.72677e-05
4.71177e-05
4.69125e-05
4.66539e-05
4.63452e-05
4.59908e-05
4.55961e-05
4.51667e-05
4.47077e-05
4.42216e-05
4.3707e-05
4.31556e-05
4.25507e-05
4.18661e-05
4.10697e-05
4.01324e-05
3.90487e-05
3.78251e-05
3.6364e-05
3.47964e-05
3.30574e-05
3.12377e-05
2.94629e-05
2.84355e-05
2.98841e-05
3.22637e-05
3.39714e-05
3.42869e-05
3.39372e-05
3.15715e-05
2.72443e-05
2.15863e-05
1.47152e-05
6.08338e-06
8.73007e-08
5.66295e-07
1.98951e-05
3.99386e-05
4.96017e-05
5.29494e-05
5.31051e-05
5.18702e-05
5.02673e-05
4.91347e-05
4.73703e-05
4.59731e-05
4.42944e-05
4.27521e-05
4.15273e-05
4.06716e-05
4.01101e-05
3.97414e-05
3.95303e-05
3.94551e-05
3.95029e-05
3.96828e-05
3.99862e-05
4.03965e-05
4.08933e-05
4.1449e-05
4.20423e-05
4.26523e-05
4.32649e-05
4.38692e-05
4.44583e-05
4.50277e-05
4.55746e-05
4.60975e-05
4.65954e-05
4.7066e-05
4.75058e-05
4.79109e-05
4.83029e-05
4.86187e-05
4.88236e-05
4.91058e-05
4.92883e-05
4.94003e-05
4.94544e-05
4.94416e-05
4.93617e-05
4.92125e-05
4.8994e-05
4.87074e-05
4.83554e-05
4.7943e-05
4.7477e-05
4.69661e-05
4.64201e-05
4.58489e-05
4.526e-05
4.46563e-05
4.40317e-05
4.33675e-05
4.26296e-05
4.17682e-05
4.07271e-05
3.95134e-05
3.81511e-05
3.62482e-05
3.44992e-05
3.28013e-05
3.08682e-05
2.8846e-05
2.76682e-05
2.9078e-05
3.14902e-05
3.27977e-05
3.26909e-05
3.18674e-05
2.82938e-05
2.3055e-05
1.62658e-05
7.08699e-06
1.17097e-07
6.41627e-07
2.13006e-05
4.20856e-05
5.19059e-05
5.49719e-05
5.46258e-05
5.30652e-05
5.14844e-05
4.9487e-05
4.77411e-05
4.58584e-05
4.40519e-05
4.25224e-05
4.13749e-05
4.05874e-05
4.00683e-05
3.97489e-05
3.96096e-05
3.96322e-05
3.98065e-05
4.01255e-05
4.05654e-05
4.11006e-05
4.17039e-05
4.23493e-05
4.30176e-05
4.36933e-05
4.43669e-05
4.50319e-05
4.56847e-05
4.63231e-05
4.69452e-05
4.75489e-05
4.81312e-05
4.86881e-05
4.92147e-05
4.97057e-05
5.01856e-05
5.06009e-05
5.08509e-05
5.11828e-05
5.14538e-05
5.16087e-05
5.17067e-05
5.17246e-05
5.16647e-05
5.15227e-05
5.12973e-05
5.09881e-05
5.05967e-05
5.01268e-05
4.95848e-05
4.89802e-05
4.83252e-05
4.76346e-05
4.69242e-05
4.62083e-05
4.54957e-05
4.47848e-05
4.40575e-05
4.32735e-05
4.23668e-05
4.12496e-05
3.99326e-05
3.8314e-05
3.60952e-05
3.40857e-05
3.24015e-05
3.03363e-05
2.8097e-05
2.69411e-05
2.83459e-05
3.05739e-05
3.1622e-05
3.08058e-05
2.87157e-05
2.41069e-05
1.76083e-05
7.97155e-06
1.51087e-07
7.14339e-07
2.25516e-05
4.39712e-05
5.38135e-05
5.65033e-05
5.59528e-05
5.44675e-05
5.22721e-05
4.98484e-05
4.77171e-05
4.56267e-05
4.37643e-05
4.22818e-05
4.12114e-05
4.0488e-05
4.00296e-05
3.97929e-05
3.97605e-05
3.99097e-05
4.02222e-05
4.06747e-05
4.12349e-05
4.18736e-05
4.25636e-05
4.32835e-05
4.40187e-05
4.47592e-05
4.54996e-05
4.62367e-05
4.69683e-05
4.76923e-05
4.84059e-05
4.91051e-05
4.97846e-05
5.04384e-05
5.10599e-05
5.16424e-05
5.22154e-05
5.27171e-05
5.30218e-05
5.34109e-05
5.37605e-05
5.39625e-05
5.4105e-05
5.41577e-05
5.41234e-05
5.39965e-05
5.37744e-05
5.34549e-05
5.30375e-05
5.25235e-05
5.19173e-05
5.12265e-05
5.04629e-05
4.96427e-05
4.87861e-05
4.79156e-05
4.70531e-05
4.62151e-05
4.5406e-05
4.46098e-05
4.37814e-05
4.28386e-05
4.16594e-05
4.02426e-05
3.82189e-05
3.5792e-05
3.35568e-05
3.18417e-05
2.95734e-05
2.70851e-05
2.63427e-05
2.77667e-05
2.93645e-05
2.97112e-05
2.86654e-05
2.47254e-05
1.86317e-05
8.67328e-06
1.87726e-07
7.81561e-07
2.36206e-05
4.5489e-05
5.52809e-05
5.7709e-05
5.73606e-05
5.52787e-05
5.25593e-05
5.00571e-05
4.75579e-05
4.53319e-05
4.34646e-05
4.2047e-05
4.10535e-05
4.04028e-05
4.00307e-05
3.99047e-05
3.99995e-05
4.02834e-05
4.07272e-05
4.12971e-05
4.19587e-05
4.26835e-05
4.34483e-05
4.42374e-05
4.50412e-05
4.58542e-05
4.66736e-05
4.74973e-05
4.83229e-05
4.91466e-05
4.99632e-05
5.07663e-05
5.15482e-05
5.23009e-05
5.30166e-05
5.36872e-05
5.43465e-05
5.49176e-05
5.52831e-05
5.57262e-05
5.61406e-05
5.63891e-05
5.65728e-05
5.66613e-05
5.66561e-05
5.65514e-05
5.63434e-05
5.60282e-05
5.5603e-05
5.50664e-05
5.44192e-05
5.36657e-05
5.28146e-05
5.18797e-05
5.08812e-05
4.9845e-05
4.88011e-05
4.77804e-05
4.68079e-05
4.58947e-05
4.50279e-05
4.41591e-05
4.31942e-05
4.19832e-05
4.03309e-05
3.79113e-05
3.53216e-05
3.29146e-05
3.10907e-05
2.85182e-05
2.57961e-05
2.56985e-05
2.73334e-05
2.83691e-05
2.74609e-05
2.48683e-05
1.92877e-05
9.19598e-06
2.2566e-07
8.40795e-07
2.44795e-05
4.66352e-05
5.63811e-05
5.89156e-05
5.83692e-05
5.59606e-05
5.29283e-05
5.00034e-05
4.73132e-05
4.50112e-05
4.31731e-05
4.18303e-05
4.0918e-05
4.0356e-05
4.00928e-05
4.00936e-05
4.03205e-05
4.07326e-05
4.12928e-05
4.19632e-05
4.27112e-05
4.35121e-05
4.43481e-05
4.52091e-05
4.60895e-05
4.69866e-05
4.78984e-05
4.88219e-05
4.97524e-05
5.06836e-05
5.16073e-05
5.25144e-05
5.33954e-05
5.42407e-05
5.50413e-05
5.57893e-05
5.65209e-05
5.71482e-05
5.75681e-05
5.80553e-05
5.85202e-05
5.88094e-05
5.90283e-05
5.91498e-05
5.91742e-05
5.90961e-05
5.89108e-05
5.86132e-05
5.81984e-05
5.76624e-05
5.70023e-05
5.6218e-05
5.5313e-05
5.42966e-05
5.31846e-05
5.20014e-05
5.07792e-05
4.95567e-05
4.83741e-05
4.72655e-05
4.62477e-05
4.53075e-05
4.43888e-05
4.33823e-05
4.21185e-05
4.01657e-05
3.74116e-05
3.46897e-05
3.21631e-05
3.00828e-05
2.71351e-05
2.46801e-05
2.50021e-05
2.62034e-05
2.65206e-05
2.47413e-05
1.9603e-05
9.4923e-06
2.65545e-07
8.90622e-07
2.5132e-05
4.74555e-05
5.72443e-05
5.9819e-05
5.90831e-05
5.62448e-05
5.30296e-05
4.98516e-05
4.70212e-05
4.46887e-05
4.29024e-05
4.16412e-05
4.0819e-05
4.03619e-05
4.02216e-05
4.03528e-05
4.07057e-05
4.12332e-05
4.18943e-05
4.2652e-05
4.34775e-05
4.43514e-05
4.52614e-05
4.62018e-05
4.71696e-05
4.81625e-05
4.91773e-05
5.02085e-05
5.12484e-05
5.22873e-05
5.33143e-05
5.43181e-05
5.52877e-05
5.62127e-05
5.70841e-05
5.78939e-05
5.86809e-05
5.93553e-05
5.98137e-05
6.03307e-05
6.08328e-05
6.11534e-05
6.13992e-05
6.15479e-05
6.15993e-05
6.15484e-05
6.13905e-05
6.11199e-05
6.07304e-05
6.02155e-05
5.95691e-05
5.87866e-05
5.7866e-05
5.68099e-05
5.56275e-05
5.43372e-05
5.29676e-05
5.15587e-05
5.01592e-05
4.88206e-05
4.75867e-05
4.6479e-05
4.54794e-05
4.45122e-05
4.3427e-05
4.19674e-05
3.95638e-05
3.67069e-05
3.39599e-05
3.12338e-05
2.8741e-05
2.54166e-05
2.38461e-05
2.45344e-05
2.51985e-05
2.39198e-05
1.9585e-05
9.62098e-06
3.06396e-07
9.30327e-07
2.55856e-05
4.79958e-05
5.78365e-05
6.04844e-05
5.95999e-05
5.66067e-05
5.30291e-05
4.96363e-05
4.67094e-05
4.43799e-05
4.26601e-05
4.14871e-05
4.07649e-05
4.04244e-05
4.04113e-05
4.06675e-05
4.11351e-05
4.17644e-05
4.25142e-05
4.33508e-05
4.42507e-05
4.51996e-05
4.61902e-05
4.72191e-05
4.82839e-05
4.9381e-05
5.05043e-05
5.16449e-05
5.27916e-05
5.39317e-05
5.50521e-05
5.61399e-05
5.71833e-05
5.81722e-05
5.90978e-05
5.99529e-05
6.07772e-05
6.14915e-05
6.197e-05
6.25e-05
6.30273e-05
6.33685e-05
6.36314e-05
6.37994e-05
6.38721e-05
6.38456e-05
6.37156e-05
6.34765e-05
6.31215e-05
6.26427e-05
6.20314e-05
6.12791e-05
6.03784e-05
5.93252e-05
5.81204e-05
5.67735e-05
5.53051e-05
5.37498e-05
5.21565e-05
5.05858e-05
4.9102e-05
4.77599e-05
4.65868e-05
4.55628e-05
4.46045e-05
4.3548e-05
4.15708e-05
3.87048e-05
3.5892e-05
3.29766e-05
3.00542e-05
2.69685e-05
2.35238e-05
2.29451e-05
2.32078e-05
2.29903e-05
1.94764e-05
9.7877e-06
3.5286e-07
9.59686e-07
2.58481e-05
4.83036e-05
5.81729e-05
6.09814e-05
5.98411e-05
5.67205e-05
5.29387e-05
4.93829e-05
4.63963e-05
4.40939e-05
4.24506e-05
4.1372e-05
4.07582e-05
4.05393e-05
4.06499e-05
4.10212e-05
4.15915e-05
4.23113e-05
4.31415e-05
4.40532e-05
4.50284e-05
4.60574e-05
4.71358e-05
4.8261e-05
4.94293e-05
5.06341e-05
5.18656e-05
5.31112e-05
5.43566e-05
5.55867e-05
5.67867e-05
5.79434e-05
5.90449e-05
6.00814e-05
6.10451e-05
6.19297e-05
6.27732e-05
6.35194e-05
6.40047e-05
6.45294e-05
6.50712e-05
6.54218e-05
6.56916e-05
6.58696e-05
6.59556e-05
6.59476e-05
6.5842e-05
6.56341e-05
6.53172e-05
6.48827e-05
6.43206e-05
6.36194e-05
6.27674e-05
6.17541e-05
6.05722e-05
5.92213e-05
5.77109e-05
5.60652e-05
5.43259e-05
5.25532e-05
5.08214e-05
4.92075e-05
4.77726e-05
4.65378e-05
4.54601e-05
4.44139e-05
4.31759e-05
4.07161e-05
3.76704e-05
3.47797e-05
3.15937e-05
2.85531e-05
2.46524e-05
2.22774e-05
2.21638e-05
2.23044e-05
1.93633e-05
1.01984e-05
4.14022e-07
9.79182e-07
2.59469e-05
4.83624e-05
5.82266e-05
6.11479e-05
6.0105e-05
5.67447e-05
5.27879e-05
4.9111e-05
4.60942e-05
4.38359e-05
4.22758e-05
4.12968e-05
4.07962e-05
4.06977e-05
4.09242e-05
4.13997e-05
4.2062e-05
4.28638e-05
4.37697e-05
4.47561e-05
4.58097e-05
4.69243e-05
4.80967e-05
4.9323e-05
5.05967e-05
5.19075e-05
5.32419e-05
5.45837e-05
5.59161e-05
5.72225e-05
5.84876e-05
5.9698e-05
6.08426e-05
6.19126e-05
6.29011e-05
6.38033e-05
6.46456e-05
6.54066e-05
6.59063e-05
6.64029e-05
6.69492e-05
6.72991e-05
6.75655e-05
6.77435e-05
6.78339e-05
6.78361e-05
6.77483e-05
6.75669e-05
6.7286e-05
6.68977e-05
6.63912e-05
6.57536e-05
6.497e-05
6.40248e-05
6.29035e-05
6.15957e-05
6.0099e-05
5.84242e-05
5.66005e-05
5.46798e-05
5.2737e-05
5.08642e-05
4.91545e-05
4.76775e-05
4.64494e-05
4.5408e-05
4.4394e-05
4.25293e-05
3.95231e-05
3.66019e-05
3.32827e-05
2.97641e-05
2.62263e-05
2.22081e-05
2.09335e-05
2.06481e-05
1.89965e-05
1.08649e-05
4.95836e-07
9.88831e-07
2.58793e-05
4.81667e-05
5.81582e-05
6.12792e-05
6.0136e-05
5.66799e-05
5.25963e-05
4.8835e-05
4.58111e-05
4.36083e-05
4.21358e-05
4.12597e-05
4.08729e-05
4.08895e-05
4.12223e-05
4.17918e-05
4.25378e-05
4.34159e-05
4.43955e-05
4.54578e-05
4.65935e-05
4.7798e-05
4.90675e-05
5.03959e-05
5.17727e-05
5.31837e-05
5.46119e-05
5.60384e-05
5.74448e-05
5.88137e-05
6.01299e-05
6.13807e-05
6.25557e-05
6.36473e-05
6.46498e-05
6.55599e-05
6.63844e-05
6.71476e-05
6.76687e-05
6.81197e-05
6.86596e-05
6.90005e-05
6.92543e-05
6.94225e-05
6.95076e-05
6.95106e-05
6.94316e-05
6.92687e-05
6.90178e-05
6.86718e-05
6.82206e-05
6.76509e-05
6.69461e-05
6.60869e-05
6.50533e-05
6.38262e-05
6.23916e-05
6.07459e-05
5.89021e-05
5.68971e-05
5.47962e-05
5.26926e-05
5.06967e-05
4.89127e-05
4.74057e-05
4.61665e-05
4.50887e-05
4.39559e-05
4.14116e-05
3.8176e-05
3.51388e-05
3.15667e-05
2.76198e-05
2.32985e-05
2.07293e-05
1.93938e-05
1.85673e-05
1.15158e-05
5.96411e-07
9.88229e-07
2.57133e-05
4.79178e-05
5.79417e-05
6.12772e-05
6.00667e-05
5.65481e-05
5.23797e-05
4.85652e-05
4.55518e-05
4.34117e-05
4.20293e-05
4.12571e-05
4.09812e-05
4.11054e-05
4.15347e-05
4.21897e-05
4.30128e-05
4.39637e-05
4.50164e-05
4.61563e-05
4.73766e-05
4.86731e-05
5.00399e-05
5.14674e-05
5.29413e-05
5.44438e-05
5.59548e-05
5.74537e-05
5.89212e-05
6.034e-05
6.16954e-05
6.29754e-05
6.41707e-05
6.52746e-05
6.62821e-05
6.71903e-05
6.79975e-05
6.87491e-05
6.92946e-05
6.96942e-05
7.02094e-05
7.0537e-05
7.07702e-05
7.09197e-05
7.09898e-05
7.09836e-05
7.09033e-05
7.0749e-05
7.05185e-05
7.02068e-05
6.9805e-05
6.93005e-05
6.86763e-05
6.79114e-05
6.69817e-05
6.58614e-05
6.45266e-05
6.29596e-05
6.11567e-05
5.91358e-05
5.69457e-05
5.46711e-05
5.24296e-05
5.03538e-05
4.85579e-05
4.70944e-05
4.59181e-05
4.48738e-05
4.29829e-05
3.978e-05
3.69148e-05
3.30574e-05
2.90577e-05
2.47491e-05
2.06192e-05
1.89356e-05
1.81759e-05
1.21503e-05
7.11875e-07
9.82852e-07
2.54511e-05
4.75012e-05
5.75353e-05
6.10658e-05
5.98971e-05
5.63639e-05
5.21501e-05
4.83089e-05
4.5319e-05
4.32458e-05
4.19539e-05
4.12842e-05
4.1114e-05
4.13372e-05
4.18545e-05
4.25878e-05
4.34831e-05
4.45044e-05
4.56298e-05
4.68483e-05
4.81541e-05
4.95419e-05
5.10028e-05
5.25236e-05
5.40863e-05
5.56698e-05
5.72521e-05
5.88116e-05
6.03289e-05
6.1787e-05
6.3172e-05
6.4473e-05
6.56815e-05
6.67912e-05
6.77979e-05
6.86987e-05
6.94916e-05
7.02177e-05
7.07899e-05
7.11478e-05
7.16123e-05
7.19254e-05
7.21317e-05
7.22547e-05
7.2301e-05
7.2276e-05
7.21838e-05
7.2027e-05
7.18058e-05
7.15173e-05
7.11549e-05
7.07076e-05
7.01591e-05
6.94883e-05
6.86687e-05
6.767e-05
6.64603e-05
6.50102e-05
6.32992e-05
6.1325e-05
5.91143e-05
5.67335e-05
5.42928e-05
5.19373e-05
4.98186e-05
4.80458e-05
4.6633e-05
4.54609e-05
4.42734e-05
4.1514e-05
3.83179e-05
3.50481e-05
3.05934e-05
2.60635e-05
2.09986e-05
1.84494e-05
1.7097e-05
1.27781e-05
8.2734e-07
9.7098e-07
2.51342e-05
4.6832e-05
5.70109e-05
6.07267e-05
5.96429e-05
5.61394e-05
5.19165e-05
4.80712e-05
4.51141e-05
4.31094e-05
4.19068e-05
4.13361e-05
4.12651e-05
4.15789e-05
4.21763e-05
4.2982e-05
4.39455e-05
4.5035e-05
4.62327e-05
4.75293e-05
4.89192e-05
5.03949e-05
5.19443e-05
5.35505e-05
5.51921e-05
5.68459e-05
5.84886e-05
6.00982e-05
6.16557e-05
6.3145e-05
6.4553e-05
6.58696e-05
6.7087e-05
6.81997e-05
6.92039e-05
7.00974e-05
7.08796e-05
7.15699e-05
7.21477e-05
7.24944e-05
7.28923e-05
7.31851e-05
7.336e-05
7.345e-05
7.34649e-05
7.34121e-05
7.3298e-05
7.31276e-05
7.29037e-05
7.2626e-05
7.22907e-05
7.18888e-05
7.14062e-05
7.08224e-05
7.01107e-05
6.92382e-05
6.81675e-05
6.68598e-05
6.52802e-05
6.34066e-05
6.12419e-05
5.8828e-05
5.62573e-05
5.36743e-05
5.12566e-05
4.91692e-05
4.75026e-05
4.62167e-05
4.51217e-05
4.291e-05
3.95936e-05
3.6839e-05
3.20449e-05
2.74055e-05
2.23408e-05
1.85013e-05
1.60623e-05
1.32298e-05
9.16034e-07
9.52612e-07
2.47277e-05
4.60944e-05
5.63991e-05
6.02718e-05
5.93169e-05
5.58845e-05
5.16855e-05
4.78555e-05
4.49378e-05
4.30011e-05
4.1885e-05
4.14084e-05
4.14291e-05
4.18255e-05
4.24963e-05
4.3369e-05
4.43971e-05
4.55527e-05
4.68208e-05
4.81934e-05
4.96638e-05
5.12219e-05
5.28523e-05
5.45346e-05
5.62451e-05
5.7959e-05
5.96522e-05
6.13034e-05
6.28939e-05
6.44085e-05
6.58352e-05
6.71645e-05
6.83893e-05
6.95043e-05
7.05061e-05
7.13927e-05
7.21638e-05
7.28211e-05
7.33929e-05
7.37412e-05
7.40679e-05
7.43353e-05
7.44754e-05
7.45276e-05
7.45047e-05
7.44165e-05
7.42714e-05
7.4077e-05
7.38387e-05
7.35592e-05
7.32374e-05
7.28674e-05
7.24374e-05
7.19292e-05
7.13169e-05
7.0567e-05
6.9639e-05
6.84874e-05
6.70655e-05
6.5334e-05
6.32717e-05
6.08924e-05
5.82616e-05
5.55082e-05
5.28175e-05
5.03943e-05
4.83945e-05
4.6848e-05
4.56116e-05
4.40852e-05
4.08145e-05
3.82524e-05
3.40235e-05
2.87763e-05
2.36167e-05
1.88618e-05
1.55407e-05
1.34047e-05
9.55185e-07
9.28721e-07
2.42174e-05
4.52468e-05
5.56946e-05
5.97234e-05
5.89309e-05
5.5607e-05
5.14619e-05
4.76639e-05
4.479e-05
4.29194e-05
4.18854e-05
4.14968e-05
4.16016e-05
4.20732e-05
4.28111e-05
4.37459e-05
4.4835e-05
4.60538e-05
4.73893e-05
4.8834e-05
5.03795e-05
5.20128e-05
5.37154e-05
5.54643e-05
5.72339e-05
5.89985e-05
6.07342e-05
6.24199e-05
6.40381e-05
6.55745e-05
6.70176e-05
6.83587e-05
6.9591e-05
7.07092e-05
7.17097e-05
7.259e-05
7.33489e-05
7.39858e-05
7.45437e-05
7.48954e-05
7.5154e-05
7.53918e-05
7.54949e-05
7.5506e-05
7.54407e-05
7.53108e-05
7.51272e-05
7.48996e-05
7.46364e-05
7.4343e-05
7.40215e-05
7.36692e-05
7.32774e-05
7.28305e-05
7.2305e-05
7.16681e-05
7.08784e-05
6.98863e-05
6.86368e-05
6.70761e-05
6.51614e-05
6.2878e-05
6.02594e-05
5.74079e-05
5.45017e-05
5.1772e-05
4.94397e-05
4.76227e-05
4.62566e-05
4.50702e-05
4.22582e-05
3.93853e-05
3.59298e-05
2.99523e-05
2.45746e-05
1.88976e-05
1.56795e-05
1.33928e-05
9.61451e-07
9.00642e-07
2.36723e-05
4.43142e-05
5.49036e-05
5.90975e-05
5.84956e-05
5.53133e-05
5.12494e-05
4.74979e-05
4.46704e-05
4.28624e-05
4.19052e-05
4.15978e-05
4.1779e-05
4.23188e-05
4.31177e-05
4.411e-05
4.5256e-05
4.65341e-05
4.79328e-05
4.94442e-05
5.10578e-05
5.2758e-05
5.45237e-05
5.63296e-05
5.81492e-05
5.99564e-05
6.17277e-05
6.34429e-05
6.50852e-05
6.66412e-05
6.81001e-05
6.94534e-05
7.06944e-05
7.18179e-05
7.28196e-05
7.36967e-05
7.44474e-05
7.50711e-05
7.56028e-05
7.59589e-05
7.61613e-05
7.63661e-05
7.64311e-05
7.63991e-05
7.62883e-05
7.61124e-05
7.58843e-05
7.56162e-05
7.5319e-05
7.50012e-05
7.46679e-05
7.43197e-05
7.39515e-05
7.35508e-05
7.30971e-05
7.25599e-05
7.18983e-05
7.10613e-05
6.99884e-05
6.8615e-05
6.68801e-05
6.47421e-05
6.22003e-05
5.93218e-05
5.62615e-05