/*--------------------------------*- C++ -*----------------------------------*\
  =========                 |
  \\      /  F ield         | OpenFOAM: The Open Source CFD Toolbox
   \\    /   O peration     | Website:  https://openfoam.org
    \\  /    A nd           | Version:  13
     \\/     M anipulation  |
\*---------------------------------------------------------------------------*/
FoamFile
{
    format      ascii;
    class       volScalarField;
    location    "6";
    object      p;
}
// * * * * * * * * * * * * * * * * * * * * * * * * * * * * * * * * * * * * * //

dimensions      [0 2 -2 0 0 0 0];

internalField   nonuniform List<scalar> 
6400
(
7.7369e-09
1.89833e-05
2.75879e-05
1.32589e-05
-2.91642e-05
-9.49674e-05
-0.000174871
-0.000260122
-0.000344586
-0.000425291
-0.000502794
-0.000581023
-0.000664522
-0.00075834
-0.000867421
-0.000995722
-0.00114618
-0.00132058
-0.00152016
-0.00174568
-0.00199767
-0.00227713
-0.00258661
-0.00293032
-0.00331435
-0.00374346
-0.00421482
-0.00471988
-0.00523996
-0.00574085
-0.00621357
-0.00666405
-0.00709096
-0.00749153
-0.00786103
-0.0081918
-0.00847351
-0.00869396
-0.00884008
-0.00889872
-0.0088572
-0.00870426
-0.00843098
-0.00803177
-0.0075035
-0.00684183
-0.0060393
-0.00510378
-0.00405185
-0.00289379
-0.00164588
-0.00032913
0.00102993
0.00240001
0.00374344
0.00501541
0.0061711
0.00716886
0.00796776
0.00853398
0.00884611
0.00889815
0.00869989
0.00827405
0.007669
0.00694098
0.00615418
0.00537209
0.00465335
0.00403003
0.00353795
0.00319367
0.00296796
0.00283357
0.00277349
0.00276345
0.00278371
0.00281871
0.00285739
0.00288437
-1.43401e-05
5.04812e-06
9.34921e-06
-9.71175e-06
-5.48941e-05
-0.000120717
-0.000197028
-0.000275546
-0.000351453
-0.000423381
-0.000493133
-0.000564558
-0.000642425
-0.000731247
-0.000834764
-0.000956357
-0.00109933
-0.00126621
-0.00145783
-0.00167455
-0.00191563
-0.00218106
-0.0024734
-0.00279555
-0.00315037
-0.00354401
-0.00398433
-0.00447148
-0.00499385
-0.00552954
-0.00605039
-0.00654407
-0.00701139
-0.00744962
-0.00785354
-0.00821531
-0.00852467
-0.00876996
-0.00893874
-0.00901895
-0.008999
-0.00886873
-0.00862002
-0.00824648
-0.00774308
-0.0071061
-0.00633972
-0.0054502
-0.00444153
-0.00332409
-0.00211756
-0.000842282
0.00047491
0.00180269
0.00310405
0.00433962
0.00546769
0.00644566
0.00723588
0.00780645
0.00813539
0.0082161
0.00805764
0.00768494
0.00713953
0.00647381
0.00575176
0.00503201
0.0043694
0.00380698
0.00336763
0.00305924
0.00287123
0.00277959
0.0027596
0.00278621
0.00282778
0.00286588
0.00289813
0.00292402
-2.97556e-05
-8.10793e-06
-9.0781e-06
-3.67926e-05
-8.96686e-05
-0.00015814
-0.000231071
-0.00030041
-0.000363316
-0.000421389
-0.000478084
-0.000538159
-0.000606551
-0.000686999
-0.000781898
-0.000892962
-0.0010217
-0.00117031
-0.00134105
-0.00153649
-0.00176001
-0.00201492
-0.00230513
-0.00263526
-0.00300973
-0.00343092
-0.00389946
-0.00441257
-0.00496095
-0.00552825
-0.00609504
-0.00664484
-0.00716741
-0.00765591
-0.00810372
-0.0085025
-0.00884266
-0.00911388
-0.00930519
-0.00940566
-0.00940532
-0.00929534
-0.00906839
-0.00871889
-0.00824384
-0.00764213
-0.00690807
-0.0060524
-0.00508272
-0.0040081
-0.00284442
-0.00161139
-0.00033412
0.000957801
0.00223014
0.00344558
0.00456299
0.00554071
0.00634198
0.00693581
0.00730002
0.00742567
0.00732108
0.00700994
0.00653106
0.00593537
0.00527886
0.00462406
0.00402095
0.00350869
0.00311219
0.00284909
0.00270855
0.00266412
0.00268175
0.00273901
0.0028067
0.00286428
0.0029114
0.00294819
-3.81981e-05
-1.71061e-05
-2.52005e-05
-6.36897e-05
-0.000126479
-0.00019834
-0.000268028
-0.000329082
-0.000380001
-0.00042272
-0.000463211
-0.000507967
-0.000562375
-0.000630101
-0.00071295
-0.000811644
-0.000927384
-0.00106282
-0.00122165
-0.00140914
-0.00163198
-0.00189758
-0.0022135
-0.00258243
-0.00300686
-0.00348822
-0.00402338
-0.00460308
-0.00521256
-0.00583554
-0.00645588
-0.00705857
-0.00763079
-0.00816322
-0.00864776
-0.00907568
-0.00943855
-0.00972728
-0.00993225
-0.0100439
-0.010054
-0.00995485
-0.00973995
-0.00940455
-0.00894629
-0.00836395
-0.00765692
-0.00682964
-0.00588851
-0.00484258
-0.00370623
-0.00249829
-0.00124201
3.54799e-05
0.00130286
0.00252371
0.00365688
0.00466235
0.00550188
0.00614308
0.0065628
0.00674826
0.00670451
0.00645442
0.00603488
0.00549325
0.00488582
0.00427252
0.00370519
0.00322482
0.00285658
0.00261371
0.0024896
0.00246982
0.00252701
0.00261949
0.00271864
0.00280629
0.00287721
0.00292626
-3.31962e-05
-1.87289e-05
-3.65499e-05
-8.62916e-05
-0.000158604
-0.000233564
-0.000299973
-0.000352735
-0.000391792
-0.000421081
-0.000447553
-0.000478603
-0.000520031
-0.000575436
-0.000646885
-0.000736099
-0.000845942
-0.000981805
-0.00115039
-0.00135947
-0.00161882
-0.00193375
-0.00230912
-0.00274948
-0.00325474
-0.0038198
-0.00443542
-0.00508792
-0.00576036
-0.00643688
-0.00710206
-0.00774354
-0.00835067
-0.00891311
-0.00942198
-0.0098689
-0.0102461
-0.0105452
-0.010758
-0.0108759
-0.0108928
-0.010802
-0.0105981
-0.0102766
-0.0098354
-0.00927392
-0.00859244
-0.00779334
-0.00688065
-0.00586209
-0.00475102
-0.00356559
-0.00232667
-0.00105753
0.000214421
0.00145294
0.00261569
0.0036656
0.00456451
0.00527698
0.0057776
0.00604995
0.00609252
0.00592249
0.00557706
0.00510149
0.00454956
0.00397854
0.00344292
0.00298563
0.00263487
0.00240313
0.00228933
0.00227755
0.00234422
0.00245615
0.00258009
0.00269464
0.00278766
0.0028457
-6.36443e-06
-4.85775e-06
-3.46496e-05
-9.77766e-05
-0.000178378
-0.000254696
-0.00031741
-0.000362886
-0.000392122
-0.00041095
-0.000427362
-0.000449219
-0.000482456
-0.000531258
-0.000599202
-0.000690443
-0.000811172
-0.000969727
-0.0011766
-0.00143922
-0.00176487
-0.0021607
-0.00262877
-0.00316685
-0.0037667
-0.00441712
-0.00510607
-0.00582033
-0.00654508
-0.00726551
-0.00796763
-0.00863985
-0.00927216
-0.00985521
-0.0103806
-0.0108402
-0.0112265
-0.0115325
-0.0117508
-0.0118738
-0.0118983
-0.0118186
-0.0116301
-0.0113288
-0.0109134
-0.0103825
-0.00973563
-0.00897473
-0.00810254
-0.00712501
-0.00605215
-0.00490014
-0.00368593
-0.00242815
-0.0011515
0.00010435
0.00130046
0.00240538
0.00338072
0.00418531
0.00479299
0.00518326
0.00534881
0.00529774
0.00506014
0.00468132
0.00421233
0.00370684
0.00321904
0.00279468
0.00246489
0.00224504
0.00213557
0.00212389
0.00218836
0.00230083
0.00243102
0.00255505
0.00265715
0.00271806
5.2264e-05
3.70852e-05
-8.1273e-06
-8.77575e-05
-0.00017373
-0.00025052
-0.000310165
-0.000350337
-0.000373933
-0.00038797
-0.000401063
-0.000421285
-0.000455196
-0.000508611
-0.000587877
-0.000700183
-0.000855476
-0.00106536
-0.00133799
-0.00168205
-0.00210393
-0.00260571
-0.00317951
-0.00381506
-0.00450252
-0.00523034
-0.00598521
-0.00675379
-0.00752281
-0.00827924
-0.00901089
-0.0097071
-0.0103584
-0.0109563
-0.0114927
-0.0119591
-0.0123493
-0.0126576
-0.0128786
-0.0130105
-0.0130472
-0.0129839
-0.0128166
-0.0125427
-0.0121603
-0.0116665
-0.0110614
-0.0103463
-0.00952568
-0.008606
-0.00759417
-0.0064966
-0.00532568
-0.0041003
-0.00284705
-0.00159178
-0.000362913
0.000805986
0.00186859
0.00278293
0.00352382
0.00406417
0.00439066
0.00450348
0.00442102
0.00418105
0.00383299
0.00342744
0.00301566
0.00264485
0.00234903
0.00214686
0.00204194
0.00202599
0.00208035
0.00218074
0.00230066
0.00241652
0.00251242
0.0025678
0.000152613
0.000117564
5.16988e-05
-4.1618e-05
-0.00013296
-0.000211003
-0.000269586
-0.000308504
-0.000332434
-0.0003494
-0.000368466
-0.000398109
-0.000446182
-0.000521155
-0.000632217
-0.000790341
-0.00100765
-0.00129536
-0.00166159
-0.00211313
-0.00264734
-0.00325644
-0.00393052
-0.00465809
-0.00542664
-0.00622342
-0.00703561
-0.00785078
-0.00865683
-0.00944221
-0.0101963
-0.0109096
-0.0115728
-0.0121771
-0.0127153
-0.0131818
-0.0135733
-0.0138855
-0.0141147
-0.0142586
-0.0143091
-0.0142629
-0.0141163
-0.0138674
-0.0135164
-0.0130611
-0.0125016
-0.0118397
-0.0110796
-0.0102266
-0.00928555
-0.00825825
-0.0071539
-0.0059893
-0.00478414
-0.00355526
-0.00232228
-0.00112421
6.11166e-06
0.0010394
0.00193336
0.00264914
0.00317114
0.00348842
0.00361004
0.0035578
0.00337475
0.00310896
0.00280781
0.00251778
0.00227562
0.00210346
0.00200892
0.00198748
0.00202637
0.00210625
0.00220393
0.00229928
0.00237458
0.00241511
0.00029988
0.000244867
0.000155109
4.88958e-05
-4.88412e-05
-0.000129748
-0.000190792
-0.000234091
-0.000266101
-0.000295799
-0.000332724
-0.000386205
-0.000466089
-0.00058366
-0.000751444
-0.000981562
-0.00128697
-0.00167839
-0.00215904
-0.00272559
-0.00337124
-0.00408473
-0.00485343
-0.00566406
-0.00650382
-0.00735999
-0.00822061
-0.00907409
-0.00990936
-0.010716
-0.0114846
-0.0122061
-0.0128714
-0.0134741
-0.0140107
-0.0144799
-0.0148773
-0.0151969
-0.0154339
-0.015582
-0.0156402
-0.0156064
-0.0154789
-0.015256
-0.0149371
-0.0145224
-0.0140118
-0.0134062
-0.0127075
-0.0119184
-0.0110423
-0.0100859
-0.00905704
-0.00796729
-0.00683002
-0.00565671
-0.00445909
-0.00326369
-0.00209523
-0.000979573
3.8984e-05
0.000936122
0.00167407
0.00222504
0.0025892
0.00277291
0.00280214
0.00271857
0.00256542
0.00238668
0.00222144
0.00209591
0.00202216
0.00200049
0.00202238
0.0020754
0.00214261
0.00220858
0.0022532
0.00227485
0.000501044
0.00042423
0.000307973
0.000187494
8.12621e-05
-5.39349e-06
-7.36469e-05
-0.000128427
-0.000177988
-0.000232221
-0.000301334
-0.000395899
-0.000528162
-0.000712185
-0.000961379
-0.0012883
-0.00170478
-0.00221487
-0.00281489
-0.00349719
-0.00425057
-0.00506068
-0.00591427
-0.00679784
-0.00769883
-0.008605
-0.00950503
-0.0103881
-0.0112441
-0.0120636
-0.0128382
-0.0135602
-0.0142247
-0.0148275
-0.0153638
-0.0158293
-0.0162187
-0.0165291
-0.0167593
-0.0169067
-0.0169694
-0.0169462
-0.0168361
-0.0166383
-0.0163523
-0.0159777
-0.0155154
-0.0149663
-0.0143318
-0.0136135
-0.0128137
-0.0119367
-0.0109878
-0.0099735
-0.0089008
-0.00777953
-0.00662875
-0.00546501
-0.00430208
-0.00315432
-0.00204853
-0.00101137
-8.55838e-05
0.000710033
0.00133664
0.00179053
0.00207625
0.00221967
0.00225498
0.00222152
0.00215827
0.0020975
0.00205709
0.00204274
0.00205129
0.00207648
0.00210951
0.0021389
0.00215035
0.00215342
0.000759364
0.000654461
0.000511487
0.000371573
0.000254554
0.000158121
7.66163e-05
1.86469e-06
-7.62311e-05
-0.000168483
-0.000285879
-0.000440774
-0.000647514
-0.000920859
-0.00127377
-0.00171719
-0.00225673
-0.00289055
-0.00361006
-0.00440299
-0.00525536
-0.00615251
-0.00708086
-0.00802716
-0.00897917
-0.00992518
-0.0108545
-0.0117572
-0.0126242
-0.0134476
-0.0142201
-0.0149361
-0.0155914
-0.0161818
-0.016704
-0.0171549
-0.0175312
-0.0178313
-0.0180544
-0.018199
-0.0182641
-0.0182489
-0.0181533
-0.0179775
-0.017719
-0.0173799
-0.0169608
-0.0164627
-0.0158869
-0.0152347
-0.0145082
-0.0137102
-0.0128441
-0.0119135
-0.0109221
-0.00987549
-0.00878273
-0.00765318
-0.00649981
-0.00534687
-0.00420541
-0.00308832
-0.00201956
-0.00102615
-0.000146856
0.000587175
0.00115869
0.00157055
0.00183736
0.00198844
0.00205777
0.00208112
0.00208676
0.00208832
0.00208984
0.00208982
0.00208844
0.0020793
0.00205969
0.0020466
0.00106341
0.000930456
0.000754278
0.000592208
0.000461463
0.000350933
0.000249212
0.000144934
2.62741e-05
-0.000118353
-0.000301124
-0.000535705
-0.000837167
-0.00121931
-0.0016927
-0.0022635
-0.00293126
-0.00368801
-0.00452091
-0.00541574
-0.00635724
-0.00733091
-0.00832309
-0.00932087
-0.0103123
-0.0112865
-0.0122334
-0.0131442
-0.0140113
-0.0148281
-0.015589
-0.0162899
-0.0169273
-0.0174986
-0.0180015
-0.0184342
-0.018795
-0.019083
-0.0192973
-0.0194374
-0.0195028
-0.0194932
-0.0194089
-0.01925
-0.0190161
-0.0187081
-0.0183269
-0.0178736
-0.0173495
-0.0167561
-0.016095
-0.0153683
-0.0145781
-0.0137267
-0.0128165
-0.0118504
-0.010832
-0.00976478
-0.00865412
-0.00750961
-0.00634414
-0.00518183
-0.0040302
-0.00290108
-0.00182133
-0.000834435
2.58928e-05
0.000730256
0.00126776
0.00164561
0.00188707
0.00202221
0.00208799
0.00211343
0.00211251
0.00209241
0.00206009
0.00201655
0.00197134
0.00194451
0.00139966
0.00123738
0.00102368
0.000836697
0.000688586
0.000558367
0.000428599
0.000284624
0.000113134
-9.83713e-05
-0.000362601
-0.000694155
-0.001107
-0.00161204
-0.00221566
-0.00291812
-0.00371248
-0.00458592
-0.00552353
-0.00650989
-0.00752949
-0.00856795
-0.00961172
-0.0106483
-0.0116665
-0.0126561
-0.0136085
-0.0145163
-0.0153733
-0.0161747
-0.0169165
-0.0175958
-0.0182107
-0.0187593
-0.0192406
-0.0196535
-0.0199973
-0.0202716
-0.0204762
-0.0206107
-0.020675
-0.0206694
-0.0205941
-0.0204496
-0.0202363
-0.0199548
-0.0196063
-0.0191919
-0.0187129
-0.0181707
-0.0175667
-0.0169026
-0.0161798
-0.0153997
-0.0145636
-0.0136726
-0.0127277
-0.01173
-0.0106805
-0.00958087
-0.00843448
-0.007249
-0.00603684
-0.00482351
-0.00361322
-0.00242977
-0.00131611
-0.000325996
0.000503536
0.00114673
0.00160339
0.00189108
0.00204198
0.00210155
0.00210283
0.00206629
0.00200828
0.00193731
0.00187374
0.0018384
0.00175131
0.00155686
0.00130303
0.00108732
0.000917704
0.000761748
0.000595806
0.000402109
0.000166016
-0.000125162
-0.000485155
-0.000927676
-0.00146374
-0.00210008
-0.00283708
-0.00366868
-0.00458277
-0.00556365
-0.00659521
-0.00766134
-0.00874662
-0.00983684
-0.0109189
-0.011981
-0.0130129
-0.014006
-0.0149529
-0.0158482
-0.0166873
-0.0174669
-0.0181846
-0.018839
-0.0194288
-0.0199534
-0.0204123
-0.0208053
-0.021132
-0.0213926
-0.0215872
-0.0217159
-0.0217787
-0.0217761
-0.0217084
-0.0215763
-0.0213805
-0.0211218
-0.0208012
-0.0204201
-0.0199796
-0.0194812
-0.0189262
-0.018316
-0.0176516
-0.016934
-0.0161635
-0.0153402
-0.0144636
-0.0135326
-0.012546
-0.011502
-0.0103993
-0.00923661
-0.00801564
-0.00674627
-0.00544737
-0.00413461
-0.00283254
-0.00159528
-0.000481691
0.000449995
0.00116135
0.00164688
0.00192481
0.00204043
0.00205266
0.0020028
0.00192292
0.00183068
0.00175547
0.00171506
0.00209478
0.00186669
0.00156982
0.0013232
0.00112798
0.000940221
0.000730211
0.000477708
0.000167189
-0.000214973
-0.000682265
-0.00124541
-0.00191148
-0.00268077
-0.00354775
-0.00450104
-0.00552477
-0.00660159
-0.00771456
-0.00884733
-0.0099847
-0.0111129
-0.0122196
-0.0132943
-0.0143282
-0.0153143
-0.0162471
-0.0171229
-0.0179387
-0.0186928
-0.0193841
-0.020012
-0.0205764
-0.0210771
-0.0215144
-0.0218883
-0.0221992
-0.0224471
-0.0226325
-0.0227558
-0.0228172
-0.0228171
-0.0227561
-0.0226349
-0.0224542
-0.0222149
-0.0219183
-0.0215654
-0.0211576
-0.0206963
-0.0201827
-0.019618
-0.0190033
-0.018339
-0.0176252
-0.0168614
-0.016046
-0.015177
-0.0142511
-0.0132645
-0.0122127
-0.0110911
-0.0098963
-0.00862715
-0.00728733
-0.00589027
-0.00446516
-0.00304115
-0.00168422
-0.000470325
0.000522894
0.0012484
0.00170316
0.001916
0.0019566
0.00190094
0.00180122
0.00169047
0.00160768
0.00156268
0.00240429
0.00214259
0.00180198
0.00152248
0.00129758
0.00107184
0.000810779
0.000492152
9.90263e-05
-0.000383261
-0.000965088
-0.00165354
-0.00244949
-0.00334741
-0.0043364
-0.00540058
-0.00652158
-0.00768106
-0.0088616
-0.0100469
-0.0112223
-0.0123749
-0.0134935
-0.0145694
-0.0155954
-0.0165664
-0.017479
-0.0183307
-0.0191204
-0.0198474
-0.0205118
-0.0211136
-0.0216535
-0.0221318
-0.0225491
-0.0229058
-0.0232024
-0.0234393
-0.0236169
-0.0237356
-0.023796
-0.0237985
-0.0237435
-0.0236319
-0.0234645
-0.0232421
-0.022966
-0.0226372
-0.022257
-0.0218269
-0.0213479
-0.0208214
-0.0202481
-0.0196286
-0.0189628
-0.0182497
-0.0174876
-0.0166738
-0.015804
-0.0148732
-0.0138749
-0.0128019
-0.0116472
-0.0104047
-0.00907087
-0.00764798
-0.00614966
-0.00460637
-0.00306709
-0.00161098
-0.000336304
0.000663925
0.00134143
0.00170424
0.00181024
0.00176144
0.00164533
0.0015172
0.00142567
0.00137277
0.00265771
0.00236056
0.00197714
0.0016633
0.00140456
0.00113558
0.000818479
0.000428451
-5.43316e-05
-0.000641806
-0.0013405
-0.00215269
-0.00307315
-0.00409115
-0.00519074
-0.00635265
-0.00755694
-0.00878464
-0.0100182
-0.0112418
-0.0124415
-0.0136058
-0.0147253
-0.0157929
-0.0168036
-0.017754
-0.0186425
-0.019468
-0.0202306
-0.0209307
-0.021569
-0.0221463
-0.0226636
-0.0231216
-0.0235211
-0.0238627
-0.0241471
-0.0243746
-0.0245459
-0.0246612
-0.0247213
-0.0247264
-0.0246772
-0.0245743
-0.0244187
-0.0242111
-0.0239526
-0.0236444
-0.0232876
-0.0228837
-0.0224337
-0.0219389
-0.0214
-0.0208176
-0.0201916
-0.0195211
-0.0188043
-0.0180382
-0.0172185
-0.0163394
-0.0153935
-0.0143722
-0.0132659
-0.0120648
-0.0107606
-0.00934892
-0.00783225
-0.00622694
-0.00457221
-0.00293518
-0.00141566
-0.000132892
0.000811373
0.00137582
0.00159754
0.00158291
0.00145935
0.00131293
0.00120527
0.00113883
0.00282543
0.00249803
0.00207451
0.00172571
0.00142983
0.00111449
0.000737866
0.000271326
-0.000303609
-0.000996049
-0.00180945
-0.00273927
-0.00377529
-0.00490157
-0.00609799
-0.00734295
-0.00861553
-0.00989648
-0.0111685
-0.0124166
-0.0136282
-0.0147933
-0.0159046
-0.0169569
-0.0179471
-0.0188736
-0.0197361
-0.0205349
-0.0212709
-0.0219453
-0.0225594
-0.0231144
-0.0236115
-0.0240517
-0.0244358
-0.0247646
-0.0250387
-0.0252587
-0.025425
-0.0255381
-0.0255984
-0.0256065
-0.0255628
-0.025468
-0.025323
-0.0251284
-0.0248853
-0.0245948
-0.0242581
-0.0238763
-0.0234506
-0.0229821
-0.0224717
-0.0219199
-0.0213267
-0.0206914
-0.0200124
-0.0192868
-0.0185104
-0.0176773
-0.0167801
-0.0158094
-0.0147544
-0.0136034
-0.0123442
-0.0109673
-0.00946743
-0.00784951
-0.00613742
-0.0043851
-0.00268102
-0.00114537
8.29908e-05
0.000899575
0.00129659
0.00135931
0.00124134
0.00107643
0.000941741
0.000857965
0.00289175
0.00253743
0.00207714
0.00169352
0.001359
0.000995601
0.000556698
1.23797e-05
-0.000653422
-0.00144776
-0.00236886
-0.00340706
-0.00454671
-0.00576717
-0.00704523
-0.00835777
-0.00968332
-0.0110028
-0.0122994
-0.0135595
-0.0147722
-0.0159293
-0.0170255
-0.0180576
-0.0190242
-0.0199252
-0.0207614
-0.0215342
-0.0222451
-0.0228958
-0.023488
-0.0240232
-0.0245026
-0.0249274
-0.0252985
-0.0256167
-0.0258825
-0.0260965
-0.0262592
-0.0263709
-0.0264322
-0.0264434
-0.0264051
-0.0263179
-0.0261824
-0.0259995
-0.02577
-0.025495
-0.0251754
-0.0248125
-0.0244073
-0.0239608
-0.0234741
-0.0229475
-0.0223813
-0.0217749
-0.021127
-0.0204352
-0.0196955
-0.0189026
-0.0180491
-0.0171258
-0.0161213
-0.015023
-0.0138168
-0.0124894
-0.0110302
-0.00943458
-0.0077122
-0.00590047
-0.00407691
-0.00234705
-0.000850753
0.000251589
0.000875282
0.00106829
0.000985746
0.000803772
0.000630977
0.000529058
0.00284221
0.00246546
0.00197301
0.00155609
0.00118283
0.000769762
0.000267702
-0.000351561
-0.00110394
-0.00199351
-0.00301292
-0.00414753
-0.00537667
-0.00667589
-0.00801978
-0.00938429
-0.0107479
-0.0120918
-0.0134006
-0.014662
-0.0158668
-0.0170091
-0.0180854
-0.0190943
-0.0200358
-0.0209111
-0.0217218
-0.02247
-0.0231577
-0.0237871
-0.0243599
-0.0248778
-0.025342
-0.0257538
-0.026114
-0.0264234
-0.0266825
-0.026892
-0.0270522
-0.0271634
-0.0272261
-0.0272406
-0.0272076
-0.0271274
-0.0270008
-0.0268284
-0.026611
-0.0263495
-0.0260449
-0.0256982
-0.0253105
-0.0248828
-0.0244158
-0.0239102
-0.0233662
-0.0227836
-0.0221614
-0.0214974
-0.0207885
-0.0200298
-0.0192147
-0.0183342
-0.0173775
-0.0163315
-0.0151811
-0.0139109
-0.0125065
-0.0109572
-0.00926022
-0.00743435
-0.00554359
-0.00368527
-0.00197473
-0.000590798
0.000306152
0.000688954
0.000679335
0.000485596
0.000269464
0.000151458
0.00266814
0.00227429
0.0017553
0.00130765
0.000895725
0.000433401
-0.000128699
-0.000818695
-0.00165154
-0.00262684
-0.00373289
-0.00495008
-0.0062534
-0.00761549
-0.00900948
-0.0104109
-0.0117985
-0.0131544
-0.0144644
-0.0157181
-0.0169083
-0.0180309
-0.0190843
-0.0200684
-0.0209845
-0.0218346
-0.0226212
-0.0233468
-0.0240136
-0.024624
-0.0251798
-0.0256827
-0.026134
-0.0265348
-0.026886
-0.0271883
-0.0274422
-0.0276483
-0.0278068
-0.0279181
-0.0279826
-0.0280007
-0.0279727
-0.0278992
-0.0277807
-0.0276178
-0.0274113
-0.0271619
-0.0268705
-0.0265381
-0.0261655
-0.0257537
-0.0253035
-0.0248155
-0.0242902
-0.0237273
-0.0231262
-0.0224854
-0.0218021
-0.0210722
-0.02029
-0.0194475
-0.0185344
-0.017538
-0.0164431
-0.0152332
-0.0138913
-0.0124033
-0.0107582
-0.00895567
-0.00703337
-0.00510359
-0.00324583
-0.00161808
-0.000432359
0.000188808
0.00029992
0.000115086
-0.000141177
-0.000274593
0.00236701
0.00196182
0.00142252
0.000947267
0.00049818
-1.10362e-05
-0.000628761
-0.00138325
-0.00228786
-0.00333809
-0.00451774
-0.00580276
-0.00716466
-0.00857399
-0.0100031
-0.0114274
-0.0128263
-0.0141832
-0.0154855
-0.0167245
-0.0178951
-0.0189948
-0.0200235
-0.0209823
-0.0218736
-0.0226999
-0.0234641
-0.0241691
-0.0248172
-0.0254109
-0.0259519
-0.0264419
-0.0268822
-0.0272738
-0.0276176
-0.0279142
-0.028164
-0.0283675
-0.0285251
-0.028637
-0.0287036
-0.0287252
-0.0287022
-0.0286349
-0.0285239
-0.0283698
-0.0281731
-0.0279345
-0.0276549
-0.027335
-0.0269758
-0.0265779
-0.0261422
-0.0256694
-0.0251598
-0.0246135
-0.0240301
-0.0234085
-0.0227466
-0.022041
-0.0212869
-0.0204773
-0.0196032
-0.0186524
-0.0176106
-0.0164607
-0.0151842
-0.0137645
-0.0121871
-0.0104397
-0.00852722
-0.00654846
-0.00461117
-0.00280541
-0.00135269
-0.000459034
-0.000171053
-0.000318872
-0.000600018
-0.000750137
0.00194182
0.00153132
0.000978066
0.000478804
-4.69561e-06
-0.000556382
-0.00122413
-0.00203602
-0.00300239
-0.00411549
-0.00535496
-0.00669292
-0.0080982
-0.00954
-0.0109903
-0.0124249
-0.0138242
-0.015173
-0.0164604
-0.0176796
-0.018827
-0.0199019
-0.0209053
-0.0218392
-0.0227067
-0.0235108
-0.0242545
-0.0249409
-0.0255724
-0.0261514
-0.0266796
-0.0271585
-0.0275895
-0.0279734
-0.028311
-0.0286029
-0.0288496
-0.0290513
-0.0292085
-0.0293213
-0.0293901
-0.0294152
-0.0293969
-0.0293355
-0.0292315
-0.0290854
-0.0288976
-0.0286689
-0.0283999
-0.0280914
-0.0277439
-0.0273584
-0.0269355
-0.0264758
-0.0259799
-0.0254479
-0.0248795
-0.0242742
-0.0236303
-0.0229453
-0.0222151
-0.0214341
-0.0205942
-0.0196847
-0.0186921
-0.0175996
-0.0163885
-0.0150395
-0.013536
-0.0118617
-0.0100053
-0.00799881
-0.00602054
-0.00410699
-0.00243397
-0.00126286
-0.000756348
-0.000830039
-0.00110693
-0.00128049
0.00140047
0.000990722
0.00042948
-8.93631e-05
-0.00060328
-0.00119254
-0.00190399
-0.00276465
-0.00378227
-0.0049458
-0.00623131
-0.00760781
-0.00904223
-0.0105029
-0.011962
-0.0133961
-0.0147867
-0.0161201
-0.0173872
-0.0185829
-0.0197051
-0.0207544
-0.0217325
-0.0226424
-0.0234874
-0.0242708
-0.024996
-0.0256657
-0.0262825
-0.0268485
-0.0273655
-0.027835
-0.0282579
-0.0286353
-0.0289678
-0.0292559
-0.0295001
-0.0297006
-0.0298577
-0.0299717
-0.0300428
-0.0300712
-0.0300574
-0.0300015
-0.029904
-0.0297653
-0.0295858
-0.0293661
-0.0291068
-0.0288084
-0.0284717
-0.0280973
-0.0276858
-0.0272379
-0.026754
-0.0262345
-0.0256793
-0.025088
-0.0244596
-0.0237922
-0.0230826
-0.0223262
-0.0215162
-0.0206435
-0.0196956
-0.0186571
-0.0175092
-0.0162313
-0.0148043
-0.0132106
-0.0114289
-0.00945483
-0.00743676
-0.00547569
-0.00365016
-0.00223003
-0.0014765
-0.00141637
-0.00166751
-0.00187666
0.000754797
0.000351952
-0.000211286
-0.000745043
-0.00128461
-0.00190613
-0.00265471
-0.00355528
-0.00461337
-0.00581506
-0.00713339
-0.00853504
-0.00998564
-0.0114533
-0.0129106
-0.0143351
-0.0157096
-0.0170221
-0.018265
-0.0194348
-0.0205308
-0.0215542
-0.0225078
-0.0233948
-0.0242188
-0.0249833
-0.0256915
-0.0263463
-0.0269499
-0.0275046
-0.0280119
-0.028473
-0.0288891
-0.029261
-0.0295892
-0.0298741
-0.0301163
-0.0303159
-0.0304732
-0.0305884
-0.0306618
-0.0306935
-0.0306839
-0.0306332
-0.0305417
-0.0304099
-0.030238
-0.0300265
-0.0297761
-0.0294871
-0.0291601
-0.0287958
-0.0283948
-0.0279575
-0.0274845
-0.0269762
-0.0264328
-0.0258539
-0.0252392
-0.0245871
-0.0238954
-0.0231604
-0.0223767
-0.0215365
-0.020629
-0.01964
-0.0185517
-0.0173432
-0.0159931
-0.0144823
-0.0127892
-0.0108953
-0.00884634
-0.006869
-0.00496553
-0.00335073
-0.00234731
-0.00209805
-0.00229997
-0.00255602
2.12435e-05
-0.000370709
-0.000929715
-0.00147372
-0.00203458
-0.00268299
-0.00346133
-0.00439292
-0.00548099
-0.00670917
-0.00804812
-0.00946285
-0.0109183
-0.0123827
-0.0138294
-0.015237
-0.0165898
-0.0178774
-0.0190937
-0.0202363
-0.0213057
-0.0223037
-0.0232337
-0.0240991
-0.0249036
-0.0256508
-0.0263436
-0.0269849
-0.0275769
-0.0281215
-0.0286201
-0.029074
-0.0294842
-0.0298512
-0.0301756
-0.030458
-0.0306985
-0.0308975
-0.0310552
-0.0311717
-0.0312473
-0.0312821
-0.0312765
-0.0312306
-0.0311447
-0.0310192
-0.0308543
-0.0306505
-0.0304082
-0.0301278
-0.0298099
-0.029455
-0.0290635
-0.0286361
-0.0281731
-0.0276751
-0.0271423
-0.0265748
-0.0259723
-0.0253339
-0.024658
-0.023942
-0.0231814
-0.02237
-0.0214986
-0.0205546
-0.0195217
-0.0183796
-0.0171055
-0.0156794
-0.0140817
-0.0122807
-0.0102571
-0.00825657
-0.00633694
-0.00459534
-0.00336816
-0.00290642
-0.00302165
-0.00333983
-0.000781867
-0.0011606
-0.00171057
-0.00226061
-0.00283792
-0.00350741
-0.0043083
-0.00526229
-0.00637048
-0.00761445
-0.00896314
-0.0103804
-0.0118311
-0.0132838
-0.0147127
-0.0160979
-0.0174251
-0.0186851
-0.0198733
-0.0209884
-0.0220314
-0.0230049
-0.0239124
-0.0247576
-0.0255441
-0.0262753
-0.0269542
-0.0275834
-0.0281649
-0.0287004
-0.0291914
-0.0296389
-0.0300437
-0.0304065
-0.0307277
-0.0310078
-0.031247
-0.0314455
-0.0316036
-0.0317214
-0.0317991
-0.0318369
-0.0318349
-0.0317935
-0.0317128
-0.0315931
-0.0314348
-0.031238
-0.0310033
-0.030731
-0.0304214
-0.0300752
-0.0296927
-0.0292744
-0.0288209
-0.0283325
-0.0278096
-0.0272525
-0.0266612
-0.0260353
-0.0253737
-0.0246746
-0.0239347
-0.0231489
-0.0223098
-0.0214065
-0.0204243
-0.0193442
-0.0181437
-0.0168004
-0.0152942
-0.0135947
-0.01167
-0.00963719
-0.00772938
-0.00593576
-0.00453377
-0.00385619
-0.00384905
-0.00425595
-0.00163697
-0.00200031
-0.00253741
-0.00308923
-0.00367815
-0.00436301
-0.0051798
-0.00614829
-0.00726767
-0.008518
-0.00986701
-0.0112781
-0.012716
-0.0141503
-0.0155562
-0.016915
-0.0182138
-0.0194448
-0.0206043
-0.021692
-0.0227094
-0.0236595
-0.0245458
-0.0253722
-0.026142
-0.0268586
-0.0275248
-0.0281429
-0.0287149
-0.0292423
-0.0297264
-0.0301681
-0.0305682
-0.0309272
-0.0312456
-0.0315237
-0.0317617
-0.0319599
-0.0321184
-0.0322374
-0.0323171
-0.0323576
-0.0323591
-0.0323218
-0.0322459
-0.0321316
-0.0319792
-0.031789
-0.0315614
-0.0312965
-0.0309948
-0.0306567
-0.0302826
-0.029873
-0.0294283
-0.028949
-0.0284355
-0.0278883
-0.0273075
-0.0266931
-0.0260446
-0.0253608
-0.0246396
-0.0238769
-0.0230668
-0.0222002
-0.0212643
-0.0202419
-0.0191112
-0.0178484
-0.0164325
-0.0148389
-0.013032
-0.0110097
-0.00911841
-0.00733538
-0.00582338
-0.00494585
-0.00480808
-0.00531119
-0.00252624
-0.00287233
-0.00339325
-0.00394268
-0.0045387
-0.00523377
-0.00606048
-0.00703646
-0.00815927
-0.00940789
-0.0107494
-0.012147
-0.0135661
-0.014977
-0.0163561
-0.0176859
-0.0189548
-0.0201561
-0.0212872
-0.0223481
-0.0233409
-0.0242688
-0.0251353
-0.0259441
-0.0266986
-0.0274018
-0.0280564
-0.0286644
-0.0292278
-0.0297478
-0.0302256
-0.0306621
-0.0310579
-0.0314135
-0.0317293
-0.0320056
-0.0322426
-0.0324405
-0.0325994
-0.0327196
-0.032801
-0.032844
-0.0328487
-0.0328151
-0.0327436
-0.0326344
-0.0324876
-0.0323034
-0.0320823
-0.0318244
-0.03153
-0.0311996
-0.0308335
-0.030432
-0.0299957
-0.0295251
-0.0290206
-0.0284827
-0.0279119
-0.0273084
-0.0266721
-0.0260025
-0.0252982
-0.0245564
-0.0237725
-0.0229391
-0.0220453
-0.0210756
-0.0200101
-0.018825
-0.0174986
-0.01601
-0.0143184
-0.0123811
-0.010483
-0.0087434
-0.00718884
-0.00615522
-0.00591443
-0.00648575
-0.00343243
-0.00375925
-0.00426116
-0.00480489
-0.005404
-0.00610463
-0.00693596
-0.0079134
-0.00903314
-0.0102734
-0.0116012
-0.0129799
-0.0143755
-0.0157595
-0.0171093
-0.0184087
-0.0196472
-0.020819
-0.0219223
-0.0229575
-0.023927
-0.024834
-0.025682
-0.0264746
-0.0272149
-0.0279058
-0.0285496
-0.0291485
-0.0297039
-0.0302172
-0.0306893
-0.031121
-0.0315129
-0.0318654
-0.0321789
-0.0324535
-0.0326896
-0.0328872
-0.0330465
-0.0331676
-0.0332508
-0.033296
-0.0333035
-0.0332734
-0.033206
-0.0331013
-0.0329596
-0.032781
-0.0325659
-0.0323145
-0.032027
-0.0317038
-0.0313452
-0.0309515
-0.0305232
-0.0300609
-0.029565
-0.0290361
-0.0284748
-0.0278817
-0.0272569
-0.0266006
-0.0259119
-0.0251892
-0.0244291
-0.0236257
-0.02277
-0.0218486
-0.0208434
-0.0197316
-0.0184899
-0.0170975
-0.0155203
-0.01372
-0.0118205
-0.0101328
-0.00858325
-0.00744968
-0.00714908
-0.00774844
-0.00433869
-0.00464455
-0.00512522
-0.00566061
-0.00625944
-0.00696161
-0.00779307
-0.008767
-0.00987845
-0.011105
-0.0124143
-0.01377
-0.0151392
-0.016494
-0.0178133
-0.0190819
-0.0202902
-0.0214333
-0.0225099
-0.0235207
-0.0244683
-0.0253558
-0.0261867
-0.0269642
-0.0276914
-0.028371
-0.0290051
-0.0295955
-0.0301437
-0.0306508
-0.0311176
-0.031545
-0.0319333
-0.0322829
-0.0325942
-0.0328673
-0.0331024
-0.0332998
-0.0334594
-0.0335814
-0.033666
-0.0337133
-0.0337234
-0.0336965
-0.0336326
-0.0335321
-0.0333951
-0.0332217
-0.0330122
-0.0327667
-0.0324856
-0.0321691
-0.0318176
-0.0314313
-0.0310107
-0.0305563
-0.0300687
-0.0295485
-0.0289964
-0.0284131
-0.0277993
-0.0271554
-0.0264813
-0.0257762
-0.0250377
-0.0242615
-0.0234404
-0.0225631
-0.0216133
-0.0205699
-0.0194089
-0.0181098
-0.0166476
-0.0149867
-0.0131201
-0.0114736
-0.00996677
-0.00878778
-0.00844865
-0.00901918
-0.00522945
-0.00551319
-0.00597108
-0.0064959
-0.00709162
-0.00779206
-0.00861995
-0.0095864
-0.0106857
-0.0118947
-0.0131818
-0.014512
-0.0158529
-0.0171776
-0.0184661
-0.0197042
-0.0208832
-0.0219989
-0.0230501
-0.0240381
-0.0249652
-0.0258346
-0.0266497
-0.0274134
-0.0281286
-0.0287978
-0.0294229
-0.0300055
-0.0305471
-0.0310485
-0.0315105
-0.0319338
-0.0323188
-0.0326658
-0.0329751
-0.0332468
-0.0334811
-0.0336781
-0.033838
-0.0339608
-0.0340467
-0.0340958
-0.0341082
-0.0340841
-0.0340235
-0.0339268
-0.0337939
-0.0336252
-0.0334208
-0.0331809
-0.0329057
-0.0325955
-0.0322505
-0.0318712
-0.0314579
-0.0310111
-0.0305314
-0.0300195
-0.0294763
-0.0289025
-0.0282992
-0.027667
-0.0270065
-0.0263175
-0.0255989
-0.0248475
-0.0240577
-0.0232202
-0.0223207
-0.0213401
-0.0202552
-0.0190458
-0.0176918
-0.0161523
-0.0143912
-0.0127601
-0.0112983
-0.0101153
-0.00972771
-0.0101923
-0.00608987
-0.00635156
-0.00678575
-0.00729831
-0.00788867
-0.00858476
-0.00940631
-0.0103624
-0.0114464
-0.0126354
-0.013898
-0.0152014
-0.0165132
-0.0178077
-0.019066
-0.0202746
-0.0214257
-0.0225154
-0.023543
-0.0245097
-0.025418
-0.0262708
-0.0270713
-0.0278224
-0.0285266
-0.0291862
-0.0298031
-0.0303787