/*--------------------------------*- C++ -*----------------------------------*\
  =========                 |
  \\      /  F ield         | OpenFOAM: The Open Source CFD Toolbox
   \\    /   O peration     | Website:  https://openfoam.org
    \\  /    A nd           | Version:  13
     \\/     M anipulation  |
\*---------------------------------------------------------------------------*/
FoamFile
{
    format      ascii;
    class       surfaceScalarField;
    location    "6";
    object      phi;
}
// * * * * * * * * * * * * * * * * * * * * * * * * * * * * * * * * * * * * * //

dimensions      [0 3 -1 0 0 0 0];

internalField   nonuniform List<scalar> 
12640
(
1.59351e-09
-1.59366e-09
1.46989e-08
-1.31054e-08
3.78061e-08
-2.31073e-08
6.4573e-08
-2.67669e-08
8.88417e-08
-2.42687e-08
1.07085e-07
-1.82437e-08
1.17964e-07
-1.08787e-08
1.22289e-07
-4.32533e-09
1.22288e-07
1.77938e-12
1.20221e-07
2.06673e-09
1.18027e-07
2.19369e-09
1.16973e-07
1.05421e-09
1.17475e-07
-5.0221e-10
1.19238e-07
-1.76324e-09
1.21458e-07
-2.21931e-09
1.23226e-07
-1.76806e-09
1.23693e-07
-4.66925e-10
1.22339e-07
1.35361e-09
1.18405e-07
3.93403e-09
1.10997e-07
7.40807e-09
9.94985e-08
1.14985e-08
8.3369e-08
1.61295e-08
6.21489e-08
2.12201e-08
3.56534e-08
2.64955e-08
3.8613e-09
3.17921e-08
-3.33838e-08
3.72451e-08
-7.72128e-08
4.38289e-08
-1.29843e-07
5.26298e-08
-1.94053e-07
6.42104e-08
-2.72236e-07
7.8183e-08
-3.63871e-07
9.1635e-08
-4.65763e-07
1.01892e-07
-5.74559e-07
1.08796e-07
-6.86925e-07
1.12366e-07
-7.9991e-07
1.12985e-07
-9.1091e-07
1.11e-07
-1.01776e-06
1.06854e-07
-1.11871e-06
1.00945e-07
-1.21233e-06
9.36246e-08
-1.29754e-06
8.52026e-08
-1.37342e-06
7.58813e-08
-1.43925e-06
6.5835e-08
-1.49441e-06
5.51545e-08
-1.5383e-06
4.38931e-08
-1.57033e-06
3.20342e-08
-1.59001e-06
1.96713e-08
-1.59758e-06
7.57524e-09
-1.59164e-06
-5.94454e-09
-1.57182e-06
-1.98157e-08
-1.53811e-06
-3.37134e-08
-1.4898e-06
-4.83064e-08
-1.42704e-06
-6.2763e-08
-1.34983e-06
-7.72062e-08
-1.25868e-06
-9.115e-08
-1.15419e-06
-1.04496e-07
-1.03717e-06
-1.17021e-07
-9.0891e-07
-1.28256e-07
-7.71126e-07
-1.37784e-07
-6.2606e-07
-1.45066e-07
-4.76534e-07
-1.49526e-07
-3.25936e-07
-1.50598e-07
-1.78065e-07
-1.47871e-07
-3.69386e-08
-1.41127e-07
9.36088e-08
-1.30547e-07
2.09293e-07
-1.15685e-07
3.0592e-07
-9.6627e-08
3.80131e-07
-7.42101e-08
4.29276e-07
-4.91452e-08
4.51879e-07
-2.26031e-08
4.46958e-07
4.92131e-09
4.17182e-07
2.97755e-08
3.64969e-07
5.22129e-08
2.96269e-07
6.87005e-08
2.20138e-07
7.61309e-08
1.48001e-07
7.21366e-08
8.72356e-08
6.07654e-08
4.18598e-08
4.53758e-08
1.26877e-08
2.91721e-08
-1.08523e-10
1.27962e-08
-1.08524e-10
1.01267e-08
-1.17204e-08
4.17979e-08
-4.47766e-08
8.59818e-08
-6.72912e-08
1.31398e-07
-7.21827e-08
1.70526e-07
-6.3397e-08
1.99547e-07
-4.72651e-08
2.17754e-07
-2.90854e-08
2.26098e-07
-1.26695e-08
2.26339e-07
-2.38654e-10
2.20802e-07
7.60344e-09
2.11722e-07
1.12734e-08
2.00626e-07
1.21505e-08
1.87986e-07
1.21379e-08
1.7326e-07
1.29628e-08
1.55392e-07
1.56488e-08
1.33222e-07
2.04017e-08
1.05846e-07
2.69088e-08
7.21158e-08
3.50838e-08
3.08115e-08
4.52383e-08
-1.94964e-08
5.7716e-08
-8.07189e-08
7.2721e-08
-1.54704e-07
9.01147e-08
-2.42712e-07
1.09228e-07
-3.4557e-07
1.29354e-07
-4.63845e-07
1.50066e-07
-5.97369e-07
1.7077e-07
-7.44027e-07
1.90487e-07
-8.99874e-07
2.08476e-07
-1.05977e-06
2.24108e-07
-1.21796e-06
2.36377e-07
-1.37074e-06
2.44408e-07
-1.51685e-06
2.48004e-07
-1.65494e-06
2.46888e-07
-1.78373e-06
2.41152e-07
-1.90217e-06
2.31432e-07
-2.0096e-06
2.18424e-07
-2.10549e-06
2.02751e-07
-2.18955e-06
1.85006e-07
-2.26155e-06
1.65618e-07
-2.32133e-06
1.44986e-07
-2.36879e-06
1.23338e-07
-2.4038e-06
1.00848e-07
-2.42626e-06
7.76146e-08
-2.43608e-06
5.37127e-08
-2.43325e-06
2.92038e-08
-2.41711e-06
3.5352e-09
-2.38783e-06
-2.1709e-08
-2.34542e-06
-4.8354e-08
-2.28951e-06
-7.57285e-08
-2.21976e-06
-1.03459e-07
-2.13638e-06
-1.31691e-07
-2.03911e-06
-1.6003e-07
-1.92802e-06
-1.883e-07
-1.80314e-06
-2.16029e-07
-1.66489e-06
-2.42739e-07
-1.51432e-06
-2.67594e-07
-1.35269e-06
-2.8989e-07
-1.18168e-06
-3.08789e-07
-1.00362e-06
-3.23127e-07
-8.2111e-07
-3.32037e-07
-6.37129e-07
-3.3458e-07
-4.5508e-07
-3.29919e-07
-2.7865e-07
-3.17557e-07
-1.11755e-07
-2.97442e-07
4.20404e-08
-2.6948e-07
1.79474e-07
-2.3406e-07
2.96879e-07
-1.91615e-07
3.91536e-07
-1.43802e-07
4.60956e-07
-9.20232e-08
5.04249e-07
-3.83711e-08
5.20131e-07
1.38928e-08
5.08639e-07
6.37048e-08
4.71847e-07
1.05493e-07
4.11376e-07
1.36602e-07
3.30115e-07
1.53397e-07
2.38157e-07
1.52724e-07
1.47911e-07
1.35621e-07
7.18925e-08
1.05191e-07
2.04248e-08
6.42639e-08
2.03163e-08
1.91539e-08
-3.08742e-08
6.40603e-08
-8.96831e-08
1.1512e-07
-1.18351e-07
1.60549e-07
-1.17611e-07
1.95729e-07
-9.85776e-08
2.19578e-07
-7.11139e-08
2.32693e-07
-4.22008e-08
2.36035e-07
-1.60116e-08
2.30744e-07
5.05274e-09
2.18239e-07
2.0109e-08
1.99956e-07
2.95562e-08
1.76489e-07
3.56176e-08
1.47655e-07
4.09718e-08
1.12672e-07
4.79457e-08
7.03805e-08
5.79401e-08
1.93924e-08
7.13899e-08
-4.19786e-08
8.82798e-08
-1.15535e-07
1.0864e-07
-2.02801e-07
1.32505e-07
-3.05027e-07
1.59942e-07
-4.22779e-07
1.90473e-07
-5.55757e-07
2.23092e-07
-7.02937e-07
2.56408e-07
-8.62058e-07
2.88476e-07
-1.02988e-06
3.1789e-07
-1.20228e-06
3.4317e-07
-1.37504e-06
3.63242e-07
-1.54423e-06
3.77668e-07
-1.70625e-06
3.86125e-07
-1.85841e-06
3.8854e-07
-1.99912e-06
3.85116e-07
-2.1273e-06
3.76186e-07
-2.24285e-06
3.62431e-07
-2.34615e-06
3.44461e-07
-2.43754e-06
3.22814e-07
-2.51736e-06
2.98248e-07
-2.58594e-06
2.71327e-07
-2.64354e-06
2.42603e-07
-2.69034e-06
2.12417e-07
-2.72647e-06
1.81121e-07
-2.75202e-06
1.48891e-07
-2.76699e-06
1.15814e-07
-2.77133e-06
8.19518e-08
-2.7649e-06
4.72824e-08
-2.74743e-06
1.17422e-08
-2.71919e-06
-2.47082e-08
-2.67898e-06
-6.19184e-08
-2.6271e-06
-1.00235e-07
-2.56327e-06
-1.39559e-07
-2.48699e-06
-1.79734e-07
-2.39811e-06
-2.20578e-07
-2.2964e-06
-2.61738e-07
-2.18182e-06
-3.02882e-07
-2.05442e-06
-3.43427e-07
-1.91455e-06
-3.82605e-07
-1.76281e-06
-4.19335e-07
-1.60019e-06
-4.52514e-07
-1.42804e-06
-4.80933e-07
-1.24817e-06
-5.02996e-07
-1.06301e-06
-5.172e-07
-8.75295e-07
-5.22294e-07
-6.88283e-07
-5.16931e-07
-5.05604e-07
-5.00237e-07
-3.30977e-07
-4.72069e-07
-1.67764e-07
-4.32693e-07
-1.91866e-08
-3.82638e-07
1.12089e-07
-3.22891e-07
2.23344e-07
-2.55057e-07
3.1291e-07
-1.81589e-07
3.79901e-07
-1.05362e-07
4.23216e-07
-2.94226e-08
4.42907e-07
4.40136e-08
4.3751e-07
1.1089e-07
4.08433e-07
1.65679e-07
3.56826e-07
2.05004e-07
2.85877e-07
2.23673e-07
2.02013e-07
2.19485e-07
1.15739e-07
1.91465e-07
4.07951e-08
1.39207e-07
6.11114e-08
2.66933e-08
-5.75676e-08
7.81965e-08
-1.41186e-07
1.27392e-07
-1.67547e-07
1.65483e-07
-1.55701e-07
1.90966e-07
-1.24061e-07
2.04923e-07
-8.50705e-08
2.08519e-07
-4.57968e-08
2.02858e-07
-1.03507e-08
1.8873e-07
1.91807e-08
1.6665e-07
4.21891e-08
1.36384e-07
5.98215e-08
9.74506e-08
7.45514e-08
4.90917e-08
8.93307e-08
-9.62206e-09
1.0666e-07
-7.97593e-08
1.28077e-07
-1.62623e-07
1.54253e-07
-2.59676e-07
1.85333e-07
-3.72215e-07
2.2118e-07
-5.00865e-07
2.61155e-07
-6.45253e-07
3.04331e-07
-8.03741e-07
3.48961e-07
-9.73257e-07
3.92608e-07
-1.15012e-06
4.33267e-07
-1.33009e-06
4.68447e-07
-1.50909e-06
4.96889e-07
-1.68324e-06
5.17326e-07
-1.84902e-06
5.29023e-07
-2.00362e-06
5.32262e-07
-2.14557e-06
5.28083e-07
-2.2744e-06
5.17363e-07
-2.39024e-06
5.00956e-07
-2.49368e-06
4.79633e-07
-2.58534e-06
4.54087e-07
-2.66593e-06
4.25053e-07
-2.73617e-06
3.93054e-07
-2.79664e-06
3.58713e-07
-2.84778e-06
3.22468e-07
-2.88992e-06
2.84746e-07
-2.92328e-06
2.45782e-07
-2.94796e-06
2.05794e-07
-2.96398e-06
1.64913e-07
-2.97129e-06
1.23125e-07
-2.96975e-06
8.04138e-08
-2.95913e-06
3.66626e-08
-2.93917e-06
-8.2163e-09
-2.9096e-06
-5.42783e-08
-2.86991e-06
-1.01611e-07
-2.81981e-06
-1.50336e-07
-2.75893e-06
-2.00443e-07
-2.68674e-06
-2.51921e-07
-2.60285e-06
-3.04464e-07
-2.50695e-06
-3.57642e-07
-2.39878e-06
-4.11047e-07
-2.27819e-06
-4.6402e-07
-2.14514e-06
-5.15657e-07
-1.99981e-06
-5.64664e-07
-1.84296e-06
-6.09361e-07
-1.67557e-06
-6.48325e-07
-1.49902e-06
-6.79554e-07
-1.31531e-06
-7.00904e-07
-1.12689e-06
-7.1072e-07
-9.36719e-07
-7.07098e-07
-7.48336e-07
-6.8862e-07
-5.65896e-07
-6.54509e-07
-3.93323e-07
-6.05265e-07
-2.33888e-07
-5.42073e-07
-9.06231e-08
-4.66156e-07
3.40828e-08
-3.79763e-07
1.38456e-07
-2.85962e-07
2.21314e-07
-1.88221e-07
2.82143e-07
-9.0251e-08
3.21721e-07
4.4356e-09
3.40049e-07
9.25618e-08
3.36487e-07
1.69242e-07
3.11187e-07
2.30303e-07
2.64673e-07
2.70187e-07
2.00749e-07
2.8341e-07
1.25183e-07
2.67031e-07
4.8489e-08
2.15901e-07
1.096e-07
3.2586e-08
-9.01535e-08
8.39342e-08
-1.92534e-07
1.24966e-07
-2.0858e-07
1.51974e-07
-1.82709e-07
1.65525e-07
-1.37612e-07
1.67771e-07
-8.73167e-08
1.60069e-07
-3.80943e-08
1.43175e-07
6.54282e-09
1.17252e-07
4.51041e-08
8.18934e-08
7.75477e-08
3.61549e-08
1.0556e-07
-2.1125e-08
1.31831e-07
-9.10882e-08
1.59294e-07
-1.74788e-07
1.90359e-07
-2.73217e-07
2.26507e-07
-3.87235e-07
2.68271e-07
-5.17324e-07
3.15421e-07
-6.63331e-07
3.67187e-07
-8.2393e-07
4.21754e-07
-9.96199e-07
4.76599e-07
-1.17646e-06
5.2922e-07
-1.3602e-06
5.76348e-07
-1.54318e-06
6.16247e-07
-1.7212e-06
6.46464e-07
-1.88987e-06
6.65563e-07
-2.04645e-06
6.73908e-07
-2.1899e-06
6.7247e-07
-2.3202e-06
6.62561e-07
-2.43777e-06
6.45653e-07
-2.54331e-06
6.22907e-07
-2.63768e-06
5.9532e-07
-2.7217e-06
5.63657e-07
-2.79613e-06
5.28519e-07
-2.86163e-06
4.90546e-07
-2.9188e-06
4.5023e-07
-2.96811e-06
4.08027e-07
-3.00993e-06
3.64283e-07
-3.0445e-06
3.19319e-07
-3.07199e-06
2.73271e-07
-3.09235e-06
2.26151e-07
-3.10562e-06
1.78179e-07
-3.11169e-06
1.29204e-07
-3.11044e-06
7.91547e-08
-3.10159e-06
2.78167e-08
-3.08486e-06
-2.49413e-08
-3.05985e-06
-7.92944e-08
-3.02605e-06
-1.35406e-07
-2.98306e-06
-1.93331e-07
-2.93047e-06
-2.53037e-07
-2.86771e-06
-3.1468e-07
-2.79406e-06
-3.78105e-07
-2.70902e-06
-4.42683e-07
-2.61213e-06
-5.0794e-07
-2.50298e-06
-5.73174e-07
-2.38116e-06
-6.3747e-07
-2.24633e-06
-6.99497e-07
-2.09898e-06
-7.56716e-07
-1.93962e-06
-8.07676e-07
-1.76911e-06
-8.50072e-07
-1.58912e-06
-8.80886e-07
-1.40171e-06
-8.98137e-07
-1.20956e-06
-8.99248e-07
-1.01577e-06
-8.82402e-07
-8.24242e-07
-8.46042e-07
-6.39637e-07
-7.8987e-07
-4.66522e-07
-7.15188e-07
-3.08113e-07
-6.24565e-07
-1.67349e-07
-5.20526e-07
-4.66076e-08
-4.06704e-07
5.27048e-08
-2.87533e-07
1.30074e-07
-1.6762e-07
1.85851e-07
-5.13418e-08
2.21138e-07
5.72757e-08
2.36302e-07
1.54078e-07
2.31829e-07
2.34776e-07
2.08042e-07
2.93975e-07
1.65883e-07
3.25568e-07
1.08425e-07
3.2449e-07
4.34117e-08
2.80914e-07
1.53012e-07
3.61526e-08
-1.26306e-07
8.09647e-08
-2.37347e-07
1.09779e-07
-2.37394e-07
1.23182e-07
-1.96111e-07
1.23792e-07
-1.38222e-07
1.13589e-07
-7.71135e-08
9.35668e-08
-1.80723e-08
6.38735e-08
3.62361e-08
2.40889e-08
8.48887e-08
-2.68941e-08
1.28531e-07
-9.04402e-08
1.69106e-07
-1.6792e-07
2.09311e-07
-2.60499e-07
2.51873e-07
-3.69025e-07
2.98885e-07
-4.93956e-07
3.51438e-07
-6.35123e-07
4.09438e-07
-7.91555e-07
4.71854e-07
-9.6109e-07
5.36721e-07
-1.14041e-06
6.01072e-07
-1.325e-06
6.61188e-07
-1.51038e-06
7.14604e-07
-1.69176e-06
7.57728e-07
-1.86385e-06
7.88337e-07
-2.02346e-06
8.06075e-07
-2.16957e-06
8.1167e-07
-2.30232e-06
8.06664e-07
-2.42249e-06
7.92638e-07
-2.53111e-06
7.71175e-07
-2.62905e-06
7.43599e-07
-2.71717e-06
7.11028e-07
-2.79622e-06
6.74368e-07
-2.86685e-06
6.34289e-07
-2.92973e-06
5.91398e-07
-2.9854e-06
5.46214e-07
-3.03431e-06
4.99136e-07
-3.07675e-06
4.50468e-07
-3.11298e-06
4.00518e-07
-3.14321e-06
3.49543e-07
-3.1676e-06
2.9766e-07
-3.18594e-06
2.44492e-07
-3.19843e-06
1.90677e-07
-3.205e-06
1.35771e-07
-3.20557e-06
7.97264e-08
-3.19998e-06
2.2227e-08
-3.18815e-06
-3.67761e-08
-3.16976e-06
-9.76847e-08
-3.14437e-06
-1.60793e-07
-3.11141e-06
-2.26289e-07
-3.07023e-06
-2.94217e-07
-3.02025e-06
-3.64663e-07
-2.96049e-06
-4.37868e-07
-2.89007e-06
-5.13097e-07
-2.8081e-06
-5.89913e-07
-2.71384e-06
-6.6743e-07
-2.60698e-06
-7.44334e-07
-2.48692e-06
-8.19555e-07
-2.35307e-06
-8.90573e-07
-2.20554e-06
-9.55206e-07
-2.04437e-06
-1.01123e-06
-1.87105e-06
-1.05421e-06
-1.68711e-06
-1.08207e-06
-1.49487e-06
-1.09149e-06
-1.29729e-06
-1.07998e-06
-1.09797e-06
-1.04537e-06
-9.01124e-07
-9.86711e-07
-7.12312e-07
-9.04e-07
-5.36302e-07
-8.00575e-07
-3.76671e-07
-6.80158e-07
-2.36621e-07
-5.46753e-07
-1.18387e-07
-4.05768e-07
-2.30055e-08
-2.63002e-07
4.97182e-08
-1.24066e-07
1.00983e-07
6.01038e-09
1.32275e-07
1.22786e-07
1.44828e-07
2.22222e-07
1.39337e-07
2.99466e-07
1.16324e-07
3.48581e-07
7.81136e-08
3.627e-07
3.1024e-08
3.28004e-07
1.84036e-07
3.6395e-08
-1.62701e-07
6.91756e-08
-2.70127e-07
8.35692e-08
-2.51788e-07
8.24974e-08
-1.95039e-07
6.96212e-08
-1.25346e-07
4.63794e-08
-5.38717e-08
1.31118e-08
1.51953e-08
-3.06121e-08
7.996e-08
-8.57973e-08
1.40074e-07
-1.53816e-07
1.9655e-07
-2.36131e-07
2.51421e-07
-3.34008e-07
3.07188e-07
-4.48282e-07
3.66148e-07
-5.79192e-07
4.29795e-07
-7.26218e-07
4.98464e-07
-8.87942e-07
5.71162e-07
-1.06167e-06
6.45579e-07
-1.24339e-06
7.1844e-07
-1.42846e-06
7.86145e-07
-1.61192e-06
8.44649e-07
-1.78778e-06
8.90462e-07
-1.95188e-06
9.2183e-07
-2.10239e-06
9.38848e-07
-2.23931e-06
9.42989e-07
-2.36342e-06
9.35789e-07
-2.47579e-06
9.1903e-07
-2.57748e-06
8.94331e-07
-2.66949e-06
8.63181e-07
-2.75263e-06
8.26736e-07
-2.82759e-06
7.85989e-07
-2.89496e-06
7.41737e-07
-2.95527e-06
6.94604e-07
-3.00902e-06
6.45143e-07
-3.05658e-06
5.93779e-07
-3.09834e-06
5.40896e-07
-3.13443e-06
4.86558e-07
-3.16503e-06
4.31118e-07
-3.19038e-06
3.74887e-07
-3.21065e-06
3.17933e-07
-3.22632e-06
2.60167e-07
-3.23707e-06
2.01427e-07
-3.24287e-06
1.41565e-07
-3.24354e-06
8.03983e-08
-3.23892e-06
1.76108e-08
-3.22915e-06
-4.65448e-08
-3.2142e-06
-1.12636e-07
-3.19404e-06
-1.80958e-07
-3.16858e-06
-2.51747e-07
-3.13748e-06
-3.25313e-07
-3.10038e-06
-4.01766e-07
-3.05685e-06
-4.81399e-07
-3.00561e-06
-5.6434e-07
-2.94531e-06
-6.50209e-07
-2.87432e-06
-7.38424e-07
-2.79041e-06
-8.28239e-07
-2.69181e-06
-9.18161e-07
-2.57752e-06
-1.00486e-06
-2.44751e-06
-1.08522e-06
-2.30199e-06
-1.15675e-06
-2.14114e-06
-1.21507e-06
-1.96572e-06
-1.25748e-06
-1.77782e-06
-1.27939e-06
-1.57997e-06
-1.27782e-06
-1.37571e-06
-1.24964e-06
-1.16886e-06
-1.19356e-06
-9.64715e-07
-1.10815e-06
-7.69907e-07
-9.95383e-07
-5.89602e-07
-8.60463e-07
-4.27766e-07
-7.08588e-07
-2.87793e-07
-5.45741e-07
-1.71765e-07
-3.79029e-07
-8.02175e-08
-2.15613e-07
-1.21742e-08
-6.20329e-08
3.4321e-08
7.62909e-08
6.16161e-08
1.94927e-07
7.14257e-08
2.89657e-07
6.48468e-08
3.5516e-07
4.42191e-08
3.83328e-07
1.59855e-08
3.56237e-07
2.00022e-07
3.20706e-08
-1.94772e-07
5.00989e-08
-2.88155e-07
4.88841e-08
-2.50573e-07
3.30213e-08
-1.79177e-07
6.38005e-09
-9.87047e-08
-3.03855e-08
-1.71061e-08
-7.7623e-08
6.24328e-08
-1.36244e-07
1.38581e-07
-2.0753e-07
2.1136e-07
-2.92882e-07
2.81901e-07
-3.93564e-07
3.52102e-07
-5.10436e-07
4.24061e-07
-6.43697e-07
4.99409e-07
-7.92728e-07
5.78825e-07
-9.55893e-07
6.61629e-07
-1.13013e-06
7.45402e-07
-1.31114e-06
8.26586e-07
-1.49399e-06
9.01289e-07
-1.67271e-06
9.64867e-07
-1.84196e-06
1.0139e-06
-1.99838e-06
1.04688e-06
-2.14117e-06
1.06463e-06
-2.27072e-06
1.0684e-06
-2.38793e-06
1.0602e-06
-2.49391e-06
1.04176e-06
-2.58978e-06
1.0149e-06
-2.6765e-06
9.81055e-07
-2.75484e-06
9.41521e-07
-2.82542e-06
8.97314e-07
-2.88876e-06
8.49328e-07
-2.94531e-06
7.98283e-07
-2.99547e-06
7.4477e-07
-3.03958e-06
6.89252e-07
-3.07785e-06
6.32044e-07
-3.11074e-06
5.73787e-07
-3.13899e-06
5.14807e-07
-3.16303e-06
4.55165e-07
-3.18294e-06
3.94791e-07
-3.19844e-06
3.33442e-07
-3.20989e-06
2.71612e-07
-3.21714e-06
2.08679e-07
-3.2204e-06
1.4482e-07
-3.21977e-06
7.97727e-08
-3.21525e-06
1.30944e-08
-3.20715e-06
-5.4644e-08
-3.19535e-06
-1.24436e-07
-3.17974e-06
-1.96567e-07
-3.16013e-06
-2.71359e-07
-3.13626e-06
-3.4919e-07
-3.10772e-06
-4.30303e-07
-3.07435e-06
-5.14772e-07
-3.03567e-06
-6.03019e-07
-2.99112e-06
-6.94758e-07
-2.93986e-06
-7.89677e-07
-2.88103e-06
-8.87076e-07
-2.81306e-06
-9.8613e-07
-2.73195e-06
-1.08596e-06
-2.63344e-06
-1.18373e-06
-2.51468e-06
-1.27551e-06
-2.37529e-06
-1.35446e-06
-2.21676e-06
-1.41601e-06
-2.04122e-06
-1.45494e-06
-1.84977e-06
-1.46927e-06
-1.64624e-06
-1.45317e-06
-1.43418e-06
-1.40562e-06
-1.21838e-06
-1.32395e-06
-1.00553e-06
-1.20823e-06
-8.03474e-07
-1.06252e-06
-6.18168e-07
-8.93895e-07
-4.53963e-07
-7.09945e-07
-3.14386e-07
-5.18607e-07
-2.01251e-07
-3.28748e-07
-1.14457e-07
-1.48826e-07
-5.21237e-08
1.39574e-08
-1.09518e-08
1.53756e-07
1.20165e-08
2.66688e-07
1.92279e-08
3.47948e-07
1.40145e-08
3.88541e-07
2.76068e-09
3.67491e-07
2.02782e-07
2.35562e-08
-2.18328e-07
2.53294e-08
-2.89929e-07
7.69438e-09
-2.32938e-07
-2.24599e-08
-1.49022e-07
-6.28933e-08
-5.82713e-08
-1.13513e-07
3.35136e-08
-1.75104e-07
1.24024e-07
-2.48864e-07
2.12341e-07
-3.36097e-07
2.98592e-07
-4.37993e-07
3.83797e-07
-5.55393e-07
4.69503e-07
-6.88509e-07
5.57177e-07
-8.36782e-07
6.47681e-07
-9.9862e-07
7.40663e-07
-1.1708e-06
8.33808e-07
-1.34885e-06
9.23456e-07
-1.52757e-06
1.0053e-06
-1.70075e-06
1.07447e-06
-1.86354e-06
1.12765e-06
-2.01346e-06
1.16381e-06
-2.14988e-06
1.1833e-06
-2.27325e-06
1.188e-06
-2.38458e-06
1.17973e-06
-2.48498e-06
1.1606e-06
-2.57553e-06
1.13231e-06
-2.65712e-06
1.09649e-06
-2.73047e-06
1.0544e-06
-2.79614e-06
1.00719e-06
-2.85463e-06
9.55802e-07
-2.90636e-06
9.01061e-07
-2.95173e-06
8.43656e-07
-2.99117e-06
7.84211e-07
-3.02528e-06
7.23361e-07
-3.05472e-06
6.6148e-07
-3.07958e-06
5.98647e-07
-3.09989e-06
5.35115e-07
-3.11568e-06
4.70959e-07
-3.12711e-06
4.06216e-07
-3.13477e-06
3.41101e-07
-3.13896e-06
2.75804e-07
-3.14017e-06
2.09894e-07
-3.13869e-06
1.43341e-07
-3.13477e-06
7.5851e-08
-3.12866e-06
6.97859e-09
-3.12031e-06
-6.29863e-08
-3.10974e-06
-1.35008e-07
-3.09697e-06
-2.09337e-07
-3.08198e-06
-2.8635e-07
-3.06472e-06
-3.6645e-07
-3.04504e-06
-4.49984e-07
-3.02255e-06
-5.3726e-07
-2.99692e-06
-6.28655e-07
-2.9674e-06
-7.24276e-07
-2.93303e-06
-8.24046e-07
-2.89263e-06
-9.27481e-07
-2.84535e-06
-1.03341e-06
-2.78977e-06
-1.14154e-06
-2.72422e-06
-1.24928e-06
-2.64537e-06
-1.35436e-06
-2.54551e-06
-1.45431e-06
-2.41955e-06
-1.54197e-06
-2.26738e-06
-1.60711e-06
-2.09249e-06
-1.64416e-06
-1.89851e-06
-1.64715e-06
-1.68868e-06
-1.61545e-06
-1.46756e-06
-1.54506e-06
-1.24143e-06
-1.43437e-06
-1.0186e-06
-1.28534e-06
-8.08577e-07
-1.10392e-06
-6.18197e-07
-9.00326e-07
-4.5224e-07
-6.84563e-07
-3.14251e-07
-4.66737e-07
-2.05574e-07
-2.57503e-07
-1.25125e-07
-6.64918e-08
-6.97621e-08
9.83924e-08
-3.48067e-08
2.31733e-07
-1.60242e-08
3.29166e-07
-8.09801e-09
3.80615e-07
-5.51198e-09
3.64905e-07
1.9727e-07
1.18856e-08
-2.30214e-07
-3.75932e-09
-2.74284e-07
-3.67926e-08
-1.99905e-07
-8.12011e-08
-1.04614e-07
-1.35463e-07
-4.00925e-09
-1.99946e-07
9.79962e-08
-2.75783e-07
1.99861e-07
-3.64224e-07
3.00782e-07
-4.66392e-07
4.00761e-07
-5.83083e-07
5.00488e-07
-7.14532e-07
6.00952e-07
-8.60296e-07
7.02941e-07
-1.01897e-06
8.06355e-07
-1.18742e-06
9.09113e-07
-1.36109e-06
1.00748e-06
-1.53463e-06
1.097e-06
-1.70225e-06
1.17292e-06
-1.8594e-06
1.23162e-06
-2.00383e-06
1.27209e-06
-2.13482e-06
1.2948e-06
-2.25292e-06
1.3014e-06
-2.35906e-06
1.29414e-06
-2.45439e-06
1.27505e-06
-2.53985e-06
1.24606e-06
-2.61628e-06
1.20874e-06
-2.68433e-06
1.16454e-06
-2.74453e-06
1.11461e-06
-2.79738e-06
1.06004e-06
-2.84334e-06
1.00176e-06
-2.88288e-06
9.40605e-07
-2.91651e-06
8.77278e-07
-2.94468e-06
8.12388e-07
-2.96766e-06
7.46338e-07
-2.98576e-06
6.7958e-07
-2.99941e-06
6.12301e-07
-3.00912e-06
5.44819e-07
-3.01546e-06
4.77298e-07
-3.01904e-06
4.09794e-07
-3.0202e-06
3.42268e-07
-3.01906e-06
2.74659e-07
-3.01593e-06
2.0677e-07
-3.01103e-06
1.3844e-07
-3.00458e-06
6.93939e-08
-2.99671e-06
-8.90491e-10
-2.98756e-06
-7.21283e-08
-2.97726e-06
-1.45314e-07
-2.96596e-06
-2.20639e-07
-2.95378e-06
-2.98528e-07
-2.94081e-06
-3.79419e-07
-2.92706e-06
-4.63733e-07
-2.91242e-06
-5.51902e-07
-2.89673e-06
-6.44344e-07
-2.87963e-06
-7.41369e-07
-2.86055e-06
-8.43126e-07
-2.83855e-06
-9.49482e-07
-2.81194e-06
-1.06002e-06
-2.77929e-06
-1.1742e-06
-2.73824e-06
-1.29032e-06
-2.68716e-06
-1.40545e-06
-2.62337e-06
-1.5181e-06
-2.54242e-06
-1.62292e-06
-2.43364e-06
-1.7159e-06
-2.29194e-06
-1.78585e-06
-2.11904e-06
-1.82005e-06
-1.92251e-06
-1.81198e-06
-1.70525e-06
-1.76232e-06
-1.47386e-06
-1.66576e-06
-1.23595e-06
-1.52326e-06
-1.0022e-06
-1.33767e-06
-7.84015e-07
-1.11851e-06
-5.89276e-07
-8.79302e-07
-4.23084e-07
-6.32929e-07
-2.88717e-07
-3.91871e-07
-1.8663e-07
-1.68578e-07
-1.14491e-07
2.6253e-08
-6.71089e-08
1.84351e-07
-3.83849e-08
3.00442e-07
-2.04993e-08
3.62729e-07
-9.02639e-09
3.53432e-07
1.88244e-07
-1.78667e-09
-2.28427e-07
-3.41323e-08
-2.41938e-07
-8.25301e-08
-1.51507e-07
-1.40967e-07
-4.61769e-08
-2.08726e-07
6.37497e-08
-2.8671e-07
1.7598e-07
-3.7613e-07
2.89282e-07
-4.78128e-07
4.02779e-07
-5.93492e-07
5.16125e-07
-7.2249e-07
6.29487e-07
-8.64792e-07
7.43253e-07
-1.01924e-06
8.57385e-07
-1.18297e-06
9.70088e-07
-1.35152e-06
1.07767e-06
-1.51965e-06
1.17561e-06
-1.68201e-06
1.25935e-06
-1.83423e-06
1.32514e-06
-1.97396e-06
1.37135e-06
-2.10041e-06
1.39854e-06
-2.2139e-06
1.40829e-06
-2.31545e-06
1.40295e-06
-2.40604e-06
1.38473e-06
-2.48658e-06
1.35559e-06
-2.55779e-06
1.31727e-06
-2.62028e-06
1.27123e-06
-2.67456e-06
1.21882e-06
-2.72115e-06
1.1612e-06
-2.76058e-06
1.09946e-06
-2.79338e-06
1.03456e-06
-2.82012e-06
9.67347e-07
-2.84137e-06
8.9853e-07
-2.85767e-06
8.2869e-07
-2.86961e-06
7.58272e-07
-2.87771e-06
6.87684e-07
-2.88258e-06
6.17168e-07
-2.8847e-06
5.46947e-07
-2.88451e-06
4.77102e-07
-2.88233e-06
4.07611e-07
-2.87844e-06
3.38384e-07
-2.87308e-06
2.693e-07
-2.86647e-06
2.0016e-07
-2.85878e-06
1.30747e-07
-2.85016e-06
6.07701e-08
-2.84095e-06
-1.00966e-08
-2.83102e-06
-8.20622e-08
-2.82071e-06
-1.55625e-07
-2.81018e-06
-2.31162e-07
-2.79962e-06
-3.09089e-07
-2.7892e-06
-3.89845e-07
-2.77905e-06
-4.73883e-07
-2.76927e-06
-5.61675e-07
-2.75994e-06
-6.53683e-07
-2.75098e-06
-7.50319e-07
-2.7422e-06
-8.51907e-07
-2.73306e-06
-9.58628e-07
-2.72257e-06
-1.07051e-06
-2.70953e-06
-1.18725e-06
-2.69195e-06
-1.3079e-06
-2.66652e-06
-1.43088e-06
-2.6307e-06
-1.55392e-06
-2.58119e-06
-1.67243e-06
-2.5139e-06
-1.78319e-06
-2.42146e-06
-1.87829e-06
-2.2907e-06
-1.95081e-06
-2.12136e-06
-1.98132e-06
-1.92113e-06
-1.96255e-06
-1.69531e-06
-1.89157e-06
-1.45195e-06
-1.76662e-06
-1.20118e-06
-1.58845e-06
-9.5625e-07
-1.36344e-06
-7.30731e-07
-1.10482e-06
-5.33508e-07
-8.30153e-07
-3.69656e-07
-5.55723e-07
-2.4176e-07
-2.96474e-07
-1.48887e-07
-6.66196e-08
-8.67052e-08
1.22169e-07
-4.78891e-08
2.61626e-07
-2.34019e-08
3.38242e-07
-7.9259e-09
3.37956e-07
1.80318e-07
-1.63272e-08
-2.121e-07
-6.52315e-08
-1.93034e-07
-1.27994e-07
-8.87442e-08
-1.99748e-07
2.55769e-08
-2.80379e-07
1.4438e-07
-3.71001e-07
2.66602e-07
-4.72814e-07
3.91095e-07
-5.86696e-07
5.16661e-07
-7.12999e-07
6.42428e-07
-8.51498e-07
7.67985e-07
-1.00126e-06
8.93019e-07
-1.15982e-06
1.01594e-06
-1.32301e-06
1.13328e-06
-1.48583e-06
1.24049e-06
-1.64334e-06
1.33311e-06
-1.79135e-06
1.40736e-06
-1.92714e-06
1.46093e-06
-2.04976e-06
1.49397e-06
-2.15939e-06
1.50818e-06
-2.25688e-06
1.50578e-06
-2.34319e-06
1.48925e-06
-2.41909e-06
1.46064e-06
-2.48529e-06
1.42179e-06
-2.54233e-06
1.37432e-06
-2.59079e-06
1.31969e-06
-2.63124e-06
1.25927e-06
-2.66431e-06
1.19427e-06
-2.69068e-06
1.12584e-06
-2.71107e-06
1.05495e-06
-2.72618e-06
9.82462e-07
-2.73672e-06
9.0907e-07
-2.74336e-06
8.35322e-07
-2.74672e-06
7.61638e-07
-2.74738e-06
6.88337e-07
-2.74581e-06
6.15607e-07
-2.74243e-06
5.43559e-07
-2.73752e-06
4.72194e-07
-2.73134e-06
4.01434e-07
-2.72411e-06
3.31155e-07
-2.71601e-06
2.61194e-07
-2.70718e-06
1.91334e-07
-2.69777e-06
1.21336e-07
-2.68792e-06
5.09198e-08
-2.67781e-06
-2.02047e-08
-2.66752e-06
-9.23537e-08
-2.65724e-06
-1.65903e-07
-2.64717e-06
-2.41229e-07
-2.63752e-06
-3.18739e-07
-2.62851e-06
-3.98857e-07
-2.62036e-06
-4.82035e-07
-2.61329e-06
-5.68744e-07
-2.60751e-06
-6.59466e-07
-2.60316e-06
-7.54666e-07
-2.60029e-06
-8.54774e-07
-2.59877e-06
-9.60156e-07
-2.5982e-06
-1.07107e-06
-2.5979e-06
-1.18755e-06
-2.59654e-06
-1.30926e-06
-2.59199e-06
-1.43543e-06
-2.58145e-06
-1.56446e-06
-2.56025e-06
-1.69362e-06
-2.52447e-06
-1.81898e-06
-2.46921e-06
-1.93355e-06
-2.38796e-06
-2.03206e-06
-2.26633e-06
-2.10296e-06
-2.09973e-06
-2.12915e-06
-1.89446e-06
-2.09684e-06
-1.65822e-06
-2.00285e-06
-1.40151e-06
-1.84516e-06
-1.13742e-06
-1.62753e-06
-8.8215e-07
-1.36009e-06
-6.51555e-07
-1.06075e-06
-4.55148e-07
-7.5213e-07
-2.97424e-07
-4.54198e-07
-1.79662e-07
-1.84382e-07
-9.89349e-08
4.14418e-08
-4.82892e-08
2.1098e-07
-1.886e-08
3.08813e-07
-3.46045e-09
3.22557e-07
1.76858e-07
-3.11048e-08
-1.80995e-07
-9.5336e-08
-1.28803e-07
-1.71553e-07
-1.2527e-08
-2.5571e-07
1.09734e-07
-3.48223e-07
2.36893e-07
-4.5026e-07
3.68639e-07
-5.62876e-07
5.03711e-07
-6.86616e-07
6.40401e-07
-8.21399e-07
7.77211e-07
-9.66499e-07
9.13085e-07
-1.11982e-06
1.04634e-06
-1.27767e-06
1.17379e-06
-1.43545e-06
1.29105e-06
-1.58857e-06
1.39361e-06
-1.733e-06
1.47754e-06
-1.8657e-06
1.54006e-06
-1.98529e-06
1.58052e-06
-2.09181e-06
1.6005e-06
-2.18593e-06
1.60229e-06
-2.26852e-06
1.58837e-06
-2.34033e-06
1.56106e-06
-2.402e-06
1.52231e-06
-2.45412e-06
1.47391e-06
-2.4973e-06
1.4175e-06
-2.53222e-06
1.35461e-06
-2.55964e-06
1.28669e-06
-2.5804e-06
1.21503e-06
-2.59534e-06
1.14078e-06
-2.60531e-06
1.06492e-06
-2.61111e-06
9.88262e-07
-2.61347e-06
9.11434e-07
-2.61306e-06
8.34905e-07
-2.61043e-06
7.59007e-07
-2.60604e-06
6.83955e-07
-2.60028e-06
6.09848e-07
-2.59343e-06
5.36705e-07
-2.5857e-06
4.6446e-07
-2.57725e-06
3.92989e-07
-2.56824e-06
3.22139e-07
-2.55876e-06
2.51714e-07
-2.5489e-06
1.81483e-07
-2.53877e-06
1.11206e-07
-2.52847e-06
4.0611e-08
-2.51808e-06
-3.05851e-08
-2.50775e-06
-1.02691e-07
-2.49761e-06
-1.76043e-07
-2.48785e-06
-2.50988e-07
-2.47868e-06
-3.27902e-07
-2.47036e-06
-4.0718e-07
-2.46315e-06
-4.89246e-07
-2.45734e-06
-5.74554e-07
-2.45323e-06
-6.63575e-07
-2.4511e-06
-7.56797e-07
-2.45117e-06
-8.54708e-07
-2.45355e-06
-9.57775e-07
-2.45821e-06
-1.06641e-06
-2.46486e-06
-1.18089e-06
-2.47284e-06
-1.30129e-06
-2.48093e-06
-1.42734e-06
-2.48716e-06
-1.55823e-06
-2.48839e-06
-1.69239e-06
-2.48039e-06
-1.82698e-06
-2.45654e-06
-1.9574e-06
-2.41161e-06
-2.07699e-06
-2.33747e-06
-2.17709e-06
-2.22139e-06
-2.24523e-06
-2.05463e-06
-2.2636e-06
-1.84245e-06
-2.21504e-06
-1.59388e-06
-2.09373e-06
-1.32289e-06
-1.89852e-06
-1.04597e-06
-1.63701e-06
-7.82746e-07
-1.32397e-06
-5.51245e-07
-9.83631e-07
-3.60652e-07
-6.44791e-07
-2.1433e-07
-3.30703e-07
-1.11408e-07
-6.14798e-08
-4.637e-08
1.45942e-07
-1.12614e-08
2.73704e-07
2.5982e-09
3.08697e-07
1.79456e-07
-4.52498e-08
-1.35745e-07
-1.23423e-07
-5.06289e-08
-2.11814e-07
7.58631e-08
-3.07289e-07
2.05209e-07
-4.10396e-07
3.40001e-07
-5.22319e-07
4.80562e-07
-6.43895e-07
6.25287e-07
-7.75309e-07
7.71814e-07
-9.1605e-07
9.17952e-07
-1.06437e-06
1.0614e-06
-1.21711e-06
1.19908e-06
-1.37024e-06
1.32693e-06
-1.51947e-06
1.44029e-06
-1.6609e-06
1.53504e-06
-1.79128e-06
1.60793e-06
-1.90873e-06
1.65751e-06
-2.01299e-06
1.68477e-06
-2.10456e-06
1.69207e-06
-2.1842e-06
1.68194e-06
-2.25266e-06
1.65684e-06
-2.31057e-06
1.61897e-06
-2.35856e-06
1.57029e-06
-2.3973e-06
1.51265e-06
-2.42759e-06
1.44779e-06
-2.45033e-06
1.37735e-06
-2.46648e-06
1.30284e-06
-2.47702e-06
1.22557e-06
-2.48291e-06
1.14666e-06
-2.485e-06
1.06702e-06
-2.4841e-06
9.87359e-07
-2.48087e-06
9.08201e-07
-2.47587e-06
8.29901e-07
-2.46954e-06
7.52681e-07
-2.46223e-06
6.7665e-07
-2.45421e-06
6.01822e-07
-2.44564e-06
5.28138e-07
-2.43666e-06
4.55477e-07
-2.42735e-06
3.83682e-07
-2.41778e-06
3.1257e-07
-2.408e-06
2.41931e-07
-2.39804e-06
1.71518e-07
-2.38793e-06
1.01102e-07
-2.37775e-06
3.04274e-08
-2.36755e-06
-4.07825e-08
-2.35744e-06
-1.12806e-07
-2.34754e-06
-1.85944e-07
-2.33802e-06
-2.60508e-07
-2.32909e-06
-3.36832e-07
-2.321e-06
-4.1527e-07
-2.31404e-06
-4.96207e-07
-2.30853e-06
-5.80055e-07
-2.30485e-06
-6.67261e-07
-2.30334e-06
-7.58302e-07
-2.30437e-06
-8.53684e-07
-2.30821e-06
-9.53931e-07
-2.31507e-06
-1.05956e-06
-2.32494e-06
-1.17102e-06
-2.33756e-06
-1.28866e-06
-2.35228e-06
-1.41262e-06
-2.36788e-06
-1.54264e-06
-2.38235e-06
-1.67791e-06
-2.39261e-06
-1.81672e-06
-2.39392e-06
-1.9561e-06
-2.37975e-06
-2.09116e-06
-2.34246e-06
-2.21438e-06
-2.27316e-06
-2.31454e-06
-2.15785e-06
-2.3789e-06
-1.98765e-06
-2.38524e-06
-1.7653e-06
-2.31608e-06
-1.50254e-06
-2.16128e-06
-1.21698e-06
-1.92257e-06
-9.29152e-07
-1.6118e-06
-6.62663e-07
-1.25012e-06
-4.36726e-07
-8.70728e-07
-2.59058e-07
-5.08371e-07
-1.30962e-07
-1.89577e-07
-4.8674e-08
6.36541e-08
-5.63833e-09
2.30669e-07
7.71516e-09
2.95344e-07
1.87171e-07
-5.81842e-08
-7.75609e-08
-1.48604e-07
3.97911e-08
-2.47874e-07
1.75133e-07
-3.53255e-07
3.10589e-07
-4.65436e-07
4.52182e-07
-5.85511e-07
6.00637e-07
-7.14069e-07
7.53844e-07
-8.50902e-07
9.08647e-07
-9.94626e-07
1.06168e-06
-1.14262e-06
1.2094e-06
-1.29154e-06
1.348e-06
-1.43738e-06
1.47277e-06
-1.57635e-06
1.57926e-06
-1.70511e-06
1.6638e-06
-1.82133e-06
1.72415e-06
-1.92426e-06
1.76044e-06
-2.01421e-06
1.77473e-06
-2.09185e-06
1.76971e-06
-2.15789e-06
1.74797e-06
-2.21299e-06
1.71193e-06
-2.25781e-06
1.66379e-06
-2.29312e-06
1.6056e-06
-2.31983e-06
1.53935e-06
-2.33894e-06
1.4669e-06
-2.35154e-06
1.38996e-06
-2.35873e-06
1.31003e-06
-2.36153e-06
1.22837e-06
-2.36089e-06
1.14602e-06
-2.35763e-06
1.06376e-06
-2.35243e-06
9.82162e-07
-2.34585e-06
9.01624e-07
-2.33833e-06
8.22378e-07
-2.33018e-06
7.44534e-07
-2.32164e-06
6.68106e-07
-2.31285e-06
5.93029e-07
-2.30389e-06
5.19185e-07
-2.29483e-06
4.46413e-07
-2.28567e-06
3.74522e-07
-2.27641e-06
3.03314e-07
-2.26706e-06
2.32577e-07
-2.25759e-06
1.62055e-07
-2.24802e-06
9.15266e-08
-2.23836e-06
2.07653e-08
-2.22865e-06
-5.04935e-08
-2.21896e-06
-1.22495e-07
-2.2094e-06
-1.95502e-07
-2.20012e-06
-2.69789e-07
-2.1913e-06
-3.45645e-07
-2.1832e-06
-4.23376e-07
-2.17609e-06
-5.03316e-07
-2.17032e-06
-5.85828e-07
-2.16626e-06
-6.71315e-07
-2.16434e-06
-7.60221e-07
-2.16499e-06
-8.53037e-07
-2.16862e-06
-9.503e-07
-2.1756e-06
-1.05258e-06
-2.18616e-06
-1.16046e-06
-2.20036e-06
-1.27447e-06