/*--------------------------------*- C++ -*----------------------------------*\
  =========                 |
  \\      /  F ield         | OpenFOAM: The Open Source CFD Toolbox
   \\    /   O peration     | Website:  https://openfoam.org
    \\  /    A nd           | Version:  13
     \\/     M anipulation  |
\*---------------------------------------------------------------------------*/
FoamFile
{
    format      ascii;
    class       volVectorField;
    location    "6";
    object      U;
}
// * * * * * * * * * * * * * * * * * * * * * * * * * * * * * * * * * * * * * //

dimensions      [0 1 -1 0 0 0 0];

internalField   nonuniform List<vector> 
6400
(
(-0.000120067 7.89204e-05 0)
(0.000425389 -0.000164841 0)
(0.00200349 -0.000412651 0)
(0.0040959 -0.000522969 0)
(0.00618562 -0.000461507 0)
(0.00793527 -0.000308615 0)
(0.00910745 -0.000124646 0)
(0.00969993 1.46483e-05 0)
(0.00983409 6.79577e-05 0)
(0.00973787 4.78095e-05 0)
(0.00953925 -2.62431e-05 0)
(0.00939559 -0.000128833 0)
(0.00937522 -0.000235018 0)
(0.00947416 -0.000321561 0)
(0.00964757 -0.000392542 0)
(0.00981849 -0.000445649 0)
(0.00991606 -0.000480704 0)
(0.0098863 -0.000486848 0)
(0.0096965 -0.000472214 0)
(0.00925465 -0.000435414 0)
(0.00851613 -0.000387386 0)
(0.00743127 -0.000338255 0)
(0.00595131 -0.000292714 0)
(0.00405107 -0.000271757 0)
(0.00169724 -0.000311698 0)
(-0.00109704 -0.000417665 0)
(-0.00431385 -0.00048627 0)
(-0.00819358 -0.000353582 0)
(-0.0128581 9.5085e-05 0)
(-0.0182838 0.000889395 0)
(-0.0252108 0.00188538 0)
(-0.0330231 0.00276689 0)
(-0.0415292 0.00349232 0)
(-0.0504512 0.00404573 0)
(-0.0595384 0.0044283 0)
(-0.0685559 0.00464979 0)
(-0.077317 0.00473146 0)
(-0.0856611 0.00469527 0)
(-0.0934679 0.00456254 0)
(-0.100636 0.00435138 0)
(-0.107085 0.00407447 0)
(-0.112752 0.00374109 0)
(-0.117585 0.00335498 0)
(-0.121551 0.002919 0)
(-0.124616 0.00244094 0)
(-0.126689 0.00195132 0)
(-0.127651 0.00151059 0)
(-0.127853 0.000951358 0)
(-0.126728 0.000282804 0)
(-0.124613 -0.000319582 0)
(-0.121289 -0.000994215 0)
(-0.116839 -0.00163948 0)
(-0.111207 -0.00229315 0)
(-0.104434 -0.00291567 0)
(-0.0965649 -0.00352467 0)
(-0.0877186 -0.00411986 0)
(-0.0778713 -0.00465006 0)
(-0.0672066 -0.0051032 0)
(-0.0558863 -0.00546127 0)
(-0.0440994 -0.00567748 0)
(-0.0320919 -0.00572541 0)
(-0.0201414 -0.00558396 0)
(-0.00852862 -0.00524945 0)
(0.00238543 -0.00474357 0)
(0.0122504 -0.00403211 0)
(0.0207772 -0.00311966 0)
(0.0276751 -0.00207276 0)
(0.032659 -0.000926921 0)
(0.035729 0.000231894 0)
(0.0362834 0.00150134 0)
(0.0351037 0.00214176 0)
(0.0318735 0.00274205 0)
(0.0267835 0.00298546 0)
(0.0207975 0.00272906 0)
(0.0146647 0.00207208 0)
(0.00920721 0.00125255 0)
(0.00489511 0.000564703 0)
(0.00189727 0.00014137 0)
(0.000216195 -0.000157405 0)
(-0.000223627 -0.000340843 0)
(1.38879e-05 -0.000366413 0)
(0.00173381 -0.00201624 0)
(0.00503611 -0.00340065 0)
(0.00875456 -0.00388377 0)
(0.0122056 -0.00353102 0)
(0.0149701 -0.00269848 0)
(0.0168695 -0.00167594 0)
(0.0179184 -0.000737375 0)
(0.0182417 -6.83905e-05 0)
(0.0179929 0.000293526 0)
(0.0173775 0.000396438 0)
(0.0165487 0.000315822 0)
(0.0155981 0.000169701 0)
(0.0145171 6.83167e-05 0)
(0.013237 7.36746e-05 0)
(0.0116562 0.000199697 0)
(0.00968205 0.000426577 0)
(0.00726049 0.000732662 0)
(0.00428119 0.00113611 0)
(0.000642275 0.00165048 0)
(-0.00376195 0.00228049 0)
(-0.00913132 0.00304124 0)
(-0.0155968 0.00391011 0)
(-0.023213 0.00486445 0)
(-0.0320274 0.00591988 0)
(-0.0421234 0.00708708 0)
(-0.0534543 0.00838895 0)
(-0.0656839 0.00982348 0)
(-0.0784697 0.0113511 0)
(-0.091315 0.0128291 0)
(-0.103657 0.0139669 0)
(-0.115655 0.0147083 0)
(-0.127061 0.0150533 0)
(-0.137768 0.0150185 0)
(-0.147684 0.0146686 0)
(-0.156734 0.0140521 0)
(-0.164879 0.0132232 0)
(-0.17208 0.0122267 0)
(-0.178324 0.0110999 0)
(-0.183594 0.00987261 0)
(-0.187878 0.00856365 0)
(-0.191173 0.00718933 0)
(-0.193469 0.00575683 0)
(-0.194758 0.00427659 0)
(-0.195033 0.0027567 0)
(-0.194265 0.00120035 0)
(-0.192441 -0.000397762 0)
(-0.189591 -0.00206812 0)
(-0.185627 -0.00380221 0)
(-0.180603 -0.00556546 0)
(-0.174468 -0.00736515 0)
(-0.167235 -0.00916842 0)
(-0.158889 -0.0109641 0)
(-0.149439 -0.0127166 0)
(-0.138902 -0.0143955 0)
(-0.127314 -0.0159471 0)
(-0.114809 -0.0173371 0)
(-0.101474 -0.0185151 0)
(-0.0874711 -0.0194002 0)
(-0.0730226 -0.0199402 0)
(-0.0583285 -0.0200719 0)
(-0.0436465 -0.0197468 0)
(-0.0292637 -0.0189341 0)
(-0.0154835 -0.0176305 0)
(-0.00259563 -0.0158157 0)
(0.00911161 -0.0135089 0)
(0.0193541 -0.0107619 0)
(0.027888 -0.00767314 0)
(0.0345335 -0.00432845 0)
(0.0390845 -0.000909801 0)
(0.0415399 0.00232771 0)
(0.0417508 0.00531617 0)
(0.0398073 0.00779653 0)
(0.0358853 0.00951357 0)
(0.0301584 0.00978943 0)
(0.0229711 0.00893101 0)
(0.0153325 0.00715526 0)
(0.0083642 0.00488351 0)
(0.00314606 0.0024124 0)
(0.000239739 0.000344743 0)
(0.000190921 -0.00156191 0)
(0.00306487 -0.00518871 0)
(0.00722997 -0.00739523 0)
(0.011171 -0.00770956 0)
(0.0144314 -0.00667585 0)
(0.0167941 -0.00493489 0)
(0.018275 -0.00304205 0)
(0.0189336 -0.00132727 0)
(0.0188447 2.88929e-05 0)
(0.018101 0.000945031 0)
(0.0168527 0.00144239 0)
(0.015176 0.00166663 0)
(0.0130884 0.00180723 0)
(0.0105525 0.00203584 0)
(0.00748606 0.0024588 0)
(0.00378413 0.00310457 0)
(-0.000668768 0.00395853 0)
(-0.00603465 0.00502934 0)
(-0.0124359 0.00633814 0)
(-0.0199925 0.0079209 0)
(-0.0287923 0.00978899 0)
(-0.0388294 0.0118938 0)
(-0.0500642 0.0141508 0)
(-0.0623795 0.0164436 0)
(-0.0755357 0.0186501 0)
(-0.0892419 0.0206766 0)
(-0.10314 0.0224318 0)
(-0.11692 0.0238565 0)
(-0.13025 0.0248837 0)
(-0.142859 0.0254958 0)
(-0.154577 0.0256822 0)
(-0.165337 0.0254345 0)
(-0.175067 0.0248041 0)
(-0.183822 0.0238189 0)
(-0.191604 0.0225219 0)
(-0.198447 0.0209799 0)
(-0.204378 0.019239 0)
(-0.209421 0.0173452 0)
(-0.213591 0.015328 0)
(-0.216903 0.013221 0)
(-0.219367 0.0110395 0)
(-0.220984 0.00879333 0)
(-0.221754 0.00649172 0)
(-0.221668 0.004134 0)
(-0.220718 0.00171975 0)
(-0.21889 -0.000755548 0)
(-0.216143 -0.00330462 0)
(-0.212467 -0.00592772 0)
(-0.207839 -0.00860595 0)
(-0.202234 -0.0113317 0)
(-0.195624 -0.0141 0)
(-0.187997 -0.0168821 0)
(-0.17934 -0.0196557 0)
(-0.169652 -0.022379 0)
(-0.158949 -0.0250005 0)
(-0.147265 -0.0274461 0)
(-0.134671 -0.0296447 0)
(-0.12126 -0.0315095 0)
(-0.107144 -0.0329355 0)
(-0.0925045 -0.0338331 0)
(-0.0775529 -0.0341131 0)
(-0.0625161 -0.0336916 0)
(-0.0476724 -0.0325127 0)
(-0.0333294 -0.0305819 0)
(-0.0197674 -0.027895 0)
(-0.007232 -0.0244798 0)
(0.00402003 -0.0203963 0)
(0.0137611 -0.0157642 0)
(0.0218397 -0.0107389 0)
(0.0281302 -0.0055114 0)
(0.0325773 -0.000310481 0)
(0.0351817 0.00464787 0)
(0.0358096 0.00901428 0)
(0.0343717 0.0124449 0)
(0.0311128 0.0148467 0)
(0.0261889 0.0155188 0)
(0.0197227 0.0145567 0)
(0.012604 0.0120249 0)
(0.00591334 0.00804334 0)
(0.000792847 0.00305925 0)
(0.000397659 -0.00343647 0)
(0.00410735 -0.00920093 0)
(0.00841498 -0.0115671 0)
(0.0119125 -0.0111442 0)
(0.0144539 -0.00914752 0)
(0.0160252 -0.00649631 0)
(0.0167212 -0.0037598 0)
(0.0166325 -0.00128122 0)
(0.0158366 0.000742297 0)
(0.0143956 0.0022367 0)
(0.0123059 0.00328043 0)
(0.00954595 0.00405975 0)
(0.00606616 0.00480395 0)
(0.00179794 0.00571305 0)
(-0.00333398 0.00690716 0)
(-0.00942162 0.00843397 0)
(-0.0165851 0.010308 0)
(-0.0249451 0.012532 0)
(-0.0345842 0.0150967 0)
(-0.0455222 0.0179742 0)
(-0.0576827 0.021079 0)
(-0.0708795 0.0242704 0)
(-0.0848286 0.0273746 0)
(-0.0991779 0.0302255 0)
(-0.113629 0.0327305 0)
(-0.12784 0.0347109 0)
(-0.141524 0.0360573 0)
(-0.154391 0.0367766 0)
(-0.166265 0.036935 0)
(-0.177101 0.0365766 0)
(-0.186869 0.0357669 0)
(-0.195624 0.0345415 0)
(-0.203404 0.0329386 0)
(-0.210283 0.0310256 0)
(-0.2163 0.0288476 0)
(-0.221519 0.02646 0)
(-0.225976 0.0239019 0)
(-0.229702 0.021214 0)
(-0.232717 0.0184209 0)
(-0.235035 0.015543 0)
(-0.236662 0.0125937 0)
(-0.237595 0.00957704 0)
(-0.237826 0.00649383 0)
(-0.237341 0.00333938 0)
(-0.236123 0.000109801 0)
(-0.234146 -0.00320038 0)
(-0.231377 -0.00659261 0)
(-0.22779 -0.0100844 0)
(-0.223354 -0.0136681 0)
(-0.218034 -0.0173348 0)
(-0.211793 -0.0210653 0)
(-0.204602 -0.0248312 0)
(-0.196439 -0.0286024 0)
(-0.187286 -0.032329 0)
(-0.177133 -0.0359416 0)
(-0.165987 -0.0393421 0)
(-0.153884 -0.0424231 0)
(-0.140897 -0.0450796 0)
(-0.127116 -0.0471694 0)
(-0.11267 -0.0485438 0)
(-0.0977485 -0.0490899 0)
(-0.082565 -0.0486801 0)
(-0.0673654 -0.0472295 0)
(-0.052459 -0.0446978 0)
(-0.0382025 -0.0411358 0)
(-0.0248727 -0.0366115 0)
(-0.0127058 -0.0311955 0)
(-0.00193103 -0.0250453 0)
(0.00727681 -0.0183806 0)
(0.014796 -0.0114478 0)
(0.0205657 -0.00450534 0)
(0.0245976 0.00222303 0)
(0.0269326 0.00842747 0)
(0.0275956 0.0136986 0)
(0.0264469 0.0176792 0)
(0.0235078 0.0200705 0)
(0.0189643 0.020425 0)
(0.0131994 0.0185786 0)
(0.0068821 0.0143161 0)
(0.00106504 0.00683106 0)
(0.000661147 -0.00585535 0)
(0.00479205 -0.0134817 0)
(0.00862964 -0.0153171 0)
(0.0112923 -0.0138186 0)
(0.0129001 -0.0107511 0)
(0.0135198 -0.00716736 0)
(0.013296 -0.0036176 0)
(0.0123148 -0.000411212 0)
(0.0106135 0.00229501 0)
(0.00818152 0.00448525 0)
(0.00495727 0.00627157 0)
(0.000854276 0.00786406 0)
(-0.00421829 0.00950338 0)
(-0.0103466 0.0113913 0)
(-0.017612 0.0136551 0)
(-0.0260905 0.0163519 0)
(-0.0358443 0.0194896 0)
(-0.0468993 0.0230358 0)
(-0.0592009 0.0268955 0)
(-0.0725867 0.0309367 0)
(-0.0867823 0.0349426 0)
(-0.10143 0.0387048 0)
(-0.116182 0.042104 0)
(-0.130727 0.0448542 0)
(-0.144686 0.0468227 0)
(-0.157733 0.0480112 0)
(-0.169758 0.048443 0)
(-0.180697 0.0481704 0)
(-0.190599 0.0472965 0)
(-0.199504 0.0459169 0)
(-0.207473 0.0441132 0)
(-0.214595 0.0419574 0)
(-0.220914 0.0394985 0)
(-0.226498 0.0367888 0)
(-0.231391 0.033869 0)
(-0.235643 0.0307801 0)
(-0.239282 0.0275544 0)
(-0.242333 0.0242221 0)
(-0.244813 0.0207962 0)
(-0.246725 0.0172906 0)
(-0.24807 0.0137154 0)
(-0.248845 0.0100634 0)
(-0.249039 0.00633077 0)
(-0.248636 0.00250585 0)
(-0.247619 -0.0014201 0)
(-0.245957 -0.00545643 0)
(-0.243611 -0.00960819 0)
(-0.240546 -0.0138846 0)
(-0.236722 -0.0182856 0)
(-0.232116 -0.0228164 0)
(-0.226667 -0.0274551 0)
(-0.220326 -0.0321649 0)
(-0.213055 -0.0369128 0)
(-0.204814 -0.0416415 0)
(-0.195569 -0.0462703 0)
(-0.185309 -0.0506832 0)
(-0.17401 -0.0547324 0)
(-0.161731 -0.0582984 0)
(-0.148521 -0.0611977 0)
(-0.134473 -0.0632339 0)
(-0.119746 -0.0642608 0)
(-0.104523 -0.0640997 0)
(-0.0890481 -0.0626178 0)
(-0.0735676 -0.0597361 0)
(-0.0584243 -0.0554613 0)
(-0.0440542 -0.0499169 0)
(-0.030738 -0.0432348 0)
(-0.0187059 -0.0356174 0)
(-0.00818959 -0.0273276 0)
(0.000652062 -0.0186778 0)
(0.00773939 -0.00999314 0)
(0.0130726 -0.00157133 0)
(0.016719 0.00627549 0)
(0.0187556 0.0132213 0)
(0.0191997 0.0189032 0)
(0.0180607 0.0228674 0)
(0.0153521 0.0246574 0)
(0.0112754 0.0239418 0)
(0.00618614 0.0200787 0)
(0.000920391 0.0105884 0)
(0.000958937 -0.00866932 0)
(0.00502044 -0.0174581 0)
(0.00794769 -0.0181454 0)
(0.00951563 -0.0154802 0)
(0.010078 -0.0113327 0)
(0.00968226 -0.00685874 0)
(0.00847482 -0.00252342 0)
(0.00650065 0.00142592 0)
(0.00374511 0.00488996 0)
(0.000141933 0.00790257 0)
(-0.00441301 0.010611 0)
(-0.0100325 0.0132355 0)
(-0.0168175 0.0160072 0)
(-0.0248481 0.0191114 0)
(-0.0341797 0.0226575 0)
(-0.0448294 0.0266712 0)
(-0.0567583 0.0311033 0)
(-0.0698503 0.0358637 0)
(-0.0838953 0.040731 0)
(-0.0985414 0.0454501 0)
(-0.11343 0.0498651 0)
(-0.128223 0.0536183 0)
(-0.142468 0.0565191 0)
(-0.155781 0.0584919 0)
(-0.168017 0.0594948 0)
(-0.179161 0.0596058 0)
(-0.189261 0.058947 0)
(-0.198392 0.0576529 0)
(-0.206638 0.0558361 0)
(-0.214059 0.0535876 0)
(-0.220728 0.0509836 0)
(-0.226701 0.0480822 0)
(-0.232026 0.0449346 0)
(-0.236758 0.0415838 0)
(-0.240932 0.038063 0)
(-0.24458 0.0344037 0)
(-0.247722 0.0306318 0)
(-0.250378 0.02677 0)
(-0.252559 0.0228279 0)
(-0.254267 0.0188111 0)
(-0.2555 0.0147234 0)
(-0.256264 0.0105485 0)
(-0.256548 0.00627883 0)
(-0.256347 0.0018951 0)
(-0.255654 -0.00262326 0)
(-0.25445 -0.00729434 0)
(-0.252706 -0.012126 0)
(-0.250385 -0.017124 0)
(-0.247424 -0.0222781 0)
(-0.243785 -0.0276006 0)
(-0.23941 -0.0330819 0)
(-0.234221 -0.0386754 0)
(-0.228139 -0.0443366 0)
(-0.221088 -0.0499949 0)
(-0.213015 -0.0555757 0)
(-0.203992 -0.0610417 0)
(-0.193828 -0.066138 0)
(-0.182557 -0.0707238 0)
(-0.170217 -0.0745949 0)
(-0.156813 -0.0774838 0)
(-0.142501 -0.0792198 0)
(-0.127418 -0.0795638 0)
(-0.111783 -0.0783546 0)
(-0.095863 -0.0754338 0)
(-0.0799297 -0.0707541 0)
(-0.0643848 -0.0643772 0)
(-0.0497284 -0.0565852 0)
(-0.0362281 -0.0475836 0)
(-0.0241689 -0.0376929 0)
(-0.0137836 -0.0273053 0)
(-0.00520817 -0.0168335 0)
(0.00152302 -0.00666829 0)
(0.00647272 0.00283917 0)
(0.009764 0.0113603 0)
(0.0115153 0.0185632 0)
(0.0117972 0.0240235 0)
(0.0106242 0.0272534 0)
(0.00808805 0.0277642 0)
(0.00454977 0.024615 0)
(0.000543031 0.0136652 0)
(0.00120888 -0.0116431 0)
(0.00472174 -0.0206214 0)
(0.00637504 -0.0198967 0)
(0.00685076 -0.015977 0)
(0.00627566 -0.0108388 0)
(0.00482897 -0.00552306 0)
(0.00258209 -0.000401364 0)
(-0.000472597 0.00434545 0)
(-0.00439798 0.00867273 0)
(-0.00929557 0.0126514 0)
(-0.0152835 0.0164454 0)
(-0.0224724 0.0202673 0)
(-0.0309473 0.0243226 0)
(-0.0407549 0.0287605 0)
(-0.0518901 0.0336424 0)
(-0.0642693 0.0389289 0)
(-0.0777598 0.044497 0)
(-0.0920772 0.050108 0)
(-0.106832 0.0555391 0)
(-0.121697 0.060433 0)
(-0.136202 0.0645117 0)
(-0.149872 0.0675652 0)
(-0.162468 0.0694903 0)
(-0.173951 0.0703371 0)
(-0.184379 0.0702339 0)
(-0.193816 0.0693235 0)
(-0.202357 0.0677373 0)
(-0.210086 0.0655998 0)
(-0.217076 0.0630104 0)
(-0.223384 0.0600535 0)
(-0.229064 0.0567956 0)
(-0.234159 0.0532861 0)
(-0.238711 0.0495701 0)
(-0.242757 0.045685 0)
(-0.246323 0.0416635 0)
(-0.249431 0.0375346 0)
(-0.252095 0.0333246 0)
(-0.254328 0.0290489 0)
(-0.256135 0.0247161 0)
(-0.257587 0.0202252 0)
(-0.25864 0.015694 0)
(-0.259304 0.0110721 0)
(-0.259563 0.0063607 0)
(-0.259409 0.00153939 0)
(-0.258827 -0.00341028 0)
(-0.257837 -0.00851134 0)
(-0.256431 -0.0137881 0)
(-0.254602 -0.0192697 0)
(-0.252352 -0.0249909 0)
(-0.249625 -0.0309628 0)
(-0.246415 -0.037228 0)
(-0.242645 -0.0436843 0)
(-0.2382 -0.0503023 0)
(-0.232975 -0.057029 0)
(-0.226841 -0.0637651 0)
(-0.219542 -0.0703102 0)
(-0.211048 -0.0764951 0)
(-0.201216 -0.0821215 0)
(-0.190259 -0.0871271 0)
(-0.177985 -0.0910929 0)
(-0.164518 -0.0938002 0)
(-0.14996 -0.0949477 0)
(-0.134493 -0.0943091 0)
(-0.118355 -0.0916836 0)
(-0.101863 -0.0869831 0)
(-0.0852916 -0.0801445 0)
(-0.0692038 -0.0714047 0)
(-0.0541259 -0.0611526 0)
(-0.0403471 -0.0497145 0)
(-0.0281986 -0.0375613 0)
(-0.0179089 -0.0252089 0)
(-0.00958795 -0.0131643 0)
(-0.00321992 -0.00187904 0)
(0.00132745 0.008271 0)
(0.00425152 0.0169646 0)
(0.00571889 0.0238378 0)
(0.00582436 0.0284301 0)
(0.00464407 0.0301232 0)
(0.00256071 0.0276655 0)
(8.32637e-05 0.0155811 0)
(0.00132112 -0.0144468 0)
(0.00377105 -0.0226751 0)
(0.00421699 -0.0204517 0)
(0.00347423 -0.015269 0)
(0.00176297 -0.00924685 0)
(-0.000762762 -0.00312093 0)
(-0.00409951 0.00281542 0)
(-0.00830247 0.00843624 0)
(-0.0134668 0.013734 0)
(-0.0197048 0.0187992 0)
(-0.0271258 0.0237938 0)
(-0.0358168 0.0289061 0)
(-0.045824 0.0342982 0)
(-0.0571365 0.040057 0)
(-0.0696628 0.0461769 0)
(-0.0832388 0.0525272 0)
(-0.0975437 0.0588615 0)
(-0.11221 0.064907 0)
(-0.126804 0.070284 0)
(-0.140839 0.0746827 0)
(-0.153902 0.0778712 0)
(-0.165874 0.0798211 0)
(-0.176754 0.0806198 0)
(-0.186604 0.0804251 0)
(-0.195509 0.079367 0)
(-0.203559 0.0775948 0)
(-0.210846 0.0752305 0)
(-0.217434 0.0723845 0)
(-0.223378 0.0691426 0)
(-0.228723 0.0655797 0)
(-0.233509 0.0617556 0)
(-0.237769 0.0577192 0)
(-0.241534 0.0535143 0)
(-0.244823 0.0491828 0)
(-0.247649 0.0447631 0)
(-0.250079 0.0402269 0)
(-0.252172 0.0355877 0)
(-0.253924 0.030874 0)
(-0.255351 0.0260812 0)
(-0.256424 0.0212973 0)
(-0.257169 0.0164078 0)
(-0.257585 0.0114365 0)
(-0.257686 0.00635985 0)
(-0.257478 0.00116576 0)
(-0.25697 -0.00416107 0)
(-0.256174 -0.00963919 0)
(-0.255077 -0.0152967 0)
(-0.253669 -0.0211537 0)
(-0.251935 -0.0272284 0)
(-0.24985 -0.0335256 0)
(-0.247377 -0.0400375 0)
(-0.24449 -0.0468876 0)
(-0.241167 -0.0540493 0)
(-0.237353 -0.0614844 0)
(-0.232974 -0.0691433 0)
(-0.227931 -0.076971 0)
(-0.222044 -0.0846299 0)
(-0.214969 -0.0918794 0)
(-0.20629 -0.0982877 0)
(-0.195924 -0.103511 0)
(-0.183997 -0.10744 0)
(-0.170637 -0.10974 0)
(-0.155925 -0.110087 0)
(-0.140067 -0.108173 0)
(-0.123396 -0.103875 0)
(-0.106199 -0.0970468 0)
(-0.0888817 -0.0877541 0)
(-0.0721407 -0.0764261 0)
(-0.0565522 -0.0635702 0)
(-0.0424667 -0.0496745 0)
(-0.0302388 -0.0353604 0)
(-0.0200904 -0.0212687 0)
(-0.0120954 -0.00799465 0)
(-0.00617099 0.00396707 0)
(-0.00209467 0.0142423 0)
(0.000415579 0.0225175 0)
(0.00157961 0.028385 0)
(0.00157898 0.0311708 0)
(0.000739521 0.0292359 0)
(-0.000273541 0.0162788 0)
(0.00125244 -0.0167888 0)
(0.00240197 -0.0234743 0)
(0.00155862 -0.0196716 0)
(-0.000398715 -0.0134142 0)
(-0.00322562 -0.00655483 0)
(-0.00684813 0.000380225 0)
(-0.0113062 0.00717448 0)
(-0.0166879 0.0137425 0)
(-0.0230994 0.0200951 0)
(-0.0306437 0.0263231 0)
(-0.0394041 0.0325683 0)
(-0.0494265 0.0389779 0)
(-0.0606984 0.0456504 0)
(-0.0731462 0.052607 0)
(-0.0865935 0.059735 0)
(-0.100692 0.0667844 0)
(-0.115089 0.0734297 0)
(-0.129311 0.0792991 0)
(-0.142821 0.0840387 0)
(-0.155369 0.0874604 0)
(-0.166823 0.0895401 0)
(-0.1772 0.0904138 0)
(-0.186564 0.090206 0)
(-0.195012 0.0890878 0)
(-0.202628 0.0871967 0)
(-0.209496 0.0846733 0)
(-0.215681 0.0816232 0)
(-0.22123 0.0781435 0)
(-0.226186 0.074311 0)
(-0.230585 0.0701946 0)
(-0.234461 0.0658506 0)
(-0.237845 0.0613288 0)
(-0.240762 0.0566727 0)
(-0.243294 0.051882 0)
(-0.245465 0.046996 0)
(-0.24728 0.0420707 0)
(-0.24872 0.0371141 0)
(-0.249805 0.0321076 0)
(-0.250551 0.0270528 0)
(-0.251015 0.0219494 0)
(-0.251225 0.0167761 0)
(-0.251209 0.0115376 0)
(-0.250987 0.00621329 0)
(-0.250579 0.000784985 0)
(-0.250005 -0.0047729 0)
(-0.249246 -0.0104858 0)
(-0.24831 -0.0163874 0)
(-0.247199 -0.0225098 0)
(-0.24591 -0.0288857 0)
(-0.244434 -0.0355392 0)
(-0.24275 -0.042485 0)
(-0.240832 -0.0497271 0)
(-0.238637 -0.0572575 0)
(-0.236102 -0.0650537 0)
(-0.233144 -0.0730547 0)
(-0.229637 -0.0811579 0)
(-0.225535 -0.0895532 0)
(-0.220749 -0.0979726 0)
(-0.215047 -0.106198 0)
(-0.208076 -0.113577 0)
(-0.199127 -0.119474 0)
(-0.187876 -0.12325 0)
(-0.174812 -0.125035 0)
(-0.159988 -0.124317 0)
(-0.143795 -0.120953 0)
(-0.126475 -0.114676 0)
(-0.108462 -0.105446 0)
(-0.0902978 -0.093467 0)
(-0.0728114 -0.079352 0)
(-0.0566806 -0.0638237 0)
(-0.0423144 -0.0475252 0)
(-0.0300856 -0.0312392 0)
(-0.0201971 -0.0157283 0)
(-0.0126633 -0.00166477 0)
(-0.00730623 0.0104332 0)
(-0.0037818 0.0202113 0)
(-0.00171593 0.0273291 0)
(-0.000761775 0.0310368 0)
(-0.000519744 0.0295407 0)
(-0.000373423 0.0161075 0)
(0.00102886 -0.0181707 0)
(0.00074301 -0.0229028 0)
(-0.00141977 -0.0176028 0)
(-0.0045381 -0.010417 0)
(-0.00847288 -0.00275703 0)
(-0.0131969 0.00499649 0)
(-0.0187781 0.012688 0)
(-0.0253203 0.0202549 0)
(-0.0329236 0.027707 0)
(-0.0416666 0.0351167 0)
(-0.0515934 0.0425891 0)
(-0.0626936 0.0502131 0)
(-0.07491 0.0580258 0)
(-0.088083 0.0659433 0)
(-0.101864 0.0737113 0)
(-0.115872 0.0809895 0)
(-0.129656 0.0874033 0)
(-0.142716 0.0925672 0)
(-0.154812 0.0963201 0)
(-0.165838 0.0986643 0)
(-0.175781 0.0996861 0)
(-0.18473 0.099559 0)
(-0.192765 0.0984439 0)
(-0.199978 0.0965028 0)
(-0.206437 0.0938669 0)
(-0.212204 0.0906579 0)
(-0.217323 0.0869708 0)
(-0.221834 0.0828939 0)
(-0.225776 0.0785004 0)
(-0.229185 0.0738565 0)
(-0.2321 0.0690176 0)
(-0.234558 0.064032 0)
(-0.236604 0.0589372 0)
(-0.238236 0.0537843 0)
(-0.239499 0.0485745 0)
(-0.240422 0.0433248 0)
(-0.241046 0.0380415 0)
(-0.24143 0.0327343 0)
(-0.241624 0.0274122 0)
(-0.241614 0.0220767 0)
(-0.241439 0.0167074 0)
(-0.241113 0.0112963 0)
(-0.240655 0.00582028 0)
(-0.240078 0.000255755 0)
(-0.239396 -0.0054284 0)
(-0.238613 -0.0112574 0)
(-0.237745 -0.0172647 0)
(-0.236803 -0.0234841 0)
(-0.235796 -0.0299513 0)
(-0.234726 -0.0367004 0)
(-0.23359 -0.0437651 0)
(-0.23238 -0.051177 0)
(-0.231076 -0.0589541 0)
(-0.229643 -0.0671002 0)
(-0.228014 -0.0755872 0)
(-0.226091 -0.0843432 0)
(-0.223763 -0.0932497 0)
(-0.220875 -0.102158 0)
(-0.217197 -0.110846 0)
(-0.212663 -0.119543 0)
(-0.206995 -0.127625 0)
(-0.199657 -0.134233 0)
(-0.189661 -0.138323 0)
(-0.176915 -0.139323 0)
(-0.162121 -0.137515 0)
(-0.145498 -0.132456 0)
(-0.127427 -0.123931 0)
(-0.108499 -0.112059 0)
(-0.0893753 -0.0971553 0)
(-0.0710972 -0.0801232 0)
(-0.054447 -0.0619137 0)
(-0.0398965 -0.0433466 0)
(-0.0278178 -0.0253744 0)
(-0.0183657 -0.00887771 0)
(-0.0114697 0.00540706 0)
(-0.00680866 0.0169623 0)
(-0.00387098 0.0254301 0)
(-0.00219228 0.0299415 0)
(-0.00114707 0.028912 0)
(-0.000332354 0.0154963 0)
(0.000737742 -0.0185667 0)
(-0.00110478 -0.0209429 0)
(-0.00452003 -0.0143278 0)
(-0.00875875 -0.00628718 0)
(-0.0137874 0.00214065 0)
(-0.0195906 0.0107151 0)
(-0.0262576 0.0193244 0)
(-0.0338923 0.0279077 0)
(-0.0425753 0.036455 0)
(-0.0523503 0.0450038 0)
(-0.063211 0.053608 0)
(-0.0751124 0.0623025 0)
(-0.0879204 0.0710305 0)
(-0.101314 0.0795442 0)
(-0.114895 0.087498 0)
(-0.128231 0.0945143 0)
(-0.140895 0.100225 0)
(-0.152608 0.104434 0)
(-0.163264 0.107136 0)
(-0.172846 0.108414 0)
(-0.181425 0.108444 0)
(-0.189091 0.107408 0)
(-0.195918 0.105467 0)
(-0.201974 0.102767 0)
(-0.207309 0.099428 0)
(-0.211969 0.0955594 0)
(-0.215992 0.0912528 0)
(-0.219421 0.0865947 0)
(-0.222297 0.0816595 0)
(-0.224665 0.0765146 0)
(-0.226572 0.0712165 0)
(-0.228061 0.0658128 0)
(-0.22918 0.06034 0)
(-0.229967 0.0548302 0)
(-0.230476 0.0493024 0)
(-0.230745 0.0437773 0)
(-0.230813 0.0382656 0)
(-0.230711 0.0327697 0)
(-0.230465 0.0272845 0)
(-0.230089 0.0218036 0)
(-0.229607 0.0163111 0)
(-0.229029 0.0107906 0)
(-0.228375 0.0052196 0)
(-0.227658 -0.000426319 0)
(-0.226887 -0.00617541 0)
(-0.226073 -0.0120563 0)
(-0.225237 -0.0181023 0)
(-0.224389 -0.0243472 0)
(-0.223546 -0.0308267 0)
(-0.222719 -0.0375769 0)
(-0.221919 -0.044635 0)
(-0.221154 -0.0520375 0)
(-0.220425 -0.0598156 0)
(-0.219721 -0.0679924 0)
(-0.219014 -0.076578 0)
(-0.218246 -0.0855651 0)
(-0.217335 -0.0949144 0)
(-0.216147 -0.104506 0)
(-0.214485 -0.114138 0)
(-0.212121 -0.12351 0)
(-0.208749 -0.132309 0)
(-0.204163 -0.140675 0)
(-0.197976 -0.147729 0)
(-0.189329 -0.15217 0)
(-0.177072 -0.152537 0)
(-0.162285 -0.149519 0)
(-0.145107 -0.142509 0)
(-0.126193 -0.13153 0)
(-0.106215 -0.11673 0)
(-0.0860818 -0.0987069 0)
(-0.0670315 -0.0786696 0)
(-0.049977 -0.0578401 0)
(-0.0354307 -0.0372423 0)
(-0.0237292 -0.0180035 0)
(-0.0149462 -0.00111565 0)
(-0.00887644 0.0126441 0)
(-0.00496295 0.0227493 0)
(-0.00268166 0.0281908 0)
(-0.0011588 0.0277424 0)
(-0.000149358 0.0147263 0)
(0.000187259 -0.0178591 0)
(-0.00305259 -0.0176673 0)
(-0.00761515 -0.00985916 0)
(-0.0129239 -0.00105862 0)
(-0.0190001 0.00810067 0)
(-0.0258265 0.017486 0)
(-0.0335006 0.0270072 0)
(-0.0421153 0.0365851 0)
(-0.0517224 0.0461735 0)
(-0.0623221 0.0557627 0)
(-0.0738775 0.0653581 0)
(-0.0862802 0.0749189 0)
(-0.0992502 0.0842129 0)
(-0.112399 0.0928959 0)
(-0.125314 0.100591 0)
(-0.13762 0.106953 0)
(-0.14902 0.111746 0)
(-0.159363 0.114912 0)
(-0.168644 0.116553 0)
(-0.176908 0.11683 0)
(-0.18424 0.115941 0)
(-0.190713 0.114059 0)
(-0.196383 0.111334 0)
(-0.201301 0.107899 0)
(-0.205508 0.103868 0)
(-0.209051 0.0993483 0)
(-0.211976 0.0944346 0)
(-0.214338 0.0892161 0)
(-0.216192 0.0837703 0)
(-0.217596 0.0781661 0)
(-0.218607 0.0724601 0)
(-0.219279 0.0666984 0)
(-0.219666 0.0609164 0)
(-0.219815 0.055143 0)
(-0.21977 0.0493972 0)
(-0.219565 0.0436926 0)
(-0.219227 0.0380323 0)
(-0.218778 0.0324112 0)
(-0.218238 0.0268211 0)
(-0.217621 0.0212508 0)
(-0.216941 0.0156832 0)
(-0.216208 0.0100999 0)
(-0.215435 0.00447813 0)
(-0.214634 -0.00120549 0)
(-0.213814 -0.00697525 0)
(-0.212987 -0.0128649 0)
(-0.212169 -0.0189044 0)
(-0.211375 -0.0251274 0)
(-0.210624 -0.0315688 0)
(-0.209933 -0.0382653 0)
(-0.209319 -0.045255 0)
(-0.208801 -0.0525765 0)
(-0.208394 -0.0602658 0)
(-0.208105 -0.0683542 0)
(-0.207933 -0.0768661 0)
(-0.207859 -0.085816 0)
(-0.207842 -0.095201 0)
(-0.207804 -0.104984 0)
(-0.207611 -0.115081 0)
(-0.207065 -0.125325 0)
(-0.205885 -0.13538 0)
(-0.203729 -0.14478 0)
(-0.200146 -0.15305 0)
(-0.194841 -0.160262 0)
(-0.187086 -0.164736 0)
(-0.175403 -0.164646 0)
(-0.160448 -0.160158 0)
(-0.142629 -0.151042 0)
(-0.122712 -0.13728 0)
(-0.101606 -0.119293 0)
(-0.0804785 -0.0979637 0)
(-0.0607855 -0.0748865 0)
(-0.0435599 -0.0516081 0)
(-0.0293131 -0.0293703 0)
(-0.0183022 -0.00947758 0)
(-0.010474 0.00698637 0)
(-0.00536013 0.0192007 0)
(-0.00242055 0.0260227 0)
(-0.000698532 0.0264505 0)
(0.000110049 0.0142205 0)
(-0.000374471 -0.0159156 0)
(-0.00496822 -0.0131058 0)
(-0.0105877 -0.00427616 0)
(-0.0168995 0.00520278 0)
(-0.0239515 0.0150531 0)
(-0.0317151 0.0252234 0)
(-0.0402858 0.0356216 0)
(-0.0497374 0.0461341 0)
(-0.0600861 0.0566671 0)
(-0.0713017 0.0671623 0)
(-0.0832962 0.0775677 0)
(-0.0958344 0.0876658 0)
(-0.108561 0.0971308 0)
(-0.121092 0.105585 0)
(-0.133078 0.11269 0)
(-0.144224 0.118186 0)
(-0.154328 0.121947 0)
(-0.163364 0.124057 0)
(-0.171375 0.124682 0)
(-0.178424 0.124018 0)
(-0.184585 0.122257 0)
(-0.189911 0.119557 0)
(-0.194449 0.116063 0)
(-0.198246 0.111902 0)
(-0.201353 0.107192 0)
(-0.203829 0.102046 0)
(-0.205737 0.096564 0)
(-0.207146 0.090839 0)
(-0.208124 0.0849502 0)
(-0.208738 0.078965 0)
(-0.209049 0.0729371 0)
(-0.209113 0.066908 0)
(-0.20898 0.0609082 0)
(-0.208691 0.0549594 0)
(-0.208279 0.0490734 0)
(-0.207769 0.043255 0)
(-0.207181 0.0375016 0)
(-0.206531 0.0318051 0)
(-0.20583 0.0261535 0)
(-0.205088 0.0205328 0)
(-0.204313 0.0149252 0)
(-0.203511 0.0093109 0)
(-0.202692 0.00366795 0)
(-0.201862 -0.00202675 0)
(-0.20103 -0.00779775 0)
(-0.200207 -0.0136744 0)
(-0.199407 -0.0196856 0)
(-0.198645 -0.0258629 0)
(-0.19794 -0.0322396 0)
(-0.197313 -0.0388508 0)
(-0.196786 -0.0457342 0)
(-0.196384 -0.0529283 0)
(-0.196129 -0.0604723 0)
(-0.196043 -0.0684037 0)
(-0.19614 -0.0767569 0)
(-0.196425 -0.0855593 0)
(-0.196886 -0.0948252 0)
(-0.197488 -0.104548 0)
(-0.19816 -0.114692 0)
(-0.198778 -0.12518 0)
(-0.199143 -0.135856 0)
(-0.198959 -0.146438 0)
(-0.197817 -0.156398 0)
(-0.195216 -0.165022 0)
(-0.19056 -0.171997 0)
(-0.183284 -0.176252 0)
(-0.171937 -0.175462 0)
(-0.156667 -0.16942 0)
(-0.138035 -0.157851 0)
(-0.116988 -0.140969 0)
(-0.0947349 -0.1195 0)
(-0.0727266 -0.0946978 0)
(-0.052664 -0.0686511 0)
(-0.0356488 -0.043257 0)
(-0.022131 -0.019991 0)
(-0.0122293 -0.000317876 0)
(-0.00563665 0.0146108 0)
(-0.00188578 0.0234631 0)
(-4.07223e-06 0.0252734 0)
(0.000392144 0.01421 0)
(-0.000942727 -0.0128336 0)
(-0.00676727 -0.00738001 0)
(-0.0133424 0.00233596 0)
(-0.0205703 0.0124157 0)
(-0.0285051 0.022907 0)
(-0.0370952 0.0338151 0)
(-0.0464286 0.0450279 0)
(-0.056555 0.0563837 0)
(-0.0674595 0.0677355 0)
(-0.0790701 0.0789767 0)
(-0.0911898 0.0898851 0)
(-0.103515 0.100168 0)
(-0.115703 0.10945 0)
(-0.127411 0.117384 0)
(-0.138351 0.123689 0)
(-0.148291 0.12818 0)
(-0.157155 0.130881 0)
(-0.164974 0.13196 0)
(-0.171806 0.131617 0)
(-0.177715 0.130049 0)
(-0.182757 0.127437 0)
(-0.186977 0.123933 0)
(-0.190429 0.119683 0)
(-0.193171 0.114821 0)
(-0.195271 0.109473 0)
(-0.196804 0.103757 0)
(-0.19785 0.0977801 0)
(-0.198487 0.0916333 0)
(-0.198788 0.0853932 0)
(-0.19882 0.0791214 0)
(-0.198641 0.0728644 0)
(-0.198301 0.0666557 0)
(-0.197839 0.0605177 0)
(-0.197288 0.0544631 0)
(-0.19667 0.0484962 0)
(-0.196003 0.0426152 0)
(-0.195299 0.0368123 0)
(-0.194566 0.0310769 0)
(-0.19381 0.0253951 0)
(-0.193035 0.0197496 0)
(-0.192244 0.014122 0)
(-0.19144 0.00849374 0)
(-0.190627 0.00284277 0)
(-0.18981 -0.00285289 0)
(-0.188995 -0.00861672 0)
(-0.188191 -0.0144743 0)
(-0.187411 -0.0204523 0)
(-0.186668 -0.0265791 0)
(-0.185982 -0.0328849 0)
(-0.185374 -0.0394023 0)
(-0.184868 -0.0461662 0)
(-0.184494 -0.053214 0)
(-0.18428 -0.0605849 0)
(-0.184254 -0.0683195 0)
(-0.184445 -0.0764586 0)
(-0.184871 -0.0850404 0)
(-0.185543 -0.094096 0)
(-0.186452 -0.103643 0)
(-0.187564 -0.113679 0)
(-0.188807 -0.124163 0)
(-0.190057 -0.135008 0)
(-0.191114 -0.146054 0)
(-0.191671 -0.157025 0)
(-0.191292 -0.167442 0)
(-0.189413 -0.176466 0)
(-0.185294 -0.183194 0)
(-0.178211 -0.186936 0)
(-0.166817 -0.185121 0)
(-0.150984 -0.177155 0)
(-0.131326 -0.162699 0)
(-0.109064 -0.14229 0)
(-0.0857174 -0.116997 0)
(-0.063101 -0.0886156 0)
(-0.0431271 -0.0598593 0)
(-0.0268974 -0.0329008 0)
(-0.0146782 -0.00951517 0)
(-0.00635511 0.00875411 0)
(-0.00157018 0.0203707 0)
(0.000606288 0.0242045 0)
(0.000593581 0.0146192 0)
(-0.00148425 -0.00867175 0)
(-0.00839015 -0.000606646 0)
(-0.0158092 0.00987461 0)
(-0.0238507 0.0204786 0)
(-0.0325532 0.0315502 0)
(-0.0418405 0.0431314 0)
(-0.0517892 0.0550727 0)
(-0.062421 0.0671576 0)
(-0.0736866 0.0791843 0)
(-0.0854165 0.0908902 0)
(-0.0973721 0.101999 0)
(-0.109254 0.112159 0)
(-0.120725 0.120994 0)
(-0.131506 0.128201 0)
(-0.141346 0.133544 0)
(-0.150116 0.136976 0)
(-0.157819 0.138629 0)
(-0.164508 0.138712 0)
(-0.17024 0.13743 0)
(-0.17507 0.134978 0)
(-0.179051 0.131531 0)
(-0.182237 0.127246 0)
(-0.184695 0.122276 0)
(-0.186504 0.116766 0)
(-0.187748 0.110851 0)
(-0.188515 0.104653 0)
(-0.188893 0.0982744 0)
(-0.18896 0.0918036 0)
(-0.188787 0.0853087 0)
(-0.188436 0.0788418 0)
(-0.187954 0.0724393 0)
(-0.187382 0.066125 0)
(-0.18675 0.0599122 0)
(-0.186079 0.0538055 0)
(-0.185383 0.0478026 0)
(-0.184672 0.0418963 0)
(-0.18395 0.036075 0)
(-0.183221 0.0303246 0)
(-0.182485 0.0246301 0)
(-0.181741 0.0189745 0)
(-0.180988 0.0133368 0)
(-0.180226 0.00769966 0)
(-0.179456 0.00204342 0)
(-0.178679 -0.00365336 0)
(-0.177901 -0.00941176 0)
(-0.177129 -0.0152544 0)
(-0.176372 -0.0212047 0)
(-0.175644 -0.0272875 0)
(-0.174962 -0.0335295 0)
(-0.174347 -0.0399593 0)
(-0.173824 -0.0466083 0)
(-0.173424 -0.0535108 0)
(-0.173177 -0.0607041 0)
(-0.173118 -0.0682289 0)
(-0.173282 -0.0761284 0)
(-0.173701 -0.0844472 0)
(-0.174401 -0.0932282 0)
(-0.175394 -0.102509 0)
(-0.176675 -0.112313 0)
(-0.178207 -0.122641 0)