/*--------------------------------*- C++ -*----------------------------------*\
  =========                 |
  \\      /  F ield         | OpenFOAM: The Open Source CFD Toolbox
   \\    /   O peration     | Website:  https://openfoam.org
    \\  /    A nd           | Version:  13
     \\/     M anipulation  |
\*---------------------------------------------------------------------------*/
FoamFile
{
    format      ascii;
    class       volScalarField;
    location    "4.3";
    object      epsilon;
}
// * * * * * * * * * * * * * * * * * * * * * * * * * * * * * * * * * * * * * //

dimensions      [0 2 -3 0 0 0 0];

internalField   nonuniform List<scalar> 
6400
(
2.17406e-05
0.000111372
0.000267201
0.000431285
0.000559627
0.000637729
0.00067405
0.000688525
0.000703611
0.000739891
0.000814384
0.000942977
0.00113856
0.00140458
0.0017307
0.00210197
0.00250205
0.00292509
0.00335129
0.0037687
0.00418343
0.00462598
0.00513871
0.00575965
0.00648567
0.0072592
0.00802572
0.00879083
0.00956836
0.0103764
0.0112149
0.0120536
0.0128754
0.0136742
0.0144666
0.0152641
0.0160806
0.0169277
0.0178155
0.0187527
0.0197443
0.0207979
0.0219213
0.0231226
0.0244107
0.0258018
0.0273426
0.0291315
0.0313789
0.0336112
0.0359039
0.0381483
0.0403273
0.0423652
0.0441967
0.0457444
0.0468877
0.047448
0.0476576
0.0473381
0.0461876
0.0442899
0.0416574
0.038335
0.0344766
0.0301801
0.0257145
0.0212745
0.0170495
0.0131337
0.00993052
0.00727257
0.00510595
0.00343065
0.00221317
0.00137405
0.000822169
0.000465742
0.000217051
4.60482e-05
0.000105894
0.000103265
0.00016688
0.000242206
0.000301301
0.00034
0.000362512
0.000376654
0.000391973
0.000420055
0.000472289
0.000561666
0.000701266
0.00090063
0.00116383
0.00149336
0.00189196
0.00236576
0.00291927
0.00355991
0.00429772
0.00514894
0.00615858
0.00735705
0.00874486
0.0103181
0.0120324
0.0137432
0.0153622
0.0168044
0.0179706
0.018885
0.0195562
0.0200255
0.0203434
0.0205503
0.0206887
0.0207903
0.0208827
0.0209826
0.0211096
0.0212798
0.0214995
0.0217571
0.0220455
0.0223843
0.0228064
0.0232973
0.0238617
0.0244867
0.0251444
0.0258322
0.0265097
0.0271596
0.0277357
0.0281867
0.0284043
0.0284565
0.0282788
0.027821
0.026976
0.0257966
0.0242395
0.0223368
0.020159
0.0177933
0.0153483
0.01294
0.010664
0.00859051
0.0068308
0.00533739
0.0040646
0.00298749
0.00209943
0.00138999
0.000852344
0.000478264
0.000246813
0.000241949
0.000233717
0.000186912
0.000245958
0.000310094
0.000352021
0.000376645
0.000393518
0.000412859
0.000446171
0.000507987
0.000615697
0.000790352
0.00105274
0.0014191
0.00190086
0.00251074
0.00326028
0.00416231
0.00522559
0.00645593
0.00785706
0.00941817
0.0110816
0.0127449
0.0142663
0.0154762
0.0162578
0.0167391
0.017007
0.0171747
0.0172958
0.0173224
0.0171514
0.0169033
0.0166494
0.0164037
0.0161939
0.0160306
0.0159468
0.0159172
0.0159392
0.0160595
0.0162419
0.0165214
0.0169013
0.0173761
0.017925
0.0185466
0.019236
0.0199889
0.0207913
0.0216336
0.0224942
0.0233526
0.0241751
0.0249246
0.0255568
0.0259758
0.0261399
0.0261019
0.0256918
0.0248606
0.0236053
0.0219503
0.0199737
0.0177659
0.0154348
0.0130917
0.0108449
0.00878486
0.00698219
0.00545583
0.004194
0.00316553
0.00233334
0.00166483
0.00113013
0.000708257
0.000441026
0.000636111
0.00040798
0.000323306
0.000390979
0.000454437
0.000491547
0.000515115
0.000540079
0.000582142
0.000659569
0.000795572
0.00102039
0.00136612
0.00186086
0.00252432
0.00336871
0.00440078
0.00562411
0.00702644
0.00857048
0.0101888
0.0117819
0.0132283
0.0144105
0.0151774
0.0155403
0.0156731
0.0157032
0.0155202
0.0151318
0.0146481
0.0140963
0.013606
0.0132186
0.0129088
0.012656
0.0124743
0.0123809
0.0123466
0.0123619
0.0124727
0.0126431
0.0128915
0.0132066
0.013597
0.0140584
0.0145913
0.0151944
0.0158696
0.0166158
0.0174322
0.0183142
0.0192547
0.0202408
0.0212552
0.0222717
0.0232552
0.0241597
0.0249287
0.0254527
0.0256705
0.0256649
0.0251936
0.0243543
0.0230551
0.0212373
0.0190778
0.016678
0.0141784
0.0117252
0.00944668
0.00743821
0.00574928
0.00438281
0.00330548
0.00246833
0.00181895
0.00130707
0.000899555
0.00064691
0.00103605
0.000654656
0.00051405
0.00058244
0.00064666
0.000688583
0.00072555
0.000778106
0.000870123
0.00103122
0.0012985
0.00171388
0.00231569
0.00312945
0.00416386
0.00541194
0.00685027
0.00843195
0.0100745
0.0116556
0.013033
0.0140791
0.0146055
0.0148037
0.0148326
0.0145963
0.0140884
0.0133702
0.0126691
0.0120551
0.0115219
0.0110514
0.01068
0.0103888
0.0101692
0.0100161
0.00994058
0.00991344
0.00991907
0.0100018
0.0101298
0.0103099
0.0105408
0.0108227
0.0111582
0.0115488
0.0119982
0.0125101
0.0130893
0.0137402
0.0144669
0.0152728
0.0161592
0.0171234
0.0181582
0.0192504
0.0203792
0.0215106
0.0225936
0.0235691
0.0243658
0.0247888
0.0249135
0.0245943
0.0238368
0.0225303
0.0206171
0.0182713
0.0156615
0.0129742
0.0103937
0.00807683
0.0061245
0.00456806
0.00337882
0.00249304
0.00183484
0.00134303
0.000975662
0.000777682
0.0012987
0.00100489
0.000766585
0.000823951
0.000892982
0.000952061
0.00102034
0.00112563
0.00130311
0.00159627
0.00205479
0.00272587
0.003641
0.0048055
0.0061951
0.00775586
0.00940198
0.0110127
0.0124366
0.0135122
0.0140376
0.0142055
0.0141912
0.0138221
0.0131182
0.0122656
0.0114708
0.0107628
0.0101442
0.00962612
0.00919203
0.00883777
0.00855988
0.00834263
0.00818096
0.00806775
0.00800419
0.00797643
0.00797112
0.00801127
0.00808054
0.00818386
0.00831806
0.00848593
0.00868887
0.00893051
0.00921528
0.00954895
0.00993901
0.0103943
0.0109252
0.0115425
0.0122581
0.0130826
0.0140228
0.0150808
0.0162521
0.0175218
0.0188605
0.0202221
0.0215449
0.02273
0.023612
0.024007
0.0240521
0.0235057
0.0222923
0.0202639
0.0177053
0.0148355
0.0119029
0.00915645
0.00679116
0.0049071
0.00350415
0.0025067
0.00180744
0.00131804
0.000972991
0.000826901
0.0013867
0.00148958
0.00108671
0.0011252
0.00120758
0.00129927
0.00142016
0.00160782
0.00191041
0.00238339
0.00308086
0.00404043
0.0052674
0.00672542
0.00833521
0.00997776
0.0115019
0.0127451
0.0134503
0.013704
0.0137233
0.0133698
0.012615
0.0116675
0.0107824
0.00997171
0.00927473
0.00867916
0.0081784
0.00776272
0.00741834
0.00713698
0.00690853
0.0067236
0.00657693
0.00646261
0.00637678
0.0063145
0.00627962
0.00626543
0.00626332
0.00628699
0.00632921
0.00639434
0.00648164
0.0065955
0.0067386
0.00691591
0.00713366
0.00739964
0.00772368
0.00811947
0.00860258
0.00919314
0.00991376
0.0107826
0.0118225
0.0130497
0.0144661
0.0160415
0.0177312
0.0194738
0.0211582
0.0226286
0.0235313
0.023857
0.0237158
0.0225636
0.0203716
0.0175124
0.014273
0.0110057
0.0080469
0.00562945
0.00383318
0.00260258
0.00179873
0.00127013
0.000943025
0.000819706
0.00134568
0.00213774
0.00147869
0.00149691
0.00160487
0.00174701
0.00194367
0.00224369
0.00270635
0.00339115
0.00434192
0.00556778
0.00702857
0.0086306
0.0102329
0.0116633
0.0127054
0.0131843
0.0133064
0.013116
0.0124664
0.0114794
0.0104886
0.00957808
0.00878386
0.0081004
0.00752581
0.00704083
0.00663486
0.00629481
0.00600997
0.00577176
0.00557228
0.00540566
0.00526752
0.00515399
0.00506172
0.00498816
0.00493229
0.00489166
0.00487014
0.00486209
0.00486271
0.00488698
0.00492474
0.00498277
0.00506094
0.00516303
0.00529258
0.00545473
0.00565566
0.0059016
0.00620269
0.00657221
0.00702945
0.00760455
0.00833111
0.00925201
0.0104199
0.0118637
0.0135804
0.0155576
0.0177008
0.0199079
0.0219753
0.0235419
0.0242599
0.0244246
0.023333
0.0209017
0.0176144
0.0138857
0.0102092
0.00702349
0.00458336
0.00291453
0.00187691
0.00126017
0.000902499
0.00079037
0.00125716
0.00297113
0.00194579
0.00194718
0.00209845
0.00230739
0.00260095
0.00303684
0.0036787
0.00457718
0.00574872
0.00715719
0.00870592
0.0102438
0.0115861
0.0124617
0.0128161
0.0128763
0.0124948
0.0116029
0.0105428
0.00952974
0.00861802
0.0078327
0.00716726
0.00660647
0.00613579
0.00573906
0.00540568
0.00512483
0.00488865
0.0046904
0.00452464
0.0043871
0.00427398
0.00418217
0.00410941
0.00405365
0.00401325
0.00398855
0.00397745
0.00397466
0.00398519
0.00401072
0.00404801
0.0041003
0.00416767
0.0042525
0.00435658
0.00448261
0.00463386
0.00481449
0.00502998
0.00528718
0.00559536
0.00596686
0.00642059
0.00698513
0.00770513
0.00866072
0.00996282
0.0116749
0.0137958
0.0162851
0.018983
0.0216804
0.0239747
0.0251398
0.0255309
0.02448
0.0216875
0.0178333
0.013511
0.00939648
0.00602736
0.00363519
0.00214916
0.0013201
0.000893554
0.000753003
0.00117416
0.00400102
0.00249427
0.00248677
0.00269288
0.00298356
0.00338864
0.00396986
0.00478506
0.00586161
0.00717428
0.00863354
0.0100895
0.0113537
0.0121255
0.0124056
0.0124139
0.0118646
0.0108672
0.00979871
0.00876036
0.00785222
0.00707427
0.00642111
0.00587347
0.00541487
0.00503065
0.00470887
0.00444057
0.00421764
0.00403393
0.0038839
0.00376301
0.00366719
0.00359301
0.0035374
0.00349775
0.00347299
0.00346143
0.00345805
0.00346396
0.00348123
0.00350787
0.0035447
0.00359137
0.0036492
0.00371866
0.00380118
0.00389814
0.00401135
0.00414296
0.00429556
0.00447237
0.00467752
0.00491651
0.00519696
0.00552624
0.00591828
0.00639374
0.00698748
0.00775848
0.00880726
0.0103401
0.0124802
0.0151994
0.0183721
0.0217124
0.0247269
0.0263613
0.0269359
0.025828
0.0225196
0.0179498
0.0129688
0.00846221
0.00502
0.00277971
0.00153155
0.000933846
0.000738429
0.00113143
0.00524512
0.00313603
0.00311968
0.00338752
0.00376813
0.00428767
0.00500421
0.0059583
0.00714219
0.00848239
0.00984006
0.0110312
0.0117542
0.0120107
0.011955
0.0113399
0.0103024
0.00920244
0.00816249
0.00724477
0.00647355
0.00582741
0.00529087
0.00484446
0.00447432
0.0041685
0.00391777
0.00371429
0.00355116
0.00342245
0.00332276
0.00324738
0.00319213
0.00315343
0.00312889
0.00311705
0.00311303
0.00311504
0.00312698
0.00314535
0.00317155
0.00320496
0.0032465
0.0032967
0.00335671
0.00342755
0.00351067
0.00360755
0.00371983
0.00384924
0.00399754
0.00416659
0.00435835
0.00457501
0.00481934
0.00509544
0.00540995
0.00577419
0.00620635
0.00672924
0.00739183
0.00828557
0.00957174
0.0115805
0.0144519
0.0180465
0.022043
0.0258111
0.0278353
0.0285121
0.0271853
0.0231507
0.0177222
0.0120953
0.00733891
0.00399495
0.00202634
0.00107994
0.000761742
0.00115395
0.00676611
0.00389251
0.0038435
0.00417241
0.00464188
0.00526443
0.00608545
0.0071187
0.00831554
0.00955768
0.0106735
0.0113728
0.0116241
0.0115445
0.010903
0.00987893
0.00875635
0.00770216
0.00677853
0.00600213
0.00536124
0.00483155
0.00439668
0.00404043
0.00375137
0.00351926
0.00333567
0.0031928
0.00308369
0.00300214
0.00294266
0.00290057
0.00287193
0.00285426
0.00284577
0.00284282
0.00284313
0.0028507
0.00286331
0.00288116
0.0029051
0.00293559
0.00297378
0.00302071
0.00307775
0.00314629
0.00322796
0.00332445
0.00343757
0.00356916
0.00372104
0.00389496
0.00409242
0.00431461
0.00456231
0.00483599
0.00513639
0.00546568
0.00582993
0.00624342
0.00673387
0.00733717
0.00813478
0.00928593
0.0111011
0.0140435
0.0180279
0.0227062
0.0272174
0.0294623
0.0301406
0.0283135
0.0232841
0.0169082
0.0107772
0.00601603
0.00298272
0.00142764
0.000857804
0.00127336
0.00847181
0.00473471
0.00464245
0.00502806
0.00557566
0.00627547
0.00715264
0.00818911
0.00929745
0.0103277
0.011009
0.0112597
0.0111903
0.0105604
0.00957321
0.00844612
0.00737008
0.00643121
0.00564515
0.00500064
0.0044752
0.00404786
0.00370367
0.00342899
0.00321322
0.00304639
0.00291977
0.0028253
0.00275596
0.00270571
0.00266953
0.00264354
0.00262486
0.00261155
0.0026022
0.0025965
0.00259415
0.00259406
0.00259951
0.00260927
0.00262526
0.00264804
0.00267898
0.00271931
0.00277049
0.00283407
0.00291177
0.00300544
0.00311709
0.00324888
0.00340302
0.0035817
0.00378693
0.00402031
0.00428273
0.00457409
0.00489312
0.00523761
0.00560533
0.00599661
0.0064194
0.00689812
0.00747546
0.00821919
0.0092867
0.0109986
0.0139732
0.0183815
0.0238044
0.0288505
0.0311679
0.031688
0.028898
0.0225823
0.0153367
0.00898667
0.0045557
0.00210477
0.00109929
0.00158741
0.0103139
0.005644
0.00549645
0.0059282
0.00653398
0.00727361
0.00814759
0.00910678
0.0100346
0.0106899
0.0109364
0.0108972
0.0103175
0.00937459
0.00825776
0.0071584
0.0061926
0.00538779
0.00473235
0.00420398
0.00378013
0.00344316
0.00317907
0.00297514
0.00282048
0.0027049
0.00261949
0.00255647
0.00250945
0.00247333
0.00244434
0.00241992
0.00239846
0.00237916
0.00236176
0.00234653
0.00233391
0.00232552
0.00232196
0.00232149
0.00232863
0.00234334
0.00236677
0.00240004
0.00244462
0.00250195
0.00257376
0.00266193
0.00276864
0.00289629
0.00304753
0.00322519
0.00343214
0.00367102
0.00394396
0.00425202
0.00459469
0.00496933
0.00537101
0.00579325
0.00623046
0.00668371
0.00717201
0.00774568
0.00846669
0.0094982
0.0111964
0.0142451
0.0191288
0.0253987
0.0307676
0.0329028
0.0330334
0.0284818
0.0208259
0.0129422
0.00684653
0.00318517
0.00156149
0.00213968
0.0122322
0.00659731
0.00638086
0.00684211
0.0074784
0.00821285
0.00901995
0.00982446
0.0104334
0.0106729
0.0106718
0.0101702
0.00927987
0.0081815
0.00706162
0.00605795
0.00522184
0.00454575
0.00400622
0.00357904
0.00324396
0.00298492
0.00278796
0.00264037
0.00253097
0.00244979
0.00238855
0.00234057
0.00230083
0.0022658
0.00223326
0.00220208
0.00217184
0.00214273
0.00211526
0.0020902
0.00206843
0.00205092
0.00203915
0.00203388
0.00203298
0.00204114
0.00205864
0.00208582
0.00212418
0.00217494
0.00223972
0.00232035
0.00241901
0.00253825
0.00268103
0.0028507
0.00305094
0.00328557
0.00355828
0.00387212
0.00422879
0.00462776
0.00506529
0.00553386
0.00602254
0.00651949
0.00701819
0.00753198
0.00811669
0.00883697
0.00987107
0.0116286
0.0148838
0.0203123
0.0274873
0.0329473
0.0347598
0.0336443
0.0268548
0.0178406
0.00991586
0.00471718
0.00224625
0.00287787
0.0141652
0.00756917
0.00726843
0.00773761
0.00837173
0.00905333
0.00973241
0.0102823
0.0105176
0.0105213
0.0101137
0.00928483
0.00821321
0.00707602
0.00602707
0.00514453
0.004435
0.00387411
0.00343523
0.00309523
0.00283546
0.00264011
0.002495
0.00238755
0.00230701
0.00224447
0.00219309
0.00214792
0.00210571
0.0020646
0.00202385
0.00198344
0.00194385
0.00190583
0.00187027
0.00183808
0.00181015
0.0017873
0.00177026
0.00176113
0.00175781
0.00176047
0.00177413
0.00179655
0.00182954
0.00187401
0.00193142
0.00200345
0.00209219
0.00220015
0.00233039
0.00248654
0.00267279
0.00289388
0.00315491
0.00346092
0.0038163
0.00422376
0.00468307
0.00518953
0.00573281
0.00629698
0.00686306
0.00741659
0.0079661
0.00857411
0.00931029
0.0103915
0.0123006
0.0159781
0.0220994
0.0301693
0.0350555
0.0362358
0.0327622
0.0235627
0.0138342
0.00675143
0.00317077
0.00375194
0.0160431
0.00853162
0.00813166
0.00858373
0.00918164
0.00976545
0.0102487
0.0104679
0.0104644
0.0101439
0.00938501
0.00835011
0.00720131
0.00610239
0.00515879
0.00439911
0.0038041
0.00334334
0.00299043
0.00272352
0.0025245
0.00237752
0.00226864
0.00218609
0.0021204
0.00206445
0.00201333
0.00196402
0.00191497
0.00186576
0.00181668
0.00176846
0.00172201
0.00167828
0.00163816
0.00160247
0.00157188
0.00154696
0.00152821
0.00151748
0.00151325
0.00151319
0.00152424
0.00154321
0.00157173
0.00161055
0.00166089
0.00172426
0.00180255
0.00189812
0.00201391
0.00215354
0.00232137
0.00252261
0.00276324
0.00304987
0.00338925
0.00378748
0.00424869
0.00477314
0.00535511
0.00598091
0.00662847
0.00727033
0.00788353
0.00847372
0.00911144
0.0098818
0.0110575
0.0132479
0.0176489
0.0248466
0.033288
0.0369786
0.0370908
0.0297652
0.0186731
0.00939256
0.00436468
0.00470938
0.017868
0.00946128
0.00894391
0.00935315
0.0098834
0.0103226
0.0105267
0.0105251
0.0102571
0.00957608
0.00858923
0.00743851
0.00628923
0.00527172
0.00444294
0.00379693
0.00330194
0.00292653
0.00264526
0.00243705
0.00228403
0.00217074
0.00208422
0.00201428
0.0019534
0.00189656
0.00184085
0.00178496
0.00172872
0.00167265
0.00161766
0.00156477
0.00151496
0.00146908
0.00142784
0.0013918
0.00136138
0.00133688
0.00131858
0.0013078
0.0013033
0.00130284
0.00131196
0.00132845
0.00135331
0.0013872
0.00143116
0.00148649
0.00155484
0.00163834
0.00173966
0.0018622
0.00201016
0.00218877
0.00240433
0.00266428
0.002977
0.00335131
0.00379542
0.00431518
0.00491151
0.00557726
0.00629424
0.00703234
0.00775341
0.00842562
0.00905808
0.00972392
0.0105492
0.0118902
0.014557
0.0199547
0.0286529
0.0365384
0.0389306
0.0357418
0.0244115
0.0127687
0.00586809
0.00570951
0.0195664
0.0103361
0.00968339
0.0100248
0.0104597
0.0106858
0.0107039
0.0104408
0.00985339
0.00892714
0.00778795
0.00659416
0.00549411
0.00457675
0.00385885
0.00331337
0.00290385
0.0025996
0.00237602
0.00221256
0.00209193
0.00199977
0.00192484
0.00185903
0.00179704
0.00173588
0.00167436
0.00161248
0.00155093
0.00149076
0.00143304
0.00137876
0.00132873
0.00128357
0.00124372
0.00120944
0.0011809
0.0011582
0.00114139
0.00113154
0.00112745
0.00112704
0.00113499
0.00114955
0.00117137
0.00120106
0.00123947
0.0012877
0.00134718
0.00141975
0.00150778
0.00161431
0.00174318
0.00189929
0.00208879
0.00231925
0.00259977
0.00294084
0.00335371
0.00384914
0.00443503
0.00511286
0.00587327
0.00669164
0.00752643
0.00832487
0.0090449
0.00970351
0.0104086
0.0113203
0.012958
0.0164441
0.0231836
0.0335462
0.0392885
0.0398788
0.030763
0.0170167
0.0077072
0.00674826
0.0210782
0.0111348
0.0103341
0.0105877
0.0108673
0.0109311
0.0107148
0.0102194
0.00935783
0.00824796
0.00702254
0.00583876
0.00481578
0.00400203
0.00338486
0.00292603
0.00258816
0.00234166
0.00216266
0.0020314
0.00193176
0.00185114
0.00178049
0.00171394
0.00164828
0.00158225
0.00151594
0.00145015
0.00138599
0.00132462
0.00126702
0.00121395
0.00116595
0.00112334
0.00108629
0.00105484
0.00102895
0.00100858
0.00099364
0.000985036
0.000981558
0.00098131
0.000988451
0.0010014
0.00102067
0.00104678
0.00108043
0.00112256
0.0011744
0.00123752
0.00131397
0.00140638
0.00151816
0.0016537
0.00181866
0.00202024
0.0022675
0.00257149
0.00294519
0.00340281
0.00395805
0.00462106
0.00539352
0.0062625
0.00719427
0.008132
0.0090045
0.00975961
0.010409
0.0111594
0.0122364
0.0143949
0.0192654
0.0281159
0.0382355
0.0416086
0.0370943
0.0222295
0.00994132
0.00782211
0.0223566
0.011839
0.0108802
0.0110209
0.0111575
0.0110627
0.0106368
0.00987407
0.00881201
0.00757612
0.00631735
0.00517866
0.00424486
0.00352968
0.00300097
0.00261543
0.00233639
0.00213533
0.00198931
0.00187981
0.00179247
0.00171686
0.00164625
0.00157688
0.00150731
0.00143754
0.00136843
0.00130117
0.00123695
0.00117675
0.00112132
0.00107113
0.00102641
0.000987242
0.000953562
0.000925246
0.000902141
0.000884096
0.000870964
0.000863539
0.000860622
0.000860526
0.00086697
0.000878518
0.000895585
0.000918616
0.000948219
0.000985192
0.00103057
0.00108571
0.00115235
0.00123274
0.00132984
0.00144749
0.0015907
0.00176602
0.00198194
0.00224926
0.00258145
0.00299451
0.00350613
0.00413348
0.00488884
0.00577298
0.00676646
0.00782155
0.00885987
0.00978693
0.010569
0.0111796
0.0120067
0.0133813
0.0164729
0.0232757
0.0348704
0.0419407
0.0421908
0.0283963
0.0126838
0.00897389
0.0233815
0.0124383
0.0113151
0.0113254
0.0113393
0.0110581
0.0104462
0.00946597
0.00824908
0.00693678
0.00568395
0.00461084
0.00376811
0.00314238
0.00268967
0.00236513
0.00213333
0.0019669
0.00184419
0.00174842
0.00166734
0.00159286
0.0015204
0.00144802
0.00137556
0.00130383
0.00123407
0.00116749
0.00110512
0.0010477
0.000995645
0.000949145
0.000908196
0.000872666
0.000842356
0.000817037
0.000796485
0.000780506
0.000768927
0.000762445
0.000759948
0.000759941
0.000765694
0.000775973
0.000791112
0.0008115
0.000837659
0.000870275
0.000910238
0.000958696
0.00101714
0.00108749
0.00117227
0.00127479
0.00139941
0.0015519
0.00173992
0.0019735
0.00226568
0.00263286
0.00309482
0.00367351
0.00438998
0.00525834
0.00627639
0.00741377
0.00860142
0.00973218
0.0106891
0.0114273
0.0119956
0.0129891
0.014965
0.0198005
0.0295217
0.0412383
0.0447339
0.0353362
0.0161858
0.0104153
0.0241438
0.0129393
0.0116341
0.0115213
0.0114097
0.0109854
0.010166
0.00902147
0.00769351
0.00634502
0.00512514
0.00412732
0.00337155
0.00282468
0.00243625
0.00216165
0.00196692
0.00182608
0.00171912
0.00163133
0.00155275
0.00147751
0.00140288
0.00132831
0.00125448
0.00118261
0.00111397
0.00104964
0.000990361
0.000936562
0.000888391
0.000845793
0.000808582
0.000776499
0.000749258
0.000726578
0.000708211
0.000693946
0.000683612
0.000677805
0.000675572
0.000675585
0.000680633
0.00068975
0.000703189
0.000721289
0.000744508
0.000773441
0.000808855
0.000851737
0.000903361
0.000965373
0.00103992
0.00112984
0.00123888
0.00137205
0.00153607
0.00173999
0.00199583
0.00231943
0.002731
0.00325497
0.00391839
0.00474636
0.00575342
0.00693022
0.0082276
0.00954387
0.0107318
0.0116962
0.0123148
0.0129107
0.0142559
0.0174047
0.0249354
0.0383797
0.045658
0.0422384
0.020673
0.0123343
0.0246551
0.0133393
0.0118486
0.0116154
0.0113842
0.0108179
0.00983609
0.00856304
0.00716215
0.00580829
0.00463828
0.00371808
0.00304202
0.00256335
0.00222858
0.00199427
0.00182804
0.00170554
0.00160875
0.00152516
0.00144705
0.0013705
0.00129425
0.0012187
0.001145
0.00107445
0.00100821
0.000947082
0.000891505
0.000841628
0.000797369
0.000758503
0.000724724
0.000695701
0.000671109
0.000650652
0.000634077
0.000621181
0.000611807
0.000606444
0.000604349
0.000604312
0.000608656
0.000616708
0.000628639
0.000644751
0.000665448
0.000691251
0.000722831
0.000761044
0.000806986
0.000862073
0.000928147
0.00100763
0.00110373
0.00122076
0.00136457
0.00154309
0.00176716
0.00205144
0.00241542
0.00288421
0.0034882
0.00426048
0.00523001
0.00640893
0.00777381
0.00924453
0.0106735
0.0118711
0.0126879
0.013179
0.0140322
0.0160926
0.0216993
0.033533
0.0457368
0.0476716
0.0264142
0.0147331
0.0249232
0.0136412
0.0119666
0.0116107
0.0112919
0.0105798
0.00947476
0.00810763
0.0066656
0.00532873
0.00421775
0.00337285
0.00276794
0.00234743
0.00205698
0.00185471
0.00170997
0.00160029
0.00150977
0.00142812
0.00134964
0.001272
0.00119504
0.00111971
0.00104735
0.000979185
0.000916099
0.00085861
0.000806889
0.000760855
0.000720258
0.000684762
0.000653994
0.00062759
0.000605217
0.000586584
0.00057145
0.000559628
0.000550977
0.000545879
0.000543818
0.000543693
0.000547356
0.000554431
0.000565024
0.000579401
0.000597922
0.000621049
0.000649376
0.000683651
0.000724832
0.000774145
0.000833176
0.000904007
0.000989393
0.00109304
0.00121998
0.00137713
0.00157404
0.00182393
0.00214491
0.00256138
0.0031048
0.00381299
0.00472572
0.00587408
0.00726172
0.00883846
0.0104728
0.0119445
0.0130644
0.0136139
0.0140632
0.0154782
0.0192415
0.0289148
0.0443783
0.0504088
0.0338917
0.0175163
0.0249194
0.0138444
0.0120019
0.011554
0.0111141
0.0102973
0.00909808
0.00766742
0.00620973
0.00490503
0.00385664
0.00308197
0.00253942
0.00216801
0.00191381
0.00173672
0.00160796
0.00150705
0.00142026
0.00133936
0.00126038
0.00118223
0.00110548
0.00103138
0.000961233
0.00089605
0.000836452
0.00078268
0.000734681
0.000692202
0.000654886
0.000622329
0.000594132
0.000569926
0.000549383
0.000532231
0.000518248
0.000507265
0.000499156
0.000494197
0.000492102
0.00049186
0.000494885
0.000501071
0.000510475
0.00052333
0.000539961
0.000560784
0.000586326
0.000617255
0.000654412
0.000698874
0.000752021
0.000815654
0.00089215
0.000984697
0.00109763
0.00123694
0.00141096
0.0016314
0.0019147
0.0022837
0.00276933
0.00341146
0.00425702
0.00535241
0.00672687
0.00836501
0.0101723
0.0119471
0.0133895
0.0141541
0.0145343
0.0152974
0.0178207
0.0252326
0.0409882
0.0514403
0.0423132
0.0205924
0.0247927
0.0139763
0.0119786
0.0114231
0.0108853
0.00998492
0.00871848
0.0072506
0.0057969
0.00453386
0.00354777
0.0028369
0.00234827
0.00201799
0.00179321
0.00163572
0.0015187
0.00142371
0.00133909
0.00125844
0.00117922
0.00110124
0.0010255
0.000953337
0.000885906
0.000823974
0.000767897
0.000717684
0.000673108
0.000633805
0.000599348
0.000569306
0.000543274
0.000520893
0.000501855
0.000485905
0.000472844
0.00046252
0.000454821
0.00044992
0.000447746
0.000447374
0.000449815
0.000455196
0.000463543
0.000475059
0.000490039
0.00050886
0.000531999
0.000560055
0.000593781
0.000634131
0.000682321
0.000739924
0.000809009
0.000892331
0.000993637
0.0011181
0.00127296
0.0014685
0.00171937
0.00204645
0.00247903
0.00305691
0.00383073
0.00485777
0.00618851
0.00784006
0.00975696
0.0117687
0.0135723
0.0146444
0.0150846
0.0154478
0.0171361
0.0226134
0.036657
0.0514946
0.0502379
0.02344
0.0245037
0.0140587
0.0119079
0.0112344
0.0106178
0.00965488
0.00834531
0.00686216
0.00542707
0.00421085
0.00328429
0.00263027
0.00218781
0.00189173
0.00169068
0.00154837
0.00143992
0.00134892
0.00126559
0.00118512
0.00110605
0.00102883
0.000954693
0.000884904
0.000820419
0.000761755
0.000709037
0.000662095
0.000620577
0.000584046
0.000552043
0.00052413
0.000499911
0.000479046
0.000461247
0.000446282
0.000433968
0.000424168
0.000416786
0.000411897
0.00040962
0.000409112
0.000411029
0.000415687
0.000423093
0.000433426
0.000446955
0.000464024
0.00048507
0.000510637
0.000541407
0.000578236
0.000622209
0.00067472
0.000737581
0.000813198
0.000904823
0.00101694
0.00115582
0.00133046
0.00155378
0.00184455
0.00222985
0.00274797
0.00345066
0.00440216
0.00567019
0.00730259
0.00928633
0.0114939
0.0136385
0.0151658
0.0157603
0.0159853
0.0168975
0.0206165
0.0321731
0.0509264
0.055909
0.0254398
0.0240568
0.0140778
0.0117788
0.0110071
0.0103239
0.00931716
0.00798534
0.00650477
0.00509871
0.00393126
0.00305997
0.00245587
0.00205262
0.00178485
0.00160284
0.00147224
0.00137006
0.00128178
0.00119931
0.00111913
0.00104062
0.000964639
0.000892469
0.000825256
0.000763733
0.000708191
0.000658564
0.000614547
0.000575708
0.000541567
0.000511654
0.000485536
0.000462837
0.000443235
0.000426466
0.000412314
0.000400615
0.000391244
0.000384116
0.00037922
0.000376828
0.000376184
0.000377637
0.00038165
0.000388218
0.000397504
0.00040975
0.000425276
0.000444484
0.000467874
0.000496071
0.000529855
0.000570205
0.000618371
0.000675963
0.0007451
0.000828627
0.000930444
0.00105602
0.00121317
0.00141325
0.00167295
0.00201688
0.00248088
0.00311573
0.00398892
0.00518019
0.0067631
0.00876587
0.0111136
0.0135751
0.0155891
0.0164343
0.0166448
0.016954
0.0195549
0.0285457
0.0486088
0.0586834
0.0262584
0.0234751
0.0140624
0.011618
0.0107527
0.0100138
0.00897967
0.0076432
0.0061793
0.00480932
0.0036904
0.00286936
0.00230856
0.00193837
0.0016939
0.00152714
0.00140556
0.001308
0.00122165
0.00113987
0.00106018
0.000982572
0.000908129
0.000838116
0.000773507
0.000714823
0.000662161
0.000615309
0.000573865
0.000537344
0.000505248
0.000477108
0.000452508
0.000431087
0.000412547
0.000396641
0.000383172
0.000371987
0.000362972
0.000356049
0.000351172
0.000348648
0.000347869
0.000348919
0.000352358
0.000358183
0.000366537
0.000377646
0.000391805
0.000409387
0.000430858
0.000456795
0.000487916
0.000525121
0.000569543
0.000622631
0.000686274
0.000762985
0.000856183
0.000970643
0.00111318
0.00129375
0.0015271
0.00183532
0.0022514
0.00282381
0.00362058
0.00472921
0.00624402
0.00823037
0.0106598
0.0133308
0.0158391
0.0171467
0.0174621
0.0175245
0.019063
0.0262805
0.045022
0.0596346
0.0263904
0.0227853
0.0140191
0.0114357
0.0104813
0.0096964
0.00864851
0.00732175
0.00588541
0.00455602
0.00348386
0.00270772
0.0021841
0.00184159
0.00161622
0.00146164
0.00134704
0.00125293
0.00116803
0.0010869
0.00100789
0.000931428
0.000858697
0.000790883
0.000728783
0.000672731
0.000622665
0.000578261
0.000539052
0.000504525
0.000474174
0.000447541
0.000424226
0.000403888
0.000386248
0.000371075
0.000358187
0.00034744
0.000338729
0.000331978
0.000327142
0.000324483
0.000323576
0.000324279
0.000327211
0.000332375
0.000339903
0.00035
0.000362942
0.000379078
0.000398844
0.000422779
0.000451554
0.000486001
0.000527162
0.000576362
0.000635304
0.000706233
0.000792177
0.000897328
0.00102766
0.00119188
0.00140298
0.00168065
0.00205485
0.00257086
0.00329512
0.00431886
0.00575214
0.00769543
0.0101766
0.0130552
0.0159262
0.0177972
0.0182985
0.0182048
0.0189045
0.0242517
0.0415518
0.0596369
0.0260257
0.0220202
0.0139487
0.01124
0.0102015
0.00937864
0.00832819
0.00702261
0.00562202
0.00433561
0.00330762
0.00257107
0.00207903
0.00175951
0.00154971
0.00140484
0.00129567
0.00120419
0.00112045
0.00104001
0.00096185
0.000886675
0.000815713
0.000750035
0.000690274
0.000636601
0.000588833
0.000546564
0.000509284
0.000476463
0.0004476
0.00042225
0.000400029
0.000380616
0.000363746
0.000349203
0.000336816
0.000326451
0.000318005
0.000311407
0.000306614
0.000303834
0.000302806
0.000303214
0.000305703
0.000310282
0.000317074
0.00032627
0.000338127
0.000352972
0.000371216
0.000393367
0.000420055
0.000452061
0.000490357
0.000536166
0.000591047
0.000657031
0.000736826
0.000834147
0.000954248
0.00110478
0.00129718
0.00154889
0.0018869
0.00235292
0.00301033
0.00395084
0.00529446
0.00716916
0.00965324
0.0126784
0.0159278
0.0183884
0.0192154
0.0191023
0.0190934
0.0229454
0.0381651
0.0579191
0.0253928
0.0212011
0.0138653
0.0110383
0.00992042
0.0090662
0.00802199
0.00674639
0.00538743
0.00414498
0.00315809
0.00245609
0.00199052
0.00168992
0.00149272
0.00135559
0.00125067
0.00116126
0.00107852
0.000998812
0.000921605
0.000847782
0.000778557
0.000714883
0.000657246
0.000605687
0.000559927
0.000519502
0.000483875
0.000452512
0.000424919
0.000400664
0.00037938
0.00036076
0.000344555
0.00033056
0.000318612
0.000308582
0.000300373
0.000293915
0.000289164
0.000286276
0.000285135
0.0002853
0.000287401
0.000291465
0.000297604
0.000305996
0.000316883
0.000330573
0.000347453
0.000368005
0.000392828
0.000422658
0.000458413
0.000501236
0.000552576
0.000614292
0.000688837
0.000779536
0.000891045
0.00103011
0.0012068
0.00143656
0.00174352
0.00216573
0.00276262
0.00362407
0.00487581
0.00666793
0.00912397
0.0122364
0.0157436
0.0188562
0.0201088
0.0200855
0.0197054
0.0221119
0.0351586
0.0555937
0.0245519
0.0203428
0.0137845
0.0108395
0.00964429
0.00876359
0.00773216
0.00649302
0.00517966
0.00398127
0.00303216
0.00235993
0.00191629
0.00163105
0.00144396
0.00131296
0.00121139
0.00112365
0.00104182
0.0009629
0.000886704
0.000814229
0.000746649
0.000684806
0.00062906
0.000579349
0.000535323
0.000496479
0.000462264
0.000432144
0.000405635
0.000382317
0.000361837
0.000343903
0.000328275
0.000314759
0.000303197
0.000293466
0.000285471
0.000279143
0.000274436
0.000271452
0.000270196
0.000270169
0.000271934
0.000275543
0.000281103
0.00028878
0.000298801
0.000311455
0.000327111
0.000346228
0.000369373
0.000397253
0.000430737
0.000470911
0.000519133
0.000577132
0.000647159
0.000732222
0.000836486
0.000965927
0.00112944
0.00134069
0.00162119
0.00200535
0.0025482
0.003336
0.00449622