/*--------------------------------*- C++ -*----------------------------------*\
  =========                 |
  \\      /  F ield         | OpenFOAM: The Open Source CFD Toolbox
   \\    /   O peration     | Website:  https://openfoam.org
    \\  /    A nd           | Version:  13
     \\/     M anipulation  |
\*---------------------------------------------------------------------------*/
FoamFile
{
    format      ascii;
    class       volScalarField;
    location    "4.3";
    object      p;
}
// * * * * * * * * * * * * * * * * * * * * * * * * * * * * * * * * * * * * * //

dimensions      [0 2 -2 0 0 0 0];

internalField   nonuniform List<scalar> 
6400
(
-1.57515e-08
1.65837e-05
2.3105e-05
8.92502e-06
-3.03889e-05
-9.08304e-05
-0.000164508
-0.000243869
-0.000323387
-0.00040057
-0.000475654
-0.000551616
-0.000632576
-0.000722741
-0.00082639
-0.000947112
-0.00108769
-0.00124974
-0.00143479
-0.00164383
-0.00187729
-0.00213585
-0.0024216
-0.00273801
-0.00309024
-0.00348294
-0.00391419
-0.00437711
-0.00485836
-0.00533077
-0.00578044
-0.00620836
-0.00661358
-0.00699257
-0.00734097
-0.00765255
-0.00791902
-0.00813044
-0.00827583
-0.00834402
-0.00832391
-0.00820501
-0.00797836
-0.00763769
-0.00718023
-0.00660465
-0.00590307
-0.00506725
-0.00411571
-0.00306373
-0.00191736
-0.000695946
0.000580348
0.00188386
0.00318375
0.00444205
0.00561571
0.00666249
0.00754286
0.00821991
0.00866618
0.00886724
0.00882453
0.00855524
0.00808511
0.00747558
0.00677938
0.00605863
0.00537229
0.00476149
0.00426081
0.00389411
0.00364642
0.00349127
0.00341348
0.00338943
0.00339922
0.00342669
0.00346068
0.00348648
-1.27066e-05
4.21952e-06
7.17955e-06
-1.09871e-05
-5.25839e-05
-0.00011299
-0.000183574
-0.000257177
-0.000329471
-0.000399224
-0.0004675
-0.000537414
-0.000613158
-0.000698541
-0.000796873
-0.0009113
-0.00104494
-0.00120031
-0.00137816
-0.00157916
-0.00180287
-0.00204903
-0.0023197
-0.00261749
-0.00294472
-0.00330606
-0.00370844
-0.00415302
-0.00463171
-0.00512741
-0.00561605
-0.0060823
-0.00652317
-0.00693614
-0.00731628
-0.00765697
-0.00794979
-0.00818505
-0.00835223
-0.00844081
-0.00844075
-0.00834253
-0.00813816
-0.00782155
-0.00738834
-0.00683481
-0.00615781
-0.00536278
-0.00445708
-0.00344261
-0.00233581
-0.0011532
8.34105e-05
0.00134772
0.00260819
0.00382864
0.0049707
0.0059944
0.00686067
0.00753574
0.0079924
0.00821591
0.00820663
0.00798074
0.0075682
0.00701595
0.00638085
0.0057205
0.00508995
0.00453588
0.00408814
0.00375931
0.00354734
0.00343231
0.003392
0.00340365
0.00343603
0.00346943
0.00349947
0.00352413
-2.53266e-05
-6.56321e-06
-8.03181e-06
-3.34723e-05
-8.15396e-05
-0.000144232
-0.00021207
-0.000278036
-0.000339351
-0.000397243
-0.000454264
-0.000514217
-0.000581327
-0.00065884
-0.000749023
-0.000853691
-0.000974408
-0.0011133
-0.00127247
-0.00145425
-0.00166153
-0.00189718
-0.00216448
-0.00246764
-0.0028105
-0.00319524
-0.00362281
-0.00409118
-0.0045931
-0.00511551
-0.00564129
-0.00615457
-0.00664413
-0.00710237
-0.00752296
-0.00789867
-0.0082212
-0.0084817
-0.00867097
-0.00877951
-0.00879832
-0.00871942
-0.00853579
-0.00824186
-0.00783375
-0.00730922
-0.00666632
-0.00590421
-0.0050337
-0.00406017
-0.00299525
-0.00185446
-0.000658138
0.000568748
0.00179677
0.00299234
0.00411898
0.00513692
0.00600832
0.00670004
0.00718558
0.00744873
0.00748813
0.00731861
0.00696905
0.00648343
0.00591422
0.00531675
0.00474587
0.00424372
0.00383751
0.00355275
0.00338549
0.0033156
0.00331199
0.00335273
0.00341037
0.00346296
0.00350732
0.00354244
-3.08015e-05
-1.24801e-05
-2.00433e-05
-5.46383e-05
-0.000111211
-0.000176962
-0.000242213
-0.000301239
-0.000352527
-0.000397222
-0.000440182
-0.000486657
-0.000541181
-0.000607028
-0.000686041
-0.000779246
-0.000888004
-0.00101473
-0.00116276
-0.0013367
-0.00154221
-0.00178554
-0.00207368
-0.00240972
-0.00279567
-0.00323302
-0.00371958
-0.00424804
-0.00480626
-0.00537966
-0.00595342
-0.00651358
-0.0070476
-0.00754583
-0.00800062
-0.00840417
-0.00874893
-0.00902711
-0.00923033
-0.00935046
-0.00937988
-0.0093119
-0.00914043
-0.00886032
-0.00846818
-0.00796275
-0.00734263
-0.00660913
-0.00576755
-0.00482394
-0.00378813
-0.00267441
-0.00150199
-0.000294078
0.000922418
0.00211631
0.00325172
0.00428959
0.00519245
0.00592547
0.00646118
0.00678087
0.00687954
0.00676992
0.00647981
0.00604958
0.00552981
0.00497616
0.00444186
0.00397191
0.00359512
0.00333123
0.00318075
0.00313159
0.00316243
0.00323508
0.0033209
0.00340102
0.00346755
0.00351387
-2.32283e-05
-1.04232e-05
-2.63913e-05
-7.06433e-05
-0.000135535
-0.000204222
-0.000266918
-0.000318961
-0.000360134
-0.000393317
-0.000424105
-0.000458482
-0.000501345
-0.000555978
-0.000624528
-0.000708919
-0.000811998
-0.000938371
-0.00109392
-0.00128564
-0.00152223
-0.00180857
-0.0021491
-0.00254788
-0.00300559
-0.00351865
-0.00407877
-0.00467448
-0.0052913
-0.00591428
-0.00652936
-0.00712451
-0.00768937
-0.00821445
-0.00869137
-0.00911251
-0.00947103
-0.0097596
-0.00997032
-0.0100966
-0.0101325
-0.0100725
-0.00991146
-0.00964455
-0.0092682
-0.00878316
-0.00818731
-0.00748159
-0.0066694
-0.00575526
-0.00474727
-0.00365866
-0.00250737
-0.00131453
-0.000103242
0.00109834
0.00225442
0.00332577
0.00427695
0.00507223
0.0056811
0.00608262
0.00626581
0.00623711
0.0060217
0.00565949
0.00519816
0.00469035
0.0041908
0.00374633
0.00338714
0.00313645
0.00299514
0.0029535
0.00299179
0.00307997
0.00318647
0.00328971
0.00337551
0.00342936
4.8096e-06
6.67397e-06
-1.97648e-05
-7.56185e-05
-0.000147966
-0.000218183
-0.000278001
-0.000324035
-0.000356764
-0.000380886
-0.000402826
-0.000428976
-0.00046445
-0.000513089
-0.000578283
-0.000664061
-0.000776222
-0.000921943
-0.0011103
-0.00134903
-0.00164407
-0.00200175
-0.002425
-0.00291218
-0.00345662
-0.00404886
-0.00467742
-0.00533064
-0.00599553
-0.0066585
-0.00730676
-0.00792897
-0.00851573
-0.00905857
-0.00954961
-0.0099816
-0.0103482
-0.0106426
-0.0108574
-0.0109878
-0.01103
-0.0109795
-0.0108318
-0.0105833
-0.0102312
-0.00977397
-0.00921024
-0.00854077
-0.00776787
-0.00689461
-0.00592735
-0.00487571
-0.00375519
-0.00258383
-0.00138044
-0.000171794
0.00100556
0.00211522
0.00312589
0.00399983
0.00470267
0.00521225
0.0055112
0.00559964
0.00549279
0.00522845
0.0048528
0.00441545
0.00396869
0.00356064
0.0032266
0.00298888
0.00285318
0.00281216
0.0028481
0.00293529
0.00304551
0.00315479
0.00324705
0.00330264
6.20121e-05
4.94598e-05
9.52068e-06
-6.08738e-05
-0.000138336
-0.000209333
-0.000266714
-0.000308271
-0.000336181
-0.000356051
-0.000374881
-0.000399402
-0.000435371
-0.000488052
-0.000563067
-0.000667302
-0.000809625
-0.00100035
-0.0012471
-0.00155801
-0.00193868
-0.00239183
-0.00291183
-0.0034891
-0.00411456
-0.00477813
-0.00546759
-0.00617087
-0.00687595
-0.00757095
-0.00824462
-0.00888685
-0.00948909
-0.0100436
-0.0105427
-0.010979
-0.0113472
-0.0116417
-0.0118588
-0.011996
-0.0120485
-0.0120116
-0.0118816
-0.0116562
-0.0113336
-0.0109103
-0.0103853
-0.00975948
-0.00903365
-0.00821197
-0.00730106
-0.00630787
-0.00524038
-0.00411011
-0.00293654
-0.00174385
-0.000557485
0.000592354
0.00167071
0.00263374
0.00344939
0.00409259
0.00453808
0.00478161
0.00482768
0.0047036
0.00445139
0.00411811
0.00375338
0.00340474
0.00311009
0.00289399
0.00276601
0.00272234
0.00274956
0.0028247
0.00292392
0.00302363
0.00310763
0.00315665
0.00015689
0.000126826
6.88238e-05
-1.41993e-05
-9.67576e-05
-0.000169187
-0.000225749
-0.00026623
-0.000294334
-0.000316554
-0.000340372
-0.000373036
-0.000421534
-0.000493322
-0.000596514
-0.000741173
-0.000938669
-0.00119852
-0.0015288
-0.00193621
-0.00241908
-0.00297084
-0.00358297
-0.00424475
-0.00494489
-0.00567171
-0.00641336
-0.00715858
-0.0078963
-0.00861602
-0.00930799
-0.00996336
-0.010574
-0.0111321
-0.0116307
-0.0120655
-0.0124329
-0.0127291
-0.012953
-0.0131
-0.0131638
-0.0131411
-0.0130291
-0.0128257
-0.0125298
-0.01214
-0.0116557
-0.0110772
-0.0104059
-0.00964578
-0.00880158
-0.0078786
-0.00687976
-0.00581222
-0.00469241
-0.00353917
-0.00237186
-0.00121068
-9.26172e-05
0.000952962
0.00189569
0.0026884
0.00330689
0.00373951
0.00398028
0.00404169
0.00395694
0.00376755
0.00351929
0.00325818
0.00302387
0.00284363
0.00273094
0.00268629
0.00270023
0.00275575
0.00283414
0.00291324
0.00297552
0.0030095
0.000293689
0.000245761
0.000166584
7.12364e-05
-1.73374e-05
-9.23283e-05
-0.000151069
-0.000195264
-0.0002302
-0.000263289
-0.000302581
-0.000356224
-0.000433003
-0.000542546
-0.000695898
-0.000904812
-0.00118121
-0.00153412
-0.00196774
-0.00248002
-0.00306481
-0.00371239
-0.00441135
-0.00514917
-0.00591414
-0.00669453
-0.00747931
-0.00825801
-0.00902057
-0.00975764
-0.0104606
-0.0111214
-0.0117321
-0.012287
-0.0127832
-0.0132194
-0.0135903
-0.013891
-0.0141174
-0.0142658
-0.0143343
-0.0143211
-0.0142246
-0.0140435
-0.0137768
-0.0134231
-0.0129829
-0.0124561
-0.0118433
-0.0111465
-0.0103678
-0.00951035
-0.00857964
-0.00758419
-0.00653471
-0.00544417
-0.00432411
-0.00318625
-0.00205567
-0.000956788
7.47635e-05
0.00100541
0.00181226
0.00245367
0.00291968
0.00320749
0.00333426
0.00333055
0.00323696
0.00309512
0.002945
0.00281816
0.00273219
0.00269248
0.00269398
0.00272632
0.00277538
0.00282598
0.0028587
0.00287432
0.000478042
0.000410242
0.000307216
0.000198625
0.000101957
2.19808e-05
-4.29186e-05
-9.68903e-05
-0.000146843
-0.000201122
-0.000268532
-0.000358455
-0.000481593
-0.000649962
-0.000875784
-0.00117159
-0.00154806
-0.00200873
-0.00255102
-0.0031691
-0.00385271
-0.00458878
-0.005365
-0.00616877
-0.00698859
-0.00781314
-0.00863217
-0.00943594
-0.0102154
-0.0109622
-0.0116688
-0.0123286
-0.0129366
-0.0134889
-0.0139816
-0.0144102
-0.0147711
-0.0150628
-0.0152831
-0.0154294
-0.0155006
-0.0154954
-0.015413
-0.0152527
-0.0150139
-0.0146957
-0.0142983
-0.0138223
-0.0132681
-0.012637
-0.01193
-0.0111489
-0.0102971
-0.00937948
-0.00840194
-0.00737117
-0.00629698
-0.00519904
-0.00409163
-0.00298697
-0.00190411
-0.000868302
8.7697e-05
0.000931407
0.00163334
0.00217195
0.00254836
0.00277261
0.00287304
0.00288588
0.0028473
0.00279262
0.00274629
0.00271949
0.00271304
0.00272192
0.00273966
0.00275537
0.00275735
0.0027555
0.000711556
0.000618983
0.000491249
0.00036498
0.000258823
0.000170034
9.37344e-05
2.26703e-05
-5.18552e-05
-0.000139181
-0.000248956
-0.000392082
-0.000581045
-0.000828831
-0.00114768
-0.00154852
-0.00203647
-0.00260974
-0.00326142
-0.00398074
-0.00475465
-0.00556968
-0.00641312
-0.00727275
-0.00813737
-0.00899635
-0.00984009
-0.0106597
-0.0114472
-0.0121955
-0.0128983
-0.0135503
-0.0141477
-0.0146871
-0.0151654
-0.0155794
-0.0159272
-0.0162077
-0.0164198
-0.0165621
-0.0166338
-0.0166342
-0.016563
-0.0164201
-0.0162051
-0.015918
-0.015559
-0.0151286
-0.0146277
-0.0140569
-0.0134173
-0.0127102
-0.0119374
-0.0111016
-0.0102055
-0.00925231
-0.00824693
-0.00719818
-0.00611595
-0.00501643
-0.00391962
-0.00283412
-0.00177633
-0.000774162
0.000135583
0.000926406
0.00156913
0.0020555
0.00238984
0.00259542
0.00270168
0.00274181
0.00274894
0.00274342
0.00273435
0.00272291
0.00270993
0.00269055
0.00266457
0.00264739
0.000984003
0.000866652
0.000708687
0.000562175
0.00044355
0.000342641
0.000249019
0.000152576
4.29264e-05
-9.017e-05
-0.000257431
-0.000470933
-0.000744024
-0.00108915
-0.00151665
-0.00203266
-0.00263684
-0.00332212
-0.0040773
-0.00488927
-0.00574373
-0.00662734
-0.0075274
-0.00843216
-0.00933085
-0.0102136
-0.0110716
-0.011897
-0.0126829
-0.0134237
-0.0141143
-0.014751
-0.0153308
-0.0158512
-0.0163103
-0.0167065
-0.0170386
-0.0173059
-0.0175079
-0.017644
-0.0177139
-0.0177175
-0.0176548
-0.0175259
-0.017331
-0.0170704
-0.0167447
-0.0163544
-0.0159003
-0.0153833
-0.0148041
-0.0141636
-0.013463
-0.0127035
-0.0118864
-0.0110129
-0.0100852
-0.00910609
-0.00807905
-0.00701054
-0.0059103
-0.00479343
-0.00368128
-0.00258084
-0.00151245
-0.00050813
0.000389231
0.00114815
0.00174703
0.00218331
0.00247267
0.0026394
0.00271817
0.00274354
0.00273628
0.00270865
0.00266862
0.00261856
0.00257011
0.00254069
0.0012835
0.00113998
0.000947856
0.000778753
0.00064467
0.000526709
0.000408945
0.000278231
0.000122557
-6.91683e-05
-0.000308247
-0.000607691
-0.000980115
-0.0014357
-0.00198082
-0.00261599
-0.00333493
-0.00412616
-0.00497623
-0.00587064
-0.00679493
-0.0077359
-0.00868119
-0.00961955
-0.0105409
-0.0114362
-0.0122979
-0.0131193
-0.0138949
-0.0146203
-0.0152922
-0.0159079
-0.0164655
-0.0169636
-0.0174012
-0.0177775
-0.0180921
-0.0183449
-0.0185356
-0.0186643
-0.0187309
-0.0187358
-0.0186793
-0.0185618
-0.0183836
-0.0181455
-0.0178481
-0.0174922
-0.0170787
-0.0166084
-0.016082
-0.0155002
-0.0148636
-0.0141728
-0.0134279
-0.012629
-0.0117761
-0.0108693
-0.00990882
-0.00889546
-0.00783082
-0.00671948
-0.00557204
-0.00440664
-0.00323744
-0.00207988
-0.000970869
4.06373e-05
0.000912946
0.00161018
0.0021206
0.00245388
0.00263429
0.00270437
0.00270559
0.00266496
0.00260205
0.00252718
0.00246277
0.00242564
0.00159472
0.00142269
0.00119482
0.000999171
0.000845894
0.000705604
0.000556608
0.000382749
0.00017061
-9.1197e-05
-0.000414941
-0.000813059
-0.00129567
-0.00186936
-0.00253487
-0.00328683
-0.00411411
-0.00500243
-0.00593691
-0.00690247
-0.00788488
-0.00887125
-0.00984973
-0.0108098
-0.0117425
-0.0126398
-0.0134955
-0.0143044
-0.0150626
-0.015767
-0.0164156
-0.0170068
-0.0175398
-0.018014
-0.0184291
-0.018785
-0.0190818
-0.0193197
-0.0194989
-0.0196198
-0.0196827
-0.0196879
-0.019636
-0.0195276
-0.0193635
-0.0191443
-0.0188709
-0.0185442
-0.0181651
-0.0177346
-0.0172533
-0.016722
-0.0161409
-0.0155103
-0.0148296
-0.0140981
-0.0133144
-0.0124767
-0.0115832
-0.0106313
-0.00961913
-0.00854546
-0.00741108
-0.00622032
-0.00498441
-0.00372807
-0.00246887
-0.00124895
-0.000125324
0.000843648
0.00160806
0.00214808
0.00247187
0.00261442
0.00263541
0.00258631
0.00250296
0.00240751
0.00233244
0.00229002
0.00189668
0.00169511
0.00142807
0.00120456
0.00102865
0.000860771
0.000673567
0.000448266
0.000170788
-0.000171148
-0.000589914
-0.00109538
-0.00169435
-0.00238765
-0.00317037
-0.00403208
-0.00495813
-0.00593254
-0.00693956
-0.00796406
-0.0089922
-0.0100116
-0.0110112
-0.0119817
-0.0129151
-0.0138052
-0.0146471
-0.0154372
-0.0161729
-0.0168526
-0.0174753
-0.0180405
-0.0185482
-0.0189983
-0.0193913
-0.0197275
-0.0200074
-0.0202312
-0.0203996
-0.020513
-0.0205721
-0.0205772
-0.0205291
-0.0204284
-0.0202759
-0.0200727
-0.0198194
-0.0195173
-0.0191672
-0.0187701
-0.0183268
-0.017838
-0.0173041
-0.0167249
-0.0160997
-0.0154273
-0.0147056
-0.0139318
-0.0131022
-0.0122125
-0.0112579
-0.0102339
-0.00913623
-0.00796281
-0.00671493
-0.0054024
-0.004047
-0.00267924
-0.00135036
-0.000130742
0.00090136
0.00168474
0.00219642
0.00245473
0.00251978
0.00247191
0.00237002
0.00225634
0.00217222
0.00212315
0.00216629
0.00193549
0.00162907
0.00137578
0.00117368
0.00097275
0.000740733
0.000457486
0.000107574
-0.000322834
-0.000843183
-0.00146025
-0.00217561
-0.00298445
-0.00387687
-0.00483816
-0.00585132
-0.00689933
-0.00796611
-0.00903676
-0.010098
-0.0111384
-0.0121479
-0.0131185
-0.014044
-0.0149195
-0.0157417
-0.0165086
-0.0172189
-0.0178721
-0.0184682
-0.0190075
-0.0194904
-0.0199177
-0.02029
-0.020608
-0.0208723
-0.0210835
-0.0212423
-0.0213491
-0.0214048
-0.0214099
-0.021365
-0.0212709
-0.0211285
-0.0209387
-0.0207024
-0.0204208
-0.0200949
-0.0197257
-0.019314
-0.0188607
-0.018366
-0.0178299
-0.0172516
-0.0166298
-0.0159621
-0.0152451
-0.0144744
-0.0136445
-0.0127487
-0.01178
-0.0107307
-0.00959449
-0.00836729
-0.00704943
-0.00564966
-0.00419145
-0.0027178
-0.0012951
-1.26617e-05
0.00103335
0.00177418
0.00219849
0.00234882
0.0023193
0.00220584
0.00207437
0.00197739
0.00191775
0.0023868
0.00212339
0.00177808
0.00149377
0.00126187
0.00102288
0.000741535
0.000395667
-3.32363e-05
-0.000556473
-0.00118046
-0.00190807
-0.00273493
-0.00365142
-0.0046429
-0.00569151
-0.00677873
-0.00788704
-0.00900039
-0.0101044
-0.0111867
-0.0122368
-0.0132462
-0.0142085
-0.0151191
-0.0159747
-0.0167736
-0.017515
-0.0181987
-0.0188252
-0.0193953
-0.0199098
-0.0203697
-0.020776
-0.0211296
-0.0214314
-0.021682
-0.0218823
-0.0220328
-0.0221343
-0.0221873
-0.0221925
-0.0221506
-0.0220624
-0.0219287
-0.0217504
-0.0215286
-0.0212643
-0.0209586
-0.0206125
-0.0202269
-0.0198028
-0.0193404
-0.0188398
-0.0183005
-0.0177211
-0.0170993
-0.0164316
-0.0157133
-0.0149383
-0.0140992
-0.0131872
-0.0121928
-0.0111062
-0.00991873
-0.00862487
-0.00722458
-0.00572924
-0.00416998
-0.00260431
-0.00111783
0.000181597
0.00118134
0.00181652
0.00210244
0.00212541
0.00201171
0.001862
0.00174309
0.00166889
0.00252757
0.00223798
0.00185651
0.00154081
0.00127613
0.000995963
0.000662386
0.000249361
-0.000260798
-0.000876798
-0.00160272
-0.00243529
-0.00336547
-0.00437873
-0.00545657
-0.00657893
-0.00772648
-0.00888156
-0.0100284
-0.0111536
-0.0122457
-0.0132958
-0.014297
-0.0152445
-0.0161352
-0.0169676
-0.0177411
-0.0184562
-0.0191136
-0.0197144
-0.02026
-0.0207517
-0.0211908
-0.0215784
-0.0219156
-0.0222033
-0.0224424
-0.0226335
-0.0227773
-0.0228745
-0.0229257
-0.0229314
-0.0228925
-0.0228096
-0.0226836
-0.0225154
-0.0223059
-0.0220562
-0.0217674
-0.0214404
-0.0210764
-0.0206762
-0.0202402
-0.0197688
-0.0192614
-0.0187169
-0.0181334
-0.0175074
-0.0168345
-0.0161084
-0.0153215
-0.0144643
-0.0135263
-0.0124955
-0.0113601
-0.0101101
-0.00873889
-0.00724786
-0.00565442
-0.00400276
-0.00237086
-0.000859568
0.000398992
0.00128527
0.00175852
0.00187698
0.00178265
0.00161627
0.00146523
0.00137506
0.0025777
0.00226441
0.00184982
0.00150284
0.0012035
0.000880982
0.000492949
1.1212e-05
-0.000578959
-0.00128503
-0.00210676
-0.00303597
-0.00405857
-0.0051557
-0.00630596
-0.00748797
-0.008682
-0.0098706
-0.0110387
-0.0121739
-0.0132662
-0.0143082
-0.0152948
-0.0162227
-0.0170905
-0.0178979
-0.0186456
-0.0193348
-0.019967
-0.0205439
-0.0210671
-0.0215384
-0.0219591
-0.0223304
-0.0226536
-0.0229295
-0.0231589
-0.0233425
-0.0234811
-0.0235752
-0.0236253
-0.023632
-0.0235961
-0.0235181
-0.023399
-0.0232396
-0.0230407
-0.0228035
-0.0225289
-0.022218
-0.0218718
-0.0214912
-0.0210768
-0.020629
-0.0201475
-0.0196316
-0.0190794
-0.0184882
-0.0178537
-0.0171701
-0.01643
-0.0156238
-0.0147404
-0.0137669
-0.0126896
-0.0114952
-0.0101727
-0.00871565
-0.00712887
-0.0054402
-0.00371806
-0.00205279
-0.000567566
0.000581297
0.00128615
0.00155322
0.00150994
0.00133097
0.0011408
0.00103483
0.00252425
0.00219116
0.00174751
0.00137051
0.00103671
0.000670482
0.000226679
-0.000320862
-0.000987282
-0.00177792
-0.00268707
-0.00370207
-0.00480423
-0.00597118
-0.00717951
-0.00840709
-0.00963421
-0.0108439
-0.0120221
-0.0131577
-0.0142421
-0.0152698
-0.0162371
-0.0171424
-0.0179857
-0.0187677
-0.0194901
-0.0201546
-0.0207634
-0.0213185
-0.0218219
-0.0222752
-0.0226799
-0.0230374
-0.0233488
-0.0236148
-0.0238364
-0.0240142
-0.0241487
-0.0242406
-0.0242903
-0.0242983
-0.0242654
-0.0241922
-0.0240794
-0.0239277
-0.0237382
-0.0235117
-0.0232492
-0.0229518
-0.0226205
-0.022256
-0.0218593
-0.0214307
-0.0209702
-0.0204773
-0.0199507
-0.019388
-0.0187855
-0.0181381
-0.0174388
-0.0166786
-0.0158463
-0.0149289
-0.0139115
-0.0127787
-0.0115163
-0.0101131
-0.00856393
-0.00687887
-0.00510725
-0.00334816
-0.00169275
-0.000298513
0.000667527
0.00113236
0.00117666
0.00099772
0.000769035
0.000648418
0.00235953
0.00201139
0.00154376
0.00113906
0.000771201
0.000361625
-0.000135465
-0.000745342
-0.00148279
-0.0023494
-0.0033355
-0.00442379
-0.00559165
-0.00681402
-0.00806624
-0.00932589
-0.0105736
-0.0117932
-0.0129718
-0.0140996
-0.0151699
-0.0161786
-0.0171236
-0.0180048
-0.0188231
-0.0195802
-0.0202784
-0.0209201
-0.0215077
-0.0220434
-0.0225292
-0.022967
-0.0233581
-0.0237039
-0.0240054
-0.0242635
-0.0244788
-0.024652
-0.0247836
-0.0248741
-0.0249239
-0.0249336
-0.0249038
-0.024835
-0.0247279
-0.0245833
-0.0244019
-0.0241848
-0.0239327
-0.0236468
-0.0233279
-0.022977
-0.0225948
-0.022182
-0.0217386
-0.0212644
-0.0207585
-0.020219
-0.019643
-0.0190259
-0.0183615
-0.0176417
-0.0168558
-0.0159911
-0.0150324
-0.013963
-0.0127665
-0.0114282
-0.00993666
-0.00828904
-0.006509
-0.00469522
-0.00293028
-0.00133911
-0.000116542
0.000584158
0.000766024
0.000609951
0.000352847
0.000216685
0.00208149
0.00172344
0.00123756
0.000808277
0.000407507
-4.37765e-05
-0.00058995
-0.00125664
-0.00205769
-0.0029906
-0.00404189
-0.00519017
-0.00640964
-0.00767337
-0.00895602
-0.0102353
-0.0114923
-0.0127121
-0.0138829
-0.0149967
-0.0160481
-0.0170347
-0.0179557
-0.0188122
-0.0196058
-0.0203392
-0.0210149
-0.0216358
-0.0222043
-0.0227229
-0.0231935
-0.023618
-0.0239976
-0.0243337
-0.0246271
-0.0248787
-0.0250891
-0.0252588
-0.0253883
-0.0254781
-0.0255285
-0.02554
-0.0255132
-0.0254486
-0.0253468
-0.0252085
-0.0250345
-0.0248255
-0.0245826
-0.0243065
-0.0239983
-0.0236588
-0.0232888
-0.0228889
-0.0224596
-0.0220007
-0.0215117
-0.0209911
-0.0204367
-0.0198448
-0.01921
-0.0185251
-0.0177805
-0.016964
-0.0160608
-0.0150541
-0.0139254
-0.0126578
-0.0112367
-0.00965037
-0.00790176
-0.00605157
-0.00423275
-0.00250802
-0.00106069
-0.000107195
0.000258075
0.000154075
-0.000107206
-0.000264404
0.00169302
0.00133045
0.000832171
0.000381609
-4.96264e-05
-0.000538797
-0.00112929
-0.00184665
-0.00270225
-0.00369072
-0.00479481
-0.0059897
-0.00724712
-0.00853898
-0.00983969
-0.0111274
-0.0123841
-0.0135958
-0.0147524
-0.0158473
-0.0168766
-0.0178392
-0.0187355
-0.0195674
-0.0203375
-0.0210485
-0.0217037
-0.0223058
-0.0228575
-0.0233611
-0.0238186
-0.0242317
-0.0246017
-0.0249297
-0.0252165
-0.0254629
-0.0256694
-0.0258365
-0.0259646
-0.0260542
-0.0261055
-0.026119
-0.0260951
-0.0260345
-0.0259376
-0.025805
-0.0256375
-0.0254358
-0.0252009
-0.0249334
-0.0246344
-0.0243046
-0.023945
-0.0235561
-0.0231384
-0.0226921
-0.022217
-0.021712
-0.0211755
-0.0206044
-0.0199945
-0.0193395
-0.0186309
-0.0178576
-0.0170057
-0.0160585
-0.0149971
-0.0138022
-0.0124576
-0.010948
-0.00926069
-0.00740813
-0.00555507
-0.00375872
-0.00213947
-0.000943805
-0.000364
-0.00037259
-0.000616707
-0.000803467
0.0012012
0.000839775
0.000334511
-0.000133464
-0.000591789
-0.00111427
-0.00174342
-0.00250399
-0.00340479
-0.00443772
-0.00558227
-0.00681085
-0.00809348
-0.0094014
-0.0107092
-0.0119956
-0.0132438
-0.014441
-0.0155785
-0.016651
-0.0176561
-0.0185938
-0.0194655
-0.0202737
-0.0210215
-0.021712
-0.0223485
-0.0229338
-0.0234707
-0.0239613
-0.0244075
-0.024811
-0.0251728
-0.025494
-0.0257754
-0.0260177
-0.0262212
-0.0263864
-0.0265137
-0.0266033
-0.0266557
-0.0266713
-0.0266503
-0.0265934
-0.026501
-0.0263736
-0.0262121
-0.0260169
-0.025789
-0.0255291
-0.0252382
-0.0249169
-0.0245661
-0.0241865
-0.0237788
-0.0233431
-0.0228796
-0.0223876
-0.0218658
-0.0213122
-0.0207232
-0.0200936
-0.0194162
-0.0186811
-0.0178757
-0.0169839
-0.015987
-0.0148644
-0.0135973
-0.0121693
-0.0105609
-0.00876467
-0.00687512
-0.00505084
-0.00332499
-0.00192499
-0.00111787
-0.000976086
-0.00118677
-0.00141256
0.0006171
0.00026185
-0.000244871
-0.000725997
-0.00120711
-0.00175816
-0.00242024
-0.0032161
-0.00415255
-0.00521897
-0.00639218
-0.00764248
-0.00893877
-0.0102521
-0.0115576
-0.0128347
-0.0140678
-0.0152454
-0.0163602
-0.0174081
-0.0183881
-0.0193008
-0.0201485
-0.0209342
-0.0216612
-0.0223328
-0.0229525
-0.0235229
-0.0240467
-0.024526
-0.0249626
-0.0253578
-0.0257127
-0.0260284
-0.0263053
-0.0265442
-0.0267454
-0.0269092
-0.027036
-0.0271261
-0.0271797
-0.0271973
-0.0271791
-0.0271257
-0.0270375
-0.0269149
-0.0267587
-0.0265694
-0.0263479
-0.0260947
-0.0258108
-0.025497
-0.025154
-0.0247826
-0.0243834
-0.0239568
-0.0235031
-0.023022
-0.0225128
-0.0219739
-0.0214025
-0.0207946
-0.0201441
-0.0194426
-0.0186786
-0.0178375
-0.0169012
-0.0158488
-0.0146594
-0.0133149
-0.0117958
-0.0100831
-0.00818887
-0.0063534
-0.0045827
-0.0030323
-0.00201035
-0.00168633
-0.0018329
-0.00210835
-4.45633e-05
-0.00039054
-0.000893032
-0.00138298
-0.00188291
-0.00245776
-0.00314625
-0.00396951
-0.00493231
-0.00602184
-0.00721283
-0.00847408
-0.00977395
-0.0110837
-0.012379
-0.0136404
-0.0148533
-0.0160077
-0.0170974
-0.0181196
-0.0190741
-0.0199623
-0.020787
-0.0215514
-0.0222593
-0.0229138
-0.0235183
-0.0240755
-0.0245879
-0.0250573
-0.0254855
-0.0258736
-0.0262228
-0.0265337
-0.026807
-0.0270432
-0.0272425
-0.0274053
-0.027532
-0.0276226
-0.0276776
-0.0276971
-0.0276816
-0.0276315
-0.0275471
-0.0274289
-0.0272776
-0.0270936
-0.0268778
-0.0266307
-0.0263532
-0.026046
-0.0257099
-0.0253457
-0.0249539
-0.0245353
-0.0240902
-0.0236185
-0.02312
-0.0225936
-0.0220373
-0.0214481
-0.0208208
-0.0201486
-0.0194214
-0.018626
-0.0177456
-0.0167598
-0.0156461
-0.0143848
-0.0129569
-0.011336
-0.00950717
-0.00764693
-0.00587486
-0.00423626
-0.00303207
-0.00252117
-0.00257396
-0.00291441
-0.000768026
-0.00110232
-0.0015962
-0.0020911
-0.00260561
-0.00319917
-0.00390763
-0.00475063
-0.005731
-0.00683411
-0.00803315
-0.00929604
-0.0105909
-0.0118895
-0.0131684
-0.0144092
-0.0155984
-0.0167271
-0.0177905
-0.0187865
-0.0197157
-0.0205803
-0.0213832
-0.0221279
-0.0228181
-0.0234572
-0.0240481
-0.0245936
-0.0250958
-0.0255566
-0.0259775
-0.0263596
-0.0267038
-0.0270107
-0.027281
-0.0275149
-0.0277128
-0.0278749
-0.0280016
-0.0280929
-0.0281492
-0.0281707
-0.0281577
-0.0281105
-0.0280297
-0.0279156
-0.0277687
-0.0275896
-0.0273789
-0.0271373
-0.0268656
-0.0265644
-0.0262345
-0.0258766
-0.0254916
-0.0250801
-0.0246424
-0.0241791
-0.0236899
-0.0231744
-0.0226313
-0.0220581
-0.0214511
-0.0208045
-0.0201098
-0.0193554
-0.0185259
-0.017602
-0.0165613
-0.0153819
-0.0140442
-0.0125223
-0.010796
-0.00892507
-0.00717618
-0.00551456
-0.00417742
-0.0034813
-0.00342434
-0.0038408
-0.00153772
-0.00185803
-0.00233979
-0.00283592
-0.00336074
-0.00396785
-0.00469031
-0.005546
-0.006536
-0.00764428
-0.00884302
-0.0100997
-0.0113826
-0.0126642
-0.0139219
-0.0151384
-0.0163015
-0.0174032
-0.0184397
-0.0194098
-0.0203146
-0.0211566
-0.0219391
-0.0226656
-0.0233397
-0.0239647
-0.0245434
-0.0250784
-0.0255717
-0.0260249
-0.0264394
-0.0268163
-0.0271561
-0.0274597
-0.0277273
-0.0279594
-0.0281562
-0.0283178
-0.0284446
-0.0285367
-0.0285942
-0.0286176
-0.0286069
-0.0285626
-0.028485
-0.0283746
-0.0282318
-0.0280571
-0.0278512
-0.0276146
-0.027348
-0.0270523
-0.026728
-0.026376
-0.0259971
-0.0255919
-0.0251611
-0.0247051
-0.0242243
-0.0237184
-0.0231868
-0.0226277
-0.0220384
-0.0214143
-0.0207483
-0.0200305
-0.0192472
-0.0183804
-0.0174086
-0.0163085
-0.0150611
-0.0136448
-0.0120281
-0.0101908
-0.00845439
-0.00682487
-0.00541608
-0.00455857
-0.00439523
-0.00488008
-0.00233766
-0.00264231
-0.00310892
-0.00360247
-0.00413353
-0.00474959
-0.00548069
-0.00634283
-0.00733554
-0.0084418
-0.00963326
-0.0108773
-0.0121429
-0.013403
-0.0146362
-0.0158261
-0.0169616
-0.0180359
-0.0190457
-0.0199905
-0.020872
-0.0216927
-0.0224562
-0.0231659
-0.0238253
-0.0244376
-0.0250054
-0.025531
-0.0260163
-0.0264628
-0.0268717
-0.0272439
-0.0275801
-0.0278807
-0.0281461
-0.0283766
-0.0285725
-0.0287338
-0.0288608
-0.0289536
-0.0290124
-0.0290374
-0.029029
-0.0289873
-0.0289127
-0.0288057
-0.0286666
-0.0284959
-0.0282943
-0.0280623
-0.0278005
-0.0275097
-0.0271906
-0.026844
-0.0264706
-0.0260712
-0.0256466
-0.0251974
-0.0247241
-0.0242268
-0.0237054
-0.0231589
-0.0225852
-0.021981
-0.0213405
-0.0206553
-0.0199134
-0.0190986
-0.0181904
-0.0171657
-0.0160042
-0.0146863
-0.0131787
-0.0114537
-0.00971075
-0.00812599
-0.00669911
-0.00572529
-0.00548518
-0.00601129
-0.0031524
-0.00343975
-0.00388872
-0.00437658
-0.00491019
-0.00553102
-0.00626601
-0.00712924
-0.00811888
-0.00921719
-0.0103958
-0.0116224
-0.0128665
-0.014102
-0.0153085
-0.0164706
-0.0175782
-0.0186251
-0.0196089
-0.0205295
-0.0213889
-0.0221898
-0.0229357
-0.0236301
-0.0242761
-0.0248768
-0.0254347
-0.0259519
-0.0264302
-0.0268707
-0.0272747
-0.0276428
-0.0279756
-0.0282736
-0.0285371
-0.0287663
-0.0289614
-0.0291225
-0.0292497
-0.0293432
-0.0294032
-0.0294299
-0.0294234
-0.0293841
-0.0293123
-0.0292083
-0.0290726
-0.0289056
-0.0287079
-0.0284801
-0.0282227
-0.0279365
-0.0276222
-0.0272805
-0.0269122
-0.0265182
-0.0260993
-0.0256563
-0.0251898
-0.0247004
-0.0241883
-0.0236529
-0.0230932
-0.0225065
-0.0218886
-0.0212324
-0.0205278
-0.0197602
-0.0189109
-0.0179573
-0.0168772
-0.0156509
-0.0142495
-0.0126524
-0.010933
-0.00940165
-0.00799007
-0.00694536
-0.00666104
-0.00718628
-0.00396711
-0.00423574
-0.00466508
-0.00514478
-0.00567782
-0.00629983
-0.00703464
-0.00789454
-0.00887652
-0.00996204
-0.0111235
-0.0123291
-0.013549
-0.0147581
-0.0159367
-0.0170707
-0.0181505
-0.0191708
-0.0201297
-0.0210275
-0.0218662
-0.0226488
-0.0233785
-0.0240588
-0.0246927
-0.025283
-0.025832
-0.0263416
-0.0268135
-0.0272487
-0.0276482
-0.0280126
-0.0283426
-0.0286383
-0.0289001
-0.0291281
-0.0293226
-0.0294835
-0.0296109
-0.0297052
-0.0297662
-0.0297943
-0.0297897
-0.0297526
-0.0296832
-0.0295821
-0.0294495
-0.0292859
-0.0290918
-0.0288677
-0.0286144
-0.0283324
-0.0280224
-0.0276852
-0.0273217
-0.0269328
-0.0265192
-0.0260819
-0.0256217
-0.0251395
-0.0246357
-0.0241104
-0.0235631
-0.0229922
-0.0223943
-0.0217641
-0.0210928
-0.0203679
-0.0195723
-0.0186848
-0.0176822
-0.0165463
-0.0152554
-0.0137797
-0.0121064
-0.0106143
-0.00925481
-0.00818249
-0.00785689
-0.00831974
-0.00476816
-0.005017
-0.0054253
-0.00589478
-0.00642467
-0.00704484
-0.00777613
-0.00862909
-0.00960018
-0.0106693
-0.0118104
-0.0129927
-0.0141868
-0.0153685
-0.0165191
-0.0176252
-0.0186781
-0.019673
-0.0206083
-0.0214848
-0.0223044
-0.0230701
-0.0237851
-0.0244526
-0.0250755
-0.0256563
-0.0261973
-0.0267002
-0.0271663
-0.0275967
-0.0279922
-0.0283534
-0.0286807
-0.0289744
-0.0292347
-0.0294617
-0.0296556
-0.0298163
-0.0299441
-0.0300389
-0.030101
-0.0301304
-0.0301274
-0.0300922
-0.0300251
-0.0299265
-0.0297967
-0.0296361
-0.0294453
-0.0292247
-0.0289751
-0.0286969
-0.028391
-0.028058
-0.0276989
-0.0273146
-0.0269059
-0.0264739
-0.0260196
-0.025544
-0.0250479
-0.0245317
-0.0239956
-0.0234387
-0.0228587
-0.0222515
-0.0216099
-0.0209232
-0.020176
-0.0193487
-0.0184188
-0.017368
-0.0161781
-0.0148167
-0.0132502
-0.0117689
-0.01046
-0.00939268
-0.00901226
-0.00936348
-0.00554253
-0.0057715
-0.00615795
-0.00661567
-0.00714029
-0.00775622
-0.0084814
-0.00932468
-0.0102822
-0.011333
-0.0124514
-0.0136091
-0.0147768
-0.0159311
-0.0170542
-0.0181334
-0.0191606
-0.0201316
-0.021045
-0.0219017
-0.0227038
-0.0234541
-0.0241557