/*--------------------------------*- C++ -*----------------------------------*\
  =========                 |
  \\      /  F ield         | OpenFOAM: The Open Source CFD Toolbox
   \\    /   O peration     | Website:  https://openfoam.org
    \\  /    A nd           | Version:  13
     \\/     M anipulation  |
\*---------------------------------------------------------------------------*/
FoamFile
{
    format      ascii;
    class       volScalarField;
    location    "6";
    object      epsilon;
}
// * * * * * * * * * * * * * * * * * * * * * * * * * * * * * * * * * * * * * //

dimensions      [0 2 -3 0 0 0 0];

internalField   nonuniform List<scalar> 
1600
(
2.29387e-05
8.28498e-05
0.00016538
0.000172462
0.000160358
0.000164745
0.000208999
0.00034366
0.000503758
0.000684255
0.00109023
0.00142043
0.00158471
0.00174757
0.00201043
0.00236053
0.00270285
0.00307827
0.00345952
0.00387544
0.00432017
0.00481236
0.00536113
0.00598832
0.00673089
0.00740757
0.00809102
0.0086784
0.00918565
0.00945814
0.00956567
0.00935702
0.0085602
0.00719529
0.00532065
0.00305929
0.00144752
0.00059111
0.000183795
3.7424e-05
0.000110782
0.000141522
0.000180884
0.000177098
0.000175547
0.000209367
0.000355725
0.000741795
0.0013237
0.00212384
0.00384257
0.00486749
0.00502631
0.00475671
0.00445389
0.00430508
0.00419833
0.00415848
0.00415369
0.00423511
0.00436279
0.00454924
0.00476204
0.00502081
0.00533784
0.00572563
0.00616222
0.00666571
0.00717287
0.0076093
0.00780984
0.00784402
0.00732103
0.00631639
0.00464456
0.00262278
0.00107182
0.000456112
0.000161129
6.61245e-05
0.00033298
0.000360556
0.000378853
0.000367821
0.000417934
0.000682846
0.00144993
0.00294896
0.00492962
0.00583885
0.00587633
0.00502945
0.00460642
0.00407938
0.00369396
0.00342328
0.00320572
0.00306396
0.0029824
0.00294761
0.00293899
0.00297416
0.00306914
0.0032035
0.00337761
0.003587
0.00384013
0.00414108
0.00449375
0.00491238
0.0054035
0.00586125
0.006076
0.00601928
0.00522061
0.00346814
0.00108299
0.000290063
0.000102364
5.44913e-05
0.000772971
0.00071259
0.00072214
0.000783996
0.00113518
0.00217295
0.00411572
0.0056827
0.00611665
0.00564762
0.0049834
0.00386769
0.00327694
0.00279134
0.00255653
0.002348
0.00224057
0.00217798
0.0021532
0.00214901
0.00218318
0.00223699
0.00231388
0.00240905
0.00252654
0.00266699
0.00283722
0.00304118
0.00328436
0.00357044
0.00390124
0.00428711
0.00478193
0.00531044
0.00551981
0.00506869
0.00253275
0.00043188
8.72567e-05
3.87204e-05
0.00148131
0.00122477
0.00131628
0.00166097
0.00263047
0.0043762
0.00565029
0.00595278
0.00553394
0.00433427
0.00321582
0.00265915
0.00227854
0.00203438
0.00190808
0.00182987
0.00179945
0.0017919
0.00181075
0.00184709
0.00189482
0.00195034
0.00201577
0.00209232
0.0021846
0.00229712
0.00243727
0.00261071
0.00282061
0.00306797
0.00335091
0.00366638
0.00402435
0.00448804
0.00516833
0.00548577
0.00488932
0.00139762
0.00017409
4.71928e-05
0.00250904
0.00195431
0.002228
0.00292874
0.00425436
0.00534494
0.00563547
0.00532662
0.0039459
0.00282654
0.00227098
0.00194767
0.00174455
0.0016463
0.00160335
0.00158982
0.00159356
0.00162111
0.0016518
0.00168993
0.00173152
0.00177981
0.00183721
0.00190722
0.00199422
0.00210334
0.0022403
0.00241033
0.00261798
0.00286479
0.00314822
0.00346569
0.00379286
0.00414335
0.00458034
0.00515268
0.00539207
0.00372992
0.000542993
9.34659e-05
0.0038448
0.00289637
0.00332429
0.00415726
0.00503148
0.00531817
0.00511428
0.00383568
0.00261695
0.00203397
0.00173523
0.00156169
0.00147935
0.00144628
0.00143674
0.00143649
0.00144966
0.00146322
0.00147781
0.00149568
0.001518
0.00155009
0.00159503
0.00165799
0.00174389
0.00185905
0.00200976
0.00220229
0.00244116
0.00272662
0.00305115
0.00339759
0.00375366
0.00408201
0.004428
0.00484361
0.00514513
0.0050012
0.00139205
0.000215382
0.00528156
0.00393249
0.00434694
0.00489661
0.00512134
0.00495486
0.00391771
0.00257233
0.00191463
0.00159815
0.00143596
0.00135536
0.00131909
0.0013029
0.00129419
0.00128488
0.00127557
0.00126277
0.00125283
0.00124838
0.00124802
0.00126342
0.00129462
0.00134706
0.00142604
0.00153839
0.00169234
0.0018975
0.0021635
0.00249668
0.00289372
0.00333291
0.0037701
0.00417526
0.00446473
0.0047792
0.00509351
0.00519777
0.00304216
0.000541085
0.00655201
0.00488884
0.00511726
0.00522427
0.00493311
0.00411219
0.00273706
0.00190144
0.00152647
0.00134747
0.001259
0.00121543
0.00119107
0.00116794
0.00114115
0.00110904
0.00107429
0.00103955
0.00100982
0.000989818
0.000981324
0.000980621
0.00100243
0.00104401
0.00111177
0.00121212
0.00135429
0.00155062
0.00181644
0.00216814
0.00261699
0.00315645
0.00374396
0.00429175
0.00472044
0.00493536
0.00519502
0.00532381
0.00462858
0.00145685
0.00748758
0.00561402
0.00556392
0.00519817
0.00444397
0.00313305
0.00202597
0.00152294
0.00129614
0.00118794
0.00113392
0.00109953
0.00106584
0.00102492
0.000977261
0.000925774
0.000874863
0.000828657
0.000790561
0.00076344
0.000750378
0.000746529
0.000759199
0.000792566
0.000847843
0.000932164
0.0010541
0.00122688
0.00146888
0.00180409
0.00225899
0.00285173
0.00356801
0.00432657
0.00496712
0.00526612
0.00542182
0.00550134
0.00517854
0.00260073
0.00815117
0.00608492
0.00577723
0.00502016
0.0037466
0.00236587
0.00161937
0.00129287
0.00114457
0.00107265
0.00102911
0.000987673
0.000938489
0.00088068
0.000818483
0.0007568
0.000700058
0.000651468
0.000612797
0.000585398
0.000571926
0.000567439
0.000575085
0.000601576
0.000645879
0.000714494
0.000815039
0.000960005
0.00116819
0.0014671
0.0018936
0.00248851
0.00327599
0.00421701
0.00514223
0.00563282
0.00581074
0.00585469
0.00558279
0.00372291
0.00853007
0.00630733
0.00573845
0.00463907
0.00306933
0.00189134
0.00136738
0.00113896
0.00103336
0.000977976
0.000931468
0.00087824
0.000815478
0.000746822
0.000678187
0.000614434
0.000558846
0.000513117
0.000477727
0.000452889
0.000440563
0.000436282
0.000441178
0.000462004
0.000497374
0.000552538
0.000634051
0.000752824
0.000926257
0.00118189
0.0015614
0.00212164
0.00292279
0.00398549
0.0051993
0.00601498
0.00624987
0.00625315
0.00594842
0.00463473
0.00852326
0.00629978
0.00559749
0.00417991
0.00251519
0.00159018
0.00119802
0.0010266
0.000945272
0.000893615
0.000839435
0.000775622
0.000704188
0.000631084
0.000562205
0.000501309
0.000450218
0.000409325
0.000378262
0.000356546
0.000345597
0.000341698
0.000344888
0.000361233
0.000389634
0.000434144
0.000500272
0.000597174
0.000739987
0.000953984
0.00128075
0.00178481
0.00255283
0.00366603
0.00511881
0.00638813
0.00680532
0.00678853
0.00629348
0.00549394
0.00841841
0.00621254
0.00531328
0.0037116
0.0021244
0.00138635
0.00107631
0.000938876
0.000871098
0.000817112
0.000755266
0.000684231
0.000608972
0.000536073
0.000470469
0.000414538
0.000368845
0.000332907
0.000305876
0.000286989
0.000277184
0.000273623
0.000275647
0.000288528
0.00031159
0.000347949
0.000402196
0.000481913
0.000599892
0.000778317
0.00105603
0.00149908
0.00220908
0.00330789
0.0048573
0.00659991
0.00737041
0.00739586
0.00676946
0.00629048
0.00816452
0.00600852
0.00496899
0.00329266
0.00185933
0.00124102
0.000983796
0.000868581
0.000807058
0.000748951
0.000681314
0.000606485
0.00053093
0.000460856
0.000399942
0.000349343
0.000308728
0.00027711
0.000253422
0.000236805
0.000227875
0.000224565
0.000225761
0.000235977
0.000254943
0.00028511
0.000330317
0.000396841
0.000495325
0.000644622
0.000879316
0.00126301
0.00190617
0.00296983
0.00459454
0.00667821
0.00796746
0.00807968
0.00730135
0.00707206
0.00772164
0.00574263
0.00461492
0.00295206
0.00167119
0.00113381
0.000911713
0.000811396
0.000751899
0.000690017
0.000618797
0.00054281
0.000469032
0.00040285
0.000346771
0.000301026
0.000264721
0.000236615
0.000215563
0.000200699
0.000192404
0.000189256
0.000189866
0.00019802
0.000213808
0.000239233
0.00027757
0.000334108
0.00041775
0.000544343
0.000743733
0.00107392
0.00164522
0.00264438
0.00430048
0.00666665
0.00852676
0.00885209
0.00791114
0.00783285
0.00719852
0.00545129
0.00427503
0.00268441
0.00153418
0.00105306
0.000854989
0.00076456
0.000705224
0.000640694
0.000567783
0.000492341
0.000421281
0.000359101
0.000307373
0.000265701
0.000232867
0.00020752
0.000188507
0.000174979
0.000167113
0.000164037
0.000164242
0.000170789
0.000184064
0.000205786
0.000238814
0.000287715
0.000360057
0.000469197
0.000640558
0.000925516
0.00142908
0.00234986
0.00398061
0.00651444
0.00902961
0.00968624
0.0085774
0.00859087
0.00657883
0.00517482
0.00397055
0.00248075
0.0014358
0.000992963
0.000810565
0.000726397
0.000666671
0.00060074
0.000527553
0.000453607
0.000385487
0.000326921
0.00027882
0.000240398
0.000210268
0.000187045
0.000169594
0.000157091
0.000149476
0.000146346
0.000146295
0.00015158
0.000162846
0.000181623
0.000210479
0.000253463
0.000317174
0.000413045
0.000562688
0.000810757
0.00125385
0.00209324
0.00367393
0.00632201
0.00944869
0.0105729
0.00934981
0.00934504
0.0059644
0.0049041
0.00370642
0.00233081
0.00136601
0.000947462
0.000775949
0.000695675
0.000635697
0.000569494
0.000497036
0.000425021
0.000359645
0.000304098
0.000258863
0.000222932
0.000194844
0.000173216
0.000156941
0.000145219
0.000137753
0.000134442
0.000134188
0.000138485
0.000148147
0.000164554
0.000190081
0.000228398
0.000285418
0.000371171
0.00050418
0.000722915
0.00111401
0.001873
0.00338037
0.00609456
0.0097773
0.0114867
0.0102058
0.0100955
0.00525935
0.00466312
0.00348815
0.00222254
0.00132226
0.0009179
0.000749887
0.000671425
0.000611525
0.000545988
0.000474946
0.000405035
0.000342126
0.00028898
0.000245875
0.000211745
0.000185125
0.00016465
0.00014923
0.000138079
0.000130734
0.000127181
0.000126735
0.000130266
0.000138574
0.000153056
0.00017592
0.000210515
0.000262272
0.000340283
0.000460693
0.00065667
0.00100474
0.00168984
0.0031144
0.00587309
0.00999394
0.0124238
0.0111807
0.0108473
0.00469135
0.0044561
0.00331471
0.0021533
0.0012993
0.00089559
0.000731222
0.000652793
0.000593347
0.000529257
0.000460255
0.000392519
0.000331478
0.000280052
0.000238479
0.000205651
0.000180091
0.000160438
0.000145605
0.000134807
0.00012758
0.000123787
0.000123321
0.00012637
0.000133715
0.000146679
0.000167191
0.000198476
0.000246027
0.000318077
0.000428981
0.000607602
0.000920723
0.00153905
0.00287148
0.00563572
0.0101473
0.0133719
0.012268
0.0115913
0.00421033
0.00426477
0.00319797
0.00210688
0.00130283
0.000894797
0.000718518
0.000639083
0.000580109
0.000518138
0.000451439
0.000385819
0.000327239
0.000277571
0.000237136
0.000205031
0.000179919
0.000160508
0.000145757
0.000134949
0.000127606
0.000123536
0.000122869
0.000125408
0.000132095
0.000144214
0.00016319
0.000192223
0.000236188
0.000303075
0.000406854
0.000572625
0.000858339
0.00141924
0.0026582
0.00538968
0.0102232
0.0143268
0.0134817
0.0123348
0.00378557
0.0041046
0.00312543
0.00210562
0.0013193
0.000901739
0.000717024
0.000629831
0.000571386
0.000511728
0.00044838
0.000386037
0.000328436
0.000279261
0.000239076
0.000207094
0.000182054
0.000162712
0.000148046
0.000137297
0.000130001
0.000125958
0.000125177
0.000127209
0.000132999
0.000144127
0.00016216
0.000189972
0.000231798
0.000295467
0.000393941
0.000549881
0.000814195
0.00132703
0.00247487
0.00514764
0.0102544
0.0153106
0.0147989
0.0130643
0.00339969
0.0039759
0.00309628
0.0021204
0.00135616
0.000920405
0.000721067
0.000627084
0.000565796
0.000509251
0.000449328
0.000388703
0.000332606
0.000284199
0.000244373
0.00021251
0.000187485
0.000168125
0.000153435
0.000142654
0.000135289
0.00013111
0.000130283
0.000132063
0.000137321
0.000147807
0.000164695
0.000190726
0.000230826
0.000292746
0.000388323
0.000538834
0.000787787
0.00125993
0.00232303
0.00490948
0.0102573
0.0162921
0.0162357
0.0137844
0.0030395
0.00387483
0.00310413
0.00216012
0.00141639
0.000958462
0.000733229
0.000629295
0.000565912
0.000510131
0.000452508
0.000394945
0.000341175
0.000293881
0.000254277
0.000222234
0.000196885
0.000177185
0.000162187
0.000151148
0.000143558
0.000139175
0.000138345
0.000140023
0.000145018
0.00015516
0.000171553
0.000196736
0.000235116
0.000294242
0.000387241
0.00053514
0.000775996
0.00121466
0.00220278
0.00468659
0.0101917
0.0172835
0.0177869
0.0144811
0.0026985
0.00379872
0.0031318
0.00223179
0.0014976
0.00101609
0.000758989
0.000637042
0.000568374
0.000512962
0.000458891
0.0004046
0.000353058
0.000306949
0.000267693
0.000235486
0.00020975
0.000189617
0.000174228
0.000162874
0.000155049
0.000150471
0.000149716
0.000151397
0.000156332
0.000166413
0.000182663
0.000207471
0.000245144
0.000303222
0.00039434
0.000538855
0.000773396
0.00119271
0.00211171
0.00448932
0.0101085
0.0182419
0.0194696
0.0151559
0.00236808
0.00373279
0.00318776
0.00233152
0.00160514
0.00109644
0.000802913
0.000654292
0.000575393
0.000518866
0.000467285
0.000416303
0.000367398
0.000322889
0.000284314
0.00025216
0.000226149
0.000205629
0.000189868
0.000178223
0.000170212
0.000165487
0.000164928
0.0001667
0.000171755
0.000182048
0.000198471
0.000223339
0.000260878
0.000318619
0.000409499
0.000554233
0.000785303
0.00118601
0.00204913
0.00431652
0.0100133
0.0191672
0.0212552
0.0157955
0.00204664
0.003671
0.00326859
0.00244342
0.00173411
0.0012022
0.000869115
0.000688065
0.000590597
0.000528839
0.000477804
0.000429579
0.000383504
0.000341069
0.00030368
0.00027201
0.000246047
0.00022537
0.000209407
0.000197605
0.000189547
0.000184794
0.000184593
0.000186548
0.000191904
0.000202683
0.000219571
0.00024491
0.000282895
0.000341099
0.000432632
0.000578809
0.000811087
0.00119716
0.0020195
0.00416776
0.00988684
0.0200711
0.0231274
0.0164033
0.00172816
0.00357553
0.00332407
0.00259264
0.00188617
0.00133477
0.000961735
0.000742028
0.000619653
0.000546069
0.000491967
0.000444836
0.000401156
0.000361005
0.000325287
0.000294643
0.000269224
0.000248806
0.00023298
0.000221299
0.000213432
0.000208955
0.000209151
0.000211491
0.000217421
0.0002289
0.000246537
0.000272754
0.00031179
0.000371348
0.000464679
0.000613818
0.000850099
0.0012302
0.00201144
0.00404277
0.00972252
0.0209232
0.0250339
0.0169667
0.00144723
0.00345588
0.00334649
0.00275707
0.00205826
0.00149616
0.00108754
0.00082517
0.000669458
0.000576205
0.000513328
0.000463875
0.000420947
0.000382588
0.000348695
0.000319535
0.000295214
0.000275596
0.000260394
0.000249265
0.000241902
0.000238217
0.000238814
0.000241781
0.000248651
0.000261032
0.000279723
0.000307274
0.000348029
0.000409956
0.000506347
0.000660031
0.000902954
0.00128473
0.0020328
0.00396311
0.00954873
0.0216822
0.0268975
0.0174954
0.00121378
0.00322535
0.00336205
0.00291982
0.00223721
0.0016777
0.00124593
0.000944216
0.000750059
0.00062877
0.000549487
0.000492141
0.000446399
0.000407839
0.000374866
0.000346962
0.000323895
0.000305428
0.000291244
0.000281139
0.000274553
0.000272245
0.000273381
0.000277192
0.000285364
0.000298958
0.000319097
0.000348578
0.000391896
0.000457479
0.000558497
0.000718817
0.00097095
0.00136458
0.00209021
0.00393133
0.00937043
0.0223218
0.0286223
0.0179834
0.00100576
0.00278056
0.00338099
0.00306888
0.00242558
0.00187874
0.00143869
0.00110694
0.000873709
0.00071709
0.000612046
0.000538662
0.000484092
0.000441289
0.000406739
0.000378698
0.000356193
0.000338664
0.000325471
0.000316631
0.000310916
0.000310415
0.000312221
0.000317113
0.000326982
0.000342228
0.0003644
0.000396738
0.000443828
0.000514932
0.000622738
0.00079298
0.00105772
0.00147274
0.00218974
0.00394595
0.0092824
0.0228474
0.0300953
0.0184527
0.000813097
0.00214041
0.00331341
0.00311861
0.00259818
0.00208194
0.00165725
0.00131593
0.00105413
0.000861684
0.000723563
0.00062432
0.000551612
0.000497036
0.000455171
0.000422863
0.000398038
0.000379504
0.000366047
0.000357524
0.000352582
0.000353009
0.00035572
0.000362099
0.000373768
0.000391369
0.000416556
0.000453364
0.000506212
0.00058599
0.000704119
0.00089037
0.0011739
0.00162613
0.00236146
0.004095
0.00927105
0.0233188
0.0312217
0.0189266
0.000705092
0.0015406
0.0030731
0.00305829
0.00277027
0.00229702
0.0019027
0.00157146
0.00129737
0.00107739
0.000905455
0.000773596
0.000673353
0.000597179
0.00053984
0.000496421
0.000463816
0.000440045
0.000423103
0.000412522
0.000406362
0.000406842
0.000410033
0.000417609
0.000431464
0.000452697
0.000482774
0.000527258
0.000589729
0.000684551
0.000820185
0.00103542
0.00135164
0.00187162
0.00266843
0.00445897
0.00958181
0.0239429
0.0318468
0.0193441
0.000715219
0.00119964
0.00254478
0.00288581
0.00277798
0.0025043
0.00218331
0.00189385
0.0016325
0.00140111
0.00120302
0.00103772
0.000903388
0.000795772
0.000710307
0.000643984
0.000592768
0.000555116
0.000527792
0.000510199
0.00049834
0.000496845
0.000499818
0.000508165
0.000525159
0.000553246
0.000592993
0.000653059
0.000734828
0.000860253
0.00103139
0.00130677
0.0016908
0.0023471
0.00330272
0.00533155
0.0105497
0.0249721
0.0321004
0.0194937
0.000972846
0.00103658
0.00193407
0.0024998
0.00273506
0.00267177
0.00250197
0.0022821
0.00205912
0.00184005
0.00163097
0.00144054
0.00127117
0.00112978
0.00101424
0.000921311
0.000847621
0.000790939
0.000748341
0.000719939
0.000701211
0.000698938
0.000704149
0.000718822
0.000748718
0.000795278
0.000861803
0.000962058
0.0010938
0.00129473
0.00155488
0.00197381
0.00252276
0.00348302
0.00479454
0.00739701
0.0129065
0.0268413
0.0320752
0.0195066
0.00150206
0.00116009
0.00177655
0.00245776
0.00287361
0.00306248
0.0030631
0.00298053
0.00280899
0.00260777
0.00239702
0.00218879
0.0019943
0.00181925
0.00166822
0.00154411
0.00144467
0.00137159
0.00132187
0.00129102
0.00129162
0.00130527
0.00133952
0.00140551
0.00149779
0.0016286
0.00179674
0.00202254
0.00231783
0.00273782
0.00326585
0.00406622
0.00506983
0.00674182
0.00883627
0.0127478
0.018358
0.0302813
0.0319887
0.0189585
0.00247407
0.00174377
0.00248669
0.00335904
0.00402732
0.0045122
0.00473792
0.00478987
0.00471379
0.0045428
0.00433116
0.0041107
0.00390314
0.00372253
0.00357502
0.00347273
0.00340282
0.00340292
0.00342841
0.00349722
0.00363061
0.00381982
0.00406225
0.00437761
0.00477112
0.00525321
0.00585554
0.00657328
0.00747396
0.0085218
0.00990866
0.0117132
0.0140188
0.0171693
0.0208904
0.0265765
0.0315976
0.0367594
0.0331738
0.0179185
0.00433095
0.00419493
0.00729615
0.00988318
0.011351
0.0121929
0.0125609
0.012635
0.0125489
0.0123464
0.0120832
0.0118621
0.0116908
0.0116401
0.0116794
0.0118058
0.0120555
0.0124584
0.0129593
0.0136013
0.0143511
0.0152716
0.0163366
0.0175798
0.0190387
0.0206637
0.0226277
0.0247022
0.0273237
0.0299348
0.0333931
0.036424
0.0408874
0.0441216
0.0492911
0.051178
0.0495959
0.0433232
0.033694
0.015661
0.00293196
0.00458387
0.00602244
0.00754008
0.00889759
0.0101316
0.0111322
0.0120014
0.0125955
0.0130045
0.0132449
0.0133745
0.0133685
0.0133254
0.0132308
0.0131034
0.0129603
0.0128175
0.0126779
0.0125578
0.012451
0.0123819
0.0123244
0.0123247
0.0123459
0.012395
0.0125167
0.012626
0.0128683
0.0130354
0.013402
0.0136257
0.0141357
0.0145098
0.0153516
0.0158524
0.0167118
0.0167484
0.0161739
0.0135101
)
;

boundaryField
{
    movingWall
    {
        type            epsilonWallFunction;
        value           nonuniform List<scalar> 
40
(
0.00293196
0.00458387
0.00602244
0.00754008
0.00889759
0.0101316
0.0111322
0.0120014
0.0125955
0.0130045
0.0132449
0.0133745
0.0133685
0.0133254
0.0132308
0.0131034
0.0129603
0.0128175
0.0126779
0.0125578
0.012451
0.0123819
0.0123244
0.0123247
0.0123459
0.012395
0.0125167
0.012626
0.0128683
0.0130354
0.013402
0.0136257
0.0141357
0.0145098
0.0153516
0.0158524
0.0167118
0.0167484
0.0161739
0.0135101
)
;
    }
    fixedWalls
    {
        type            epsilonWallFunction;
        value           nonuniform List<scalar> 
120
(
2.29387e-05
0.000110782
0.00033298
0.000772971
0.00148131
0.00250904
0.0038448
0.00528156
0.00655201
0.00748758
0.00815117
0.00853007
0.00852326
0.00841841
0.00816452
0.00772164
0.00719852
0.00657883
0.0059644
0.00525935
0.00469135
0.00421033
0.00378557
0.00339969
0.0030395
0.0026985
0.00236808
0.00204664
0.00172816
0.00144723
0.00121378
0.00100576
0.000813097
0.000705092
0.000715219
0.000972846
0.00150206
0.00247407
0.00433095
0.00293196
3.7424e-05
6.61245e-05
5.44913e-05
3.87204e-05
4.71928e-05
9.34659e-05
0.000215382
0.000541085
0.00145685
0.00260073
0.00372291
0.00463473
0.00549394
0.00629048
0.00707206
0.00783285
0.00859087
0.00934504
0.0100955
0.0108473
0.0115913
0.0123348
0.0130643
0.0137844
0.0144811
0.0151559
0.0157955
0.0164033
0.0169667
0.0174954
0.0179834
0.0184527
0.0189266
0.0193441
0.0194937
0.0195066
0.0189585
0.0179185
0.015661
0.0135101
2.29387e-05
8.28498e-05
0.00016538
0.000172462
0.000160358
0.000164745
0.000208999
0.00034366
0.000503758
0.000684255
0.00109023
0.00142043
0.00158471
0.00174757
0.00201043
0.00236053
0.00270285
0.00307827
0.00345952
0.00387544
0.00432017
0.00481236
0.00536113
0.00598832
0.00673089
0.00740757
0.00809102
0.0086784
0.00918565
0.00945814
0.00956567
0.00935702
0.0085602
0.00719529
0.00532065
0.00305929
0.00144752
0.00059111
0.000183795
3.7424e-05
)
;
    }
    frontAndBack
    {
        type            empty;
    }
}


// ************************************************************************* //
