/*--------------------------------*- C++ -*----------------------------------*\
  =========                 |
  \\      /  F ield         | OpenFOAM: The Open Source CFD Toolbox
   \\    /   O peration     | Website:  https://openfoam.org
    \\  /    A nd           | Version:  13
     \\/     M anipulation  |
\*---------------------------------------------------------------------------*/
FoamFile
{
    format      ascii;
    class       volScalarField;
    location    "6";
    object      k;
}
// * * * * * * * * * * * * * * * * * * * * * * * * * * * * * * * * * * * * * //

dimensions      [0 2 -2 0 0 0 0];

internalField   nonuniform List<scalar> 
1600
(
1.79281e-06
6.47417e-06
1.29227e-05
1.34733e-05
1.25268e-05
1.28697e-05
1.63297e-05
2.68595e-05
3.93823e-05
5.35112e-05
8.52556e-05
0.00011104
0.000123863
0.000136587
0.000157123
0.00018448
0.000211216
0.000240551
0.000270329
0.000302829
0.000337569
0.000376026
0.000418897
0.000467899
0.000525912
0.000578776
0.000632171
0.000678062
0.000717695
0.000738989
0.000747393
0.000731114
0.000668865
0.000562241
0.000415803
0.000239104
0.000113138
4.62033e-05
1.43669e-05
2.92551e-06
8.65875e-06
4.23664e-05
8.31614e-05
9.19251e-05
9.10109e-05
9.72643e-05
0.00013364
0.000222176
0.000306653
0.000399884
0.000604825
0.000720225
0.00075133
0.000756556
0.000759343
0.000789778
0.000814502
0.000851655
0.000888474
0.000932512
0.000980177
0.00103257
0.00108801
0.00114259
0.00119516
0.00125715
0.00131965
0.00138515
0.00144143
0.00147379
0.00148506
0.00144773
0.0013409
0.00115007
0.000891913
0.000530874
0.000233456
9.55007e-05
3.31065e-05
5.16865e-06
2.60285e-05
0.000110671
0.000179277
0.000195635
0.000215556
0.000280997
0.000452287
0.000728241
0.000969936
0.001065
0.00103369
0.000927873
0.000876449
0.000857289
0.000852807
0.000858933
0.00087154
0.000889152
0.000910784
0.000936555
0.000964579
0.000991873
0.00102133
0.00105269
0.00108736
0.0011242
0.00116287
0.0012025
0.00124082
0.00127577
0.00129411
0.00130049
0.00127648
0.00116049
0.000973762
0.000603485
0.000217467
7.84215e-05
2.97633e-05
4.25935e-06
6.04254e-05
0.000229044
0.000325138
0.000367072
0.000457972
0.000666793
0.000973798
0.00115641
0.00119133
0.00106825
0.000979325
0.000893375
0.000858286
0.000845006
0.000841205
0.000845195
0.000854937
0.000867579
0.000882514
0.000899033
0.000916351
0.000936504
0.000957578
0.000979968
0.00100351
0.00102817
0.00105412
0.00108104
0.00110715
0.00112935
0.00114361
0.00114965
0.00114951
0.0011179
0.00105249
0.000868748
0.000360144
8.61645e-05
2.28944e-05
3.02667e-06
0.000115802
0.000403878
0.0005343
0.000623507
0.000801286
0.00107507
0.00122723
0.0012467
0.00113245
0.000971485
0.000878309
0.000835743
0.000818379
0.00081255
0.000811709
0.000822471
0.00083633
0.000853753
0.000872211
0.000891267
0.00090999
0.000928331
0.000946158
0.000964433
0.000983848
0.0010051
0.00102864
0.00105384
0.00107876
0.00109862
0.00111024
0.00111526
0.00111562
0.00109719
0.0010651
0.00098438
0.000728343
0.000201135
3.36257e-05
3.68861e-06
0.000196147
0.000624293
0.000788895
0.000915673
0.00111508
0.00124599
0.00126599
0.00117008
0.000967375
0.000859704
0.000811091
0.000791038
0.000785017
0.000785001
0.000799073
0.000815884
0.000834873
0.000854175
0.000873248
0.000891177
0.000908137
0.000924291
0.000940487
0.000957412
0.000976839
0.000999485
0.00102622
0.0010571
0.00109192
0.0011299
0.00114881
0.00115318
0.00114961
0.00112742
0.00108177
0.00101633
0.000873642
0.000416634
7.53937e-05
7.30423e-06
0.000300569
0.000853231
0.00104706
0.00116204
0.00125475
0.00127478
0.00119563
0.000985924
0.00084905
0.000791197
0.000768207
0.000761526
0.000762115
0.000777047
0.000794513
0.000811832
0.000829375
0.000844846
0.000857852
0.000868671
0.000878174
0.000888276
0.000900975
0.000917877
0.000939426
0.000967097
0.00100166
0.00104338
0.00109129
0.00114251
0.00119668
0.00123317
0.00124058
0.00123058
0.00118001
0.00107786
0.000931615
0.000661868
0.000154605
1.68301e-05
0.000412884
0.00108062
0.00125635
0.00130119
0.0013064
0.00122328
0.0010321
0.000854701
0.000778771
0.000749637
0.000740943
0.000740471
0.000753671
0.000770129
0.000784712
0.000797659
0.000805692
0.000809092
0.000810161
0.00081064
0.000813145
0.000819145
0.000829746
0.000845707
0.000868538
0.000899567
0.000940198
0.000991502
0.00105371
0.00112499
0.00119976
0.00126996
0.00131157
0.00131861
0.00130252
0.00121941
0.00104136
0.000761067
0.000265273
4.22829e-05
0.000512192
0.0012657
0.00140133
0.00138979
0.00127941
0.00110309
0.000883826
0.000778361
0.000736309
0.000722817
0.000720716
0.000729625
0.000744401
0.000754873
0.000759321
0.000759913
0.000753256
0.000746126
0.00073976
0.000736061
0.000734866
0.000737596
0.000746639
0.000761705
0.000784576
0.000816434
0.000859103
0.000914512
0.000984579
0.00107016
0.00116907
0.00127269
0.00135703
0.00139371
0.00139516
0.00134649
0.00119924
0.000921327
0.000482254
0.000113834
0.000585325
0.00139315
0.00150008
0.00139847
0.00120709
0.000961149
0.000799118
0.000732654
0.000709206
0.000703775
0.000706991
0.000717704
0.000722472
0.000722839
0.000715045
0.000704054
0.000689983
0.000677496
0.000667
0.000660825
0.00065842
0.000659107
0.000667658
0.000682054
0.000704325
0.00073539
0.000777142
0.000831873
0.000902555
0.00099232
0.00110309
0.00123241
0.00136807
0.00146002
0.00148559
0.00146393
0.00133315
0.00104302
0.000588309
0.000203195
0.000637197
0.00147697
0.00155873
0.00137655
0.00110065
0.000859426
0.00074668
0.000702722
0.000688973
0.000686779
0.000691421
0.000693839
0.000690699
0.000679744
0.000663324
0.000645407
0.000627481
0.000612317
0.000600289
0.000593404
0.000590706
0.000590905
0.000599235
0.00061321
0.000634706
0.000664536
0.000704428
0.000756668
0.000824555
0.000912399
0.00102485
0.0011644
0.00132581
0.00148657
0.00156769
0.00157783
0.00149167
0.00121417
0.000731193
0.000290855
0.000666821
0.00151266
0.00156642
0.00132545
0.000998412
0.000795661
0.000711181
0.000679859
0.000670743
0.000669223
0.000669636
0.000664838
0.000652297
0.00063337
0.000611696
0.000590381
0.000570987
0.00055505
0.000542884
0.000536028
0.000533361
0.000533577
0.000541501
0.000554991
0.000575583
0.000604102
0.000642057
0.000691545
0.000755761
0.000839463
0.000949163
0.00109197
0.00127111
0.00147596
0.00162625
0.0016684
0.00161754
0.00135191
0.00084858
0.000362083
0.000666292
0.0015106
0.00155232
0.00125684
0.000916378
0.000751396
0.000684532
0.000660123
0.000652208
0.000649156
0.000644453
0.00063209
0.000612488
0.000588744
0.000564462
0.000541972
0.000522449
0.000506668
0.000494813
0.000488047
0.000485401
0.000485517
0.000492736
0.000505512
0.000525066
0.000552274
0.000588471
0.000635495
0.000696155
0.000774882
0.00087851
0.00101635
0.00119743
0.00142134
0.00165151
0.00175894
0.00175262
0.00151203
0.000969672
0.000429203
0.0006581
0.001494
0.00151743
0.00118243
0.000859775
0.000718454
0.000662376
0.000641449
0.000633361
0.000627886
0.000617545
0.000599063
0.000574868
0.000548639
0.000523455
0.000500966
0.000481892
0.000466555
0.000455018
0.000448125
0.000445319
0.000445209
0.000451453
0.000463287
0.00048168
0.000507572
0.000542213
0.000587263
0.000645183
0.000719959
0.000818248
0.000950582
0.00113077
0.0013689
0.00165172
0.00183461
0.00186319
0.00165613
0.00108942
0.000491428
0.000638262
0.00145554
0.00146334
0.00111592
0.000817829
0.000692046
0.000642705
0.000623664
0.000615103
0.00060641
0.000591091
0.000568252
0.000541402
0.00051417
0.000489016
0.000467034
0.00044857
0.000433683
0.000422357
0.000415137
0.00041199
0.000411602
0.000416736
0.000427452
0.000444558
0.000469053
0.000502171
0.000545462
0.000601083
0.000672443
0.000765436
0.000890283
0.00106284
0.00130091
0.0016072
0.00188638
0.00197262
0.00180667
0.00121052
0.000552485
0.000603647
0.00140317
0.00140275
0.00106033
0.000785208
0.000670087
0.00062515
0.000607162
0.000597852
0.000585945
0.000566745
0.000541071
0.000512874
0.000485476
0.000460778
0.000439455
0.000421591
0.000407094
0.0003959
0.000388278
0.0003847
0.000383983
0.000388017
0.000397513
0.000413229
0.00043622
0.000467768
0.000509412
0.000563151
0.000631978
0.000721077
0.000840027
0.00100553
0.00124064
0.00155924
0.00190915
0.00206356
0.0019483
0.00133435
0.000611917
0.000562763
0.00134416
0.00133936
0.00101441
0.000759231
0.000651524
0.0006096
0.000592524
0.000582082
0.000567448
0.000545479
0.000518111
0.000489368
0.000462215
0.000438116
0.000417451
0.000400132
0.000385979
0.000374896
0.000366943
0.000362884
0.000361807
0.000364831
0.000373079
0.00038733
0.000408705
0.000438564
0.000478506
0.000530475
0.000597134
0.000682903
0.000796248
0.000953546
0.00118198
0.00150896
0.00191491
0.00214819
0.00208738
0.00145857
0.000671134
0.000514328
0.00128661
0.00127833
0.00097774
0.000738996
0.000636024
0.000596185
0.000579773
0.000568184
0.000551491
0.000527714
0.000499446
0.000470612
0.000443866
0.000420368
0.000400303
0.000383473
0.00036964
0.000358671
0.000350582
0.000346015
0.000344551
0.000346689
0.000353722
0.000366485
0.000386163
0.000414217
0.000452361
0.000502606
0.000567464
0.000650753
0.000759729
0.00090945
0.00112847
0.00145541
0.00189667
0.00221948
0.00222001
0.00159047
0.00073005
0.000466308
0.00122727
0.00122082
0.000948634
0.000723468
0.000623292
0.000584755
0.000568784
0.000556304
0.00053827
0.000513477
0.000484856
0.000456183
0.000429879
0.000406919
0.000387377
0.000370988
0.000357471
0.00034666
0.000338543
0.000333539
0.000331667
0.000333052
0.000338951
0.000350255
0.00036821
0.000394374
0.000430604
0.000479068
0.000542271
0.000623598
0.000729147
0.00087223
0.00108108
0.0014016
0.0018621
0.00228594
0.00234695
0.00172334
0.000788675
0.000411195
0.00117595
0.00116972
0.000926478
0.000713253
0.000613415
0.000575266
0.000559502
0.000546455
0.000527735
0.00050257
0.000473993
0.000445612
0.000419724
0.000397216
0.000378113
0.000362114
0.000348906
0.000338289
0.000330221
0.000324906
0.000322606
0.000323363
0.000328239
0.000338164
0.000354438
0.000378701
0.000412936
0.000459548
0.000521175
0.000600966
0.000703991
0.000841594
0.00104058
0.00135182
0.00182284
0.00233134
0.00247134
0.00186439
0.000847404
0.000366794
0.00112054
0.00112458
0.000909838
0.00070696
0.000606164
0.000567281
0.000551528
0.000538347
0.000519595
0.000494623
0.000466413
0.000438453
0.000412956
0.000390804
0.000372038
0.000356359
0.00034343
0.000333019
0.000325044
0.000319591
0.000316881
0.00031715
0.000321077
0.000329735
0.000344444
0.000366895
0.000399112
0.000443817
0.000503885
0.000582425
0.00068367
0.000816868
0.0010065
0.00130641
0.00178247
0.00236331
0.00259216
0.00200813
0.000905532
0.000329191
0.00106353
0.0010823
0.000901151
0.000707559
0.00060243
0.000561246
0.0005449
0.000531791
0.000513514
0.000489233
0.000461718
0.000434208
0.000409031
0.00038716
0.000368677
0.000353281
0.000340617
0.000330414
0.000322545
0.00031705
0.000314145
0.000314235
0.000317425
0.000325009
0.000338285
0.000358791
0.000388949
0.000431762
0.000490279
0.000567759
0.00066786
0.000797684
0.000978668
0.00126578
0.00174244
0.00237874
0.00270996
0.00215973
0.000963614
0.000295985
0.00100733
0.00104388
0.00089734
0.000711152
0.000603202
0.000556791
0.000539091
0.000526263
0.000508982
0.000485864
0.000459274
0.00043273
0.000408157
0.000386593
0.000368277
0.000353011
0.000340462
0.000330344
0.000322498
0.00031693
0.000313854
0.000313766
0.00031642
0.000323298
0.000335679
0.000354793
0.000383081
0.000423661
0.000480341
0.0005569
0.000656389
0.000783769
0.000956885
0.00122998
0.00170446
0.00238469
0.00282475
0.0023156
0.0010206
0.000265817
0.000952936
0.00100959
0.000897805
0.000719734
0.000606702
0.000555411
0.000534835
0.000521779
0.000505627
0.000484053
0.000459166
0.000433303
0.000409044
0.000387625
0.000369386
0.00035419
0.000341737
0.000331746
0.000324048
0.000318629
0.00031567
0.000315572
0.000317796
0.000323849
0.000335355
0.000353588
0.00038084
0.000419852
0.00047506
0.000550757
0.000650043
0.00077591
0.00094105
0.00119868
0.00166435
0.00238545
0.00293481
0.00247807
0.00107685
0.000237656
0.000900091
0.000979344
0.000900034
0.000733216
0.000614629
0.000556653
0.000531313
0.000517828
0.000502959
0.000483261
0.000459834
0.000435075
0.000411471
0.000390373
0.000372297
0.000357235
0.000344947
0.000335164
0.000327693
0.00032248
0.000319681
0.000319723
0.000321808
0.00032745
0.000338292
0.000355363
0.000381007
0.00041886
0.000473177
0.000548371
0.000647571
0.00077273
0.000932137
0.00117301
0.00162472
0.0023751
0.00304049
0.00264515
0.00113128
0.000210994
0.000848808
0.000952337
0.000899762
0.000754045
0.000629061
0.000560971
0.000531351
0.00051477
0.000500671
0.000482946
0.000461427
0.000438361
0.000415771
0.000395198
0.000377376
0.000362463
0.000350323
0.000340729
0.00033349
0.000328525
0.000326025
0.000326272
0.000328484
0.000334102
0.000344677
0.000361168
0.000385827
0.000422044
0.000474509
0.000548466
0.000647531
0.000772408
0.000928551
0.00115265
0.00158598
0.00235776
0.0031408
0.0028182
0.001184
0.000185159
0.000797198
0.000928244
0.000897672
0.000779107
0.000650384
0.000570616
0.000533335
0.000514141
0.000499124
0.000483019
0.000463579
0.000442354
0.000421118
0.000401391
0.00038406
0.000369464
0.000357596
0.000348302
0.000341414
0.00033683
0.000334867
0.000335404
0.000337948
0.000343895
0.000354519
0.000370791
0.000394884
0.000430185
0.000481577
0.000554751
0.00065371
0.0007781
0.000928373
0.00113763
0.00154926
0.00233484
0.00323257
0.00299191
0.00123396
0.000160021
0.000745042
0.000904228
0.000892573
0.000807466
0.000677597
0.00058771
0.000539367
0.000515547
0.000499421
0.000483582
0.000465899
0.000446634
0.000427067
0.000408561
0.00039207
0.000378076
0.00036671
0.000357909
0.000351558
0.00034752
0.00034638
0.000347291
0.000350349
0.000356948
0.000367895
0.000384259
0.000408134
0.000442848
0.000493321
0.000565544
0.000663984
0.000787953
0.000934585
0.00112769
0.0015142
0.00230345
0.00331886
0.00316719
0.00128145
0.000135114
0.000689112
0.00088142
0.000882356
0.000831194
0.000712917
0.000613552
0.000552396
0.000520579
0.000501475
0.000485243
0.000468615
0.000451081
0.000433299
0.000416322
0.000401045
0.000388018
0.000377475
0.000369448
0.00036387
0.000360627
0.000360554
0.000361936
0.000365716
0.000373256
0.000384748
0.00040147
0.000425444
0.000459923
0.000509741
0.000580964
0.000678336
0.000801075
0.000943726
0.00112163
0.00148075
0.0022604
0.00339591
0.00333595
0.00132545
0.000113141
0.000636846
0.000857672
0.000872925
0.000842986
0.000752242
0.00064894
0.000576232
0.000532473
0.000507574
0.000489364
0.000472618
0.000456127
0.000439878
0.000424498
0.000410683
0.000398946
0.000389554
0.000382624
0.000378022
0.000376162
0.000376759
0.000379018
0.000384013
0.000392436
0.000404679
0.000421991
0.000446343
0.000480898
0.000530273
0.000600353
0.000695896
0.000816286
0.000954529
0.0011174
0.00144757
0.0022089
0.0034609
0.00349522
0.00136676
9.48824e-05
0.00058058
0.000838963
0.000863861
0.000847408
0.000788337
0.000691878
0.000612015
0.000556653
0.000521703
0.000498747
0.000480172
0.00046336
0.000447783
0.000433566
0.000421091
0.000410716
0.000402638
0.000397019
0.000393549
0.000393405
0.000394643
0.00039793
0.000404324
0.000413742
0.000426871
0.000444953
0.000469895
0.000504761
0.000553788
0.000622449
0.000715181
0.000831735
0.000964769
0.00111375
0.00141614
0.00215233
0.00350786
0.00363435
0.00140488
7.86113e-05
0.000511745
0.000830059
0.000859039
0.000849289
0.000813979
0.000737627
0.000659442
0.000596672
0.000550959
0.000518777
0.000495511
0.000476249
0.000459709
0.000445488
0.000433581
0.000424076
0.000417084
0.000412467
0.000410588
0.000411237
0.00041344
0.000418134
0.000425628
0.000436063
0.000450127
0.000469078
0.000494715
0.000529975
0.000578527
0.000645279
0.000734034
0.000845134
0.000972268
0.00110973
0.00139083
0.0020986
0.00353524
0.00373943
0.00144155
6.35421e-05
0.00043115
0.000810013
0.000856948
0.000852629
0.000833125
0.000783543
0.000715104
0.000652095
0.000599715
0.000558579
0.000526679
0.000501636
0.000481428
0.000464947
0.000451869
0.000441866
0.000434986
0.000430522
0.000429587
0.000430616
0.000433428
0.000439082
0.000447358
0.000458604
0.000473454
0.000493185
0.0005194
0.000554874
0.000602512
0.000666659
0.0007503
0.000854688
0.000976025
0.00110761
0.0013796
0.0020705
0.00354935
0.0037894
0.00147857
5.50979e-05
0.00036279
0.000763308
0.000848906
0.000853566
0.000847838
0.000826836
0.000780711
0.000725075
0.000672365
0.000625616
0.00058571
0.000552442
0.00052507
0.000502974
0.000485621
0.00047243
0.000463254
0.000457235
0.000454847
0.000455491
0.000457871
0.000463022
0.0004712
0.00048255
0.000497628
0.000517698
0.000544035
0.00057924
0.000625338
0.000686341
0.000764533
0.000862613
0.000981069
0.00111295
0.00138032
0.0020611
0.00356561
0.00380485
0.00151115
5.58909e-05
0.000336834
0.000682961
0.000824334
0.000855744
0.000866536
0.000863939
0.000848977
0.000814995
0.00076949
0.000723181
0.000679174
0.000639252
0.000604259
0.000574543
0.000550069
0.000530551
0.000515671
0.000504999
0.000498018
0.000494884
0.000495456
0.000498134
0.000504203
0.000514397
0.00052881
0.000548562
0.000574575
0.000609291
0.000654044
0.000712926
0.00078832
0.000885017
0.00101002
0.00116498
0.00145889
0.00213632
0.00360346
0.00378038
0.00152283
7.6036e-05
0.000348675
0.000602181
0.000773154
0.000862186
0.000905455
0.000927286
0.000932019
0.000924079
0.00090187
0.000863946
0.000821308
0.000778041
0.0007365
0.0006983
0.000664375
0.000635244
0.000611132
0.000591997
0.000577562
0.000567995
0.000563166
0.000563875
0.000567328
0.000575186
0.000588914
0.00060902
0.000636396
0.000673287
0.000721331
0.000784954
0.0008688
0.000979427
0.00113377
0.00134203
0.00169296
0.00237349
0.00368121
0.00367937
0.00152383
0.000117427
0.00041929
0.000612493
0.000790311
0.000912036
0.00100024
0.00105713
0.001085
0.00108855
0.00108077
0.00105928
0.0010215
0.000977163
0.000930361
0.000884773
0.000841453
0.000804484
0.000774346
0.000749685
0.000732168
0.000720147
0.000714041
0.00071543
0.00072102
0.000733174
0.000754432
0.000783749
0.000823571
0.000876777
0.000946849
0.00103871
0.00116079
0.00132045
0.00154467
0.00183489
0.00228741
0.00292044
0.0038224
0.00358853
0.00148103
0.000193431
0.000584033
0.000759705
0.000964044
0.00112728
0.00125905
0.00134862
0.0013994
0.00140922
0.00140242
0.00138373
0.00134911
0.00130928
0.00126766
0.00122829
0.00119458
0.00116485
0.00114342
0.00112702
0.00112435
0.00112817
0.00113925
0.00116168
0.00119669
0.00124176
0.00130158
0.00137562
0.00146724
0.00157973
0.00171173
0.00188277
0.00208718
0.0023535
0.00266975
0.00306578
0.00355568
0.00398622
0.00414616
0.00348468
0.00139988
0.000338542
0.000989563
0.00138099
0.00174834
0.00197376
0.00212116
0.00220821
0.00225863
0.00225835
0.00225046
0.00223361
0.00221222
0.00219435
0.00217862
0.0021745
0.0021793
0.00219192
0.0022186
0.00225427
0.0023062
0.00236881
0.00244912
0.00254054
0.0026514
0.00277665
0.00292051
0.00308537
0.0032641
0.00347727
0.00369257
0.00396452
0.00419957
0.00454791
0.00476012
0.00516455
0.00519645
0.00502286
0.00439117
0.00305917
0.00122352
0.000229182
0.000358286
0.000470714
0.000589299
0.000695376
0.000791821
0.000870018
0.000937961
0.00098439
0.00101635
0.00103513
0.00104524
0.00104476
0.00104138
0.00103396
0.00102399
0.00101277
0.0010016
0.000990651
0.000981252
0.000972857
0.000967449
0.000962893
0.000962901
0.000964494
0.000968443
0.000977743
0.000986368
0.00100516
0.00101828
0.00104684
0.00106431
0.00110413
0.00113342
0.00119906
0.00123825
0.00130532
0.00130827
0.00126336
0.00105525
)
;

boundaryField
{
    movingWall
    {
        type            kqRWallFunction;
        value           nonuniform List<scalar> 
40
(
0.000229182
0.000358286
0.000470714
0.000589299
0.000695376
0.000791821
0.000870018
0.000937961
0.00098439
0.00101635
0.00103513
0.00104524
0.00104476
0.00104138
0.00103396
0.00102399
0.00101277
0.0010016
0.000990651
0.000981252
0.000972857
0.000967449
0.000962893
0.000962901
0.000964494
0.000968443
0.000977743
0.000986368
0.00100516
0.00101828
0.00104684
0.00106431
0.00110413
0.00113342
0.00119906
0.00123825
0.00130532
0.00130827
0.00126336
0.00105525
)
;
    }
    fixedWalls
    {
        type            kqRWallFunction;
        value           nonuniform List<scalar> 
120
(
1.79281e-06
8.65875e-06
2.60285e-05
6.04254e-05
0.000115802
0.000196147
0.000300569
0.000412884
0.000512192
0.000585325
0.000637197
0.000666821
0.000666292
0.0006581
0.000638262
0.000603647
0.000562763
0.000514328
0.000466308
0.000411195
0.000366794
0.000329191
0.000295985
0.000265817
0.000237656
0.000210994
0.000185159
0.000160021
0.000135114
0.000113141
9.48824e-05
7.86113e-05
6.35421e-05
5.50979e-05
5.58909e-05
7.6036e-05
0.000117427
0.000193431
0.000338542
0.000229182
2.92551e-06
5.16865e-06
4.25935e-06
3.02667e-06
3.68861e-06
7.30423e-06
1.68301e-05
4.22829e-05
0.000113834
0.000203195
0.000290855
0.000362083
0.000429203
0.000491428
0.000552485
0.000611917
0.000671134
0.00073005
0.000788675
0.000847404
0.000905532
0.000963614
0.0010206
0.00107685
0.00113128
0.001184
0.00123396
0.00128145
0.00132545
0.00136676
0.00140488
0.00144155
0.00147857
0.00151115
0.00152283
0.00152383
0.00148103
0.00139988
0.00122352
0.00105525
1.79281e-06
6.47417e-06
1.29227e-05
1.34733e-05
1.25268e-05
1.28697e-05
1.63297e-05
2.68595e-05
3.93823e-05
5.35112e-05
8.52556e-05
0.00011104
0.000123863
0.000136587
0.000157123
0.00018448
0.000211216
0.000240551
0.000270329
0.000302829
0.000337569
0.000376026
0.000418897
0.000467899
0.000525912
0.000578776
0.000632171
0.000678062
0.000717695
0.000738989
0.000747393
0.000731114
0.000668865
0.000562241
0.000415803
0.000239104
0.000113138
4.62033e-05
1.43669e-05
2.92551e-06
)
;
    }
    frontAndBack
    {
        type            empty;
    }
}


// ************************************************************************* //
