/*--------------------------------*- C++ -*----------------------------------*\
  =========                 |
  \\      /  F ield         | OpenFOAM: The Open Source CFD Toolbox
   \\    /   O peration     | Website:  https://openfoam.org
    \\  /    A nd           | Version:  13
     \\/     M anipulation  |
\*---------------------------------------------------------------------------*/
FoamFile
{
    format      ascii;
    class       volScalarField;
    location    "6";
    object      p;
}
// * * * * * * * * * * * * * * * * * * * * * * * * * * * * * * * * * * * * * //

dimensions      [0 2 -2 0 0 0 0];

internalField   nonuniform List<scalar> 
1600
(
1.73504e-08
-1.72652e-05
-9.1667e-05
-0.00020241
-0.000306127
-0.000388715
-0.000464042
-0.000562484
-0.000695391
-0.000862515
-0.00107087
-0.00137414
-0.00177929
-0.00201198
-0.00219826
-0.00266816
-0.0034191
-0.00430353
-0.00517025
-0.00588715
-0.00635958
-0.00651963
-0.00631584
-0.00570373
-0.00470074
-0.00332396
-0.00157955
0.000478027
0.00274292
0.00501271
0.00701608
0.00844651
0.0090827
0.00889303
0.00794745
0.0069664
0.00635663
0.00625136
0.00634138
0.00638251
-1.48478e-05
-5.45398e-05
-0.000137903
-0.000246181
-0.000325524
-0.000370918
-0.0004128
-0.000491044
-0.000613932
-0.000760572
-0.000894425
-0.00109411
-0.00147712
-0.00197765
-0.00253959
-0.00323738
-0.00407122
-0.00496489
-0.00580876
-0.00649654
-0.0069471
-0.00710281
-0.00692098
-0.00637838
-0.00546533
-0.00416347
-0.00249882
-0.000520839
0.00165995
0.00387823
0.00589465
0.00741408
0.0081954
0.0081568
0.00740935
0.00645776
0.0059798
0.00604587
0.00620429
0.00628026
-3.34555e-05
-0.00011251
-0.000224104
-0.000330163
-0.000378235
-0.00037516
-0.000371409
-0.000395555
-0.000467784
-0.000649576
-0.000975795
-0.00142047
-0.00200103
-0.00271445
-0.00354206
-0.00444439
-0.00536829
-0.0062562
-0.00704343
-0.00766725
-0.00807237
-0.00820665
-0.00803831
-0.007548
-0.00671113
-0.00552171
-0.00399873
-0.00218365
-0.000154367
0.00196633
0.00398034
0.00564936
0.00673324
0.00708182
0.0067694
0.00617356
0.00586338
0.00592229
0.00607794
0.00612814
-3.10693e-05
-0.000149796
-0.00030346
-0.000399427
-0.000410695
-0.000375275
-0.000359803
-0.000408802
-0.000570852
-0.000927818
-0.00151788
-0.00228762
-0.00316258
-0.00410498
-0.0050926
-0.00608287
-0.00702738
-0.00788714
-0.00862243
-0.00919347
-0.00955508
-0.00966307
-0.00949641
-0.00904116
-0.00828446
-0.0072237
-0.00587215
-0.00425816
-0.00243287
-0.000474514
0.00148446
0.00327287
0.00468383
0.00555466
0.0059005
0.00590419
0.00591744
0.00595081
0.00602119
0.00601776
9.09344e-05
-8.57642e-05
-0.000263519
-0.000357827
-0.000376157
-0.000372109
-0.000425699
-0.000618531
-0.00102274
-0.00168202
-0.00257255
-0.00360952
-0.00470642
-0.00580799
-0.00687988
-0.00789848
-0.00884108
-0.0096849
-0.0103848
-0.0109019
-0.0112054
-0.0112836
-0.0111232
-0.0107109
-0.0100385
-0.0091073
-0.00792352
-0.00650272
-0.00487675
-0.0031025
-0.00126204
0.000539674
0.00218326
0.00355832
0.00461013
0.00534781
0.00582809
0.00605138
0.00601064
0.00594263
0.000399574
0.000150499
-4.79809e-05
-0.000176115
-0.000263177
-0.000382911
-0.00063283
-0.00110382
-0.00184163
-0.00282401
-0.00397409
-0.00520087
-0.00643472
-0.0076251
-0.00874784
-0.00978412
-0.0107061
-0.0114872
-0.012104
-0.0125463
-0.0127995
-0.0128546
-0.0127039
-0.012337
-0.0117503
-0.0109451
-0.00992493
-0.00869726
-0.00727697
-0.00569145
-0.00398397
-0.00221584
-0.000455686
0.0012551
0.00287134
0.00429215
0.00535014
0.00595004
0.00593788
0.00582817
0.000874117
0.000573239
0.00032335
0.000114157
-0.00011791
-0.000467791
-0.00102962
-0.00185919
-0.00294061
-0.00420205
-0.00554806
-0.00690318
-0.00821369
-0.00944093
-0.0105617
-0.0115576
-0.0124161
-0.0131235
-0.0136707
-0.0140533
-0.0142645
-0.0142995
-0.0141542
-0.0138237
-0.0133072
-0.0126062
-0.0117236
-0.0106634
-0.00943151
-0.00803712
-0.0064941
-0.00482136
-0.00303515
-0.00114472
0.000819391
0.00275246
0.00440029
0.00548367
0.00586901
0.00565448
0.00144839
0.00110347
0.000757988
0.000414615
-3.77653e-05
-0.000700697
-0.00163242
-0.0028229
-0.00420364
-0.00567629
-0.00715591
-0.0085839
-0.0099181
-0.0111321
-0.0122115
-0.0131479
-0.0139382
-0.0145786
-0.0150666
-0.0154004
-0.0155777
-0.0155968
-0.0154561
-0.0151548
-0.0146938
-0.0140748
-0.0133005
-0.0123732
-0.0112943
-0.0100634
-0.00867801
-0.00713157
-0.00540849
-0.00348355
-0.00135079
0.000902144
0.00302583
0.00468595
0.00560866
0.00529526
0.0019671
0.00155291
0.00110266
0.000591474
-0.000130145
-0.00113811
-0.00242565
-0.00392669
-0.00553303
-0.00714894
-0.00870535
-0.0101582
-0.0114783
-0.0126527
-0.0136768
-0.0145512
-0.0152784
-0.01586
-0.0162975
-0.0165915
-0.0167424
-0.0167506
-0.0166158
-0.0163393
-0.0159225
-0.015368
-0.0146783
-0.0138553
-0.0128983
-0.0118022
-0.0105557
-0.00913837
-0.00751856
-0.00565191
-0.00349619
-0.00108264
0.00137224
0.00352598
0.00491804
0.00501187
0.00227132
0.00179344
0.00123035
0.000531975
-0.000468044
-0.00179695
-0.00337956
-0.00510793
-0.00686522
-0.0085626
-0.0101479
-0.0115902
-0.0128741
-0.0139975
-0.0149639
-0.0157797
-0.0164512
-0.0169832
-0.0173797
-0.0176432
-0.0177752
-0.0177772
-0.0176497
-0.0173945
-0.0170136
-0.0165096
-0.0158852
-0.0151422
-0.0142799
-0.0132923
-0.0121653
-0.0108733
-0.00937804
-0.00762559
-0.00554843
-0.00311659
-0.00049599
0.00195952
0.00385247
0.00486072
0.00225604
0.00172864
0.0010577
0.000178769
-0.00107176
-0.00265445
-0.0044517
-0.00632023
-0.00816025
-0.00988655
-0.0114637
-0.0128719
-0.0141074
-0.0151761
-0.0160872
-0.0168506
-0.017475
-0.0179672
-0.0183324
-0.0185738
-0.0186937
-0.0186936
-0.0185747
-0.0183387
-0.0179877
-0.0175243
-0.0169511
-0.0162701
-0.0154812
-0.0145794
-0.0135515
-0.012373
-0.0110053
-0.0093946
-0.00746555
-0.00514202
-0.00249802
7.04343e-05
0.00229796
0.00383076
0.00189397
0.00132754
0.000562757
-0.000468042
-0.00190785
-0.00366743
-0.00558665
-0.0075271
-0.00939062
-0.0111049
-0.0126473
-0.0140068
-0.0151885
-0.0162033
-0.0170639
-0.0177823
-0.0183684
-0.0188297
-0.0191717
-0.0193979
-0.0195107
-0.0195117
-0.0194022
-0.0191839
-0.0188586
-0.0184288
-0.0178969
-0.0172654
-0.0165347
-0.0157019
-0.0147569
-0.0136789
-0.0124333
-0.0109703
-0.00922091
-0.00709055
-0.00454986
-0.00200345
0.000248573
0.00185122
0.00120627
0.000618464
-0.000213785
-0.00135954
-0.00291597
-0.00477175
-0.00673568
-0.00869255
-0.0105351
-0.0122088
-0.0136995
-0.015003
-0.01613
-0.0170944
-0.0179104
-0.018591
-0.0191463
-0.0195839
-0.0199089
-0.020125
-0.0202343
-0.0202383
-0.0201385
-0.0199364
-0.0196337
-0.0192324
-0.0187351
-0.0181441
-0.0174611
-0.016685
-0.0158097
-0.0148197
-0.0136865
-0.012367
-0.0108012
-0.00890127
-0.00659634
-0.00415525
-0.00207215
-0.000618579
0.000264013
-0.000324717
-0.00119351
-0.00240964
-0.0040244
-0.00590186
-0.00785691
-0.00978594
-0.0115777
-0.0131936
-0.0146238
-0.0158693
-0.0169437
-0.0178623
-0.0186398
-0.019289
-0.0198197
-0.0202389
-0.0205514
-0.0207607
-0.0208686
-0.0208767
-0.0207864
-0.0205991
-0.0203162
-0.0199397
-0.0194719
-0.0189154
-0.0182727
-0.0175447
-0.0167289
-0.015816
-0.0147848
-0.0136
-0.0122102
-0.0105455
-0.00853146
-0.00628117
-0.0044534
-0.00322845
-0.000832203
-0.00140811
-0.00228753
-0.00352812
-0.0051487
-0.00699648
-0.00891274
-0.0107831
-0.0125071
-0.0140566
-0.0154238
-0.0166131
-0.0176391
-0.0185171
-0.0192617
-0.0198849
-0.0203956
-0.0208004
-0.0211035
-0.021308
-0.0214159
-0.0214284
-0.0213469
-0.0211727
-0.0209073
-0.0205524
-0.0201102
-0.0195834
-0.0189752
-0.0182884
-0.017524
-0.0166778
-0.0157366
-0.0146739
-0.0134487
-0.0120081
-0.010282
-0.00829527
-0.00671806
-0.00571689
-0.00198199
-0.00253237
-0.00340333
-0.00463234
-0.00622061
-0.00801066
-0.00986806
-0.0116646
-0.0133148
-0.0147964
-0.0161028
-0.0172402
-0.0182229
-0.0190657
-0.0197824
-0.020384
-0.0208785
-0.0212717
-0.0215676
-0.0217688
-0.0218771
-0.0218938
-0.0218201
-0.0216575
-0.0214071
-0.0210708
-0.0206506
-0.0201495
-0.0195712
-0.0189198
-0.0181992
-0.0174101
-0.0165463
-0.01559
-0.0145097
-0.0132626
-0.0117956
-0.010129
-0.00878261
-0.00794499
-0.00309027
-0.00360811
-0.00445514
-0.00565415
-0.00719009
-0.00891009
-0.010697
-0.0124159
-0.0139941
-0.0154118
-0.0166629
-0.0177543
-0.0186996
-0.0195127
-0.0202061
-0.0207898
-0.0212711
-0.0216551
-0.0219452
-0.0221439
-0.0222528
-0.0222731
-0.0222062
-0.0220532
-0.0218154
-0.0214947
-0.0210931
-0.0206137
-0.0200606
-0.0194392
-0.0187556
-0.0180145
-0.017216
-0.0163499
-0.0153924
-0.0143067
-0.0130596
-0.0116869
-0.0105571
-0.00985163
-0.00408549
-0.00456291
-0.00537636
-0.00653832
-0.0080174
-0.009667
-0.0113818
-0.0130273
-0.0145402
-0.0159013
-0.0171048
-0.0181575
-0.0190717
-0.0198604
-0.0205349
-0.0211043
-0.0215751
-0.0219518
-0.0222374
-0.0224342
-0.0225436
-0.0225669
-0.0225052
-0.0223598
-0.0221321
-0.0218238
-0.0214371
-0.0209753
-0.0204428
-0.0198457
-0.019192
-0.0184898
-0.0177442
-0.016952
-0.0160956
-0.0151443
-0.0140823
-0.0129552
-0.0120142
-0.011412
-0.00490924
-0.00535137
-0.0061257
-0.0072481
-0.00867299
-0.0102609
-0.0119103
-0.0134919
-0.0149495
-0.0162637
-0.0174287
-0.0184504
-0.0193403
-0.02011
-0.0207701
-0.0213286
-0.0217915
-0.0221627
-0.022445
-0.0226403
-0.0227501
-0.0227755
-0.0227177
-0.0225778
-0.0223573
-0.022058
-0.0216823
-0.0212336
-0.0207166
-0.020138
-0.019507
-0.0188342
-0.0181291
-0.0173942
-0.0166183
-0.0157778
-0.014866
-0.0139225
-0.0131422
-0.0126273
-0.0055366
-0.00593522
-0.00667626
-0.00776383
-0.0091411
-0.0106791
-0.0122747
-0.0138048
-0.0152189
-0.0164973
-0.0176336
-0.0186329
-0.0195053
-0.0202618
-0.0209119
-0.0214631
-0.0219207
-0.0222884
-0.0225687
-0.0227632
-0.0228733
-0.0229
-0.0228444
-0.0227078
-0.0224916
-0.0221977
-0.0218287
-0.0213881
-0.0208809
-0.0203144
-0.0196986
-0.0190459
-0.018369
-0.0176752
-0.0169602
-0.0162075
-0.015414
-0.0146117
-0.013956
-0.0135095
-0.00594207
-0.00630584
-0.00702313
-0.00808084
-0.0094159
-0.0109168
-0.012471
-0.0139628
-0.0153463
-0.0166004
-0.0177182
-0.0187037
-0.019566
-0.0203149
-0.02096
-0.0215078
-0.0219632
-0.0223295
-0.0226092
-0.0228036
-0.022914
-0.0229413
-0.0228865
-0.0227508
-0.0225358
-0.0222436
-0.0218767
-0.0214389
-0.0209354
-0.0203739
-0.0197652
-0.0191228
-0.018462
-0.0177943
-0.0171212
-0.0164342
-0.0157309
-0.0150321
-0.0144705
-0.0140775
-0.00611132
-0.00645956
-0.00716655
-0.00820341
-0.00950245
-0.0109739
-0.0124972
-0.0139645
-0.0153301
-0.0165713
-0.0176805
-0.0186608
-0.0195205
-0.0202687
-0.0209139
-0.0214624
-0.0219188
-0.0222864
-0.0225671
-0.0227625
-0.0228733
-0.0229006
-0.0228451
-0.0227081
-0.0224911
-0.0221964
-0.0218267
-0.021386
-0.0208797
-0.0203158
-0.0197058
-0.0190632
-0.018407
-0.0177508
-0.0171021
-0.0164598
-0.0158246
-0.0152038
-0.0147095
-0.01435
-0.00607504
-0.00641203
-0.00711414
-0.00813901
-0.0094103
-0.0108547
-0.01236
-0.0138131
-0.0151703
-0.0164084
-0.0175184
-0.0185022
-0.0193669
-0.0201209
-0.0207719
-0.0213258
-0.0217872
-0.022159
-0.0224431
-0.0226407
-0.0227525
-0.0227793
-0.0227218
-0.0225812
-0.022359
-0.0220575
-0.0216796
-0.0212295
-0.0207132
-0.020139
-0.0195185
-0.0188669
-0.018203
-0.0175443
-0.0169029
-0.016285
-0.0156971
-0.0151328
-0.0146993
-0.0143427
-0.00587151
-0.00619517
-0.00689145
-0.00790821
-0.00915604
-0.0105695
-0.0120627
-0.0135096
-0.0148663
-0.0161095
-0.0172289
-0.0182246
-0.0191023
-0.019869
-0.020532
-0.0210967
-0.0215675
-0.0219471
-0.0222373
-0.0224389
-0.0225526
-0.0225789
-0.0225183
-0.022372
-0.0221414
-0.0218287
-0.021437
-0.0209709
-0.0204366
-0.0198433
-0.0192031
-0.018532
-0.017849
-0.0171743
-0.0165243
-0.0159124
-0.0153527
-0.0148208
-0.0144589
-0.0140683
-0.00554282
-0.00585093
-0.00653413
-0.00753676
-0.00876139
-0.010138
-0.0116103
-0.0130547
-0.0144166
-0.0156717
-0.0168081
-0.0178238
-0.0187224
-0.0195095
-0.0201914
-0.0207732
-0.0212586
-0.0216504
-0.0219498
-0.0221577
-0.0222746
-0.0223006
-0.0222361
-0.0220821
-0.02184
-0.0215118
-0.0211009
-0.0206118
-0.0200516
-0.0194299
-0.0187598
-0.0180579
-0.0173446
-0.016641
-0.0159676
-0.0153467
-0.0148004
-0.0142718
-0.013956
-0.0135418
-0.00514391
-0.00543038
-0.00608409
-0.00705358
-0.00824472
-0.00958172
-0.0110162
-0.0124527
-0.0138209
-0.0150919
-0.0162515
-0.0172947
-0.0182222
-0.019038
-0.0197466
-0.0203525
-0.0208587
-0.0212676
-0.0215804
-0.0217976
-0.0219194
-0.0219458
-0.0218769
-0.0217134
-0.0214567
-0.0211088
-0.0206728
-0.020154
-0.0195597
-0.0189002
-0.0181897
-0.017446
-0.0166905
-0.0159453
-0.0152353
-0.0145939
-0.0140499
-0.013498
-0.0132193
-0.0127781
-0.00474071
-0.00499089
-0.00558647
-0.00649329
-0.00762617
-0.00891103
-0.0102955
-0.0117102
-0.0130791
-0.0143666
-0.0155537
-0.0166312
-0.017596
-0.0184492
-0.0191932
-0.0198311
-0.0203653
-0.0207974
-0.0211284
-0.0213585
-0.0214877
-0.0215157
-0.0214422
-0.021268
-0.020994
-0.0206221
-0.0201556
-0.0196
-0.0189631
-0.0182563
-0.0174949
-0.016698
-0.015888
-0.0150886
-0.0143295
-0.0136547
-0.013097
-0.0125039
-0.0122834
-0.0117928
-0.0043981
-0.00458327
-0.00507986
-0.00588823
-0.00693178
-0.00813902
-0.00945814
-0.0108326
-0.0121913
-0.013492
-0.014709
-0.0158268
-0.0168372
-0.0177371
-0.018526
-0.0192051
-0.0197754
-0.0202379
-0.0205929
-0.0208405
-0.0209803
-0.0210117
-0.0209343
-0.0207484
-0.0204549
-0.0200553
-0.0195531
-0.0189539
-0.0182663
-0.0175027
-0.0166798
-0.015818
-0.0149415
-0.0140749
-0.0132535
-0.0125308
-0.0119418
-0.0113062
-0.0111522
-0.0105785
-0.00415681
-0.00423407
-0.00458971
-0.00526591
-0.00618812
-0.0072845
-0.00851237
-0.00982484
-0.0111584
-0.0124655
-0.0137123
-0.0148754
-0.0159394
-0.0168957
-0.0177399
-0.0184703
-0.0190861
-0.0195872
-0.0199733
-0.0202439
-0.0203983
-0.0204358
-0.0203557
-0.020158
-0.0198433
-0.019413
-0.0188706
-0.018222
-0.0174763
-0.0166471
-0.0157526
-0.0148145
-0.0138591
-0.0129123
-0.0120148
-0.0112281
-0.0105895
-0.00988817
-0.00983365
-0.00910125
-0.00399486
-0.00392208
-0.00412876
-0.00465087
-0.00541749
-0.0063661
-0.00746923
-0.00869344
-0.00998325
-0.0112866
-0.0125608
-0.0137725
-0.0148976
-0.0159203
-0.0168307
-0.0176234
-0.0182951
-0.0188442
-0.0192693
-0.0195695
-0.0197437
-0.0197909
-0.0197106
-0.0195018
-0.0191653
-0.0187025
-0.0181168
-0.017414
-0.0166043
-0.0157018
-0.0147265
-0.0137015
-0.0126551
-0.011615
-0.0106273
-0.00975949
-0.00904771
-0.00824939
-0.00832389
-0.00728162
-0.00378816
-0.00361138
-0.00370942
-0.00406194
-0.00463577
-0.00539811
-0.00634178
-0.00744916
-0.0086736
-0.00996011
-0.0112566
-0.0125186
-0.0137113
-0.0148098
-0.0157975
-0.0166639
-0.0174026
-0.0180098
-0.0184829
-0.0188203
-0.0190205
-0.0190823
-0.019005
-0.0187874
-0.0184301
-0.0179347
-0.0173043
-0.016545
-0.0156673
-0.0146863
-0.0136228
-0.0125014
-0.0113523
-0.0102055
-0.00911323
-0.00814486
-0.00733552
-0.00642639
-0.00657564
-0.0050389
-0.00349999
-0.00333475
-0.00334922
-0.00351027
-0.00385479
-0.00439336
-0.00514413
-0.00610667
-0.00724396
-0.00849913
-0.00981079
-0.0111224
-0.0123872
-0.0135698
-0.0146451
-0.0155965
-0.0164134
-0.0170893
-0.01762
-0.0180031
-0.0182364
-0.018319
-0.0182495
-0.0180272
-0.0176522
-0.0171262
-0.0164527
-0.0156376
-0.0146914
-0.0136295
-0.0124734
-0.011248
-0.00998587
-0.00871914
-0.00750677
-0.00641493
-0.00548205
-0.00445061
-0.00453923
-0.00236021
-0.00324638
-0.00313462
-0.00305585
-0.00300346
-0.00308525
-0.00336476
-0.0038926
-0.00468668
-0.00571854
-0.00692911
-0.00824807
-0.0096067
-0.0109456
-0.0122179
-0.013389
-0.0144351
-0.0153405
-0.0160952
-0.0166931
-0.0171306
-0.0174054
-0.0175158
-0.0174609
-0.0172403
-0.0168531
-0.0163021
-0.0155906
-0.0147245
-0.0137138
-0.0125733
-0.011324
-0.0099902
-0.00860592
-0.00720526
-0.00585362
-0.00460937
-0.00351486
-0.00231204
-0.00216663
0.000659729
-0.00304983
-0.00299354
-0.00281351
-0.00253997
-0.00233347
-0.00232457
-0.00260627
-0.00321665
-0.00413279
-0.00529077
-0.00661081
-0.00801273
-0.00942495
-0.0107891
-0.0120607
-0.0132081
-0.0142096
-0.0150515
-0.0157252
-0.0162256
-0.0165501
-0.0166967
-0.0166645
-0.0164539
-0.0160645
-0.0154979
-0.0147583
-0.0138514
-0.0127859
-0.0115743
-0.0102358
-0.00879187
-0.0072766
-0.00572306
-0.00420012
-0.0027529
-0.00142943
3.9839e-05
0.000558789
0.00401993
-0.00285049
-0.00285922
-0.00258156
-0.00209322
-0.00158843
-0.00128098
-0.00131121
-0.00173602
-0.0025361
-0.00364137
-0.00496109
-0.0064036
-0.00788633
-0.00934051
-0.0107124
-0.0119627
-0.0130637
-0.0139976
-0.014753
-0.0153233
-0.0157051
-0.0158965
-0.0158967
-0.0157063
-0.0153279
-0.0147592
-0.0140062
-0.0130736
-0.0119682
-0.0106981
-0.00927836
-0.00772378
-0.00606483
-0.00432627
-0.00257235
-0.000823816
0.00086425
0.00277745
0.00387438
0.00812012
-0.00260842
-0.00265863
-0.00231299
-0.00162129
-0.000831257
-0.000245992
-4.51376e-05
-0.00030168
-0.000997907
-0.00205747
-0.00337991
-0.00486256
-0.00641217
-0.00795109
-0.00941807
-0.010767
-0.0119651
-0.0129906
-0.0138297
-0.0144737
-0.0149184
-0.0151619
-0.0152038
-0.0150444
-0.0146862
-0.0141323
-0.0133817
-0.0124393
-0.0113106
-0.00999628
-0.00850479
-0.00683771
-0.00501518
-0.00303805
-0.000950454
0.0012793
0.0035991
0.00633123
0.0085386
0.0143912
-0.00232327
-0.00238151
-0.00195135
-0.00109045
-5.59191e-05
0.000749274
0.00113156
0.00100842
0.000394123
-0.000629705
-0.00195514
-0.00347224
-0.00508023
-0.00669398
-0.00824627
-0.00968526
-0.0109738
-0.0120863
-0.0130069
-0.0137251
-0.0142354
-0.0145353
-0.0146252
-0.0145055
-0.0141786
-0.0136447
-0.0129073
-0.011965
-0.0108234
-0.00947535
-0.00792159
-0.0061406
-0.00413109
-0.00184293
0.000722521
0.0037155
0.00712256
0.0114606
0.0161561
0.0257338
-0.00214478
-0.00215141
-0.00156644
-0.00052231
0.000673613
0.00165593
0.00215498
0.0021154
0.00154853
0.00053691
-0.000803412
-0.00235661
-0.0040174
-0.00569513
-0.00731865
-0.00883164
-0.0101943
-0.0113787
-0.0123674
-0.0131481
-0.0137154
-0.014065
-0.0141985
-0.0141153
-0.0138186
-0.0133075
-0.0125854
-0.0116454
-0.0104888
-0.00910667
-0.00749702
-0.00560697
-0.00340291
-0.000748642
0.00242748
0.00651176
0.0116291
0.0189629
0.0287202
0.0453049
-0.00308962
-0.00248541
-0.00144195
-9.14503e-05
0.00129618
0.0023801
0.00295332
0.00295692
0.00241358
0.00141039
6.36479e-05
-0.00151125
-0.00320893
-0.00493548
-0.00661584
-0.00818877
-0.00961223
-0.0108545
-0.0118974
-0.0127262
-0.0133373
-0.0137246
-0.0138908
-0.0138338
-0.0135584
-0.0130613
-0.0123478
-0.0114106
-0.0102531
-0.00885175
-0.00719141
-0.00521826
-0.002867
8.59176e-05
0.00386006
0.0092137
0.0167984
0.0288906
0.04688
0.0734378
-0.00524056
-0.00167337
-8.49933e-05
0.00123894
0.00250593
0.00349057
0.00398437
0.00391559
0.003314
0.00227153
0.000893294
-0.000715807
-0.00245412
-0.00422925
-0.00596137
-0.00758913
-0.00906592
-0.0103595
-0.0114467
-0.0123153
-0.0129577
-0.0133733
-0.0135602
-0.0135215
-0.0132565
-0.0127686
-0.012053
-0.0111098
-0.00992446
-0.00849159
-0.00679534
-0.00482347
-0.00251161
0.000597308
0.00467777
0.0112043
0.0220077
0.0399184
0.0677186
0.102736
)
;

boundaryField
{
    movingWall
    {
        type            zeroGradient;
    }
    fixedWalls
    {
        type            zeroGradient;
    }
    frontAndBack
    {
        type            empty;
    }
}


// ************************************************************************* //
