/*--------------------------------*- C++ -*----------------------------------*\
  =========                 |
  \\      /  F ield         | OpenFOAM: The Open Source CFD Toolbox
   \\    /   O peration     | Website:  https://openfoam.org
    \\  /    A nd           | Version:  13
     \\/     M anipulation  |
\*---------------------------------------------------------------------------*/
FoamFile
{
    format      ascii;
    class       surfaceScalarField;
    location    "6";
    object      phi;
}
// * * * * * * * * * * * * * * * * * * * * * * * * * * * * * * * * * * * * * //

dimensions      [0 3 -1 0 0 0 0];

internalField   nonuniform List<scalar> 
3120
(
8.29441e-08
-8.29457e-08
2.10124e-07
-1.2718e-07
3.08629e-07
-9.85053e-08
3.45432e-07
-3.68034e-08
3.38777e-07
6.65546e-09
3.20924e-07
1.78527e-08
3.12965e-07
7.95864e-09
3.09237e-07
3.72836e-09
2.89364e-07
1.98731e-08
2.37826e-07
5.15381e-08
1.37552e-07
1.00273e-07
-5.39327e-08
1.91485e-07
-3.57485e-07
3.03552e-07
-8.0883e-07
4.51345e-07
-1.36745e-06
5.58622e-07
-1.92883e-06
5.61374e-07
-2.44355e-06
5.14723e-07
-2.88946e-06
4.45908e-07
-3.26121e-06
3.71753e-07
-3.55974e-06
2.98528e-07
-3.78653e-06
2.26786e-07
-3.94363e-06
1.571e-07
-4.03115e-06
8.7522e-08
-4.04856e-06
1.74093e-08
-3.98995e-06
-5.86046e-08
-3.85856e-06
-1.31392e-07
-3.64125e-06
-2.17314e-07
-3.3369e-06
-3.0435e-07
-2.93797e-06
-3.98925e-07
-2.44551e-06
-4.92463e-07
-1.86139e-06
-5.84118e-07
-1.20638e-06
-6.55013e-07
-5.35095e-07
-6.71284e-07
7.58877e-08
-6.10982e-07
5.58268e-07
-4.82381e-07
7.52119e-07
-1.9385e-07
6.39831e-07
1.12288e-07
4.124e-07
2.27431e-07
1.72415e-07
2.39985e-07
1.72415e-07
1.52987e-07
-2.35932e-07
3.28579e-07
-3.02772e-07
4.40857e-07
-2.10783e-07
4.75828e-07
-7.1775e-08
4.49268e-07
3.32154e-08
3.81315e-07
8.58054e-08
2.8378e-07
1.05494e-07
1.37212e-07
1.50297e-07
-9.81087e-08
2.55193e-07
-4.65726e-07
4.19155e-07
-9.97212e-07
6.31759e-07
-1.6658e-06
8.60078e-07
-2.38364e-06
1.02139e-06
-3.02423e-06
1.09193e-06
-3.52941e-06
1.0638e-06
-3.95272e-06
9.84685e-07
-4.31199e-06
8.73991e-07
-4.6107e-06
7.44618e-07
-4.84987e-06
6.10927e-07
-5.03008e-06
4.7874e-07
-5.15187e-06
3.48572e-07
-5.21924e-06
2.24471e-07
-5.23083e-06
9.91084e-08
-5.18393e-06
-2.94875e-08
-5.08365e-06
-1.58883e-07
-4.91752e-06
-2.97523e-07
-4.68575e-06
-4.49083e-07
-4.37732e-06
-6.12779e-07
-3.98272e-06
-7.93525e-07
-3.4968e-06
-9.78381e-07
-2.92469e-06
-1.15623e-06
-2.27429e-06
-1.30542e-06
-1.56984e-06
-1.37573e-06
-8.54462e-07
-1.32636e-06
-2.38695e-07
-1.09815e-06
2.19867e-07
-6.52412e-07
3.71518e-07
-3.9363e-08
3.06828e-07
2.92121e-07
1.4224e-07
4.04573e-07
3.14655e-07
1.90493e-07
-4.26426e-07
3.29297e-07
-4.41576e-07
3.80877e-07
-2.62363e-07
3.56823e-07
-4.77217e-08
2.68102e-07
1.21936e-07
1.10957e-07
2.4295e-07
-1.4927e-07
3.65721e-07
-5.48696e-07
5.49723e-07
-1.10463e-06
8.11128e-07
-1.78726e-06
1.10179e-06
-2.50289e-06
1.34739e-06
-3.13707e-06
1.49426e-06
-3.66388e-06
1.54819e-06
-4.08538e-06
1.51344e-06
-4.42831e-06
1.40672e-06
-4.70594e-06
1.26231e-06
-4.9296e-06
1.09765e-06
-5.10855e-06
9.23572e-07
-5.24862e-06
7.50996e-07
-5.35125e-06
5.81369e-07
-5.41978e-06
4.17102e-07
-5.45003e-06
2.54721e-07
-5.4401e-06
8.91797e-08
-5.39244e-06
-7.71503e-08
-5.30438e-06
-2.46947e-07
-5.17355e-06
-4.28348e-07
-4.99687e-06
-6.25764e-07
-4.76869e-06
-8.40959e-07
-4.48427e-06
-1.07795e-06
-4.12951e-06
-1.33314e-06
-3.6902e-06
-1.59554e-06
-3.15729e-06
-1.83832e-06
-2.53187e-06
-2.00115e-06
-1.83861e-06
-2.01962e-06
-1.13059e-06
-1.80617e-06
-4.87087e-07
-1.29592e-06
-7.63647e-08
-4.50085e-07
3.46224e-08
1.81133e-07
2.49841e-08
4.14211e-07
3.39639e-07
1.63402e-07
-5.89828e-07
2.21681e-07
-4.99855e-07
1.82168e-07
-2.22849e-07
6.64165e-08
6.80294e-08
-1.32783e-07
3.21136e-07
-4.48595e-07
5.58762e-07
-9.09898e-07
8.27023e-07
-1.50915e-06
1.14897e-06
-2.18645e-06
1.48843e-06
-2.85193e-06
1.76728e-06
-3.42439e-06
1.91984e-06
-3.88091e-06
1.95078e-06
-4.23172e-06
1.899e-06
-4.49968e-06
1.7814e-06
-4.71288e-06
1.61993e-06
-4.88217e-06
1.4316e-06
-5.01925e-06
1.23473e-06
-5.133e-06
1.03733e-06
-5.22423e-06
8.42226e-07
-5.28879e-06
6.45929e-07
-5.32747e-06
4.55779e-07
-5.33804e-06
2.65297e-07
-5.32234e-06
7.34765e-08
-5.28159e-06
-1.17897e-07
-5.2136e-06
-3.14944e-07
-5.1156e-06
-5.26343e-07
-4.98572e-06
-7.55642e-07
-4.81989e-06
-1.0068e-06
-4.61639e-06
-1.28144e-06
-4.3703e-06
-1.57924e-06
-4.07629e-06
-1.88954e-06
-3.71827e-06
-2.19635e-06
-3.25479e-06
-2.46463e-06
-2.66196e-06
-2.61245e-06
-1.94968e-06
-2.51844e-06
-1.17392e-06
-2.07168e-06
-4.51361e-07
-1.17264e-06
-1.26097e-07
-1.44131e-07
-2.40089e-08
3.12123e-07
3.1563e-07
8.15186e-08
-6.71346e-07
3.15972e-08
-4.49934e-07
-1.10821e-07
-8.04307e-08
-3.35386e-07
2.92595e-07
-6.64901e-07
6.5065e-07
-1.12069e-06
1.01455e-06
-1.69608e-06
1.40242e-06
-2.33591e-06
1.78879e-06
-2.95217e-06
2.10469e-06
-3.46554e-06
2.28065e-06
-3.85999e-06
2.31429e-06
-4.16266e-06
2.25345e-06
-4.38939e-06
2.12573e-06
-4.56062e-06
1.95263e-06
-4.69517e-06
1.75449e-06
-4.8047e-06
1.54113e-06
-4.88968e-06
1.31971e-06
-4.94897e-06
1.09662e-06
-4.983e-06
8.76247e-07
-4.99911e-06
6.62046e-07
-4.99912e-06
4.55785e-07
-4.98585e-06
2.52032e-07
-4.96051e-06
4.81375e-08
-4.92134e-06
-1.57073e-07
-4.86618e-06
-3.70099e-07
-4.79554e-06
-5.96987e-07
-4.70876e-06
-8.42421e-07
-4.60414e-06
-1.11142e-06
-4.47796e-06
-1.40762e-06
-4.32492e-06
-1.73228e-06
-4.13524e-06
-2.07922e-06
-3.90033e-06
-2.43126e-06
-3.60192e-06
-2.76305e-06
-3.19732e-06
-3.01704e-06
-2.61834e-06
-3.09742e-06
-1.85186e-06
-2.83816e-06
-9.2146e-07
-2.10304e-06
-2.17016e-07
-8.48575e-07
-1.2112e-08
1.07219e-07
3.03518e-07
-4.24942e-08
-6.28852e-07
-2.01053e-07
-2.91375e-07
-4.42537e-07
1.61054e-07
-7.71617e-07
6.21674e-07
-1.2051e-06
1.08414e-06
-1.73702e-06
1.54647e-06
-2.32459e-06
1.98999e-06
-2.89414e-06
2.35834e-06
-3.36967e-06
2.58022e-06
-3.72478e-06
2.63575e-06
-3.9887e-06
2.57822e-06
-4.18417e-06
2.44892e-06
-4.32608e-06
2.26765e-06
-4.42878e-06
2.05533e-06
-4.4971e-06
1.82281e-06
-4.53778e-06
1.58181e-06
-4.55785e-06
1.33977e-06
-4.56421e-06
1.10298e-06
-4.56208e-06
8.74118e-07
-4.55274e-06
6.52705e-07
-4.53453e-06
4.37574e-07
-4.50844e-06
2.2595e-07
-4.47528e-06
1.49767e-08
-4.43405e-06
-1.98305e-07
-4.38514e-06
-4.19008e-07
-4.32989e-06
-6.52235e-07
-4.26917e-06
-9.03142e-07
-4.20343e-06
-1.17716e-06
-4.13192e-06
-1.47913e-06
-4.05198e-06
-1.81221e-06
-3.95606e-06
-2.17514e-06
-3.82861e-06
-2.55871e-06
-3.65192e-06
-2.93973e-06
-3.39704e-06
-3.27193e-06
-3.00845e-06
-3.48602e-06
-2.39503e-06
-3.45158e-06
-1.50914e-06
-2.98893e-06
-4.93901e-07
-1.86381e-06
-3.31991e-08
-3.53483e-07
2.70319e-07
-1.63092e-07
-4.6576e-07
-4.31275e-07
-2.31918e-08
-7.59328e-07
4.89107e-07
-1.17016e-06
1.03251e-06
-1.66026e-06
1.57424e-06
-2.19806e-06
2.08426e-06
-2.72669e-06
2.51863e-06
-3.17686e-06
2.80851e-06
-3.50836e-06
2.91171e-06
-3.74395e-06
2.87134e-06
-3.91216e-06
2.74643e-06
-4.02529e-06
2.56204e-06
-4.09629e-06
2.33864e-06
-4.13439e-06
2.09343e-06
-4.14915e-06
1.83757e-06
-4.14861e-06
1.58127e-06
-4.13868e-06
1.32984e-06
-4.12268e-06
1.08698e-06
-4.10166e-06
8.53095e-07
-4.07611e-06
6.27156e-07
-4.04606e-06
4.07523e-07
-4.0117e-06
1.91587e-07
-3.97343e-06
-2.32884e-08
-3.93109e-06
-2.40647e-07
-3.88558e-06
-4.64522e-07
-3.83831e-06
-6.99503e-07
-3.79093e-06
-9.50523e-07
-3.74514e-06
-1.22295e-06
-3.70213e-06
-1.52215e-06
-3.6616e-06
-1.85274e-06
-3.61986e-06
-2.21688e-06
-3.56744e-06
-2.61114e-06
-3.48598e-06
-3.02119e-06
-3.34305e-06
-3.41485e-06
-3.0966e-06
-3.73247e-06
-2.67475e-06
-3.87344e-06
-1.98935e-06
-3.67433e-06
-9.44616e-07
-2.90855e-06
-1.17492e-07
-1.18061e-06
1.52827e-07
-2.70281e-07
-1.95479e-07
-6.16988e-07
3.23515e-07
-1.01846e-06
8.90577e-07
-1.4768e-06
1.49085e-06
-1.97396e-06
2.0714e-06
-2.47013e-06
2.58043e-06
-2.90725e-06
2.95575e-06
-3.23252e-06
3.13377e-06
-3.45329e-06
3.13249e-06
-3.60395e-06
3.022e-06
-3.69968e-06
2.84215e-06
-3.75195e-06
2.61432e-06
-3.77277e-06
2.35946e-06
-3.77173e-06
2.09239e-06
-3.75741e-06
1.82325e-06
-3.73551e-06
1.55937e-06
-3.70968e-06
1.30401e-06
-3.68142e-06
1.05871e-06
-3.65106e-06
8.22743e-07
-3.61873e-06
5.94825e-07
-3.58425e-06
3.73037e-07
-3.54746e-06
1.54796e-07
-3.50822e-06
-6.252e-08
-3.46672e-06
-2.82153e-07
-3.42374e-06
-5.07499e-07
-3.38076e-06
-7.42481e-07
-3.33983e-06
-9.91457e-07
-3.30339e-06
-1.25938e-06
-3.27382e-06
-1.55173e-06
-3.25243e-06
-1.87413e-06
-3.23802e-06
-2.23128e-06
-3.22467e-06
-2.62449e-06
-3.19837e-06
-3.04749e-06
-3.13262e-06
-3.4806e-06
-2.98543e-06
-3.87966e-06
-2.70017e-06
-4.15869e-06
-2.20683e-06
-4.16767e-06
-1.40376e-06
-3.71161e-06
-3.3428e-07
-2.25009e-06
-1.81453e-07
-3.43912e-07
1.48433e-07
-7.54487e-07
7.34091e-07
-1.19597e-06
1.33206e-06
-1.66413e-06
1.95902e-06
-2.13608e-06
2.54335e-06
-2.57031e-06
3.01467e-06
-2.90454e-06
3.28998e-06
-3.12843e-06
3.35766e-06
-3.2743e-06
3.27836e-06
-3.3638e-06
3.1115e-06
-3.40879e-06
2.88715e-06
-3.42137e-06
2.6269e-06
-3.41252e-06
2.35061e-06
-3.39068e-06
2.07055e-06
-3.36229e-06
1.79486e-06
-3.3311e-06
1.52818e-06
-3.29917e-06
1.27208e-06
-3.26718e-06
1.02672e-06
-3.23513e-06
7.90701e-07
-3.20262e-06
5.62315e-07
-3.169e-06
3.3941e-07
-3.13371e-06
1.19505e-07
-3.09621e-06
-1.00019e-07
-3.05659e-06
-3.21771e-07
-3.01544e-06
-5.48643e-07
-2.97409e-06
-7.8383e-07
-2.93464e-06
-1.03091e-06
-2.89989e-06
-1.29413e-06
-2.87302e-06
-1.5786e-06
-2.85684e-06
-1.89031e-06
-2.8524e-06
-2.23572e-06
-2.85679e-06
-2.6201e-06
-2.85999e-06
-3.04429e-06
-2.84113e-06
-3.49946e-06
-2.76371e-06
-3.95709e-06
-2.57556e-06
-4.34684e-06
-2.23429e-06
-4.50894e-06
-1.65775e-06
-4.28816e-06
-6.19183e-07
-3.28866e-06
-8.00636e-07
-3.87747e-07
5.3618e-07
-8.32105e-07
1.17845e-06
-1.28529e-06
1.78524e-06
-1.73897e-06
2.4127e-06
-2.17076e-06
2.97514e-06
-2.52601e-06
3.36992e-06
-2.7689e-06
3.53286e-06
-2.92577e-06
3.51453e-06
-3.01973e-06
3.37232e-06
-3.06745e-06
3.15922e-06
-3.0804e-06
2.9001e-06
-3.07041e-06
2.61691e-06
-3.04683e-06
2.32703e-06
-3.01639e-06
2.0401e-06
-2.98365e-06
1.76213e-06
-2.95108e-06
1.49561e-06
-2.91983e-06
1.24082e-06
-2.88995e-06
9.96851e-07
-2.86098e-06
7.61733e-07
-2.83205e-06
5.33382e-07
-2.80217e-06
3.09531e-07
-2.77055e-06
8.78799e-08
-2.7365e-06
-1.34064e-07
-2.69987e-06
-3.58403e-07
-2.66101e-06
-5.87508e-07
-2.6209e-06
-8.23936e-07
-2.58134e-06
-1.07047e-06
-2.54494e-06
-1.33053e-06
-2.51504e-06
-1.6085e-06
-2.49519e-06
-1.91016e-06
-2.48812e-06
-2.24279e-06
-2.49367e-06
-2.61455e-06
-2.50592e-06
-3.03203e-06
-2.50988e-06
-3.4955e-06
-2.47601e-06
-3.99096e-06
-2.35388e-06
-4.46897e-06
-2.09568e-06
-4.76714e-06
-1.64631e-06
-4.73753e-06
-8.8185e-07
-4.05312e-06
-1.68249e-06
-4.0545e-07
9.4163e-07
-8.55063e-07
1.62806e-06
-1.29732e-06
2.22749e-06
-1.72047e-06
2.83584e-06
-2.09834e-06
3.35301e-06
-2.37265e-06
3.64423e-06
-2.55403e-06
3.71424e-06
-2.66506e-06
3.62556e-06
-2.72418e-06
3.43144e-06
-2.74573e-06
3.18077e-06
-2.74095e-06
2.89532e-06
-2.72055e-06
2.59651e-06
-2.69208e-06
2.29856e-06
-2.66075e-06
2.00877e-06
-2.62976e-06
1.73114e-06
-2.60066e-06
1.46651e-06
-2.57387e-06
1.21403e-06
-2.54894e-06
9.71922e-07
-2.52502e-06
7.37815e-07
-2.50103e-06
5.0939e-07
-2.47589e-06
2.8439e-07
-2.44872e-06
6.07087e-08
-2.41887e-06
-1.63919e-07
-2.38598e-06
-3.91293e-07
-2.35017e-06
-6.23309e-07
-2.31209e-06
-8.62017e-07
-2.27303e-06
-1.10953e-06
-2.2351e-06
-1.36847e-06
-2.20126e-06
-1.64234e-06
-2.17517e-06
-1.93625e-06
-2.16041e-06
-2.25755e-06
-2.15887e-06
-2.61609e-06
-2.16808e-06
-3.02282e-06
-2.17818e-06
-3.4854e-06
-2.1677e-06
-4.00144e-06
-2.09255e-06
-4.54411e-06
-1.88037e-06
-4.97932e-06
-1.51978e-06
-5.09812e-06
-9.28367e-07
-4.64454e-06
-2.61085e-06
-3.97091e-07
1.33872e-06
-8.30959e-07
2.06193e-06
-1.24561e-06
2.64214e-06
-1.62947e-06
3.2197e-06
-1.94382e-06
3.66736e-06
-2.15628e-06
3.85669e-06
-2.29608e-06
3.85405e-06
-2.37484e-06
3.70432e-06
-2.41168e-06
3.46829e-06
-2.41854e-06
3.18763e-06
-2.40597e-06
2.88275e-06
-2.38303e-06
2.57357e-06
-2.35569e-06
2.27121e-06
-2.32791e-06
1.98099e-06
-2.30188e-06
1.70511e-06
-2.27843e-06
1.44306e-06
-2.2574e-06
1.19301e-06
-2.23804e-06
9.52563e-07
-2.21935e-06
7.19123e-07
-2.20024e-06
4.90283e-07
-2.17973e-06
2.63873e-07
-2.15698e-06
3.79618e-08
-2.13142e-06
-1.8948e-07
-2.10264e-06
-4.20069e-07
-2.07058e-06
-6.55372e-07
-2.03553e-06
-8.97064e-07
-1.99828e-06
-1.14678e-06
-1.96028e-06
-1.40647e-06
-1.92381e-06
-1.67881e-06
-1.8921e-06
-1.96796e-06
-1.86894e-06
-2.28071e-06
-1.85752e-06
-2.62751e-06
-1.85805e-06
-3.02229e-06
-1.86442e-06
-3.47903e-06
-1.8613e-06
-4.00456e-06
-1.81786e-06
-4.58755e-06
-1.65137e-06
-5.14581e-06
-1.35353e-06
-5.39595e-06
-8.29124e-07
-5.16895e-06
-3.43998e-06
-3.68738e-07
1.70746e-06
-7.71766e-07
2.46496e-06
-1.14911e-06
3.01949e-06
-1.48637e-06
3.55696e-06
-1.73756e-06
3.91856e-06
-1.90849e-06
4.02762e-06
-2.01642e-06
3.96198e-06
-2.074e-06
3.76189e-06
-2.09763e-06
3.49192e-06
-2.09765e-06
3.18765e-06
-2.08355e-06
2.86865e-06
-2.06266e-06
2.55267e-06
-2.03963e-06
2.24818e-06
-2.01743e-06
1.9588e-06
-1.99746e-06
1.68514e-06
-1.97996e-06
1.42556e-06
-1.96449e-06
1.17753e-06
-1.95017e-06
9.3824e-07
-1.93604e-06
7.04999e-07
-1.92118e-06
4.75423e-07
-1.90476e-06
2.47452e-07
-1.88609e-06
1.92959e-08
-1.8647e-06
-2.10875e-07
-1.84019e-06
-4.44574e-07
-1.81238e-06
-6.83186e-07
-1.7813e-06
-9.28142e-07
-1.7473e-06
-1.18078e-06
-1.7112e-06
-1.44257e-06
-1.67453e-06
-1.71548e-06
-1.63974e-06
-2.00274e-06
-1.61032e-06
-2.31013e-06
-1.59009e-06
-2.64774e-06
-1.58129e-06
-3.0311e-06
-1.58093e-06
-3.47939e-06
-1.57783e-06
-4.00767e-06
-1.54868e-06
-4.6167e-06
-1.42937e-06
-5.26513e-06
-1.16603e-06
-5.6593e-06
-7.2492e-07
-5.61005e-06
-4.1649e-06
-3.26849e-07
2.03431e-06
-6.89072e-07
2.82718e-06
-1.0223e-06
3.35271e-06
-1.3074e-06
3.84206e-06
-1.50631e-06
4.11747e-06
-1.64572e-06
4.16702e-06
-1.73042e-06
4.04669e-06
-1.77438e-06
3.80585e-06
-1.79094e-06
3.50849e-06
-1.78907e-06
3.18577e-06
-1.77696e-06
2.85654e-06
-1.76037e-06
2.53608e-06
-1.7429e-06
2.23072e-06
-1.72669e-06
1.94258e-06
-1.71252e-06
1.67097e-06
-1.70032e-06
1.41336e-06
-1.68951e-06
1.16672e-06
-1.6793e-06
9.28031e-07
-1.6689e-06
6.94592e-07
-1.65757e-06
4.64095e-07
-1.6447e-06
2.34581e-07
-1.62976e-06
4.35464e-09
-1.61237e-06
-2.28267e-07
-1.59219e-06
-4.6475e-07
-1.56896e-06
-7.06416e-07
-1.54253e-06
-9.54573e-07
-1.51291e-06
-1.2104e-06
-1.4804e-06
-1.47508e-06
-1.44585e-06
-1.75004e-06
-1.41092e-06
-2.03767e-06
-1.37841e-06
-2.34264e-06
-1.35214e-06
-2.67401e-06
-1.3356e-06
-3.04763e-06
-1.32873e-06
-3.48626e-06
-1.32375e-06
-4.01265e-06
-1.30199e-06
-4.63846e-06
-1.22365e-06
-5.34346e-06
-9.90998e-07
-5.89195e-06
-6.15367e-07
-5.98568e-06
-4.78026e-06
-2.77232e-07
2.31154e-06
-5.90366e-07
3.14031e-06
-8.75233e-07
3.63758e-06
-1.10754e-06
4.07437e-06
-1.26803e-06
4.27796e-06
-1.38145e-06
4.28045e-06
-1.44815e-06
4.11338e-06
-1.48297e-06
3.84067e-06
-1.49613e-06
3.52166e-06
-1.49511e-06
3.18474e-06
-1.48662e-06
2.84805e-06
-1.47506e-06
2.52452e-06
-1.46315e-06
2.21882e-06
-1.45238e-06
1.93181e-06
-1.44314e-06
1.66172e-06
-1.43521e-06
1.40543e-06
-1.42805e-06
1.15957e-06
-1.42105e-06
9.2103e-07
-1.41361e-06
6.87155e-07
-1.40524e-06
4.55718e-07
-1.39549e-06
2.24836e-07
-1.38401e-06
-7.13213e-09
-1.37049e-06
-2.4178e-07
-1.35467e-06
-4.8057e-07
-1.33625e-06
-7.2484e-07
-1.31495e-06
-9.7587e-07
-1.29056e-06
-1.2348e-06
-1.26299e-06
-1.50264e-06
-1.23254e-06
-1.78049e-06
-1.20018e-06
-2.07003e-06
-1.16799e-06
-2.37483e-06
-1.13936e-06
-2.70264e-06
-1.11839e-06
-3.0686e-06
-1.10713e-06
-3.49752e-06
-1.10038e-06
-4.01939e-06
-1.08315e-06
-4.65569e-06
-1.02748e-06
-5.39913e-06
-8.40227e-07
-6.0792e-06
-5.28101e-07
-6.29781e-06
-5.30836e-06
-2.20891e-07
2.53243e-06
-4.82161e-07
3.40158e-06
-7.18654e-07
3.87407e-06
-9.0256e-07
4.25827e-06
-1.03139e-06
4.40679e-06
-1.12117e-06
4.37024e-06
-1.17439e-06
4.1666e-06
-1.20302e-06
3.86929e-06
-1.21482e-06
3.53346e-06
-1.21586e-06
3.18579e-06
-1.21138e-06
2.84358e-06
-1.20464e-06
2.51778e-06
-1.19763e-06
2.21181e-06
-1.19134e-06
1.92552e-06
-1.18597e-06
1.65634e-06
-1.18128e-06
1.40074e-06
-1.17688e-06
1.15517e-06
-1.17235e-06
9.16502e-07
-1.16732e-06
6.82124e-07
-1.16148e-06
4.49877e-07
-1.15457e-06
2.17929e-07
-1.14636e-06
-1.53468e-08
-1.13664e-06
-2.51502e-07
-1.12518e-06
-4.92022e-07
-1.11171e-06
-7.38313e-07
-1.09588e-06
-9.91703e-07
-1.07731e-06
-1.25337e-06
-1.05566e-06
-1.52429e-06
-1.03081e-06
-1.80533e-06
-1.00318e-06
-2.09765e-06
-9.74214e-07
-2.4038e-06
-9.46797e-07
-2.73006e-06
-9.25209e-07
-3.09019e-06
-9.13017e-07
-3.50972e-06
-9.07879e-07
-4.02453e-06
-8.98344e-07
-4.66523e-06
-8.62316e-07
-5.43516e-06
-7.13975e-07
-6.22754e-06
-4.43349e-07
-6.56844e-06
-5.75171e-06
-1.64654e-07
2.69709e-06
-3.7163e-07
3.60856e-06
-5.59491e-07
4.06193e-06
-6.99345e-07
4.39813e-06
-7.99506e-07
4.50695e-06
-8.68783e-07
4.43951e-06
-9.11199e-07
4.20901e-06
-9.35325e-07
3.89342e-06
-9.46733e-07
3.54487e-06
-9.50118e-07
3.18917e-06
-9.49349e-07
2.84281e-06
-9.46737e-07
2.51516e-06
-9.43693e-07
2.20877e-06
-9.40856e-07
1.92268e-06
-9.38343e-07
1.65383e-06
-9.36024e-07
1.39842e-06
-9.33673e-07
1.15282e-06
-9.31075e-07
9.13905e-07
-9.28053e-07
6.79102e-07
-9.24469e-07
4.46293e-07
-9.20208e-07
2.13667e-07
-9.15146e-07
-2.04083e-08
-9.09157e-07
-2.5749e-07
-9.02074e-07
-4.99106e-07
-8.93637e-07
-7.46749e-07
-8.83491e-07
-1.00185e-06
-8.71175e-07
-1.26569e-06
-8.56176e-07
-1.53929e-06
-8.3808e-07
-1.82343e-06
-8.16874e-07
-2.11885e-06
-7.93413e-07
-2.42726e-06
-7.70009e-07
-2.75346e-06
-7.50748e-07
-3.10945e-06
-7.40284e-07
-3.52018e-06
-7.39156e-07
-4.02566e-06
-7.37941e-07
-4.66644e-06
-7.14291e-07
-5.45881e-06
-6.11698e-07
-6.33013e-06
-3.8682e-07
-6.79331e-06
-6.13853e-06
-1.04612e-07
2.8017e-06
-2.59889e-07
3.76384e-06
-4.00142e-07
4.20219e-06
-5.00826e-07
4.49881e-06
-5.75131e-07
4.58125e-06
-6.2608e-07
4.49046e-06
-6.58988e-07
4.24192e-06
-6.79301e-07
3.91373e-06
-6.90537e-07
3.55611e-06
-6.95995e-07
3.19463e-06
-6.98298e-07
2.84511e-06
-6.98966e-07
2.51583e-06
-6.98927e-07
2.20873e-06
-6.98607e-07
1.92236e-06
-6.98129e-07
1.65335e-06
-6.97491e-07
1.39779e-06
-6.96658e-07
1.15199e-06
-6.95601e-07
9.12848e-07
-6.94313e-07
6.77814e-07
-6.928e-07
4.44779e-07
-6.91062e-07
2.11929e-07
-6.89073e-07
-2.23967e-08
-6.86775e-07
-2.59789e-07
-6.84053e-07
-5.01827e-07
-6.80701e-07
-7.50102e-07
-6.76382e-07
-1.00617e-06
-6.70617e-07
-1.27145e-06
-6.62804e-07
-1.54711e-06
-6.52343e-07
-1.83389e-06
-6.38906e-07
-2.13229e-06
-6.22897e-07
-2.44327e-06
-6.06072e-07
-2.77029e-06
-5.92127e-07
-3.1234e-06
-5.86231e-07
-3.52608e-06
-5.91318e-07
-4.02057e-06
-6.00321e-07
-4.65744e-06
-5.91281e-07
-5.46785e-06
-5.21215e-07
-6.4002e-06
-3.3357e-07
-6.98096e-06
-6.4721e-06
-5.05471e-08
2.85225e-06
-1.50842e-07
3.86413e-06
-2.43775e-07
4.29512e-06
-3.09077e-07
4.56411e-06
-3.58875e-07
4.63105e-06
-3.92932e-07
4.52452e-06
-4.16977e-07
4.26597e-06
-4.33556e-07
3.93031e-06
-4.44365e-07
3.56692e-06
-4.51333e-07
3.2016e-06
-4.55954e-07
2.84973e-06
-4.59056e-07
2.51893e-06
-4.61177e-07
2.21085e-06
-4.62605e-07
1.92379e-06
-4.63509e-07
1.65426e-06
-4.64041e-07
1.39832e-06
-4.64339e-07
1.15229e-06
-4.64546e-07
9.13054e-07
-4.648e-07
6.78068e-07
-4.65227e-07
4.45206e-07
-4.65924e-07
2.12627e-07
-4.66951e-07
-2.13703e-08
-4.68309e-07
-2.5843e-07
-4.69942e-07
-5.00194e-07
-4.71698e-07
-7.48346e-07
-4.7329e-07
-1.00458e-06
-4.74267e-07
-1.27048e-06
-4.74011e-07
-1.54736e-06
-4.71824e-07
-1.83608e-06
-4.67157e-07
-2.13696e-06
-4.60049e-07
-2.45038e-06
-4.51772e-07
-2.77856e-06
-4.4557e-07
-3.1296e-06
-4.46721e-07
-3.52493e-06
-4.59695e-07
-4.0076e-06
-4.79753e-07
-4.63738e-06
-4.88187e-07
-5.45942e-06
-4.48141e-07
-6.44025e-06
-2.95569e-07
-7.13353e-06
-6.76767e-06
9.52049e-09
2.84272e-06
-4.12596e-08
3.91491e-06
-9.14998e-08
4.34536e-06
-1.25048e-07
4.59766e-06
-1.50618e-07
4.65662e-06
-1.68745e-07
4.54265e-06
-1.83771e-07
4.28099e-06
-1.96198e-07
3.94274e-06
-2.06067e-07
3.57678e-06
-2.13871e-07
3.2094e-06
-2.20064e-07
2.85592e-06
-2.24854e-07
2.52372e-06
-2.2845e-07
2.21445e-06
-2.31041e-07
1.92638e-06
-2.32833e-07
1.65605e-06
-2.34159e-07
1.39965e-06
-2.35309e-07
1.15344e-06
-2.36573e-07
9.14318e-07
-2.38222e-07
6.79718e-07
-2.40488e-07
4.47472e-07
-2.43553e-07
2.15691e-07
-2.47546e-07
-1.73775e-08
-2.52531e-07
-2.53445e-07
-2.58505e-07
-4.9422e-07
-2.6538e-07
-7.41471e-07
-2.72937e-07
-9.97019e-07
-2.80786e-07
-1.26263e-06
-2.88349e-07
-1.5398e-06
-2.94909e-07
-1.82952e-06
-2.99794e-07
-2.13207e-06
-3.02763e-07
-2.44741e-06
-3.04655e-07
-2.77667e-06
-3.08234e-07
-3.12602e-06
-3.18602e-07
-3.51456e-06
-3.41181e-07
-3.98502e-06
-3.73693e-07
-4.60487e-06
-3.99476e-07
-5.43363e-06
-3.8424e-07
-6.45548e-06
-2.60519e-07
-7.25725e-06
-7.02819e-06
6.38324e-08
2.77889e-06
6.50408e-08
3.9137e-06
5.5493e-08
4.35491e-06
5.21574e-08
4.601e-06
5.08209e-08
4.65795e-06
4.78091e-08
4.54566e-06
4.22531e-08
4.28655e-06
3.46549e-08
3.95034e-06
2.64727e-08
3.58497e-06
1.86017e-08
3.21727e-06
1.16157e-08
2.86291e-06
5.8461e-09
2.52949e-06
1.38932e-09
2.21891e-06
-1.89828e-09
1.92967e-06
-4.36241e-09
1.65851e-06
-6.2738e-09
1.40156e-06
-8.09238e-09
1.15526e-06
-1.02679e-08
9.16494e-07
-1.31984e-08
6.82648e-07
-1.72174e-08
4.51492e-07
-2.25885e-08
2.21063e-07
-2.95097e-08
-1.04563e-08
-3.81009e-08
-2.44854e-07
-4.84125e-08
-4.83909e-07
-6.04128e-08
-7.29471e-07
-7.39574e-08
-9.83474e-07
-8.87463e-08
-1.24784e-06
-1.04294e-07
-1.52425e-06
-1.19938e-07
-1.81387e-06
-1.34968e-07
-2.11704e-06
-1.48967e-07
-2.43341e-06
-1.62309e-07
-2.76333e-06
-1.77331e-07
-3.111e-06
-1.9877e-07
-3.49312e-06
-2.32569e-07
-3.95122e-06
-2.78797e-07
-4.55864e-06
-3.22705e-07
-5.38972e-06
-3.32518e-07
-6.44567e-06
-2.34466e-07
-7.35531e-06
-7.26266e-06
1.18995e-07
2.6599e-06
1.6946e-07
3.86324e-06
1.99172e-07
4.32519e-06
2.26621e-07
4.57355e-06
2.50131e-07
4.63445e-06
2.624e-07
4.53339e-06
2.64612e-07
4.28433e-06
2.61592e-07
3.95336e-06
2.55475e-07
3.59108e-06
2.48126e-07
3.22462e-06
2.40861e-07
2.87018e-06
2.34551e-07
2.5358e-06
2.29568e-07
2.22389e-06
2.259e-07
1.93334e-06
2.23253e-07
1.66116e-06
2.21076e-07
1.40373e-06
2.18804e-07
1.15753e-06
2.15878e-07
9.1942e-07
2.11794e-07
6.86733e-07
2.06123e-07
4.57163e-07
1.98523e-07
2.28663e-07
1.88723e-07
-6.56179e-10
1.76557e-07
-2.32688e-07
1.61915e-07
-4.69267e-07
1.44776e-07
-7.12331e-07
1.25211e-07
-9.63909e-07
1.03421e-07
-1.22605e-06
7.97674e-08
-1.5006e-06
5.48058e-08
-1.78891e-06
2.92206e-08
-2.09146e-06
3.57689e-09
-2.40777e-06
-2.24754e-08
-2.73728e-06
-5.04618e-08
-3.08301e-06
-8.46651e-08
-3.45891e-06
-1.31243e-07
-3.90464e-06
-1.91949e-07
-4.49793e-06
-2.53136e-07
-5.32854e-06
-2.86057e-07
-6.41275e-06
-2.11148e-07
-7.43021e-06
-7.4738e-06
1.73842e-07
2.48606e-06
2.72171e-07
3.76491e-06
3.3835e-07
4.25902e-06
3.94062e-07
4.51784e-06
4.41185e-07
4.58732e-06
4.70754e-07
4.50382e-06
4.82439e-07
4.27265e-06
4.85428e-07
3.95037e-06
4.82551e-07
3.59396e-06
4.76662e-07
3.23051e-06
4.69903e-07
2.87694e-06
4.63656e-07
2.54205e-06
4.58602e-07
2.22894e-06
4.5486e-07
1.93708e-06
4.52114e-07
1.66391e-06
4.49785e-07
1.40606e-06
4.47189e-07
1.16012e-06
4.43644e-07
9.22965e-07
4.38533e-07
6.91843e-07
4.31331e-07
4.64365e-07
4.21603e-07
2.3839e-07
4.09026e-07
1.19208e-08
3.93343e-07
-2.17005e-07
3.74407e-07
-4.50331e-07
3.52134e-07
-6.90058e-07
3.26514e-07
-9.3829e-07
2.97632e-07
-1.19717e-06
2.65713e-07
-1.46868e-06
2.31148e-07
-1.75435e-06
1.94482e-07
-2.05479e-06
1.56255e-07
-2.36954e-06
1.16717e-07
-2.69774e-06
7.45791e-08
-3.04088e-06
2.60669e-08
-3.4104e-06
-3.50091e-08
-3.84357e-06
-1.11674e-07
-4.42127e-06
-1.90691e-07
-5.24952e-06
-2.43135e-07
-6.3603e-06
-1.94299e-07
-7.47905e-06
-7.6681e-06
2.26645e-07
2.25941e-06
3.72315e-07
3.61924e-06
4.73908e-07
4.15742e-06
5.57442e-07
4.4343e-06
6.25223e-07
4.51954e-06
6.7356e-07
4.45548e-06
6.96968e-07
4.24924e-06
7.07364e-07
3.93997e-06
7.09006e-07
3.59232e-06
7.05693e-07
3.23382e-06
7.00329e-07
2.8823e-06
6.94825e-07
2.54755e-06
6.90197e-07
2.23357e-06
6.86724e-07
1.94055e-06
6.8414e-07
1.66649e-06
6.81839e-07
1.40836e-06
6.79064e-07
1.1629e-06
6.75037e-07
9.26992e-07
6.69035e-07
6.97845e-07
6.60434e-07
4.72967e-07
6.48713e-07
2.50111e-07
6.33464e-07
2.71701e-08
6.14379e-07
-1.9792e-07
5.91224e-07
-4.27176e-07
5.63832e-07
-6.62667e-07
5.3211e-07
-9.06568e-07
4.96045e-07
-1.1611e-06
4.55707e-07
-1.42834e-06
4.1128e-07
-1.70992e-06
3.63143e-07
-2.00666e-06
3.11817e-07
-2.31821e-06
2.57661e-07
-2.64358e-06
2.00009e-07
-2.98322e-06
1.35699e-07
-3.34609e-06
5.85963e-08
-3.76646e-06
-3.55353e-08
-4.32714e-06
-1.34053e-07
-5.151e-06
-2.04856e-07
-6.2895e-06
-1.79004e-07
-7.5049e-06
-7.84711e-06
2.76743e-07
1.98267e-06
4.68313e-07
3.42767e-06
6.04235e-07
4.0215e-06
7.14977e-07
4.32356e-06
8.02918e-07
4.4316e-06
8.70619e-07
4.38778e-06
9.08544e-07
4.21132e-06
9.28e-07
3.92052e-06
9.35704e-07
3.58461e-06
9.36404e-07
3.23312e-06
9.33639e-07
2.88506e-06
9.29808e-07
2.55138e-06
9.26274e-07
2.23711e-06
9.23535e-07
1.94329e-06
9.21439e-07
1.66859e-06
9.19408e-07
1.4104e-06
9.16648e-07
1.16566e-06
9.12309e-07
9.31332e-07
9.05578e-07
7.04575e-07
8.95736e-07
4.82809e-07
8.82168e-07
2.63679e-07
8.64383e-07
4.49553e-08
8.42003e-07
-1.7554e-07
8.14698e-07
-3.99871e-07
7.82214e-07
-6.30183e-07
7.44368e-07
-8.68722e-07
7.00999e-07
-1.11773e-06
6.51996e-07
-1.37934e-06
5.97374e-07
-1.6553e-06
5.37317e-07
-1.9466e-06
4.7218e-07
-2.25308e-06
4.0241e-07
-2.57381e-06
3.27888e-07
-2.9087e-06
2.46247e-07
-3.26445e-06
1.51595e-07
-3.67181e-06
3.86493e-08
-4.21419e-06
-8.05187e-08
-5.03183e-06
-1.71556e-07
-6.19846e-06
-1.67464e-07
-7.50899e-06
-8.01457e-06
3.21968e-07
1.6607e-06
5.57239e-07
3.1924e-06
7.2645e-07
3.85229e-06
8.62878e-07
4.18713e-06
9.73227e-07
4.32125e-06
1.05993e-06
4.30108e-06
1.11564e-06
4.15561e-06
1.14682e-06
3.88934e-06
1.16278e-06
3.56865e-06
1.16942e-06
3.22649e-06
1.17088e-06
2.8836e-06
1.17004e-06
2.55223e-06
1.1686e-06
2.23854e-06
1.16733e-06
1.94456e-06
1.16626e-06
1.66966e-06
1.16488e-06
1.41177e-06
1.16242e-06
1.16811e-06
1.15801e-06
9.35746e-07
1.15076e-06
7.11828e-07
1.13987e-06
4.93702e-07
1.12462e-06
2.78921e-07
1.10445e-06
6.51252e-08
1.07889e-06
-1.49979e-07
1.0475e-06
-3.68479e-07
1.00992e-06
-5.92601e-07
9.65853e-07
-8.24657e-07
9.15003e-07
-1.06688e-06
8.57074e-07
-1.32141e-06
7.91818e-07
-1.59004e-06
7.19147e-07
-1.87393e-06
6.39288e-07
-2.17322e-06
5.52823e-07
-2.48735e-06
4.60085e-07
-2.81596e-06
3.5947e-07
-3.16384e-06
2.45798e-07
-3.55814e-06
1.13646e-07
-4.08204e-06
-2.47924e-08
-4.8934e-06
-1.34072e-07
-6.08918e-06
-1.53283e-07
-7.48978e-06
-8.16785e-06
3.57507e-07
1.30319e-06
6.33591e-07
2.91631e-06
8.36196e-07
3.64969e-06
9.98752e-07
4.02458e-06
1.1324e-06
4.1876e-06
1.23836e-06
4.19512e-06
1.3148e-06
4.07917e-06
1.36161e-06
3.84253e-06
1.38913e-06
3.54113e-06
1.40445e-06
3.21117e-06
1.41246e-06
2.87559e-06
1.41651e-06
2.54818e-06
1.41869e-06
2.23636e-06
1.42006e-06
1.94319e-06
1.42086e-06
1.66886e-06
1.42076e-06
1.41187e-06
1.41908e-06
1.1698e-06
1.41494e-06
9.39882e-07
1.40745e-06
7.1932e-07
1.39574e-06
5.05406e-07
1.37903e-06
2.95635e-07
1.35665e-06
8.7508e-08
1.32803e-06
-1.21358e-07
1.2926e-06
-3.33056e-07
1.2499e-06
-5.49899e-07
1.19948e-06
-7.74241e-07
1.14088e-06
-1.00827e-06
1.07358e-06
-1.25411e-06
9.97077e-07
-1.51354e-06
9.11047e-07
-1.7879e-06
8.15517e-07
-2.07769e-06
7.1107e-07
-2.3829e-06
5.98467e-07
-2.70336e-06
4.7699e-07
-3.04236e-06
3.42239e-07
-3.42339e-06
1.88738e-07
-3.92854e-06
2.78472e-08
-4.73251e-06
-1.04625e-07
-5.95671e-06
-1.45042e-07
-7.44937e-06
-8.3129e-06
3.74429e-07
9.28764e-07
6.88877e-07
2.60186e-06
9.27799e-07
3.41076e-06
1.11769e-06
3.83469e-06
1.27473e-06
4.03056e-06
1.40292e-06
4.06694e-06
1.50202e-06
3.98006e-06
1.56885e-06
3.7757e-06
1.61226e-06
3.49772e-06
1.64006e-06
3.18337e-06
1.65785e-06
2.85779e-06
1.66951e-06
2.53652e-06
1.67751e-06
2.22836e-06
1.68326e-06
1.93744e-06
1.68729e-06
1.66484e-06
1.68948e-06
1.40968e-06
1.68931e-06
1.16997e-06
1.686e-06
9.43188e-07
1.67869e-06
7.26633e-07
1.66649e-06
5.17605e-07
1.64855e-06
3.13576e-07
1.62414e-06
1.11913e-07
1.59257e-06
-8.97856e-08
1.55313e-06
-2.9362e-07
1.50524e-06
-5.02003e-07
1.44826e-06
-7.17266e-07
1.38153e-06
-9.41538e-07
1.30429e-06
-1.17687e-06
1.21581e-06
-1.42506e-06
1.11547e-06
-1.68756e-06
1.00309e-06
-1.96531e-06
8.79199e-07
-2.25901e-06
7.44909e-07
-2.56907e-06
6.00539e-07
-2.89799e-06
4.42433e-07
-3.26528e-06
2.65171e-07
-3.75128e-06
7.87589e-08
-4.54609e-06
-7.42141e-08
-5.80374e-06
-1.33364e-07
-7.39022e-06
-8.44626e-06
3.55486e-07
5.73278e-07
7.13595e-07
2.24376e-06
9.9331e-07
3.13105e-06
1.21308e-06
3.61492e-06
1.39447e-06
3.84916e-06
1.54731e-06
3.9141e-06
1.67162e-06
3.85575e-06
1.76326e-06
3.68406e-06
1.82793e-06
3.43305e-06
1.87319e-06
3.13812e-06
1.90514e-06
2.82584e-06
1.92813e-06
2.51353e-06
1.94507e-06
2.21142e-06
1.95772e-06
1.92479e-06
1.96697e-06
1.6556e-06
1.97299e-06
1.40365e-06
1.9755e-06
1.16746e-06
1.97389e-06
9.44799e-07
1.96739e-06
7.33133e-07
1.95515e-06
5.29847e-07
1.9363e-06
3.32425e-07
1.91008e-06
1.38131e-07
1.87564e-06
-5.53377e-08
1.83216e-06
-2.50145e-07
1.77891e-06
-4.48749e-07
1.71504e-06
-6.53399e-07
1.63964e-06
-8.66141e-07
1.55174e-06
-1.08897e-06
1.4503e-06
-1.32362e-06
1.33449e-06
-1.57176e-06
1.20393e-06
-1.83474e-06
1.05909e-06
-2.11418e-06
9.01226e-07
-2.41121e-06
7.31618e-07
-2.72838e-06
5.47708e-07
-3.08137e-06
3.4453e-07
-3.5481e-06
1.31681e-07
-4.33324e-06
-4.7921e-08
-5.62414e-06
-1.28312e-07
-7.30983e-06
-8.57457e-06
2.85343e-07
2.87935e-07
7.01704e-07
1.8274e-06
1.02303e-06
2.80972e-06
1.27583e-06
3.36212e-06
1.48445e-06
3.64054e-06
1.664e-06
3.73455e-06
1.8168e-06
3.70295e-06
1.93813e-06
3.56273e-06
2.03021e-06
3.34097e-06
2.09904e-06
3.0693e-06
2.15066e-06
2.77422e-06
2.18982e-06
2.47437e-06
2.21984e-06
2.18141e-06
2.24286e-06
1.90176e-06
2.26014e-06
1.63831e-06
2.27224e-06
1.39156e-06
2.27916e-06
1.16054e-06
2.28055e-06
9.43413e-07
2.27581e-06
7.37866e-07
2.2642e-06
5.41464e-07
2.2449e-06
3.51723e-07
2.21712e-06
1.65915e-07
2.17983e-06
-1.80525e-08
2.13224e-06
-2.02558e-07
2.07336e-06
-3.89869e-07
2.00213e-06
-5.82171e-07
1.9174e-06
-7.81404e-07
1.81792e-06
-9.89488e-07
1.70242e-06
-1.20812e-06
1.56988e-06
-1.43922e-06
1.41973e-06
-1.68459e-06