/*--------------------------------*- C++ -*----------------------------------*\
  =========                 |
  \\      /  F ield         | OpenFOAM: The Open Source CFD Toolbox
   \\    /   O peration     | Website:  https://openfoam.org
    \\  /    A nd           | Version:  13
     \\/     M anipulation  |
\*---------------------------------------------------------------------------*/
FoamFile
{
    format      ascii;
    class       volVectorField;
    location    "6";
    object      U;
}
// * * * * * * * * * * * * * * * * * * * * * * * * * * * * * * * * * * * * * //

dimensions      [0 1 -1 0 0 0 0];

internalField   nonuniform List<vector> 
1600
(
(0.00112225 -0.000980981 0)
(0.00590268 -0.00156504 0)
(0.0105711 -0.00132738 0)
(0.0134904 -0.00027798 0)
(0.013903 0.000297723 0)
(0.0134133 0.00013089 0)
(0.0127115 -0.000572187 0)
(0.0125458 -0.00112608 0)
(0.012187 -0.00118158 0)
(0.0110871 -0.000974154 0)
(0.00857215 -0.000985221 0)
(0.00256372 -0.000621271 0)
(-0.00785405 0.00118057 0)
(-0.019472 0.00680428 0)
(-0.0419052 0.0129246 0)
(-0.0674379 0.0136539 0)
(-0.0891824 0.0125158 0)
(-0.108743 0.0109875 0)
(-0.124625 0.00925409 0)
(-0.137919 0.00759939 0)
(-0.148066 0.00596536 0)
(-0.155681 0.00441115 0)
(-0.160205 0.00291408 0)
(-0.162131 0.00150406 0)
(-0.161681 -0.000686357 0)
(-0.157398 -0.00231252 0)
(-0.150435 -0.00453493 0)
(-0.13931 -0.00639567 0)
(-0.124856 -0.00861834 0)
(-0.10662 -0.0108191 0)
(-0.0852016 -0.0130747 0)
(-0.0609064 -0.0145669 0)
(-0.0350942 -0.0148522 0)
(-0.00860044 -0.013413 0)
(0.0127359 -0.0113269 0)
(0.0286273 -0.00411922 0)
(0.0300374 0.00333522 0)
(0.023745 0.00522814 0)
(0.0113004 0.00421941 0)
(0.00234347 0.00289668 0)
(0.00208373 -0.00581685 0)
(0.0102509 -0.00886811 0)
(0.0156859 -0.00666416 0)
(0.0187955 -0.00272494 0)
(0.019168 0.000308487 0)
(0.0172582 0.00150085 0)
(0.0138148 0.00139202 0)
(0.00902285 0.00153705 0)
(0.00170003 0.00289985 0)
(-0.00989731 0.00561084 0)
(-0.02646 0.0106564 0)
(-0.051917 0.0191771 0)
(-0.082202 0.0276312 0)
(-0.109276 0.033732 0)
(-0.131633 0.0344278 0)
(-0.150702 0.0319957 0)
(-0.166503 0.0283323 0)
(-0.179797 0.0240782 0)
(-0.190304 0.0198029 0)
(-0.198599 0.0155935 0)
(-0.20443 0.0115262 0)
(-0.208161 0.00753028 0)
(-0.209607 0.00355202 0)
(-0.20894 -0.000557339 0)
(-0.20592 -0.00503277 0)
(-0.200525 -0.00972203 0)
(-0.192467 -0.0147419 0)
(-0.181508 -0.0200752 0)
(-0.167342 -0.0257156 0)
(-0.149303 -0.0312115 0)
(-0.127929 -0.0362986 0)
(-0.103897 -0.0404141 0)
(-0.077218 -0.0415236 0)
(-0.049422 -0.0385503 0)
(-0.0226303 -0.0303492 0)
(0.000523555 -0.0143731 0)
(0.0163105 0.00350607 0)
(0.0164034 0.0111678 0)
(0.00973978 0.0136329 0)
(0.00150783 0.010304 0)
(0.00334793 -0.0134548 0)
(0.0113238 -0.0159668 0)
(0.0145046 -0.0107495 0)
(0.0153282 -0.00344455 0)
(0.0133169 0.00203964 0)
(0.0086673 0.00509695 0)
(0.000480158 0.00725988 0)
(-0.0122195 0.0113898 0)
(-0.0310626 0.0193957 0)
(-0.0569252 0.0305222 0)
(-0.0863542 0.0417031 0)
(-0.113663 0.0488139 0)
(-0.137338 0.0521174 0)
(-0.156001 0.0522159 0)
(-0.171275 0.049353 0)
(-0.183559 0.0447793 0)
(-0.193493 0.0391822 0)
(-0.201486 0.0331936 0)
(-0.207758 0.0271468 0)
(-0.212529 0.0212145 0)
(-0.215946 0.0151117 0)
(-0.217873 0.00937174 0)
(-0.218283 0.00354143 0)
(-0.217113 -0.00233238 0)
(-0.214312 -0.00852916 0)
(-0.20989 -0.0151239 0)
(-0.203708 -0.0224634 0)
(-0.195506 -0.0305425 0)
(-0.185149 -0.0395289 0)
(-0.172285 -0.0488194 0)
(-0.156439 -0.0578547 0)
(-0.137025 -0.0651045 0)
(-0.114286 -0.0684934 0)
(-0.0888698 -0.0664794 0)
(-0.0615322 -0.0561755 0)
(-0.0334662 -0.0357658 0)
(-0.00654398 -0.00619818 0)
(0.00159116 0.0113302 0)
(0.00187677 0.0178229 0)
(-0.000172567 0.0138356 0)
(0.00400325 -0.0218253 0)
(0.00834773 -0.0203052 0)
(0.00859716 -0.0112026 0)
(0.00570348 -0.000854831 0)
(-0.00011038 0.00732141 0)
(-0.0100196 0.0143494 0)
(-0.025448 0.0224535 0)
(-0.0468779 0.0333718 0)
(-0.0730648 0.0464065 0)
(-0.101442 0.058479 0)
(-0.127278 0.066631 0)
(-0.147468 0.0697755 0)
(-0.163404 0.0693275 0)
(-0.175354 0.0659218 0)
(-0.185007 0.0605963 0)
(-0.192439 0.0541513 0)
(-0.198423 0.0470654 0)
(-0.203371 0.0394507 0)
(-0.207521 0.0318116 0)
(-0.210668 0.0242875 0)
(-0.212703 0.0171942 0)
(-0.213636 0.0100172 0)
(-0.213512 0.00286701 0)
(-0.212369 -0.00446408 0)
(-0.210176 -0.0120375 0)
(-0.206822 -0.0200856 0)
(-0.202233 -0.028764 0)
(-0.196274 -0.0382086 0)
(-0.18878 -0.0484698 0)
(-0.179664 -0.0598667 0)
(-0.168821 -0.071912 0)
(-0.155929 -0.0837008 0)
(-0.140361 -0.0927229 0)
(-0.120064 -0.0949779 0)
(-0.0945277 -0.0863999 0)
(-0.0648464 -0.0648606 0)
(-0.0292085 -0.0272704 0)
(-0.00716638 0.00396954 0)
(-0.00207061 0.0157651 0)
(-0.000190302 0.0134422 0)
(0.00255085 -0.0262463 0)
(0.00308701 -0.0204654 0)
(-0.000927116 -0.00710884 0)
(-0.00786386 0.00608603 0)
(-0.0185126 0.0182645 0)
(-0.0339991 0.0305187 0)
(-0.0549491 0.0442718 0)
(-0.0800865 0.0592524 0)
(-0.106355 0.0728441 0)
(-0.130048 0.0820102 0)
(-0.148028 0.0853525 0)
(-0.161582 0.0845767 0)
(-0.17192 0.0808809 0)
(-0.179513 0.0749864 0)
(-0.185509 0.0678139 0)
(-0.190256 0.0595949 0)
(-0.194252 0.0510639 0)
(-0.197172 0.0426282 0)
(-0.19897 0.0343315 0)
(-0.199853 0.0261431 0)
(-0.200151 0.018135 0)
(-0.199863 0.0101827 0)
(-0.199091 0.00225258 0)
(-0.197803 -0.0058592 0)
(-0.195897 -0.0142885 0)
(-0.19336 -0.0232753 0)
(-0.190186 -0.0330108 0)
(-0.186314 -0.0436709 0)
(-0.18165 -0.0553279 0)
(-0.176041 -0.0678878 0)
(-0.169225 -0.0810451 0)
(-0.160774 -0.0940876 0)
(-0.150472 -0.10661 0)
(-0.137268 -0.115353 0)
(-0.118526 -0.114835 0)
(-0.0914955 -0.0985759 0)
(-0.056594 -0.063846 0)
(-0.0169639 -0.013997 0)
(-0.00203509 0.0103903 0)
(0.000784406 0.0126497 0)
(-0.000142866 -0.02713 0)
(-0.00416293 -0.0156763 0)
(-0.0120947 0.000849442 0)
(-0.0230616 0.0176021 0)
(-0.0380759 0.0341888 0)
(-0.0575436 0.0511551 0)
(-0.0806531 0.0683413 0)
(-0.104891 0.0837993 0)
(-0.126839 0.0947066 0)
(-0.143451 0.099038 0)
(-0.155333 0.098268 0)
(-0.164338 0.0943928 0)
(-0.170784 0.0881414 0)
(-0.175474 0.0803842 0)
(-0.178948 0.0716776 0)
(-0.180987 0.0626129 0)
(-0.182192 0.0533704 0)
(-0.182578 0.044168 0)
(-0.182623 0.0351477 0)
(-0.182429 0.0264017 0)
(-0.181843 0.0179197 0)
(-0.180964 0.00957143 0)
(-0.179773 0.00126503 0)
(-0.178272 -0.00717702 0)
(-0.176446 -0.0159258 0)
(-0.174345 -0.0252122 0)
(-0.172003 -0.0352518 0)
(-0.169444 -0.0462772 0)
(-0.166666 -0.0584806 0)
(-0.163622 -0.0719498 0)
(-0.160149 -0.0865086 0)
(-0.155877 -0.101559 0)
(-0.150112 -0.115835 0)
(-0.141706 -0.127531 0)
(-0.129228 -0.134208 0)
(-0.109838 -0.12869 0)
(-0.0805859 -0.103319 0)
(-0.0381637 -0.0519615 0)
(-0.00491698 -0.00239076 0)
(0.00157659 0.011979 0)
(-0.0032503 -0.0222362 0)
(-0.0115165 -0.00696426 0)
(-0.02289 0.0126151 0)
(-0.0373765 0.0328683 0)
(-0.0555143 0.053305 0)
(-0.0765576 0.0731665 0)
(-0.0988038 0.0910045 0)
(-0.119462 0.104308 0)
(-0.135328 0.110667 0)
(-0.146148 0.110639 0)
(-0.153964 0.106897 0)
(-0.159406 0.100542 0)
(-0.162885 0.0924043 0)
(-0.164968 0.0832376 0)
(-0.165898 0.073468 0)
(-0.166109 0.0635059 0)
(-0.165859 0.0536154 0)
(-0.165287 0.0439846 0)
(-0.164551 0.0346829 0)
(-0.163618 0.0256925 0)
(-0.162497 0.0169638 0)
(-0.161211 0.00838965 0)
(-0.159752 -0.000140151 0)
(-0.158128 -0.00877156 0)
(-0.156353 -0.0176765 0)
(-0.154478 -0.0270513 0)
(-0.152564 -0.0371017 0)
(-0.150678 -0.0480488 0)
(-0.148883 -0.0601105 0)
(-0.147208 -0.0734679 0)
(-0.14561 -0.0881861 0)
(-0.143883 -0.104052 0)
(-0.141458 -0.120338 0)
(-0.137215 -0.135351 0)
(-0.129443 -0.146287 0)
(-0.116158 -0.14917 0)
(-0.09507 -0.136441 0)
(-0.062314 -0.0976887 0)
(-0.014531 -0.0241249 0)
(0.00258737 0.0108624 0)
(-0.00599455 -0.0134371 0)
(-0.0176364 0.00561237 0)
(-0.0317458 0.0275078 0)
(-0.0489509 0.0506848 0)
(-0.0684405 0.07345 0)
(-0.0890007 0.0940389 0)
(-0.108681 0.110349 0)
(-0.124488 0.119767 0)
(-0.134924 0.121455 0)
(-0.141993 0.118313 0)
(-0.146745 0.112152 0)
(-0.149515 0.103844 0)
(-0.15081 0.0942378 0)
(-0.151098 0.0839554 0)
(-0.150687 0.0734221 0)
(-0.14992 0.0629826 0)
(-0.14894 0.0528151 0)
(-0.147846 0.0430235 0)
(-0.146676 0.0336026 0)
(-0.14542 0.0245056 0)
(-0.144087 0.0156604 0)
(-0.142661 0.00696432 0)
(-0.141139 -0.00168811 0)
(-0.139516 -0.0104289 0)
(-0.137812 -0.0194123 0)
(-0.136074 -0.0288089 0)
(-0.134375 -0.0388083 0)
(-0.132806 -0.0496203 0)
(-0.131469 -0.0614668 0)
(-0.130452 -0.0745575 0)
(-0.129782 -0.089034 0)
(-0.129353 -0.104871 0)
(-0.128779 -0.121704 0)
(-0.12714 -0.138572 0)
(-0.122889 -0.153382 0)
(-0.114127 -0.162253 0)
(-0.0990442 -0.159117 0)
(-0.0745051 -0.134554 0)
(-0.032914 -0.067445 0)
(0.000456891 -0.000117611 0)
(-0.00771646 -0.00101546 0)
(-0.0220811 0.0211325 0)
(-0.0380986 0.0445866 0)
(-0.056575 0.069376 0)
(-0.0759846 0.0928197 0)
(-0.0949359 0.112539 0)
(-0.111232 0.125848 0)
(-0.121998 0.130415 0)
(-0.129 0.128655 0)
(-0.133434 0.123038 0)
(-0.135965 0.114895 0)
(-0.136921 0.105075 0)
(-0.136865 0.0944003 0)
(-0.136158 0.0834122 0)
(-0.13509 0.0724807 0)
(-0.133877 0.0618408 0)
(-0.132601 0.0515899 0)
(-0.131323 0.0417607 0)
(-0.130047 0.0323082 0)
(-0.128761 0.0231723 0)
(-0.127447 0.0142729 0)
(-0.126073 0.00550619 0)
(-0.124618 -0.00323044 0)
(-0.123071 -0.0120476 0)
(-0.121444 -0.0210772 0)
(-0.119778 -0.0304589 0)
(-0.118141 -0.0403536 0)
(-0.116635 -0.0509497 0)
(-0.115384 -0.0624674 0)
(-0.114521 -0.0751537 0)
(-0.114139 -0.0892478 0)
(-0.114231 -0.104897 0)
(-0.114569 -0.122007 0)
(-0.114494 -0.140019 0)
(-0.112616 -0.157455 0)
(-0.107047 -0.17111 0)
(-0.0964456 -0.174953 0)
(-0.0782194 -0.16183 0)
(-0.049213 -0.113469 0)
(-0.00677968 -0.0150015 0)
(-0.0087293 0.0137035 0)
(-0.0247083 0.0383132 0)
(-0.0415178 0.0625336 0)
(-0.0602122 0.0877487 0)
(-0.0786765 0.110808 0)
(-0.0955584 0.128437 0)
(-0.107335 0.137002 0)
(-0.115036 0.13784 0)
(-0.119654 0.133328 0)
(-0.122271 0.125677 0)
(-0.123318 0.115954 0)
(-0.123204 0.105032 0)
(-0.122437 0.093666 0)
(-0.121286 0.0822913 0)
(-0.119987 0.0711927 0)
(-0.118669 0.0605104 0)
(-0.117389 0.0502784 0)
(-0.116175 0.0404814 0)
(-0.115008 0.0310512 0)
(-0.113861 0.0219115 0)
(-0.112696 0.0129734 0)
(-0.111474 0.00414182 0)
(-0.110162 -0.0046851 0)
(-0.108748 -0.0135987 0)
(-0.10723 -0.0227048 0)
(-0.105638 -0.0321162 0)
(-0.104026 -0.0419591 0)
(-0.102486 -0.0523874 0)
(-0.101141 -0.0635942 0)
(-0.100137 -0.0758232 0)
(-0.0996137 -0.0893637 0)
(-0.0996433 -0.104505 0)
(-0.100144 -0.121423 0)
(-0.100718 -0.139987 0)
(-0.100272 -0.159375 0)
(-0.0968 -0.177031 0)
(-0.0892545 -0.186444 0)
(-0.0752313 -0.18223 0)
(-0.0529648 -0.1478 0)
(-0.0158357 -0.0424143 0)
(-0.00917772 0.0295735 0)
(-0.0256668 0.056199 0)
(-0.0423164 0.0804267 0)
(-0.0604004 0.105264 0)
(-0.0775021 0.12694 0)
(-0.0912027 0.140822 0)
(-0.0995826 0.14522 0)
(-0.105425 0.143058 0)
(-0.108348 0.136274 0)
(-0.10981 0.126961 0)
(-0.109965 0.116024 0)
(-0.109327 0.104346 0)
(-0.108279 0.0925591 0)
(-0.107034 0.0810018 0)
(-0.105768 0.0698736 0)
(-0.104564 0.0592398 0)
(-0.103451 0.049087 0)
(-0.10243 0.0393602 0)
(-0.101467 0.0299724 0)
(-0.100523 0.0208347 0)
(-0.0995517 0.0118561 0)
(-0.0985127 0.00294877 0)
(-0.0973765 -0.00598109 0)
(-0.0961226 -0.0150112 0)
(-0.094744 -0.0242248 0)
(-0.0932578 -0.0337124 0)
(-0.0917013 -0.04357 0)
(-0.090144 -0.0539178 0)
(-0.0886901 -0.0649151 0)
(-0.0874785 -0.0767853 0)
(-0.0866637 -0.0898329 0)
(-0.0863714 -0.104434 0)
(-0.0866251 -0.120957 0)
(-0.0872308 -0.139581 0)
(-0.0874696 -0.160056 0)
(-0.0855155 -0.180896 0)
(-0.0796566 -0.195518 0)
(-0.0688243 -0.198181 0)
(-0.0493749 -0.176386 0)
(-0.0187156 -0.0909066 0)
(-0.00898545 0.045437 0)
(-0.0251131 0.073823 0)
(-0.0409336 0.0975016 0)
(-0.0577753 0.121259 0)
(-0.0731926 0.140856 0)
(-0.083381 0.150271 0)
(-0.0900429 0.15158 0)
(-0.0942992 0.146742 0)
(-0.0961503 0.138106 0)
(-0.0969191 0.12745 0)
(-0.0966248 0.11561 0)
(-0.0958185 0.103424 0)
(-0.0947587 0.0913984 0)
(-0.0936246 0.0797846 0)
(-0.0925409 0.0687062 0)
(-0.0915558 0.058168 0)
(-0.0906777 0.0481156 0)
(-0.0898853 0.0384635 0)
(-0.0891385 0.0291121 0)
(-0.0883965 0.0199659 0)
(-0.0876148 0.0109363 0)
(-0.0867557 0.00194275 0)
(-0.0857947 -0.00709945 0)
(-0.08471 -0.0162583 0)
(-0.0834912 -0.025601 0)
(-0.0821442 -0.0352005 0)
(-0.0806894 -0.0451294 0)
(-0.0791718 -0.055477 0)
(-0.0776671 -0.0663662 0)
(-0.076289 -0.0779843 0)
(-0.0751849 -0.0906223 0)
(-0.0745078 -0.104701 0)
(-0.0743523 -0.120735 0)
(-0.0746553 -0.139168 0)
(-0.0750191 -0.16013 0)
(-0.0740573 -0.182982 0)
(-0.0692344 -0.203164 0)
(-0.061044 -0.210591 0)
(-0.0442456 -0.198219 0)
(-0.0157795 -0.123933 0)
(-0.00830357 0.0606715 0)
(-0.0233812 0.0905677 0)
(-0.0379307 0.113359 0)
(-0.053368 0.135722 0)
(-0.0662624 0.152043 0)
(-0.073923 0.157827 0)
(-0.0795059 0.156454 0)
(-0.0825024 0.149403 0)
(-0.083754 0.139259 0)
(-0.0841378 0.127534 0)
(-0.0836924 0.115033 0)
(-0.0829265 0.102513 0)
(-0.0820063 0.0903647 0)
(-0.0810839 0.0787664 0)
(-0.080241 0.0677736 0)
(-0.0795013 0.0573414 0)
(-0.0788561 0.0473816 0)
(-0.0782752 0.0377882 0)
(-0.0777193 0.0284552 0)
(-0.0771517 0.0192861 0)
(-0.0765351 0.0101965 0)
(-0.0758383 0.00111226 0)
(-0.0750419 -0.00804289 0)
(-0.0741267 -0.0173311 0)
(-0.0730802 -0.02681 0)
(-0.0719005 -0.0365403 0)
(-0.0705943 -0.0465796 0)
(-0.0691845 -0.0569944 0)
(-0.0677179 -0.0678758 0)
(-0.0662756 -0.0793714 0)
(-0.0649805 -0.0917362 0)
(-0.0639881 -0.105391 0)
(-0.0634407 -0.120944 0)
(-0.0633728 -0.139071 0)
(-0.0635672 -0.160209 0)
(-0.0630706 -0.184189 0)
(-0.0594073 -0.209072 0)
(-0.0524069 -0.221799 0)
(-0.038679 -0.217942 0)
(-0.0139176 -0.156354 0)
(-0.0072434 0.0745418 0)
(-0.0208782 0.105913 0)
(-0.0338377 0.127624 0)
(-0.0476234 0.14824 0)
(-0.0577976 0.160912 0)
(-0.0638013 0.163987 0)
(-0.0685119 0.160252 0)
(-0.0706195 0.151396 0)
(-0.0715633 0.140027 0)
(-0.0717651 0.127465 0)
(-0.0713482 0.114483 0)
(-0.0707283 0.101745 0)
(-0.070016 0.0895427 0)
(-0.0693346 0.0779916 0)
(-0.0687328 0.0670883 0)
(-0.0682175 0.0567481 0)
(-0.0677715 0.046858 0)
(-0.0673644 0.0373004 0)
(-0.0669628 0.0279672 0)
(-0.0665377 0.0187644 0)
(-0.0660608 0.00961191 0)
(-0.0655082 0.000440254 0)
(-0.0648656 -0.00881993 0)
(-0.0641172 -0.018228 0)
(-0.0632503 -0.0278369 0)
(-0.0622574 -0.0377005 0)
(-0.061135 -0.0478676 0)
(-0.0598887 -0.0583896 0)
(-0.0585406 -0.0693327 0)
(-0.0571406 -0.080808 0)
(-0.0557796 -0.0930254 0)
(-0.0545961 -0.106374 0)
(-0.0537528 -0.121498 0)
(-0.0533549 -0.139252 0)
(-0.0533027 -0.160395 0)
(-0.0530066 -0.185226 0)
(-0.0505455 -0.212519 0)
(-0.0441744 -0.231479 0)
(-0.0335775 -0.232928 0)
(-0.0114438 -0.180893 0)
(-0.00605895 0.0867871 0)
(-0.0178589 0.119497 0)
(-0.0290274 0.139993 0)
(-0.0408814 0.1586 0)
(-0.0486349 0.168058 0)
(-0.0537878 0.169075 0)
(-0.0574579 0.163254 0)
(-0.0590112 0.152951 0)
(-0.059792 0.140602 0)
(-0.0599387 0.12739 0)
(-0.0596396 0.11406 0)
(-0.0592052 0.101175 0)
(-0.058714 0.0889527 0)
(-0.0582595 0.0774527 0)
(-0.0578676 0.0666232 0)
(-0.0575364 0.0563499 0)
(-0.0572471 0.0465032 0)
(-0.0569746 0.0369602 0)
(-0.0566941 0.0276136 0)
(-0.0563847 0.0183729 0)
(-0.0560275 0.00916138 0)
(-0.0556056 -8.73494e-05 0)
(-0.0551087 -0.00943806 0)
(-0.0545249 -0.0189492 0)
(-0.0538421 -0.0286732 0)
(-0.0530495 -0.0386611 0)
(-0.0521365 -0.0489582 0)
(-0.0510965 -0.059607 0)
(-0.0499325 -0.0706564 0)
(-0.0486687 -0.0821866 0)
(-0.0473661 -0.0943613 0)
(-0.0461372 -0.107519 0)
(-0.0451428 -0.122289 0)
(-0.0445339 -0.139642 0)
(-0.0443049 -0.160651 0)
(-0.0440982 -0.185991 0)
(-0.0424178 -0.215238 0)
(-0.0368183 -0.24024 0)
(-0.0292812 -0.24666 0)
(-0.00998483 -0.203834 0)
(-0.00462121 0.0967579 0)
(-0.0145121 0.131026 0)
(-0.0238595 0.150455 0)
(-0.0336457 0.166929 0)
(-0.0394624 0.173862 0)
(-0.0438699 0.173128 0)
(-0.0466252 0.165651 0)
(-0.0478421 0.154215 0)
(-0.048528 0.141093 0)
(-0.0486906 0.127384 0)
(-0.0485387 0.113797 0)
(-0.0482893 0.100809 0)
(-0.0480001 0.0885775 0)
(-0.0477372 0.0771161 0)
(-0.0475129 0.0663362 0)
(-0.0473224 0.0561028 0)
(-0.0471506 0.0462769 0)
(-0.04698 0.0367334 0)
(-0.0467946 0.0273672 0)
(-0.0465818 0.0180908 0)
(-0.0463303 0.00883 0)
(-0.0460297 -0.000480213 0)
(-0.0456732 -0.00990223 0)
(-0.0452523 -0.0194949 0)
(-0.0447561 -0.0293127 0)
(-0.0441727 -0.0394072 0)
(-0.0434871 -0.049824 0)
(-0.042684 -0.060602 0)
(-0.0417529 -0.0717786 0)
(-0.0406982 -0.0834098 0)
(-0.0395556 -0.0956171 0)
(-0.0384121 -0.108681 0)
(-0.0374176 -0.123185 0)
(-0.0367548 -0.140149 0)
(-0.0365033 -0.160904 0)
(-0.036403 -0.186471 0)
(-0.035362 -0.216766 0)
(-0.031246 -0.246603 0)
(-0.024681 -0.257871 0)
(-0.00842157 -0.221875 0)
(-0.00331751 0.104751 0)
(-0.0110373 0.140516 0)
(-0.0186013 0.159039 0)
(-0.0262794 0.173408 0)
(-0.030501 0.178439 0)
(-0.0341517 0.176305 0)
(-0.0361699 0.167565 0)
(-0.0371598 0.15527 0)
(-0.0377792 0.141556 0)
(-0.0379884 0.127473 0)
(-0.0379783 0.113695 0)
(-0.0378921 0.100626 0)
(-0.0377707 0.0883819 0)
(-0.0376577 0.0769395 0)
(-0.037559 0.066184 0)
(-0.0374711 0.0559676 0)
(-0.037385 0.046146 0)
(-0.0372913 0.0365941 0)
(-0.0371826 0.0272085 0)
(-0.0370531 0.0179041 0)
(-0.0368983 0.008608 0)
(-0.036713 -0.000744656 0)
(-0.0364934 -0.0102157 0)
(-0.0362339 -0.0198653 0)
(-0.0359258 -0.0297514 0)
(-0.0355572 -0.0399286 0)
(-0.0351112 -0.0504458 0)
(-0.0345677 -0.0613421 0)
(-0.0339066 -0.0726489 0)
(-0.0331173 -0.0844031 0)
(-0.0322148 -0.0966883 0)
(-0.0312611 -0.109726 0)
(-0.0303876 -0.124034 0)
(-0.0297893 -0.140635 0)
(-0.0296155 -0.161062 0)
(-0.0296888 -0.186724 0)
(-0.0291646 -0.218004 0)
(-0.0262345 -0.251681 0)
(-0.0215892 -0.267814 0)
(-0.00734097 -0.238677 0)
(-0.00172069 0.1101 0)
(-0.00750614 0.147789 0)
(-0.0132704 0.165646 0)
(-0.0189579 0.178226 0)
(-0.0218906 0.181936 0)
(-0.0247326 0.17872 0)
(-0.0261449 0.16908 0)
(-0.026947 0.156163 0)
(-0.0275056 0.142013 0)
(-0.0277647 0.127654 0)
(-0.0278735 0.113731 0)
(-0.0279194 0.100592 0)
(-0.0279278 0.0883262 0)
(-0.0279256 0.076882 0)
(-0.0279165 0.0661291 0)
(-0.0279005 0.0559124 0)
(-0.0278759 0.0460854 0)
(-0.0278412 0.0365233 0)
(-0.0277961 0.0271241 0)
(-0.0277412 0.0178034 0)
(-0.027677 0.00848908 0)
(-0.0276029 -0.000884732 0)
(-0.0275178 -0.0103807 0)
(-0.0274188 -0.0200609 0)
(-0.0272993 -0.0299871 0)
(-0.0271487 -0.0402187 0)
(-0.0269505 -0.0508096 0)
(-0.0266825 -0.061803 0)
(-0.026319 -0.0732281 0)
(-0.0258393 -0.0851086 0)
(-0.0252424 -0.0974961 0)
(-0.0245697 -0.110555 0)
(-0.0239325 -0.124726 0)
(-0.0235221 -0.140986 0)
(-0.0235275 -0.160994 0)
(-0.0238587 -0.186575 0)
(-0.0239367 -0.218686 0)
(-0.0221556 -0.254791 0)
(-0.0186166 -0.275738 0)
(-0.00625661 -0.252375 0)
(-0.000579595 0.113622 0)
(-0.00403623 0.152988 0)
(-0.00799023 0.170347 0)
(-0.0118009 0.181552 0)
(-0.013662 0.184459 0)
(-0.0156295 0.180433 0)
(-0.0165315 0.170225 0)
(-0.0171511 0.156906 0)
(-0.0176414 0.142459 0)
(-0.0179358 0.127908 0)
(-0.0181335 0.113875 0)
(-0.0182786 0.100673 0)
(-0.0183817 0.0883731 0)
(-0.0184572 0.0769087 0)
(-0.018509 0.0661415 0)
(-0.0185418 0.0559134 0)
(-0.0185609 0.046077 0)
(-0.0185722 0.036508 0)
(-0.0185817 0.0271047 0)
(-0.0185952 0.0177827 0)
(-0.0186174 0.00846908 0)
(-0.0186517 -0.000903237 0)
(-0.0186994 -0.0103989 0)
(-0.0187599 -0.0200821 0)
(-0.018829 -0.0300186 0)
(-0.0188983 -0.0402732 0)
(-0.0189529 -0.0509063 0)
(-0.018971 -0.0619669 0)
(-0.0189248 -0.0734862 0)
(-0.0187871 -0.0854792 0)
(-0.0185451 -0.0979712 0)
(-0.0182224 -0.111074 0)
(-0.0179104 -0.125151 0)
(-0.0177874 -0.141103 0)
(-0.0180656 -0.160652 0)
(-0.0187447 -0.186018 0)
(-0.0194351 -0.21872 0)
(-0.018684 -0.257098 0)
(-0.0165286 -0.282619 0)
(-0.00546209 -0.265187 0)
(0.00116282 0.114311 0)
(-0.000584351 0.156062 0)
(-0.00275872 0.173223 0)
(-0.00487132 0.183537 0)
(-0.00574297 0.18598 0)
(-0.00683777 0.181498 0)
(-0.00727669 0.171027 0)
(-0.00769955 0.1575 0)
(-0.00810485 0.142882 0)
(-0.00841116 0.128211 0)
(-0.00866675 0.114097 0)
(-0.00888074 0.100836 0)
(-0.00904911 0.0884914 0)
(-0.00917658 0.076992 0)
(-0.0092676 0.0661978 0)
(-0.009332 0.0559523 0)
(-0.00938204 0.0461073 0)
(-0.00942985 0.0365386 0)
(-0.00948711 0.0271437 0)
(-0.0095642 0.0178373 0)
(-0.00966965 0.00854492 0)
(-0.00980998 -0.00080239 0)
(-0.00998893 -0.0102717 0)
(-0.010208 -0.0199299 0)
(-0.0104656 -0.029846 0)
(-0.0107557 -0.0400903 0)
(-0.0110665 -0.0507301 0)
(-0.011378 -0.061822 0)
(-0.0116631 -0.0734018 0)
(-0.0118922 -0.0854809 0)
(-0.0120443 -0.0980638 0)
(-0.0121282 -0.111216 0)
(-0.0122149 -0.125221 0)
(-0.012465 -0.140891 0)
(-0.0131011 -0.159953 0)
(-0.0142112 -0.184968 0)
(-0.0155218 -0.218005 0)
(-0.0156927 -0.258068 0)
(-0.0146399 -0.287949 0)
(-0.00468476 -0.275917 0)
(0.00228511 0.112979 0)
(0.00272167 0.157091 0)
(0.00233168 0.174401 0)
(0.00180123 0.184296 0)
(0.00192513 0.186581 0)
(0.00170075 0.181916 0)
(0.00169218 0.171442 0)
(0.00148432 0.157912 0)
(0.00118771 0.143252 0)
(0.000897961 0.128531 0)
(0.00061442 0.114366 0)
(0.000358249 0.101052 0)
(0.000149205 0.0886558 0)
(-1.05872e-05 0.0771124 0)
(-0.00012443 0.0662848 0)
(-0.000207584 0.0560185 0)
(-0.000279548 0.0461678 0)
(-0.000356997 0.0366082 0)
(-0.000456694 0.027236 0)
(-0.000593418 0.0179636 0)
(-0.00077923 0.00871419 0)
(-0.00102352 -0.000583582 0)
(-0.00133253 -0.00999952 0)
(-0.00170987 -0.0196037 0)
(-0.00215602 -0.0294684 0)
(-0.00266748 -0.039669 0)
(-0.00323563 -0.050279 0)
(-0.00384439 -0.0613619 0)
(-0.00447047 -0.0729605 0)
(-0.00508465 -0.0850872 0)
(-0.00566196 -0.0977324 0)
(-0.0061975 -0.110922 0)
(-0.00674239 -0.124864 0)
(-0.0074374 -0.140273 0)
(-0.00850508 -0.158844 0)
(-0.0101121 -0.18341 0)
(-0.0120862 -0.216641 0)
(-0.013103 -0.258261 0)
(-0.0132749 -0.292451 0)
(-0.00408769 -0.286041 0)
(0.0034986 0.10961 0)
(0.00599479 0.156145 0)
(0.00728506 0.174043 0)
(0.00822665 0.183835 0)
(0.00938355 0.186128 0)
(0.00998707 0.181773 0)
(0.0104302 0.171523 0)
(0.0104803 0.158134 0)
(0.0103217 0.143546 0)
(0.0100773 0.128842 0)
(0.00979423 0.114655 0)
(0.00952185 0.101296 0)
(0.00929275 0.0888468 0)
(0.00911668 0.0772525 0)
(0.00898963 0.0663874 0)
(0.00889462 0.0561006 0)
(0.0088081 0.04625 0)
(0.00870728 0.0367108 0)
(0.0085704 0.027377 0)
(0.00837841 0.0181583 0)
(0.00811573 0.0089744 0)
(0.00777003 -0.00024886 0)
(0.00733261 -0.00958376 0)
(0.00679785 -0.0191037 0)
(0.00616305 -0.0288841 0)
(0.00542925 -0.039005 0)
(0.00460205 -0.0495463 0)
(0.0036926 -0.060579 0)
(0.00271919 -0.0721523 0)
(0.00170723 -0.0842806 0)
(0.000679648 -0.0969467 0)
(-0.000346339 -0.110144 0)
(-0.00140173 -0.124017 0)
(-0.00260558 -0.139176 0)
(-0.00417169 -0.157251 0)
(-0.00632397 -0.181277 0)
(-0.00899375 -0.214525 0)
(-0.0107338 -0.257359 0)
(-0.0120683 -0.295779 0)
(-0.0034891 -0.294721 0)
(0.00480756 0.103771 0)
(0.00925319 0.153218 0)
(0.0121272 0.17216 0)
(0.0144292 0.182192 0)
(0.0166326 0.18474 0)
(0.0180444 0.180969 0)
(0.0189952 0.171246 0)
(0.0193434 0.15814 0)
(0.0193593 0.143735 0)
(0.0191983 0.129114 0)
(0.0189489 0.114942 0)
(0.0186849 0.101551 0)
(0.0184542 0.0890485 0)
(0.0182755 0.0774009 0)
(0.0181458 0.0664957 0)
(0.0180468 0.0561911 0)
(0.017952 0.0463479 0)
(0.0178335 0.036841 0)
(0.0176647 0.0275619 0)
(0.0174225 0.0184168 0)
(0.0170875 0.00932199 0)
(0.0166445 0.000199663 0)
(0.0160819 -0.00902614 0)
(0.0153916 -0.018432 0)
(0.0145691 -0.0280963 0)
(0.0136129 -0.0381014 0)
(0.0125243 -0.0485314 0)
(0.0113089 -0.0594647 0)
(0.00998031 -0.07096 0)
(0.00855673 -0.0830377 0)
(0.00706015 -0.0956761 0)
(0.0055107 -0.108844 0)
(0.00389396 -0.122627 0)
(0.00212151 -0.137537 0)
(-7.70263e-06 -0.155115 0)
(-0.00276184 -0.178544 0)
(-0.00620354 -0.211736 0)
(-0.00856297 -0.255652 0)
(-0.0111619 -0.298473 0)
(-0.00297589 -0.302971 0)
(0.00606809 0.0958524 0)
(0.012441 0.148395 0)
(0.0168528 0.168834 0)
(0.020436 0.179416 0)
(0.02373 0.182383 0)
(0.0258135 0.179457 0)
(0.0273884 0.170599 0)
(0.0281083 0.157894 0)
(0.0283473 0.143774 0)
(0.028318 0.12931 0)
(0.0281422 0.115192 0)
(0.0279177 0.10179 0)
(0.0277096 0.089245 0)
(0.0275448 0.0775468 0)
(0.0274241 0.0666028 0)
(0.0273295 0.0562839 0)
(0.0272327 0.0464555 0)
(0.0271021 0.0369927 0)
(0.0269069 0.0277845 0)
(0.0266198 0.0187335 0)
(0.0262178 0.0097518 0)
(0.0256823 0.000757531 0)
(0.024999 -0.0083297 0)
(0.0241572 -0.0175893 0)
(0.023149 -0.0271029 0)
(0.0219698 -0.0369561 0)
(0.0206167 -0.047236 0)
(0.019092 -0.0580234 0)
(0.0174002 -0.0693817 0)
(0.0155506 -0.0813415 0)
(0.0135624 -0.093887 0)
(0.0114565 -0.106977 0)
(0.00923363 -0.120643 0)
(0.00683443 -0.135292 0)
(0.00408308 -0.152362 0)
(0.000671295 -0.175132 0)
(-0.00361832 -0.208178 0)
(-0.0065185 -0.253153 0)
(-0.0105821 -0.299869 0)
(-0.00217879 -0.310273 0)
(0.00721499 0.0858566 0)
(0.0154971 0.141684 0)
(0.0214188 0.164094 0)
(0.0262117 0.175533 0)
(0.0305156 0.179284 0)
(0.0333714 0.177096 0)
(0.0355754 0.169423 0)
(0.0367818 0.157329 0)
(0.0373154 0.143607 0)
(0.0374768 0.129377 0)
(0.0374275 0.115365 0)
(0.0372864 0.101985 0)
(0.0371323 0.0894138 0)
(0.0370037 0.0776741 0)
(0.0369076 0.0666978 0)
(0.0368286 0.0563711 0)
(0.0367382 0.0465666 0)
(0.0366025 0.0371605 0)
(0.0363874 0.02804 0)
(0.0360619 0.0191034 0)
(0.035599 0.0102589 0)
(0.0349767 0.00141956 0)
(0.0341778 -0.00749911 0)
(0.0331881 -0.016579 0)
(0.0319961 -0.0259043 0)
(0.0305939 -0.0355636 0)
(0.0289748 -0.0456468 0)
(0.0271332 -0.0562389 0)
(0.0250659 -0.0674074 0)
(0.0227765 -0.0791866 0)
(0.020275 -0.0915657 0)
(0.0175771 -0.104506 0)
(0.0146975 -0.118012 0)
(0.0116172 -0.132389 0)
(0.00818281 -0.148942 0)
(0.00405218 -0.171008 0)
(-0.00117525 -0.203851 0)
(-0.00459556 -0.24994 0)
(-0.0101507 -0.300442 0)
(-0.00147807 -0.3173 0)
(0.00817765 0.0738888 0)
(0.0183153 0.133168 0)
(0.0257181 0.158003 0)
(0.0316762 0.170602 0)
(0.0368269 0.175371 0)
(0.0407045 0.173981 0)
(0.0435041 0.167572 0)
(0.0453208 0.156351 0)
(0.0462529 0.143161 0)
(0.0466898 0.129251 0)
(0.0468387 0.115409 0)
(0.0468401 0.102092 0)
(0.0467864 0.0895226 0)
(0.0467287 0.0777606 0)
(0.0466823 0.0667655 0)
(0.0466369 0.056442 0)
(0.0465661 0.0466728 0)
(0.0464357 0.0373372 0)
(0.0462094 0.0283212 0)
(0.0458534 0.0195198 0)
(0.0453368 0.0108367 0)
(0.0446344 0.00218037 0)
(0.0437253 -0.00653871 0)
(0.0425913 -0.0154038 0)
(0.041217 -0.0245021 0)
(0.0395903 -0.0339251 0)
(0.0376992 -0.0437624 0)
(0.035532 -0.0540997 0)
(0.0330773 -0.0650093 0)
(0.0303262 -0.0765344 0)
(0.0272776 -0.0886733 0)
(0.0239486 -0.101392 0)
(0.0203632 -0.114678 0)
(0.0165442 -0.12876 0)
(0.0123618 -0.144793 0)
(0.00744373 -0.166124 0)
(0.00121249 -0.198718 0)
(-0.00261083 -0.245913 0)
(-0.00955585 -0.300232 0)
(-0.000570479 -0.323661 0)
(0.00877897 0.0600775 0)
(0.0207277 0.122825 0)
(0.0295392 0.150519 0)
(0.0366626 0.164609 0)
(0.0427044 0.170512 0)
(0.0475293 0.170188 0)
(0.0510881 0.164935 0)
(0.0536202 0.154829 0)
(0.0550931 0.14233 0)
(0.0559278 0.128845 0)
(0.0563774 0.115245 0)
(0.0566062 0.102049 0)
(0.0567224 0.089524 0)
(0.0567894 0.0777709 0)
(0.0568329 0.0667799 0)
(0.0568505 0.0564779 0)
(0.0568208 0.0467601 0)
(0.0567115 0.0375116 0)
(0.0564866 0.0286189 0)
(0.0561104 0.0199743 0)
(0.0555486 0.0114782 0)
(0.054774 0.00303377 0)
(0.0537607 -0.00545288 0)
(0.0524859 -0.0140657 0)
(0.0509303 -0.0228951 0)
(0.0490764 -0.0320348 0)
(0.0469057 -0.0415736 0)
(0.0443991 -0.0515967 0)
(0.0415355 -0.0621767 0)
(0.0382949 -0.0733629 0)
(0.0346668 -0.0851684 0)
(0.0306638 -0.0975804 0)
(0.0263142 -0.110582 0)
(0.0216828 -0.12433 0)
(0.0166716 -0.139842 0)
(0.0108704 -0.160431 0)
(0.00358077 -0.192754 0)
(-0.000585381 -0.241129 0)
(-0.00950298 -0.298923 0)
(0.000296237 -0.329858 0)
(0.00874093 0.0449045 0)
(0.0224033 0.11082 0)
(0.032619 0.141692 0)
(0.0409411 0.157569 0)
(0.0479386 0.164684 0)
(0.0536782 0.165548 0)
(0.0581724 0.161449 0)
(0.061529 0.152602 0)
(0.0637168 0.140963 0)
(0.0651122 0.128031 0)
(0.0660043 0.114771 0)
(0.0665804 0.101769 0)
(0.0669655 0.0893479 0)
(0.0672366 0.0776503 0)
(0.0674319 0.0667002 0)
(0.0675594 0.0564486 0)
(0.0676054 0.0468066 0)
(0.067543 0.0376676 0)
(0.0673384 0.0289206 0)
(0.0669566 0.0204569 0)
(0.0663608 0.0121752 0)
(0.0655223 0.00397318 0)
(0.0644111 -0.00424581 0)
(0.0629982 -0.0125658 0)
(0.0612604 -0.0210809 0)
(0.059174 -0.0298854 0)
(0.0567124 -0.0390661 0)
(0.0538481 -0.0487064 0)
(0.0505498 -0.0588786 0)
(0.0467864 -0.0696386 0)
(0.0425361 -0.081015 0)
(0.0378079 -0.0930197 0)
(0.0326257 -0.105655 0)
(0.0271093 -0.119025 0)
(0.0211709 -0.133994 0)
(0.0144009 -0.153822 0)
(0.0060221 -0.185819 0)
(0.00160686 -0.235497 0)
(-0.00940715 -0.296972 0)
(0.00144404 -0.335598 0)
(0.00722487 0.028995 0)
(0.0228922 0.0970459 0)
(0.0345745 0.131295 0)
(0.0442102 0.149404 0)
(0.0522731 0.157921 0)
(0.0589773 0.159937 0)
(0.0644845 0.157029 0)
(0.0688251 0.149494 0)
(0.0719324 0.138869 0)
(0.0740975 0.126634 0)
(0.0756194 0.113834 0)
(0.076706 0.101126 0)
(0.0774975 0.0888912 0)
(0.0780861 0.077317 0)
(0.0785241 0.0664628 0)
(0.0788323 0.0563063 0)
(0.0790081 0.046777 0)
(0.0790327 0.0377793 0)
(0.078878 0.0292074 0)
(0.0785115 0.0209539 0)
(0.0778978 0.0129182 0)
(0.0770049 0.00499169 0)
(0.0758019 -0.00292079 0)
(0.0742524 -0.010903 0)
(0.0723284 -0.0190539 0)
(0.07 -0.0274654 0)
(0.0672306 -0.0362211 0)
(0.0639834 -0.0454022 0)
(0.0602161 -0.0550794 0)
(0.0558873 -0.0653155 0)
(0.0509645 -0.0761563 0)
(0.0454558 -0.0876465 0)
(0.0393753 -0.0998156 0)
(0.0328893 -0.112756 0)
(0.0259145 -0.127164 0)
(0.0180936 -0.146216 0)
(0.00852126 -0.177831 0)
(0.00393759 -0.228803 0)
(-0.00972208 -0.294267 0)
(0.00271162 -0.341074 0)
(0.00362747 0.0153338 0)
(0.0214498 0.0819547 0)
(0.0350206 0.119318 0)
(0.0461454 0.139952 0)
(0.0554008 0.15013 0)
(0.0631444 0.153292 0)
(0.0697401 0.15152 0)
(0.0752293 0.1453 0)
(0.0794817 0.135822 0)
(0.0826685 0.124442 0)
(0.0850541 0.112244 0)
(0.0868589 0.0999558 0)
(0.0882377 0.0880153 0)
(0.0892966 0.0766569 0)
(0.0901032 0.0659767 0)
(0.0906934 0.0559804 0)
(0.0910782 0.0466177 0)
(0.09125 0.0378071 0)
(0.0911905 0.0294507 0)
(0.0908705 0.021446 0)
(0.0902621 0.0136934 0)
(0.089328 0.00608167 0)
(0.0880382 -0.00147914 0)
(0.0863524 -0.00907422 0)
(0.0842353 -0.0168046 0)
(0.0816499 -0.0247576 0)
(0.0785501 -0.033013 0)
(0.0748882 -0.0416494 0)
(0.0706115 -0.0507357 0)
(0.0656699 -0.0603434 0)
(0.0600211 -0.0705365 0)