/*--------------------------------*- C++ -*----------------------------------*\
  =========                 |
  \\      /  F ield         | OpenFOAM: The Open Source CFD Toolbox
   \\    /   O peration     | Website:  https://openfoam.org
    \\  /    A nd           | Version:  13
     \\/     M anipulation  |
\*---------------------------------------------------------------------------*/
FoamFile
{
    format      ascii;
    class       volScalarField;
    location    "8";
    object      epsilon;
}
// * * * * * * * * * * * * * * * * * * * * * * * * * * * * * * * * * * * * * //

dimensions      [0 2 -3 0 0 0 0];

internalField   nonuniform List<scalar> 
1600
(
2.79029e-05
9.53974e-05
0.000186023
0.000185444
0.000169548
0.000173633
0.000224782
0.000383935
0.000579034
0.000846983
0.00129978
0.00160714
0.00175207
0.00193626
0.00223334
0.00262012
0.00297729
0.00339056
0.00378717
0.00424384
0.00470976
0.00524471
0.00582306
0.00649889
0.00728603
0.00798205
0.00869574
0.00930124
0.00982755
0.0101115
0.0102242
0.0100174
0.00920401
0.00782143
0.00588505
0.00348735
0.00169566
0.000712187
0.000227294
4.725e-05
0.000134991
0.000170353
0.000209846
0.000200561
0.000193682
0.000231737
0.00040754
0.000879666
0.00157969
0.00261904
0.00456693
0.00546388
0.00552553
0.00514201
0.00480887
0.00465616
0.00452765
0.00448614
0.00447884
0.00457429
0.00470789
0.00491615
0.00514119
0.0054275
0.00577404
0.00619894
0.0066746
0.00722371
0.00777011
0.00823607
0.008452
0.00849123
0.00793132
0.00687362
0.0051164
0.00296366
0.00124733
0.000545642
0.000197717
8.10207e-05
0.000408482
0.000434572
0.000441474
0.000419106
0.000472347
0.000786008
0.00171671
0.00352969
0.00567589
0.00655642
0.00639001
0.00544441
0.00498159
0.00436692
0.00397764
0.00366902
0.00343292
0.00327564
0.00318217
0.00314157
0.00312994
0.0031646
0.00326839
0.0034126
0.00359941
0.00382657
0.00410055
0.00442933
0.00481678
0.00528464
0.00582233
0.00632851
0.00656423
0.00651919
0.00567843
0.00384524
0.00123363
0.000341611
0.000124598
6.64184e-05
0.000940338
0.000849603
0.000841473
0.000898571
0.00131063
0.00255239
0.00482991
0.00644969
0.00682969
0.00620007
0.00531931
0.00414977
0.00348652
0.00298156
0.0027288
0.00248991
0.0023707
0.00229313
0.00226104
0.00225335
0.00228102
0.00233692
0.00241468
0.00251541
0.00263841
0.00278817
0.00296912
0.00318736
0.00344849
0.00375945
0.00412396
0.00455715
0.00513049
0.00572151
0.00595671
0.00549801
0.00279911
0.000479482
0.000100494
4.57504e-05
0.00177741
0.00144669
0.00152968
0.00192064
0.00305703
0.00506436
0.00637351
0.00663096
0.00607202
0.00458335
0.00344018
0.00283242
0.00242019
0.00215772
0.00200844
0.00191193
0.00187159
0.00185835
0.00186439
0.00189914
0.00194195
0.00199845
0.00206438
0.00214506
0.00224184
0.00236109
0.00250872
0.00269144
0.00291209
0.00317347
0.00347698
0.00382238
0.00422728
0.00476164
0.00555854
0.00592526
0.00529608
0.0015045
0.00018868
5.27226e-05
0.00297354
0.00229269
0.00258256
0.00337836
0.00488945
0.00603596
0.00630917
0.00584846
0.00417354
0.00300313
0.002422
0.00206198
0.00183561
0.00171686
0.00165917
0.00163597
0.0016317
0.00164713
0.00167297
0.00170734
0.0017472
0.00179639
0.00185596
0.00193019
0.00202215
0.00213734
0.00228057
0.00245717
0.00267165
0.00292649
0.00322115
0.00355879
0.00392019
0.00432342
0.00483571
0.00553065
0.00582271
0.00404637
0.000575947
9.86899e-05
0.00448508
0.00337708
0.00383861
0.00476654
0.00569202
0.00596779
0.00563655
0.0040703
0.00277448
0.0021608
0.00183788
0.00163299
0.00153189
0.00148415
0.00146417
0.00145778
0.0014572
0.00146577
0.00147616
0.00149251
0.00151525
0.00154969
0.00159811
0.00166565
0.00175663
0.00187713
0.0020329
0.00223003
0.00247306
0.00276299
0.00309422
0.00345329
0.00383297
0.00422435
0.0046175
0.00510761
0.00547998
0.00537336
0.00147133
0.000223383
0.00609987
0.00456109
0.00498805
0.00553598
0.0057389
0.00548739
0.00418377
0.00272715
0.0020269
0.0016889
0.00150173
0.00139748
0.00134744
0.00132044
0.00130073
0.00128322
0.00126612
0.00125127
0.00124079
0.00123673
0.00123845
0.00125779
0.00129297
0.00134994
0.00143342
0.00154984
0.00170705
0.00191415
0.00218051
0.00251267
0.00290874
0.00335072
0.00380161
0.00422869
0.0046014
0.00499755
0.00539106
0.00552947
0.00323635
0.000560169
0.00748558
0.00564192
0.00582003
0.00587994
0.00548644
0.00444886
0.00289487
0.00201049
0.00160683
0.00140974
0.00129868
0.00123892
0.00120216
0.00116829
0.00113292
0.00109548
0.00105795
0.00102354
0.00099505
0.000978412
0.000972045
0.000975452
0.00100196
0.00104727
0.00111911
0.0012227
0.00136726
0.00156434
0.00182866
0.00217608
0.00261814
0.00315024
0.0037346
0.00429172
0.00477144
0.00505665
0.00540692
0.00559343
0.00492884
0.00152068
0.00850066
0.00643587
0.00631634
0.0058192
0.00487087
0.0033443
0.00214231
0.00160253
0.00135323
0.00123004
0.00115603
0.00110833
0.00106367
0.00101427
0.000961612
0.000908026
0.000857318
0.000812833
0.000777113
0.000754093
0.000743766
0.000741783
0.000759681
0.0007958
0.000854586
0.000941718
0.00106577
0.00123918
0.00147937
0.00180925
0.00225467
0.00283487
0.00354027
0.00429968
0.00497218
0.00535601
0.00558028
0.00572142
0.00549941
0.00271419
0.00922825
0.00694938
0.00653072
0.00558094
0.00406014
0.00250462
0.00170686
0.00135188
0.00118539
0.00109966
0.00103814
0.000985954
0.000927801
0.000864642
0.000800354
0.000738695
0.000683421
0.000636921
0.00060066
0.00057656
0.000565203
0.000562083
0.000573768
0.000602562
0.000649733
0.000720967
0.000823705
0.000969748
0.00117675
0.00147048
0.00188575
0.00246203
0.00322532
0.00414512
0.00506977
0.00566099
0.00591633
0.00601664
0.00586568
0.00387009
0.0096215
0.00717427
0.00647048
0.005103
0.00329658
0.00200151
0.00143493
0.00118339
0.00106347
0.000993126
0.000931451
0.000869608
0.00080024
0.000728816
0.000659764
0.000596882
0.00054284
0.000498809
0.0004652
0.000442652
0.000431818
0.0004285
0.000436317
0.000459154
0.000496905
0.000554537
0.00063839
0.00075887
0.000932358
0.0011846
0.00155455
0.00209587
0.00286755
0.00389658
0.00509616
0.00598308
0.006297
0.00636605
0.00621574
0.00480281
0.00960879
0.00715538
0.00628885
0.00457466
0.00268241
0.00167908
0.00125182
0.00106054
0.000966752
0.000900071
0.000833466
0.000762841
0.000686898
0.000612568
0.00054388
0.000483829
0.000433798
0.000393962
0.00036399
0.000343754
0.000333901
0.000330709
0.000336074
0.000354239
0.000384693
0.000431489
0.000499954
0.000598877
0.000742545
0.000954535
0.00127338
0.00175893
0.00249257
0.0035537
0.00494699
0.00627903
0.00678827
0.00685363
0.00651797
0.00567648
0.00948814
0.0070436
0.00595199
0.00403968
0.00226542
0.00146023
0.00112006
0.000965756
0.000885753
0.000817502
0.00074552
0.000669108
0.00059081
0.000517322
0.000451867
0.000396363
0.000351144
0.000315709
0.000289293
0.000271343
0.000262507
0.000259546
0.000263329
0.000277916
0.000302833
0.000341308
0.000397835
0.000479764
0.000599266
0.000777117
0.00104932
0.00147695
0.00215485
0.00319956
0.00467178
0.00641763
0.00729928
0.00741548
0.00697019
0.00648423
0.00919908
0.00679679
0.00555734
0.00357488
0.00198151
0.00130411
0.00102032
0.000890509
0.000816423
0.000745223
0.00066918
0.000590006
0.000512254
0.000441669
0.000380586
0.000329935
0.000289329
0.000257861
0.000234548
0.000218608
0.000210681
0.000207966
0.000210715
0.000222563
0.000243249
0.000275353
0.000322692
0.000391421
0.000491749
0.000641383
0.000872274
0.00124276
0.00185488
0.00286259
0.0044167
0.00645113
0.00782705
0.00805189
0.00746728
0.00727358
0.00870165
0.0064966
0.00515658
0.00320165
0.00177961
0.00118933
0.000943183
0.000829446
0.000757298
0.000683501
0.000605088
0.000525429
0.00044984
0.000382968
0.000326361
0.000280182
0.000243595
0.000215473
0.000194733
0.000180503
0.000173321
0.00017083
0.000172901
0.000182638
0.000200049
0.000227247
0.000267542
0.000326208
0.000411915
0.000539699
0.00073721
0.00105733
0.00160021
0.00253786
0.00409422
0.00636535
0.00831805
0.0087684
0.00806303
0.00804023
0.00813177
0.00616796
0.00477558
0.00291206
0.00163356
0.00110343
0.000882842
0.000779539
0.000707674
0.000632248
0.000552951
0.000474231
0.000401486
0.000338383
0.000285839
0.000243486
0.000210228
0.000184824
0.000166159
0.00015335
0.000146738
0.000144429
0.000146053
0.000154151
0.000168983
0.000192333
0.000227121
0.000277974
0.000352391
0.000463242
0.00063428
0.00091247
0.00139297
0.00225746
0.00378455
0.00619051
0.00875497
0.00955164
0.00870037
0.00880197
0.00745342
0.00585707
0.00443757
0.0026942
0.00152865
0.00103977
0.000835894
0.000739071
0.000667032
0.000590958
0.000511873
0.000434869
0.00036507
0.000305381
0.000256272
0.000217039
0.000186439
0.000163186
0.000146157
0.000134475
0.000128271
0.000126087
0.000127412
0.000134243
0.000147035
0.000167342
0.000197784
0.000242525
0.000308228
0.000406137
0.000556711
0.000800849
0.00122544
0.00201198
0.00348181
0.00597351
0.00910335
0.0103769
0.0094632
0.00955787
0.0067902
0.00555468
0.00414543
0.00253594
0.00145677
0.000992594
0.000799632
0.000706583
0.000634525
0.000558765
0.000480713
0.000405714
0.000338627
0.000281843
0.000235517
0.000198735
0.000170187
0.000148578
0.000132799
0.000121978
0.000116025
0.00011389
0.000114992
0.000120848
0.000132036
0.000149937
0.000176922
0.000216815
0.000275673
0.000363611
0.00049857
0.000716215
0.00109461
0.00180912
0.00320926
0.00575027
0.00936293
0.0112322
0.0103001
0.0103084
0.00601356
0.00528517
0.00390803
0.00242636
0.00141058
0.000961857
0.00077284
0.000681355
0.000609597
0.000534782
0.000458198
0.000385377
0.000320753
0.000266309
0.000222068
0.000187067
0.000160003
0.000139594
0.000124728
0.000114537
0.000108704
0.000106541
0.000107544
0.000112688
0.000122565
0.000138474
0.000162728
0.000198776
0.000252207
0.00033241
0.000455479
0.000652698
0.000993111
0.0016414
0.0029631
0.00553819
0.00952141
0.0121188
0.0112523
0.0110582
0.00538194
0.00505736
0.00371782
0.00235626
0.00139285
0.000941031
0.000754137
0.000662153
0.000590864
0.000517799
0.000443414
0.000372568
0.000309727
0.000256993
0.000214336
0.000180738
0.000154886
0.000135374
0.000121115
0.000111296
0.000105441
0.000103148
0.000104245
0.000108926
0.000117973
0.000132536
0.00015455
0.000187208
0.000236101
0.00031027
0.00042435
0.00060636
0.000917132
0.00150816
0.00274683
0.00531049
0.00963199
0.0130156
0.0123158
0.0117983
0.00484295
0.00484686
0.00359846
0.00232139
0.00140001
0.000942411
0.000742804
0.000648997
0.000578404
0.000507273
0.000434639
0.000366232
0.0003059
0.000254993
0.00021356
0.000180703
0.000155091
0.000135693
0.000121475
0.000111626
0.000105601
0.000103046
0.000103879
0.000108017
0.000116529
0.000130363
0.00015102
0.000181608
0.000227221
0.000296148
0.000403017
0.000573927
0.000862108
0.00140504
0.00256337
0.00509133
0.00968336
0.0139259
0.0134993
0.012536
0.00436525
0.0046717
0.00352323
0.00232751
0.00142394
0.000952815
0.000743687
0.000640631
0.000569798
0.000501299
0.000432867
0.000366876
0.000307421
0.000257016
0.000215866
0.000183157
0.000157716
0.0001384
0.000124209
0.000114357
0.00010831
0.000105832
0.000106539
0.000110094
0.000117818
0.000130641
0.000150315
0.000179778
0.000223624
0.000289403
0.000391742
0.000554658
0.000825584
0.00132949
0.00241239
0.00488312
0.00970196
0.0148657
0.0147861
0.0132576
0.00392949
0.00453414
0.00351029
0.00235525
0.00147451
0.000977876
0.000750409
0.000641078
0.000567745
0.000501557
0.000434745
0.000370431
0.000312315
0.000262693
0.000221968
0.000189434
0.00016407
0.000144729
0.000130448
0.000120468
0.000114261
0.000111639
0.000112277
0.00011552
0.000122813
0.000135179
0.000153918
0.00018169
0.000223262
0.000287287
0.000387349
0.000545925
0.000807557
0.00127877
0.00229521
0.00469181
0.00970051
0.0158106
0.016188
0.0139686
0.00352162
0.00442926
0.00352719
0.00241845
0.00155241
0.00102682
0.000767431
0.000645575
0.000569483
0.000504017
0.000439829
0.000378354
0.000322319
0.000273692
0.000233196
0.000200517
0.000174816
0.000155086
0.000140416
0.00013007
0.000123518
0.000120647
0.000121243
0.000124317
0.000131363
0.000143545
0.000161964
0.000189162
0.00022953
0.00029084
0.00038723
0.000543686
0.000801155
0.00125354
0.00221003
0.00452595
0.00966905
0.0167506
0.0177112
0.0146546
0.00313368
0.00435362
0.00357405
0.00251727
0.00165694
0.00109908
0.00080206
0.000657673
0.000575054
0.000509915
0.000449029
0.000390392
0.000336283
0.000288667
0.000248457
0.000215602
0.00018948
0.000169249
0.000154085
0.000143297
0.000136356
0.00013322
0.000133804
0.000136818
0.000143785
0.000155997
0.000174399
0.000201432
0.000241382
0.000302103
0.000397768
0.000552215
0.000804429
0.00124473
0.00215677
0.00438934
0.00963749
0.0176735
0.0193591
0.0153186
0.00275566
0.00429348
0.00365799
0.00265064
0.00179501
0.00119983
0.000857769
0.000682778
0.00058709
0.00052008
0.00046112
0.000405327
0.000353478
0.000307211
0.000267543
0.000234666
0.0002082
0.000187488
0.000171826
0.000160601
0.000153284
0.000149914
0.000150522
0.000153576
0.000160634
0.000173078
0.00019175
0.00021904
0.000259173
0.000319976
0.000415811
0.000571684
0.000825993
0.00125251
0.00213311
0.00428069
0.00961908
0.0185972
0.0211085
0.0159467
0.00238382
0.00423829
0.00376921
0.00280047
0.00196074
0.0013332
0.000941423
0.000727113
0.000610431
0.000535928
0.000476543
0.000422871
0.000373369
0.000328826
0.000290115
0.000257572
0.000231032
0.000210032
0.000194009
0.000182463
0.000174865
0.00017138
0.000172064
0.000175265
0.000182589
0.000195456
0.000214659
0.000242603
0.000283532
0.000345413
0.000442799
0.000601407
0.00085994
0.00128455
0.00212847
0.00419292
0.00955846
0.019513
0.0229391
0.0165438
0.00200804
0.00414727
0.00385386
0.00299683
0.00215716
0.00150101
0.00105793
0.000796325
0.000649541
0.000560788
0.000497001
0.000443599
0.000395899
0.000353195
0.00031583
0.000284076
0.000257886
0.000236964
0.000220874
0.000209262
0.000201572
0.00019822
0.000199055
0.000202527
0.000210318
0.000223794
0.00024378
0.000272775
0.00031513
0.000379108
0.000479462
0.000642799
0.0009086
0.00133869
0.00215615
0.00414937
0.00949919
0.0203968
0.0247954
0.0170966
0.0016687
0.0040269
0.00389922
0.00321302
0.00238143
0.00170768
0.00121719
0.000901877
0.00071428
0.000601579
0.000526663
0.000469629
0.000421864
0.000380381
0.000344417
0.000313822
0.000288462
0.000268104
0.00025238
0.000241105
0.000233606
0.000230776
0.000231868
0.000235772
0.000244276
0.000258568
0.000279614
0.000310119
0.000354617
0.000421882
0.000526793
0.000696933
0.000972315
0.00141402
0.00221302
0.00413366
0.00943193
0.0211904
0.0265979
0.0176165
0.00138952
0.00377871
0.00393849
0.00342394
0.00261339
0.00194125
0.00141905
0.00105287
0.00081706
0.000669873
0.000574551
0.000507254
0.000455275
0.000412717
0.000377084
0.000347318
0.000322866
0.000303365
0.000288359
0.00027784
0.000270813
0.000268983
0.000270463
0.000275
0.000284524
0.000299918
0.0003224
0.000355052
0.000402617
0.000474673
0.000586015
0.000765598
0.00105314
0.00151374
0.00230363
0.00415621
0.00939788
0.0219051
0.0282632
0.0180974
0.00113463
0.00326114
0.0040045
0.0036317
0.00285975
0.00219973
0.00166504
0.00125959
0.000973892
0.000782408
0.000655088
0.000567614
0.00050416
0.000455697
0.000417415
0.000386793
0.000362391
0.000343432
0.000329074
0.000319493
0.000313048
0.000312608
0.000314603
0.000319997
0.000330914
0.000347861
0.000372389
0.000408211
0.000460175
0.000539146
0.000659325
0.000852089
0.00115515
0.00164366
0.00243875
0.00425297
0.0093918
0.0225164
0.0297122
0.0185645
0.000895725
0.00245896
0.00393684
0.00371838
0.00309673
0.0024652
0.00194448
0.00152468
0.00120178
0.00096466
0.000795567
0.000675625
0.000589349
0.000525855
0.000478137
0.000441825
0.00041413
0.000393478
0.000378318
0.000368681
0.00036252
0.000362787
0.000365467
0.000372032
0.000384573
0.000403838
0.000431456
0.000472214
0.000530695
0.000619981
0.000752641
0.000964902
0.0012896
0.00182065
0.00264291
0.00445868
0.00952629
0.023128
0.0308425
0.0190381
0.000770879
0.00172421
0.00365688
0.00365501
0.00333224
0.00274635
0.00225874
0.00184838
0.0015088
0.00123653
0.00102476
0.000863666
0.000742606
0.000652004
0.000584172
0.00053361
0.000495912
0.000468529
0.000448718
0.000436405
0.000428169
0.000428246
0.000431107
0.000438481
0.000453036
0.000475959
0.000508554
0.000557538
0.000626408
0.000732447
0.000884617
0.00112915
0.00148917
0.00209135
0.0029837
0.00487828
0.00992787
0.02386
0.031529
0.0193487
0.000793856
0.00133657
0.00300354
0.00345706
0.0033445
0.003022
0.00261592
0.00225271
0.00192627
0.0016388
0.00139382
0.00119113
0.00102731
0.000897539
0.000796003
0.000717403
0.000657096
0.000612187
0.000579384
0.000557586
0.000542903
0.000538062
0.000540427
0.000548219
0.00056471
0.000594074
0.000636016
0.000700756
0.000789298
0.000927191
0.00111624
0.00142321
0.00185305
0.00259075
0.00364465
0.0057835
0.0109614
0.0249872
0.0318055
0.0194597
0.00112131
0.0011818
0.00226135
0.00299747
0.00329819
0.00322724
0.003023
0.00274211
0.00246169
0.00218938
0.00193228
0.00169904
0.00149491
0.0013201
0.00117643
0.00106219
0.000972192
0.000902277
0.000849157
0.00081158
0.000786627
0.000775513
0.000778476
0.000790037
0.00081513
0.000861317
0.000927975
0.00103118
0.00116854
0.00138081
0.00165806
0.00210758
0.00270131
0.00373189
0.00514589
0.0078262
0.0132859
0.0268497
0.031791
0.0193627
0.00180611
0.00137248
0.00209775
0.0029424
0.00346112
0.00369617
0.00369769
0.00358969
0.00336924
0.00311413
0.00285123
0.00259366
0.00235475
0.00214105
0.00195542
0.00179816
0.0016717
0.0015718
0.00150002
0.00145213
0.00142784
0.00143239
0.00145344
0.00150097
0.00158086
0.00169913
0.0018525
0.0020747
0.00236696
0.00278622
0.00332241
0.00414263
0.00517318
0.0068867
0.00901906
0.0129976
0.0185089
0.0301227
0.0316503
0.018764
0.00299762
0.00209327
0.0029328
0.00396893
0.00476604
0.00533909
0.00559537
0.00562735
0.0055158
0.00527874
0.00500122
0.00471226
0.00443852
0.00419303
0.00398784
0.00382351
0.00371029
0.00363335
0.00362969
0.00365524
0.00372517
0.00386331
0.00406237
0.00431676
0.004662
0.00507675
0.00562678
0.00627556
0.00708982
0.00811989
0.00950529
0.0113006
0.0135597
0.0166753
0.0203271
0.0260191
0.0310023
0.0360942
0.0326398
0.0176602
0.00498939
0.00487337
0.0082386
0.0110159
0.012588
0.0134318
0.013723
0.0136715
0.0134777
0.0131211
0.01274
0.0123784
0.0120876
0.011876
0.0117787
0.0118031
0.0119067
0.0121283
0.0124959
0.0129788
0.0136014
0.0143292
0.0152454
0.01627
0.0175632
0.018948
0.0207481
0.02257
0.0250771
0.0274227
0.0307073
0.0335937
0.0378646
0.0412127
0.0462465
0.0488632
0.0476577
0.042168
0.0330795
0.0153625
0.003382
0.00520056
0.00678722
0.00837479
0.00983724
0.0111512
0.0122704
0.0131772
0.013817
0.0142177
0.0144673
0.0145431
0.014514
0.0144316
0.0142739
0.0140795
0.0138653
0.01366
0.0134426
0.0132558
0.013067
0.0129244
0.0127857
0.0127023
0.0126274
0.0126168
0.0126355
0.0126759
0.012802
0.0129095
0.0131608
0.0133509
0.0138104
0.0141548
0.0149484
0.0154464
0.0162917
0.0163578
0.0158036
0.0131962
)
;

boundaryField
{
    movingWall
    {
        type            epsilonWallFunction;
        value           nonuniform List<scalar> 
40
(
0.003382
0.00520056
0.00678722
0.00837479
0.00983724
0.0111512
0.0122704
0.0131772
0.013817
0.0142177
0.0144673
0.0145431
0.014514
0.0144316
0.0142739
0.0140795
0.0138653
0.01366
0.0134426
0.0132558
0.013067
0.0129244
0.0127857
0.0127023
0.0126274
0.0126168
0.0126355
0.0126759
0.012802
0.0129095
0.0131608
0.0133509
0.0138104
0.0141548
0.0149484
0.0154464
0.0162917
0.0163578
0.0158036
0.0131962
)
;
    }
    fixedWalls
    {
        type            epsilonWallFunction;
        value           nonuniform List<scalar> 
120
(
2.79029e-05
0.000134991
0.000408482
0.000940338
0.00177741
0.00297354
0.00448508
0.00609987
0.00748558
0.00850066
0.00922825
0.0096215
0.00960879
0.00948814
0.00919908
0.00870165
0.00813177
0.00745342
0.0067902
0.00601356
0.00538194
0.00484295
0.00436525
0.00392949
0.00352162
0.00313368
0.00275566
0.00238382
0.00200804
0.0016687
0.00138952
0.00113463
0.000895725
0.000770879
0.000793856
0.00112131
0.00180611
0.00299762
0.00498939
0.003382
4.725e-05
8.10207e-05
6.64184e-05
4.57504e-05
5.27226e-05
9.86899e-05
0.000223383
0.000560169
0.00152068
0.00271419
0.00387009
0.00480281
0.00567648
0.00648423
0.00727358
0.00804023
0.00880197
0.00955787
0.0103084
0.0110582
0.0117983
0.012536
0.0132576
0.0139686
0.0146546
0.0153186
0.0159467
0.0165438
0.0170966
0.0176165
0.0180974
0.0185645
0.0190381
0.0193487
0.0194597
0.0193627
0.018764
0.0176602
0.0153625
0.0131962
2.79029e-05
9.53974e-05
0.000186023
0.000185444
0.000169548
0.000173633
0.000224782
0.000383935
0.000579034
0.000846983
0.00129978
0.00160714
0.00175207
0.00193626
0.00223334
0.00262012
0.00297729
0.00339056
0.00378717
0.00424384
0.00470976
0.00524471
0.00582306
0.00649889
0.00728603
0.00798205
0.00869574
0.00930124
0.00982755
0.0101115
0.0102242
0.0100174
0.00920401
0.00782143
0.00588505
0.00348735
0.00169566
0.000712187
0.000227294
4.725e-05
)
;
    }
    frontAndBack
    {
        type            empty;
    }
}


// ************************************************************************* //
