/*--------------------------------*- C++ -*----------------------------------*\
  =========                 |
  \\      /  F ield         | OpenFOAM: The Open Source CFD Toolbox
   \\    /   O peration     | Website:  https://openfoam.org
    \\  /    A nd           | Version:  13
     \\/     M anipulation  |
\*---------------------------------------------------------------------------*/
FoamFile
{
    format      ascii;
    class       volScalarField;
    location    "8";
    object      nut;
}
// * * * * * * * * * * * * * * * * * * * * * * * * * * * * * * * * * * * * * //

dimensions      [0 2 -1 0 0 0 0];

internalField   nonuniform List<scalar> 
1600
(
1.53412e-08
5.24399e-08
1.02245e-07
1.0192e-07
9.31786e-08
9.54236e-08
1.23534e-07
2.10998e-07
3.18213e-07
4.65571e-07
7.14346e-07
8.83169e-07
9.62781e-07
1.06403e-06
1.22732e-06
1.43988e-06
1.63613e-06
1.86324e-06
2.08116e-06
2.33212e-06
2.58813e-06
2.88209e-06
3.19986e-06
3.57123e-06
4.00374e-06
4.38613e-06
4.77825e-06
5.11091e-06
5.40006e-06
5.55603e-06
5.61795e-06
5.5043e-06
5.05749e-06
4.29796e-06
3.23404e-06
1.91664e-06
9.32037e-07
3.915e-07
1.24958e-07
2.59777e-08
7.42191e-08
1.22209e-06
3.64763e-06
4.3505e-06
4.25717e-06
4.07698e-06
4.64808e-06
6.3328e-06
6.93192e-06
7.98504e-06
9.39037e-06
1.02478e-05
1.06319e-05
1.14397e-05
1.22128e-05
1.37879e-05
1.48069e-05
1.64941e-05
1.77241e-05
1.92351e-05
2.04884e-05
2.18349e-05
2.30611e-05
2.40825e-05
2.46703e-05
2.54841e-05
2.60253e-05
2.6511e-05
2.66568e-05
2.62991e-05
2.60299e-05
2.4742e-05
2.2883e-05
1.96598e-05
1.6376e-05
1.06886e-05
5.21088e-06
2.08226e-06
7.16031e-07
4.45407e-08
2.24584e-07
3.30197e-06
8.01128e-06
9.60707e-06
1.01357e-05
1.05786e-05
1.32911e-05
1.70102e-05
1.79557e-05
1.81527e-05
1.66291e-05
1.57255e-05
1.5354e-05
1.67973e-05
1.82388e-05
2.00071e-05
2.18948e-05
2.38874e-05
2.56601e-05
2.75208e-05
2.90675e-05
3.03633e-05
3.10685e-05
3.16235e-05
3.19471e-05
3.2135e-05
3.20582e-05
3.17465e-05
3.10997e-05
3.0036e-05
2.81333e-05
2.61931e-05
2.46261e-05
2.08711e-05
1.72821e-05
1.04898e-05
4.5281e-06
2.23511e-06
9.14408e-07
3.65125e-08
5.16958e-07
7.17597e-06
1.38215e-05
1.60652e-05
1.71833e-05
1.91057e-05
2.16394e-05
2.19641e-05
2.15243e-05
1.86314e-05
1.77114e-05
1.90929e-05
2.09988e-05
2.37671e-05
2.56828e-05
2.81557e-05
3.00236e-05
3.17438e-05
3.30356e-05
3.42153e-05
3.50016e-05
3.56719e-05
3.6015e-05
3.62322e-05
3.6209e-05
3.59981e-05
3.55379e-05
3.48176e-05
3.37608e-05
3.23106e-05
3.03357e-05
2.7828e-05
2.47878e-05
2.13718e-05
1.84379e-05
1.4087e-05
5.18623e-06
1.75791e-06
6.29295e-07
2.51471e-08
9.7705e-07
1.29117e-05
2.05197e-05
2.19674e-05
2.29424e-05
2.48009e-05
2.4889e-05
2.42028e-05
2.13861e-05
2.01665e-05
2.21559e-05
2.43578e-05
2.71887e-05
2.98586e-05
3.18606e-05
3.3739e-05
3.54877e-05
3.68549e-05
3.81721e-05
3.89368e-05
3.96131e-05
4.00009e-05
4.02254e-05
4.02618e-05
4.01491e-05
3.9868e-05
3.9381e-05
3.86166e-05
3.74762e-05
3.57581e-05
3.35072e-05
3.08576e-05
2.80029e-05
2.44374e-05
1.98794e-05
1.63009e-05
1.03096e-05
2.75764e-06
6.37069e-07
2.89726e-08
1.63444e-06
1.91112e-05
2.63233e-05
2.68165e-05
2.736e-05
2.69369e-05
2.61713e-05
2.37354e-05
2.20324e-05
2.41629e-05
2.65958e-05
2.95245e-05
3.24304e-05
3.45022e-05
3.63608e-05
3.81188e-05
3.97365e-05
4.08705e-05
4.18302e-05
4.25015e-05
4.30431e-05
4.33359e-05
4.34742e-05
4.3416e-05
4.32511e-05
4.29467e-05
4.25169e-05
4.19262e-05
4.11188e-05
4.00524e-05
3.764e-05
3.43724e-05
3.1073e-05
2.74308e-05
2.31244e-05
1.82772e-05
1.31718e-05
4.40887e-06
9.81556e-07
5.42202e-08
2.46505e-06
2.39093e-05
3.08883e-05
3.01767e-05
2.88774e-05
2.80523e-05
2.57793e-05
2.34532e-05
2.54141e-05
2.81946e-05
3.10405e-05
3.41009e-05
3.61953e-05
3.81938e-05
4.00435e-05
4.16267e-05
4.30179e-05
4.40377e-05
4.48981e-05
4.54056e-05
4.57185e-05
4.58534e-05
4.59111e-05
4.58707e-05
4.57234e-05
4.54829e-05
4.51472e-05
4.46962e-05
4.40785e-05
4.31939e-05
4.21801e-05
4.02024e-05
3.67302e-05
3.28676e-05
2.7949e-05
2.16404e-05
1.56246e-05
8.21186e-06
1.59063e-06
1.22719e-07
3.35238e-06
2.81066e-05
3.37628e-05
3.20621e-05
3.06739e-05
2.77891e-05
2.51706e-05
2.61499e-05
2.90306e-05
3.20604e-05
3.49911e-05
3.73851e-05
3.94457e-05
4.14794e-05
4.31461e-05
4.45729e-05
4.5656e-05
4.64261e-05
4.69206e-05
4.72532e-05
4.76882e-05
4.7837e-05
4.79431e-05
4.79146e-05
4.77875e-05
4.75693e-05
4.72738e-05
4.69104e-05
4.64638e-05
4.58662e-05
4.49555e-05
4.35739e-05
4.10955e-05
3.73909e-05
3.37278e-05
2.76089e-05
1.91688e-05
1.04348e-05
2.12642e-06
3.07728e-07
4.11371e-06
3.08916e-05
3.60116e-05
3.41635e-05
3.05181e-05
2.72893e-05
2.64433e-05
2.92369e-05
3.2501e-05
3.5446e-05
3.80561e-05
4.01123e-05
4.21746e-05
4.38114e-05
4.52889e-05
4.64635e-05
4.73275e-05
4.80418e-05
4.86745e-05
4.91561e-05
4.94121e-05
4.98944e-05
4.99685e-05
5.00016e-05
4.98548e-05
4.95872e-05
4.92053e-05
4.87523e-05
4.82688e-05
4.77731e-05
4.72014e-05
4.63226e-05
4.43703e-05
4.08257e-05
3.68822e-05
3.28854e-05
2.49581e-05
1.46526e-05
4.62513e-06
8.35462e-07
4.67142e-06
3.25278e-05
3.77008e-05
3.44612e-05
3.01592e-05
2.71974e-05
2.9005e-05
3.22955e-05
3.55096e-05
3.81313e-05
4.03816e-05
4.22848e-05
4.41322e-05
4.5633e-05
4.69079e-05
4.79504e-05
4.88513e-05
4.96901e-05
5.04553e-05
5.11623e-05
5.157e-05
5.20779e-05
5.23662e-05
5.24183e-05
5.2291e-05
5.19541e-05
5.14353e-05
5.07709e-05
5.00353e-05
4.93201e-05
4.86967e-05
4.81286e-05
4.73401e-05
4.43229e-05
3.97535e-05
3.60742e-05
2.93394e-05
1.81299e-05
6.15384e-06
1.49126e-06
5.07118e-06
3.37275e-05
3.92454e-05
3.46048e-05
2.97135e-05
2.88838e-05
3.16321e-05
3.49913e-05
3.78833e-05
4.00832e-05
4.21484e-05
4.39853e-05
4.56608e-05
4.70281e-05
4.82501e-05
4.9358e-05
5.04268e-05
5.14653e-05
5.24363e-05
5.3406e-05
5.40052e-05
5.4474e-05
5.50393e-05
5.51155e-05
5.50398e-05
5.46788e-05
5.40668e-05
5.32125e-05
5.21814e-05
5.10874e-05
5.00784e-05
4.92584e-05
4.85425e-05
4.74581e-05
4.32167e-05
3.93071e-05
3.4187e-05
2.29208e-05
8.78368e-06
2.12639e-06
5.28715e-06
3.40267e-05
3.96908e-05
3.47645e-05
2.99025e-05
3.08705e-05
3.39783e-05
3.71241e-05
3.95718e-05
4.15611e-05
4.35698e-05
4.52984e-05
4.68625e-05
4.82153e-05
4.95237e-05
5.0811e-05
5.2105e-05
5.33694e-05
5.45504e-05
5.57372e-05
5.6495e-05
5.69286e-05
5.76885e-05
5.78042e-05
5.77849e-05
5.74593e-05
5.68444e-05
5.59154e-05
5.4696e-05
5.32809e-05
5.18597e-05
5.06756e-05
4.98789e-05
4.92828e-05
4.58563e-05
4.12442e-05
3.73369e-05
2.65434e-05
1.10726e-05
2.63888e-06
5.28013e-06
3.39644e-05
4.00364e-05
3.46585e-05
3.08756e-05
3.27029e-05
3.58639e-05
3.87084e-05
4.07877e-05
4.27537e-05
4.4682e-05
4.63346e-05
4.78791e-05
4.93206e-05
5.0801e-05
5.23126e-05
5.38372e-05
5.53096e-05
5.66627e-05
5.79605e-05
5.87839e-05
5.92436e-05
6.00401e-05
6.01792e-05
6.01912e-05
5.99306e-05
5.93934e-05
5.85219e-05
5.72732e-05
5.56648e-05
5.38405e-05
5.20941e-05
5.07609e-05
4.99185e-05
4.85137e-05
4.34633e-05
4.02515e-05
3.05245e-05
1.36538e-05
3.11889e-06
5.2138e-06
3.36801e-05
4.031e-05
3.46371e-05
3.21058e-05
3.42394e-05
3.7292e-05
3.98434e-05
4.17385e-05
4.36984e-05
4.55542e-05
4.71895e-05
4.87911e-05
5.03841e-05
5.20688e-05
5.38027e-05
5.55307e-05
5.71673e-05
5.86331e-05
5.99565e-05
6.07893e-05
6.12432e-05
6.19618e-05
6.20703e-05
6.20641e-05
6.18573e-05
6.14402e-05
6.07376e-05
5.96448e-05
5.80801e-05
5.60839e-05
5.39239e-05
5.20945e-05
5.10666e-05
5.07787e-05
4.60287e-05
4.19842e-05
3.35798e-05
1.60192e-05
3.56267e-06
5.05491e-06
3.3064e-05
4.00852e-05
3.48346e-05
3.31443e-05
3.54354e-05
3.83377e-05
4.06397e-05
4.24915e-05
4.44375e-05
4.62504e-05
4.79193e-05
4.96234e-05
5.13906e-05
5.32752e-05
5.5206e-05
5.7101e-05
5.88599e-05
6.03935e-05
6.16823e-05
6.24763e-05
6.28903e-05
6.34473e-05
6.34597e-05
6.33717e-05
6.31707e-05
6.28629e-05
6.23765e-05
6.15652e-05
6.02455e-05
5.82992e-05
5.58362e-05
5.33175e-05
5.14187e-05
5.05495e-05
4.80178e-05
4.36445e-05
3.6528e-05
1.83532e-05
3.99632e-06
4.78156e-06
3.22133e-05
3.96306e-05
3.51132e-05
3.39544e-05
3.6306e-05
3.90785e-05
4.12378e-05
4.30811e-05
4.50113e-05
4.68119e-05
4.85436e-05
5.03655e-05
5.22999e-05
5.436e-05
5.64557e-05
5.84855e-05
6.0338e-05
6.19144e-05
6.31414e-05
6.38631e-05
6.42115e-05
6.45582e-05
6.44191e-05
6.4187e-05
6.39243e-05
6.3671e-05
6.33801e-05
6.28965e-05
6.19697e-05
6.03421e-05
5.79429e-05
5.51319e-05
5.26929e-05
5.12109e-05
4.95864e-05
4.47807e-05
3.88003e-05
2.05687e-05
4.4175e-06
4.46842e-06
3.11816e-05
3.90033e-05
3.53735e-05
3.45443e-05
3.69066e-05
3.95957e-05
4.16854e-05
4.3535e-05
4.54494e-05
4.72578e-05
4.90595e-05
5.09904e-05
5.30656e-05
5.52676e-05
5.74949e-05
5.96325e-05
6.15582e-05
6.31604e-05
6.43522e-05
6.49726e-05
6.52371e-05
6.53584e-05
6.5038e-05
6.46214e-05
6.4239e-05
6.39755e-05
6.38253e-05
6.36517e-05
6.31659e-05
6.19809e-05
5.9793e-05
5.67464e-05
5.37157e-05
5.18593e-05
5.11059e-05
4.6005e-05
4.06908e-05
2.26948e-05
4.83597e-06
4.09569e-06
3.01364e-05
3.82524e-05
3.55603e-05
3.49514e-05
3.72872e-05
3.99395e-05
4.20062e-05
4.38663e-05
4.57673e-05
4.75908e-05
4.94495e-05
5.14634e-05
5.36428e-05
5.59487e-05
5.82737e-05
6.04936e-05
6.24768e-05
6.41001e-05
6.52665e-05
6.57915e-05
6.59634e-05
6.58732e-05
6.53702e-05
6.47577e-05
6.42203e-05
6.38899e-05
6.38119e-05
6.38951e-05
6.3856e-05
6.3236e-05
6.15233e-05
5.85461e-05
5.49931e-05
5.23659e-05
5.1532e-05
4.71958e-05
4.22203e-05
2.4747e-05
5.25122e-06
3.73127e-06
2.89474e-05
3.74133e-05
3.56639e-05
3.51911e-05
3.74927e-05
4.01285e-05
4.2216e-05
4.4092e-05
4.59744e-05
4.78039e-05
4.97011e-05
5.17668e-05
5.40049e-05
5.63671e-05
5.87476e-05
6.10175e-05
6.30364e-05
6.46697e-05
6.58117e-05
6.62683e-05
6.6348e-05
6.6088e-05
6.54268e-05
6.46363e-05
6.3942e-05
6.35144e-05
6.34506e-05
6.37219e-05
6.40732e-05
6.40227e-05
6.28934e-05
6.01964e-05
5.63246e-05
5.29446e-05
5.16758e-05
4.84737e-05
4.35201e-05
2.66377e-05
5.66352e-06
3.30455e-06
2.80015e-05
3.64884e-05
3.56444e-05
3.53326e-05
3.75277e-05
4.01967e-05
4.23123e-05
4.41974e-05
4.60644e-05
4.78967e-05
4.97899e-05
5.18467e-05
5.4089e-05
5.64661e-05
5.88676e-05
6.11543e-05
6.31749e-05
6.47919e-05
6.58991e-05
6.63256e-05
6.63122e-05
6.58749e-05
6.50786e-05
6.42007e-05
6.34411e-05
6.29169e-05
6.28313e-05
6.32364e-05
6.39159e-05
6.44189e-05
6.39574e-05
6.17486e-05
5.77661e-05
5.36192e-05
5.14994e-05
4.94735e-05
4.46548e-05
2.84903e-05
6.07537e-06
2.95749e-06
2.66441e-05
3.55902e-05
3.55573e-05
3.53322e-05
3.7468e-05
4.00875e-05
4.22992e-05
4.42151e-05
4.60512e-05
4.78368e-05
4.9723e-05
5.17924e-05
5.40244e-05
5.63565e-05
5.86868e-05
6.08691e-05
6.28042e-05
6.43656e-05
6.54384e-05
6.59079e-05
6.58458e-05
6.52635e-05
6.43775e-05
6.33648e-05
6.24523e-05
6.18971e-05
6.19475e-05
6.25261e-05
6.34628e-05
6.4463e-05
6.46673e-05
6.30662e-05
5.9199e-05
5.44913e-05
5.16553e-05
5.01971e-05
4.57109e-05
3.01498e-05
6.48192e-06
2.66132e-06
2.51208e-05
3.41536e-05
3.55685e-05
3.52989e-05
3.71577e-05
3.99354e-05
4.2145e-05
4.40692e-05
4.58931e-05
4.77037e-05
4.94843e-05
5.13188e-05
5.33194e-05
5.54873e-05
5.76971e-05
5.98687e-05
6.18143e-05
6.33902e-05
6.44798e-05
6.50059e-05
6.50023e-05
6.45745e-05
6.37877e-05
6.27057e-05
6.16616e-05
6.10013e-05
6.08668e-05
6.13998e-05
6.2712e-05
6.4246e-05
6.50865e-05
6.41543e-05
6.05444e-05
5.53605e-05
5.18825e-05
5.06158e-05
4.66731e-05
3.17713e-05
6.88715e-06
2.39883e-06
2.34682e-05
3.25895e-05
3.55202e-05
3.52382e-05
3.69414e-05
3.93827e-05
4.19089e-05
4.38874e-05
4.56714e-05
4.72634e-05
4.89542e-05
5.08641e-05
5.29031e-05
5.49842e-05
5.70894e-05
5.91161e-05
6.09298e-05
6.23982e-05
6.34096e-05
6.38845e-05
6.37777e-05
6.33788e-05
6.2673e-05
6.17667e-05
6.09979e-05
6.04333e-05
6.01516e-05
6.05534e-05
6.18757e-05
6.36527e-05
6.51602e-05
6.50592e-05
6.1759e-05
5.62312e-05
5.2171e-05
5.08546e-05
4.75122e-05
3.32939e-05
7.28354e-06
2.15938e-06
2.17243e-05
3.0709e-05
3.53255e-05
3.51895e-05
3.66038e-05
3.90773e-05
4.13072e-05
4.34205e-05
4.51846e-05
4.6866e-05
4.85764e-05
5.03255e-05
5.21669e-05
5.40618e-05
5.5963e-05
5.77704e-05
5.939e-05
6.0721e-05
6.16656e-05
6.21551e-05
6.21313e-05
6.18222e-05
6.12267e-05
6.03924e-05
5.96362e-05
5.91327e-05
5.92141e-05
6.00087e-05
6.1347e-05
6.3215e-05
6.51493e-05
6.55992e-05
6.29766e-05
5.69711e-05
5.23775e-05
5.09777e-05
4.82568e-05
3.47762e-05
7.67405e-06
1.93526e-06
1.993e-05
2.88972e-05
3.49311e-05
3.49361e-05
3.60974e-05
3.85613e-05
4.08741e-05
4.28324e-05
4.46573e-05
4.63902e-05
4.79052e-05
4.94366e-05
5.10487e-05
5.27465e-05
5.44572e-05
5.60964e-05
5.75767e-05
5.88002e-05
5.9689e-05
6.0196e-05
6.02499e-05
6.00339e-05
5.95868e-05
5.89295e-05
5.83258e-05
5.79384e-05
5.79888e-05
5.87312e-05
6.044e-05
6.28997e-05
6.50947e-05
6.58579e-05
6.37621e-05
5.75792e-05
5.249e-05
5.11009e-05
4.89637e-05
3.616e-05
8.05089e-06
1.72209e-06
1.81167e-05
2.71169e-05
3.39583e-05
3.50714e-05
3.56982e-05
3.77673e-05
4.03041e-05
4.23584e-05
4.41506e-05
4.5663e-05
4.71164e-05
4.85228e-05
4.9948e-05
5.14197e-05
5.29016e-05
5.43296e-05
5.56304e-05
5.67269e-05
5.75539e-05
5.80777e-05
5.82389e-05
5.81209e-05
5.78417e-05
5.74116e-05
5.70105e-05
5.68068e-05
5.70102e-05
5.78662e-05
5.95675e-05
6.20728e-05
6.47554e-05
6.62067e-05
6.42115e-05
5.80968e-05
5.24161e-05
5.08961e-05
4.95695e-05
3.74888e-05
8.41557e-06
1.51436e-06
1.62891e-05
2.53388e-05
3.23391e-05
3.50806e-05
3.54484e-05
3.70283e-05
3.94435e-05
4.1671e-05
4.34271e-05
4.49055e-05
4.62579e-05
4.7532e-05
4.87826e-05
5.00433e-05
5.13037e-05
5.25236e-05
5.36483e-05
5.46196e-05
5.53849e-05
5.59194e-05
5.62099e-05
5.61886e-05
5.60812e-05
5.59014e-05
5.57261e-05
5.57323e-05
5.61064e-05
5.70869e-05
5.88977e-05
6.15617e-05
6.44192e-05
6.61532e-05
6.49469e-05
5.83751e-05
5.22245e-05
5.06364e-05
5.00633e-05
3.86832e-05
8.76055e-06
1.31004e-06
1.44797e-05
2.346e-05
3.04876e-05
3.49131e-05
3.51864e-05
3.6358e-05
3.83741e-05
4.0667e-05
4.25302e-05
4.40372e-05
4.53289e-05
4.64942e-05
4.7595e-05
4.86719e-05
4.97342e-05
5.07642e-05
5.17274e-05
5.25838e-05
5.32941e-05
5.38315e-05
5.42631e-05
5.43329e-05
5.43904e-05
5.44643e-05
5.45211e-05
5.47486e-05
5.53079e-05
5.64234e-05
5.83016e-05
6.10165e-05
6.39654e-05
6.58541e-05
6.49141e-05
5.84451e-05
5.18555e-05
5.00965e-05
5.04808e-05
3.9817e-05
9.0885e-06
1.10354e-06
1.27053e-05
2.19785e-05
2.81614e-05
3.42323e-05
3.51634e-05
3.58676e-05
3.74851e-05
3.95314e-05
4.14799e-05
4.305e-05
4.43239e-05
4.54139e-05
4.6399e-05
4.73304e-05
4.82327e-05
4.91064e-05
4.99354e-05
5.06968e-05
5.13643e-05
5.19038e-05
5.24731e-05
5.26243e-05
5.28346e-05
5.31507e-05
5.34287e-05
5.38719e-05
5.46122e-05
5.58602e-05
5.77802e-05
6.04784e-05
6.33637e-05
6.52242e-05
6.43625e-05
5.81235e-05
5.11719e-05
4.92425e-05
5.07768e-05
4.07831e-05
9.39213e-06
9.1704e-07
1.12017e-05
2.06612e-05
2.58447e-05
3.22973e-05
3.51307e-05
3.56133e-05
3.67484e-05
3.84589e-05
4.03107e-05
4.19487e-05
4.32603e-05
4.43271e-05
4.52398e-05
4.60657e-05
4.68458e-05
4.75979e-05
4.83205e-05
4.90107e-05
4.96376e-05
5.02137e-05
5.08556e-05
5.10913e-05
5.14603e-05
5.19797e-05
5.24511e-05
5.30876e-05
5.39838e-05
5.53418e-05
5.72501e-05
5.98363e-05
6.24824e-05
6.41398e-05
6.31433e-05
5.72023e-05
5.01758e-05
4.80988e-05
5.09411e-05
4.16391e-05
9.67767e-06
7.63615e-07
9.9845e-06
1.98066e-05
2.38986e-05
2.99946e-05
3.45188e-05
3.54965e-05
3.63415e-05
3.76355e-05
3.92255e-05
4.07771e-05
4.20933e-05
4.31649e-05
4.40543e-05
4.48289e-05
4.55392e-05
4.62185e-05
4.68691e-05
4.75297e-05
4.80917e-05
4.88283e-05
4.93391e-05
4.97147e-05
5.02977e-05
5.09217e-05
5.15458e-05
5.23366e-05
5.33374e-05
5.47543e-05
5.65591e-05
5.89143e-05
6.1111e-05
6.23855e-05
6.10489e-05
5.55105e-05
4.88301e-05
4.66638e-05
5.08501e-05
4.22457e-05
9.94182e-06
6.23526e-07
8.90831e-06
1.92039e-05
2.25149e-05
2.78102e-05
3.29161e-05
3.5071e-05
3.61454e-05
3.72258e-05
3.85232e-05
3.98848e-05
4.11193e-05
4.21545e-05
4.30101e-05
4.37409e-05
4.43939e-05
4.50204e-05
4.56043e-05
4.62577e-05
4.67324e-05
4.76361e-05
4.79964e-05
4.84758e-05
4.92257e-05
4.9905e-05
5.06178e-05
5.14982e-05
5.25115e-05
5.38936e-05
5.54444e-05
5.74159e-05
5.89283e-05
5.96687e-05
5.78531e-05
5.28248e-05
4.69226e-05
4.53021e-05
5.05184e-05
4.24687e-05
1.01984e-05
4.92217e-07
8.13228e-06
1.87557e-05
2.20579e-05
2.61306e-05
3.11118e-05
3.43876e-05
3.5885e-05
3.70102e-05
3.81074e-05
3.92364e-05
4.03109e-05
4.12565e-05
4.2059e-05
4.27483e-05
4.33585e-05
4.39495e-05
4.44902e-05
4.51133e-05
4.55983e-05
4.64445e-05
4.68003e-05
4.73535e-05
4.81011e-05
4.87898e-05
4.94868e-05
5.03472e-05
5.12178e-05
5.24105e-05
5.34873e-05
5.48976e-05
5.55053e-05
5.56402e-05
5.3353e-05
4.91057e-05
4.44588e-05
4.40303e-05
4.98559e-05
4.19997e-05
1.04585e-05
4.2361e-07
7.96657e-06
1.81e-05
2.22289e-05
2.44842e-05
2.91987e-05
3.34665e-05
3.5866e-05
3.72745e-05
3.84049e-05
3.94085e-05
4.03174e-05
4.11155e-05
4.17925e-05
4.23772e-05
4.28686e-05
4.33563e-05
4.37705e-05
4.43152e-05
4.46321e-05
4.54417e-05
4.57046e-05
4.61174e-05
4.67467e-05
4.73117e-05
4.78126e-05
4.84682e-05
4.89608e-05
4.97456e-05
5.00925e-05
5.07929e-05
5.0402e-05
5.00347e-05
4.75508e-05
4.45322e-05
4.13175e-05
4.21843e-05
4.899e-05
4.14709e-05
1.06288e-05
4.36261e-07
8.79575e-06
1.7356e-05
2.23241e-05
2.46968e-05
2.78063e-05
3.17934e-05
3.53717e-05
3.75959e-05
3.8905e-05
3.98938e-05
4.06724e-05
4.13066e-05
4.18143e-05
4.22436e-05
4.26108e-05
4.29729e-05
4.32681e-05
4.35639e-05
4.37724e-05
4.4015e-05
4.43237e-05
4.44192e-05
4.45787e-05
4.48582e-05
4.49293e-05
4.51385e-05
4.50056e-05
4.51738e-05
4.46678e-05
4.46851e-05
4.35507e-05
4.30729e-05
4.10298e-05
3.9759e-05
3.8702e-05
4.12619e-05
4.79411e-05
4.07275e-05
1.06898e-05
6.16269e-07
1.11877e-05
1.79286e-05
2.281e-05
2.5615e-05
2.86018e-05
3.18527e-05
3.5111e-05
3.82477e-05
4.05731e-05
4.18467e-05
4.27126e-05
4.32853e-05
4.3687e-05
4.38787e-05
4.38137e-05
4.36062e-05
4.32801e-05
4.29539e-05
4.25077e-05
4.21831e-05
4.16074e-05
4.13001e-05
4.1004e-05
4.05788e-05
4.00407e-05
3.96502e-05
3.88987e-05
3.84949e-05
3.75126e-05
3.72663e-05
3.61955e-05
3.62678e-05
3.54876e-05
3.61846e-05
3.75839e-05
4.13048e-05
4.63007e-05
3.85125e-05
1.06363e-05
9.92705e-07
1.49249e-05
2.02823e-05
2.43763e-05
2.75195e-05
3.07172e-05
3.41353e-05
3.6758e-05
3.94512e-05
4.20158e-05
4.39643e-05
4.48578e-05
4.51491e-05
4.49514e-05
4.442e-05
4.36278e-05
4.26695e-05
4.15173e-05
4.04543e-05
3.93271e-05
3.84255e-05
3.71881e-05
3.65002e-05
3.56393e-05
3.46194e-05
3.37174e-05
3.31313e-05
3.24359e-05
3.21033e-05
3.16455e-05
3.18974e-05
3.18515e-05
3.30025e-05
3.37673e-05
3.62779e-05
3.86944e-05
4.34021e-05
4.41516e-05
3.66244e-05
1.03081e-05
1.64758e-06
1.92381e-05
2.26883e-05
2.69058e-05
3.05068e-05
3.37077e-05
3.67019e-05
3.89212e-05
3.99342e-05
4.12285e-05
4.21735e-05
4.2368e-05
4.21327e-05
4.15566e-05
4.07586e-05
3.97796e-05
3.8707e-05
3.77004e-05
3.64542e-05
3.52306e-05
3.44954e-05
3.35222e-05
3.25618e-05
3.19691e-05
3.1471e-05
3.12432e-05
3.11863e-05
3.13708e-05
3.19111e-05
3.25664e-05
3.36892e-05
3.47667e-05
3.68127e-05
3.84507e-05
4.16009e-05
4.37725e-05
4.61012e-05
4.24417e-05
3.3134e-05
9.70314e-06
2.74192e-06
2.26933e-05
2.55187e-05
3.00139e-05
3.32187e-05
3.55905e-05
3.73841e-05
3.85471e-05
3.8821e-05
3.91847e-05
3.93969e-05
3.94082e-05
3.92477e-05
3.89573e-05
3.86013e-05
3.80755e-05
3.78249e-05
3.7458e-05
3.70683e-05
3.6798e-05
3.66029e-05
3.66238e-05
3.66667e-05
3.69577e-05
3.72677e-05
3.78536e-05
3.84599e-05
3.93115e-05
4.02929e-05
4.13144e-05
4.27464e-05
4.38048e-05
4.57924e-05
4.63811e-05
4.89488e-05
4.77258e-05
4.60373e-05
4.01131e-05
2.50583e-05
8.44137e-06
1.85861e-06
2.85787e-06
3.72972e-06
4.60197e-06
5.40556e-06
6.12753e-06
6.74256e-06
7.24074e-06
7.59224e-06
7.8124e-06
7.94954e-06
7.99108e-06
7.97511e-06
7.92975e-06
7.84314e-06
7.73622e-06
7.61849e-06
7.50565e-06
7.38615e-06
7.28337e-06
7.17961e-06
7.10109e-06
7.02488e-06
6.97886e-06
6.93766e-06
6.93158e-06
6.93774e-06
6.97464e-06
7.02625e-06
7.098e-06
7.2242e-06
7.3388e-06
7.581e-06
7.78166e-06
8.20628e-06
8.48421e-06
8.94817e-06
8.98562e-06
8.68075e-06
7.24798e-06
)
;

boundaryField
{
    movingWall
    {
        type            nutkWallFunction;
        Cmu             0.09;
        kappa           0.41;
        E               9.8;
        value           uniform 0;
    }
    fixedWalls
    {
        type            nutkWallFunction;
        Cmu             0.09;
        kappa           0.41;
        E               9.8;
        value           uniform 0;
    }
    frontAndBack
    {
        type            empty;
    }
}


// ************************************************************************* //
