/*--------------------------------*- C++ -*----------------------------------*\
  =========                 |
  \\      /  F ield         | OpenFOAM: The Open Source CFD Toolbox
   \\    /   O peration     | Website:  https://openfoam.org
    \\  /    A nd           | Version:  13
     \\/     M anipulation  |
\*---------------------------------------------------------------------------*/
FoamFile
{
    format      ascii;
    class       volScalarField;
    location    "8";
    object      p;
}
// * * * * * * * * * * * * * * * * * * * * * * * * * * * * * * * * * * * * * //

dimensions      [0 2 -2 0 0 0 0];

internalField   nonuniform List<scalar> 
1600
(
8.18432e-09
-2.2759e-05
-0.00010741
-0.000228806
-0.000339494
-0.00042507
-0.000503035
-0.000608605
-0.000752646
-0.000934678
-0.00116309
-0.00149964
-0.00192854
-0.00212898
-0.00236072
-0.00293769
-0.003806
-0.00479921
-0.00575082
-0.0065246
-0.00702288
-0.0071778
-0.00693463
-0.00624754
-0.00514664
-0.00364957
-0.00176493
0.000443953
0.00285795
0.00525601
0.00735429
0.00883749
0.00948183
0.00925864
0.00825412
0.00721296
0.00656407
0.00645291
0.00655614
0.00660479
-1.78912e-05
-6.5929e-05
-0.000160673
-0.000277993
-0.000359894
-0.000402835
-0.000444647
-0.000529245
-0.000664093
-0.000818445
-0.000959914
-0.00118779
-0.00161763
-0.00216275
-0.00278701
-0.00357694
-0.00451577
-0.00550979
-0.006434
-0.00717648
-0.00765195
-0.00780274
-0.0075862
-0.00698185
-0.00597038
-0.00454376
-0.00273818
-0.00061042
0.00171597
0.00406424
0.00617895
0.00775568
0.00855027
0.00848345
0.00768112
0.0066674
0.00615898
0.00622908
0.00640714
0.00649266
-4.46109e-05
-0.000136366
-0.000261715
-0.000374109
-0.000418539
-0.000406824
-0.00039894
-0.00042583
-0.000511593
-0.000717934
-0.001077
-0.0015669
-0.00220746
-0.00299517
-0.00390999
-0.00490441
-0.00592333
-0.006899
-0.00775735
-0.0084304
-0.00885818
-0.0089866
-0.00878275
-0.00822839
-0.00729976
-0.00599274
-0.0043335
-0.00237207
-0.000196939
0.00205738
0.00417894
0.00591964
0.00703153
0.00736682
0.00701331
0.00636796
0.00603269
0.00609665
0.00626977
0.00632679
-5.00076e-05
-0.000185965
-0.000355107
-0.000454442
-0.000455639
-0.000409734
-0.000391821
-0.000450042
-0.000638944
-0.00104473
-0.00169967
-0.00254156
-0.0034933
-0.0045215
-0.00560331
-0.00668785
-0.00772263
-0.00866102
-0.00945925
-0.0100738
-0.0104551
-0.0105565
-0.010355
-0.00983848
-0.00899414
-0.00782242
-0.00634136
-0.00458623
-0.00261591
-0.000517964
0.00156211
0.00343975
0.00489965
0.0057847
0.00611816
0.00609679
0.00609628
0.00612987
0.00621021
0.00620989
8.32729e-05
-0.000117491
-0.000310287
-0.000407395
-0.0004201
-0.000412323
-0.000474652
-0.00069622
-0.0011534
-0.00188782
-0.00286665
-0.00399544
-0.00518426
-0.00638078
-0.00754962
-0.00866187
-0.00968986
-0.0106062
-0.011365
-0.0119223
-0.0122442
-0.0123165
-0.0121238
-0.0116519
-0.0108954
-0.00985797
-0.00854982
-0.00699218
-0.00522397
-0.00331041
-0.00134204
0.000566201
0.00228795
0.00371214
0.00478747
0.00553497
0.00601999
0.00624396
0.00620395
0.00613498
0.000427565
0.000147753
-6.86051e-05
-0.000206372
-0.00029995
-0.000434178
-0.000717851
-0.00124717
-0.00206623
-0.00314547
-0.00439959
-0.00573144
-0.00706912
-0.00836167
-0.00958156
-0.0107087
-0.0117136
-0.0125666
-0.0132409
-0.0137218
-0.0139926
-0.0140426
-0.0138627
-0.0134393
-0.0127722
-0.0118648
-0.0107244
-0.00936299
-0.00780164
-0.00607501
-0.00423412
-0.00234719
-0.000486557
0.00130588
0.00298494
0.00445239
0.00554062
0.00615178
0.00613561
0.00602071
0.000956293
0.000618728
0.000343881
0.000112558
-0.000147381
-0.000541515
-0.00117065
-0.0020901
-0.00327744
-0.00465263
-0.00611437
-0.00758361
-0.00900434
-0.0103365
-0.0115573
-0.0126471
-0.0135895
-0.0143691
-0.0149734
-0.0153948
-0.0156241
-0.0156552
-0.0154825
-0.0150997
-0.0145072
-0.0137083
-0.0127089
-0.0115174
-0.0101449
-0.00860659
-0.00692286
-0.00511835
-0.00321286
-0.00121646
0.000841982
0.00285734
0.00456894
0.00568344
0.0060635
0.00584196
0.00159342
0.00121035
0.000825707
0.000441076
-6.84299e-05
-0.000810693
-0.00184432
-0.0031532
-0.00465958
-0.00625898
-0.0078631
-0.00941182
-0.0108618
-0.0121863
-0.0133706
-0.0144042
-0.0152811
-0.0159953
-0.0165418
-0.016916
-0.0171136
-0.0171311
-0.0169658
-0.0166162
-0.0160833
-0.0153704
-0.0144826
-0.0134259
-0.012206
-0.0108279
-0.00929454
-0.00760396
-0.00574393
-0.00369118
-0.00144031
0.000922176
0.00314495
0.00486621
0.00580338
0.005482
0.00216415
0.00170244
0.00120229
0.000629229
-0.000180147
-0.0013012
-0.00272028
-0.00436231
-0.00610971
-0.00786237
-0.00955129
-0.0111317
-0.0125743
-0.0138654
-0.0149996
-0.0159751
-0.0167925
-0.017451
-0.0179497
-0.018287
-0.0184614
-0.0184713
-0.0183154
-0.0179943
-0.0175097
-0.0168651
-0.0160649
-0.0151139
-0.0140152
-0.0127684
-0.0113666
-0.00979401
-0.0080223
-0.00600968
-0.00371628
-0.00117314
0.00141017
0.0036644
0.00510087
0.00518547
0.00249047
0.00195981
0.00133466
0.000552867
-0.000562147
-0.00203143
-0.00376858
-0.00565287
-0.00756205
-0.00940488
-0.0111304
-0.0127075
-0.0141206
-0.0153671
-0.0164491
-0.017371
-0.0181371
-0.01875
-0.0192115
-0.0195217
-0.0196805
-0.0196876
-0.0195428
-0.0192469
-0.0188022
-0.0182117
-0.0174796
-0.0166102
-0.0156057
-0.0144641
-0.0131755
-0.0117185
-0.0100584
-0.00814444
-0.00591255
-0.00333636
-0.000572981
0.00201927
0.00399378
0.00503613
0.00246202
0.00187692
0.0011324
0.000152282
-0.0012348
-0.002977
-0.00494246
-0.00697766
-0.0089771
-0.0108559
-0.0125803
-0.0141301
-0.0155018
-0.0167001
-0.0177327
-0.0186078
-0.0193317
-0.0199092
-0.020343
-0.0206345
-0.0207843
-0.0207928
-0.0206601
-0.0203873
-0.0199764
-0.0194302
-0.0187524
-0.0179468
-0.0170158
-0.0159577
-0.0147634
-0.0134122
-0.0118698
-0.0100855
-0.00798747
-0.00550473
-0.00271531
9.54047e-06
0.0023569
0.00395575
0.00204988
0.00142231
0.000574935
-0.000570298
-0.00215963
-0.00408938
-0.00618486
-0.00829945
-0.0103267
-0.0121992
-0.0138949
-0.0154026
-0.0167272
-0.0178781
-0.0188664
-0.0197019
-0.0203922
-0.0209427
-0.0213567
-0.0216361
-0.0217818
-0.0217944
-0.0216744
-0.0214229
-0.0210414
-0.0205326
-0.0198995
-0.0191457
-0.0182739
-0.0172839
-0.0161693
-0.0149133
-0.0134857
-0.0118405
-0.00991198
-0.0076106
-0.00491918
-0.00221697
0.000173196
0.00185424
0.00128021
0.000629746
-0.000289933
-0.00155815
-0.00327078
-0.00530171
-0.00744588
-0.00957883
-0.0115883
-0.0134251
-0.0150744
-0.0165322
-0.0178083
-0.0189149
-0.0198643
-0.0206669
-0.0213306
-0.0218607
-0.0222607
-0.0225325
-0.0226772
-0.0226956
-0.0225883
-0.0223563
-0.022001
-0.0215245
-0.0209294
-0.0202192
-0.019397
-0.0184642
-0.017418
-0.0162472
-0.0149281
-0.0134221
-0.011673
-0.00959689
-0.00712615
-0.00453636
-0.00232116
-0.000788607
0.000234001
-0.000416886
-0.00137508
-0.00271705
-0.00449027
-0.00654299
-0.00867923
-0.0107837
-0.0127446
-0.0145272
-0.0161207
-0.0175259
-0.0187551
-0.0198213
-0.0207371
-0.0215126
-0.0221551
-0.0226696
-0.0230594
-0.0233265
-0.0234721
-0.0234969
-0.0234017
-0.0231875
-0.0228555
-0.0224074
-0.0218456
-0.0211733
-0.020394
-0.0195109
-0.0185248
-0.0174303
-0.0162117
-0.014839
-0.013266
-0.0114262
-0.00924472
-0.00684345
-0.00489497
-0.00360074
-0.00097701
-0.0016137
-0.00258254
-0.00394849
-0.00572567
-0.00774663
-0.00984322
-0.0118875
-0.0137822
-0.0155015
-0.017036
-0.0183895
-0.0195751
-0.0206053
-0.0214922
-0.022245
-0.0228703
-0.0233726
-0.0237549
-0.0240191
-0.0241663
-0.0241975
-0.0241134
-0.0239152
-0.0236038
-0.0231808
-0.0226483
-0.0220093
-0.021268
-0.0204288
-0.0194957
-0.0184689
-0.0173407
-0.0160909
-0.0146846
-0.0130724
-0.0111844
-0.0090498
-0.00736143
-0.00630019
-0.00224222
-0.0028507
-0.00380994
-0.00516191
-0.00690379
-0.00886426
-0.0108987
-0.012868
-0.0146902
-0.016344
-0.0178211
-0.0191266
-0.0202727
-0.0212716
-0.0221338
-0.0228676
-0.0234788
-0.0239714
-0.0243479
-0.0246101
-0.0247592
-0.0247962
-0.024722
-0.0245376
-0.0242441
-0.0238429
-0.0233361
-0.0227266
-0.0220188
-0.0212184
-0.0203319
-0.0193645
-0.0183157
-0.0171747
-0.0159167
-0.0145026
-0.0128813
-0.0110752
-0.00962602
-0.00873361
-0.00345721
-0.00403037
-0.00496329
-0.00628316
-0.00796921
-0.00985633
-0.0118171
-0.0137082
-0.0154596
-0.0170513
-0.0184758
-0.0197385
-0.0208504
-0.0218223
-0.0226638
-0.0233819
-0.0239816
-0.0244663
-0.0248383
-0.0250992
-0.0252501
-0.0252921
-0.0252261
-0.0250533
-0.0247749
-0.0243921
-0.0239072
-0.023323
-0.0226442
-0.0218775
-0.0210313
-0.020115
-0.0191345
-0.0180872
-0.0169558
-0.0157084
-0.0143152
-0.0128132
-0.0115867
-0.0108303
-0.00454378
-0.0050732
-0.00596998
-0.00725086
-0.00887714
-0.0106912
-0.0125779
-0.0143956
-0.0160828
-0.0176196
-0.0189988
-0.0202252
-0.0213085
-0.0222584
-0.023083
-0.0237884
-0.024379
-0.0248576
-0.0252261
-0.025486
-0.0256384
-0.0256844
-0.0256249
-0.0254613
-0.0251947
-0.0248268
-0.0243596
-0.0237962
-0.0231416
-0.0224028
-0.0215901
-0.0207159
-0.0197915
-0.0188214
-0.0177954
-0.0166884
-0.0154881
-0.0142409
-0.0132092
-0.0125579
-0.00543808
-0.00592974
-0.00678434
-0.00802393
-0.00959441
-0.0113456
-0.0131665
-0.0149209
-0.0165539
-0.0180455
-0.019388
-0.0205855
-0.0216464
-0.0225792
-0.0233909
-0.0240869
-0.0246708
-0.025145
-0.0255111
-0.0257704
-0.025924
-0.0259728
-0.0259181
-0.0257609
-0.0255029
-0.0251457
-0.0246916
-0.0241439
-0.0235077
-0.0227907
-0.022004
-0.0211625
-0.0202816
-0.0193719
-0.0184301
-0.0174395
-0.0163966
-0.0153406
-0.0144745
-0.0139123
-0.0061125
-0.00655699
-0.00737591
-0.00858015
-0.010103
-0.0118048
-0.0135727
-0.0152769
-0.016868
-0.0183253
-0.0196407
-0.0208174
-0.0218625
-0.0227835
-0.0235867
-0.0242767
-0.0248565
-0.0253282
-0.0256932
-0.0259524
-0.0261069
-0.0261576
-0.0261055
-0.0259522
-0.0256991
-0.0253482
-0.0249021
-0.0243643
-0.02374
-0.0230375
-0.0222687
-0.0214499
-0.0205997
-0.0197337
-0.0188558
-0.0179575
-0.0170389
-0.0161305
-0.015394
-0.0149007
-0.00653835
-0.00694391
-0.00773871
-0.00891384
-0.0103957
-0.0120625
-0.0137909
-0.0154588
-0.0170212
-0.0184559
-0.0197542
-0.0209184
-0.0219547
-0.0228697
-0.023669
-0.0243567
-0.0249354
-0.0254069
-0.0257722
-0.0260321
-0.0261874
-0.0262389
-0.0261878
-0.0260354
-0.0257835
-0.0254342
-0.0249905
-0.0244561
-0.0238366
-0.0231404
-0.0223803
-0.0215736
-0.0207414
-0.0199033
-0.0190694
-0.0182393
-0.0174153
-0.016616
-0.0159783
-0.0155384
-0.0066979
-0.00708717
-0.00787374
-0.00902965
-0.0104774
-0.0121177
-0.0138176
-0.015464
-0.0170106
-0.0184341
-0.0197255
-0.0208858
-0.0219205
-0.0228356
-0.0236362
-0.0243258
-0.0249069
-0.0253807
-0.0257481
-0.0260097
-0.0261659
-0.0262176
-0.0261656
-0.0260113
-0.0257566
-0.025404
-0.0249565
-0.0244185
-0.0237957
-0.0230973
-0.0223357
-0.0215298
-0.0207027
-0.019877
-0.0190682
-0.0182838
-0.0175307
-0.0168138
-0.0162471
-0.01584
-0.00662496
-0.00700361
-0.00778846
-0.00893523
-0.0103579
-0.0119743
-0.01366
-0.0152954
-0.016836
-0.0182581
-0.0195515
-0.0207162
-0.0217569
-0.0226787
-0.0234862
-0.0241825
-0.0247698
-0.0252491
-0.025621
-0.0258856
-0.0260432
-0.0260944
-0.0260399
-0.0258811
-0.0256197
-0.0252585
-0.0248007
-0.024251
-0.0236161
-0.0229054
-0.0221324
-0.0213162
-0.020481
-0.0196522
-0.01885
-0.0180894
-0.0173856
-0.016728
-0.0162242
-0.0158196
-0.00636207
-0.00672805
-0.00751051
-0.00865316
-0.0100555
-0.0116434
-0.0133214
-0.0149539
-0.0164964
-0.0179252
-0.019229
-0.0204064
-0.0214606
-0.022396
-0.0232166
-0.0239251
-0.0245231
-0.0250116
-0.0253906
-0.0256601
-0.02582
-0.0258704
-0.0258121
-0.0256461
-0.0253742
-0.024999
-0.0245243
-0.023955
-0.0232984
-0.0225647
-0.0217686
-0.0209301
-0.0200739
-0.0192271
-0.0184143
-0.0176585
-0.0169842
-0.0163573
-0.0159211
-0.0154903
-0.00595639
-0.00630738
-0.00707999
-0.00821213
-0.00959474
-0.0111477
-0.0128072
-0.0144405
-0.0159906
-0.0174326
-0.0187542
-0.019952
-0.0210275
-0.021984
-0.0228245
-0.0235513
-0.0241655
-0.0246674
-0.025057
-0.0253337
-0.025497
-0.0255469
-0.0254836
-0.0253079
-0.0250216
-0.0246273
-0.0241288
-0.0235317
-0.0228436
-0.022076
-0.0212446
-0.0203705
-0.01948
-0.0186012
-0.0177626
-0.0169974
-0.0163367
-0.0157067
-0.0153196
-0.0148671
-0.00547027
-0.00579981
-0.00654517
-0.00764624
-0.00899673
-0.0105112
-0.0121335
-0.0137607
-0.0153185
-0.0167774
-0.0181225
-0.0193479
-0.0204528
-0.0214384
-0.0223066
-0.0230587
-0.0236952
-0.0242159
-0.0246201
-0.0249069
-0.0250755
-0.0251253
-0.0250561
-0.0248686
-0.0245643
-0.0241456
-0.0236165
-0.022983
-0.0222536
-0.0214407
-0.0205614
-0.0196384
-0.0186996
-0.0177745
-0.0168965
-0.0161096
-0.0154506
-0.014788
-0.014451
-0.013971
-0.00498052
-0.00527252
-0.00595871
-0.0069957
-0.00828594
-0.00974656
-0.0113175
-0.0129225
-0.0144811
-0.0159564
-0.017329
-0.0185886
-0.0197309
-0.0207545
-0.021659
-0.0224445
-0.0231104
-0.023656
-0.0240798
-0.0243805
-0.0245568
-0.0246075
-0.0245321
-0.024331
-0.0240053
-0.0235572
-0.0229908
-0.0223125
-0.0215317
-0.0206619
-0.0197222
-0.0187369
-0.0177357
-0.0167497
-0.0158175
-0.0149923
-0.0143107
-0.0136216
-0.0133499
-0.012821
-0.00456527
-0.00478713
-0.0053672
-0.00629874
-0.00749304
-0.0088699
-0.0103709
-0.0119326
-0.0134793
-0.0149666
-0.0163683
-0.0176681
-0.018856
-0.0199268
-0.0208773
-0.0217054
-0.0224092
-0.0229868
-0.0234362
-0.0237554
-0.0239426
-0.0239961
-0.0239148
-0.0236987
-0.0233487
-0.0228668
-0.0222569
-0.0215259
-0.0206839
-0.019746
-0.0187333
-0.0176721
-0.0165943
-0.0155328
-0.0145313
-0.0136511
-0.0129308
-0.0122018
-0.0120308
-0.0114086
-0.00427887
-0.00437925
-0.00480234
-0.00558838
-0.00664965
-0.00790444
-0.00930451
-0.0107972
-0.0123145
-0.0138058
-0.0152361
-0.0165805
-0.0178223
-0.0189503
-0.0199574
-0.0208385
-0.0215897
-0.0222079
-0.0226901
-0.0230334
-0.0232356
-0.0232944
-0.0232083
-0.0229768
-0.0226005
-0.022081
-0.0214223
-0.0206315
-0.0197197
-0.0187034
-0.0176056
-0.0164553
-0.0152868
-0.0141351
-0.0130491
-0.0120961
-0.0113165
-0.0105217
-0.0104897
-0.00969087
-0.00410256
-0.00402852
-0.00428069
-0.00489393
-0.00578228
-0.00687233
-0.00813238
-0.00952517
-0.0109909
-0.0124741
-0.0139297
-0.0153223
-0.0166257
-0.0178213
-0.0188963
-0.0198419
-0.0206515
-0.0213199
-0.0218431
-0.0222174
-0.0224398
-0.0225076
-0.022419
-0.0221726
-0.021769
-0.0212095
-0.0204982
-0.0196422
-0.0186535
-0.01755
-0.0163569
-0.0151053
-0.0138323
-0.0125758
-0.01139
-0.010346
-0.00948686
-0.00861397
-0.00869145
-0.00758274
-0.00388536
-0.00368818
-0.00381611
-0.00423797
-0.00490979
-0.00579045
-0.00687021
-0.00812947
-0.00951819
-0.0109776
-0.0124523
-0.0138944
-0.0152663
-0.0165397
-0.0176946
-0.0187169
-0.0195964
-0.0203259
-0.0208994
-0.0213127
-0.0215617
-0.0216434
-0.0215558
-0.0212968
-0.0208666
-0.0202668
-0.0195011
-0.0185771
-0.0175072
-0.0163105
-0.015014
-0.0136507
-0.0122607
-0.0108847
-0.0095832
-0.00842847
-0.00746994
-0.00650932
-0.00659876
-0.00501597
-0.00357389
-0.00339179
-0.00342646
-0.00363228
-0.0040457
-0.00467371
-0.00553424
-0.00662713
-0.00791319
-0.00933169
-0.0108168
-0.0123075
-0.0137527
-0.0151129
-0.0163589
-0.01747
-0.0184317
-0.0192335
-0.0198677
-0.0203287
-0.0206121
-0.0207141
-0.0206324
-0.0203652
-0.0199117
-0.0192737
-0.0184553
-0.0174638
-0.0163123
-0.0150203
-0.013616
-0.0121334
-0.0106154
-0.00910566
-0.00767158
-0.00638423
-0.00530053
-0.0042194
-0.0042024
-0.00200504
-0.00330923
-0.00318906
-0.00311933
-0.00308502
-0.00320249
-0.00353721
-0.00414328
-0.0050417
-0.00620331
-0.00756514
-0.00905134
-0.0105874
-0.0121081
-0.0135613
-0.0149076
-0.0161183
-0.0171733
-0.0180583
-0.0187636
-0.0192819
-0.0196082
-0.0197386
-0.0196703
-0.0194015
-0.0189305
-0.0182605
-0.0173954
-0.0163422
-0.0151138
-0.0137297
-0.0122179
-0.0106119
-0.00895665
-0.00729808
-0.00571057
-0.00426049
-0.00300964
-0.00174153
-0.00148213
0.00133869
-0.00311419
-0.00305729
-0.00287659
-0.00259589
-0.00238842
-0.00239511
-0.00271869
-0.00340411
-0.00442866
-0.00572402
-0.00720382
-0.00878066
-0.010376
-0.0119248
-0.0133767
-0.0146944
-0.0158513
-0.0168289
-0.0176145
-0.0181992
-0.0185774
-0.018745
-0.0186991
-0.0184389
-0.0179608
-0.0172695
-0.0163689
-0.0152657
-0.013972
-0.0125052
-0.0108915
-0.00916188
-0.00736093
-0.00553386
-0.00375937
-0.00209279
-0.00060222
0.000952589
0.00158036
0.00500283
-0.00291519
-0.00293672
-0.00265053
-0.00213358
-0.00159059
-0.00125692
-0.00129032
-0.00175889
-0.00264506
-0.00387344
-0.00534486
-0.00695919
-0.0086258
-0.0102683
-0.0118259
-0.0132526
-0.0145154
-0.0155908
-0.0164632
-0.0171221
-0.0175605
-0.0177743
-0.0177604
-0.0175178
-0.0170499
-0.0163533
-0.0154342
-0.0142992
-0.0129581
-0.0114241
-0.00971941
-0.00786772
-0.0059099
-0.00388206
-0.00186003
0.000123747
0.00199384
0.00401273
0.00520294
0.00938784
-0.00265864
-0.00273879
-0.00238201
-0.0016454
-0.000784039
-0.000133807
0.000100649
-0.000169715
-0.000930594
-0.0020996
-0.0035661
-0.00521769
-0.00695205
-0.00868279
-0.0103405
-0.011872
-0.0132381
-0.014411
-0.0153721
-0.016109
-0.0166139
-0.0168821
-0.0169114
-0.0167009
-0.0162525
-0.0155668
-0.0146478
-0.0135016
-0.0121343
-0.0105518
-0.00876952
-0.00679714
-0.00466468
-0.00238355
-1.11268e-05
0.0024699
0.00498818
0.0078418
0.0101206
0.0158961
-0.00234744
-0.00243807
-0.00200224
-0.00108709
4.15254e-05
0.000939636
0.00138502
0.00127222
0.000610721
-0.000511491
-0.00197438
-0.0036579
-0.00545116
-0.00725931
-0.00900589
-0.010632
-0.0120935
-0.0133584
-0.0144052
-0.01522
-0.0157941
-0.0161217
-0.0162011
-0.0160319
-0.0156151
-0.0149511
-0.0140435
-0.0129
-0.0115214
-0.00990766
-0.00806189
-0.00597105
-0.00364389
-0.00104022
0.00182501
0.00508243
0.00869988
0.0131645
0.0179057
0.0273741
-0.00212817
-0.00217145
-0.00158423
-0.000476364
0.000824182
0.00191587
0.00249166
0.00247856
0.00188233
0.00078838
-0.00068177
-0.00240026
-0.00424874
-0.00612535
-0.00794753
-0.0096526
-0.0111934
-0.0125348
-0.0136538
-0.0145351
-0.0151694
-0.0155505
-0.0156764
-0.0155469
-0.0151635
-0.0145272
-0.0136392
-0.0124925
-0.0111008
-0.00946411
-0.00756672
-0.00536706
-0.00284341
0.000132409
0.00361828
0.00797699
0.0133069
0.0207564
0.0305187
0.0469433
-0.00308948
-0.00253248
-0.00145902
-2.18246e-05
0.00148624
0.00269143
0.0033453
0.00338071
0.00281673
0.00174282
0.000276512
-0.00145748
-0.00333979
-0.00526533
-0.00714639
-0.00891548
-0.010521
-0.0119257
-0.013104
-0.0140397
-0.0147219
-0.0151463
-0.0153092
-0.0152112
-0.0148526
-0.0142357
-0.0133604
-0.0122284
-0.0108385
-0.00917086
-0.00723183
-0.00495765
-0.00229047
0.000989191
0.00508151
0.0107094
0.0185007
0.030679
0.0486029
0.0749444
-0.00522437
-0.00167084
-3.76959e-05
0.00136719
0.00274645
0.00384475
0.00442039
0.00438143
0.00375519
0.00263802
0.00114434
-0.000615087
-0.00253054
-0.00449941
-0.00643311
-0.00825886
-0.00992104
-0.0113807
-0.0126107
-0.0135922
-0.0143147
-0.0147723
-0.0149637
-0.0148879
-0.014547
-0.0139406
-0.01307
-0.0119317
-0.0105261
-0.00884197
-0.00690511
-0.00460748
-0.00197884
0.00147245
0.00589675
0.0126587
0.0236644
0.0416012
0.0692675
0.104114
)
;

boundaryField
{
    movingWall
    {
        type            zeroGradient;
    }
    fixedWalls
    {
        type            zeroGradient;
    }
    frontAndBack
    {
        type            empty;
    }
}


// ************************************************************************* //
