/*--------------------------------*- C++ -*----------------------------------*\
  =========                 |
  \\      /  F ield         | OpenFOAM: The Open Source CFD Toolbox
   \\    /   O peration     | Website:  https://openfoam.org
    \\  /    A nd           | Version:  13
     \\/     M anipulation  |
\*---------------------------------------------------------------------------*/
FoamFile
{
    format      ascii;
    class       surfaceScalarField;
    location    "8";
    object      phi;
}
// * * * * * * * * * * * * * * * * * * * * * * * * * * * * * * * * * * * * * //

dimensions      [0 3 -1 0 0 0 0];

internalField   nonuniform List<scalar> 
3120
(
9.24621e-08
-9.24628e-08
2.29823e-07
-1.37361e-07
3.32554e-07
-1.02731e-07
3.67404e-07
-3.48504e-08
3.56661e-07
1.07436e-08
3.36232e-07
2.04284e-08
3.28489e-07
7.74311e-09
3.24977e-07
3.51179e-09
3.02855e-07
2.21225e-08
2.44247e-07
5.8608e-08
1.30357e-07
1.1389e-07
-8.31339e-08
2.13491e-07
-4.18507e-07
3.35373e-07
-9.13324e-07
4.94817e-07
-1.50516e-06
5.91831e-07
-2.08559e-06
5.80439e-07
-2.61192e-06
5.26322e-07
-3.06377e-06
4.51855e-07
-3.43854e-06
3.74772e-07
-3.73714e-06
2.98591e-07
-3.96156e-06
2.24428e-07
-4.1134e-06
1.51833e-07
-4.1938e-06
8.04087e-08
-4.19983e-06
6.02967e-09
-4.12947e-06
-7.03627e-08
-3.98443e-06
-1.4504e-07
-3.75065e-06
-2.33783e-07
-3.42884e-06
-3.21805e-07
-3.01116e-06
-4.17688e-07
-2.49916e-06
-5.11992e-07
-1.89446e-06
-6.04705e-07
-1.22109e-06
-6.73366e-07
-5.32704e-07
-6.8839e-07
9.34964e-08
-6.262e-07
5.86325e-07
-4.92829e-07
7.86823e-07
-2.00498e-07
6.72547e-07
1.14276e-07
4.35863e-07
2.36684e-07
1.83603e-07
2.5226e-07
1.83603e-07
1.68258e-07
-2.60721e-07
3.54393e-07
-3.23496e-07
4.69843e-07
-2.18181e-07
5.02366e-07
-6.7374e-08
4.69329e-07
4.37812e-08
3.94554e-07
9.52028e-08
2.88653e-07
1.13644e-07
1.28057e-07
1.64108e-07
-1.29405e-07
2.79584e-07
-5.28689e-07
4.57892e-07
-1.09952e-06
6.84716e-07
-1.80634e-06
9.20319e-07
-2.55174e-06
1.08077e-06
-3.19714e-06
1.14021e-06
-3.70304e-06
1.09773e-06
-4.13424e-06
1.01163e-06
-4.49923e-06
8.91312e-07
-4.80286e-06
7.55489e-07
-5.04391e-06
6.15818e-07
-5.22406e-06
4.78739e-07
-5.34351e-06
3.43881e-07
-5.40668e-06
2.15001e-07
-5.41071e-06
8.44405e-08
-5.35709e-06
-4.75878e-08
-5.24485e-06
-1.82602e-07
-5.06454e-06
-3.25356e-07
-4.81717e-06
-4.81154e-07
-4.49026e-06
-6.48716e-07
-4.07501e-06
-8.32932e-07
-3.56847e-06
-1.01854e-06
-2.97603e-06
-1.19714e-06
-2.30538e-06
-1.34401e-06
-1.58372e-06
-1.41005e-06
-8.5371e-07
-1.35621e-06
-2.28251e-07
-1.11829e-06
2.34966e-07
-6.63714e-07
3.88175e-07
-3.89332e-08
3.20948e-07
3.03911e-07
1.50078e-07
4.2313e-07
3.33681e-07
2.05668e-07
-4.66389e-07
3.50868e-07
-4.68696e-07
4.01388e-07
-2.68701e-07
3.726e-07
-3.85856e-08
2.759e-07
1.40481e-07
1.05407e-07
2.65696e-07
-1.76819e-07
3.95871e-07
-6.07106e-07
5.94394e-07
-1.20039e-06
8.72867e-07
-1.91821e-06
1.17571e-06
-2.65783e-06
1.42434e-06
-3.30444e-06
1.56692e-06
-3.83655e-06
1.61289e-06
-4.26199e-06
1.56566e-06
-4.61104e-06
1.44678e-06
-4.89299e-06
1.29358e-06
-5.12183e-06
1.12015e-06
-5.30545e-06
9.39109e-07
-5.44855e-06
7.58917e-07
-5.55235e-06
5.82544e-07
-5.62002e-06
4.11547e-07
-5.64743e-06
2.4241e-07
-5.63253e-06
6.954e-08
-5.57819e-06
-1.01925e-07
-5.48214e-06
-2.78656e-07
-5.34061e-06
-4.6688e-07
-5.15105e-06
-6.70717e-07
-4.90779e-06
-8.91976e-07
-4.60599e-06
-1.13474e-06
-4.23016e-06
-1.39436e-06
-3.76892e-06
-1.65838e-06
-3.21307e-06
-1.89986e-06
-2.56728e-06
-2.05585e-06
-1.85865e-06
-2.06484e-06
-1.13709e-06
-1.83985e-06
-4.87696e-07
-1.3131e-06
-7.54976e-08
-4.51131e-07
3.50299e-08
1.93383e-07
2.44435e-08
4.33716e-07
3.58125e-07
1.72363e-07
-6.38752e-07
2.30463e-07
-5.26797e-07
1.855e-07
-2.23738e-07
6.03855e-08
8.65289e-08
-1.53359e-07
3.54225e-07
-4.92022e-07
6.04359e-07
-9.84208e-07
8.88057e-07
-1.61746e-06
1.22765e-06
-2.32428e-06
1.57969e-06
-3.00912e-06
1.86054e-06
-3.59131e-06
2.00653e-06
-4.0525e-06
2.02812e-06
-4.40635e-06
1.96674e-06
-4.67888e-06
1.83818e-06
-4.89858e-06
1.66648e-06
-5.07372e-06
1.46872e-06
-5.21621e-06
1.26264e-06
-5.33384e-06
1.05674e-06
-5.42823e-06
8.53305e-07
-5.49478e-06
6.49097e-07
-5.53407e-06
4.50836e-07
-5.54361e-06
2.51949e-07
-5.52451e-06
5.04457e-08
-5.47855e-06
-1.47888e-07
-5.40323e-06
-3.53972e-07
-5.29594e-06
-5.74177e-07
-5.15482e-06
-8.11839e-07
-4.97601e-06
-1.07078e-06
-4.75862e-06
-1.35213e-06
-4.49737e-06
-1.65561e-06
-4.18633e-06
-1.96942e-06
-3.80844e-06
-2.27775e-06
-3.32097e-06
-2.54332e-06
-2.70582e-06
-2.67999e-06
-1.97442e-06
-2.57125e-06
-1.18463e-06
-2.1029e-06
-4.57971e-07
-1.17779e-06
-1.33816e-07
-1.30772e-07
-2.85585e-08
3.28459e-07
3.29566e-07
8.15248e-08
-7.20276e-07
2.39265e-08
-4.69198e-07
-1.28898e-07
-7.0913e-08
-3.68043e-07
3.25673e-07
-7.17772e-07
7.03954e-07
-1.20018e-06
1.08677e-06
-1.80577e-06
1.49365e-06
-2.47221e-06
1.89408e-06
-3.10508e-06
2.21256e-06
-3.62649e-06
2.38195e-06
-4.02605e-06
2.4061e-06
-4.33346e-06
2.33552e-06
-4.56477e-06
2.19806e-06
-4.74165e-06
2.01506e-06
-4.88208e-06
1.80691e-06
-4.99702e-06
1.58366e-06
-5.08767e-06
1.3533e-06
-5.15195e-06
1.12101e-06
-5.19048e-06
8.91836e-07
-5.20973e-06
6.68349e-07
-5.21125e-06
4.52353e-07
-5.19775e-06
2.38449e-07
-5.17061e-06
2.33049e-08
-5.1269e-06
-1.916e-07
-5.06532e-06
-4.15549e-07
-4.98634e-06
-6.53157e-07
-4.88936e-06
-9.08818e-07
-4.77291e-06
-1.18723e-06
-4.63343e-06
-1.49161e-06
-4.46617e-06
-1.82286e-06
-4.26126e-06
-2.17433e-06
-4.01055e-06
-2.52846e-06
-3.69492e-06
-2.85895e-06
-3.26811e-06
-3.1068e-06
-2.66591e-06
-3.17345e-06
-1.87669e-06
-2.89211e-06
-9.29247e-07
-2.12524e-06
-2.21367e-07
-8.38653e-07
-1.50026e-08
1.22094e-07
3.14564e-07
-5.17654e-08
-6.68511e-07
-2.23418e-07
-2.97546e-07
-4.7962e-07
1.85289e-07
-8.27606e-07
6.7366e-07
-1.28456e-06
1.16091e-06
-1.8434e-06
1.64561e-06
-2.45556e-06
2.1058e-06
-3.04082e-06
2.47935e-06
-3.52403e-06
2.69578e-06
-3.88397e-06
2.74189e-06
-4.15284e-06
2.67497e-06
-4.3533e-06
2.53598e-06
-4.50008e-06
2.34484e-06
-4.60778e-06
2.12276e-06
-4.6823e-06
1.88142e-06
-4.73037e-06
1.63174e-06
-4.75785e-06
1.38078e-06
-4.77128e-06
1.13445e-06
-4.775e-06
8.95555e-07
-4.77005e-06
6.63395e-07
-4.75457e-06
4.36874e-07
-4.72929e-06
2.13171e-07
-4.6955e-06
-1.04895e-08
-4.65069e-06
-2.36414e-07
-4.59614e-06
-4.70091e-07
-4.53314e-06
-7.16158e-07
-4.4626e-06
-9.79362e-07
-4.38517e-06
-1.26465e-06
-4.3004e-06
-1.57638e-06
-4.20604e-06
-1.91723e-06
-4.09489e-06
-2.28548e-06
-3.95186e-06
-2.6715e-06
-3.75942e-06
-3.05138e-06
-3.48783e-06
-3.37838e-06
-3.07921e-06
-3.58208e-06
-2.44131e-06
-3.53e-06
-1.52699e-06
-3.03956e-06
-4.94959e-07
-1.87068e-06
-3.24749e-08
-3.4039e-07
2.82089e-07
-1.78768e-07
-4.89743e-07
-4.65471e-07
-1.08424e-08
-8.12117e-07
5.31935e-07
-1.24502e-06
1.10656e-06
-1.75959e-06
1.67548e-06
-2.32022e-06
2.20623e-06
-2.86454e-06
2.65013e-06
-3.32243e-06
2.93724e-06
-3.65833e-06
3.03167e-06
-3.89833e-06
2.98189e-06
-4.0712e-06
2.84783e-06
-4.18941e-06
2.65419e-06
-4.26688e-06
2.42232e-06
-4.31322e-06
2.1691e-06
-4.33692e-06
1.90512e-06
-4.34544e-06
1.64025e-06
-4.34426e-06
1.37961e-06
-4.33636e-06
1.12654e-06
-4.32233e-06
8.81523e-07
-4.30238e-06
6.43446e-07
-4.27623e-06
4.10721e-07
-4.24386e-06
1.80805e-07
-4.2056e-06
-4.87485e-08
-4.16079e-06
-2.81223e-07
-4.11038e-06
-5.20504e-07
-4.05579e-06
-7.70745e-07
-3.99873e-06
-1.03642e-06
-3.94109e-06
-1.3223e-06
-3.88434e-06
-1.63313e-06
-3.82867e-06
-1.97289e-06
-3.77097e-06
-2.34318e-06
-3.70235e-06
-2.74012e-06
-3.60471e-06
-3.14903e-06
-3.44565e-06
-3.53744e-06
-3.18228e-06
-3.84544e-06
-2.73982e-06
-3.97247e-06
-2.02715e-06
-3.75223e-06
-9.53007e-07
-2.94482e-06
-1.16817e-07
-1.17658e-06
1.65272e-07
-2.91613e-07
-1.9813e-07
-6.58261e-07
3.55805e-07
-1.08263e-06
9.56306e-07
-1.5641e-06
1.58803e-06
-2.08329e-06
2.19468e-06
-2.59605e-06
2.71899e-06
-3.04207e-06
3.09614e-06
-3.37232e-06
3.26749e-06
-3.59749e-06
3.25684e-06
-3.75309e-06
3.1375e-06
-3.85457e-06
2.94931e-06
-3.91408e-06
2.7137e-06
-3.94379e-06
2.45203e-06
-3.95262e-06
2.17793e-06
-3.94864e-06
1.90114e-06
-3.93714e-06
1.62875e-06
-3.92127e-06
1.36374e-06
-3.90217e-06
1.10744e-06
-3.87983e-06
8.59191e-07
-3.85405e-06
6.17662e-07
-3.82434e-06
3.8101e-07
-3.79032e-06
1.46791e-07
-3.7517e-06
-8.73753e-08
-3.70843e-06
-3.24492e-07
-3.6612e-06
-5.67728e-07
-3.61142e-06
-8.20531e-07
-3.56111e-06
-1.08674e-06
-3.5128e-06
-1.3706e-06
-3.46911e-06
-1.67683e-06
-3.43175e-06
-2.01024e-06
-3.40017e-06
-2.37477e-06
-3.36918e-06
-2.77111e-06
-3.3255e-06
-3.1927e-06
-3.24316e-06
-3.61978e-06
-3.07996e-06
-4.00865e-06
-2.77805e-06
-4.27437e-06
-2.26115e-06
-4.26914e-06
-1.42756e-06
-3.77841e-06
-3.36145e-07
-2.26799e-06
-1.70873e-07
-3.67649e-07
1.69519e-07
-8.01594e-07
7.8975e-07
-1.26559e-06
1.4203e-06
-1.75547e-06
2.07792e-06
-2.24588e-06
2.68509e-06
-2.69195e-06
3.16506e-06
-3.03285e-06
3.43704e-06
-3.26159e-06
3.49623e-06
-3.41232e-06
3.40757e-06
-3.508e-06
3.23317e-06
-3.56052e-06
3.00183e-06
-3.58242e-06
2.7356e-06
-3.58409e-06
2.4537e-06
-3.57345e-06
2.16729e-06
-3.5566e-06
1.88429e-06
-3.5368e-06
1.60896e-06
-3.51569e-06
1.34262e-06
-3.49352e-06
1.08527e-06
-3.46994e-06
8.35613e-07
-3.44426e-06
5.91979e-07
-3.41563e-06
3.5238e-07
-3.38334e-06
1.14507e-07
-3.34678e-06
-1.23942e-07
-3.30587e-06
-3.65395e-07
-3.26111e-06
-6.12496e-07
-3.21367e-06
-8.6797e-07
-3.16554e-06
-1.13486e-06
-3.11947e-06
-1.41667e-06
-3.07873e-06
-1.71758e-06
-3.04639e-06
-2.04258e-06
-3.02406e-06
-2.3971e-06
-3.00954e-06
-2.78563e-06
-2.99362e-06
-3.20862e-06
-2.95622e-06
-3.65718e-06
-2.86168e-06
-4.1032e-06
-2.65869e-06
-4.47736e-06
-2.29855e-06
-4.62927e-06
-1.69772e-06
-4.37924e-06
-6.29796e-07
-3.33592e-06
-8.00669e-07
-4.12292e-07
5.81811e-07
-8.8052e-07
1.25798e-06
-1.35588e-06
1.89566e-06
-1.82967e-06
2.55171e-06
-2.2767e-06
3.13212e-06
-2.64056e-06
3.52891e-06
-2.88932e-06
3.6858e-06
-3.05131e-06
3.65823e-06
-3.15161e-06
3.50787e-06
-3.20701e-06
3.28857e-06
-3.22925e-06
3.02407e-06
-3.23008e-06
2.73642e-06
-3.21819e-06
2.44182e-06
-3.19998e-06
2.14908e-06
-3.17958e-06
1.86388e-06
-3.1589e-06
1.58828e-06
-3.13861e-06
1.32233e-06
-3.1184e-06
1.06507e-06
-3.09753e-06
8.1474e-07
-3.07499e-06
5.69439e-07
-3.04974e-06
3.27138e-07
-3.02095e-06
8.57122e-08
-2.98789e-06
-1.57001e-07
-2.95033e-06
-4.02958e-07
-2.9085e-06
-6.54327e-07
-2.86323e-06
-9.13239e-07
-2.8161e-06
-1.18199e-06
-2.76953e-06
-1.46324e-06
-2.72672e-06
-1.76039e-06
-2.69131e-06
-2.07798e-06
-2.6664e-06
-2.42202e-06
-2.65254e-06
-2.79949e-06
-2.64476e-06
-3.2164e-06
-2.62892e-06
-3.67302e-06
-2.57643e-06
-4.15568e-06
-2.4377e-06
-4.61609e-06
-2.16433e-06
-4.90264e-06
-1.69359e-06
-4.84998e-06
-9.02279e-07
-4.12723e-06
-1.70295e-06
-4.2992e-07
1.01173e-06
-9.02472e-07
1.73053e-06
-1.36559e-06
2.35878e-06
-1.80656e-06
2.99268e-06
-2.19626e-06
3.52182e-06
-2.47787e-06
3.81052e-06
-2.66583e-06
3.87376e-06
-2.78317e-06
3.77557e-06
-2.8499e-06
3.57459e-06
-2.88056e-06
3.31923e-06
-2.88641e-06
3.02993e-06
-2.87783e-06
2.72784e-06
-2.86184e-06
2.42583e-06
-2.84326e-06
2.1305e-06
-2.82473e-06
1.84535e-06
-2.80722e-06
1.57077e-06
-2.79075e-06
1.30586e-06
-2.77462e-06
1.04894e-06
-2.75788e-06
7.97993e-07
-2.73943e-06
5.5099e-07
-2.71824e-06
3.05951e-07
-2.69348e-06
6.09506e-08
-2.6645e-06
-1.85982e-07
-2.63092e-06
-4.36533e-07
-2.59278e-06
-6.92469e-07
-2.55053e-06
-9.55495e-07
-2.50521e-06
-1.22731e-06
-2.45862e-06
-1.50983e-06
-2.41343e-06
-1.80558e-06
-2.37309e-06
-2.11832e-06
-2.34129e-06
-2.45382e-06
-2.32044e-06
-2.82034e-06
-2.30907e-06
-3.22777e-06
-2.2984e-06
-3.68369e-06
-2.26776e-06
-4.18633e-06
-2.17421e-06
-4.70964e-06
-1.9486e-06
-5.12825e-06
-1.56796e-06
-5.23063e-06
-9.5608e-07
-4.73911e-06
-2.65903e-06
-4.1986e-07
1.43159e-06
-8.7516e-07
2.18583e-06
-1.30868e-06
2.7923e-06
-1.70788e-06
3.39188e-06
-2.03211e-06
3.84606e-06
-2.25321e-06
4.03162e-06
-2.39977e-06
4.02032e-06
-2.48548e-06
3.86128e-06
-2.53103e-06
3.62014e-06
-2.54802e-06
3.33622e-06
-2.54691e-06
3.02882e-06
-2.53632e-06
2.71725e-06
-2.5217e-06
2.41122e-06
-2.50653e-06
2.11533e-06
-2.49238e-06
1.8312e-06
-2.47958e-06
1.55798e-06
-2.46773e-06
1.29401e-06
-2.45596e-06
1.03717e-06
-2.4433e-06
7.85327e-07
-2.42875e-06
5.36437e-07
-2.41142e-06
2.88625e-07
-2.3906e-06
4.01296e-08
-2.36575e-06
-2.10835e-07
-2.33646e-06
-4.65822e-07
-2.30259e-06
-7.26335e-07
-2.26428e-06
-9.9381e-07
-2.22204e-06
-1.26954e-06
-2.17698e-06
-1.55489e-06
-2.13097e-06
-1.85158e-06
-2.08685e-06
-2.16244e-06
-2.0482e-06
-2.49247e-06
-2.01845e-06
-2.85008e-06
-1.99871e-06
-3.24752e-06
-1.98425e-06
-3.69815e-06
-1.96096e-06
-4.20961e-06
-1.8982e-06
-4.7724e-06
-1.71589e-06
-5.31056e-06
-1.40205e-06
-5.54447e-06
-8.55893e-07
-5.28527e-06
-3.51492e-06
-3.89336e-07
1.82093e-06
-8.1186e-07
2.60835e-06
-1.20628e-06
3.18672e-06
-1.55691e-06
3.7425e-06
-1.81716e-06
4.1063e-06
-1.99644e-06
4.2109e-06
-2.11119e-06
4.13507e-06
-2.17686e-06
3.92695e-06
-2.20999e-06
3.65328e-06
-2.2207e-06
3.34693e-06
-2.21836e-06
3.02648e-06
-2.20981e-06
2.70869e-06
-2.19918e-06
2.40059e-06
-2.18886e-06
2.10501e-06
-2.17969e-06
1.82202e-06
-2.17159e-06
1.54988e-06
-2.16396e-06
1.28638e-06
-2.15597e-06
1.02918e-06
-2.14676e-06
7.76112e-07
-2.13553e-06
5.2521e-07
-2.12161e-06
2.74708e-07
-2.10444e-06
2.2962e-08
-2.0836e-06
-2.31675e-07
-2.05872e-06
-4.907e-07
-2.02956e-06
-7.55502e-07
-1.99599e-06
-1.02738e-06
-1.95811e-06
-1.30742e-06
-1.9164e-06
-1.5966e-06
-1.87194e-06
-1.89605e-06
-1.82669e-06
-2.20769e-06
-1.78367e-06
-2.53548e-06
-1.74659e-06
-2.88717e-06
-1.7182e-06
-3.27591e-06
-1.69689e-06
-3.71946e-06
-1.67292e-06
-4.23357e-06
-1.62373e-06
-4.8216e-06
-1.48847e-06
-5.44582e-06
-1.21274e-06
-5.82019e-06
-7.5018e-07
-5.74783e-06
-4.2651e-06
-3.45009e-07
2.16594e-06
-7.24641e-07
2.98799e-06
-1.07267e-06
3.53475e-06
-1.36911e-06
4.03895e-06
-1.57705e-06
4.31423e-06
-1.72435e-06
4.3582e-06
-1.81642e-06
4.22714e-06
-1.86898e-06
3.97951e-06
-1.89534e-06
3.67964e-06
-1.90425e-06
3.35584e-06
-1.90371e-06
3.02594e-06
-1.89896e-06
2.70394e-06
-1.89307e-06
2.3947e-06
-1.88761e-06
2.09955e-06
-1.88294e-06
1.81735e-06
-1.87879e-06
1.54573e-06
-1.87456e-06
1.28214e-06
-1.86954e-06
1.02416e-06
-1.86309e-06
7.69658e-07
-1.85463e-06
5.16756e-07
-1.84371e-06
2.63786e-07
-1.82993e-06
9.17921e-09
-1.81298e-06
-2.4863e-07
-1.79254e-06
-5.11135e-07
-1.76832e-06
-7.79719e-07
-1.74005e-06
-1.05566e-06
-1.70749e-06
-1.33997e-06
-1.67063e-06
-1.63346e-06
-1.62987e-06
-1.93681e-06
-1.58634e-06
-2.25121e-06
-1.54231e-06
-2.57952e-06
-1.50117e-06
-2.92831e-06
-1.46656e-06
-3.31052e-06
-1.43952e-06
-3.7465e-06
-1.4141e-06
-4.25899e-06
-1.37326e-06
-4.86244e-06
-1.27714e-06
-5.54193e-06
-1.03108e-06
-6.06625e-06
-6.37914e-07
-6.141e-06
-4.90302e-06
-2.92945e-07
2.45888e-06
-6.20884e-07
3.31592e-06
-9.18566e-07
3.83243e-06
-1.16065e-06
4.28103e-06
-1.33014e-06
4.48373e-06
-1.45098e-06
4.47904e-06
-1.52515e-06
4.30131e-06
-1.56862e-06
4.02298e-06
-1.59139e-06
3.70241e-06
-1.60078e-06
3.36522e-06
-1.60322e-06
3.02838e-06
-1.60258e-06
2.70331e-06
-1.60111e-06
2.39322e-06
-1.59977e-06
2.09822e-06
-1.59869e-06
1.81627e-06
-1.59756e-06
1.54459e-06
-1.59587e-06
1.28045e-06
-1.59312e-06
1.02142e-06
-1.58889e-06
7.6542e-07
-1.5828e-06
5.10674e-07
-1.5746e-06
2.55577e-07
-1.56401e-06
-1.40172e-09
-1.55085e-06
-2.61792e-07
-1.53487e-06
-5.2712e-07
-1.51575e-06
-7.98836e-07
-1.49313e-06
-1.07828e-06
-1.46658e-06
-1.36652e-06
-1.43572e-06
-1.66432e-06
-1.40041e-06
-1.97212e-06
-1.36113e-06
-2.2905e-06
-1.31936e-06
-2.62128e-06
-1.27798e-06
-2.96969e-06
-1.24087e-06
-3.34763e-06
-1.21073e-06
-3.77665e-06
-1.18416e-06
-4.28556e-06
-1.14836e-06
-4.89825e-06
-1.07646e-06
-5.61383e-06
-8.75292e-07
-6.26742e-06
-5.48048e-07
-6.46825e-06
-5.45106e-06
-2.33812e-07
2.69269e-06
-5.07697e-07
3.58981e-06
-7.5524e-07
4.07998e-06
-9.47649e-07
4.47344e-06
-1.08456e-06
4.62064e-06
-1.18117e-06
4.57565e-06
-1.24182e-06
4.36196e-06
-1.27879e-06
4.05994e-06
-1.29964e-06
3.72326e-06
-1.31032e-06
3.37591e-06
-1.31576e-06
3.03382e-06
-1.31874e-06
2.70628e-06
-1.32082e-06
2.39531e-06
-1.32263e-06
2.10002e-06
-1.32415e-06
1.8178e-06
-1.32516e-06
1.5456e-06
-1.32531e-06
1.28061e-06
-1.32431e-06
1.02042e-06
-1.32192e-06
7.63029e-07
-1.31796e-06
5.06717e-07
-1.3123e-06
2.49918e-07
-1.30482e-06
-8.88238e-09
-1.2954e-06
-2.71218e-07
-1.28385e-06
-5.38664e-07
-1.26991e-06
-8.12776e-07
-1.25317e-06
-1.09502e-06
-1.2331e-06
-1.3866e-06
-1.20906e-06
-1.68836e-06
-1.18054e-06
-2.00063e-06
-1.14747e-06
-2.32357e-06
-1.1107e-06
-2.65806e-06
-1.07253e-06
-3.00785e-06
-1.03686e-06
-3.3833e-06
-1.00757e-06
-3.80594e-06
-9.83941e-07
-4.30918e-06
-9.56727e-07
-4.92546e-06
-9.05453e-07
-5.66511e-06
-7.43664e-07
-6.42921e-06
-4.5989e-07
-6.75202e-06
-5.91095e-06
-1.75232e-07
2.86793e-06
-3.92353e-07
3.80693e-06
-5.89144e-07
4.27677e-06
-7.36283e-07
4.62058e-06
-8.43334e-07
4.72769e-06
-9.1898e-07
4.6513e-06
-9.68403e-07
4.41138e-06
-1.0002e-06
4.09174e-06
-1.01977e-06
3.74283e-06
-1.0317e-06
3.38784e-06
-1.03957e-06
3.04169e-06
-1.04529e-06
2.712e-06
-1.04993e-06
2.39995e-06
-1.05387e-06
2.10396e-06
-1.05712e-06
1.82105e-06
-1.05956e-06
1.54804e-06
-1.06103e-06
1.28208e-06
-1.06142e-06
1.0208e-06
-1.06064e-06
7.62252e-07
-1.05866e-06
5.04744e-07
-1.05548e-06
2.4673e-07
-1.05105e-06
-1.33094e-08
-1.04534e-06
-2.76931e-07
-1.03823e-06
-5.45772e-07
-1.0295e-06
-8.21502e-07
-1.01878e-06
-1.10574e-06
-1.00548e-06
-1.3999e-06
-9.88876e-07
-1.70497e-06
-9.6818e-07
-2.02133e-06
-9.42904e-07
-2.34885e-06
-9.13337e-07
-2.68762e-06
-8.81175e-07
-3.04001e-06
-8.49957e-07
-3.41452e-06
-8.24318e-07
-3.83158e-06
-8.06177e-07
-4.32733e-06
-7.88471e-07
-4.94317e-06
-7.51013e-07
-5.70256e-06
-6.36924e-07
-6.5433e-06
-4.00937e-07
-6.98801e-06
-6.31189e-06
-1.12189e-07
2.98012e-06
-2.75571e-07
3.97031e-06
-4.22756e-07
4.42395e-06
-5.2936e-07
4.72718e-06
-6.0934e-07
4.80767e-06
-6.66024e-07
4.70798e-06
-7.05223e-07
4.45058e-06
-7.32256e-07
4.11877e-06
-7.50498e-07
3.76107e-06
-7.63173e-07
3.40052e-06
-7.72651e-07
3.05116e-06
-7.80156e-07
2.71951e-06
-7.86379e-07
2.40617e-06
-7.91586e-07
2.10917e-06
-7.95844e-07
1.82531e-06
-7.99165e-07
1.55136e-06
-8.01561e-07
1.28447e-06
-8.0307e-07
1.02231e-06
-8.03757e-07
7.62938e-07
-8.03693e-07
5.04681e-07
-8.02948e-07
2.45985e-07
-8.01569e-07
-1.4688e-08
-7.99572e-07
-2.78928e-07
-7.9691e-07
-5.48434e-07
-7.93424e-07
-8.24989e-07
-7.88792e-07
-1.11037e-06
-7.82478e-07
-1.40621e-06
-7.73712e-07
-1.71373e-06
-7.61588e-07
-2.03345e-06
-7.45334e-07
-2.3651e-06
-7.2481e-07
-2.70815e-06
-7.01179e-07
-3.06364e-06
-6.77537e-07
-3.43816e-06
-6.58778e-07
-3.85034e-06
-6.48709e-07
-4.33739e-06
-6.42583e-07
-4.9493e-06
-6.20912e-07
-5.72423e-06
-5.41205e-07
-6.623e-06
-3.44612e-07
-7.1846e-06
-6.6565e-06
-5.58128e-08
3.03593e-06
-1.61611e-07
4.07611e-06
-2.59225e-07
4.52156e-06
-3.28861e-07
4.79682e-06
-3.83101e-07
4.86191e-06
-4.2202e-07
4.7469e-06
-4.51437e-07
4.48e-06
-4.73588e-07
4.14093e-06
-4.90068e-07
3.77755e-06
-5.02764e-07
3.41321e-06
-5.12982e-07
3.06138e-06
-5.21369e-07
2.7279e-06
-5.28332e-07
2.41313e-06
-5.34085e-07
2.11492e-06
-5.38776e-07
1.83e-06
-5.42552e-07
1.55514e-06
-5.45576e-07
1.2875e-06
-5.48022e-07
1.02476e-06
-5.50062e-07
7.64978e-07
-5.51857e-07
5.06476e-07
-5.53545e-07
2.47672e-07
-5.55229e-07
-1.30038e-08
-5.56975e-07
-2.77183e-07
-5.58789e-07
-5.4662e-07
-5.6058e-07
-8.23198e-07
-5.62104e-07
-1.10885e-06
-5.62903e-07
-1.40541e-06
-5.6226e-07
-1.71437e-06
-5.59244e-07
-2.03647e-06
-5.52917e-07
-2.37143e-06
-5.42804e-07
-2.71826e-06
-5.29591e-07
-3.07686e-06
-5.15898e-07
-3.45186e-06
-5.06558e-07
-3.85968e-06
-5.06482e-07
-4.33747e-06
-5.13176e-07
-4.9426e-06
-5.10643e-07
-5.72677e-06
-4.63049e-07
-6.6706e-06
-3.04052e-07
-7.3436e-06
-6.96055e-06
6.85102e-09
3.02908e-06
-4.67632e-08
4.12972e-06
-9.94674e-08
4.57427e-06
-1.35697e-07
4.83305e-06
-1.64407e-07
4.89062e-06
-1.86324e-07
4.76882e-06
-2.05648e-07
4.49932e-06
-2.2238e-07
4.15766e-06
-2.36475e-07
3.79165e-06
-2.48433e-07
3.42517e-06
-2.58583e-07
3.07153e-06
-2.67079e-07
2.73639e-06
-2.74099e-07
2.42015e-06
-2.79824e-07
2.12064e-06
-2.8449e-07
1.83467e-06
-2.88375e-07
1.55902e-06
-2.91778e-07
1.2909e-06
-2.9499e-07
1.02797e-06
-2.98281e-07
7.68269e-07
-3.01883e-07
5.10079e-07
-3.05991e-07
2.5178e-07
-3.10756e-07
-8.23902e-09
-3.16282e-07
-2.71656e-07
-3.22622e-07
-5.4028e-07
-3.29743e-07
-8.16077e-07
-3.37486e-07
-1.1011e-06
-3.45505e-07
-1.39739e-06
-3.53195e-07
-1.70668e-06
-3.59686e-07
-2.02998e-06
-3.63991e-07
-2.36712e-06
-3.65413e-07
-2.71684e-06
-3.64229e-07
-3.07804e-06
-3.62561e-07
-3.45352e-06
-3.64934e-07
-3.8573e-06
-3.76836e-07
-4.32557e-06
-3.97958e-07
-4.92148e-06
-4.14514e-07
-5.71021e-06
-3.93577e-07
-6.69153e-06
-2.66005e-07
-7.47117e-06
-7.22656e-06
6.45478e-08
2.96453e-06
6.52933e-08
4.12898e-06
5.52147e-08
4.58435e-06
5.07904e-08
4.83747e-06
4.77086e-08
4.8937e-06
4.20059e-08
4.77452e-06
3.35922e-08
4.50774e-06
2.30667e-08
4.16818e-06
1.21856e-08
3.80253e-06
1.83443e-09
3.43552e-06
-7.49816e-09
3.08087e-06
-1.54677e-08
2.74436e-06
-2.19941e-08
2.42668e-06
-2.72375e-08
2.12589e-06
-3.15161e-08
1.83895e-06
-3.52277e-08
1.56273e-06
-3.87921e-08
1.29446e-06
-4.26089e-08
1.03179e-06
-4.70342e-08
7.72694e-07
-5.23708e-08
5.15415e-07
-5.88668e-08
2.58276e-07
-6.6719e-08
-3.86804e-10
-7.60669e-08
-2.62308e-07
-8.69977e-08
-5.29349e-07
-9.95276e-08
-8.03547e-07
-1.13575e-07
-1.08706e-06
-1.28905e-07
-1.38206e-06
-1.45068e-07
-1.69052e-06
-1.61347e-07
-2.0137e-06
-1.76833e-07
-2.35164e-06
-1.90661e-07
-2.70301e-06
-2.02766e-07
-3.06594e-06
-2.14782e-07
-3.44151e-06
-2.30795e-07
-3.84129e-06
-2.56522e-07
-4.29984e-06
-2.93612e-07
-4.88439e-06
-3.30262e-07
-5.67356e-06
-3.36371e-07
-6.68542e-06
-2.37393e-07
-7.57015e-06
-7.46395e-06
1.22951e-07
2.84158e-06
1.75691e-07
4.07624e-06
2.07283e-07
4.55275e-06
2.35702e-07
4.80905e-06
2.59137e-07
4.87027e-06
2.69838e-07
4.76382e-06
2.70228e-07
4.50735e-06
2.6554e-07
4.17287e-06
2.5813e-07
3.80994e-06
2.49825e-07
3.44383e-06
2.41888e-07
3.0888e-06
2.35043e-07
2.7512e-06
2.29505e-07
2.43222e-06
2.25138e-07
2.13025e-06
2.21571e-07
1.84251e-06
2.18304e-07
1.566e-06
2.14809e-07
1.29796e-06
2.10583e-07
1.03601e-06
2.05183e-07
7.78094e-07
1.98235e-07
5.22364e-07
1.89432e-07
2.67079e-07
1.78538e-07
1.05073e-08
1.65371e-07
-2.49141e-07
1.49808e-07
-5.13786e-07
1.31781e-07
-7.8552e-07
1.11311e-07
-1.06659e-06
8.85285e-08
-1.35928e-06
6.37234e-08
-1.66572e-06
3.74403e-08
-1.98742e-06
1.04818e-08
-2.32468e-06
-1.64874e-08
-2.67604e-06
-4.31098e-08
-3.03931e-06
-7.0363e-08
-3.41425e-06
-1.01792e-07
-3.80986e-06
-1.43076e-07
-4.25856e-06
-1.97129e-07
-4.83034e-06
-2.53151e-07
-5.61754e-06
-2.8414e-07
-6.65443e-06
-2.11218e-07
-7.64307e-06
-7.67517e-06
1.81416e-07
2.66016e-06
2.84866e-07
3.97279e-06
3.55172e-07
4.48245e-06
4.13761e-07
4.75046e-06
4.6251e-07
4.82152e-06
4.91967e-07
4.73436e-06
5.02936e-07
4.49638e-06
5.05487e-07
4.17032e-06
5.02673e-07
3.81275e-06
4.97329e-07
3.44917e-06
4.9145e-07
3.09468e-06
4.86203e-07
2.75645e-06
4.82041e-07
2.43638e-06
4.78892e-07
2.1334e-06
4.76339e-07
1.84507e-06
4.73795e-07
1.56854e-06
4.70624e-07
1.30113e-06
4.66221e-07
1.04041e-06
4.60055e-07
7.8426e-07
4.51676e-07
5.30743e-07
4.40714e-07
2.7804e-07
4.26877e-07
2.4345e-08
4.09942e-07
-2.32207e-07
3.89747e-07
-4.93591e-07
3.66177e-07
-7.6195e-07
3.39179e-07
-1.03959e-06
3.0876e-07
-1.32886e-06
2.75046e-07
-1.632e-06
2.38369e-07
-1.95074e-06
1.9927e-07
-2.28558e-06
1.58504e-07
-2.63528e-06
1.16555e-07
-2.99737e-06
7.28368e-08
-3.37054e-06
2.44159e-08
-3.76144e-06
-3.43168e-08
-4.19982e-06
-1.07028e-07
-4.75763e-06
-1.83316e-07
-5.54125e-06
-2.36154e-07
-6.6016e-06
-1.91323e-07
-7.6879e-06
-7.86649e-06
2.38053e-07
2.42211e-06
3.91892e-07
3.81895e-06
4.99969e-07
4.37437e-06
5.88495e-07
4.66194e-06
6.59329e-07
4.75068e-06
7.09062e-07
4.68463e-06
7.32899e-07
4.47254e-06
7.44051e-07
4.15917e-06
7.47007e-07
3.8098e-06
7.45598e-07
3.45058e-06
7.42567e-07
3.09771e-06
7.39555e-07
2.75946e-06
7.37271e-07
2.43867e-06
7.35735e-07
2.13494e-06
7.34526e-07
1.84628e-06
7.32995e-07
1.57007e-06
7.30421e-07
1.30371e-06
7.26103e-07
1.04473e-06
7.19414e-07
7.90949e-07
7.09823e-07
5.40334e-07
6.9689e-07
2.90973e-07
6.8026e-07
4.09753e-08
6.59662e-07
-2.11609e-07
6.34884e-07
-4.68813e-07
6.05746e-07
-7.32811e-07
5.72102e-07
-1.00595e-06
5.33859e-07
-1.29062e-06
4.91013e-07
-1.58916e-06
4.43655e-07
-1.90338e-06
3.9207e-07
-2.234e-06
3.36814e-07
-2.58002e-06
2.78461e-07
-2.93901e-06
2.16895e-07
-3.30897e-06
1.49889e-07
-3.69443e-06
7.21186e-08
-4.12205e-06
-2.10093e-08
-4.6645e-06
-1.19143e-07
-5.44312e-06
-1.92839e-07
-6.5279e-06
-1.73211e-07
-7.70753e-06
-8.0397e-06
2.92453e-07
2.12966e-06
4.95332e-07
3.61607e-06
6.40017e-07
4.22969e-06
7.57645e-07
4.54431e-06
8.50381e-07
4.65795e-06
9.21199e-07
4.61381e-06
9.60614e-07
4.43313e-06
9.81741e-07
4.13804e-06
9.91819e-07
3.79972e-06
9.9562e-07
3.44678e-06
9.96502e-07
3.09683e-06
9.96557e-07
2.75941e-06
9.96784e-07
2.43844e-06
9.97358e-07
2.13437e-06
9.97906e-07
1.84573e-06
9.97755e-07
1.57023e-06
9.96113e-07
1.30535e-06
9.92195e-07
1.04865e-06
9.85283e-07
7.97861e-07
9.74756e-07
5.50862e-07
9.60093e-07
3.05636e-07
9.40868e-07
6.01998e-08
9.16747e-07
-1.87487e-07
8.87447e-07
-4.39513e-07
8.52718e-07
-6.98083e-07
8.12344e-07
-9.65571e-07
7.66119e-07
-1.24439e-06
7.13836e-07
-1.53687e-06
6.55338e-07
-1.84488e-06
5.90693e-07
-2.16935e-06
5.20223e-07
-2.50955e-06
4.44459e-07
-2.86325e-06
3.63706e-07
-3.22822e-06
2.76526e-07
-3.60726e-06
1.78216e-07
-4.02374e-06
6.37705e-08
-4.55005e-06
-5.76829e-08
-5.32166e-06
-1.5304e-07
-6.43254e-06
-1.58813e-07
-7.70176e-06
-8.19852e-06
3.4246e-07
1.7872e-06
5.92185e-07
3.36635e-06
7.72384e-07
4.04949e-06
9.17539e-07
4.39915e-06
1.03452e-06
4.54097e-06
1.12565e-06
4.52269e-06
1.18422e-06
4.37456e-06
1.21797e-06
4.10429e-06
1.23717e-06
3.78051e-06
1.24789e-06
3.43607e-06
1.25412e-06
3.09059e-06
1.25842e-06
2.75512e-06
1.26208e-06
2.43478e-06
1.26549e-06
2.13096e-06
1.26838e-06
1.84284e-06
1.27009e-06
1.56851e-06
1.26981e-06
1.30563e-06
1.26668e-06
1.05178e-06
1.2599e-06
8.04638e-07
1.24877e-06
5.61993e-07
1.23268e-06
3.2173e-07
1.21111e-06
8.17645e-08
1.18366e-06
-1.60038e-07
1.14996e-06
-4.05809e-07
1.10967e-06
-6.57787e-07
1.06246e-06
-9.18361e-07
1.00799e-06
-1.18993e-06
9.45898e-07
-1.47478e-06
8.75787e-07
-1.77477e-06
7.97383e-07
-2.09095e-06
7.10714e-07
-2.42288e-06
6.16343e-07
-2.76888e-06
5.14952e-07
-3.12683e-06
4.05895e-07
-3.4982e-06
2.85344e-07
-3.90319e-06
1.4903e-07
-4.41374e-06
7.81974e-09
-5.18045e-06
-1.1107e-07
-6.31365e-06
-1.41569e-07
-7.67126e-06
-8.34009e-06
3.8307e-07
1.40413e-06
6.76642e-07
3.07278e-06
8.92374e-07
3.83376e-06
1.06538e-06
4.22615e-06
1.2073e-06
4.39904e-06
1.3193e-06
4.41069e-06
1.40007e-06
4.29379e-06
1.4504e-06
4.05395e-06
1.48188e-06
3.74904e-06
1.50204e-06
3.41591e-06
1.51572e-06
3.07691e-06
1.52597e-06
2.74487e-06
1.53444e-06
2.4263e-06
1.54177e-06
2.12362e-06
1.54786e-06
1.83676e-06
1.55213e-06
1.56424e-06
1.55378e-06
1.30397e-06
1.55194e-06
1.05362e-06
1.54574e-06
8.10839e-07
1.5344e-06
5.73331e-07
1.51722e-06
3.38905e-07
1.49362e-06
1.05369e-07
1.46308e-06
-1.29499e-07
1.42512e-06
-3.67852e-07
1.3793e-06
-6.11963e-07
1.32515e-06
-8.64218e-07
1.26218e-06
-1.12696e-06
1.18981e-06
-1.4024e-06
1.10739e-06
-1.69235e-06
1.01436e-06
-1.99792e-06
9.10488e-07
-2.31901e-06
7.96206e-07
-2.6546e-06
6.72469e-07
-3.00309e-06
5.39599e-07
-3.36533e-06
3.94466e-07
-3.75806e-06
2.32599e-07
-4.25187e-06
6.24304e-08
-5.01028e-06
-7.79344e-08
-6.17329e-06
-1.31088e-07
-7.61811e-06
-8.47117e-06
4.04804e-07
9.99322e-07
7.39436e-07
2.73814e-06
9.93822e-07
3.57937e-06
1.19601e-06
4.02396e-06
1.36293e-06
4.23212e-06
1.49879e-06
4.27482e-06
1.60356e-06
4.18902e-06
1.67509e-06
3.98242e-06
1.72325e-06
3.70087e-06
1.75654e-06
3.38263e-06
1.78071e-06
3.05274e-06
1.7994e-06
2.72618e-06
1.81471e-06
2.411e-06
1.82757e-06
2.11076e-06
1.83812e-06
1.8262e-06
1.84595e-06
1.55641e-06
1.85035e-06
1.29958e-06
1.85045e-06
1.05352e-06
1.84538e-06
8.1591e-07
1.8343e-06
5.84403e-07
1.81645e-06
3.56761e-07
1.79114e-06
1.30679e-07
1.75776e-06
-9.6119e-08
1.71569e-06
-3.25786e-07
1.66435e-06
-5.60623e-07
1.60313e-06
-8.02991e-07
1.5313e-06
-1.05513e-06
1.44807e-06
-1.31917e-06
1.35252e-06
-1.5968e-06
1.24382e-06
-1.88922e-06
1.12148e-06
-2.19667e-06
9.85837e-07
-2.51896e-06
8.3798e-07
-2.85523e-06
6.79087e-07
-3.20643e-06
5.07113e-07
-3.58609e-06
3.17848e-07
-4.06261e-06
1.2026e-07
-4.8127e-06
-4.50332e-08
-6.00799e-06
-1.18367e-07
-7.54477e-06
-8.58954e-06
3.88249e-07
6.11074e-07
7.69964e-07
2.35643e-06
1.06808e-06
3.28126e-06
1.30203e-06
3.79001e-06
1.49483e-06
4.03932e-06
1.65704e-06
4.11261e-06
1.78867e-06
4.0574e-06
1.88631e-06
3.88478e-06
1.9567e-06
3.63048e-06
2.00815e-06
3.33118e-06
2.04707e-06
3.01382e-06
2.07776e-06
2.69549e-06
2.10281e-06
2.38595e-06
2.12355e-06
2.09001e-06
2.14044e-06
1.80932e-06
2.1533e-06
1.54355e-06
2.16159e-06
1.29129e-06
2.16454e-06
1.05057e-06
2.16133e-06
8.19122e-07
2.15111e-06
5.94624e-07
2.13304e-06
3.7483e-07
2.10639e-06
1.57329e-07
2.0704e-06
-6.01276e-08
2.02433e-06
-2.7972e-07
1.96744e-06
-5.03727e-07
1.89889e-06
-7.34445e-07
1.81774e-06
-9.73984e-07
1.72292e-06
-1.22436e-06
1.61325e-06
-1.48713e-06
1.48765e-06
-1.76362e-06
1.3454e-06
-2.05442e-06
1.18678e-06
-2.36033e-06
1.01295e-06
-2.68139e-06
8.25808e-07
-3.0193e-06
6.24575e-07
-3.38485e-06
4.05913e-07
-3.84395e-06
1.78044e-07
-4.58483e-06
-2.02673e-08
-5.80968e-06
-1.12658e-07
-7.45238e-06
-8.7022e-06
3.11919e-07
2.99155e-07
7.60466e-07
1.90788e-06
1.10418e-06
2.93755e-06
1.37353e-06
3.52065e-06
1.59517e-06
3.81769e-06
1.78575e-06
3.92203e-06
1.94775e-06
3.8954e-06
2.07675e-06
3.75579e-06
2.17581e-06
3.53141e-06
2.25176e-06
3.25523e-06
2.31106e-06
2.95452e-06
2.35852e-06
2.64802e-06
2.39729e-06
2.34718e-06
2.42918e-06
2.05812e-06
2.45504e-06
1.78346e-06
2.47503e-06
1.52356e-06
2.48886e-06
1.27747e-06
2.49594e-06
1.04348e-06
2.49558e-06
8.19487e-07
2.48695e-06
6.03251e-07
2.46923e-06
3.92554e-07
2.44164e-06
1.84919e-07
2.40321e-06
-2.17061e-08
2.35321e-06
-2.29713e-07
2.29062e-06
-4.41138e-07
2.2144e-06
-6.58228e-07
2.12333e-06
-8.82914e-07
2.01607e-06
-1.1171e-06
1.89116e-06
-1.36221e-06
1.74733e-06
-1.61979e-06
1.58369e-06
-1.89078e-06
1.40049e-06
-2.17713e-06