/*--------------------------------*- C++ -*----------------------------------*\
  =========                 |
  \\      /  F ield         | OpenFOAM: The Open Source CFD Toolbox
   \\    /   O peration     | Website:  https://openfoam.org
    \\  /    A nd           | Version:  13
     \\/     M anipulation  |
\*---------------------------------------------------------------------------*/
FoamFile
{
    format      ascii;
    class       volVectorField;
    location    "8";
    object      U;
}
// * * * * * * * * * * * * * * * * * * * * * * * * * * * * * * * * * * * * * //

dimensions      [0 1 -1 0 0 0 0];

internalField   nonuniform List<vector> 
1600
(
(0.00127607 -0.00109417 0)
(0.00652115 -0.00170081 0)
(0.0114693 -0.00138935 0)
(0.0144507 -0.00020027 0)
(0.0146977 0.000375285 0)
(0.0141014 0.000155839 0)
(0.0133131 -0.000676399 0)
(0.0131698 -0.00127272 0)
(0.0128131 -0.00125981 0)
(0.0115562 -0.000984196 0)
(0.00868193 -0.00101932 0)
(0.00153493 -0.000422155 0)
(-0.00947569 0.00184158 0)
(-0.021794 0.00826626 0)
(-0.0479146 0.0141718 0)
(-0.0734461 0.0140593 0)
(-0.0959876 0.0128513 0)
(-0.115625 0.0111187 0)
(-0.131742 0.00933923 0)
(-0.145022 0.00759157 0)
(-0.155137 0.00590812 0)
(-0.162595 0.00428748 0)
(-0.166793 0.00277756 0)
(-0.16847 0.001315 0)
(-0.16749 -0.00105238 0)
(-0.162714 -0.00266458 0)
(-0.155073 -0.00497978 0)
(-0.143264 -0.00682341 0)
(-0.128048 -0.00912084 0)
(-0.109158 -0.0113818 0)
(-0.0868851 -0.0136398 0)
(-0.0618579 -0.015104 0)
(-0.0353643 -0.0153907 0)
(-0.00827436 -0.013909 0)
(0.0135929 -0.0117256 0)
(0.0298574 -0.00445248 0)
(0.0314689 0.00334506 0)
(0.0250267 0.00541283 0)
(0.0120579 0.00454878 0)
(0.00251225 0.00310899 0)
(0.00230237 -0.00644481 0)
(0.0111368 -0.00954282 0)
(0.0167834 -0.00692719 0)
(0.0199616 -0.00262831 0)
(0.0201558 0.000588289 0)
(0.0179745 0.00171957 0)
(0.0142043 0.00149162 0)
(0.00900751 0.00167163 0)
(0.000902559 0.00319531 0)
(-0.0115952 0.00633483 0)
(-0.0296086 0.0120603 0)
(-0.0569878 0.0211266 0)
(-0.0886113 0.0299007 0)
(-0.116032 0.0357705 0)
(-0.138563 0.0355598 0)
(-0.157916 0.0328497 0)
(-0.174011 0.0288367 0)
(-0.18742 0.0243996 0)
(-0.198088 0.0199403 0)
(-0.206359 0.0155822 0)
(-0.212171 0.0113723 0)
(-0.215738 0.00723324 0)
(-0.21699 0.00312245 0)
(-0.216034 -0.00113815 0)
(-0.212578 -0.00576108 0)
(-0.206685 -0.0105725 0)
(-0.198019 -0.0157082 0)
(-0.186376 -0.0211342 0)
(-0.171426 -0.0268377 0)
(-0.152483 -0.0323308 0)
(-0.13043 -0.0375132 0)
(-0.105504 -0.0415053 0)
(-0.0781335 -0.0425344 0)
(-0.0497206 -0.0394563 0)
(-0.0223212 -0.0309716 0)
(0.00102497 -0.0147381 0)
(0.0169812 0.00355988 0)
(0.0171708 0.0116002 0)
(0.0102641 0.0141954 0)
(0.0016025 0.010928 0)
(0.00366696 -0.014881 0)
(0.0121114 -0.017027 0)
(0.0153524 -0.0111505 0)
(0.0160962 -0.00321398 0)
(0.0138817 0.00254647 0)
(0.00880401 0.00561646 0)
(-9.03641e-05 0.00786394 0)
(-0.0138188 0.0124648 0)
(-0.0341418 0.0212143 0)
(-0.0615395 0.033006 0)
(-0.0921612 0.044416 0)
(-0.120226 0.0513958 0)
(-0.144173 0.0544598 0)
(-0.162992 0.0541507 0)
(-0.178498 0.0508184 0)
(-0.190966 0.0458985 0)
(-0.20114 0.0399269 0)
(-0.209292 0.033666 0)
(-0.215741 0.0273578 0)
(-0.220565 0.0211982 0)
(-0.224007 0.0148691 0)
(-0.225837 0.0089063 0)
(-0.226102 0.00284846 0)
(-0.224675 -0.0032535 0)
(-0.221595 -0.009668 0)
(-0.216783 -0.0165089 0)
(-0.210126 -0.0240874 0)
(-0.201352 -0.0323853 0)
(-0.190357 -0.0415623 0)
(-0.176728 -0.0509153 0)
(-0.159981 -0.0598892 0)
(-0.139724 -0.0670225 0)
(-0.116058 -0.0701011 0)
(-0.0900452 -0.067888 0)
(-0.0620435 -0.0571419 0)
(-0.0335984 -0.036276 0)
(-0.00650346 -0.00622282 0)
(0.00165082 0.0118061 0)
(0.00189441 0.0186629 0)
(-0.000241674 0.014633 0)
(0.00423799 -0.0237709 0)
(0.00871637 -0.0215642 0)
(0.00886568 -0.0114167 0)
(0.00569397 -0.000354888 0)
(-0.000529948 0.00825943 0)
(-0.0111853 0.0156492 0)
(-0.0277314 0.024287 0)
(-0.0504954 0.0359146 0)
(-0.0780845 0.0495837 0)
(-0.107513 0.0619228 0)
(-0.133869 0.0699199 0)
(-0.154249 0.0727092 0)
(-0.170298 0.0718901 0)
(-0.182434 0.0680434 0)
(-0.192332 0.0623149 0)
(-0.199996 0.0554783 0)
(-0.206247 0.0480175 0)
(-0.211329 0.0401258 0)
(-0.21565 0.03216 0)
(-0.218878 0.0243489 0)
(-0.220985 0.016958 0)
(-0.221893 0.00947985 0)
(-0.221689 0.00202426 0)
(-0.220364 -0.00561615 0)
(-0.217917 -0.013497 0)
(-0.214221 -0.0218515 0)
(-0.209217 -0.0308271 0)
(-0.202768 -0.0405558 0)
(-0.194718 -0.051074 0)
(-0.185027 -0.0627349 0)
(-0.173538 -0.0749067 0)
(-0.15995 -0.0866914 0)
(-0.143563 -0.0954801 0)
(-0.122225 -0.0971087 0)
(-0.0959874 -0.0880228 0)
(-0.0655167 -0.0656396 0)
(-0.0294535 -0.0272678 0)
(-0.00740267 0.00451795 0)
(-0.0023591 0.0165053 0)
(-0.000301665 0.0141323 0)
(0.00256455 -0.0282719 0)
(0.00298367 -0.0214277 0)
(-0.0014042 -0.00697332 0)
(-0.00879919 0.00707717 0)
(-0.0201167 0.0199712 0)
(-0.0365535 0.0328839 0)
(-0.0587055 0.0473672 0)
(-0.0850801 0.0630252 0)
(-0.112292 0.0768942 0)
(-0.136431 0.0859059 0)
(-0.154603 0.0888984 0)
(-0.168312 0.0877489 0)
(-0.17882 0.0836548 0)
(-0.186648 0.077335 0)
(-0.192893 0.0697557 0)
(-0.197855 0.0611756 0)
(-0.202067 0.052286 0)
(-0.205201 0.0434732 0)
(-0.207203 0.0348406 0)
(-0.208236 0.026309 0)
(-0.208631 0.0179469 0)
(-0.208365 0.00962748 0)
(-0.207547 0.00131708 0)
(-0.206134 -0.00718876 0)
(-0.203997 -0.0160077 0)
(-0.201166 -0.0253804 0)
(-0.197611 -0.0354828 0)
(-0.193294 -0.0464824 0)
(-0.188122 -0.0584344 0)
(-0.181956 -0.0712362 0)
(-0.174548 -0.0845849 0)
(-0.165486 -0.0977429 0)
(-0.154564 -0.110214 0)
(-0.14063 -0.118602 0)
(-0.120924 -0.117348 0)
(-0.0929869 -0.100164 0)
(-0.0571194 -0.0641544 0)
(-0.017117 -0.0134998 0)
(-0.00223013 0.011021 0)
(0.000714537 0.0131394 0)
(-0.000441527 -0.0289446 0)
(-0.00476291 -0.0161883 0)
(-0.0132368 0.00150677 0)
(-0.0248501 0.0192889 0)
(-0.0406943 0.036787 0)
(-0.0612091 0.0546066 0)
(-0.0854665 0.0725436 0)
(-0.110576 0.0883825 0)
(-0.132956 0.0991796 0)
(-0.149749 0.103148 0)
(-0.161813 0.102004 0)
(-0.170999 0.097746 0)
(-0.177651 0.0910968 0)
(-0.18255 0.082954 0)
(-0.186199 0.0738877 0)
(-0.188561 0.0644398 0)
(-0.190042 0.0548387 0)
(-0.190747 0.0452661 0)
(-0.191045 0.0358699 0)
(-0.191054 0.0267214 0)
(-0.190611 0.0178183 0)
(-0.189806 0.0090294 0)
(-0.188617 0.000267049 0)
(-0.187024 -0.008644 0)
(-0.185011 -0.017868 0)
(-0.182641 -0.0276222 0)
(-0.17994 -0.0381091 0)
(-0.176945 -0.049545 0)
(-0.173662 -0.062104 0)
(-0.170059 -0.0758547 0)
(-0.165993 -0.0906039 0)
(-0.161114 -0.105747 0)
(-0.154729 -0.120004 0)
(-0.145685 -0.13154 0)
(-0.132521 -0.137757 0)
(-0.112199 -0.131346 0)
(-0.081908 -0.104731 0)
(-0.0383151 -0.0516277 0)
(-0.00490558 -0.00181294 0)
(0.00161847 0.012436 0)
(-0.00372793 -0.023483 0)
(-0.0124895 -0.00691674 0)
(-0.0245784 0.0139488 0)
(-0.0398592 0.0353971 0)
(-0.0589541 0.0568992 0)
(-0.0810226 0.0776559 0)
(-0.104121 0.0960188 0)
(-0.125231 0.109323 0)
(-0.14127 0.115355 0)
(-0.152244 0.114949 0)
(-0.16024 0.110842 0)
(-0.165864 0.104114 0)
(-0.169563 0.0956136 0)
(-0.171935 0.0860918 0)
(-0.173244 0.0759745 0)
(-0.173806 0.065667 0)
(-0.173918 0.0554106 0)
(-0.173693 0.0453863 0)
(-0.173258 0.0356608 0)
(-0.172578 0.0262132 0)
(-0.171647 0.0169955 0)
(-0.170481 0.00790114 0)
(-0.169062 -0.00117137 0)
(-0.167385 -0.0103585 0)
(-0.16546 -0.0198306 0)
(-0.163339 -0.0297653 0)
(-0.16108 -0.0403516 0)
(-0.158758 -0.0517893 0)
(-0.156444 -0.0642753 0)
(-0.154186 -0.0779691 0)
(-0.151965 -0.0929145 0)
(-0.149596 -0.108878 0)
(-0.146532 -0.125111 0)
(-0.141648 -0.139914 0)
(-0.133206 -0.150484 0)
(-0.119187 -0.152777 0)
(-0.0971296 -0.138994 0)
(-0.0632532 -0.0984819 0)
(-0.0145875 -0.0237404 0)
(0.00269122 0.0113069 0)
(-0.00664469 -0.0139595 0)
(-0.0188714 0.00644265 0)
(-0.0338015 0.0297097 0)
(-0.051952 0.0541725 0)
(-0.072388 0.0780137 0)
(-0.0938018 0.0993232 0)
(-0.114005 0.115829 0)
(-0.130021 0.125007 0)
(-0.140617 0.12633 0)
(-0.147854 0.122822 0)
(-0.15282 0.116312 0)
(-0.155834 0.107657 0)
(-0.15746 0.0977442 0)
(-0.15813 0.08716 0)
(-0.158138 0.0763123 0)
(-0.157784 0.065534 0)
(-0.157218 0.0549904 0)
(-0.15651 0.0447768 0)
(-0.155686 0.0348882 0)
(-0.154723 0.0252758 0)
(-0.153618 0.0158696 0)
(-0.152344 0.00657339 0)
(-0.15089 -0.00270953 0)
(-0.149241 -0.0121044 0)
(-0.147415 -0.021754 0)
(-0.145454 -0.0318122 0)
(-0.143428 -0.0424476 0)
(-0.14143 -0.053844 0)
(-0.139569 -0.0661951 0)
(-0.137945 -0.0796824 0)
(-0.136608 -0.0944231 0)
(-0.13548 -0.110374 0)
(-0.134202 -0.12716 0)
(-0.131885 -0.143814 0)
(-0.126991 -0.158253 0)
(-0.117555 -0.166608 0)
(-0.101625 -0.162752 0)
(-0.0761866 -0.136588 0)
(-0.0332794 -0.0673863 0)
(0.000599509 0.00044567 0)
(-0.008399 -0.000617895 0)
(-0.0235085 0.0229198 0)
(-0.0403754 0.0476992 0)
(-0.0597978 0.0737253 0)
(-0.080079 0.0981586 0)
(-0.0996798 0.118348 0)
(-0.116286 0.131601 0)
(-0.127279 0.135861 0)
(-0.1344 0.133717 0)
(-0.13907 0.127771 0)
(-0.141863 0.119314 0)
(-0.14316 0.109216 0)
(-0.143511 0.0982959 0)
(-0.143244 0.0870424 0)
(-0.142638 0.0758142 0)
(-0.141885 0.064834 0)
(-0.14106 0.0541869 0)
(-0.140198 0.0438987 0)
(-0.13929 0.0339279 0)
(-0.138312 0.0242144 0)
(-0.137235 0.0146828 0)
(-0.13602 0.00523539 0)
(-0.134644 -0.00421833 0)
(-0.133089 -0.0137834 0)
(-0.131364 -0.0235777 0)
(-0.129502 -0.0337232 0)
(-0.127568 -0.044359 0)
(-0.12566 -0.0556441 0)
(-0.123902 -0.0677647 0)
(-0.122434 -0.0809307 0)
(-0.121366 -0.0953465 0)
(-0.120717 -0.111132 0)
(-0.120289 -0.128181 0)
(-0.119452 -0.145932 0)
(-0.116867 -0.16294 0)
(-0.110667 -0.176068 0)
(-0.0992799 -0.179419 0)
(-0.080313 -0.164971 0)
(-0.0503209 -0.114708 0)
(-0.00674711 -0.014864 0)
(-0.00942859 0.0150522 0)
(-0.0261784 0.0410241 0)
(-0.0438484 0.0665119 0)
(-0.0634801 0.0929215 0)
(-0.0827104 0.116806 0)
(-0.100077 0.134648 0)
(-0.112064 0.142981 0)
(-0.119968 0.143476 0)
(-0.124775 0.138611 0)
(-0.127688 0.130683 0)
(-0.129065 0.12071 0)
(-0.129364 0.109583 0)
(-0.129054 0.0980112 0)
(-0.128385 0.0863952 0)
(-0.127585 0.0750087 0)
(-0.126756 0.0639739 0)
(-0.125939 0.0533162 0)
(-0.125139 0.0430146 0)
(-0.124329 0.0330075 0)
(-0.123472 0.0232229 0)
(-0.122527 0.0135803 0)
(-0.121453 0.00399116 0)
(-0.120217 -0.00563304 0)
(-0.118803 -0.0153774 0)
(-0.117207 -0.0253373 0)
(-0.115452 -0.0356076 0)
(-0.113586 -0.0462935 0)
(-0.111691 -0.0575181 0)
(-0.109884 -0.0694357 0)
(-0.108308 -0.0822447 0)
(-0.107111 -0.096189 0)
(-0.106389 -0.111522 0)
(-0.106093 -0.1284 0)
(-0.105859 -0.146691 0)
(-0.104636 -0.165578 0)
(-0.100507 -0.182561 0)
(-0.0921351 -0.191685 0)
(-0.0774586 -0.186324 0)
(-0.0545574 -0.150199 0)
(-0.0159823 -0.0423051 0)
(-0.00988243 0.0318909 0)
(-0.0271196 0.0598465 0)
(-0.0445913 0.0852689 0)
(-0.0635526 0.111199 0)
(-0.0813219 0.133463 0)
(-0.0953047 0.147295 0)
(-0.103965 0.151468 0)
(-0.110021 0.148916 0)
(-0.113192 0.141832 0)
(-0.115009 0.132303 0)
(-0.115552 0.121184 0)
(-0.115376 0.109353 0)
(-0.114818 0.0973924 0)
(-0.114084 0.0856106 0)
(-0.11333 0.0741909 0)
(-0.112611 0.0631788 0)
(-0.111941 0.0525557 0)
(-0.111302 0.0422675 0)
(-0.110658 0.0322383 0)
(-0.109967 0.0223885 0)
(-0.109184 0.0126378 0)
(-0.108272 0.00290591 0)
(-0.1072 -0.00688917 0)
(-0.10595 -0.016819 0)
(-0.104511 -0.0269603 0)
(-0.102895 -0.037388 0)
(-0.10113 -0.0481796 0)
(-0.0992761 -0.0594258 0)
(-0.0974233 -0.0712456 0)
(-0.0956996 -0.0838098 0)
(-0.094256 -0.0973641 0)
(-0.0932295 -0.112231 0)
(-0.0926748 -0.128749 0)
(-0.0924428 -0.147099 0)
(-0.0918479 -0.167045 0)
(-0.0891213 -0.187144 0)
(-0.0826676 -0.201233 0)
(-0.0709465 -0.203175 0)
(-0.0509621 -0.179773 0)
(-0.0192244 -0.0924244 0)
(-0.00964439 0.0486662 0)
(-0.0264667 0.0783395 0)
(-0.0430608 0.103123 0)
(-0.0606844 0.127823 0)
(-0.076645 0.147806 0)
(-0.0870893 0.157083 0)
(-0.0941586 0.158084 0)
(-0.0985351 0.152864 0)
(-0.100729 0.143993 0)
(-0.101884 0.133179 0)
(-0.102019 0.121214 0)
(-0.101701 0.108918 0)
(-0.101147 0.0967404 0)
(-0.100527 0.0849058 0)
(-0.0999397 0.0735149 0)
(-0.0994082 0.0625566 0)
(-0.0989287 0.0519777 0)
(-0.0984707 0.0417016 0)
(-0.0979951 0.0316441 0)
(-0.0974623 0.0217234 0)
(-0.0968336 0.0118625 0)
(-0.0960761 0.00198827 0)
(-0.0951664 -0.00797367 0)
(-0.0940852 -0.0180873 0)
(-0.0928202 -0.0284161 0)
(-0.0913726 -0.0390212 0)
(-0.0897542 -0.0499601 0)
(-0.0879977 -0.0612961 0)
(-0.0861635 -0.073113 0)
(-0.0843482 -0.0855437 0)
(-0.0826855 -0.0988101 0)
(-0.0813269 -0.11326 0)
(-0.0803883 -0.129353 0)
(-0.0798555 -0.147524 0)
(-0.0793794 -0.167929 0)
(-0.0776098 -0.18996 0)
(-0.0721459 -0.209401 0)
(-0.0630212 -0.216372 0)
(-0.0457819 -0.202539 0)
(-0.0162359 -0.126481 0)
(-0.0089089 0.0647646 0)
(-0.0246058 0.0959065 0)
(-0.03986 0.119707 0)
(-0.0560308 0.142887 0)
(-0.0693226 0.15935 0)
(-0.0773045 0.164969 0)
(-0.0832134 0.163221 0)
(-0.0864018 0.155831 0)
(-0.0880478 0.145513 0)
(-0.0888342 0.133684 0)
(-0.0888403 0.121105 0)
(-0.0885678 0.108504 0)
(-0.088147 0.0962136 0)
(-0.087718 0.0843813 0)
(-0.0873336 0.0730391 0)
(-0.0869991 0.0621334 0)
(-0.0866986 0.0515855 0)
(-0.0863993 0.0413054 0)
(-0.0860663 0.0312061 0)
(-0.085667 0.0212076 0)
(-0.085171 0.0112372 0)
(-0.0845532 0.00122712 0)
(-0.0837969 -0.00889044 0)
(-0.0828847 -0.0191759 0)
(-0.081804 -0.0296856 0)
(-0.0805485 -0.0404731 0)
(-0.0791166 -0.0515842 0)
(-0.0775195 -0.0630635 0)
(-0.0757878 -0.0749665 0)
(-0.0739833 -0.0873874 0)
(-0.0722087 -0.100508 0)
(-0.0706053 -0.114661 0)
(-0.0693202 -0.13037 0)
(-0.0684256 -0.148279 0)
(-0.0677715 -0.168859 0)
(-0.0664575 -0.192048 0)
(-0.0619792 -0.215962 0)
(-0.0545219 -0.227947 0)
(-0.0400535 -0.223148 0)
(-0.0143927 -0.160054 0)
(-0.00777927 0.0794091 0)
(-0.0219633 0.111993 0)
(-0.0355518 0.134611 0)
(-0.0499682 0.155878 0)
(-0.0604737 0.168577 0)
(-0.0668532 0.171473 0)
(-0.0718241 0.167307 0)
(-0.0741854 0.158159 0)
(-0.0755397 0.14667 0)
(-0.0761465 0.134047 0)
(-0.0761829 0.121026 0)
(-0.0760409 0.108224 0)
(-0.0758022 0.0958746 0)
(-0.0755742 0.0840617 0)
(-0.07538 0.0727613 0)
(-0.0752156 0.0618895 0)
(-0.0750606 0.0513502 0)
(-0.0748863 0.0410473 0)
(-0.0746655 0.0308947 0)
(-0.0743743 0.0208156 0)
(-0.0739918 0.0107415 0)
(-0.0735005 0.000608726 0)
(-0.0728889 -0.00964667 0)
(-0.0721436 -0.0200838 0)
(-0.0712521 -0.0307574 0)
(-0.0702036 -0.0417176 0)
(-0.0689871 -0.0530055 0)
(-0.0675973 -0.0646547 0)
(-0.0660407 -0.0767 0)
(-0.0643477 -0.0892021 0)
(-0.0625872 -0.102297 0)
(-0.0608765 -0.116278 0)
(-0.0593689 -0.131677 0)
(-0.0581915 -0.149277 0)
(-0.0573123 -0.169855 0)
(-0.0562287 -0.193821 0)
(-0.0529804 -0.220175 0)
(-0.0459511 -0.238218 0)
(-0.0348616 -0.238838 0)
(-0.011834 -0.185467 0)
(-0.0065405 0.0923404 0)
(-0.0187888 0.126223 0)
(-0.0305034 0.147521 0)
(-0.0429033 0.166672 0)
(-0.0509371 0.176102 0)
(-0.0565183 0.17686 0)
(-0.0603759 0.170611 0)
(-0.0622299 0.160064 0)
(-0.0634099 0.147636 0)
(-0.0639501 0.1344 0)
(-0.0640858 0.121056 0)
(-0.0640968 0.108112 0)
(-0.0640379 0.0957271 0)
(-0.0639856 0.0839281 0)
(-0.0639466 0.0726498 0)
(-0.0639133 0.0617876 0)
(-0.063867 0.0512352 0)
(-0.0637863 0.040895 0)
(-0.0636527 0.0306832 0)
(-0.063451 0.0205267 0)
(-0.0631685 0.0103604 0)
(-0.0627945 0.000122641 0)
(-0.062322 -0.0102483 0)
(-0.0617414 -0.0208124 0)
(-0.0610416 -0.0316257 0)
(-0.0602094 -0.0427398 0)
(-0.0592284 -0.0541959 0)
(-0.0580814 -0.066023 0)
(-0.056757 -0.0782429 0)
(-0.0552605 -0.090889 0)
(-0.0536308 -0.104054 0)
(-0.0519571 -0.117976 0)
(-0.0503826 -0.133159 0)
(-0.0490641 -0.150457 0)
(-0.0480471 -0.170926 0)
(-0.0470566 -0.195349 0)
(-0.0446544 -0.22352 0)
(-0.0384119 -0.247505 0)
(-0.0304152 -0.253265 0)
(-0.010367 -0.209282 0)
(-0.00502045 0.102888 0)
(-0.0152806 0.138306 0)
(-0.025115 0.158478 0)
(-0.0353427 0.175361 0)
(-0.0414327 0.182249 0)
(-0.0462021 0.181198 0)
(-0.0491531 0.173311 0)
(-0.0506841 0.161671 0)
(-0.0517411 0.148504 0)
(-0.0522721 0.134798 0)
(-0.0525199 0.121214 0)
(-0.0526704 0.108162 0)
(-0.0527618 0.0957437 0)
(-0.0528455 0.0839426 0)
(-0.0529206 0.0726637 0)
(-0.0529803 0.0617893 0)
(-0.053011 0.0512079 0)
(-0.0529996 0.0408227 0)
(-0.0529355 0.0305525 0)
(-0.0528113 0.0203274 0)
(-0.0526208 0.0100843 0)
(-0.052359 -0.000237458 0)
(-0.0520224 -0.0106991 0)
(-0.051605 -0.0213623 0)
(-0.0510976 -0.0322871 0)
(-0.0504872 -0.0435289 0)
(-0.0497544 -0.0551331 0)
(-0.0488753 -0.0671298 0)
(-0.0478254 -0.0795337 0)
(-0.0465911 -0.0923578 0)
(-0.0451863 -0.105655 0)
(-0.043674 -0.119606 0)
(-0.0421827 -0.134659 0)
(-0.0408902 -0.151688 0)
(-0.0399129 -0.171948 0)
(-0.039069 -0.196551 0)
(-0.0373555 -0.225701 0)
(-0.0326149 -0.254446 0)
(-0.025627 -0.26498 0)
(-0.00873475 -0.227988 0)
(-0.00366897 0.111365 0)
(-0.0116497 0.148255 0)
(-0.0196257 0.167462 0)
(-0.0276606 0.18216 0)
(-0.0321241 0.187133 0)
(-0.0360844 0.184645 0)
(-0.0382983 0.175517 0)
(-0.0395888 0.16305 0)
(-0.0405398 0.149315 0)
(-0.0410801 0.135254 0)
(-0.0414216 0.121485 0)
(-0.0416804 0.108342 0)
(-0.0418826 0.0958845 0)
(-0.0420602 0.0840634 0)
(-0.0422112 0.0727644 0)
(-0.0423317 0.0618622 0)
(-0.0424149 0.0512434 0)
(-0.0424551 0.0408125 0)
(-0.0424491 0.0304906 0)
(-0.0423953 0.0202099 0)
(-0.0422927 0.00990824 0)
(-0.0421408 -0.000474781 0)
(-0.0419387 -0.011001 0)
(-0.0416836 -0.0217345 0)
(-0.041369 -0.0327399 0)
(-0.0409831 -0.0440786 0)
(-0.0405068 -0.055803 0)
(-0.0399128 -0.0679483 0)
(-0.0391694 -0.0805279 0)
(-0.0382489 -0.0935403 0)
(-0.0371453 -0.107004 0)
(-0.035897 -0.121039 0)
(-0.0346119 -0.136028 0)
(-0.0334696 -0.152819 0)
(-0.0326357 -0.172818 0)
(-0.0320119 -0.197489 0)
(-0.0308783 -0.227499 0)
(-0.0273896 -0.260018 0)
(-0.0223848 -0.275443 0)
(-0.00762157 -0.245424 0)
(-0.00197194 0.117088 0)
(-0.00795637 0.155898 0)
(-0.0140516 0.174388 0)
(-0.0200258 0.187251 0)
(-0.0231467 0.190883 0)
(-0.0262585 0.187307 0)
(-0.0278531 0.177303 0)
(-0.0289243 0.164234 0)
(-0.0297674 0.150078 0)
(-0.0303096 0.135754 0)
(-0.0307129 0.121839 0)
(-0.0310434 0.108613 0)
(-0.0313158 0.0961084 0)
(-0.0315496 0.084252 0)
(-0.0317442 0.0729192 0)
(-0.0319001 0.0619808 0)
(-0.0320171 0.051323 0)
(-0.0320966 0.0408519 0)
(-0.0321409 0.0304898 0)
(-0.0321534 0.0201699 0)
(-0.0321369 0.00983014 0)
(-0.0320942 -0.000590348 0)
(-0.0320267 -0.0111545 0)
(-0.0319342 -0.0219291 0)
(-0.0318127 -0.0329834 0)
(-0.0316529 -0.0443854 0)
(-0.0314377 -0.0561959 0)
(-0.0311404 -0.0684587 0)
(-0.030726 -0.0811907 0)
(-0.0301584 -0.0943821 0)
(-0.0294168 -0.108023 0)
(-0.0285201 -0.122179 0)
(-0.0275565 -0.137153 0)
(-0.0266967 -0.153731 0)
(-0.0261294 -0.173392 0)
(-0.0258313 -0.197977 0)
(-0.0253398 -0.228721 0)
(-0.0230757 -0.263542 0)
(-0.0192309 -0.283736 0)
(-0.00646856 -0.259583 0)
(-0.000787902 0.120869 0)
(-0.0043271 0.161367 0)
(-0.00852524 0.179326 0)
(-0.0125446 0.190783 0)
(-0.0145434 0.193612 0)
(-0.0167316 0.189234 0)
(-0.0177922 0.178682 0)
(-0.0186386 0.165225 0)
(-0.0193606 0.15078 0)
(-0.0198828 0.136269 0)
(-0.0203122 0.122241 0)
(-0.020678 0.108938 0)
(-0.0209845 0.0963779 0)
(-0.0212428 0.084476 0)
(-0.0214551 0.0731019 0)
(-0.0216267 0.0621255 0)
(-0.0217636 0.0514334 0)
(-0.0218728 0.0409324 0)
(-0.0219617 0.0305453 0)
(-0.0220375 0.0202051 0)
(-0.0221061 0.00984935 0)
(-0.0221727 -0.00058399 0)
(-0.0222407 -0.0111593 0)
(-0.0223118 -0.0219458 0)
(-0.0223847 -0.0330168 0)
(-0.0224528 -0.0444471 0)
(-0.0225021 -0.0563062 0)
(-0.022509 -0.068648 0)
(-0.0224391 -0.081497 0)
(-0.0222529 -0.0948406 0)
(-0.0219192 -0.108647 0)
(-0.02144 -0.122932 0)
(-0.0208834 -0.13792 0)
(-0.0204042 -0.154316 0)
(-0.0202029 -0.173618 0)
(-0.0203348 -0.197987 0)
(-0.0205208 -0.229223 0)
(-0.0193603 -0.266196 0)
(-0.0169835 -0.290942 0)
(-0.00562655 -0.272806 0)
(0.00107638 0.121748 0)
(-0.000706022 0.164621 0)
(-0.00303465 0.182352 0)
(-0.00527568 0.192914 0)
(-0.00623383 0.195286 0)
(-0.00749542 0.190477 0)
(-0.00806077 0.179682 0)
(-0.00866166 0.16602 0)
(-0.00924239 0.151403 0)
(-0.00971645 0.13677 0)
(-0.0101377 0.122655 0)
(-0.0105069 0.109281 0)
(-0.0108178 0.0966626 0)
(-0.0110755 0.0847094 0)
(-0.011285 0.073292 0)
(-0.0114565 0.062281 0)
(-0.0116015 0.0515636 0)
(-0.0117323 0.0410468 0)
(-0.0118606 0.0306528 0)
(-0.0119967 0.0203136 0)
(-0.0121493 0.00996563 0)
(-0.0123254 -0.000454854 0)
(-0.01253 -0.0110139 0)
(-0.0127667 -0.021783 0)
(-0.0130358 -0.0328391 0)
(-0.0133337 -0.0442622 0)
(-0.0136506 -0.0561301 0)
(-0.0139675 -0.0685077 0)
(-0.0142535 -0.0814295 0)
(-0.0144702 -0.0948858 0)
(-0.0145811 -0.108829 0)
(-0.0145745 -0.123234 0)
(-0.0144991 -0.138245 0)
(-0.0144892 -0.154473 0)
(-0.0147468 -0.173393 0)
(-0.0154002 -0.197435 0)
(-0.0162826 -0.228913 0)
(-0.0161107 -0.267422 0)
(-0.0149171 -0.296461 0)
(-0.00477956 -0.283789 0)
(0.00226558 0.120429 0)
(0.00276788 0.16572 0)
(0.00232701 0.183589 0)
(0.00175157 0.19375 0)
(0.0018446 0.195992 0)
(0.0015148 0.191024 0)
(0.00141664 0.180243 0)
(0.00108139 0.166577 0)
(0.000667046 0.151913 0)
(0.000270515 0.137226 0)
(-0.000112849 0.123052 0)
(-0.000457339 0.109615 0)
(-0.000747107 0.0969368 0)
(-0.000983385 0.0849315 0)
(-0.00117375 0.0734733 0)
(-0.00133226 0.0624349 0)
(-0.00147561 0.0517046 0)
(-0.00162062 0.0411886 0)
(-0.00178279 0.0308081 0)
(-0.0019755 0.0204932 0)
(-0.00220993 0.0101783 0)
(-0.00249492 -0.000202106 0)
(-0.00283726 -0.010716 0)
(-0.00324169 -0.021437 0)
(-0.00370995 -0.0324456 0)
(-0.00424103 -0.0438264 0)
(-0.00482913 -0.0556642 0)
(-0.00545966 -0.0680327 0)
(-0.00610894 -0.0809767 0)
(-0.00674523 -0.0944941 0)
(-0.00732888 -0.108531 0)
(-0.0078379 -0.123025 0)
(-0.00830295 -0.138052 0)
(-0.00883544 -0.154124 0)
(-0.00963073 -0.172662 0)
(-0.0108797 -0.196288 0)
(-0.0125156 -0.227876 0)
(-0.0132632 -0.267808 0)
(-0.0133903 -0.301076 0)
(-0.0041261 -0.294096 0)
(0.00354858 0.11701 0)
(0.00621869 0.164744 0)
(0.00756403 0.183206 0)
(0.00855097 0.193299 0)
(0.00974153 0.195578 0)
(0.0102974 0.190972 0)
(0.0106918 0.180421 0)
(0.0106668 0.166894 0)
(0.0104465 0.152288 0)
(0.0101564 0.137605 0)
(0.00983972 0.123402 0)
(0.00954353 0.109916 0)
(0.00929398 0.0971819 0)
(0.00909481 0.0851263 0)
(0.008937 0.073632 0)
(0.00880271 0.062576 0)
(0.00867076 0.0518473 0)
(0.00851998 0.0413511 0)
(0.008331 0.0310062 0)
(0.00808727 0.0207404 0)
(0.00777514 0.0104855 0)
(0.00738375 0.000173585 0)
(0.00690461 -0.0102652 0)
(0.00633195 -0.0209068 0)
(0.00566202 -0.0318338 0)
(0.00489317 -0.0431348 0)
(0.00402903 -0.0549 0)
(0.00307892 -0.0672118 0)
(0.00205735 -0.0801267 0)
(0.000989209 -0.0936494 0)
(-8.92764e-05 -0.107721 0)
(-0.00115181 -0.122259 0)
(-0.00221143 -0.137278 0)
(-0.00335311 -0.153189 0)
(-0.0047568 -0.171335 0)
(-0.00665381 -0.19447 0)
(-0.00909075 -0.226005 0)
(-0.0106336 -0.267009 0)
(-0.0120135 -0.304377 0)
(-0.00345518 -0.302805 0)
(0.00495529 0.110949 0)
(0.00967629 0.161677 0)
(0.0127068 0.18121 0)
(0.0151463 0.19158 0)
(0.0174467 0.194167 0)
(0.0188807 0.190209 0)
(0.0198268 0.180189 0)
(0.0201489 0.16694 0)
(0.0201547 0.1525 0)
(0.0200056 0.137886 0)
(0.0197844 0.123684 0)
(0.0195589 0.110161 0)
(0.019368 0.0973779 0)
(0.0192212 0.0852785 0)
(0.0191091 0.0737564 0)
(0.0190106 0.0626944 0)
(0.0189007 0.0519829 0)
(0.0187539 0.0415259 0)
(0.0185469 0.0312397 0)
(0.01826 0.021049 0)
(0.0178768 0.0108826 0)
(0.017384 0.000669788 0)
(0.0167712 -0.00966226 0)
(0.0160314 -0.0201916 0)
(0.0151586 -0.031003 0)
(0.0141496 -0.0421874 0)
(0.0130047 -0.0538375 0)
(0.0117254 -0.0660411 0)
(0.0103199 -0.0788654 0)
(0.0088085 -0.0923272 0)
(0.00721464 -0.106371 0)
(0.00556402 -0.120897 0)
(0.00386137 -0.135871 0)
(0.00204742 -0.151605 0)
(-3.28145e-05 -0.169349 0)
(-0.00264555 -0.191945 0)
(-0.00596778 -0.223373 0)
(-0.0082123 -0.265344 0)
(-0.0109521 -0.306924 0)
(-0.00287772 -0.311 0)
(0.00633113 0.10268 0)
(0.01308 0.156602 0)
(0.0177516 0.177683 0)
(0.0215629 0.188655 0)
(0.0250405 0.191705 0)
(0.0271884 0.188677 0)
(0.0288134 0.179558 0)
(0.0295545 0.16669 0)
(0.0298328 0.152512 0)
(0.0298673 0.138031 0)
(0.0297758 0.123869 0)
(0.0296499 0.110331 0)
(0.0295408 0.09751 0)
(0.0294641 0.0853746 0)
(0.0294116 0.0738337 0)
(0.0293612 0.0627779 0)
(0.0292846 0.0520998 0)
(0.0291523 0.0417024 0)
(0.0289375 0.031499 0)
(0.0286167 0.0214106 0)
(0.0281707 0.0113626 0)
(0.0275833 0.00128117 0)
(0.0268421 -0.00890984 0)
(0.0259381 -0.0192906 0)
(0.0248633 -0.0299477 0)
(0.0236118 -0.0409744 0)
(0.0221789 -0.0524664 0)
(0.0205622 -0.064515 0)
(0.018765 -0.07719 0)
(0.0167929 -0.0905163 0)
(0.0146586 -0.104452 0)
(0.0123897 -0.118896 0)
(0.00999678 -0.133777 0)
(0.00745675 -0.14931 0)
(0.00463627 -0.166629 0)
(0.00124443 -0.188633 0)
(-0.00304999 -0.219876 0)
(-0.00590819 -0.262766 0)
(-0.0102144 -0.308086 0)
(-0.00202232 -0.318093 0)
(0.00760668 0.0921605 0)
(0.0163716 0.14951 0)
(0.0226589 0.172641 0)
(0.0277694 0.184537 0)
(0.0323152 0.188467 0)
(0.035325 0.186219 0)
(0.0376207 0.178342 0)
(0.0388903 0.166076 0)
(0.0395031 0.15227 0)
(0.0397739 0.137996 0)
(0.0398601 0.123922 0)
(0.0398715 0.110398 0)
(0.0398729 0.0975565 0)
(0.0398886 0.0853975 0)
(0.0399139 0.0738497 0)
(0.039927 0.062814 0)
(0.0398975 0.0521868 0)
(0.0397928 0.04187 0)
(0.0395825 0.0317741 0)
(0.0392395 0.0218162 0)
(0.038741 0.0119177 0)
(0.038068 0.00200125 0)
(0.0372053 -0.00801283 0)
(0.0361413 -0.018207 0)
(0.0348655 -0.0286688 0)
(0.0333688 -0.0394926 0)
(0.0316433 -0.0507753 0)
(0.029682 -0.0626108 0)
(0.0274766 -0.0750748 0)
(0.0250223 -0.088199 0)
(0.0223255 -0.101946 0)
(0.0194027 -0.116221 0)
(0.0162685 -0.130939 0)
(0.0129464 -0.146242 0)
(0.00932177 -0.163126 0)
(0.00508198 -0.184509 0)
(-0.000268478 -0.215532 0)
(-0.00369889 -0.259397 0)
(-0.00958774 -0.308435 0)
(-0.00129028 -0.324837 0)
(0.0087186 0.0795123 0)
(0.0194419 0.140501 0)
(0.0273184 0.166162 0)
(0.033679 0.179292 0)
(0.0391435 0.184323 0)
(0.0432452 0.182954 0)
(0.0461809 0.17641 0)
(0.0481085 0.165014 0)
(0.0491538 0.151711 0)
(0.0497363 0.137727 0)
(0.0500635 0.123795 0)
(0.0502646 0.110323 0)
(0.0504186 0.0974877 0)
(0.0505595 0.0853245 0)
(0.0506887 0.0737863 0)
(0.0507865 0.0627872 0)
(0.0508222 0.0522293 0)
(0.0507614 0.042015 0)
(0.0505705 0.0320519 0)
(0.0502191 0.0222534 0)
(0.0496808 0.0125368 0)
(0.0489335 0.00282089 0)
(0.0479585 -0.0069778 0)
(0.0467409 -0.0169438 0)
(0.0452672 -0.0271659 0)
(0.0435242 -0.0377395 0)
(0.0414996 -0.0487613 0)
(0.03918 -0.0603238 0)
(0.0365493 -0.0725021 0)
(0.0335926 -0.0853369 0)
(0.0302986 -0.0988062 0)
(0.0266763 -0.112827 0)
(0.0227528 -0.127306 0)
(0.0185807 -0.142327 0)
(0.0140847 -0.158765 0)
(0.00891841 -0.17951 0)
(0.00246417 -0.210282 0)
(-0.00144062 -0.255098 0)
(-0.00886334 -0.30762 0)
(-0.000347622 -0.330785 0)
(0.00947682 0.0647769 0)
(0.0221202 0.129514 0)
(0.0315066 0.158195 0)
(0.0391109 0.172918 0)
(0.0455362 0.179166 0)
(0.0506432 0.178963 0)
(0.0544088 0.173624 0)
(0.0570937 0.16337 0)
(0.0587148 0.150734 0)
(0.0597234 0.137139 0)
(0.0603835 0.123421 0)
(0.0608515 0.110051 0)
(0.0612205 0.0972599 0)
(0.061536 0.0851215 0)
(0.0618077 0.0736161 0)
(0.0620209 0.062675 0)
(0.062147 0.0522083 0)
(0.0621513 0.0421202 0)
(0.0619985 0.0323169 0)
(0.0616554 0.0227081 0)
(0.0610921 0.0132074 0)
(0.0602837 0.0037293 0)
(0.0592074 -0.00581322 0)
(0.0578441 -0.0155062 0)
(0.0561764 -0.0254398 0)
(0.0541864 -0.0357096 0)
(0.0518558 -0.0464109 0)
(0.0491639 -0.0576341 0)
(0.0460856 -0.0694532 0)
(0.0425935 -0.0819114 0)
(0.038664 -0.094998 0)
(0.0343014 -0.108658 0)
(0.0295239 -0.122815 0)
(0.0244326 -0.137502 0)
(0.0189683 -0.153463 0)
(0.0127663 -0.173562 0)
(0.00519283 -0.204082 0)
(0.000858335 -0.250023 0)
(-0.0086775 -0.30599 0)
(0.000539418 -0.336535 0)
(0.00960645 0.0484962 0)
(0.0240453 0.116748 0)
(0.0349375 0.148792 0)
(0.0438212 0.165424 0)
(0.0512725 0.172978 0)
(0.0573617 0.174048 0)
(0.0621185 0.169947 0)
(0.0656782 0.160984 0)
(0.0680535 0.149196 0)
(0.0696508 0.136118 0)
(0.0707788 0.122703 0)
(0.0716245 0.109504 0)
(0.0722992 0.0968103 0)
(0.0728622 0.0847383 0)
(0.0733341 0.0732998 0)
(0.073708 0.0624461 0)
(0.0739604 0.0520981 0)
(0.074059 0.0421642 0)
(0.0739683 0.0325504 0)
(0.0736542 0.0231637 0)
(0.0730833 0.0139149 0)
(0.0722285 0.00471424 0)
(0.0710628 -0.0045285 0)
(0.0695619 -0.0138999 0)
(0.0677037 -0.0234913 0)
(0.0654645 -0.0333978 0)
(0.0628182 -0.0437116 0)
(0.0597358 -0.0545198 0)
(0.0561821 -0.0658926 0)
(0.052118 -0.0778768 0)
(0.0475072 -0.090476 0)
(0.042348 -0.103663 0)
(0.0366547 -0.117387 0)
(0.0305652 -0.131677 0)
(0.0240301 -0.147131 0)
(0.0167293 -0.166538 0)
(0.00795262 -0.196713 0)
(0.00325913 -0.243877 0)
(-0.0084826 -0.30348 0)
(0.0017076 -0.341691 0)
(0.00815257 0.0310849 0)
(0.024742 0.102035 0)
(0.037194 0.137717 0)
(0.0474757 0.156726 0)
(0.0560623 0.165779 0)
(0.0631843 0.168091 0)
(0.069023 0.165269 0)
(0.0736227 0.157664 0)
(0.0769608 0.146896 0)
(0.0793617 0.13449 0)
(0.0811447 0.121499 0)
(0.082525 0.108565 0)
(0.0836352 0.0960436 0)
(0.0845512 0.0840992 0)
(0.0853076 0.0727779 0)
(0.0859089 0.0620541 0)
(0.0863399 0.0518623 0)
(0.0865736 0.0421179 0)
(0.0865775 0.0327287 0)
(0.0863182 0.0236006 0)
(0.085761 0.0146434 0)
(0.0848761 0.00576266 0)
(0.0836331 -0.00313291 0)
(0.0820017 -0.0121293 0)
(0.0799545 -0.0213191 0)
(0.0774608 -0.0307956 0)
(0.0744854 -0.0406462 0)
(0.0709891 -0.0509539 0)
(0.0669254 -0.0617843 0)
(0.0622445 -0.0731877 0)
(0.0568985 -0.0851814 0)
(0.050883 -0.0977756 0)
(0.0442061 -0.110953 0)
(0.0370328 -0.124758 0)
(0.02933 -0.13967 0)
(0.0208383 -0.158379 0)
(0.0107803 -0.188207 0)
(0.00570077 -0.236593 0)
(-0.00876096 -0.300315 0)
(0.00301311 -0.346522 0)
(0.00415304 0.0160081 0)
(0.0233087 0.0858485 0)
(0.0378262 0.124925 0)
(0.0497138 0.146665 0)
(0.059574 0.157504 0)
(0.0678025 0.161034 0)
(0.0748003 0.159429 0)
(0.0806207 0.153203 0)
(0.0851587 0.143601 0)
(0.0886238 0.132039 0)
(0.0913035 0.119622 0)
(0.0934273 0.107078 0)
(0.0951488 0.0948308 0)
(0.0965635 0.0830993 0)
(0.0977228 0.0719666 0)
(0.0986462 0.0614329 0)
(0.0993304 0.0514493 0)
(0.0997572 0.0419411 0)
(0.0999011 0.0328203 0)
(0.0997302 0.0239943 0)
(0.0992136 0.0153741 0)
(0.0983167 0.00686069 0)
(0.0970081 -0.00163537 0)
(0.0952519 -0.0101969 0)
(0.0930139 -0.0189189 0)
(0.0902562 -0.0278905 0)
(0.0869331 -0.0371925 0)
(0.0829937 -0.0469034 0)
(0.0783802 -0.0570838 0)
(0.0730333 -0.0677902 0)
(0.0668957 -0.0790544 0)
(0.0599631 -0.0909299 0)
(0.0522358 -0.103436 0)
(0.0439043 -0.11666 0)