/*--------------------------------*- C++ -*----------------------------------*\
  =========                 |
  \\      /  F ield         | OpenFOAM: The Open Source CFD Toolbox
   \\    /   O peration     | Website:  https://openfoam.org
    \\  /    A nd           | Version:  13
     \\/     M anipulation  |
\*---------------------------------------------------------------------------*/
FoamFile
{
    format      ascii;
    class       volScalarField;
    location    "8.4";
    object      epsilon;
}
// * * * * * * * * * * * * * * * * * * * * * * * * * * * * * * * * * * * * * //

dimensions      [0 2 -3 0 0 0 0];

internalField   nonuniform List<scalar> 
6400
(
2.89748e-05
0.000148762
0.000361498
0.000581972
0.000747742
0.000840426
0.000873663
0.000876296
0.000880904
0.000912
0.000988635
0.00114021
0.00138027
0.00171423
0.00212441
0.00258803
0.00308118
0.0035943
0.00410257
0.00459387
0.00508815
0.00562808
0.00627042
0.00704726
0.00792404
0.00880605
0.0096828
0.0105537
0.0114465
0.0123845
0.013354
0.0143229
0.0152756
0.0162157
0.017166
0.0181328
0.0191352
0.0201797
0.0212787
0.0224354
0.0236582
0.0249567
0.0263379
0.027817
0.0294073
0.0311633
0.0331892
0.0357063
0.0382155
0.0407793
0.0432842
0.0457168
0.0479967
0.0500621
0.051836
0.0532264
0.0539289
0.0542075
0.0540808
0.0530304
0.0511859
0.0485553
0.0451644
0.0411573
0.0366034
0.03174
0.0268013
0.0219746
0.0174387
0.0134009
0.0101126
0.00735302
0.0051245
0.00342253
0.00219816
0.00136432
0.000820793
0.000470954
0.00022251
4.73894e-05
0.000139909
0.000140548
0.000230047
0.000333039
0.00041011
0.000456714
0.000479662
0.000490089
0.000501894
0.000528733
0.00058524
0.000691951
0.000865608
0.00111923
0.00145671
0.00187924
0.00238881
0.00299206
0.0036946
0.00450616
0.00543422
0.00651926
0.00781202
0.00933522
0.0110768
0.0130642
0.0151039
0.0170623
0.0188339
0.0203243
0.0214522
0.0223179
0.0229045
0.0233064
0.0235615
0.0237284
0.023847
0.0239513
0.0240633
0.0242036
0.024395
0.0246414
0.0249399
0.0252684
0.0256534
0.026131
0.0266866
0.0273226
0.0280303
0.0287734
0.0295529
0.0303226
0.0310657
0.0317317
0.0322789
0.0325728
0.0326642
0.0325332
0.0321147
0.031282
0.0300823
0.0284777
0.0264759
0.024151
0.0215889
0.0188959
0.0161853
0.0135715
0.0111428
0.00899205
0.00717188
0.00560979
0.00426959
0.0031321
0.00219361
0.00143643
0.000875645
0.000491487
0.000255395
0.000250626
0.000305387
0.00025557
0.000341866
0.000429056
0.000481353
0.000507771
0.000522306
0.000539046
0.000573286
0.000643303
0.000773222
0.000991955
0.00132729
0.00179949
0.00242142
0.00320536
0.00416384
0.00531102
0.0066563
0.00820563
0.00996417
0.0118937
0.0139045
0.0158389
0.0175116
0.0186842
0.0193878
0.0197702
0.0199603
0.0201018
0.0201708
0.0200777
0.019768
0.0194786
0.019176
0.0189155
0.0187061
0.0185871
0.0185413
0.0185409
0.0186671
0.0188626
0.0191665
0.0195902
0.0201244
0.0207442
0.0214467
0.0222259
0.0230773
0.0239845
0.0249377
0.0259125
0.0268862
0.0278224
0.0286817
0.0294151
0.0299382
0.0301652
0.0301834
0.02981
0.0289902
0.027717
0.0259749
0.0238648
0.0214742
0.018902
0.0162752
0.013708
0.0113051
0.0091485
0.00728702
0.00572048
0.00442419
0.00335928
0.00248772
0.00178707
0.00121408
0.00075948
0.000470426
0.000670591
0.000529259
0.000439887
0.000537713
0.000621005
0.000663787
0.000685822
0.000707997
0.000751438
0.000839634
0.00100433
0.00128584
0.00172721
0.00236417
0.00321854
0.00430013
0.00561299
0.0071554
0.00890466
0.0108035
0.0127546
0.0146209
0.0162561
0.0175067
0.0181658
0.0184391
0.0185025
0.0184329
0.0180737
0.0175143
0.0169174
0.016266
0.01576
0.0153725
0.0150433
0.0147984
0.0146531
0.0145915
0.0145825
0.0146822
0.0148581
0.0151262
0.0154728
0.0159079
0.0164266
0.017028
0.0177105
0.0184756
0.0193215
0.0202468
0.021245
0.022309
0.0234244
0.0245714
0.0257212
0.0268361
0.0278665
0.0287535
0.0293975
0.0296909
0.029731
0.0292955
0.0284375
0.0271364
0.0252154
0.022899
0.0202791
0.0175046
0.0147265
0.0120886
0.00970606
0.00765228
0.0059503
0.00458078
0.00349723
0.00264478
0.00197392
0.00143201
0.000989678
0.000706725
0.00111817
0.000847665
0.000695064
0.000791696
0.000872232
0.000917456
0.000952964
0.0010069
0.00111102
0.0013045
0.00163691
0.0021641
0.00293537
0.00397946
0.00529963
0.0068776
0.00867379
0.010618
0.0125955
0.0144423
0.0159898
0.0170118
0.0174634
0.0175885
0.0175267
0.0170941
0.0163521
0.0154845
0.0146798
0.0140292
0.0134261
0.0129288
0.0125437
0.0122445
0.0120225
0.0118891
0.0118289
0.0118137
0.0118649
0.0119913
0.0121726
0.0124184
0.0127238
0.0130936
0.0135285
0.0140327
0.0146096
0.0152642
0.0160009
0.0168243
0.0177377
0.0187415
0.0198331
0.0210042
0.0222405
0.0235197
0.0248024
0.0260362
0.0271568
0.028086
0.0286302
0.0288179
0.0285645
0.0277612
0.0264991
0.0244909
0.0219776
0.0191328
0.0161414
0.0131979
0.0104817
0.0081246
0.0061901
0.00467257
0.00351687
0.00264367
0.00198464
0.00147924
0.00108766
0.000863726
0.00142891
0.0013018
0.00102947
0.00110875
0.00119122
0.00125396
0.00132502
0.0014422
0.00165228
0.00201294
0.00259
0.00344456
0.00461315
0.00609333
0.00784144
0.00977586
0.0117759
0.0136806
0.0153048
0.0163844
0.0168462
0.0169515
0.016795
0.0162329
0.0152506
0.0142493
0.0133619
0.0125561
0.0118784
0.011312
0.0108308
0.0104465
0.0101394
0.00989878
0.00971741
0.00958999
0.00951535
0.00948301
0.00947749
0.00952448
0.00960674
0.00972991
0.0098944
0.0101015
0.0103561
0.0106628
0.0110285
0.0114615
0.011972
0.0125709
0.0132713
0.0140848
0.0150227
0.016093
0.0172975
0.0186305
0.0200767
0.0216006
0.0231547
0.0246695
0.0260399
0.0271288
0.0276565
0.0277774
0.0272314
0.0261269
0.0240264
0.0213219
0.0182115
0.0149425
0.0117829
0.00896623
0.00664104
0.00484829
0.00353776
0.00259985
0.00193347
0.00144672
0.00108681
0.000927438
0.00154496
0.00193172
0.00144948
0.00150101
0.00159612
0.00169508
0.00182813
0.00204603
0.00241277
0.00300153
0.00388242
0.00510047
0.0066533
0.00848033
0.0104653
0.0124449
0.0142207
0.015572
0.0162258
0.0164124
0.0163346
0.0157771
0.0147237
0.0136018
0.0125846
0.0116673
0.0108864
0.0102123
0.00964871
0.00917085
0.00876861
0.00843393
0.00815267
0.00791817
0.00772381
0.00756512
0.00743812
0.00733894
0.00726676
0.00722999
0.00721566
0.00721557
0.00725544
0.00731927
0.0074192
0.00755383
0.00773118
0.00795726
0.00824163
0.00859498
0.00903434
0.00957914
0.0102517
0.0110764
0.0120739
0.0132688
0.0146808
0.0163068
0.0181144
0.0200534
0.0220571
0.0240073
0.025739
0.0268993
0.0273628
0.0273148
0.0263125
0.024124
0.0211481
0.0176537
0.0139949
0.0105454
0.0076037
0.00532135
0.00369198
0.0025978
0.00185977
0.00137108
0.00105011
0.000920361
0.00150146
0.00277444
0.00195996
0.00198229
0.0021044
0.00226169
0.00248576
0.00284244
0.00341012
0.0042661
0.00546416
0.0070079
0.00883236
0.0108025
0.0127272
0.0143864
0.0154573
0.0158858
0.0159519
0.0155717
0.0146342
0.0134116
0.01227
0.0112206
0.010318
0.00953711
0.00887429
0.00830422
0.00781799
0.00739783
0.00703617
0.00672341
0.00645192
0.00621701
0.00601438
0.00584124
0.00569507
0.0055731
0.00547434
0.00539826
0.00534203
0.00531346
0.00530319
0.00530799
0.00534704
0.00540813
0.00549984
0.00562401
0.00578696
0.00599529
0.00625597
0.00658072
0.00698507
0.00749229
0.00813905
0.00896544
0.0100223
0.0113672
0.0130294
0.0150049
0.0172782
0.0197416
0.0222883
0.0247025
0.0266789
0.0276533
0.0279355
0.027131
0.0247865
0.0214099
0.0173879
0.0132287
0.00943985
0.0063809
0.00417522
0.00273929
0.00185861
0.00130619
0.000985764
0.000885557
0.00139704
0.00385579
0.00256451
0.00256214
0.00273293
0.0029688
0.00331033
0.00383515
0.00462658
0.00574817
0.00721445
0.00896709
0.0108677
0.0127117
0.0142612
0.0151387
0.0154314
0.015423
0.0147916
0.0136285
0.0123582
0.0111703
0.0101277
0.00921918
0.00844677
0.00778179
0.00721124
0.00671654
0.00628854
0.00591602
0.00559319
0.00531326
0.00507186
0.00486523
0.00468988
0.0045428
0.00442152
0.00432414
0.00424881
0.0041939
0.00416116
0.00414689
0.00414387
0.00416205
0.00420027
0.00425676
0.00433444
0.00443408
0.0045586
0.00471099
0.00489558
0.00511827
0.00538715
0.00571308
0.00611083
0.00660303
0.0072236
0.00802674
0.0091078
0.0105925
0.0125492
0.0149752
0.0178288
0.0209314
0.0240671
0.0268361
0.028453
0.0290502
0.0284544
0.0258518
0.0219253
0.0172373
0.0125034
0.00837981
0.00526071
0.00319638
0.00198117
0.00130682
0.000935556
0.000828824
0.00127819
0.00518569
0.003271
0.00325368
0.0034872
0.00381992
0.00429668
0.00500018
0.00600475
0.00734086
0.00896617
0.0107527
0.0124976
0.0139565
0.0147453
0.0149957
0.0148539
0.0140624
0.0127923
0.0115059
0.0102937
0.00923916
0.00833456
0.00755905
0.00689696
0.00632553
0.00583324
0.00540785
0.00504237
0.00472931
0.00446369
0.00424002
0.00405409
0.00390159
0.00377874
0.00368206
0.00360841
0.00355513
0.00352109
0.00350503
0.0035002
0.00350752
0.00353121
0.00356767
0.00361793
0.00368162
0.00375986
0.00385357
0.00396436
0.00409415
0.00424555
0.00442199
0.00462797
0.00486973
0.00515596
0.00549597
0.00590611
0.0064121
0.00705508
0.00790207
0.00906947
0.0107865
0.0131915
0.0162699
0.0198916
0.0237426
0.0273675
0.0296627
0.0305547
0.0301127
0.0271103
0.0224616
0.0169927
0.0116703
0.00728841
0.00421798
0.002372
0.00139907
0.000932505
0.000779686
0.00118103
0.00678785
0.00409549
0.0040616
0.00436571
0.00480476
0.00541915
0.00628621
0.00745601
0.00891122
0.0105464
0.0121735
0.013553
0.0143039
0.0145425
0.0143323
0.013443
0.0121551
0.0108239
0.0096034
0.00853155
0.00762212
0.00684644
0.00618429
0.00561857
0.00513416
0.00472232
0.00437424
0.00408352
0.00384327
0.00364763
0.00349054
0.00336672
0.00327108
0.00319927
0.0031475
0.00311285
0.00309563
0.00308927
0.00308948
0.00310505
0.00312901
0.00316437
0.00320949
0.0032657
0.00333326
0.00341336
0.00350712
0.00361591
0.00374126
0.00388486
0.00404863
0.00423475
0.00444586
0.00468543
0.00495859
0.00527326
0.00564239
0.00608745
0.00663835
0.00735017
0.00832274
0.00973001
0.0119266
0.0150972
0.0191323
0.0236983
0.0282368
0.0311988
0.0323429
0.0319165
0.028314
0.0227591
0.0164413
0.0106019
0.00612468
0.00324736
0.00169804
0.000991635
0.000765928
0.00114897
0.00873648
0.00506319
0.00498182
0.00535501
0.00589797
0.0066337
0.00762236
0.0088779
0.0103294
0.011816
0.0131131
0.0138495
0.0140886
0.013857
0.0129375
0.0116721
0.0103161
0.00906775
0.00798285
0.00705939
0.00628103
0.00562014
0.00506085
0.0045892
0.0041946
0.00386878
0.00360315
0.00339
0.00322139
0.00309019
0.00298968
0.00291416
0.00285873
0.00281947
0.00279349
0.0027806
0.00277578
0.00277554
0.00278639
0.00280499
0.00283149
0.00286684
0.00291126
0.00296596
0.00303182
0.00311019
0.00320243
0.00331008
0.00343478
0.00357822
0.00374217
0.00392831
0.00413825
0.00437346
0.00463542
0.00492613
0.00524915
0.00561179
0.0060293
0.0065309
0.00716749
0.00801996
0.00925604
0.011181
0.0143144
0.0186815
0.0239551
0.0294391
0.0329942
0.034308
0.0336587
0.0291743
0.0225395
0.0153791
0.009225
0.0048905
0.00237509
0.00119331
0.000800203
0.00119214
0.0109
0.00613436
0.00599326
0.00642968
0.0070619
0.00788449
0.00893106
0.0101741
0.0114941
0.0126932
0.0134193
0.0136617
0.0134474
0.0125644
0.0113234
0.00996281
0.0086809
0.0075702
0.00663071
0.00584219
0.00518154
0.00462781
0.00416832
0.00379102
0.00348587
0.00324302
0.00305258
0.00290536
0.00279278
0.0027075
0.0026433
0.00259528
0.00255966
0.00253377
0.00251581
0.00250575
0.00250142
0.00250071
0.00250836
0.0025226
0.00254431
0.00257426
0.00261336
0.00266273
0.00272355
0.00279723
0.00288528
0.00298938
0.00311138
0.00325328
0.00341715
0.00360505
0.00381891
0.00406032
0.0043303
0.0046292
0.00495676
0.00531284
0.0056993
0.00612428
0.00660992
0.00720533
0.00799274
0.00912268
0.0109003
0.0139281
0.0185877
0.0245692
0.0310121
0.0349789
0.0363104
0.0350952
0.0293717
0.0214956
0.0136763
0.00754453
0.00364181
0.00166145
0.000933464
0.00137089
0.0132163
0.00728445
0.00706986
0.00755613
0.00825142
0.00911215
0.0101404
0.0112698
0.0123455
0.0130495
0.0132904
0.0131252
0.0123141
0.0111091
0.00974822
0.00843486
0.00728502
0.00631984
0.00551581
0.00484887
0.00429788
0.00384667
0.00348292
0.00319409
0.00296857
0.00279478
0.00266204
0.00256094
0.00248355
0.00242364
0.00237644
0.00233858
0.00230777
0.00228268
0.00226266
0.00224749
0.00223807
0.00223414
0.00223382
0.00224174
0.00225708
0.00228062
0.00231343
0.00235651
0.00241107
0.00247845
0.00256019
0.00265805
0.00277401
0.00291033
0.00306949
0.00325412
0.00346691
0.00371037
0.00398652
0.00429652
0.00464016
0.00501565
0.00541987
0.00584992
0.00630718
0.00680586
0.00738903
0.00814879
0.00922819
0.0109472
0.0139426
0.0189085
0.0256414
0.03302
0.0370414
0.0381901
0.0358815
0.0284851
0.0194131
0.0113302
0.0056652
0.00254196
0.00125599
0.00179751
0.0156099
0.00848396
0.00818031
0.00869566
0.00941864
0.0102605
0.0111912
0.0121135
0.012767
0.0129982
0.0128956
0.0121721
0.0110241
0.00966866
0.00832225
0.00712379
0.00611813
0.00528935
0.00460855
0.00405332
0.00360506
0.00324876
0.00297048
0.00275619
0.00259289
0.00246862
0.00237324
0.00229857
0.00223839
0.00218827
0.00214522
0.00210745
0.002074
0.00204458
0.00201927
0.00199837
0.00198238
0.00197311
0.00196953
0.00196988
0.00198026
0.0019983
0.00202549
0.00206265
0.00211084
0.00217132
0.00224552
0.00233519
0.00244235
0.00256937
0.00271901
0.00289436
0.00309884
0.003336
0.00360926
0.00392146
0.00427429
0.00466745
0.00509801
0.00556027
0.0060469
0.00655304
0.0070856
0.00768196
0.00843869
0.00951073
0.0112384
0.0143393
0.0197448
0.0273749
0.0353621
0.0390833
0.039792
0.0355257
0.0261724
0.016268
0.00853932
0.00390319
0.00183651
0.00247573
0.0180103
0.0097015
0.00929059
0.00980816
0.0105177
0.0112808
0.0120371
0.0126099
0.0128261
0.012753
0.0121362
0.0110592
0.00972254
0.00834246
0.0070854
0.00602355
0.0051553
0.00445065
0.0038822
0.00342922
0.00307364
0.0027993
0.00259044
0.00243221
0.00231167
0.00221797
0.00214272
0.0020798
0.00202505
0.00197589
0.00193089
0.00188946
0.00185155
0.00181742
0.00178749
0.00176226
0.00174226
0.00172838
0.00172169
0.00171972
0.001725
0.00173935
0.0017619
0.00179392
0.00183617
0.00188978
0.00195607
0.00203666
0.0021335
0.00224894
0.0023858
0.00254741
0.00273762
0.00296076
0.00322147
0.00352437
0.00387349
0.0042714
0.00471807
0.00520967
0.00573787
0.00629069
0.00685673
0.0074357
0.00806184
0.00884004
0.00994022
0.0117463
0.0151004
0.0211533
0.0299376
0.0380022
0.0410799
0.040879
0.0334332
0.0223193
0.0123422
0.00579422
0.00267308
0.00334637
0.02037
0.0109053
0.0103669
0.0108553
0.0115087
0.0121367
0.0126221
0.0128172
0.0127191
0.0122133
0.01121
0.00990649
0.00849864
0.00717397
0.0060387
0.00511256
0.00436964
0.00377728
0.00331017
0.00294763
0.00267063
0.00246152
0.00230384
0.00218336
0.00208862
0.00201089
0.00194409
0.00188426
0.00182911
0.00177752
0.00172914
0.00168411
0.00164278
0.00160563
0.00157311
0.00154569
0.00152376
0.0015077
0.00149935
0.00149633
0.00149823
0.00150992
0.00152884
0.00155651
0.00159344
0.00164064
0.00169929
0.00177083
0.00185707
0.00196021
0.00208297
0.00222865
0.00240123
0.00260538
0.00284649
0.0031305
0.0034635
0.00385101
0.00429686
0.00480153
0.00536036
0.00596214
0.00658963
0.00722404
0.00785772
0.00852423
0.00934483
0.0105075
0.0124806
0.0162808
0.0231719
0.0333159
0.0409825
0.0431799
0.0402804
0.0293369
0.0171923
0.00829064
0.00379055
0.00435448
0.022638
0.0120638
0.011376
0.0118034
0.0123614
0.0127788
0.0129412
0.0128247
0.0124017
0.0114786
0.0102178
0.00879381
0.00739815
0.00617186
0.00516592
0.00436574
0.00373549
0.00324348
0.00286505
0.00257847
0.00236361
0.00220236
0.00207907
0.00198137
0.0019001
0.00182903
0.00176428
0.00170373
0.00164648
0.00159233
0.00154154
0.00149452
0.00145172
0.00141358
0.00138046
0.00135266
0.00133043
0.00131396
0.0013049
0.00130141
0.00130146
0.00131104
0.00132714
0.00135111
0.00138339
0.00142485
0.00147649
0.00153962
0.00161582
0.00170712
0.00181599
0.00194555
0.0020996
0.00228282
0.00250082
0.00276021
0.00306841
0.00343324
0.00386207
0.00436023
0.00492888
0.00556229
0.00624566
0.00695531
0.00766404
0.00835736
0.00907376
0.00995235
0.011223
0.013503
0.0180684
0.0261409
0.0376101
0.0436082
0.044523
0.0368518
0.0232086
0.0115483
0.00523738
0.00545188
0.0247279
0.0131473
0.0122913
0.012629
0.0130404
0.0132109
0.0131206
0.012692
0.0118643
0.0106577
0.00923004
0.00776805
0.00643695
0.00532668
0.00444523
0.00375866
0.00322846
0.00282394
0.00251991
0.0022936
0.0021247
0.00199597
0.00189381
0.00180833
0.00173294
0.00166366
0.00159842
0.00153641
0.00147754
0.00142213
0.0013706
0.00132341
0.00128092
0.00124342
0.0012111
0.00118413
0.0011626
0.00114659
0.00113725
0.00113338
0.00113298
0.0011406
0.00115446
0.00117527
0.00120352
0.00123992
0.00128536
0.00134097
0.00140815
0.00148868
0.00158479
0.00169927
0.00183563
0.00199827
0.00219263
0.00242539
0.00270452
0.0030392
0.00343933
0.00391442
0.00447161
0.00511266
0.00583013
0.00660412
0.0074023
0.0081876
0.00894162
0.00971643
0.0106663
0.0121216
0.0149551
0.0207543
0.0307299
0.0419006
0.0460158
0.0437788
0.0303316
0.0157466
0.00706364
0.00660313
0.0265653
0.0141281
0.0130904
0.0133107
0.0135238
0.013497
0.013102
0.0123738
0.0112248
0.00981009
0.00829248
0.00685119
0.00561307
0.00462138
0.0038543
0.00326856
0.00282554
0.00249482
0.00225042
0.0020694
0.00193243
0.00182431
0.00173402
0.00165433
0.00158092
0.00151162
0.00144561
0.00138285
0.00132367
0.00126851
0.0012178
0.00117184
0.00113086
0.00109498
0.00106426
0.0010387
0.00101832
0.00100309
0.000993823
0.000989821
0.000989164
0.000995178
0.00100713
0.00102524
0.00104999
0.001082
0.00112204
0.00117109
0.00123037
0.00130145
0.00138627
0.00148732
0.00160772
0.00175145
0.00192355
0.00213037
0.0023798
0.00268143
0.00304653
0.00348743
0.0040162
0.004642
0.00536689
0.00618053
0.00705541
0.007947
0.00880609
0.00961413
0.0104527
0.0114996
0.0132536
0.0169213
0.0244179
0.0369297
0.0460375
0.0477425
0.0381349
0.0210545
0.00931388
0.0078039
0.0281092
0.0149855
0.0137539
0.0138242
0.0138813
0.0136251
0.0129752
0.0119161
0.0105325
0.00897845
0.00743135
0.00604869
0.00491546
0.00403683
0.00337223
0.00287457
0.00250569
0.00223502
0.00203639
0.00188777
0.00177182
0.00167594
0.00159183
0.00151457
0.00144169
0.00137226
0.00130621
0.00124386
0.00118567
0.001132
0.00108316
0.0010393
0.00100047
0.000966671
0.000937838
0.000913894
0.000894768
0.000880391
0.000871324
0.000867262
0.000866402
0.000871081
0.000881366
0.000897131
0.000918854
0.00094706
0.000982427
0.00102581
0.00107829
0.00114121
0.00121628
0.00130567
0.00141213
0.00153918
0.00169134
0.00187442
0.00209582
0.00236491
0.00269325
0.00309459
0.00358421
0.00417716
0.00488469
0.00570847
0.00663314
0.00761972
0.00860673
0.00953155
0.0103849
0.0112835
0.0124874
0.0147743
0.0199167
0.0299269
0.0435597
0.0490965
0.0455945
0.0275697
0.0120577
0.00904366
0.0293374
0.0157169
0.0142737
0.0141914
0.0140895
0.0136005
0.0127008
0.0113883
0.00982643
0.00819101
0.00665851
0.00535622
0.00432939
0.0035545
0.00298011
0.00255803
0.00225054
0.0020271
0.00186229
0.00173592
0.0016332
0.00154426
0.00146324
0.00138709
0.00131463
0.00124569
0.00118057
0.00111969
0.00106344
0.00101206
0.000965668
0.000924285
0.000887839
0.000856216
0.000829283
0.000806909
0.000788982
0.000775415
0.000766543
0.000762427
0.000761385
0.000764919
0.000773723
0.000787451
0.000806542
0.000831457
0.000862795
0.000901309
0.000947942
0.00100388
0.00107061
0.00115001
0.0012445
0.00135717
0.00149199
0.00165414
0.00185035
0.00208935
0.0023823
0.00274319
0.00318887
0.00373818
0.00440952
0.005216
0.00615729
0.00720934
0.00831561
0.00939144
0.0103613
0.0112418
0.0122118
0.0137159
0.017
0.0244437
0.0381184
0.0490897
0.0506718
0.0352929
0.0154691
0.0104038
0.0302463
0.016321
0.0146522
0.0144209
0.0141535
0.0134865
0.012332
0.0108222
0.00913452
0.00746421
0.00597624
0.00476441
0.00383942
0.00315745
0.00266129
0.00230284
0.00204488
0.00185752
0.00171692
0.00160534
0.00151073
0.00142571
0.0013464
0.00127114
0.00119956
0.0011319
0.00106855
0.00100988
0.000956137
0.000907413
0.000863687
0.000824852
0.00079075
0.000761205
0.00073604
0.000715096
0.000698244
0.000685392
0.000676677
0.000672493
0.000671277
0.00067382
0.000681307
0.000693256
0.000710056
0.000732118
0.000759976
0.000794297
0.000835914
0.00088587
0.000945473
0.00101637
0.00110067
0.00120106
0.00132102
0.00146512
0.00163935
0.00185159
0.00211222
0.0024347
0.00283612
0.0033372
0.00396108
0.00472994
0.00565782
0.00673932
0.00793553
0.00916399
0.0103112
0.0112957
0.0121622
0.013284
0.0153773
0.0204954
0.0314512
0.0470299
0.0528739
0.0438722
0.0198731
0.0121489
0.0308509
0.0167965
0.0149013
0.0145219
0.0141089
0.0132506
0.0119061
0.0102443
0.00847591
0.00680589
0.00538094
0.00426181
0.00343091
0.00283077
0.00240149
0.0020956
0.00187671
0.00171626
0.00159262
0.00149071
0.00140106
0.00131844
0.00124045
0.00116636
0.00109626
0.00103051
0.000969497
0.000913446
0.000862451
0.000816471
0.000775374
0.000738969
0.000707046
0.00067939
0.000655806
0.000636126
0.000620215
0.000607982
0.000599393
0.000595124
0.000593742
0.000595429
0.000601746
0.000612141
0.000626942
0.000646525
0.000671365
0.00070206
0.000739355
0.000784175
0.000837679
0.000901319
0.000976937
0.00106689
0.00117423
0.00130293
0.00145828
0.00164729
0.00187935
0.00216694
0.00252652
0.00297915
0.00355045
0.00426881
0.00516018
0.00623758
0.00748475
0.00883688
0.0101726
0.0113444
0.0123066
0.0131799
0.0146257
0.0179499
0.0261924
0.0422711
0.0533723
0.0519238
0.0255739
0.0145054
0.0311527
0.0171499
0.0150333
0.014507
0.0139755
0.0129411
0.0114462
0.00967429
0.00786239
0.00621792
0.00486587
0.00383669
0.0030907
0.00256165
0.00218876
0.00192558
0.00173695
0.00159623
0.00148431
0.00138874
0.00130231
0.00122146
0.00114486
0.00107235
0.00100421
0.000940818
0.000882425
0.00082913
0.000780891
0.000737559
0.000698924
0.000664746
0.000634783
0.000608806
0.000586613
0.000568034
0.000552935
0.000541221
0.000532828
0.000528423
0.00052688
0.000527838
0.000533122
0.000542155
0.000555211
0.00057263
0.000594841
0.000622384
0.000655931
0.000696313
0.000744565
0.000801981
0.000870188
0.00095126
0.00104787
0.00116351
0.0013028
0.00147192
0.00167923
0.00193606
0.0022577
0.00266452
0.00318276
0.00384427
0.00468346
0.00572923
0.00698935
0.00842739
0.00993889
0.0113524
0.0125014
0.0133295
0.014372
0.0165433
0.0224344
0.0357817
0.0528665
0.0570816
0.0331046
0.0174646
0.0311347
0.0173782
0.0150583
0.0144235
0.0137424
0.0125803
0.0109715
0.00912617
0.00730031
0.00569835
0.00442287
0.00347797
0.00280732
0.00233931
0.0020134
0.00178443
0.00161894
0.00149256
0.00138874
0.00129745
0.00121334
0.0011341
0.00105912
0.00098854
0.000922691
0.000861858
0.000806166
0.000755587
0.000709971
0.000669096
0.000632701
0.000600519
0.000572295
0.000547797
0.000526825
0.000509211
0.000494823
0.000483566
0.00047538
0.000470832
0.000469139
0.000469503
0.000473874
0.000481716
0.000493245
0.000508768
0.000528677
0.000553464
0.000583738
0.000620257
0.000663954
0.000715993
0.000777829
0.000851306
0.000938783
0.00104333
0.00116899
0.00132121
0.00150736
0.00173755
0.0020257
0.00239088
0.00285871
0.00346228
0.00424122
0.0052364
0.00647679
0.00795549
0.0095973
0.0112361
0.0126458
0.0136441
0.0143562
0.0158973
0.0198273
0.0301917
0.0498784
0.0593345
0.0427207
0.0209061
0.0309703
0.0175232
0.0150189
0.0142443
0.0134481
0.0121857
0.0104967
0.00860926
0.00679204
0.00524302
0.0040435
0.00317565
0.00257097
0.00215487
0.00186767
0.00166584
0.0015179
0.00140191
0.00130379
0.00121556
0.00113336
0.00105578
0.000982654
0.000914232
0.000850819
0.000792583
0.000739525
0.000691511
0.000648317
0.000609668
0.000575279
0.00054487
0.000518184
0.000494993
0.0004751
0.000458342
0.000444591
0.000433752
0.000425767
0.000421073
0.000419215
0.000419169
0.000422727
0.000429525
0.000439716
0.000453574
0.000471458
0.000493819
0.000521217
0.000554345
0.000594058
0.000641415
0.000697732
0.000764664
0.000844316
0.000939406
0.00105351
0.00119139
0.00135955
0.00156694
0.00182604
0.00215431
0.00257592
0.00312358
0.00383935
0.00477226
0.0059689
0.0074519
0.00918367
0.0110219
0.0127035
0.0140056
0.0147379
0.0156983
0.0183325
0.0263238
0.0444009
0.0598346
0.0529396
0.0244698
0.0306059
0.0176038
0.0149131
0.0139992
0.0131085
0.0117722
0.0100326
0.00812919
0.00633724
0.00484661
0.00371966
0.00292099
0.00237346
0.00200112
0.00174557
0.00156509
0.00143043
0.00132203
0.00122803
0.00114217
0.00106173
0.00098591
0.00091478
0.000848625
0.00078766
0.000731939
0.00068136
0.000635709
0.000594708
0.000558055
0.00052545
0.000496613
0.00047129
0.000449259
0.00043033
0.000414344
0.000401176
0.000390734
0.000382957
0.000378132
0.000376063
0.000375794
0.000378618
0.000384502
0.000393518
0.00040591
0.000422006
0.000442222
0.000467076
0.000497209
0.000533411
0.000576654
0.000628145
0.00068939
0.000762286
0.000849268
0.000953507
0.00107922
0.00123212
0.00142013
0.00165434
0.00195048
0.0023309
0.00282683
0.00348061
0.00434583
0.00548191
0.00693706
0.00871371
0.0107163
0.0127042
0.0142993
0.0151701
0.0157832
0.017601
0.0232178
0.038748
0.0590124
0.061508
0.0273416
0.0300374
0.0176005
0.0147363
0.0137072
0.0127381
0.0113516
0.00958712
0.00768883
0.00593383
0.00450342
0.00344394
0.00270648
0.00220802
0.00187229
0.00164243
0.00147872
0.00135412
0.00125134
0.00116045
0.00107658
0.000997846
0.000923853
0.000854786
0.000790893
0.000732293
0.000678936
0.000630638
0.000587126
0.000548091
0.000513216
0.000482197
0.000454756
0.000430648
0.000409655
0.000391595
0.000376313
0.000363685
0.000353616
0.000346044
0.000341125
0.000338888
0.000338444
0.000340649
0.000345734
0.000353719
0.000364818
0.000379331
0.000397644
0.000420238
0.000447709
0.000480793
0.000520395
0.000567631
0.000623887
0.000690899
0.000770871
0.000866649
0.000981987
0.00112195
0.00129351
0.00150651
0.00177502
0.00211933
0.00256861
0.00316398
0.0039607
0.00502646
0.0064294
0.00820758
0.0103142
0.0125502
0.0145365
0.0157103
0.0162717
0.0173537
0.0211869
0.0333079
0.0568215
0.0658792
0.0286616
0.0292966
0.0175651
0.014522
0.0133827
0.0123497
0.0109334
0.00916562
0.00728901
0.00557874
0.00420777
0.00320977
0.0025258
0.00206912
0.00176381
0.00155473
0.00140415
0.00128722
0.00118869
0.00110027
0.00101817
0.000941114
0.000868968
0.000801947
0.000740234
0.000683856
0.000632675
0.000586444
0.000544853
0.000507571
0.000474277
0.000444667
0.000418472
0.000395452
0.000375396
0.000358125
0.000343489
0.000331363
0.000321651
0.000314283
0.000309315
0.000306946
0.000306356
0.000308047
0.000312438
0.000319518
0.000329476
0.000342587
0.000359207
0.000379786
0.000404882
0.000435184
0.000471541
0.000514997
0.000566841
0.00062868
0.000702536
0.000790996
0.000897436
0.00102637
0.00118399
0.001379
0.00162392
0.00193701
0.00234507
0.00288707
0.00361791
0.00460994
0.00594646
0.00769728
0.00986555
0.0123048
0.0146431
0.0161894
0.0168284
0.0173702
0.0200878
0.0296026
0.0525982
0.0674548
0.0288879
0.0284257
0.0174831
0.0142803
0.013038
0.0119536
0.0105249
0.00877134
0.00692914
0.00526834
0.00395436
0.0030114
0.00237366
0.00195226
0.00167209
0.00147974
0.00133946
0.00122843
0.0011332
0.00104682
0.000966358
0.000890951
0.000820618
0.000755566
0.000695902
0.000641569
0.000592363
0.000547988
0.00050811
0.000472389
0.0004405
0.000412148
0.000387067
0.000365025
0.000345818
0.000329268
0.000315227
0.00030357
0.000294198
0.000287039
0.000282061
0.000279588
0.000278875
0.000280144
0.000283932
0.000290221
0.000299172
0.000311039
0.000326153
0.000344933
0.000367905
0.000395717
0.000429169
0.000469244
0.000517157
0.00057441
0.000642883
0.000724957
0.000823707
0.000943198
0.00108896
0.00126871
0.00149358
0.00177991
0.00215202
0.00264615
0.00331529
0.00423325
0.00549325
0.00719068
0.00937637
0.011972
0.0146688
0.0166995
0.0175373
0.0179085
0.0195751
0.0268559
0.0476812
0.0675065
0.0283039
0.0274589
0.0173711
0.0140222
0.0126834
0.0115583
0.0101313
0.00840601
0.00660774
0.00499888
0.00373832
0.00284392
0.00224569
0.00185382
0.00159429
0.00141538
0.00128321
0.00117678
0.00108417
0.000999552
0.000920609
0.000846794
0.000778198
0.000714994
0.000657219
0.000604743
0.00055731
0.000514591
0.000476237
0.000441902
0.000411265
0.000384036
0.000359955
0.000338796
0.000320358
0.000304468
0.000290975
0.000279755
0.000270704
0.000263744
0.000258824
0.000256251
0.000255431
0.000256355
0.000259623
0.000265217
0.000273282
0.000284048
0.000297822
0.000314997
0.000336068
0.000361646
0.000392489
0.000429531
0.00047392
0.000527078
0.000590772
0.000667223
0.000759268
0.000870614
0.00100624
0.00117305
0.00138093
0.00164446
0.00198557
0.00243755
0.00305054
0.00389764
0.00507773
0.00670552
0.00887194
0.0115608
0.0145388
0.0171135
0.0182136
0.0185182
0.0194187
0.0247969
0.0431874
0.0652323
0.027322
0.0264288
0.0172442
0.0137569
0.0123276
0.0111706
0.00975635
0.00807022
0.00632269
0.00476656
0.00355534
0.00270319
0.0021383
0.0017709
0.0015282
0.00136005
0.00123428
0.00113147
0.00104101
0.000957935
0.000880417
0.000808111
0.000741144
0.000679645
0.000623584
0.000572776
0.000526923
0.000485675
0.000448673
0.000415569
0.000386046
0.000359821
0.000336638
0.000316276
0.000298536
0.000283247
0.000270258
0.000259443
0.000250694
0.00024393
0.000239093
0.000236436
0.000235524
0.000236166
0.000238986
0.000243974
0.000251258
0.000261049
0.000273634
0.000289379
0.000308749
0.000332324
0.000360823
0.000395134
0.000436354
0.000485835
0.000545256
0.000616714
0.000702862
0.000807124
0.000934038
0.00108982
0.00128331
0.0015275
0.00184206
0.00225729
0.00281992
0.00360065
0.0047007
0.00624909
0.00837234
0.0111123
0.0142877
0.0173869
0.0189718
0.0193419
0.0196074
0.0233889
0.0391772
0.0620736
0.0261459
0.0253355
0.0171195
0.013495
0.0119783
0.0107958
0.00940269
0.0077637
0.00607171
0.00456786
0.00340156
0.00258573
0.00204856
0.00170118
0.00147207
0.0013125
0.00119178
0.00109186
0.0010032
0.000921504
0.000845311
0.000774414
0.000708947
0.000648994
0.000594472
0.000545148
0.000500695
0.000460749
0.000424942
0.000392929
0.000364398
0.000339068
0.000316691
0.000297045
0.000279937
0.000265194
0.000252666
0.000242222
0.000233755
0.000227179
0.00022243
0.000219706
0.000218712
0.000219125
0.00022156
0.000226019
0.000232617
0.000241549
0.000253079
0.000267552
0.000285405
0.000307187
0.000333581
0.000365434
0.000403796
0.000449963
0.000505543
0.000572534
0.000653451
0.000751498
0.000870868
0.00101722
0.0011985
0.00142633
0.00171831
0.00210184
0.00262
0.00333995
0.00436234
0.00582521
0.00788495
0.0106452
0.0140105
0.0174992
0.0196969
0.0202185
0.0202298
0.0226134
0.0356746
0.0582918
0.0249307
0.024251