/*--------------------------------*- C++ -*----------------------------------*\
  =========                 |
  \\      /  F ield         | OpenFOAM: The Open Source CFD Toolbox
   \\    /   O peration     | Website:  https://openfoam.org
    \\  /    A nd           | Version:  13
     \\/     M anipulation  |
\*---------------------------------------------------------------------------*/
FoamFile
{
    format      ascii;
    class       volScalarField;
    location    "8.4";
    object      k;
}
// * * * * * * * * * * * * * * * * * * * * * * * * * * * * * * * * * * * * * //

dimensions      [0 2 -2 0 0 0 0];

internalField   nonuniform List<scalar> 
6400
(
5.65903e-07
2.90545e-06
7.06036e-06
1.13664e-05
1.4604e-05
1.64142e-05
1.70634e-05
1.71148e-05
1.72049e-05
1.78123e-05
1.93092e-05
2.22698e-05
2.69588e-05
3.3482e-05
4.14939e-05
5.05495e-05
6.01818e-05
7.0204e-05
8.01313e-05
8.9727e-05
9.93809e-05
0.000109926
0.000122472
0.000137644
0.000154769
0.000171995
0.00018912
0.00020613
0.000223568
0.000241887
0.000260823
0.000279747
0.000298355
0.000316716
0.000335278
0.00035416
0.000373739
0.000394139
0.000415605
0.000438197
0.00046208
0.00048744
0.000514419
0.000543307
0.000574368
0.000608664
0.000648233
0.000697397
0.000746404
0.000796479
0.000845404
0.000892914
0.000937445
0.000977784
0.00101243
0.00103959
0.00105331
0.00105875
0.00105628
0.00103576
0.000999735
0.000948354
0.000882127
0.000803863
0.000714919
0.00061993
0.00052347
0.000429198
0.000340605
0.000261742
0.000197516
0.000143618
0.000100091
6.68486e-05
4.29344e-05
2.6648e-05
1.60317e-05
9.19866e-06
4.34603e-06
9.25597e-07
2.73254e-06
2.29526e-05
5.56571e-05
8.6906e-05
0.000109944
0.000123631
0.000130114
0.000132704
0.000135015
0.000140153
0.000151612
0.000173478
0.000206883
0.000251189
0.000304299
0.000363504
0.000426366
0.000490411
0.000553784
0.000615828
0.000678698
0.000746864
0.000825875
0.000918077
0.00101928
0.00112046
0.00121889
0.00131259
0.00140258
0.00148984
0.00157258
0.00164981
0.0017201
0.00178441
0.00184508
0.00190297
0.00196006
0.0020172
0.00207571
0.00213614
0.00219919
0.00226555
0.00233528
0.00240854
0.00248469
0.00256367
0.00264366
0.00272182
0.0028056
0.00289141
0.00297964
0.00306679
0.00315129
0.00322942
0.00329785
0.00335248
0.00338121
0.00339024
0.00337837
0.0033326
0.00324915
0.00312762
0.00296634
0.00276898
0.00253997
0.002288
0.00202428
0.00175692
0.00149366
0.00123885
0.000996322
0.000775836
0.000583914
0.000423475
0.000295102
0.000196902
0.000125679
7.5677e-05
3.66705e-05
4.89519e-06
5.96446e-06
4.96775e-05
0.000115358
0.000170251
0.000207517
0.000229449
0.000241503
0.000249713
0.000260142
0.000278763
0.000311452
0.000363078
0.000435395
0.000526593
0.000632604
0.000749158
0.000872903
0.00100105
0.00113094
0.00126034
0.00138759
0.00151193
0.00163126
0.00174027
0.00183407
0.00190896
0.00196243
0.00199997
0.00202921
0.00205714
0.00208775
0.00212021
0.00215513
0.00219008
0.00222861
0.00226988
0.00231563
0.00236575
0.00242129
0.00248222
0.00254832
0.00262028
0.00269745
0.00278007
0.00286801
0.00296118
0.00305878
0.00316211
0.00327089
0.00338346
0.00349884
0.00361476
0.003729
0.00383819
0.00393854
0.00402531
0.0040933
0.00412997
0.00414076
0.00412143
0.00405728
0.00394785
0.00378879
0.00358236
0.00333074
0.00304188
0.002732
0.00240981
0.0020857
0.00177015
0.00147202
0.00119802
0.000953157
0.000739913
0.000559173
0.000410179
0.000289627
0.000189989
9.64377e-05
1.30979e-05
1.03369e-05
8.32914e-05
0.000180808
0.000253894
0.000301635
0.000331162
0.000351047
0.000369853
0.000396002
0.000437749
0.000502479
0.000594782
0.000714474
0.000856782
0.00101476
0.00118174
0.00135182
0.00151925
0.00167784
0.0018217
0.00194517
0.00204641
0.00212289
0.00216779
0.00218695
0.00219152
0.00218733
0.00218503
0.00218474
0.00219067
0.0022018
0.00221635
0.00223599
0.00226048
0.00229029
0.00232513
0.00236564
0.00241168
0.00246323
0.00252062
0.00258379
0.00265304
0.00272819
0.00280927
0.00289582
0.00298825
0.00308739
0.00319295
0.00330451
0.00342116
0.00354191
0.00366508
0.00378856
0.00390946
0.00402421
0.0041283
0.0042166
0.00428112
0.00431147
0.00431649
0.00427845
0.00419547
0.0040701
0.00389464
0.00366614
0.00338587
0.00307068
0.00273141
0.00238346
0.00204095
0.0017159
0.00141706
0.00114957
0.000915508
0.000714961
0.000546295
0.000405125
0.000281816
0.000153264
2.184e-05
1.65557e-05
0.000128149
0.000258247
0.00034874
0.000407099
0.000445632
0.000476356
0.000510718
0.000559699
0.000633374
0.000739059
0.000878728
0.0010478
0.00123689
0.00143506
0.00163196
0.00181806
0.00198435
0.00212163
0.00222572
0.00228586
0.00230907
0.00231095
0.00228108
0.00225097
0.00222403
0.00220215
0.00218754
0.00218074
0.00217888
0.00218115
0.00218856
0.0022006
0.00221689
0.0022374
0.00226199
0.00229062
0.00232293
0.00235899
0.00239898
0.00244296
0.00249137
0.00254487
0.00260432
0.00267057
0.00274369
0.00282342
0.00291022
0.00300426
0.0031056
0.00321401
0.00332895
0.00344939
0.00357379
0.0037
0.00382449
0.0039427
0.00404903
0.00413684
0.00419025
0.00420909
0.00418592
0.00410586
0.00397042
0.00378845
0.00354832
0.00325143
0.00291575
0.00255856
0.00219826
0.00185199
0.00153304
0.00124916
0.0010029
0.000793443
0.000617688
0.000469798
0.000337591
0.000191962
2.79092e-05
2.54256e-05
0.000187611
0.000352263
0.00046097
0.000531375
0.000581214
0.000626361
0.000681425
0.000759615
0.000871278
0.00102112
0.00120595
0.00141518
0.00163409
0.00184732
0.00204073
0.00220207
0.002324
0.00238928
0.00241079
0.002398
0.00235301
0.00230822
0.00226476
0.00222448
0.00218948
0.00216098
0.00213868
0.00212108
0.00210686
0.00209579
0.00208901
0.00208576
0.00208474
0.00208595
0.00209039
0.00209718
0.00210675
0.0021192
0.00213494
0.00215425
0.00217782
0.00220551
0.00223786
0.00227538
0.00231858
0.00236822
0.00242525
0.00249065
0.00256549
0.00265069
0.00274707
0.00285509
0.00297457
0.00310442
0.00324315
0.00338784
0.00353399
0.00367546
0.00380311
0.00390801
0.00396127
0.00397509
0.00392806
0.00381616
0.00364166
0.00338825
0.00307368
0.0027159
0.00233815
0.00196489
0.00161723
0.00130914
0.00104598
0.000826544
0.000645648
0.000495062
0.0003602
0.000209294
3.0176e-05
3.77286e-05
0.00026362
0.000465218
0.000593463
0.000677624
0.000741251
0.000804315
0.000884313
0.000995374
0.00114572
0.00133482
0.00155267
0.00178235
0.00200436
0.00220027
0.00235488
0.00244853
0.0024836
0.00248144
0.00243214
0.00237856
0.00231594
0.00225558
0.00219545
0.00214194
0.00209586
0.00205583
0.00201994
0.0019875
0.00195882
0.00193419
0.00191252
0.00189302
0.00187559
0.00186041
0.0018476
0.00183705
0.00182906
0.00182413
0.00182201
0.00182165
0.00182503
0.00183156
0.00184178
0.00185611
0.00187489
0.00189901
0.00192917
0.00196657
0.00201272
0.00206947
0.00213882
0.00222303
0.00232426
0.00244347
0.00258125
0.00273854
0.00291179
0.00309563
0.00328305
0.0034661
0.00362872
0.00374493
0.00379354
0.0037933
0.00370274
0.0035353
0.00326666
0.00292289
0.00253051
0.00212212
0.00173015
0.00137992
0.00108446
0.000844351
0.000652505
0.000496374
0.000358961
0.000208283
2.93264e-05
5.41881e-05
0.000357219
0.00059776
0.000746895
0.000846423
0.000925919
0.00100928
0.0011159
0.00125884
0.00144172
0.00165706
0.00188784
0.00211178
0.0023064
0.0024534
0.00252613
0.00254516
0.00251426
0.00245874
0.00238321
0.00230012
0.00221314
0.00213592
0.00206623
0.002007
0.00195269
0.00190322
0.00185729
0.00181494
0.00177606
0.0017404
0.00170757
0.00167755
0.00165046
0.00162638
0.00160536
0.00158721
0.00157192
0.00155952
0.0015499
0.00154326
0.00154009
0.0015391
0.00154099
0.00154692
0.00155619
0.00156972
0.00158782
0.00161111
0.00164011
0.00167578
0.00171926
0.00177229
0.0018375
0.00191944
0.00202373
0.00215429
0.00231606
0.00250814
0.00272189
0.00295367
0.00318931
0.00341306
0.00360015
0.00369586
0.00372073
0.0036607
0.00349444
0.00319683
0.00280919
0.00236915
0.00192121
0.00150714
0.00115549
0.000875684
0.000660173
0.000492212
0.000350634
0.000201684
2.72868e-05
7.53085e-05
0.000468198
0.000749253
0.000920359
0.00103637
0.00113268
0.00123649
0.00136765
0.00153602
0.00173897
0.00196183
0.00218181
0.00237381
0.00251067
0.00257162
0.00258028
0.00253627
0.0024681
0.00237181
0.00226158
0.00215903
0.00206854
0.00198787
0.00191509
0.00184954
0.00178827
0.00173168
0.00167914
0.00163096
0.00158707
0.00154749
0.00151216
0.00148113
0.00145431
0.00143147
0.00141243
0.00139698
0.00138489
0.00137588
0.00137
0.00136724
0.00136641
0.00136788
0.00137257
0.00137988
0.00138988
0.00140277
0.00141867
0.00143787
0.00146069
0.00148758
0.00151912
0.00155604
0.0015994
0.00165075
0.00171258
0.00178859
0.00188583
0.0020176
0.00219976
0.00242903
0.00269205
0.00297598
0.0032584
0.00351037
0.00365738
0.00370533
0.00367154
0.00349958
0.00316039
0.00271648
0.00221961
0.00172861
0.00129461
0.000946206
0.000685353
0.000493146
0.000337938
0.000188305
2.49654e-05
0.000101284
0.000594839
0.000917697
0.00111156
0.00124424
0.00135651
0.00147796
0.00162737
0.00180994
0.00201627
0.00222559
0.00241181
0.00254196
0.00259629
0.00260014
0.00255374
0.00246821
0.00234813
0.00222142
0.00210651
0.00200326
0.00191158
0.00182853
0.00175261
0.00168291
0.00161846
0.00155985
0.00150697
0.00146016
0.00141933
0.00138439
0.00135509
0.00133109
0.00131192
0.00129712
0.00128614
0.00127847
0.0012742
0.0012724
0.00127208
0.00127438
0.00127842
0.00128443
0.00129233
0.00130203
0.00131359
0.00132717
0.00134292
0.001361
0.00138161
0.00140499
0.00143144
0.00146129
0.00149494
0.00153281
0.00157585
0.00162554
0.00168466
0.00175878
0.00185692
0.00199562
0.00220647
0.00248752
0.00280831
0.00314826
0.00346403
0.00366276
0.00373213
0.00371369
0.00352449
0.00313149
0.00262152
0.00206392
0.00153328
0.00108765
0.000749889
0.000510157
0.000333621
0.000176208
2.30679e-05
0.000132576
0.000733353
0.00109998
0.00131689
0.00146509
0.0015903
0.00172355
0.00188143
0.00206382
0.00225535
0.00243127
0.00255622
0.00260737
0.0026092
0.00256251
0.00246279
0.00232574
0.0021877
0.0020589
0.00194482
0.00184254
0.00175062
0.00166683
0.00159054
0.00152151
0.00145981
0.0014059
0.00135969
0.0013211
0.00128964
0.00126473
0.00124562
0.00123155
0.0012217
0.00121554
0.0012126
0.00121163
0.00121223
0.00121516
0.00121928
0.00122507
0.0012321
0.00124057
0.00125041
0.00126171
0.00127457
0.00128913
0.0013055
0.00132381
0.00134419
0.00136677
0.00139168
0.00141907
0.00144917
0.00148234
0.00151841
0.00155781
0.00160107
0.00165005
0.00170844
0.00178473
0.00189376
0.00206003
0.00232981
0.00268203
0.0030698
0.00344907
0.00369655
0.0037836
0.00376698
0.00354357
0.00308384
0.00250079
0.00188507
0.00132616
0.000881935
0.000562485
0.000344075
0.000173174
2.24416e-05
0.000170636
0.000879256
0.00129237
0.00153156
0.00169264
0.0018257
0.00196251
0.00211686
0.00228373
0.00244347
0.00256224
0.00261187
0.00261355
0.00256755
0.00245957
0.00231167
0.00216155
0.00202123
0.00189536
0.00178396
0.00168385
0.00159384
0.00151289
0.0014411
0.00137862
0.00132555
0.00128179
0.00124671
0.00121953
0.00119917
0.00118459
0.0011747
0.00116878
0.00116599
0.00116509
0.00116555
0.00116792
0.00117135
0.00117605
0.0011817
0.0011885
0.0011964
0.00120557
0.00121608
0.0012281
0.00124177
0.00125728
0.00127475
0.00129433
0.00131613
0.00134022
0.00136659
0.00139518
0.00142588
0.00145851
0.00149297
0.00152936
0.00156814
0.00160876
0.00165202
0.00170088
0.00176251
0.00185027
0.00198961
0.0022229
0.00259146
0.00301906
0.0034607
0.00374689
0.00384444
0.00381242
0.00353187
0.00299143
0.0023325
0.00167093
0.001102
0.000674061
0.00038226
0.000180797
2.32847e-05
0.000212893
0.00103271
0.00149075
0.00175006
0.00192
0.00205428
0.00218492
0.0023231
0.00246015
0.00256896
0.00261662
0.00261889
0.00257366
0.00246336
0.00230882
0.00214701
0.00199482
0.00185799
0.00173694
0.00162971
0.0015341
0.00144967
0.00137616
0.00131378
0.00126233
0.00122129
0.00118967
0.00116617
0.00114942
0.00113804
0.00113079
0.001127
0.00112536
0.00112496
0.00112568
0.00112758
0.00113042
0.00113402
0.00113849
0.00114387
0.00115031
0.00115793
0.00116691
0.00117741
0.00118962
0.00120372
0.00121989
0.00123831
0.00125916
0.00128258
0.00130866
0.00133745
0.00136888
0.00140276
0.00143873
0.00147628
0.00151482
0.00155383
0.00159323
0.00163364
0.00167408
0.00171715
0.00176864
0.0018413
0.0019597
0.00216744
0.00253267
0.00299951
0.00349593
0.00380426
0.00389992
0.00383106
0.00346365
0.00282764
0.00210211
0.00141469
0.000859893
0.000467863
0.0002075
2.6776e-05
0.000258134
0.00119
0.00169011
0.00196651
0.00214038
0.00226841
0.00238286
0.00249307
0.00258573
0.00262848
0.00263067
0.00258495
0.00247649
0.00231855
0.00214692
0.00198219
0.00183389
0.00170311
0.00158833
0.00148758
0.00139976
0.00132483
0.00126255
0.00121251
0.00117369
0.00114469
0.00112383
0.0011094
0.00109984
0.00109379
0.00109022
0.00108844
0.00108766
0.00108745
0.0010879
0.00108912
0.00109096
0.00109354
0.001097
0.00110146
0.00110711
0.00111412
0.00112266
0.00113291
0.00114505
0.00115927
0.00117577
0.00119474
0.00121638
0.00124089
0.00126846
0.00129922
0.00133321
0.00137038
0.00141045
0.00145291
0.00149693
0.00154142
0.00158519
0.00162737
0.00166814
0.00170729
0.00174653
0.00179073
0.00185325
0.00195901
0.00215472
0.00251008
0.00301289
0.00355497
0.00385864
0.00393531
0.0038044
0.00330633
0.00257773
0.00180055
0.00111863
0.000609224
0.000265073
3.51083e-05
0.000304884
0.00134698
0.00188533
0.00217515
0.00234759
0.00246198
0.00255107
0.00262222
0.00265515
0.00265477
0.00260573
0.00250113
0.0023425
0.00216306
0.00198586
0.0018247
0.00168327
0.00156023
0.00145365
0.00136217
0.00128525
0.00122252
0.00117308
0.00113559
0.00110816
0.00108879
0.00107551
0.00106658
0.0010606
0.00105654
0.00105367
0.00105153
0.0010498
0.0010485
0.00104785
0.00104766
0.00104807
0.00104942
0.00105182
0.0010554
0.00106033
0.00106679
0.00107492
0.0010849
0.00109687
0.00111103
0.00112755
0.00114664
0.00116852
0.00119344
0.00122163
0.00125335
0.00128881
0.00132812
0.00137126
0.00141796
0.00146759
0.00151905
0.00157073
0.00162066
0.00166692
0.00170871
0.00174542
0.0017812
0.00182226
0.00187785
0.00197752
0.00216722
0.00252606
0.00306484
0.00363085
0.00390067
0.00393852
0.0037028
0.00304973
0.00222736
0.00143339
0.000798582
0.00035129
4.83547e-05
0.000351768
0.00149961
0.00207167
0.00237098
0.00253648
0.00263064
0.00268462
0.00270605
0.00269655
0.00264107
0.00253993
0.0023823
0.00219706
0.0020079
0.00183256
0.00167854
0.00154581
0.00143217
0.00133595
0.00125611
0.00119185
0.001142
0.00110472
0.00107782
0.00105893
0.00104585
0.00103673
0.00103013
0.00102503
0.00102076
0.00101695
0.00101345
0.00101024
0.00100744
0.00100521
0.00100383
0.00100331
0.00100343
0.00100505
0.001008
0.00101243
0.0010185
0.00102634
0.00103608
0.00104786
0.00106184
0.00107819
0.00109711
0.00111882
0.00114358
0.00117166
0.0012034
0.00123911
0.00127912
0.00132364
0.00137277
0.00142628
0.00148351
0.00154314
0.00160309
0.00166049
0.00171217
0.00175782
0.00179285
0.00182031
0.0018576
0.00191194
0.0020094
0.00220163
0.00257863
0.00316046
0.00371205
0.00393762
0.00389695
0.00346987
0.00266417
0.00178413
0.00102433
0.000458751
6.5359e-05
0.000397857
0.00164357
0.0022454
0.00255074
0.00270243
0.00276628
0.00278177
0.00275992
0.00269569
0.00259637
0.00243992
0.00225058
0.00205035
0.00185979
0.00169076
0.00154594
0.00142337
0.00132076
0.00123655
0.00116947
0.00111792
0.00107976
0.00105237
0.00103311
0.00101955
0.00100971
0.00100209
0.000995689
0.000989886
0.000984375
0.000979063
0.000973999
0.000969314
0.000965183
0.000961777
0.000959285
0.000958055
0.000957682
0.000958596
0.000961181
0.000965301
0.000971115
0.000978738
0.000988278
0.000999861
0.00101362
0.00102971
0.00104831
0.00106963
0.00109391
0.00112146
0.00115261
0.00118774
0.0012273
0.0012717
0.00132132
0.00137637
0.00143674
0.00150179
0.00157004
0.00163893
0.00170471
0.0017627
0.00181238
0.00184676
0.00186487
0.00189763
0.00195275
0.00205246
0.00225635
0.00266716
0.00329221
0.00378467
0.00393911
0.00376001
0.00308309
0.00215702
0.00127733
0.000581113
8.50479e-05
0.000442154
0.00177762
0.00240311
0.00270706
0.00283873
0.00287382
0.00285282
0.00278262
0.0026731
0.00251801
0.00232542
0.00211526
0.00190892
0.00172242
0.00156232
0.00142806
0.00131687
0.00122641
0.00115488
0.00110024
0.00105998
0.00103116
0.00101081
0.000996258
0.000985347
0.000976514
0.000968729
0.000961401
0.00095426
0.000947255
0.000940466
0.000934048
0.00092818
0.000923043
0.000918804
0.000915615
0.000913896
0.000913273
0.000913686
0.00091603
0.000919934
0.000925548
0.000932984
0.000942331
0.000953702
0.000967214
0.000983008
0.00100124
0.00102211
0.00104583
0.00107268
0.001103
0.00113718
0.00117568
0.00121904
0.00126781
0.00132252
0.00138355
0.00145093
0.00152406
0.00160132
0.00167968
0.00175439
0.00181909
0.00187293
0.00190122
0.00191451
0.00194177
0.0019992
0.00210637
0.00233426
0.00280383
0.00347037
0.0038281
0.0038726
0.00345754
0.00254231
0.00155359
0.000714407
0.000106481
0.000482974
0.00189819
0.0025397
0.00283734
0.00294685
0.00295783
0.00289421
0.00277635
0.00262122
0.00242388
0.0022047
0.00198268
0.00177662
0.00159762
0.00144799
0.00132524
0.00122617
0.00114821
0.00108885
0.0010452
0.00101397
0.000991836
0.000975846
0.000963632
0.000953495
0.000944347
0.00093558
0.00092694
0.000918394
0.000910045
0.000902057
0.000894613
0.000887896
0.000882069
0.000877277
0.000873645
0.000871572
0.000870773
0.000870834
0.000872945
0.00087664
0.000882044
0.000889265
0.000898387
0.000909513
0.000922754
0.000938236
0.000956103
0.000976526
0.000999708
0.00102589
0.00105539
0.00108856
0.00112586
0.00116783
0.00121511
0.0012684
0.00132839
0.00139564
0.00147035
0.00155196
0.0016387
0.00172702
0.0018111
0.00188284
0.00193593
0.00195725
0.00196628
0.00198935
0.00205107
0.00217262
0.0024461
0.00300028
0.00362729
0.0038704
0.00370062
0.00291922
0.00184949
0.000856124
0.000128966
0.000518861
0.00200232
0.00265306
0.00294147
0.00303183
0.00301571
0.00291028
0.00275203
0.00254967
0.00232106
0.00208379
0.00185686
0.00165543
0.00148599
0.00134774
0.00123701
0.00115021
0.00108419
0.00103562
0.00100086
0.000976207
0.000958342
0.000944613
0.000933124
0.000922666
0.000912579
0.000902589
0.000892667
0.000882919
0.000873514
0.000864638
0.000856469
0.000849165
0.000842862
0.00083768
0.000833723
0.000831296
0.000830265
0.000830139
0.000831919
0.000835359
0.000840498
0.000847445
0.000856286
0.000867119
0.000880051
0.000895204
0.00091271
0.000932724
0.000955429
0.000981041
0.00100983
0.00104212
0.00107832
0.00111894
0.00116462
0.00121609
0.00127422
0.00133989
0.00141385
0.00149644
0.00158713
0.00168384
0.00178227
0.00187508
0.0019518
0.00200049
0.00201426
0.00201872
0.00204015
0.00210834
0.00225649
0.00260593
0.00324691
0.00370913
0.00378873
0.00326768
0.00215979
0.00100165
0.000152418
0.000549018
0.00208883
0.00274281
0.00302031
0.00309483
0.00304865
0.00290414
0.00270434
0.00246744
0.00221505
0.00196676
0.00174007
0.00154611
0.00138743
0.00126098
0.00116227
0.0010872
0.00103188
0.00099223
0.000964139
0.00094386
0.000928361
0.000915454
0.000903741
0.000892453
0.000881261
0.000870117
0.00085912
0.000848439
0.000838257
0.000828745
0.000820057
0.000812322
0.000805651
0.00080014
0.000795874
0.00079305
0.000791743
0.000791442
0.000792797
0.000795908
0.00080071
0.000807313
0.000815805
0.000826288
0.000838869
0.000853664
0.000870803
0.00089043
0.000912711
0.000937841
0.000966052
0.000997632
0.00103294
0.00107243
0.00111668
0.00116641
0.0012225
0.00128598
0.00135795
0.00143938
0.00153076
0.0016315
0.00173916
0.00184842
0.00195019
0.00202788
0.00206414
0.00207086
0.00207116
0.00209321
0.00217379
0.00236943
0.00284342
0.00350008
0.00376729
0.00352537
0.002474
0.00114885
0.000176632
0.000573005
0.00215775
0.00281002
0.00307567
0.00313546
0.00305955
0.00288342
0.00264489
0.00237945
0.00210989
0.00185621
0.00163342
0.00144868
0.0013013
0.00118663
0.00109946
0.00103505
0.000988782
0.00095606
0.000932633
0.000914983
0.000900524
0.000887573
0.00087518
0.000862921
0.000850698
0.000838591
0.00082676
0.000815384
0.00080463
0.000794645
0.000785551
0.000777454
0.000770443
0.000764598
0.000759996
0.000756715
0.000755076
0.000754564
0.000755418
0.000758124
0.00076252
0.00076871
0.000776792
0.000786868
0.000799048
0.00081345
0.000830202
0.000849442
0.000871328
0.000896037
0.000923778
0.000954801
0.000989419
0.00102803
0.00107113
0.00111938
0.00117361
0.00123487
0.00130439
0.00138349
0.00147338
0.00157463
0.00168644
0.0018056
0.00192537
0.00203471
0.00210564
0.00212666
0.00212702
0.00211985
0.0021499
0.00225403
0.00253627
0.0031488
0.00360048
0.00363793
0.00279053
0.00131032
0.000203197
0.000590758
0.00220975
0.00285609
0.00310943
0.00315566
0.00305324
0.00284487
0.00257719
0.00228946
0.00200839
0.00175362
0.00153722
0.00136264
0.00122665
0.00112334
0.00104681
0.000991657
0.000952688
0.000925063
0.00090467
0.000888392
0.000874142
0.000860702
0.000847485
0.00083431
0.000821219
0.000808355
0.000795891
0.000783989
0.000772791
0.000762415
0.000752961
0.000744512
0.000737144
0.000730928
0.000725932
0.000722221
0.000720139
0.000719369
0.000719685
0.000721917
0.00072585
0.000731575
0.000739194
0.000748814
0.000760548
0.000774517
0.000790849
0.000809685
0.000831175
0.000855489
0.000882819
0.000913389
0.000947473
0.000985412
0.00102764
0.00107474
0.00112745
0.00118675
0.00125388
0.00133032
0.00141769
0.00151741
0.00163009
0.0017544
0.00188562
0.00201401
0.0021237
0.00218087
0.00219044
0.00217476
0.00216248
0.0022112
0.00236695
0.00281308
0.00344298
0.00365704
0.00310158
0.00151097
0.000237281
0.000602567
0.00224588
0.00288207
0.00312187
0.00315516
0.00303366
0.00279669
0.00250486
0.00220033
0.00191238
0.0016597
0.00145124
0.00128722
0.00116232
0.00106963
0.00100257
0.000955152
0.000921823
0.000897763
0.000879185
0.00086345
0.000848946
0.000834843
0.000820823
0.000806862
0.000793075
0.000779624
0.000766667
0.000754343
0.000742767
0.000732033
0.000722222
0.000713407
0.000705657
0.000699039
0.00069362
0.000689472
0.000686853
0.000685727
0.000685598
0.000687278
0.000690711
0.000695934
0.000703053
0.000712178
0.000723425
0.00073692
0.000752796
0.000771193
0.000792265
0.000816178
0.000843113
0.000873282
0.000906928
0.000944352
0.000985932
0.00103216
0.00108369
0.0011414
0.00120644
0.0012803
0.00136477
0.00146181
0.00157311
0.0016992
0.00183809
0.00198343
0.00212263
0.00221859
0.00225139
0.00224908
0.00221543
0.00220502
0.0022858
0.00254923
0.00316992
0.00354668
0.00334843
0.00176569
0.000283305
0.000608463
0.00226643
0.00288908
0.00311856
0.00314384
0.00299928
0.00274131
0.00243064
0.00211411
0.00182298
0.00157462
0.00137497
0.00122146
0.00110709
0.00102405
0.00096516
0.000923986
0.000894861
0.000873172
0.000855559
0.000839862
0.000824885
0.000810099
0.000795369
0.000780762
0.000766422
0.000752502
0.00073914
0.000726448
0.000714518
0.000703431
0.000693255
0.000684059
0.000675907
0.00066887
0.000663019
0.000658432
0.000655217
0.000653632
0.000653191
0.000654263
0.000657173
0.000661875
0.000668472
0.000677074
0.000687803
0.000700788
0.000716167
0.000734086
0.0007547
0.000778179
0.000804703
0.000834475
0.000867724
0.000904719
0.000945795
0.000991377
0.00104203
0.00109851
0.00116187
0.00123348
0.00131515
0.00140905
0.00151749
0.00164223
0.00178324
0.0019367
0.00209266
0.00223305
0.00230769
0.00232024
0.00228801
0.00224887
0.00226032
0.00240717
0.00288621
0.00340627
0.0034656
0.0020704
0.000341103
0.000608111
0.00227423
0.00288417
0.00310403
0.00311776
0.00295594
0.0026814
0.00235669
0.00203223
0.00174076
0.0014982
0.00130772
0.00116435
0.00105972
0.000985239
0.000933221
0.000896963
0.000870871
0.000850672
0.000833465
0.000817528
0.000802005
0.000786585
0.000771253
0.000756119
0.000741327
0.000727015
0.000713294
0.000700258
0.000687984
0.000676539
0.00066599
0.000656402
0.000647842
0.00064038
0.000634087
0.000629039
0.000625309
0.000623222
0.000622477
0.000622961
0.000625344
0.000629521
0.000635586
0.000643652
0.00065384
0.000666285
0.000681129
0.000698524
0.000718633
0.000741631
0.000767701
0.000797048
0.000829893
0.00086649
0.00090714
0.000952219
0.00100221
0.00105778
0.00111983
0.00118962
0.00126885
0.00135974
0.00146497
0.00158726
0.0017284
0.00188742
0.00205797
0.00222561
0.00234594
0.00238656
0.00237736
0.00230282
0.00226799
0.0023348
0.00264328
0.00326553
0.00349448
0.00241397
0.00040832
0.0006049
0.00227222
0.00286808
0.00307422
0.00307916
0.00290555
0.00261903
0.00228461
0.00195562
0.00166592
0.00143005
0.0012487
0.00111489
0.00101909
0.000952041
0.000905673
0.000873196
0.000849226
0.000829895
0.000812746
0.000796436
0.00078037
0.000764391
0.000748552
0.000732978
0.000717803
0.000703141
0.000689088
0.000675718
0.0006631
0.000651298
0.000640376
0.0006304
0.000621438
0.000613561
0.000606842
0.000601353
0.000597167
0.000594566
0.000593504
0.00059348
0.00059534
0.000599001
0.000604539
0.000612063
0.000621697
0.000633578
0.000647854
0.000664684
0.000684237
0.000706697
0.000732257
0.000761125
0.000793527
0.00082971
0.000869959
0.000914611
0.000964095
0.00101898
0.00108005
0.0011484
0.0012256
0.00131375
0.00141562
0.00153441
0.00167312
0.00183293
0.00201051
0.00219427
0.00236081
0.00244549
0.00245808
0.00240044
0.00231804
0.00231057
0.00247985
0.00304055
0.00341311
0.0027568
0.000477924
0.000597783
0.00226349
0.00283814
0.00303408
0.00303186
0.00285014
0.00255587
0.00221555
0.00188482
0.0015984
0.00136964
0.00119711
0.00107214
0.000984191
0.000923477
0.000881676
0.00085205
0.000829518
0.000810631
0.000793338
0.000776603
0.000760032
0.000743566
0.000727294
0.000711341
0.000695825
0.00068084
0.000666467
0.000652771
0.000639816
0.000627664
0.000616381
0.000606035
0.000596695
0.000588433
0.000581324
0.000575441
0.000570865
0.000567748
0.000566268
0.000565941
0.000567271
0.000570432
0.000575455
0.000582443
0.00059152
0.000602822
0.000616504
0.00063273
0.000651678
0.000673542
0.000698527
0.000726852
0.00075875
0.000794473
0.000834298
0.000878544
0.000927597
0.000981955
0.00104229
0.00110957
0.00118516
0.00127102
0.00136986
0.00148513
0.00162067
0.00177961
0.00196197
0.00216093
0.00235832
0.00249214
0.00253061
0.00250173
0.00237728
0.00231852
0.00239877
0.00282968
0.00327744
0.00302783
0.000534017
0.000586681
0.00224507
0.00279935
0.00298644
0.0029778
0.00279145
0.0024932
0.00215031
0.0018201
0.001538
0.00131641
0.00115218
0.00103522
0.000954148
0.000898755
0.000860593
0.00083308
0.000811484
0.000792763
0.000775213
0.000758049
0.000741017
0.000724125
0.000707475
0.000691185
0.000675353
0.000660063
0.000645382
0.000631371
0.000618093
0.00060561
0.000593991
0.000583304
0.000573621
0.000565016
0.00055756
0.000551328
0.000546395
0.000542837
0.000540957
0.000540371
0.000541215
0.000543904
0.000548435
0.0005549
0.000563422
0.00057414
0.000587209
0.0006028
0.000621101
0.000642315
0.00066666
0.00069437
0.000725691
0.000760887
0.000800239
0.000844059
0.000892706
0.000946627
0.00100641
0.00107288
0.00114724
0.00123124
0.0013274
0.00143918
0.00157083
0.00172663
0.00190893
0.00211444
0.00232954
0.00251476
0.00259498
0.00259676
0.00248565
0.00236483
0.00236058
0.00265504
0.00315114
0.00315646
0.000559799
0.000572212
0.00221988
0.00275367
0.00293271
0.00291896
0.00273091
0.00243203
0.00208943
0.0017615
0.00148437
0.00126976
0.00111318
0.00100336
0.000928229
0.000877246
0.000841946
0.000815972
0.000794954
0.000776218
0.000758358
0.000740779
0.000723331
0.00070606
0.000689071
0.00067247
0.000656344
0.000640763
0.000625789
0.000611481
0.000597901
0.000585116
0.000573194
0.000562206
0.000552226
0.000543323
0.00053557
0.000529035
0.000523785
0.000519889
0.00051763
0.000516804
0.000517223
0.000519474
0.000523538
0.000529501
0.00053748
0.000547614
0.00056006
0.000574996
0.000592615
0.000613132
0.000636778
0.000663803
0.000694472
0.000729063
0.000767873
0.000811216
0.000859443
0.000912965
0.000972303
0.00103817
0.00111161
0.00119416
0.00128814
0.00139684
0.00152473
0.00167697
0.00185798
0.00206796
0.00229737
0.00252061
0.00265346
0.00268051
0.0026004
0.00241708
0.00235093
0.00250086
0.00304394
0.00319259
0.000564219
0.000555203
0.00219005
0.00270283
0.00287437
0.00285694
0.00266972
0.00237307
0.00203318
0.00170896
0.00143714
0.00122914
0.00107946
0.000975901
0.000905824
0.000858454
0.000825381
0.000800507
0.000779812
0.00076095
0.000742756
0.000724786
0.000706958
0.000689344
0.000672045
0.000655156
0.000638752
0.000622897
0.00060765
0.000593069
0.000579218
0.000566166
0.000553983
0.00054274
0.00053251
0.000523362
0.000515362
0.000508577
0.000503068
0.000498897
0.000496298
0.000495247
0.00049531
0.000497161
0.00050079
0.000506274
0.000513727
0.000523286
0.000535109
0.000549376
0.000566289
0.000586071
0.000608969
0.000635247
0.00066519
0.000699098
0.000737287
0.000780086
0.000827848
0.000880969
0.000939921
0.00100533
0.00107809
0.00115954
0.00125174
0.00135777
0.001482
0.00163005
0.00180782
0.0020186
0.00225785
0.00250636
0.0026953
0.00275593
0.00271504
0.00251855
0.00237896
0.00242599
0.00287664
0.00316397
0.000552814
0.000536319
0.00215736
0.00264844
0.00281287
0.00279308
0.00260883
0.00231685
0.00198171
0.00166229
0.00139591
0.001194
0.00105043
0.000952274
0.000886438
0.000841992
0.000810629
0.000786522
0.000765973
0.000746917
0.000728386
0.000710048
0.000691873
0.000673943
0.000656356
0.000639198
0.000622536
0.000606429
0.000590933
0.00057611
0.000562024
0.000548745
0.000536345
0.000524895
0.000514466
0.000505124
0.000496932
0.000489951
0.000484239
0.000479855
0.000476952
0.000475641
0.000475468
0.000476949
0.000480175
0.000485208
0.000492157
0.000501155
0.000512362
0.000525958
0.000542152
0.000561174
0.000583283
0.000608762
0.000637915
0.000671065
0.000708554
0.000750733
0.000797969
0.000850656
0.00090924
0.000974279
0.00104654
0.00112719
0.00121803
0.00132185
0.00144285
0.00158679
0.00176055
0.00196978
0.00221378
0.00247767
0.00271577
0.00282218
0.00281707
0.00263746
0.00242237
0.00239522
0.00272921
0.00309188
0.000533634
0.0005162
0.00212254
0.00259171
0.00274943
0.00272848
0.00254897
0.00226372
0.00193501
0.00162123
0.00136027
0.00116386
0.00102558
0.000931995
0.000869663
0.000827553
0.000797486
0.000773895
0.00075337
0.000734081
0.000715219
0.000696537
0.00067804
0.000659819
0.000641966
0.000624558
0.000607659
0.000591324
0.000575609
0.000560578
0.000546295
0.000532833
0.000520262
0.000508653
0.000498074
0.000488589
0.000480255
0.000473128
0.000467262
0.000462711
0.000459549
0.000457991
0.000457636
0.00045879
0.000461646
0.000466257
0.000472727
0.000481186