/*--------------------------------*- C++ -*----------------------------------*\
  =========                 |
  \\      /  F ield         | OpenFOAM: The Open Source CFD Toolbox
   \\    /   O peration     | Website:  https://openfoam.org
    \\  /    A nd           | Version:  13
     \\/     M anipulation  |
\*---------------------------------------------------------------------------*/
FoamFile
{
    format      ascii;
    class       volScalarField;
    location    "8.4";
    object      nut;
}
// * * * * * * * * * * * * * * * * * * * * * * * * * * * * * * * * * * * * * //

dimensions      [0 2 -1 0 0 0 0];

internalField   nonuniform List<scalar> 
6400
(
9.94735e-10
5.10713e-09
1.24105e-08
1.99796e-08
2.56706e-08
2.88526e-08
2.99937e-08
3.00841e-08
3.02424e-08
3.13103e-08
3.39418e-08
3.91464e-08
4.73895e-08
5.88568e-08
7.29412e-08
8.88601e-08
1.05793e-07
1.2341e-07
1.40861e-07
1.57729e-07
1.74698e-07
1.93235e-07
2.15288e-07
2.41958e-07
2.72059e-07
3.0234e-07
3.32441e-07
3.62343e-07
3.92995e-07
4.25197e-07
4.58484e-07
4.91749e-07
5.24458e-07
5.56733e-07
5.89362e-07
6.22553e-07
6.56971e-07
6.92831e-07
7.30563e-07
7.70276e-07
8.12259e-07
8.56838e-07
9.04262e-07
9.55042e-07
1.00964e-06
1.06993e-06
1.13948e-06
1.22591e-06
1.31205e-06
1.40007e-06
1.48608e-06
1.56959e-06
1.64787e-06
1.71878e-06
1.77968e-06
1.82742e-06
1.85154e-06
1.8611e-06
1.85675e-06
1.82069e-06
1.75736e-06
1.66705e-06
1.55063e-06
1.41306e-06
1.25671e-06
1.08974e-06
9.20175e-07
7.54463e-07
5.98732e-07
4.60104e-07
3.47205e-07
2.5246e-07
1.75947e-07
1.17511e-07
7.54733e-08
4.6844e-08
2.81819e-08
1.61701e-08
7.63974e-09
1.62707e-09
4.80321e-09
3.37349e-07
1.2119e-06
2.04102e-06
2.65268e-06
3.012e-06
3.17655e-06
3.23395e-06
3.26883e-06
3.34357e-06
3.5349e-06
3.91431e-06
4.45013e-06
5.0737e-06
5.72099e-06
6.32819e-06
6.84897e-06
7.23423e-06
7.47062e-06
7.57452e-06
7.62885e-06
7.70064e-06
7.85792e-06
8.12598e-06
8.44147e-06
8.64867e-06
8.85281e-06
9.08788e-06
9.40071e-06
9.82897e-06
1.03752e-05
1.09763e-05
1.16259e-05
1.22959e-05
1.30038e-05
1.37353e-05
1.44993e-05
1.52901e-05
1.61147e-05
1.69677e-05
1.78429e-05
1.87467e-05
1.96801e-05
2.0662e-05
2.16592e-05
2.26366e-05
2.357e-05
2.44027e-05
2.52734e-05
2.61501e-05
2.70377e-05
2.79154e-05
2.877e-05
2.95801e-05
3.03239e-05
3.10541e-05
3.15003e-05
3.17963e-05
3.19855e-05
3.19532e-05
3.15842e-05
3.09148e-05
2.99112e-05
2.85724e-05
2.68948e-05
2.49338e-05
2.27857e-05
2.047e-05
1.80198e-05
1.53609e-05
1.24569e-05
9.65685e-06
7.18712e-06
5.15303e-06
3.57296e-06
2.42917e-06
1.62346e-06
1.04872e-06
4.73876e-07
8.60509e-09
1.04842e-08
8.69065e-07
3.50334e-06
6.08008e-06
8.05165e-06
9.3314e-06
1.00499e-05
1.04111e-05
1.06241e-05
1.08717e-05
1.12907e-05
1.19605e-05
1.28541e-05
1.3869e-05
1.48743e-05
1.57584e-05
1.64695e-05
1.69815e-05
1.72937e-05
1.74223e-05
1.73909e-05
1.72978e-05
1.7224e-05
1.72088e-05
1.72882e-05
1.75535e-05
1.78774e-05
1.82086e-05
1.85666e-05
1.89468e-05
1.9448e-05
2.01505e-05
2.11459e-05
2.21619e-05
2.33105e-05
2.4515e-05
2.57986e-05
2.71e-05
2.84574e-05
2.99083e-05
3.13094e-05
3.27594e-05
3.4167e-05
3.5507e-05
3.67859e-05
3.8043e-05
3.92626e-05
4.04891e-05
4.17242e-05
4.29569e-05
4.41809e-05
4.5383e-05
4.65476e-05
4.7654e-05
4.86753e-05
4.95758e-05
5.03691e-05
5.08896e-05
5.11253e-05
5.12834e-05
5.11047e-05
5.06077e-05
4.9738e-05
4.83977e-05
4.64952e-05
4.40573e-05
4.12738e-05
3.8127e-05
3.46315e-05
3.08257e-05
2.67621e-05
2.25809e-05
1.84815e-05
1.46676e-05
1.13118e-05
8.4732e-06
6.21834e-06
4.27743e-06
1.77928e-06
2.30244e-08
1.81699e-08
1.41939e-06
5.47177e-06
9.34227e-06
1.23361e-05
1.43917e-05
1.56654e-05
1.63835e-05
1.68092e-05
1.71719e-05
1.76723e-05
1.84337e-05
1.94328e-05
2.0527e-05
2.15521e-05
2.23918e-05
2.29849e-05
2.33282e-05
2.34521e-05
2.34167e-05
2.32909e-05
2.31851e-05
2.31683e-05
2.32822e-05
2.33443e-05
2.33616e-05
2.33604e-05
2.37745e-05
2.45272e-05
2.55305e-05
2.68235e-05
2.80519e-05
2.92712e-05
3.05703e-05
3.19014e-05
3.32052e-05
3.45175e-05
3.58964e-05
3.71931e-05
3.84853e-05
3.97216e-05
4.09415e-05
4.21094e-05
4.32396e-05
4.43221e-05
4.5378e-05
4.64331e-05
4.74884e-05
4.85402e-05
4.9583e-05
5.061e-05
5.16109e-05
5.25729e-05
5.34793e-05
5.43105e-05
5.50429e-05
5.56515e-05
5.61107e-05
5.63469e-05
5.6402e-05
5.6236e-05
5.57074e-05
5.49415e-05
5.4139e-05
5.28254e-05
5.08785e-05
4.84795e-05
4.55949e-05
4.22944e-05
3.86247e-05
3.46287e-05
3.03723e-05
2.5964e-05
2.15696e-05
1.73947e-05
1.36072e-05
1.03151e-05
7.22236e-06
2.99136e-06
3.83919e-08
2.91013e-08
2.12642e-06
7.5815e-06
1.25492e-05
1.62576e-05
1.87551e-05
2.02825e-05
2.11291e-05
2.16127e-05
2.20565e-05
2.27156e-05
2.36749e-05
2.48299e-05
2.5981e-05
2.69493e-05
2.76345e-05
2.80165e-05
2.81361e-05
2.80508e-05
2.7883e-05
2.76434e-05
2.74782e-05
2.73272e-05
2.67192e-05
2.66769e-05
2.72239e-05
2.81864e-05
2.93381e-05
3.05082e-05
3.18243e-05
3.31174e-05
3.43662e-05
3.55946e-05
3.67906e-05
3.78949e-05
3.89293e-05
3.99724e-05
4.09311e-05
4.17666e-05
4.25515e-05
4.32524e-05
4.3904e-05
4.45159e-05
4.51214e-05
4.57416e-05
4.6374e-05
4.70025e-05
4.76378e-05
4.82814e-05
4.89369e-05
4.96057e-05
5.02883e-05
5.09826e-05
5.1684e-05
5.23857e-05
5.30757e-05
5.37346e-05
5.43331e-05
5.48392e-05
5.51948e-05
5.53296e-05
5.52072e-05
5.46527e-05
5.35407e-05
5.27425e-05
5.15593e-05
4.97292e-05
4.74024e-05
4.46403e-05
4.14924e-05
3.79944e-05
3.41704e-05
3.00556e-05
2.57398e-05
2.14322e-05
1.73022e-05
1.34285e-05
9.43044e-06
3.8397e-06
4.90608e-08
4.46929e-08
3.07711e-06
1.00727e-05
1.60545e-05
2.02657e-05
2.29452e-05
2.4483e-05
2.52926e-05
2.57988e-05
2.63789e-05
2.72437e-05
2.8373e-05
2.95809e-05
3.06477e-05
3.14175e-05
3.1829e-05
3.19007e-05
3.17605e-05
3.1358e-05
3.10499e-05
3.05305e-05
2.96696e-05
2.95392e-05
3.02693e-05
3.12542e-05
3.22893e-05
3.34727e-05
3.46557e-05
3.57946e-05
3.68854e-05
3.78416e-05
3.87356e-05
3.95541e-05
4.02528e-05
4.08349e-05
4.13308e-05
4.17414e-05
4.21479e-05
4.2437e-05
4.27009e-05
4.29265e-05
4.31416e-05
4.33385e-05
4.35222e-05
4.36997e-05
4.38699e-05
4.40397e-05
4.42172e-05
4.44121e-05
4.46345e-05
4.48964e-05
4.52099e-05
4.55875e-05
4.60371e-05
4.65564e-05
4.71505e-05
4.78215e-05
4.85439e-05
4.9284e-05
4.99897e-05
5.06669e-05
5.10638e-05
5.1197e-05
5.0995e-05
5.01657e-05
4.96767e-05
4.84583e-05
4.66888e-05
4.44271e-05
4.17578e-05
3.87533e-05
3.54448e-05
3.18144e-05
2.7833e-05
2.36498e-05
1.94043e-05
1.52467e-05
1.07443e-05
4.25082e-06
5.30454e-08
6.63193e-08
4.31508e-06
1.29769e-05
1.98593e-05
2.43798e-05
2.70499e-05
2.84567e-05
2.91701e-05
2.97079e-05
3.04296e-05
3.14395e-05
3.26108e-05
3.37145e-05
3.45494e-05
3.5011e-05
3.50961e-05
3.46505e-05
3.42137e-05
3.37658e-05
3.2592e-05
3.22734e-05
3.27854e-05
3.36638e-05
3.44706e-05
3.53903e-05
3.63146e-05
3.72471e-05
3.80585e-05
3.87656e-05
3.93822e-05
3.9922e-05
4.03789e-05
4.07312e-05
4.0991e-05
4.1176e-05
4.13045e-05
4.1386e-05
4.14342e-05
4.14206e-05
4.14065e-05
4.13906e-05
4.13163e-05
4.12492e-05
4.11492e-05
4.1047e-05
4.09213e-05
4.07881e-05
4.06417e-05
4.04964e-05
4.03565e-05
4.0238e-05
4.01602e-05
4.01546e-05
4.02684e-05
4.04972e-05
4.08462e-05
4.13913e-05
4.2125e-05
4.30083e-05
4.39793e-05
4.50382e-05
4.60423e-05
4.69233e-05
4.73339e-05
4.74109e-05
4.68949e-05
4.66279e-05
4.54128e-05
4.35546e-05
4.11805e-05
3.84346e-05
3.54313e-05
3.22053e-05
2.86687e-05
2.46992e-05
2.0604e-05
1.61733e-05
1.10435e-05
4.2422e-06
5.15519e-08
9.52522e-08
5.85957e-06
1.62229e-05
2.3858e-05
2.85091e-05
3.10406e-05
3.22531e-05
3.28645e-05
3.34313e-05
3.42357e-05
3.52639e-05
3.63157e-05
3.71551e-05
3.76163e-05
3.76555e-05
3.71551e-05
3.66996e-05
3.56655e-05
3.49408e-05
3.49297e-05
3.5503e-05
3.59266e-05
3.65928e-05
3.72395e-05
3.80121e-05
3.86701e-05
3.92574e-05
3.97105e-05
4.00742e-05
4.03477e-05
4.05463e-05
4.06736e-05
4.07394e-05
4.07624e-05
4.07551e-05
4.07278e-05
4.06831e-05
4.0623e-05
4.05484e-05
4.04712e-05
4.03408e-05
4.02528e-05
4.01646e-05
3.99696e-05
3.98228e-05
3.96294e-05
3.94314e-05
3.92098e-05
3.89659e-05
3.86987e-05
3.84063e-05
3.80851e-05
3.77308e-05
3.73357e-05
3.69847e-05
3.67773e-05
3.67451e-05
3.70526e-05
3.77322e-05
3.85909e-05
3.97726e-05
4.10733e-05
4.24415e-05
4.37237e-05
4.44557e-05
4.46007e-05
4.44535e-05
4.43387e-05
4.29604e-05
4.08469e-05
3.81864e-05
3.51907e-05
3.20381e-05
2.87804e-05
2.51942e-05
2.11042e-05
1.66932e-05
1.12248e-05
4.13398e-06
4.79666e-08
1.32378e-07
7.69305e-06
1.97195e-05
2.78951e-05
3.25604e-05
3.4881e-05
3.5879e-05
3.63856e-05
3.69408e-05
3.77247e-05
3.86291e-05
3.9422e-05
3.98961e-05
3.978e-05
3.93158e-05
3.88303e-05
3.75372e-05
3.70642e-05
3.71495e-05
3.72485e-05
3.75573e-05
3.80243e-05
3.85769e-05
3.90778e-05
3.95631e-05
3.99116e-05
4.0182e-05
4.03519e-05
4.04671e-05
4.053e-05
4.05635e-05
4.05761e-05
4.05815e-05
4.05876e-05
4.05962e-05
4.06072e-05
4.06181e-05
4.0626e-05
4.0624e-05
4.05944e-05
4.05702e-05
4.05508e-05
4.04602e-05
4.03678e-05
4.02576e-05
4.01109e-05
3.99404e-05
3.97349e-05
3.94975e-05
3.92244e-05
3.89118e-05
3.85537e-05
3.8143e-05
3.76752e-05
3.71416e-05
3.65419e-05
3.58694e-05
3.51427e-05
3.45868e-05
3.4704e-05
3.54599e-05
3.65836e-05
3.80806e-05
3.97034e-05
4.13266e-05
4.23112e-05
4.25351e-05
4.26373e-05
4.26367e-05
4.09995e-05
3.85289e-05
3.54622e-05
3.20923e-05
2.86734e-05
2.5209e-05
2.13378e-05
1.67486e-05
1.09862e-05
3.8504e-06
4.38858e-08
1.78038e-07
9.73558e-06
2.32952e-05
3.18885e-05
3.64751e-05
3.85441e-05
3.93169e-05
3.96937e-05
4.01627e-05
4.0807e-05
4.14586e-05
4.18893e-05
4.16682e-05
4.11432e-05
4.05757e-05
3.95142e-05
3.89896e-05
3.87916e-05
3.85996e-05
3.87969e-05
3.90917e-05
3.94587e-05
3.98088e-05
4.00827e-05
4.02966e-05
4.04145e-05
4.04934e-05
4.05338e-05
4.05739e-05
4.06174e-05
4.06809e-05
4.07648e-05
4.08708e-05
4.09934e-05
4.11254e-05
4.12573e-05
4.13776e-05
4.14992e-05
4.15715e-05
4.16082e-05
4.1672e-05
4.16552e-05
4.1618e-05
4.15463e-05
4.14423e-05
4.13041e-05
4.11373e-05
4.0942e-05
4.0719e-05
4.04648e-05
4.01765e-05
3.98469e-05
3.94646e-05
3.90105e-05
3.84749e-05
3.78415e-05
3.70883e-05
3.62048e-05
3.52309e-05
3.42173e-05
3.3229e-05
3.32158e-05
3.42288e-05
3.56833e-05
3.75713e-05
3.94613e-05
4.07052e-05
4.10279e-05
4.12195e-05
4.12382e-05
3.92921e-05
3.63988e-05
3.28508e-05
2.90303e-05
2.52418e-05
2.13365e-05
1.67421e-05
1.07423e-05
3.58407e-06
4.05503e-08
2.33046e-07
1.18185e-05
2.68109e-05
3.57508e-05
4.02067e-05
4.20017e-05
4.25308e-05
4.27281e-05
4.3018e-05
4.34075e-05
4.37012e-05
4.33916e-05
4.27754e-05
4.21327e-05
4.1234e-05
4.06072e-05
4.00501e-05
3.97954e-05
3.97273e-05
3.98999e-05
4.00869e-05
4.02866e-05
4.04327e-05
4.05232e-05
4.05809e-05
4.06143e-05
4.06678e-05
4.07464e-05
4.08711e-05
4.10363e-05
4.12425e-05
4.14772e-05
4.17306e-05
4.19875e-05
4.22488e-05
4.25126e-05
4.26807e-05
4.28113e-05
4.30152e-05
4.30907e-05
4.31677e-05
4.31765e-05
4.31566e-05
4.30892e-05
4.29824e-05
4.28339e-05
4.26466e-05
4.24208e-05
4.2158e-05
4.18593e-05
4.15266e-05
4.11615e-05
4.07655e-05
4.03395e-05
3.98821e-05
3.93498e-05
3.87086e-05
3.7899e-05
3.69126e-05
3.5739e-05
3.44446e-05
3.31726e-05
3.20238e-05
3.23584e-05
3.38379e-05
3.57887e-05
3.79168e-05
3.94183e-05
3.98359e-05
4.0014e-05
3.99139e-05
3.76071e-05
3.42342e-05
3.01658e-05
2.58435e-05
2.15569e-05
1.67694e-05
1.07447e-05
3.52388e-06
3.94496e-08
2.99949e-07
1.3742e-05
3.01739e-05
3.94229e-05
4.37188e-05
4.52216e-05
4.54754e-05
4.54271e-05
4.5442e-05
4.54762e-05
4.50586e-05
4.43316e-05
4.3635e-05
4.28164e-05
4.20833e-05
4.12048e-05
4.07621e-05
4.05484e-05
4.05012e-05
4.05736e-05
4.06273e-05
4.06805e-05
4.07037e-05
4.07282e-05
4.07792e-05
4.08755e-05
4.10389e-05
4.12644e-05
4.1551e-05
4.18814e-05
4.22428e-05
4.26167e-05
4.30064e-05
4.33975e-05
4.37339e-05
4.39711e-05
4.42266e-05
4.44908e-05
4.46738e-05
4.48048e-05
4.48982e-05
4.49359e-05
4.49307e-05
4.48746e-05
4.47718e-05
4.46212e-05
4.44247e-05
4.41828e-05
4.38971e-05
4.35687e-05
4.31985e-05
4.27869e-05
4.2334e-05
4.18391e-05
4.13018e-05
4.07227e-05
4.01024e-05
3.94376e-05
3.86329e-05
3.76099e-05
3.63263e-05
3.48606e-05
3.32881e-05
3.18638e-05
3.10678e-05
3.23534e-05
3.42443e-05
3.66139e-05
3.82953e-05
3.87715e-05
3.88639e-05
3.84814e-05
3.5732e-05
3.18387e-05
2.72392e-05
2.23486e-05
1.72171e-05
1.10206e-05
3.67643e-06
4.09316e-08
3.74231e-07
1.5647e-05
3.33725e-05
4.28707e-05
4.69814e-05
4.81714e-05
4.81073e-05
4.77402e-05
4.73905e-05
4.67936e-05
4.59189e-05
4.51825e-05
4.43308e-05
4.34665e-05
4.23687e-05
4.16416e-05
4.1256e-05
4.10412e-05
4.09498e-05
4.09152e-05
4.08781e-05
4.08701e-05
4.08901e-05
4.09762e-05
4.11416e-05
4.13933e-05
4.1728e-05
4.21276e-05
4.25762e-05
4.30516e-05
4.35374e-05
4.4046e-05
4.45292e-05
4.49517e-05
4.5331e-05
4.5667e-05
4.59762e-05
4.6283e-05
4.65065e-05
4.66816e-05
4.68062e-05
4.68766e-05
4.68944e-05
4.6857e-05
4.67654e-05
4.6619e-05
4.64189e-05
4.6166e-05
4.58618e-05
4.55079e-05
4.51059e-05
4.46567e-05
4.41605e-05
4.36162e-05
4.3021e-05
4.23715e-05
4.16645e-05
4.09001e-05
4.00848e-05
3.92193e-05
3.81594e-05
3.68305e-05
3.52229e-05
3.34481e-05
3.17091e-05
3.03559e-05
3.10579e-05
3.29572e-05
3.54681e-05
3.72371e-05
3.76985e-05
3.76385e-05
3.67605e-05
3.34765e-05
2.90793e-05
2.38743e-05
1.82732e-05
1.18575e-05
4.15128e-06
4.70685e-08
4.53757e-07
1.74961e-05
3.63633e-05
4.60611e-05
4.99684e-05
5.08237e-05
5.03945e-05
4.96361e-05
4.87417e-05
4.76495e-05
4.68639e-05
4.58186e-05
4.48244e-05
4.35508e-05
4.2555e-05
4.19234e-05
4.15486e-05
4.13068e-05
4.11637e-05
4.10733e-05
4.10296e-05
4.10659e-05
4.11902e-05
4.14251e-05
4.17639e-05
4.21959e-05
4.27005e-05
4.32538e-05
4.38355e-05
4.44262e-05
4.50133e-05
4.55933e-05
4.61354e-05
4.66242e-05
4.70764e-05
4.75003e-05
4.78613e-05
4.81729e-05
4.84852e-05
4.87073e-05
4.88741e-05
4.89839e-05
4.90324e-05
4.90189e-05
4.89422e-05
4.88016e-05
4.85975e-05
4.83308e-05
4.80033e-05
4.76177e-05
4.7177e-05
4.66844e-05
4.61424e-05
4.55522e-05
4.49124e-05
4.42183e-05
4.34621e-05
4.2634e-05
4.17269e-05
4.07442e-05
3.97074e-05
3.85455e-05
3.71541e-05
3.54166e-05
3.3496e-05
3.15512e-05
2.99697e-05
2.99889e-05
3.18616e-05
3.44459e-05
3.61762e-05
3.64964e-05
3.63031e-05
3.45395e-05
3.08053e-05
2.57524e-05
1.98792e-05
1.3141e-05
5.03485e-06
6.17151e-08
5.35937e-07
1.92471e-05
3.91062e-05
4.89687e-05
5.26621e-05
5.31671e-05
5.23371e-05
5.10873e-05
4.96972e-05
4.87995e-05
4.73869e-05
4.62539e-05
4.47979e-05
4.35525e-05
4.26479e-05
4.20643e-05
4.16805e-05
4.14205e-05
4.12665e-05
4.12e-05
4.12387e-05
4.14035e-05
4.16941e-05
4.21091e-05
4.2625e-05
4.32194e-05
4.3866e-05
4.45418e-05
4.52286e-05
4.5911e-05
4.65782e-05
4.72202e-05
4.78245e-05
4.83918e-05
4.89384e-05
4.9432e-05
4.98699e-05
5.0233e-05
5.05551e-05
5.0891e-05
5.10982e-05
5.12555e-05
5.13413e-05
5.13562e-05
5.12978e-05
5.11645e-05
5.0956e-05
5.06726e-05
5.03163e-05
4.98901e-05
4.93985e-05
4.88468e-05
4.82412e-05
4.75871e-05
4.68883e-05
4.61448e-05
4.5351e-05
4.44945e-05
4.35559e-05
4.25138e-05
4.1356e-05
4.00992e-05
3.86962e-05
3.71701e-05
3.54149e-05
3.33695e-05
3.1317e-05
2.94796e-05
2.90856e-05
3.08819e-05
3.35523e-05
3.50372e-05
3.50843e-05
3.47344e-05
3.19831e-05
2.74468e-05
2.16546e-05
1.47049e-05
6.04758e-06
8.49994e-08
6.18351e-07
2.08622e-05
4.1576e-05
5.15835e-05
5.50534e-05
5.52111e-05
5.38871e-05
5.22639e-05
5.1023e-05
4.92255e-05
4.78412e-05
4.6186e-05
4.46835e-05
4.34943e-05
4.26574e-05
4.20973e-05
4.17161e-05
4.14772e-05
4.13757e-05
4.14095e-05
4.15942e-05
4.19299e-05
4.2401e-05
4.29868e-05
4.36563e-05
4.43839e-05
4.51448e-05
4.59203e-05
4.66958e-05
4.74599e-05
4.82044e-05
4.89222e-05
4.96082e-05
5.02608e-05
5.08763e-05
5.14632e-05
5.19995e-05
5.24294e-05
5.28033e-05
5.31749e-05
5.34794e-05
5.36761e-05
5.38075e-05
5.38545e-05
5.3819e-05
5.36969e-05
5.34873e-05
5.31895e-05
5.28046e-05
5.23353e-05
5.17862e-05
5.11639e-05
5.04768e-05
4.97348e-05
4.89476e-05
4.81235e-05
4.72662e-05
4.63716e-05
4.54245e-05
4.43964e-05
4.3248e-05
4.19409e-05
4.05576e-05
3.89053e-05
3.69912e-05
3.51313e-05
3.30974e-05
3.09367e-05
2.88896e-05
2.82905e-05
3.0028e-05
3.26332e-05
3.39689e-05
3.34342e-05
3.24109e-05
2.86211e-05
2.32117e-05
1.62977e-05
7.08573e-06
1.14889e-07
6.99367e-07
2.22938e-05
4.37705e-05
5.39425e-05
5.71119e-05
5.67459e-05
5.51765e-05
5.34863e-05
5.14194e-05
4.96759e-05
4.77958e-05
4.60164e-05
4.45195e-05
4.33919e-05
4.26052e-05
4.20717e-05
4.17286e-05
4.15631e-05
4.15736e-05
4.17585e-05
4.21165e-05
4.26276e-05
4.32641e-05
4.39959e-05
4.47923e-05
4.56298e-05
4.64882e-05
4.73532e-05
4.82141e-05
4.90625e-05
4.98923e-05
5.06978e-05
5.14745e-05
5.22177e-05
5.29215e-05
5.35817e-05
5.42135e-05
5.47482e-05
5.51582e-05
5.55682e-05
5.59745e-05
5.62122e-05
5.63914e-05
5.64741e-05
5.6466e-05
5.6361e-05
5.61572e-05
5.58528e-05
5.54473e-05
5.49422e-05
5.43407e-05
5.36489e-05
5.28755e-05
5.20322e-05
5.1133e-05
5.0193e-05
4.92263e-05
4.8242e-05
4.724e-05
4.62045e-05
4.50995e-05
4.38671e-05
4.24365e-05
4.09222e-05
3.9063e-05
3.67184e-05
3.46811e-05
3.26615e-05
3.03778e-05
2.81436e-05
2.76298e-05
2.92796e-05
3.14557e-05
3.23412e-05
3.15884e-05
2.91608e-05
2.43567e-05
1.77118e-05
8.01792e-06
1.49498e-07
7.77236e-07
2.35743e-05
4.56876e-05
5.58767e-05
5.86707e-05
5.81663e-05
5.66002e-05
5.43379e-05
5.18551e-05
4.97128e-05
4.76305e-05
4.57923e-05
4.43299e-05
4.3262e-05
4.2524e-05
4.20418e-05
4.17809e-05
4.17355e-05
4.18971e-05
4.22526e-05
4.27819e-05
4.3452e-05
4.42297e-05
4.50839e-05
4.59879e-05
4.69223e-05
4.78719e-05
4.88259e-05
4.9776e-05
5.07156e-05
5.16385e-05
5.25388e-05
5.341e-05
5.42456e-05
5.50381e-05
5.57801e-05
5.64996e-05
5.71295e-05
5.75785e-05
5.80294e-05
5.85227e-05
5.88065e-05
5.90301e-05
5.91504e-05
5.91728e-05
5.90907e-05
5.89013e-05
5.86013e-05
5.81888e-05
5.76631e-05
5.70255e-05
5.62795e-05
5.54321e-05
5.44941e-05
5.34803e-05
5.24092e-05
5.1302e-05
5.01797e-05
4.90586e-05
4.7944e-05
4.68219e-05
4.56503e-05
4.43525e-05
4.28188e-05
4.11935e-05
3.89259e-05
3.63555e-05
3.40965e-05
3.20514e-05
2.9572e-05
2.71406e-05
2.7066e-05
2.88198e-05
3.02441e-05
3.03154e-05
2.91957e-05
2.50639e-05
1.88104e-05
8.7704e-06
1.87172e-07
8.4899e-07
2.46653e-05
4.72293e-05
5.73714e-05
5.9933e-05
5.96014e-05
5.74582e-05
5.46591e-05
5.21206e-05
4.96134e-05
4.73958e-05
4.55445e-05
4.41318e-05
4.31252e-05
4.245e-05
4.20529e-05
4.1913e-05
4.20176e-05
4.23445e-05
4.28667e-05
4.35504e-05
4.43576e-05
4.52553e-05
4.62155e-05
4.72168e-05
4.82437e-05
4.92847e-05
5.03313e-05
5.1376e-05
5.24118e-05
5.34316e-05
5.44276e-05
5.53918e-05
5.6316e-05
5.71918e-05
5.80114e-05
5.88057e-05
5.95176e-05
6.00149e-05
6.0512e-05
6.10468e-05
6.1389e-05
6.16492e-05
6.18061e-05
6.18597e-05
6.18045e-05
6.16369e-05
6.13526e-05
6.09482e-05
6.04209e-05
5.97692e-05
5.89938e-05
5.80981e-05
5.70896e-05
5.59806e-05
5.4789e-05
5.35381e-05
5.22556e-05
5.09703e-05
4.97068e-05
4.84772e-05
4.72709e-05
4.60425e-05
4.47006e-05
4.31025e-05
4.11969e-05
3.85584e-05
3.58118e-05
3.33928e-05
3.12353e-05
2.84067e-05
2.59467e-05
2.63636e-05
2.8261e-05
2.92986e-05
2.81532e-05
2.5286e-05
1.95506e-05
9.33872e-06
2.26695e-07
9.12075e-07
2.55401e-05
4.8393e-05
5.85018e-05
6.11719e-05
6.06433e-05
5.81805e-05
5.50866e-05
5.21235e-05
4.94243e-05
4.71267e-05
4.52932e-05
4.39401e-05
4.30035e-05
4.24142e-05
4.21337e-05
4.21397e-05
4.24047e-05
4.28927e-05
4.35657e-05
4.43836e-05
4.53091e-05
4.63123e-05
4.73696e-05
4.84643e-05
4.9584e-05
5.07192e-05
5.18617e-05
5.30035e-05
5.41362e-05
5.52506e-05
5.63376e-05
5.73876e-05
5.83915e-05
5.93407e-05
6.02274e-05
6.10759e-05
6.18498e-05
6.24072e-05
6.29286e-05
6.34922e-05
6.38874e-05
6.4177e-05
6.43657e-05
6.44485e-05
6.44215e-05
6.42803e-05
6.40205e-05
6.36374e-05
6.31265e-05
6.24838e-05
6.17067e-05
6.07945e-05
5.97499e-05
5.85805e-05
5.72999e-05
5.5929e-05
5.44963e-05
5.30367e-05
5.15876e-05
5.01819e-05
4.88383e-05
4.75471e-05
4.62553e-05
4.485e-05
4.31428e-05
4.09008e-05
3.79807e-05
3.50887e-05
3.25749e-05
3.01847e-05
2.70818e-05
2.50299e-05
2.56926e-05
2.68952e-05
2.70598e-05
2.52e-05
1.99398e-05
9.69493e-06
2.67919e-07
9.65086e-07
2.62046e-05
4.92278e-05
5.93892e-05
6.20992e-05
6.13927e-05
5.8501e-05
5.52371e-05
5.20239e-05
4.9182e-05
4.68467e-05
4.50521e-05
4.37683e-05
4.29163e-05
4.24366e-05
4.22943e-05
4.24553e-05
4.28764e-05
4.35117e-05
4.43171e-05
4.52521e-05
4.62825e-05
4.73826e-05
4.85334e-05
4.9721e-05
5.09348e-05
5.21657e-05
5.34045e-05
5.46414e-05
5.58661e-05
5.70679e-05
5.8236e-05
5.93601e-05
6.04307e-05
6.14393e-05
6.23785e-05
6.32606e-05
6.4082e-05
6.46996e-05
6.52253e-05
6.58035e-05
6.62422e-05
6.65533e-05
6.67667e-05
6.68742e-05
6.68733e-05
6.67599e-05
6.65295e-05
6.61771e-05
6.56968e-05
6.50828e-05
6.43294e-05
6.3432e-05
6.23882e-05
6.11995e-05
5.9873e-05
5.84235e-05
5.68755e-05
5.52633e-05
5.36302e-05
5.20236e-05
5.04862e-05
4.90435e-05
4.76873e-05
4.63579e-05
4.49217e-05
4.3002e-05
4.02306e-05
3.71658e-05
3.42157e-05
3.15791e-05
2.87852e-05
2.53696e-05
2.43144e-05
2.53113e-05
2.60165e-05
2.45324e-05
1.99806e-05
9.85159e-06
3.10482e-07
1.00725e-06
2.6661e-05
4.97882e-05
5.99924e-05
6.27983e-05
6.19442e-05
5.89154e-05
5.52836e-05
5.1856e-05
4.8913e-05
4.65714e-05
4.48313e-05
4.36275e-05
4.28765e-05
4.25244e-05
4.25298e-05
4.28426e-05
4.34078e-05
4.41738e-05
4.50957e-05
4.6135e-05
4.72619e-05
4.84547e-05
4.96974e-05
5.09779e-05
5.22858e-05
5.36107e-05
5.49417e-05
5.6267e-05
5.75745e-05
5.88519e-05
6.00877e-05
6.12714e-05
6.23936e-05
6.34463e-05
6.4423e-05
6.5319e-05
6.61743e-05
6.68495e-05
6.73626e-05
6.79389e-05
6.84115e-05
6.87357e-05
6.8965e-05
6.90907e-05
6.91113e-05
6.90235e-05
6.88234e-05
6.8506e-05
6.80653e-05
6.7494e-05
6.67844e-05
6.59283e-05
6.49187e-05
6.37508e-05
6.24243e-05
6.09457e-05
5.93312e-05
5.76092e-05
5.58214e-05
5.40206e-05
5.22651e-05
5.06064e-05
4.90734e-05
4.76538e-05
4.6278e-05
4.48079e-05
4.24893e-05
3.92849e-05
3.62202e-05
3.31188e-05
3.03287e-05
2.68976e-05
2.36847e-05
2.34098e-05
2.37669e-05
2.35063e-05
1.98576e-05
9.98915e-06
3.57177e-07
1.03846e-06
2.69268e-05
5.01055e-05
6.03406e-05
6.33226e-05
6.22108e-05
5.90656e-05
5.52356e-05
5.16443e-05
4.86355e-05
4.63113e-05
4.46378e-05
4.35252e-05
4.28892e-05
4.26746e-05
4.28267e-05
4.32811e-05
4.39755e-05
4.48574e-05
4.58833e-05
4.70182e-05
4.82365e-05
4.95194e-05
5.08526e-05
5.22245e-05
5.36233e-05
5.50368e-05
5.6452e-05
5.78552e-05
5.92327e-05
6.05717e-05
6.18602e-05
6.30879e-05
6.42459e-05
6.53267e-05
6.63239e-05
6.7232e-05
6.80982e-05
6.8828e-05
6.9317e-05
6.98739e-05
7.03708e-05
7.06997e-05
7.09359e-05
7.1072e-05
7.11073e-05
7.10402e-05
7.08675e-05
7.05851e-05
7.01872e-05
6.96663e-05
6.90133e-05
6.82178e-05
6.72688e-05
6.6156e-05
6.48716e-05
6.34131e-05
6.17865e-05
6.001e-05
5.81176e-05
5.61602e-05
5.42028e-05
5.23163e-05
5.05606e-05
4.89614e-05
4.74829e-05
4.60033e-05
4.42941e-05
4.15138e-05
3.82287e-05
3.49988e-05
3.16823e-05
2.86167e-05
2.46016e-05
2.26449e-05
2.26849e-05
2.27646e-05
1.97341e-05
1.03392e-05
4.1709e-07
1.05922e-06
2.70268e-05
5.01679e-05
6.04016e-05
6.35025e-05
6.2509e-05
5.91235e-05
5.51221e-05
5.14079e-05
4.83622e-05
4.60728e-05
4.4476e-05
4.34646e-05
4.29528e-05
4.28775e-05
4.31685e-05
4.37512e-05
4.45609e-05
4.55464e-05
4.6667e-05
4.78915e-05
4.91973e-05
5.05677e-05
5.19887e-05
5.34477e-05
5.4931e-05
5.64244e-05
5.79127e-05
5.93808e-05
6.08144e-05
6.22003e-05
6.35269e-05
6.47844e-05
6.59646e-05
6.70609e-05
6.8068e-05
6.89817e-05
6.98359e-05
7.06047e-05
7.10844e-05
7.15994e-05
7.21115e-05
7.24377e-05
7.2672e-05
7.28101e-05
7.28525e-05
7.27989e-05
7.26478e-05
7.23963e-05
7.20395e-05
7.15706e-05
7.098e-05
7.02562e-05
6.93855e-05
6.83532e-05
6.71451e-05
6.575e-05
6.41629e-05
6.23896e-05
6.04517e-05
5.83905e-05
5.62691e-05
5.41681e-05
5.21739e-05
5.03578e-05
4.87485e-05
4.73041e-05
4.58872e-05
4.35477e-05
4.02124e-05
3.69927e-05
3.35155e-05
2.99193e-05
2.61974e-05
2.23299e-05
2.13942e-05
2.12115e-05
1.94339e-05
1.09718e-05
4.97991e-07
1.06958e-06
2.69567e-05
4.99698e-05
6.03358e-05
6.365e-05
6.25614e-05
5.90874e-05
5.49623e-05
5.11614e-05
4.81017e-05
4.58601e-05
4.43479e-05
4.34451e-05
4.3061e-05
4.31203e-05
4.35391e-05
4.4237e-05
4.51499e-05
4.62292e-05
4.74374e-05
4.87465e-05
5.01361e-05
5.159e-05
5.30939e-05
5.4633e-05
5.61918e-05
5.77538e-05
5.93025e-05
6.0822e-05
6.22978e-05
6.3717e-05
6.50688e-05
6.63444e-05
6.75364e-05
6.86396e-05
6.96499e-05
7.05651e-05
7.13901e-05
7.21643e-05
7.26676e-05
7.31199e-05
7.36378e-05
7.39551e-05
7.41797e-05
7.43116e-05
7.43528e-05
7.43046e-05
7.41673e-05
7.39397e-05
7.36185e-05
7.31979e-05
7.26692e-05
7.20206e-05
7.12371e-05
7.03012e-05
6.91937e-05
6.78957e-05
6.63921e-05
6.46757e-05
6.27531e-05
6.0651e-05
5.84214e-05
5.61424e-05
5.39114e-05
5.18257e-05
4.99534e-05
4.82979e-05
4.67677e-05
4.51546e-05
4.22193e-05
3.87571e-05
3.53464e-05
3.16705e-05
2.77946e-05
2.32455e-05
2.09526e-05
1.97524e-05
1.89366e-05
1.16536e-05
5.9959e-07
1.06897e-06
2.67858e-05
4.97175e-05
6.01209e-05
6.366e-05
6.25092e-05
5.89791e-05
5.4772e-05
5.09153e-05
4.78596e-05
4.56751e-05
4.42532e-05
4.34629e-05
4.32051e-05
4.33906e-05
4.3925e-05
4.4726e-05
4.57319e-05
4.68969e-05
4.81866e-05
4.95754e-05
5.1044e-05
5.2576e-05
5.41554e-05
5.57655e-05
5.73887e-05
5.90071e-05
6.06032e-05
6.2161e-05
6.36664e-05
6.51074e-05
6.6474e-05
6.77583e-05
6.89542e-05
7.00569e-05
7.10628e-05
7.19693e-05
7.2774e-05
7.35338e-05
7.40668e-05
7.44496e-05
7.4962e-05
7.52662e-05
7.54746e-05
7.5593e-05
7.5625e-05
7.55739e-05
7.54417e-05
7.52293e-05
7.49352e-05
7.45555e-05
7.4083e-05
7.35067e-05
7.28116e-05
7.19787e-05
7.09856e-05
6.98078e-05
6.84212e-05
6.68065e-05
6.49548e-05
6.28755e-05
6.06041e-05
5.82082e-05
5.57878e-05
5.34625e-05
5.13448e-05
4.95015e-05
4.7913e-05
4.64508e-05
4.40819e-05
4.05358e-05
3.72809e-05
3.32447e-05
2.91206e-05
2.47445e-05
2.08276e-05
1.92414e-05
1.85225e-05
1.22763e-05
7.17745e-07
1.06332e-06
2.65175e-05
4.92934e-05
5.97131e-05
6.34523e-05
6.23515e-05
5.8813e-05
5.45631e-05
5.06772e-05
4.76396e-05
4.55183e-05
4.41899e-05
4.35125e-05
4.33757e-05
4.3677e-05
4.43152e-05
4.52087e-05
4.62987e-05
4.75423e-05
4.89075e-05
5.03705e-05
5.19121e-05
5.35147e-05
5.51607e-05
5.68312e-05
5.8507e-05
6.01694e-05
6.18006e-05
6.3385e-05
6.49093e-05
6.63626e-05
6.77359e-05
6.90224e-05
7.02165e-05
7.13138e-05
7.23109e-05
7.32048e-05
7.39933e-05
7.47259e-05
7.5289e-05
7.56167e-05
7.60999e-05
7.63902e-05
7.65777e-05
7.66765e-05
7.66924e-05
7.66303e-05
7.64944e-05
7.62876e-05
7.60108e-05
7.56623e-05
7.52368e-05
7.47251e-05
7.41132e-05
7.33822e-05
7.2508e-05
7.14624e-05
7.02147e-05
6.87352e-05
6.70003e-05
6.5001e-05
6.27522e-05
6.03025e-05
5.77407e-05
5.51912e-05
5.27925e-05
5.0657e-05
4.88188e-05
4.71851e-05
4.55102e-05
4.23694e-05
3.88268e-05
3.51875e-05
3.08057e-05
2.62095e-05
2.10255e-05
1.87394e-05
1.75223e-05
1.29203e-05
8.40099e-07
1.05081e-06
2.61933e-05
4.86119e-05
5.91823e-05
6.31117e-05
6.21039e-05
5.86012e-05
5.43446e-05
5.04526e-05
4.74436e-05
4.53891e-05
4.41549e-05
4.35875e-05
4.3564e-05
4.39702e-05
4.47013e-05
4.56779e-05
4.68439e-05
4.81592e-05
4.95937e-05
5.11243e-05
5.27313e-05
5.43957e-05
5.60979e-05
5.78175e-05
5.95343e-05
6.12289e-05
6.28842e-05
6.44853e-05
6.60201e-05
6.74786e-05
6.88531e-05
7.01373e-05
7.13264e-05
7.24162e-05
7.34036e-05
7.42863e-05
7.50633e-05
7.57536e-05
7.63208e-05
7.66522e-05
7.70679e-05
7.7348e-05
7.75117e-05
7.75863e-05
7.75802e-05
7.75002e-05
7.73524e-05
7.7142e-05
7.68723e-05
7.65439e-05
7.61542e-05
7.56962e-05
7.5158e-05
7.45217e-05
7.37633e-05
7.28528e-05
7.1755e-05
7.04322e-05
6.88484e-05
6.69772e-05
6.48117e-05
6.23775e-05
5.97444e-05
5.70314e-05
5.43951e-05
5.19951e-05
4.99404e-05
4.82303e-05
4.67097e-05
4.39988e-05
4.03068e-05
3.7131e-05
3.22262e-05
2.7487e-05
2.23047e-05
1.8598e-05
1.6382e-05
1.34145e-05
9.38704e-07
1.0313e-06
2.57738e-05
4.78595e-05
5.85599e-05
6.26512e-05
6.17794e-05
5.83538e-05
5.41236e-05
5.02454e-05
4.72727e-05
4.52863e-05
4.41444e-05
4.36818e-05
4.37624e-05
4.42626e-05
4.50767e-05
4.61274e-05
4.73618e-05
4.87418e-05
5.02385e-05
5.18291e-05
5.34929e-05
5.52094e-05
5.69571e-05
5.87146e-05
6.04611e-05
6.21776e-05
6.38476e-05
6.54574e-05
6.69961e-05
6.84549e-05
6.98269e-05
7.11066e-05
7.22894e-05
7.33714e-05
7.43494e-05
7.52208e-05
7.59843e-05
7.66391e-05
7.72065e-05
7.75479e-05
7.78926e-05
7.81593e-05
7.82979e-05
7.83453e-05
7.8313e-05
7.82094e-05
7.80429e-05
7.78205e-05
7.75481e-05
7.7229e-05
7.68632e-05
7.64466e-05
7.59697e-05
7.54168e-05
7.47653e-05
7.39851e-05
7.30389e-05
7.18833e-05
7.04728e-05
6.87656e-05
6.67336e-05
6.43765e-05
6.17378e-05
5.8917e-05
5.60694e-05
5.33801e-05
5.10095e-05
4.90251e-05
4.7353e-05
4.5351e-05
4.16916e-05
3.86299e-05
3.41736e-05
2.90035e-05
2.36707e-05
1.90475e-05
1.57277e-05
1.36111e-05
9.84026e-07
1.00586e-06
2.52493e-05
4.69939e-05
5.78409e-05
6.20931e-05
6.13904e-05
5.80787e-05
5.3905e-05
5.00581e-05
4.71273e-05
4.5208e-05
4.41544e-05
4.37895e-05
4.39642e-05
4.45482e-05
4.54358e-05
4.65524e-05
4.78475e-05
4.92847e-05
5.08359e-05
5.24781e-05
5.41893e-05
5.59474e-05
5.77299e-05
5.95147e-05
6.12809e-05
6.30102e-05
6.46872e-05
6.62996e-05
6.78374e-05
6.92932e-05
7.06608e-05
7.19351e-05
7.31117e-05
7.41864e-05
7.51557e-05
7.60163e-05
7.67652e-05
7.74002e-05
7.79617e-05
7.83129e-05
7.85908e-05
7.88411e-05
7.89544e-05
7.89732e-05
7.89119e-05
7.87809e-05
7.85901e-05
7.8349e-05
7.80655e-05
7.77458e-05
7.73925e-05
7.70046e-05
7.65756e-05
7.60928e-05
7.55357e-05
7.48757e-05
7.40752e-05
7.3088e-05
7.18618e-05
7.03423e-05
6.84829e-05
6.62579e-05
6.36809e-05
6.08248e-05
5.78322e-05
5.49033e-05
5.22477e-05
5.00023e-05
4.81484e-05
4.64706e-05
4.32747e-05
3.99437e-05
3.61645e-05
3.02705e-05
2.47622e-05
1.90148e-05
1.58542e-05
1.35993e-05
9.91797e-07
9.75964e-07
2.46905e-05
4.60408e-05
5.7032e-05
6.14536e-05
6.09476e-05
5.77827e-05
5.36929e-05
4.98923e-05
4.7007e-05
4.51522e-05
4.41811e-05
4.39054e-05
4.41642e-05
4.48221e-05
4.57742e-05
4.69485e-05
4.82965e-05
4.97829e-05
5.13804e-05
5.3065e-05
5.48137e-05
5.66033e-05
5.84104e-05
6.02127e-05
6.19897e-05
6.37242e-05
6.54021e-05
6.70122e-05
6.85459e-05
6.99967e-05
7.13589e-05
7.26279e-05
7.37991e-05
7.4868e-05
7.58305e-05
7.66825e-05
7.74204e-05
7.80412e-05
7.8593e-05
7.89529e-05
7.91747e-05
7.94061e-05
7.94947e-05
7.9485e-05
7.93937e-05
7.92328e-05
7.90143e-05
7.87493e-05
7.84482e-05
7.81193e-05
7.77686e-05
7.73977e-05
7.70036e-05
7.65767e-05
7.60997e-05
7.55466e-05
7.48809e-05
7.4056e-05
7.30154e-05
7.16962e-05
7.0036e-05
6.79856e-05
6.55279e-05
6.27017e-05
5.96235e-05
5.64901e-05