/*--------------------------------*- C++ -*----------------------------------*\
  =========                 |
  \\      /  F ield         | OpenFOAM: The Open Source CFD Toolbox
   \\    /   O peration     | Website:  https://openfoam.org
    \\  /    A nd           | Version:  13
     \\/     M anipulation  |
\*---------------------------------------------------------------------------*/
FoamFile
{
    format      ascii;
    class       volScalarField;
    location    "8.4";
    object      p;
}
// * * * * * * * * * * * * * * * * * * * * * * * * * * * * * * * * * * * * * //

dimensions      [0 2 -2 0 0 0 0];

internalField   nonuniform List<scalar> 
6400
(
4.6095e-09
2.01801e-05
2.93063e-05
1.39622e-05
-3.1111e-05
-0.000100666
-0.000184852
-0.000274383
-0.000362926
-0.000447319
-0.000528349
-0.000610344
-0.000698051
-0.000796714
-0.000911588
-0.00104681
-0.00120535
-0.00138884
-0.00159853
-0.00183509
-0.0020989
-0.00239144
-0.00271568
-0.00307625
-0.00347963
-0.0039302
-0.00442265
-0.00494762
-0.00548173
-0.00599116
-0.00647152
-0.00693059
-0.00736652
-0.00777651
-0.00815503
-0.00849323
-0.00877953
-0.00900061
-0.00914253
-0.00919144
-0.0091342
-0.00895964
-0.00865979
-0.00823067
-0.0076701
-0.00696991
-0.00612201
-0.00514513
-0.00405614
-0.00286205
-0.00158363
-0.000242231
0.00113294
0.00250925
0.00384612
0.00509845
0.00622224
0.00717612
0.0079209
0.00842573
0.00867272
0.00866031
0.00840261
0.00791873
0.00727281
0.00651411
0.00570817
0.00491782
0.00419945
0.00358286
0.00310254
0.00276905
0.00255228
0.00242671
0.00237277
0.0023669
0.00238996
0.0024268
0.00246679
0.002494
-1.52635e-05
5.32065e-06
9.70714e-06
-1.06973e-05
-5.86692e-05
-0.000128161
-0.000208324
-0.000290501
-0.000369692
-0.000444591
-0.00051733
-0.000592069
-0.000673713
-0.000767083
-0.000876096
-0.00100435
-0.00115513
-0.00133095
-0.00153235
-0.0017595
-0.00201133
-0.00228855
-0.00259449
-0.00293167
-0.00330323
-0.00371664
-0.00417919
-0.00468895
-0.00523151
-0.00578225
-0.00631375
-0.00681725
-0.00729468
-0.0077429
-0.00815604
-0.0085252
-0.00883907
-0.00908494
-0.00924967
-0.00932065
-0.00928591
-0.00913539
-0.0088615
-0.00845852
-0.00792173
-0.00724741
-0.00644244
-0.00551451
-0.0044656
-0.00331368
-0.00207665
-0.000777864
0.000554659
0.00188743
0.00318279
0.00440068
0.00549853
0.00643487
0.00717405
0.00768625
0.00795315
0.00797208
0.00775588
0.00733108
0.00674425
0.00604984
0.00530931
0.00458161
0.0039196
0.00336453
0.00293457
0.00263692
0.00245819
0.00237474
0.00236215
0.00239289
0.00243617
0.00247483
0.00250723
0.00253292
-3.16739e-05
-8.87348e-06
-1.02566e-05
-3.99667e-05
-9.60488e-05
-0.000168113
-0.000244277
-0.000316294
-0.000381535
-0.000441713
-0.000500643
-0.000563386
-0.000635048
-0.000719437
-0.000819075
-0.000935797
-0.00107116
-0.00122743
-0.00140682
-0.00161213
-0.00184703
-0.00211463
-0.00241939
-0.00276633
-0.00315962
-0.00360175
-0.0040931
-0.00462946
-0.00519966
-0.00578598
-0.00636857
-0.00693175
-0.00746637
-0.00796592
-0.00842332
-0.00882937
-0.00917375
-0.00944541
-0.00963262
-0.00972398
-0.00970935
-0.00957992
-0.00932868
-0.00895054
-0.00844253
-0.00780419
-0.00703201
-0.00613884
-0.0051311
-0.00402183
-0.00282784
-0.00157087
-0.000277492
0.00102099
0.00228918
0.00348892
0.00457864
0.00551746
0.00627037
0.00680867
0.00711313
0.00717892
0.00701808
0.00665693
0.00613801
0.00551368
0.00483886
0.00417665
0.00357383
0.00306734
0.00268148
0.00242956
0.00229927
0.00226182
0.00228617
0.002348
0.00241731
0.00247518
0.00252248
0.00255959
-4.04809e-05
-1.8752e-05
-2.77601e-05
-6.88084e-05
-0.000135107
-0.00021033
-0.000282757
-0.000345797
-0.000398104
-0.000442037
-0.000483882
-0.000530475
-0.000587416
-0.000658476
-0.000745374
-0.000848896
-0.000970429
-0.00111281
-0.00127997
-0.00147754
-0.00171274
-0.00199348
-0.00232709
-0.00271616
-0.00316295
-0.00366859
-0.00422888
-0.00483312
-0.00546546
-0.00610918
-0.0067478
-0.00736616
-0.00795209
-0.00849648
-0.00899086
-0.00942596
-0.00979275
-0.0100815
-0.010282
-0.0103844
-0.0103803
-0.0102618
-0.0100226
-0.00965876
-0.00916863
-0.00855008
-0.00780485
-0.00693847
-0.00595837
-0.00487665
-0.00370906
-0.00247577
-0.00120114
8.62364e-05
0.00135286
0.00256064
0.00366928
0.00463876
0.00543214
0.0060198
0.0063807
0.00650609
0.00640562
0.00610548
0.005645
0.0050733
0.00444713
0.00382537
0.00325811
0.00278309
0.00242422
0.00219223
0.00207955
0.00206996
0.0021335
0.00223013
0.0023314
0.00241968
0.00249101
0.0025406
-3.48386e-05
-2.07742e-05
-4.00469e-05
-9.27477e-05
-0.000168668
-0.000246768
-0.00031547
-0.000369699
-0.000409485
-0.000439274
-0.0004664
-0.000498583
-0.000541876
-0.000599991
-0.000675077
-0.000768958
-0.000884775
-0.0010283
-0.0012067
-0.00142821
-0.00170266
-0.00203575
-0.0024322
-0.00289628
-0.0034272
-0.0040189
-0.00466102
-0.0053389
-0.00603504
-0.00673316
-0.00741792
-0.00807682
-0.00869919
-0.00927462
-0.00979397
-0.0102485
-0.0106296
-0.0109283
-0.0111365
-0.0112458
-0.0112487
-0.0111389
-0.0109104
-0.0105596
-0.0100858
-0.00948845
-0.00876816
-0.00792786
-0.00697396
-0.00591765
-0.00477397
-0.00356105
-0.00229994
-0.00101544
0.000260602
0.00148918
0.00263143
0.00364944
0.00450527
0.00516672
0.00561024
0.00582237
0.00580663
0.00558457
0.00519606
0.00468786
0.00411434
0.00353288
0.00299563
0.0025427
0.00220071
0.00197996
0.00187679
0.00187498
0.00194925
0.00206645
0.00219353
0.00230964
0.00240376
0.00246272
-5.902e-06
-6.06133e-06
-3.79134e-05
-0.000104588
-0.000188741
-0.000267935
-0.00033257
-0.000379052
-0.000408702
-0.000427639
-0.000444376
-0.000467055
-0.000501896
-0.000553297
-0.000625101
-0.000721778
-0.000849912
-0.00101837
-0.00123811
-0.00151632
-0.0018606
-0.00227825
-0.00277081
-0.00333507
-0.00396211
-0.00463985
-0.00535606
-0.00609674
-0.00684644
-0.00758993
-0.00831306
-0.00900425
-0.00965325
-0.0102505
-0.0107876
-0.0112559
-0.0116468
-0.0119527
-0.012167
-0.0122828
-0.0122936
-0.0121952
-0.0119821
-0.01165
-0.0112021
-0.0106352
-0.00994912
-0.00914593
-0.00823016
-0.00721109
-0.00610219
-0.00491777
-0.00367474
-0.00239463
-0.00111016
0.00014022
0.00132226
0.00240159
0.00333738
0.00409462
0.00464868
0.00497989
0.00508648
0.00498006
0.00469562
0.00428045
0.00378621
0.00326673
0.00277447
0.00235235
0.00202951
0.00181919
0.00171984
0.001718
0.00179039
0.00190894
0.00204324
0.00217006
0.00227411
0.00233632
5.67549e-05
3.88358e-05
-9.503e-06
-9.31781e-05
-0.000182654
-0.0002622
-0.000323601
-0.000364611
-0.000388529
-0.000402709
-0.000416217
-0.00043748
-0.000473375
-0.000530061
-0.000614422
-0.000734104
-0.000899472
-0.00112237
-0.00141112
-0.00177451
-0.0022191
-0.00274589
-0.00334617
-0.00400918
-0.00472484
-0.00548115
-0.00626438
-0.00706058
-0.00785603
-0.00863736
-0.00939202
-0.0101092
-0.0107791
-0.0113932
-0.0119434
-0.0124213
-0.0128179
-0.0131284
-0.0133477
-0.0134704
-0.0134937
-0.0134121
-0.0132214
-0.0129183
-0.0125037
-0.0119729
-0.0113277
-0.0105716
-0.00970996
-0.00874802
-0.00769202
-0.00655285
-0.00534649
-0.00409544
-0.00282443
-0.00156092
-0.000335304
0.000815054
0.00184273
0.00271649
0.00340893
0.00389222
0.00416054
0.00421573
0.00408231
0.00380167
0.00342339
0.00299905
0.00257873
0.0022067
0.00191485
0.00171982
0.00162322
0.00161731
0.00167899
0.00178582
0.00191048
0.00202986
0.0021286
0.00218572
0.00016335
0.00012471
5.43123e-05
-4.33277e-05
-0.000138351
-0.000219308
-0.000279638
-0.000319576
-0.000344128
-0.000361732
-0.00038189
-0.000413473
-0.000464719
-0.000544631
-0.000663128
-0.000831684
-0.0010622
-0.00136638
-0.00175267
-0.00222732
-0.00278692
-0.00342309
-0.00412538
-0.0048821
-0.00568033
-0.00650717
-0.00734934
-0.00819396
-0.00902858
-0.00984128
-0.010621
-0.0113579
-0.0120428
-0.0126668
-0.0132222
-0.0137009
-0.0140999
-0.0144156
-0.0146429
-0.0147776
-0.014816
-0.0147522
-0.0145841
-0.0143103
-0.0139271
-0.0134351
-0.0128363
-0.0121344
-0.0113336
-0.010437
-0.00944743
-0.00837375
-0.00723009
-0.00603409
-0.00480244
-0.0035525
-0.00231316
-0.00112121
-6.95591e-06
0.00100028
0.00184863
0.00251249
0.00297941
0.0032398
0.00330679
0.00320902
0.00299028
0.00269975
0.00238441
0.00208861
0.00184646
0.0016782
0.00158991
0.00157605
0.00162177
0.00170852
0.00181098
0.0019102
0.00198911
0.00203168
0.000319295
0.000259763
0.000164407
5.28812e-05
-4.88117e-05
-0.000132735
-0.000195901
-0.000240747
-0.000274143
-0.000305524
-0.000344885
-0.000401985
-0.000487124
-0.000612362
-0.000790949
-0.00103497
-0.00135726
-0.0017691
-0.00227335
-0.00286569
-0.00353892
-0.00428154
-0.00508046
-0.00592226
-0.00679384
-0.00768231
-0.0085753
-0.00946084
-0.0103275
-0.0111644
-0.0119617
-0.0127102
-0.0134009
-0.0140259
-0.0145796
-0.01506
-0.0154661
-0.0157906
-0.016028
-0.0161733
-0.0162217
-0.0161722
-0.0160241
-0.0157767
-0.015426
-0.0149752
-0.0144248
-0.0137766
-0.0130328
-0.0121973
-0.0112757
-0.0102752
-0.00920608
-0.00808103
-0.00691237
-0.00571007
-0.00449359
-0.00328839
-0.0021159
-0.0010184
-2.83594e-05
0.000834757
0.00152073
0.00201883
0.00232841
0.00246272
0.00245048
0.00233593
0.00216223
0.00197172
0.00180171
0.00167609
0.00160534
0.0015884
0.00161621
0.00167511
0.0017473
0.00181743
0.00186573
0.00188936
0.000532109
0.000449303
0.000326286
0.000199461
8.84956e-05
-1.58476e-06
-7.25853e-05
-0.000129828
-0.000182043
-0.000239617
-0.000313229
-0.000413899
-0.000554473
-0.000749802
-0.00101369
-0.00135835
-0.00179561
-0.00232957
-0.00295613
-0.00366681
-0.0044501
-0.00529159
-0.00617782
-0.00709511
-0.0080307
-0.00897208
-0.00990753
-0.0108258
-0.0117164
-0.0125695
-0.0133761
-0.0141281
-0.0148194
-0.0154453
-0.0160013
-0.0164836
-0.0168865
-0.0172054
-0.0174377
-0.017582
-0.0176362
-0.017599
-0.0174697
-0.0172481
-0.0169318
-0.0165225
-0.0160215
-0.01543
-0.01475
-0.0139842
-0.0131368
-0.0122128
-0.0112186
-0.0101611
-0.00904918
-0.00789738
-0.00672347
-0.00554249
-0.00436645
-0.00321729
-0.00211669
-0.00110367
-0.000211245
0.000540644
0.00111819
0.00152373
0.00176482
0.00187036
0.00187842
0.00182641
0.00175238
0.00168694
0.00164594
0.00163363
0.00164586
0.00167549
0.00171301
0.00174662
0.0017613
0.00176603
0.000804186
0.000692202
0.000540247
0.000392865
0.000270513
0.000169767
8.45186e-05
5.9598e-06
-7.65888e-05
-0.00017446
-0.0002991
-0.000463365
-0.000682213
-0.000970951
-0.00134269
-0.00180779
-0.00237175
-0.0030327
-0.00378152
-0.00460541
-0.00549041
-0.00642176
-0.00738577
-0.00836901
-0.00935901
-0.0103437
-0.0113121
-0.0122537
-0.0131589
-0.0140193
-0.0148273
-0.0155764
-0.0162616
-0.0168787
-0.0174238
-0.0178942
-0.0182858
-0.0185961
-0.0188233
-0.0189666
-0.0190249
-0.0189974
-0.0188838
-0.018684
-0.0183975
-0.0180252
-0.0175684
-0.0170287
-0.0164079
-0.0157085
-0.0149335
-0.0140868
-0.0131725
-0.0121947
-0.0111586
-0.010072
-0.00894409
-0.0077862
-0.00661737
-0.0054556
-0.00430957
-0.00319692
-0.00213831
-0.0011737
-0.00032846
0.000363092
0.000891652
0.00126087
0.00149312
0.0016186
0.00167016
0.00168325
0.00168433
0.00168492
0.00168771
0.00169051
0.0016926
0.00168717
0.00167001
0.00165824
0.00112346
0.000981658
0.000794351
0.000623512
0.000486408
0.000370627
0.000263861
0.000154
2.85861e-05
-0.000124494
-0.000317864
-0.000565649
-0.000883419
-0.00128524
-0.00178143
-0.00237767
-0.00307343
-0.00386051
-0.00472566
-0.0056545
-0.00663188
-0.00764321
-0.00867472
-0.00971327
-0.0107467
-0.0117635
-0.0127534
-0.013707
-0.0146161
-0.0154736
-0.0162734
-0.0170106
-0.0176813
-0.0182822
-0.018811
-0.0192654
-0.0196433
-0.0199432
-0.0201639
-0.0203047
-0.0203651
-0.0203449
-0.0202441
-0.0200629
-0.0198017
-0.0194614
-0.0190434
-0.0185492
-0.0179807
-0.0173401
-0.01663
-0.0158532
-0.0150129
-0.0141119
-0.0131537
-0.0121422
-0.0110814
-0.0099763
-0.00883453
-0.00766652
-0.0064889
-0.00532128
-0.00416704
-0.00304454
-0.0019816
-0.00102151
-0.000199152
0.000463308
0.000960919
0.0013062
0.00152241
0.00164018
0.00169667
0.00171784
0.00171628
0.00169721
0.00166686
0.00162581
0.00158212
0.00155616
0.00147569
0.00130239
0.00107508
0.00087787
0.000722255
0.000585509
0.000449025
0.00029728
0.00011628
-0.000106999
-0.000385616
-0.000734564
-0.00116805
-0.00169694
-0.00232721
-0.00305883
-0.00388465
-0.00479174
-0.00576496
-0.00678895
-0.00784827
-0.00892843
-0.0100158
-0.0110975
-0.0121619
-0.0131985
-0.014198
-0.0151526
-0.0160554
-0.0169011
-0.0176851
-0.018404
-0.0190551
-0.0196364
-0.0201461
-0.020583
-0.020946
-0.0212342
-0.021447
-0.021584
-0.0216451
-0.0216304
-0.0215402
-0.021375
-0.0211355
-0.0208228
-0.0204383
-0.0199836
-0.0194605
-0.0188711
-0.0182176
-0.0175024
-0.0167276
-0.0158955
-0.0150082
-0.0140676
-0.0130756
-0.0120338
-0.0109443
-0.00980897
-0.00863276
-0.0074253
-0.00620425
-0.00498332
-0.0037716
-0.00259925
-0.00151107
-0.000553226
0.000237171
0.000842307
0.00126655
0.00152871
0.00166325
0.00171479
0.001713
0.00167626
0.00161897
0.00154924
0.00148629
0.00145143
0.00184264
0.00163497
0.00136551
0.00113748
0.000958861
0.000794782
0.000620096
0.000416061
0.000167377
-0.000139171
-0.000517618
-0.000981832
-0.00154282
-0.00220707
-0.0029745
-0.00383884
-0.00478796
-0.00580613
-0.00687714
-0.00798506
-0.00911441
-0.0102509
-0.0113811
-0.0124929
-0.0135756
-0.01462
-0.0156183
-0.0165644
-0.0174531
-0.0182805
-0.0190438
-0.0197408
-0.0203699
-0.0209298
-0.0214198
-0.0218389
-0.0221869
-0.0224633
-0.0226681
-0.022801
-0.0228621
-0.0228519
-0.0227707
-0.0226192
-0.0223984
-0.0221095
-0.0217538
-0.0213329
-0.0208487
-0.0203031
-0.0196982
-0.0190358
-0.018318
-0.0175461
-0.0167214
-0.0158447
-0.0149163
-0.0139358
-0.0129026
-0.0118154
-0.0106733
-0.00947581
-0.00822629
-0.00693528
-0.00562615
-0.00430894
-0.00301232
-0.00179307
-0.000709367
0.000184048
0.000856811
0.00130935
0.00156177
0.00166267
0.00166886
0.00161749
0.0015377
0.00144608
0.0013708
0.00133076
0.0021994
0.001956
0.00164075
0.00138015
0.00117437
0.000976627
0.000755548
0.000489993
0.000163634
-0.000237721
-0.000727597
-0.00131666
-0.00201178
-0.00281281
-0.00371394
-0.00470369
-0.00576628
-0.00688439
-0.00804115
-0.0092203
-0.0104065
-0.0115858
-0.0127455
-0.0138746
-0.0149639
-0.0160057
-0.0169941
-0.0179246
-0.0187938
-0.0195993
-0.0203394
-0.021013
-0.0216194
-0.0221581
-0.0226287
-0.0230311
-0.0233651
-0.0236307
-0.0238281
-0.0239572
-0.0240184
-0.024012
-0.0239388
-0.0237994
-0.0235948
-0.0233263
-0.0229952
-0.0226032
-0.022152
-0.0216435
-0.0210795
-0.0204619
-0.0197922
-0.0190717
-0.0183011
-0.0174804
-0.0166089
-0.0156851
-0.0147064
-0.0136696
-0.0125706
-0.0114054
-0.0101708
-0.00886644
-0.00749903
-0.00608448
-0.00464847
-0.00322536
-0.00188382
-0.00069933
0.000254946
0.000940882
0.00136132
0.00155012
0.00157901
0.00151935
0.00141932
0.00130914
0.00122617
0.00118212
0.00251865
0.00223988
0.00187857
0.00158329
0.00134608
0.00110831
0.000833769
0.000499233
8.68701e-05
-0.000418388
-0.00102685
-0.00174526
-0.00257409
-0.00350749
-0.00453439
-0.00563894
-0.00680295
-0.00800814
-0.0092372
-0.0104738
-0.011703
-0.0129117
-0.0140882
-0.0152233
-0.0163092
-0.0173404
-0.0183126
-0.0192231
-0.0200697
-0.0208515
-0.0215678
-0.0222183
-0.0228028
-0.0233215
-0.0237745
-0.0241617
-0.0244833
-0.0247395
-0.0249305
-0.0250567
-0.0251183
-0.0251157
-0.0250497
-0.024921
-0.0247306
-0.0244798
-0.0241699
-0.0238025
-0.0233792
-0.0229018
-0.0223721
-0.0217919
-0.0211624
-0.0204849
-0.0197598
-0.0189868
-0.0181649
-0.0172916
-0.0163637
-0.0153763
-0.0143236
-0.0131989
-0.0119955
-0.0107083
-0.00933487
-0.00787847
-0.00635468
-0.00479689
-0.00325566
-0.00181367
-0.000569124
0.000391247
0.00102745
0.00135542
0.00144043
0.00138394
0.00126592
0.00113814
0.00104742
0.000996523
0.00277962
0.0024624
0.00205584
0.00172428
0.00145134
0.00116824
0.000835267
0.000426379
-7.90796e-05
-0.000693224
-0.00142234
-0.00226821
-0.00322521
-0.00428238
-0.00542374
-0.00663018
-0.00788191
-0.00916007
-0.0104471
-0.0117271
-0.0129858
-0.0142112
-0.0153934
-0.016525
-0.0176001
-0.018615
-0.0195671
-0.0204551
-0.0212782
-0.0220364
-0.0227296
-0.0233583
-0.0239228
-0.0244234
-0.0248606
-0.0252346
-0.0255457
-0.0257941
-0.0259801
-0.0261042
-0.0261666
-0.0261678
-0.0261085
-0.0259895
-0.0258118
-0.0255765
-0.0252848
-0.0249384
-0.0245387
-0.0240875
-0.0235865
-0.0230373
-0.0224411
-0.0217991
-0.0211117
-0.0203786
-0.0195985
-0.018769
-0.0178862
-0.016945
-0.0159384
-0.0148582
-0.0136955
-0.012441
-0.0110873
-0.00963106
-0.00807619
-0.0064416
-0.004769
-0.00312855
-0.0016236
-0.000373721
0.000526351
0.00104969
0.00124103
0.00121034
0.00108184
0.000935547
0.000830461
0.000766857
0.00294798
0.00259937
0.00215083
0.00178254
0.00147062
0.00113914
0.00074414
0.000255733
-0.000345103
-0.00106765
-0.00191499
-0.00288196
-0.00395807
-0.00512723
-0.00636942
-0.00766325
-0.00898795
-0.0103243
-0.0116549
-0.0129646
-0.0142402
-0.0154714
-0.0166503
-0.0177712
-0.0188303
-0.0198254
-0.0207554
-0.0216203
-0.0224202
-0.0231557
-0.0238276
-0.0244365
-0.024983
-0.0254679
-0.0258915
-0.0262544
-0.0265567
-0.0267989
-0.0269812
-0.0271041
-0.0271678
-0.027173
-0.0271201
-0.02701
-0.0268435
-0.0266218
-0.0263461
-0.0260177
-0.0256382
-0.0252091
-0.0247321
-0.0242086
-0.0236399
-0.0230271
-0.0223707
-0.0216703
-0.020925
-0.0201323
-0.0192886
-0.0183885
-0.017425
-0.0163893
-0.0152711
-0.0140591
-0.012742
-0.011311
-0.00976231
-0.00810284
-0.00635907
-0.00458786
-0.00288111
-0.00136312
-0.000173148
0.000597327
0.000955555
0.000993817
0.000866634
0.000701119
0.000570646
0.000489619
0.00301012
0.00263326
0.00214629
0.00174157
0.0013893
0.00100764
0.000547848
-2.10803e-05
-0.000715845
-0.00154349
-0.00250171
-0.00358036
-0.00476355
-0.00603065
-0.00735861
-0.00872452
-0.010107
-0.0114869
-0.0128473
-0.014174
-0.0154557
-0.0166838
-0.0178523
-0.0189575
-0.0199972
-0.0209708
-0.0218783
-0.0227206
-0.0234985
-0.0242132
-0.0248657
-0.025457
-0.025988
-0.0264593
-0.0268716
-0.0272251
-0.0275205
-0.0277579
-0.0279376
-0.02806
-0.0281256
-0.0281347
-0.0280879
-0.027986
-0.0278298
-0.0276203
-0.0273585
-0.0270458
-0.0266836
-0.0262734
-0.0258165
-0.0253145
-0.0247686
-0.0241798
-0.0235487
-0.0228752
-0.0221584
-0.0213964
-0.0205857
-0.0197214
-0.0187966
-0.0178028
-0.0167291
-0.0155633
-0.0142921
-0.0129028
-0.0113858
-0.00973835
-0.00797242
-0.00612841
-0.00428633
-0.00255555
-0.0010839
-2.41874e-05
0.000554994
0.000713596
0.000614963
0.000431268
0.000263525
0.000163881
0.002951
0.00255059
0.00203006
0.0015906
0.00119786
0.00076445
0.00023919
-0.000407244
-0.00119135
-0.00211712
-0.00317662
-0.00435483
-0.00563095
-0.00698062
-0.00837864
-0.00980111
-0.0112265
-0.0126359
-0.0140134
-0.0153463
-0.0166251
-0.0178431
-0.0189963
-0.0200825
-0.0211011
-0.0220527
-0.0229382
-0.0237591
-0.0245168
-0.0252127
-0.0258481
-0.0264241
-0.0269417
-0.0274016
-0.0278043
-0.0281504
-0.0284402
-0.028674
-0.0288521
-0.0289748
-0.0290425
-0.0290556
-0.0290148
-0.0289205
-0.0287736
-0.0285749
-0.0283256
-0.0280267
-0.0276796
-0.0272855
-0.0268458
-0.0263619
-0.025835
-0.0252661
-0.0246559
-0.0240043
-0.0233109
-0.0225741
-0.0217909
-0.0209571
-0.0200664
-0.0191105
-0.0180792
-0.0169599
-0.0157382
-0.0143994
-0.01293
-0.0113205
-0.00957012
-0.00770068
-0.00577856
-0.00390083
-0.00219552
-0.000843581
7.60495e-06
0.000348658
0.000315902
0.000117109
-9.47532e-05
-0.000212035
0.00276175
0.00234343
0.00179529
0.0013238
0.000890761
0.000406234
-0.000181176
-0.00090069
-0.00176782
-0.00278196
-0.0039309
-0.00519474
-0.00654847
-0.00796486
-0.00941725
-0.0108812
-0.0123353
-0.0137615
-0.0151452
-0.0164753
-0.0177441
-0.0189469
-0.0200814
-0.0211468
-0.0221439
-0.0230739
-0.0239385
-0.0247396
-0.025479
-0.0261582
-0.0267786
-0.0273415
-0.0278476
-0.0282979
-0.0286928
-0.0290328
-0.0293183
-0.0295495
-0.0297267
-0.0298502
-0.0299204
-0.0299376
-0.0299023
-0.0298151
-0.0296768
-0.029488
-0.0292498
-0.0289632
-0.0286292
-0.0282493
-0.0278245
-0.0273561
-0.0268453
-0.0262931
-0.0257001
-0.0250667
-0.0243926
-0.0236764
-0.0229161
-0.0221079
-0.0212464
-0.0203244
-0.0193319
-0.0182571
-0.0170854
-0.0158009
-0.0143876
-0.0128321
-0.0111252
-0.00926913
-0.00730586
-0.00534328
-0.00347139
-0.00185713
-0.000707889
-0.000131937
-5.38364e-05
-0.000249423
-0.000504441
-0.000637926
0.00243998
0.00200984
0.00144063
0.000940457
0.000468803
-6.43469e-05
-0.000709315
-0.00149545
-0.00243665
-0.00352814
-0.00475336
-0.00608804
-0.00750376
-0.00897125
-0.0104629
-0.0119543
-0.0134244
-0.0148563
-0.0162369
-0.0175568
-0.0188104
-0.0199946
-0.0211084
-0.0221524
-0.0231281
-0.0240375
-0.0248827
-0.0256658
-0.0263887
-0.0270531
-0.0276605
-0.028212
-0.0287086
-0.0291508
-0.0295393
-0.0298744
-0.0301565
-0.030386
-0.0305629
-0.0306875
-0.0307603
-0.0307815
-0.0307516
-0.0306711
-0.0305406
-0.0303608
-0.0301326
-0.029857
-0.0295348
-0.0291673
-0.0287555
-0.0283006
-0.0278037
-0.0272657
-0.0266875
-0.0260693
-0.0254111
-0.0247122
-0.0239709
-0.0231842
-0.0223477
-0.021455
-0.0204975
-0.0194639
-0.0183403
-0.0171105
-0.0157569
-0.0142635
-0.0126166
-0.0108062
-0.00884292
-0.00682705
-0.00485697
-0.00304444
-0.00161301
-0.000760406
-0.000511533
-0.000677193
-0.000963582
-0.00111345
0.00198899
0.00155342
0.000969799
0.000444705
-6.26532e-05
-0.000639832
-0.00133658
-0.00218208
-0.0031871
-0.00434372
-0.00563132
-0.00702189
-0.00848439
-0.00998815
-0.0115052
-0.0130112
-0.0144862
-0.0159144
-0.0172844
-0.0185889
-0.0198235
-0.0209868
-0.022079
-0.0231016
-0.0240567
-0.0249466
-0.0257739
-0.0265407
-0.027249
-0.0279005
-0.0284965
-0.0290383
-0.0295265
-0.029962
-0.0303452
-0.0306764
-0.030956
-0.0311842
-0.0313613
-0.0314873
-0.0315628
-0.0315879
-0.031563
-0.0314887
-0.0313655
-0.031194
-0.030975
-0.0307092
-0.0303977
-0.0300413
-0.0296411
-0.0291982
-0.0287134
-0.0281879
-0.0276223
-0.0270171
-0.0263726
-0.0256882
-0.0249629
-0.0241944
-0.0233792
-0.0225119
-0.0215852
-0.020589
-0.0195104
-0.0183336
-0.0170404
-0.0156126
-0.0140341
-0.0122893
-0.0103706
-0.00832086
-0.00630068
-0.00436142
-0.00269056
-0.00154991
-0.00108305
-0.00118264
-0.00147128
-0.00164352
0.00141714
0.000982515
0.000390691
-0.000154685
-0.000693611
-0.00130976
-0.00205177
-0.00294779
-0.00400596
-0.00521518
-0.00655128
-0.00798331
-0.00947826
-0.0110047
-0.0125345
-0.0140441
-0.0155146
-0.0169316
-0.0182854
-0.0195703
-0.0207836
-0.0219248
-0.0229952
-0.0239969
-0.0249323
-0.0258042
-0.026615
-0.0273671
-0.0280624
-0.0287024
-0.0292886
-0.0298219
-0.0303031
-0.0307329
-0.0311116
-0.0314397
-0.0317173
-0.0319448
-0.0321222
-0.0322498
-0.0323279
-0.0323568
-0.0323368
-0.0322683
-0.0321518
-0.0319879
-0.0317772
-0.0315205
-0.0312186
-0.0308723
-0.0304826
-0.0300504
-0.0295765
-0.029062
-0.0285076
-0.0279139
-0.0272812
-0.0266095
-0.0258979
-0.025145
-0.0243481
-0.0235029
-0.0226032
-0.0216404
-0.020603
-0.0194762
-0.018242
-0.0168807
-0.0153743
-0.0137056
-0.0118549
-0.00982051
-0.0077595
-0.0057579
-0.00391448
-0.00250888
-0.00179035
-0.00176403
-0.00203235
-0.00223888
0.000736838
0.000309524
-0.000284231
-0.00084504
-0.00141058
-0.00206023
-0.00284083
-0.00377835
-0.00487877
-0.00612818
-0.00749953
-0.00895953
-0.0104739
-0.0120109
-0.0135427
-0.0150466
-0.0165048
-0.0179048
-0.0192383
-0.020501
-0.0216914
-0.0228102
-0.023859
-0.0248405
-0.0257575
-0.0266126
-0.0274085
-0.0281472
-0.0288308
-0.0294607
-0.0300382
-0.0305641
-0.0310392
-0.0314641
-0.0318391
-0.0321646
-0.0324407
-0.0326676
-0.0328457
-0.0329749
-0.0330556
-0.033088
-0.0330725
-0.0330094
-0.0328992
-0.0327423
-0.0325394
-0.032291
-0.0319979
-0.0316609
-0.0312807
-0.0308583
-0.0303944
-0.0298899
-0.0293456
-0.0287622
-0.0281402
-0.0274796
-0.0267802
-0.026041
-0.02526
-0.0244341
-0.0235583
-0.0226253
-0.0216251
-0.0205444
-0.0193661
-0.0180703
-0.0166367
-0.0150469
-0.0132793
-0.0113153
-0.00921705
-0.00719032
-0.00525005
-0.0036302
-0.00265171
-0.00243799
-0.00266363
-0.00291627
-3.48207e-05
-0.000450683
-0.00103988
-0.00161128
-0.00219894
-0.00287661
-0.00368828
-0.0046583
-0.00579038
-0.00706825
-0.00846257
-0.0099384
-0.0114607
-0.0129978
-0.0145225
-0.0160132
-0.0174534
-0.018832
-0.0201423
-0.0213811
-0.0225481
-0.0236444
-0.0246723
-0.0256346
-0.0265342
-0.0273738
-0.028156
-0.0288827
-0.0295558
-0.0301766
-0.0307463
-0.0312657
-0.0317355
-0.0321561
-0.0325279
-0.0328511
-0.033126
-0.0333527
-0.0335314
-0.0336622
-0.0337454
-0.0337813
-0.03377
-0.0337119
-0.0336075
-0.0334571
-0.0332613
-0.0330206
-0.0327357
-0.0324072
-0.0320358
-0.0316224
-0.0311677
-0.0306725
-0.0301377
-0.0295638
-0.0289514
-0.028301
-0.0276126
-0.0268857
-0.026119
-0.0253102
-0.0244555
-0.023549
-0.0225824
-0.0215439
-0.0204178
-0.019185
-0.0178237
-0.0163146
-0.0146375
-0.0127622
-0.0106761
-0.00862833
-0.00665487
-0.00488731
-0.00367063
-0.00323912
-0.00338242
-0.00369692
-0.000878836
-0.00128077
-0.00186042
-0.00243806
-0.00304289
-0.00374265
-0.00457806
-0.00557186
-0.00672567
-0.00802125
-0.00942757
-0.0109086
-0.0124291
-0.0139576
-0.0154679
-0.0169395
-0.0183573
-0.0197115
-0.0209968
-0.0222111
-0.0233545
-0.0244288
-0.0254366
-0.0263807
-0.0272641
-0.0280894
-0.0288589
-0.0295747
-0.0302382
-0.0308509
-0.0314136
-0.0319272
-0.0323922
-0.032809
-0.0331779
-0.0334993
-0.0337731
-0.0339997
-0.034179
-0.0343114
-0.034397
-0.034436
-0.0344286
-0.0343752
-0.0342761
-0.0341318
-0.0339425
-0.033709
-0.0334316
-0.0331111
-0.032748
-0.032343
-0.031897
-0.0314105
-0.0308844
-0.0303194
-0.0297162
-0.0290754
-0.0283971
-0.0276815
-0.0269277
-0.0261344
-0.0252987
-0.0244161
-0.0234797
-0.0224795
-0.0214016
-0.0202279
-0.0189369
-0.017507
-0.0159179
-0.0141389
-0.0121419
-0.0100631
-0.00809231
-0.00625118
-0.00484232
-0.00418642
-0.00420605
-0.00460875
-0.00177692
-0.00216263
-0.0027288
-0.00330831
-0.00392534
-0.00464136
-0.00549379
-0.0065034
-0.00766995
-0.00897372
-0.0103826
-0.0118599
-0.0133705
-0.0148835
-0.0163738
-0.0178219
-0.0192143
-0.0205424
-0.0218018
-0.0229912
-0.0241114
-0.0251645
-0.0261531
-0.0270801
-0.0279484
-0.0287604
-0.0295183
-0.0302239
-0.0308788
-0.0314839
-0.0320403
-0.0325486
-0.0330093
-0.0334227
-0.0337891
-0.0341087
-0.0343817
-0.0346081
-0.0347882
-0.034922
-0.0350097
-0.0350516
-0.0350479
-0.0349988
-0.0349047
-0.0347659
-0.0345828
-0.0343558
-0.0340855
-0.0337724
-0.033417
-0.03302
-0.0325821
-0.0321039
-0.0315862
-0.0310298
-0.0304353
-0.0298035
-0.0291349
-0.0284298
-0.0276881
-0.0269089
-0.0260905
-0.0252295
-0.0243205
-0.0233551
-0.0223215
-0.0212031
-0.0199794
-0.0186271
-0.0171249
-0.0154475
-0.013562
-0.0114865
-0.00953687
-0.00768895
-0.00615031
-0.00528025
-0.00516081
-0.00566731
-0.00271056
-0.0030781
-0.00362733
-0.00420444
-0.00482908
-0.00555613
-0.00641953
-0.00743788
-0.00860935
-0.00991321
-0.0113167
-0.012783
-0.0142773
-0.0157696
-0.0172357
-0.0186575
-0.0200227
-0.0213237
-0.022557
-0.0237219
-0.0248196
-0.0258523
-0.0268227
-0.0277337
-0.0285878
-0.0293874
-0.0301346
-0.0308309
-0.0314777
-0.032076
-0.0326266
-0.0331301
-0.0335868
-0.0339971
-0.0343612
-0.0346792
-0.0349513
-0.0351777
-0.0353583
-0.0354935
-0.0355832
-0.0356278
-0.0356274
-0.0355822
-0.0354926
-0.035359
-0.0351815
-0.0349607
-0.034697
-0.0343908
-0.0340427
-0.0336532
-0.033223
-0.0327527
-0.0322431
-0.0316948
-0.0311088
-0.0304858
-0.0298264
-0.0291315
-0.0284011
-0.0276352
-0.0268327
-0.0259915
-0.0251074
-0.0241737
-0.0231805
-0.0221132
-0.0209526
-0.0196758
-0.0182615
-0.0166887
-0.014916
-0.0129027
-0.0109542
-0.00914784
-0.00754853
-0.00650446
-0.00626977
-0.00685822
-0.00366178
-0.00400901
-0.0045384
-0.00510973
-0.0057379
-0.00647126
-0.00734028
-0.00836129
-0.00953112
-0.0108284
-0.0122201
-0.0136697
-0.0151429
-0.0166107
-0.01805
-0.0194438
-0.0207808
-0.0220545
-0.0232621
-0.0244032
-0.0254794
-0.0264927
-0.027446
-0.0283419
-0.0291828
-0.0299709
-0.0307081
-0.0313958
-0.0320352
-0.0326272
-0.0331724
-0.0336714
-0.0341244
-0.0345318
-0.0348938
-0.0352103
-0.0354817
-0.0357079
-0.0358891
-0.0360254
-0.0361169
-0.0361639
-0.0361665
-0.036125
-0.0360396
-0.0359106
-0.0357383
-0.0355232
-0.0352656
-0.0349659
-0.0346246
-0.0342423
-0.0338194
-0.0333567
-0.0328548
-0.0323145
-0.0317367
-0.0311222
-0.0304718
-0.0297866
-0.0290671
-0.0283137
-0.0275261
-0.0267031
-0.0258418
-0.0249371
-0.0239807
-0.0229603
-0.0218584
-0.0206533
-0.0193222
-0.0178444
-0.0161851
-0.0143043
-0.0123467
-0.0105908
-0.00898554
-0.00782621
-0.00752289
-0.0081501
-0.00461298
-0.00493815
-0.00544538
-0.00600824
-0.00663652
-0.00737215
-0.00824224
-0.0092609
-0.0104238
-0.0117091
-0.0130842
-0.0145129
-0.0159617
-0.0174026
-0.0188134
-0.0201785
-0.0214873
-0.0227342
-0.0239169
-0.0250352
-0.0260909
-0.027086
-0.0280232
-0.028905
-0.0297336
-0.0305111
-0.031239
-0.0319187
-0.0325512
-0.0331373
-0.0336776
-0.0341723
-0.034622
-0.0350267
-0.0353865
-0.0357017
-0.0359723
-0.0361983
-0.03638
-0.0365173
-0.0366105
-0.0366596
-0.0366649
-0.0366267
-0.036545
-0.0364203
-0.0362529
-0.036043
-0.035791
-0.0354973
-0.0351624
-0.0347868
-0.0343709
-0.0339154
-0.033421
-0.0328885
-0.0323186
-0.0317124
-0.0310709
-0.0303951
-0.0296861
-0.0289446
-0.028171
-0.0273649
-0.0265246
-0.0256464
-0.0247238
-0.0237464
-0.0226989
-0.0215611
-0.0203094
-0.0189228
-0.0173748
-0.0156312
-0.0137033
-0.0119936
-0.0104206
-0.00920322
-0.00885879
-0.00946655
-0.00554788
-0.00584975
-0.00633328
-0.0068854
-0.00751093
-0.00824551
-0.009113
-0.0101253
-0.0112772
-0.0125466
-0.0139015
-0.0153064
-0.0167289
-0.0181415
-0.0195235
-0.0208598
-0.0221411
-0.0233621
-0.0245209
-0.0256177
-0.026654
-0.0276321
-0.0285543
-0.029423
-0.0302402
-0.0310077
-0.0317271
-0.0323994
-0.0330255
-0.0336061
-0.0341417
-0.0346326
-0.0350791
-0.0354812
-0.0358392
-0.036153
-0.0364229
-0.0366487
-0.0368307
-0.0369689
-0.0370634
-0.0371145
-0.0371223
-0.0370869
-0.0370087
-0.0368879
-0.0367248
-0.0365197
-0.0362729
-0.0359848
-0.0356558
-0.0352865
-0.0348772
-0.0344286
-0.0339413
-0.0334162
-0.032854
-0.0322559
-0.031623
-0.0309564
-0.0302575
-0.0295275
-0.0287671
-0.0279769
-0.027156
-0.0263021
-0.0254102
-0.024472
-0.0234743
-0.0223985
-0.0212223
-0.0199251
-0.0184863
-0.0168638
-0.0150227
-0.0133337
-0.011809
-0.0105784
-0.0101841
-0.0106919
-0.00645086
-0.00672959
-0.00718846
-0.00772811
-0.00834862
-0.00907952
-0.00994153
-0.0109445
-0.0120826
-0.0133332
-0.0146654
-0.0160451
-0.0174402
-0.0188244
-0.0201777
-0.0214862
-0.0227409
-0.0239373
-0.0250737
-0.0261503
-0.0271686
-0.0281308
-0.0290391
-0.0298957
-0.0307023
-0.0314607
-0.0321721
-0.0328376
-0.0334578