/*--------------------------------*- C++ -*----------------------------------*\
  =========                 |
  \\      /  F ield         | OpenFOAM: The Open Source CFD Toolbox
   \\    /   O peration     | Website:  https://openfoam.org
    \\  /    A nd           | Version:  13
     \\/     M anipulation  |
\*---------------------------------------------------------------------------*/
FoamFile
{
    format      ascii;
    class       volVectorField;
    location    "8.4";
    object      U;
}
// * * * * * * * * * * * * * * * * * * * * * * * * * * * * * * * * * * * * * //

dimensions      [0 1 -1 0 0 0 0];

internalField   nonuniform List<vector> 
6400
(
(-0.000128218 8.45481e-05 0)
(0.000448021 -0.000174986 0)
(0.00211322 -0.000440227 0)
(0.00431021 -0.000557514 0)
(0.00649295 -0.000491045 0)
(0.00830952 -0.000326614 0)
(0.00951362 -0.000129337 0)
(0.0101112 1.8178e-05 0)
(0.0102297 7.23691e-05 0)
(0.0101163 5.03542e-05 0)
(0.00989256 -2.94588e-05 0)
(0.00973261 -0.000137936 0)
(0.00969874 -0.000250592 0)
(0.00979013 -0.000341738 0)
(0.00995714 -0.00041504 0)
(0.0101198 -0.000468469 0)
(0.0102025 -0.000501751 0)
(0.010153 -0.000502941 0)
(0.00992782 -0.000482427 0)
(0.00943225 -0.000440479 0)
(0.00863049 -0.000391487 0)
(0.00746244 -0.000341933 0)
(0.00588727 -0.000295455 0)
(0.00387662 -0.000278477 0)
(0.00139392 -0.000328754 0)
(-0.00152676 -0.000444811 0)
(-0.00493176 -0.000482363 0)
(-0.00904524 -0.000285393 0)
(-0.0139749 0.000258598 0)
(-0.0197725 0.00114717 0)
(-0.0271465 0.00219117 0)
(-0.0353282 0.00307229 0)
(-0.0441717 0.00377844 0)
(-0.0533672 0.00429803 0)
(-0.0626584 0.00463811 0)
(-0.0718111 0.00481407 0)
(-0.080641 0.00485092 0)
(-0.088994 0.00477218 0)
(-0.0967552 0.00460029 0)
(-0.103827 0.00435297 0)
(-0.110134 0.00404194 0)
(-0.115617 0.00367562 0)
(-0.120231 0.00325613 0)
(-0.123953 0.0027876 0)
(-0.126759 0.00228444 0)
(-0.128432 0.00181252 0)
(-0.129125 0.00138169 0)
(-0.128979 0.000657088 0)
(-0.127434 0.000107871 0)
(-0.124974 -0.000580597 0)
(-0.121229 -0.00121571 0)
(-0.116408 -0.00188176 0)
(-0.110377 -0.00251609 0)
(-0.103247 -0.00313819 0)
(-0.09505 -0.00374321 0)
(-0.0858772 -0.00432375 0)
(-0.0757475 -0.00482939 0)
(-0.0648539 -0.00525805 0)
(-0.0533497 -0.00557702 0)
(-0.0414486 -0.00575393 0)
(-0.0293917 -0.00575272 0)
(-0.0174618 -0.00556122 0)
(-0.00589105 -0.00517765 0)
(0.00485885 -0.00467203 0)
(0.0144677 -0.00390814 0)
(0.0227431 -0.00297349 0)
(0.0293586 -0.00191171 0)
(0.0340355 -0.00076242 0)
(0.0367966 0.000395527 0)
(0.0370326 0.00160479 0)
(0.0355914 0.00226802 0)
(0.0320311 0.00285016 0)
(0.0267365 0.00304565 0)
(0.0206083 0.00274425 0)
(0.0144172 0.00204627 0)
(0.00896675 0.00120772 0)
(0.00469806 0.000524431 0)
(0.00176257 0.000118998 0)
(0.000141775 -0.000169429 0)
(-0.000236852 -0.000344847 0)
(1.53264e-05 -0.000385524 0)
(0.00183441 -0.00212649 0)
(0.00529246 -0.00357538 0)
(0.00914259 -0.00406021 0)
(0.0126845 -0.00366737 0)
(0.0155009 -0.00278372 0)
(0.0174149 -0.00170818 0)
(0.0184557 -0.000731401 0)
(0.0187474 -3.91852e-05 0)
(0.0184546 0.000338275 0)
(0.0177763 0.000442842 0)
(0.0168828 0.000358046 0)
(0.0158607 0.000206826 0)
(0.0147016 0.000103112 0)
(0.0133331 0.000110984 0)
(0.0116519 0.000243536 0)
(0.00957233 0.000479216 0)
(0.00702525 0.000804384 0)
(0.00389755 0.0012341 0)
(8.32665e-05 0.0017783 0)
(-0.00452688 0.00244129 0)
(-0.0101722 0.00324228 0)
(-0.016929 0.0041436 0)
(-0.0248684 0.00513856 0)
(-0.0340368 0.00624479 0)
(-0.0445381 0.00746887 0)
(-0.0562509 0.00883439 0)
(-0.0688244 0.0103391 0)
(-0.0818711 0.011918 0)
(-0.0948572 0.0133919 0)
(-0.107285 0.0144718 0)
(-0.119343 0.0151313 0)
(-0.130744 0.0153794 0)
(-0.141411 0.015245 0)
(-0.151246 0.0147984 0)
(-0.160186 0.0140909 0)
(-0.16819 0.0131793 0)
(-0.175226 0.0121075 0)
(-0.181281 0.0109136 0)
(-0.186341 0.00962564 0)
(-0.190393 0.00826043 0)
(-0.193436 0.00683451 0)
(-0.19546 0.0053545 0)
(-0.196464 0.00383129 0)
(-0.196435 0.00227415 0)
(-0.195341 0.00069518 0)
(-0.193193 -0.000929339 0)
(-0.189991 -0.00264306 0)
(-0.185668 -0.00438681 0)
(-0.180291 -0.00616905 0)
(-0.173787 -0.00796676 0)
(-0.166197 -0.00976562 0)
(-0.157486 -0.0115425 0)
(-0.147688 -0.0132667 0)
(-0.136807 -0.0149044 0)
(-0.124927 -0.016405 0)
(-0.11216 -0.0177343 0)
(-0.0986034 -0.0188302 0)
(-0.0844387 -0.0196243 0)
(-0.0698798 -0.0200657 0)
(-0.0551381 -0.0200881 0)
(-0.0404719 -0.0196517 0)
(-0.0261634 -0.018734 0)
(-0.0125282 -0.0173538 0)
(0.000153339 -0.0154494 0)
(0.0116201 -0.0130809 0)
(0.0215939 -0.0102918 0)
(0.0298328 -0.00718526 0)
(0.0361707 -0.0038409 0)
(0.0404266 -0.000443635 0)
(0.0425871 0.00276296 0)
(0.0425224 0.00570985 0)
(0.0403237 0.00812652 0)
(0.0362121 0.00968123 0)
(0.0302366 0.00988886 0)
(0.0228845 0.00893879 0)
(0.0151679 0.00709245 0)
(0.00819727 0.00478138 0)
(0.00304999 0.00230924 0)
(0.000225019 0.000272965 0)
(0.00020711 -0.00165263 0)
(0.00324317 -0.00545706 0)
(0.00755897 -0.00770987 0)
(0.0115819 -0.00797106 0)
(0.0148776 -0.00685012 0)
(0.01724 -0.00501905 0)
(0.0186987 -0.00305356 0)
(0.0193144 -0.00128185 0)
(0.0191638 0.000113604 0)
(0.0183516 0.00105038 0)
(0.0170227 0.00156132 0)
(0.0152528 0.00179219 0)
(0.0130575 0.00194028 0)
(0.010398 0.00218151 0)
(0.00718309 0.00262514 0)
(0.00331359 0.00329535 0)
(-0.00133925 0.00418464 0)
(-0.00693326 0.00530283 0)
(-0.0135953 0.00667337 0)
(-0.0214451 0.00832972 0)
(-0.0305652 0.0102755 0)
(-0.040925 0.0124461 0)
(-0.0525036 0.0147603 0)
(-0.0651489 0.017097 0)
(-0.0786026 0.0193289 0)
(-0.0925572 0.0213648 0)
(-0.106641 0.0231063 0)
(-0.120537 0.0244921 0)
(-0.133906 0.0254648 0)
(-0.146496 0.0260031 0)
(-0.15815 0.0261001 0)
(-0.168816 0.0257567 0)
(-0.178438 0.0250197 0)
(-0.187078 0.0239255 0)
(-0.194735 0.0225224 0)
(-0.201449 0.0208801 0)
(-0.207241 0.0190462 0)
(-0.212137 0.0170649 0)
(-0.216148 0.0149666 0)
(-0.219288 0.0127871 0)
(-0.221566 0.0105349 0)
(-0.222982 0.00822339 0)
(-0.223534 0.00585963 0)
(-0.223214 0.00344292 0)
(-0.22201 0.000975151 0)
(-0.219906 -0.00154988 0)
(-0.21687 -0.00414583 0)
(-0.212888 -0.00680842 0)
(-0.207936 -0.00950568 0)
(-0.201999 -0.0122522 0)
(-0.195049 -0.0150222 0)
(-0.18708 -0.0177997 0)
(-0.17808 -0.020552 0)
(-0.168056 -0.0232376 0)
(-0.157029 -0.0257979 0)
(-0.145045 -0.028163 0)
(-0.132186 -0.0302644 0)
(-0.118543 -0.0320068 0)
(-0.10424 -0.0332974 0)
(-0.0894668 -0.0340433 0)
(-0.0744392 -0.034156 0)
(-0.0593879 -0.0335604 0)
(-0.0445994 -0.0322269 0)
(-0.0303754 -0.0301584 0)
(-0.016985 -0.0273471 0)
(-0.00465736 -0.0238313 0)
(0.0063502 -0.0196817 0)
(0.0158232 -0.0150168 0)
(0.0236301 -0.00998752 0)
(0.0296507 -0.00477811 0)
(0.0338588 0.000387867 0)
(0.036221 0.00528001 0)
(0.0366021 0.00954872 0)
(0.0349188 0.0129176 0)
(0.0314847 0.0151669 0)
(0.0263696 0.0156967 0)
(0.0197653 0.0145978 0)
(0.0125699 0.011952 0)
(0.00586982 0.00789476 0)
(0.000781598 0.00292644 0)
(0.000432832 -0.00363784 0)
(0.00432336 -0.00963635 0)
(0.00873037 -0.0119767 0)
(0.0122547 -0.0114346 0)
(0.0147844 -0.009311 0)
(0.0163195 -0.00654829 0)
(0.0169632 -0.00372108 0)
(0.0168089 -0.00117218 0)
(0.0159369 0.000901008 0)
(0.0144031 0.00243069 0)
(0.0122048 0.00350149 0)
(0.00931772 0.00430488 0)
(0.00568951 0.00507679 0)
(0.00124874 0.00602159 0)
(-0.0040783 0.00725947 0)
(-0.0103937 0.00884174 0)
(-0.0178178 0.0107833 0)
(-0.0264683 0.0130868 0)
(-0.0364225 0.0157404 0)
(-0.0476885 0.0187072 0)
(-0.060173 0.0218892 0)
(-0.0736687 0.0251362 0)
(-0.0878798 0.0282696 0)
(-0.102435 0.0311223 0)
(-0.117035 0.0335983 0)
(-0.131334 0.0355109 0)
(-0.145039 0.0367711 0)
(-0.157878 0.0374016 0)
(-0.169694 0.0374651 0)
(-0.180455 0.0370119 0)
(-0.19014 0.0360987 0)
(-0.19881 0.034765 0)
(-0.206508 0.033052 0)
(-0.213306 0.0310291 0)
(-0.219243 0.0287441 0)
(-0.224382 0.0262516 0)
(-0.228753 0.0235927 0)
(-0.232385 0.0208095 0)
(-0.235296 0.0179247 0)
(-0.237496 0.0149588 0)
(-0.238989 0.0119226 0)
(-0.239768 0.00882176 0)
(-0.239826 0.00565618 0)
(-0.239146 0.0024239 0)
(-0.237712 -0.000877175 0)
(-0.235495 -0.00425557 0)
(-0.232465 -0.00771312 0)
(-0.228596 -0.0112627 0)
(-0.223857 -0.0148871 0)
(-0.218215 -0.0185806 0)
(-0.211642 -0.0223215 0)
(-0.204114 -0.0260876 0)
(-0.195607 -0.02984 0)
(-0.186108 -0.033524 0)
(-0.175613 -0.03706 0)
(-0.164141 -0.0403521 0)
(-0.15174 -0.0433053 0)
(-0.138486 -0.0458046 0)
(-0.124477 -0.0477091 0)
(-0.109851 -0.0488793 0)
(-0.0948045 -0.0491978 0)
(-0.0795495 -0.0485515 0)
(-0.0643503 -0.0468733 0)
(-0.0495245 -0.0441335 0)
(-0.0354162 -0.0404043 0)
(-0.0222748 -0.035742 0)
(-0.0103364 -0.0302361 0)
(0.000181987 -0.0240415 0)
(0.00912627 -0.0173734 0)
(0.0163872 -0.0104698 0)
(0.021916 -0.00357765 0)
(0.0257248 0.0030749 0)
(0.0278619 0.00917908 0)
(0.0283256 0.0143253 0)
(0.0269862 0.0181675 0)
(0.0238843 0.0204011 0)
(0.0191906 0.0205868 0)
(0.0133108 0.0185814 0)
(0.00692517 0.0141978 0)
(0.001073 0.00670281 0)
(0.000718361 -0.00618726 0)
(0.00500316 -0.0140444 0)
(0.00887263 -0.0157648 0)
(0.0115162 -0.014094 0)
(0.0130789 -0.0108726 0)
(0.0136378 -0.00716185 0)
(0.0133417 -0.00350992 0)
(0.0122765 -0.000222188 0)
(0.010478 0.00254873 0)
(0.00793163 0.00479116 0)
(0.00457217 0.00662402 0)
(0.000310127 0.00826332 0)
(-0.00494791 0.00995556 0)
(-0.0112902 0.0119065 0)
(-0.0187983 0.0142458 0)
(-0.0275492 0.0170302 0)
(-0.0376001 0.020264 0)
(-0.0489665 0.0239096 0)
(-0.0615786 0.0278636 0)
(-0.0752535 0.0319765 0)
(-0.0896936 0.0360199 0)
(-0.10454 0.039796 0)
(-0.119432 0.0431637 0)
(-0.134061 0.0458461 0)
(-0.148043 0.0477213 0)
(-0.161071 0.0488082 0)
(-0.173061 0.0491306 0)
(-0.183962 0.04875 0)
(-0.193825 0.0477711 0)
(-0.202694 0.0462882 0)
(-0.210633 0.0443833 0)
(-0.217727 0.0421231 0)
(-0.224024 0.0395583 0)
(-0.229585 0.036741 0)
(-0.234458 0.0337137 0)
(-0.238686 0.0305166 0)
(-0.242292 0.0271839 0)
(-0.2453 0.023745 0)
(-0.247723 0.0202142 0)
(-0.249564 0.0166051 0)
(-0.250821 0.0129212 0)
(-0.251484 0.00916379 0)
(-0.251543 0.00532414 0)
(-0.250977 0.00139665 0)
(-0.249773 -0.00262232 0)
(-0.247892 -0.00674528 0)
(-0.245304 -0.0109799 0)
(-0.241975 -0.0153341 0)
(-0.237877 -0.0198075 0)
(-0.232954 -0.0243856 0)
(-0.227169 -0.0290475 0)
(-0.220482 -0.0337695 0)
(-0.212852 -0.0385066 0)
(-0.204243 -0.0431954 0)
(-0.194632 -0.0477422 0)
(-0.183997 -0.0520241 0)
(-0.172357 -0.0559238 0)
(-0.159758 -0.0592988 0)
(-0.146263 -0.0619671 0)
(-0.131976 -0.0637521 0)
(-0.117061 -0.0644973 0)
(-0.101702 -0.0640299 0)
(-0.0861588 -0.0622452 0)
(-0.0706751 -0.0590793 0)
(-0.0556286 -0.0545673 0)
(-0.0414259 -0.04884 0)
(-0.0283183 -0.0420326 0)
(-0.0165385 -0.0343522 0)
(-0.00628947 -0.0260567 0)
(0.00228693 -0.0174479 0)
(0.00912347 -0.00883664 0)
(0.0142326 -0.000513327 0)
(0.0176826 0.00721814 0)
(0.0195435 0.014031 0)
(0.0198282 0.0195571 0)
(0.0185413 0.0233466 0)
(0.0156912 0.0249499 0)
(0.0114889 0.0240506 0)
(0.00629869 0.0200395 0)
(0.000946452 0.0105097 0)
(0.00103336 -0.00913325 0)
(0.00518779 -0.0180803 0)
(0.00808748 -0.0185733 0)
(0.00960212 -0.0157062 0)
(0.0100927 -0.0113881 0)
(0.0096171 -0.00677662 0)
(0.00831957 -0.00232856 0)
(0.00624305 0.00171495 0)
(0.00336877 0.00526055 0)
(-0.000373659 0.00834654 0)
(-0.00509182 0.011126 0)
(-0.0109013 0.0138246 0)
(-0.0179042 0.0166779 0)
(-0.0261801 0.0198743 0)
(-0.0357816 0.0235233 0)
(-0.0467199 0.0276463 0)
(-0.0589438 0.0321845 0)
(-0.0723204 0.0370347 0)
(-0.0866161 0.0419636 0)
(-0.101462 0.0467142 0)
(-0.116508 0.0511149 0)
(-0.131401 0.0548155 0)
(-0.145682 0.0576275 0)
(-0.159 0.0594938 0)
(-0.17122 0.0603794 0)
(-0.182356 0.0603757 0)
(-0.192458 0.0596116 0)
(-0.201596 0.0582167 0)
(-0.209858 0.0563028 0)
(-0.217302 0.0539573 0)
(-0.224 0.0512566 0)
(-0.230007 0.0482551 0)
(-0.23537 0.0450041 0)
(-0.240137 0.041547 0)
(-0.244345 0.0379176 0)
(-0.248021 0.0341454 0)
(-0.25118 0.0302555 0)
(-0.253838 0.026275 0)
(-0.256005 0.0222108 0)
(-0.257685 0.0180693 0)
(-0.258875 0.0138493 0)
(-0.25957 0.00954799 0)
(-0.259768 0.00514768 0)
(-0.259452 0.000633788 0)
(-0.258631 -0.00401401 0)
(-0.257264 -0.00880696 0)
(-0.255316 -0.0137472 0)
(-0.252742 -0.0188362 0)
(-0.249503 -0.0240804 0)
(-0.245556 -0.0294755 0)
(-0.24083 -0.0349927 0)
(-0.235261 -0.0406041 0)
(-0.228777 -0.046253 0)
(-0.221318 -0.0518771 0)
(-0.212899 -0.0574295 0)
(-0.20343 -0.0627536 0)
(-0.192855 -0.0676817 0)
(-0.181201 -0.0720544 0)
(-0.168494 -0.0756505 0)
(-0.154775 -0.0782479 0)
(-0.140202 -0.0796518 0)
(-0.124895 -0.0796295 0)
(-0.109115 -0.0780554 0)
(-0.0931072 -0.0747673 0)
(-0.0771755 -0.0697547 0)
(-0.0617459 -0.0631309 0)
(-0.0472667 -0.0551543 0)
(-0.0340014 -0.0460568 0)
(-0.0222119 -0.0361507 0)
(-0.0121024 -0.0258114 0)
(-0.00379298 -0.0154333 0)
(0.0026962 -0.00539299 0)
(0.0074349 0.00396895 0)
(0.0105512 0.012329 0)
(0.012157 0.0193622 0)
(0.0123068 0.0246372 0)
(0.0110071 0.0276716 0)
(0.00835527 0.0279938 0)
(0.00469636 0.0246835 0)
(0.000574601 0.0136611 0)
(0.00128578 -0.0122185 0)
(0.00481786 -0.0212316 0)
(0.00640318 -0.0202781 0)
(0.00679648 -0.0161192 0)
(0.00612888 -0.0108074 0)
(0.00458459 -0.00534653 0)
(0.00222896 -0.00010063 0)
(-0.000948642 0.00475625 0)
(-0.00501558 0.00918455 0)
(-0.0100773 0.0132601 0)
(-0.0162544 0.0171513 0)
(-0.0236585 0.0210748 0)
(-0.0323732 0.0252383 0)
(-0.042441 0.0297911 0)
(-0.0538497 0.0347907 0)
(-0.0665044 0.0401893 0)
(-0.0802526 0.0458464 0)
(-0.094788 0.0515117 0)
(-0.109719 0.0569638 0)
(-0.124711 0.0618322 0)
(-0.139291 0.0658417 0)
(-0.15298 0.068792 0)
(-0.165584 0.0706042 0)
(-0.177077 0.071334 0)
(-0.187526 0.0711238 0)
(-0.197001 0.0701129 0)
(-0.205593 0.0684326 0)
(-0.213386 0.0662052 0)
(-0.220452 0.0635278 0)
(-0.226844 0.0604812 0)
(-0.232613 0.0571309 0)
(-0.237799 0.0535245 0)
(-0.242441 0.0497058 0)
(-0.246573 0.0457107 0)
(-0.250221 0.04157 0)
(-0.253405 0.0373106 0)
(-0.256138 0.0329582 0)
(-0.258427 0.028532 0)
(-0.260286 0.0240335 0)
(-0.261714 0.019467 0)
(-0.262749 0.0147679 0)
(-0.263364 0.0100085 0)
(-0.263555 0.00515026 0)
(-0.263305 0.000182003 0)
(-0.262606 -0.00492767 0)
(-0.261495 -0.0101855 0)
(-0.25995 -0.0156229 0)
(-0.257975 -0.021269 0)
(-0.255535 -0.0271525 0)
(-0.252618 -0.0332793 0)
(-0.249145 -0.0395909 0)
(-0.245039 -0.0460815 0)
(-0.240212 -0.0527117 0)
(-0.234556 -0.0594108 0)
(-0.22788 -0.0660395 0)
(-0.220079 -0.0724376 0)
(-0.211021 -0.0784128 0)
(-0.200741 -0.0838437 0)
(-0.189315 -0.0885527 0)
(-0.176603 -0.0921822 0)
(-0.16279 -0.0945202 0)
(-0.14789 -0.0952358 0)
(-0.132185 -0.0941687 0)
(-0.115858 -0.091102 0)
(-0.0992542 -0.0859646 0)
(-0.0826955 -0.078769 0)
(-0.0667289 -0.0697837 0)
(-0.0518453 -0.0593786 0)
(-0.0383264 -0.0478978 0)
(-0.0264606 -0.0357884 0)
(-0.016454 -0.0235443 0)
(-0.00840026 -0.0116546 0)
(-0.00227313 -0.000553775 0)
(0.00208106 0.00940116 0)
(0.00485892 0.0178992 0)
(0.00620208 0.0245718 0)
(0.00619579 0.0289647 0)
(0.0049033 0.0304639 0)
(0.00271538 0.0278587 0)
(0.000110867 0.0156707 0)
(0.0013837 -0.0150963 0)
(0.00378884 -0.0232285 0)
(0.00413456 -0.0207354 0)
(0.0032826 -0.0153123 0)
(0.00146393 -0.00911178 0)
(-0.00117784 -0.00283221 0)
(-0.00464319 0.00324185 0)
(-0.00899022 0.00899052 0)
(-0.0143184 0.0144106 0)
(-0.0207426 0.0195966 0)
(-0.028373 0.0247133 0)
(-0.037295 0.0299506 0)
(-0.0475497 0.0354694 0)
(-0.059118 0.0413527 0)
(-0.0719009 0.0475904 0)
(-0.0857134 0.0540322 0)
(-0.100213 0.0604192 0)
(-0.115038 0.0664748 0)
(-0.129744 0.0718184 0)
(-0.143832 0.0761424 0)
(-0.156922 0.0792264 0)
(-0.168916 0.0810608 0)
(-0.179833 0.0817548 0)
(-0.189735 0.0814592 0)
(-0.198714 0.0803118 0)
(-0.206858 0.0784555 0)
(-0.214253 0.0760118 0)
(-0.220964 0.0730883 0)
(-0.227042 0.0697675 0)
(-0.232525 0.0661209 0)
(-0.237451 0.0622061 0)
(-0.24185 0.0580699 0)
(-0.245751 0.0537542 0)
(-0.249174 0.0492966 0)
(-0.252133 0.0447353 0)
(-0.254634 0.0401034 0)
(-0.256794 0.0353244 0)
(-0.258602 0.0304697 0)
(-0.260068 0.025537 0)
(-0.26119 0.0205272 0)
(-0.261958 0.0154885 0)
(-0.262382 0.0103404 0)
(-0.262465 0.0050953 0)
(-0.262217 -0.000270186 0)
(-0.261628 -0.00577036 0)
(-0.260725 -0.0114134 0)
(-0.259491 -0.0172278 0)
(-0.257921 -0.0232261 0)
(-0.255996 -0.0294164 0)
(-0.253687 -0.035833 0)
(-0.250987 -0.0425546 0)
(-0.247865 -0.0495575 0)
(-0.244282 -0.0568294 0)
(-0.240176 -0.06434 0)
(-0.23547 -0.0720563 0)
(-0.230047 -0.0797814 0)
(-0.223628 -0.0872622 0)
(-0.215882 -0.0942045 0)
(-0.206483 -0.100173 0)
(-0.195445 -0.104969 0)
(-0.183097 -0.108553 0)
(-0.169233 -0.110361 0)
(-0.154155 -0.110213 0)
(-0.13799 -0.107783 0)
(-0.121086 -0.102956 0)
(-0.103748 -0.0956646 0)
(-0.0864244 -0.0859962 0)
(-0.069824 -0.0744364 0)
(-0.0544604 -0.0614881 0)
(-0.0406561 -0.0476135 0)
(-0.0287256 -0.0334083 0)
(-0.0188711 -0.0194923 0)
(-0.0111489 -0.00644095 0)
(-0.00545273 0.00528086 0)
(-0.00155062 0.0153148 0)
(0.000832354 0.0233665 0)
(0.00189723 0.0290257 0)
(0.00179457 0.031621 0)
(0.000856564 0.029539 0)
(-0.000264832 0.0164547 0)
(0.00128762 -0.0174656 0)
(0.00233868 -0.0239295 0)
(0.00137072 -0.0198299 0)
(-0.000710588 -0.0133444 0)
(-0.00366497 -0.00629859 0)
(-0.0074226 0.000800434 0)
(-0.0120286 0.00774726 0)
(-0.0175745 0.0144614 0)
(-0.0241692 0.0209572 0)
(-0.0319164 0.0273275 0)
(-0.0408981 0.0337148 0)
(-0.0511553 0.0402644 0)
(-0.0626666 0.0470702 0)
(-0.0753545 0.0541486 0)
(-0.0890229 0.0613725 0)
(-0.103302 0.0684792 0)
(-0.117841 0.0751325 0)
(-0.132164 0.0809675 0)
(-0.14573 0.0856288 0)
(-0.158315 0.088949 0)
(-0.169811 0.0909257 0)
(-0.18025 0.0917021 0)
(-0.189697 0.0914086 0)
(-0.198251 0.090213 0)
(-0.205997 0.088253 0)
(-0.213014 0.0856635 0)
(-0.219361 0.0825488 0)
(-0.225083 0.0790016 0)
(-0.230217 0.0750958 0)
(-0.234795 0.0708973 0)
(-0.238847 0.0664608 0)
(-0.242401 0.0618346 0)
(-0.245483 0.0570616 0)
(-0.248142 0.0521556 0)
(-0.250435 0.0471369 0)
(-0.252386 0.0420304 0)
(-0.253958 0.0369158 0)
(-0.255164 0.0317441 0)
(-0.256022 0.0265157 0)
(-0.256553 0.0212264 0)
(-0.256804 0.0158729 0)
(-0.256801 0.0104364 0)
(-0.256573 0.0049127 0)
(-0.256144 -0.000719857 0)
(-0.255526 -0.00647751 0)
(-0.254685 -0.0123917 0)
(-0.253649 -0.0184926 0)
(-0.25241 -0.0248092 0)
(-0.250968 -0.0313662 0)
(-0.24931 -0.0381811 0)
(-0.247421 -0.0452652 0)
(-0.245268 -0.0526213 0)
(-0.242804 -0.0602398 0)
(-0.239966 -0.0680821 0)
(-0.23666 -0.0760744 0)
(-0.232797 -0.0842955 0)
(-0.22836 -0.0927033 0)
(-0.223164 -0.101069 0)
(-0.216964 -0.10899 0)
(-0.20929 -0.115941 0)
(-0.199374 -0.121103 0)
(-0.187427 -0.124324 0)
(-0.173815 -0.125555 0)
(-0.15853 -0.124271 0)
(-0.141931 -0.120275 0)
(-0.124361 -0.113442 0)
(-0.106155 -0.103689 0)
(-0.0879684 -0.0913213 0)
(-0.0706472 -0.0770251 0)
(-0.0547739 -0.0614752 0)
(-0.0407126 -0.0452687 0)
(-0.0287996 -0.0291633 0)
(-0.0192175 -0.0139025 0)
(-0.0119596 -0.00013172 0)
(-0.00682095 0.0116655 0)
(-0.00344724 0.021177 0)
(-0.00148473 0.028063 0)
(-0.000615422 0.0315879 0)
(-0.000457844 0.0299327 0)
(-0.000379496 0.0163146 0)
(0.00103639 -0.0187907 0)
(0.0006076 -0.0232247 0)
(-0.00169832 -0.017624 0)
(-0.00495617 -0.0102128 0)
(-0.00903772 -0.00236117 0)
(-0.0139161 0.0055677 0)
(-0.0196634 0.0134264 0)
(-0.0263869 0.0211565 0)
(-0.0341876 0.0287697 0)
(-0.0431431 0.0363382 0)
(-0.0532932 0.0439645 0)
(-0.0646196 0.0517324 0)
(-0.0770608 0.0596752 0)
(-0.0904433 0.0676961 0)
(-0.104401 0.0755254 0)
(-0.118543 0.0828183 0)
(-0.13242 0.0891996 0)
(-0.145548 0.0942941 0)
(-0.157695 0.0979548 0)
(-0.168781 0.100206 0)
(-0.178808 0.101144 0)
(-0.187867 0.100945 0)
(-0.196039 0.0997688 0)
(-0.203414 0.097774 0)
(-0.210055 0.0950882 0)
(-0.216019 0.0918287 0)
(-0.221346 0.0880872 0)
(-0.226072 0.0839483 0)
(-0.23023 0.0794823 0)
(-0.233854 0.0747535 0)
(-0.236978 0.069816 0)
(-0.239639 0.064717 0)
(-0.241877 0.0594951 0)
(-0.243713 0.0541955 0)
(-0.245155 0.0488398 0)
(-0.246256 0.0434277 0)
(-0.247023 0.0379787 0)
(-0.247522 0.0324874 0)
(-0.247787 0.0269682 0)
(-0.247865 0.0214218 0)
(-0.247745 0.0158431 0)
(-0.247456 0.0102118 0)
(-0.247012 0.00451329 0)
(-0.246431 -0.00127661 0)
(-0.245715 -0.00717974 0)
(-0.244873 -0.0132315 0)
(-0.243925 -0.0194581 0)
(-0.242877 -0.0258928 0)
(-0.241737 -0.0325671 0)
(-0.240509 -0.0395143 0)
(-0.239191 -0.046765 0)
(-0.237774 -0.0543427 0)
(-0.236236 -0.0622614 0)
(-0.234534 -0.0705129 0)
(-0.232598 -0.0790547 0)
(-0.230337 -0.0878028 0)
(-0.227635 -0.0966414 0)
(-0.224317 -0.105406 0)
(-0.220204 -0.114138 0)
(-0.215222 -0.12265 0)
(-0.208963 -0.130316 0)
(-0.200804 -0.13629 0)
(-0.189737 -0.139392 0)
(-0.176363 -0.139815 0)
(-0.16092 -0.13724 0)
(-0.143853 -0.131508 0)
(-0.125471 -0.122371 0)
(-0.106308 -0.109924 0)
(-0.0871658 -0.0946494 0)
(-0.069078 -0.0774972 0)
(-0.0527215 -0.0593438 0)
(-0.038501 -0.0409468 0)
(-0.0267577 -0.0232365 0)
(-0.0176261 -0.00707163 0)
(-0.0110051 0.00684929 0)
(-0.00654321 0.0180663 0)
(-0.0037346 0.0262562 0)
(-0.00213098 0.0305744 0)
(-0.00114222 0.0293659 0)
(-0.000352196 0.0157257 0)
(0.000713986 -0.0191275 0)
(-0.00130205 -0.0211107 0)
(-0.00487465 -0.014193 0)
(-0.00927128 -0.00592872 0)
(-0.0144633 0.00269535 0)
(-0.0204371 0.011455 0)
(-0.0272858 0.0202444 0)
(-0.0351145 0.0290052 0)
(-0.0440033 0.0377267 0)
(-0.0539926 0.0464436 0)
(-0.0650696 0.055204 0)
(-0.0771856 0.0640398 0)
(-0.090195 0.0728829 0)
(-0.103763 0.0814704 0)
(-0.11748 0.0894468 0)
(-0.130911 0.0964373 0)
(-0.143651 0.102091 0)
(-0.155432 0.106222 0)
(-0.166163 0.108841 0)
(-0.17585 0.11005 0)
(-0.184561 0.110024 0)
(-0.19239 0.108944 0)
(-0.199406 0.106967 0)
(-0.205673 0.104235 0)
(-0.211236 0.100862 0)
(-0.216137 0.0969545 0)
(-0.220407 0.0926002 0)
(-0.224086 0.0878824 0)
(-0.227212 0.0828736 0)
(-0.229827 0.07764 0)
(-0.231975 0.0722375 0)
(-0.233697 0.0667139 0)
(-0.235039 0.0611066 0)
(-0.236039 0.0554465 0)
(-0.236739 0.0497548 0)
(-0.237185 0.044047 0)
(-0.237407 0.0383409 0)
(-0.23744 0.0326377 0)
(-0.237307 0.0269363 0)
(-0.23703 0.0212279 0)
(-0.236619 0.0155019 0)
(-0.236093 0.00973978 0)
(-0.235465 0.00392318 0)
(-0.23475 -0.00197087 0)
(-0.233955 -0.00796536 0)
(-0.233096 -0.014093 0)
(-0.232188 -0.0203818 0)
(-0.231245 -0.0268642 0)
(-0.230281 -0.0335728 0)
(-0.229309 -0.0405424 0)
(-0.228341 -0.0478072 0)
(-0.227386 -0.055399 0)
(-0.226444 -0.0633448 0)
(-0.225501 -0.0716634 0)
(-0.224524 -0.080361 0)
(-0.223456 -0.0894238 0)
(-0.222204 -0.0987868 0)
(-0.220627 -0.108311 0)
(-0.218538 -0.117775 0)
(-0.215696 -0.126907 0)
(-0.21178 -0.135559 0)
(-0.206664 -0.14363 0)
(-0.19975 -0.150001 0)
(-0.189986 -0.15342 0)
(-0.176868 -0.152917 0)
(-0.161329 -0.149035 0)
(-0.143644 -0.141289 0)
(-0.124341 -0.129612 0)
(-0.104126 -0.114236 0)
(-0.0839858 -0.0958726 0)
(-0.0651593 -0.0757899 0)
(-0.0484302 -0.0551013 0)
(-0.0342363 -0.0347606 0)
(-0.0228895 -0.0158733 0)
(-0.0144367 0.000597522 0)
(-0.00863028 0.013939 0)
(-0.00489096 0.0236919 0)
(-0.00269909 0.0288768 0)
(-0.00120854 0.0282163 0)
(-0.00017818 0.0149247 0)
(0.000128462 -0.0182824 0)
(-0.00330391 -0.0176546 0)
(-0.00803479 -0.00955325 0)
(-0.0135166 -0.000530088 0)
(-0.019771 0.00883042 0)
(-0.0267818 0.0184091 0)
(-0.034649 0.0281208 0)
(-0.0434658 0.0378861 0)
(-0.0532811 0.0476559 0)
(-0.0640907 0.0574146 0)
(-0.0758547 0.0671644 0)
(-0.0884549 0.0768541 0)
(-0.101598 0.0862367 0)
(-0.114887 0.0949575 0)
(-0.127906 0.102641 0)
(-0.140296 0.108956 0)
(-0.151779 0.113687 0)
(-0.162214 0.116786 0)
(-0.171615 0.118372 0)
(-0.180032 0.11861 0)
(-0.187548 0.117695 0)
(-0.194233 0.115796 0)
(-0.200138 0.113058 0)
(-0.20531 0.109608 0)
(-0.209784 0.105556 0)
(-0.213603 0.101005 0)
(-0.216807 0.0960471 0)
(-0.219449 0.0907688 0)
(-0.22158 0.0852465 0)
(-0.223255 0.0795481 0)
(-0.22453 0.0737301 0)
(-0.225456 0.0678386 0)
(-0.226083 0.0619093 0)
(-0.226458 0.0559701 0)
(-0.226619 0.0500407 0)
(-0.226604 0.0441349 0)
(-0.226437 0.0382603 0)
(-0.226141 0.0324122 0)
(-0.225731 0.0265847 0)
(-0.225221 0.0207658 0)
(-0.224624 0.0149414 0)
(-0.22395 0.00909383 0)
(-0.223212 0.00320347 0)
(-0.222419 -0.00275181 0)
(-0.221582 -0.00879587 0)
(-0.220714 -0.0149576 0)
(-0.21983 -0.0212655 0)
(-0.218945 -0.0277506 0)
(-0.218078 -0.0344454 0)
(-0.217247 -0.0413843 0)
(-0.216471 -0.0486022 0)
(-0.215768 -0.0561334 0)
(-0.215155 -0.0640099 0)
(-0.214638 -0.0722589 0)
(-0.214216 -0.0809021 0)
(-0.213868 -0.0899503 0)
(-0.21355 -0.0993928 0)
(-0.213176 -0.109185 0)
(-0.212604 -0.119228 0)
(-0.211628 -0.129304 0)
(-0.209965 -0.139054 0)
(-0.207248 -0.148031 0)
(-0.203048 -0.156099 0)
(-0.197051 -0.162683 0)
(-0.188265 -0.166136 0)
(-0.175489 -0.164893 0)
(-0.159729 -0.159501 0)
(-0.141283 -0.149499 0)
(-0.12094 -0.135008 0)
(-0.0996014 -0.116453 0)
(-0.0784964 -0.094841 0)
(-0.0590631 -0.071812 0)
(-0.0421901 -0.0487648 0)
(-0.028316 -0.0268791 0)
(-0.0176721 -0.0074417 0)
(-0.0101663 0.00853297 0)
(-0.00528313 0.0203017 0)
(-0.00246978 0.0267669 0)
(-0.000779189 0.0269167 0)
(7.86336e-05 0.0143684 0)
(-0.000457145 -0.0161812 0)
(-0.00525842 -0.0129013 0)
(-0.0110588 -0.00378815 0)
(-0.0175578 0.00591396 0)
(-0.0248004 0.0159698 0)
(-0.0327589 0.0263403 0)
(-0.0415304 0.0369363 0)
(-0.0511874 0.0476415 0)
(-0.0617422 0.0583564 0)
(-0.0731632 0.0690199 0)
(-0.0853542 0.0795696 0)
(-0.0980681 0.0897732 0)
(-0.11094 0.0992946 0)
(-0.123586 0.107755 0)
(-0.135669 0.114829 0)
(-0.146908 0.120278 0)
(-0.157122 0.12399 0)
(-0.16629 0.126058 0)
(-0.174468 0.126661 0)
(-0.181718 0.12599 0)
(-0.188109 0.124232 0)
(-0.193691 0.12154 0)
(-0.198504 0.118051 0)
(-0.202591 0.113889 0)
(-0.205997 0.109167 0)
(-0.208776 0.103994 0)
(-0.210989 0.0984689 0)
(-0.2127 0.0926818 0)
(-0.213977 0.0867115 0)
(-0.214882 0.0806247 0)
(-0.215476 0.0744748 0)
(-0.21581 0.0683035 0)
(-0.215933 0.0621412 0)
(-0.215883 0.05601 0)
(-0.215693 0.0499227 0)
(-0.215386 0.0438852 0)
(-0.214981 0.0378976 0)
(-0.214492 0.0319524 0)
(-0.213929 0.0260398 0)
(-0.213301 0.0201468 0)
(-0.212614 0.0142575 0)
(-0.211876 0.00835411 0)
(-0.211094 0.00241711 0)
(-0.210276 -0.00357493 0)
(-0.209431 -0.00964516 0)
(-0.208569 -0.0158194 0)
(-0.207705 -0.0221243 0)
(-0.206855 -0.0285888 0)
(-0.206037 -0.0352433 0)
(-0.205272 -0.0421206 0)
(-0.204585 -0.0492547 0)
(-0.203999 -0.0566807 0)
(-0.20354 -0.0644337 0)
(-0.203228 -0.0725473 0)
(-0.203078 -0.081052 0)
(-0.203095 -0.0899707 0)
(-0.203269 -0.0993129 0)
(-0.203562 -0.109069 0)
(-0.203897 -0.1192 0)
(-0.204143 -0.129616 0)
(-0.204084 -0.140144 0)
(-0.203412 -0.150446 0)
(-0.201715 -0.159953 0)
(-0.198445 -0.168029 0)
(-0.193087 -0.174504 0)
(-0.184854 -0.177739 0)
(-0.172318 -0.175686 0)
(-0.156131 -0.168543 0)
(-0.13677 -0.155986 0)
(-0.115272 -0.138345 0)
(-0.0927987 -0.116335 0)
(-0.0708628 -0.0913396 0)
(-0.0511005 -0.065459 0)
(-0.0344606 -0.0403856 0)
(-0.0213242 -0.0175949 0)
(-0.0117841 0.00152962 0)
(-0.0054727 0.0159195 0)
(-0.00189633 0.0243001 0)
(-7.25051e-05 0.0257349 0)
(0.000370933 0.0143021 0)
(-0.00104663 -0.0129112 0)
(-0.00709005 -0.00696903 0)
(-0.0138535 0.00302072 0)
(-0.0212785 0.0133216 0)
(-0.0294142 0.0240207 0)
(-0.0382068 0.0351332 0)
(-0.0477453 0.0465471 0)
(-0.0580771 0.0580952 0)
(-0.0691861 0.0696284 0)
(-0.0809939 0.0810302 0)
(-0.0932938 0.0920629 0)
(-0.105774 0.102423 0)
(-0.118089 0.111734 0)
(-0.129907 0.119658 0)
(-0.140952 0.12593 0)
(-0.151011 0.130386 0)
(-0.160019 0.133063 0)
(-0.168016 0.134135 0)
(-0.175062 0.133803 0)
(-0.181215 0.132259 0)
(-0.186527 0.129675 0)
(-0.19104 0.1262 0)
(-0.194799 0.12197 0)
(-0.197858 0.117116 0)
(-0.200282 0.111762 0)
(-0.202141 0.106021 0)
(-0.203513 0.0999994 0)
(-0.204472 0.0937866 0)
(-0.20509 0.0874587 0)
(-0.20543 0.0810764 0)
(-0.205548 0.0746861 0)
(-0.205492 0.0683214 0)
(-0.205299 0.0620049 0)
(-0.204997 0.0557503 0)
(-0.204611 0.0495631 0)
(-0.204154 0.0434426 0)
(-0.203637 0.0373837 0)
(-0.203068 0.0313767 0)
(-0.202451 0.0254088 0)
(-0.20179 0.0194655 0)
(-0.201088 0.0135314 0)
(-0.200348 0.00758822 0)
(-0.199573 0.0016173 0)
(-0.198768 -0.00440154 0)
(-0.19794 -0.0104896 0)
(-0.197099 -0.0166699 0)
(-0.196256 -0.0229665 0)
(-0.195427 -0.029405 0)
(-0.19463 -0.036013 0)
(-0.193888 -0.0428201 0)
(-0.193226 -0.0498578 0)
(-0.192672 -0.0571597 0)
(-0.192255 -0.0647614 0)
(-0.192006 -0.0726995 0)
(-0.191951 -0.0810106 0)
(-0.192111 -0.0897283 0)
(-0.192497 -0.0988789 0)
(-0.1931 -0.108476 0)
(-0.193886 -0.118509 0)
(-0.194782 -0.128935 0)
(-0.195657 -0.139661 0)
(-0.196299 -0.150521 0)
(-0.196384 -0.161212 0)
(-0.195454 -0.17118 0)
(-0.192922 -0.179579 0)
(-0.188023 -0.185664 0)
(-0.179976 -0.188355 0)
(-0.167416 -0.185254 0)
(-0.150557 -0.176029 0)
(-0.130114 -0.160502 0)
(-0.107388 -0.139319 0)
(-0.0838491 -0.113535 0)
(-0.0613794 -0.0850925 0)
(-0.0417438 -0.0566294 0)
(-0.0258951 -0.0301273 0)
(-0.0140591 -0.00733635 0)
(-0.0060507 0.0103125 0)
(-0.00148365 0.0213437 0)
(0.000591759 0.0246907 0)
(0.000578404 0.0146744 0)
(-0.00160581 -0.00854136 0)
(-0.00873407 2.19398e-05 0)
(-0.0163489 0.0107678 0)
(-0.0245967 0.0215888 0)
(-0.0335067 0.0328679 0)
(-0.0430009 0.0446546 0)
(-0.0531561 0.0567964 0)
(-0.0639931 0.0690746 0)
(-0.0754592 0.0812748 0)
(-0.0873748 0.0931245 0)
(-0.0994953 0.104335 0)
(-0.111518 0.114548 0)
(-0.123113 0.123395 0)
(-0.134011 0.130588 0)
(-0.143977 0.13591 0)
(-0.152901 0.139333 0)
(-0.160789 0.140994 0)
(-0.167699 0.141104 0)
(-0.173685 0.139866 0)
(-0.178797 0.137465 0)
(-0.183082 0.134067 0)
(-0.186588 0.129826 0)
(-0.189379 0.124888 0)
(-0.191527 0.119393 0)
(-0.193115 0.113475 0)
(-0.194227 0.107252 0)
(-0.194947 0.100826 0)
(-0.195353 0.0942847 0)
(-0.195512 0.0876942 0)
(-0.195481 0.0811063 0)
(-0.195308 0.0745574 0)
(-0.195028 0.0680716 0)
(-0.194669 0.0616626 0)
(-0.194252 0.0553363 0)
(-0.193788 0.0490917 0)
(-0.193286 0.0429232 0)
(-0.19275 0.0368216 0)
(-0.192181 0.0307753 0)
(-0.191579 0.0247703 0)
(-0.190945 0.0187905 0)
(-0.190276 0.0128205 0)
(-0.189573 0.0068438 0)
(-0.188838 0.000842113 0)
(-0.188072 -0.00520267 0)
(-0.18728 -0.0113098 0)
(-0.18647 -0.0174992 0)
(-0.185653 -0.0237918 0)
(-0.184842 -0.0302101 0)
(-0.184054 -0.0367776 0)
(-0.183311 -0.0435202 0)
(-0.182639 -0.0504659 0)
(-0.182065 -0.0576453 0)
(-0.181623 -0.0650919 0)
(-0.181347 -0.0728423 0)
(-0.181271 -0.0809355 0)
(-0.181429 -0.0894115 0)
(-0.181846 -0.0983089 0)
(-0.182536 -0.10766 0)
(-0.183493 -0.117485 0)
(-0.184682 -0.127777 0)