/*--------------------------------*- C++ -*----------------------------------*\
  =========                 |
  \\      /  F ield         | OpenFOAM: The Open Source CFD Toolbox
   \\    /   O peration     | Website:  https://openfoam.org
    \\  /    A nd           | Version:  13
     \\/     M anipulation  |
\*---------------------------------------------------------------------------*/
FoamFile
{
    format      ascii;
    class       volScalarField;
    location    "2.4";
    object      epsilon;
}
// * * * * * * * * * * * * * * * * * * * * * * * * * * * * * * * * * * * * * //

dimensions      [0 2 -3 0 0 0 0];

internalField   nonuniform List<scalar> 
6400
(
1.4193e-05
7.20099e-05
0.000164303
0.000269365
0.000376195
0.00048369
0.000595487
0.000715967
0.000848314
0.000994057
0.00115324
0.00132502
0.00150809
0.00170128
0.00190531
0.00211862
0.00234128
0.00257345
0.00281521
0.00306672
0.00332882
0.00360457
0.00390167
0.00423443
0.00461873
0.00505471
0.00553107
0.0060269
0.00653711
0.00707667
0.00765293
0.00826988
0.00891659
0.00957254
0.0102276
0.0108849
0.0115475
0.012219
0.0129059
0.0136142
0.0143489
0.0151153
0.0159205
0.0167695
0.0176526
0.0185685
0.019521
0.0205331
0.0216581
0.0230387
0.0244992
0.025949
0.0273627
0.0287041
0.0299273
0.0309778
0.0317839
0.0322266
0.0324112
0.0322835
0.0315774
0.03039
0.0287017
0.0265315
0.0239518
0.0211198
0.0181541
0.0151349
0.0121669
0.00939065
0.00694136
0.00502339
0.00348078
0.00230192
0.00145365
0.000874566
0.000497637
0.000260117
0.000109725
2.19405e-05
7.14862e-05
6.03264e-05
8.9579e-05
0.000131208
0.000177333
0.000227526
0.000283502
0.000347299
0.000420967
0.000506157
0.000604261
0.000716511
0.000844263
0.000989333
0.00115455
0.00134252
0.00155694
0.00180258
0.0020853
0.00241205
0.00279103
0.00323211
0.00374631
0.00433953
0.00501246
0.00577255
0.00661088
0.00752933
0.00850458
0.00948926
0.0104472
0.0113396
0.0121085
0.0127615
0.013298
0.0137309
0.0140717
0.0143427
0.0145616
0.0147462
0.0149129
0.0150798
0.0152562
0.0154153
0.0155693
0.0157332
0.0159272
0.0161575
0.016426
0.0167325
0.0170775
0.017424
0.0177763
0.0181059
0.0183985
0.0186142
0.0187135
0.0187287
0.0185919
0.0183015
0.0177903
0.0170513
0.0160779
0.0148839
0.0134986
0.011975
0.0103661
0.00874477
0.00717622
0.00572198
0.00443438
0.0033728
0.00248867
0.0017632
0.00118597
0.000746497
0.000431615
0.000224697
0.00011037
0.000115218
0.000166425
0.000102603
0.000111861
0.000139103
0.000177252
0.000224863
0.000283598
0.000355823
0.000444266
0.000551347
0.00067994
0.000833385
0.00101556
0.00123111
0.00148597
0.00178689
0.00214083
0.00255559
0.0030391
0.00359842
0.00423803
0.00495816
0.00575294
0.00660989
0.0075003
0.00837128
0.00917188
0.00984252
0.0103558
0.0107628
0.0110814
0.0113388
0.0115642
0.0116614
0.0116846
0.0116772
0.0116335
0.0115891
0.0115543
0.0115398
0.0115387
0.0115752
0.0116401
0.0117699
0.0119587
0.0122013
0.0124873
0.0128193
0.0131931
0.0136034
0.0140465
0.0145106
0.0149882
0.0154632
0.0159199
0.0163358
0.0166878
0.0169246
0.0170193
0.0170001
0.016762
0.0162763
0.0155379
0.0145604
0.0133612
0.011987
0.0104957
0.00894759
0.00741497
0.00596787
0.00466431
0.00354665
0.00262175
0.0018813
0.00130512
0.000866066
0.000538828
0.000306868
0.000182487
0.000289356
0.00029981
0.000170963
0.000166867
0.00019222
0.000236339
0.000295979
0.000373188
0.000470988
0.000592851
0.000743155
0.00092677
0.00114933
0.00141735
0.00173812
0.0021192
0.00256811
0.00309185
0.00369462
0.00437571
0.00512634
0.00592723
0.00674731
0.00754532
0.00827519
0.00889161
0.00935241
0.00967209
0.00988567
0.0100227
0.0100677
0.0100223
0.00989247
0.00970627
0.00954856
0.00944585
0.00934823
0.00928655
0.00925984
0.00925596
0.00930167
0.00938642
0.00951703
0.00969186
0.00991564
0.0101842
0.0104968
0.0108521
0.0112503
0.0116899
0.0121686
0.0126835
0.013229
0.0137984
0.0143807
0.0149619
0.015523
0.0160398
0.0164819
0.0167995
0.0169427
0.0169579
0.0167613
0.0163176
0.015541
0.0144723
0.0131635
0.0116618
0.0100386
0.00837841
0.00676936
0.00529103
0.00400334
0.00293634
0.00209282
0.00145131
0.00097754
0.000632929
0.000390147
0.000267882
0.000472003
0.000478713
0.000260955
0.000242039
0.00027187
0.000328819
0.000408695
0.000513907
0.000648515
0.000817454
0.00102647
0.00128207
0.00159151
0.00196256
0.00240288
0.00291873
0.00351333
0.00418441
0.00492111
0.00570116
0.00648967
0.00724129
0.00790653
0.00844056
0.00881162
0.00904892
0.00916381
0.0091952
0.00909372
0.00886995
0.00864636
0.00844659
0.00824508
0.0080729
0.00794235
0.00785071
0.00779958
0.00778095
0.00778643
0.00784048
0.00792881
0.00805381
0.00821526
0.00841267
0.00864647
0.00891624
0.00922292
0.00956744
0.00995106
0.0103746
0.0108386
0.0113429
0.0118866
0.0124672
0.0130799
0.0137159
0.0143624
0.0150015
0.0156085
0.0161503
0.0165896
0.016831
0.0169032
0.0167496
0.0163844
0.0156364
0.0145083
0.0130889
0.0114491
0.00967722
0.00788105
0.00617215
0.00464664
0.00336798
0.00235862
0.00160387
0.00106419
0.000689898
0.000441272
0.000332563
0.000610231
0.000711729
0.00037301
0.000337728
0.000376354
0.00045196
0.000559225
0.000700888
0.000882041
0.00110884
0.00138812
0.00172719
0.00213338
0.00261315
0.00317047
0.00380433
0.00450587
0.00525536
0.00602036
0.00675657
0.00741317
0.00794152
0.00830768
0.00851231
0.0085969
0.00859563
0.0083933
0.00813714
0.00787328
0.00760891
0.0073758
0.00717398
0.00700272
0.00687066
0.00677503
0.00671773
0.0066923
0.0066863
0.00671221
0.00677042
0.00685314
0.00696254
0.00709741
0.00725812
0.00744515
0.00765954
0.00790299
0.00817763
0.00848614
0.00883139
0.00921646
0.00964454
0.0101187
0.0106411
0.0112129
0.0118339
0.0124999
0.0132028
0.0139304
0.0146586
0.0153557
0.0159784
0.0164512
0.0166695
0.0166972
0.0164385
0.015798
0.0146381
0.0131262
0.0113364
0.00938547
0.00742054
0.0055902
0.00401292
0.00275371
0.00181866
0.00116767
0.000737996
0.000473118
0.000374451
0.000691479
0.00100628
0.000509023
0.000456559
0.000507434
0.000607128
0.000748385
0.000934039
0.00116988
0.00146268
0.00181936
0.00224636
0.00274846
0.00332698
0.00397712
0.00468477
0.00542387
0.00615566
0.00683162
0.00740033
0.00781898
0.00805416
0.00815121
0.00815179
0.007945
0.00767632
0.00737721
0.00708235
0.00681027
0.00656626
0.0063595
0.00618636
0.00604684
0.00593973
0.00586143
0.00581039
0.00578542
0.0057768
0.00578624
0.00582017
0.00587059
0.00593918
0.00602513
0.00612887
0.00625112
0.00639311
0.00655663
0.00674407
0.00695853
0.00720385
0.00748461
0.00780626
0.0081747
0.00859653
0.00907848
0.00962761
0.010249
0.0109442
0.0117107
0.0125433
0.0134238
0.0143239
0.0151939
0.0159664
0.0164893
0.0166969
0.0166834
0.016148
0.0149811
0.0133522
0.0113589
0.00916889
0.00698907
0.00501719
0.00339433
0.00217696
0.00134044
0.000809888
0.000504552
0.000402055
0.000731875
0.00136933
0.000671757
0.000601513
0.000667199
0.000795839
0.000976811
0.00121251
0.0015087
0.00187168
0.0023068
0.0028172
0.00340184
0.0040529
0.00475273
0.0054715
0.00616705
0.00678889
0.00728673
0.00761443
0.00776872
0.007809
0.00766847
0.0074064
0.00709203
0.00677068
0.00646132
0.00617899
0.00593
0.00571478
0.00553354
0.00538222
0.00525914
0.00516113
0.00508524
0.00502926
0.00499087
0.0049709
0.00496357
0.00496718
0.00498843
0.00502143
0.0050673
0.00512634
0.00519922
0.00528706
0.00539133
0.00551404
0.00565761
0.00582536
0.00602127
0.0062503
0.00651842
0.00683295
0.0072026
0.00763727
0.00814858
0.00874985
0.00945134
0.0102629
0.0111853
0.0122097
0.0133159
0.0144547
0.015544
0.0164613
0.0169607
0.017128
0.0167438
0.0155482
0.0137403
0.0114651
0.0089676
0.00653621
0.00442516
0.00278811
0.00165246
0.000945275
0.000556778
0.000428405
0.000761293
0.00181806
0.000867909
0.000774545
0.000856886
0.00101837
0.00124342
0.00153303
0.00189186
0.00232415
0.0028316
0.00341136
0.00405352
0.00473838
0.00543442
0.00609863
0.00668089
0.00713255
0.00739292
0.00749669
0.00748238
0.00726242
0.00696436
0.00662636
0.00628591
0.00596513
0.0056739
0.0054163
0.00519258
0.00500022
0.00483685
0.00469902
0.00458456
0.00449073
0.00441543
0.00435689
0.00431363
0.00428445
0.00426981
0.00426451
0.00426932
0.00428839
0.00431741
0.00435799
0.00440996
0.00447419
0.0045516
0.0046436
0.00475188
0.00487868
0.00502671
0.00519938
0.00540091
0.00563655
0.00591294
0.00623856
0.00662459
0.00708541
0.00763869
0.00830451
0.00910768
0.0100673
0.0111914
0.012471
0.0138685
0.0152906
0.0165888
0.0174416
0.0177911
0.017553
0.0162725
0.014196
0.011548
0.00868461
0.00599578
0.00378751
0.00219882
0.0011982
0.000658035
0.000470139
0.000811861
0.00234629
0.00109574
0.000975592
0.00107601
0.00127315
0.0015448
0.00188945
0.0023092
0.00280448
0.00337114
0.00399805
0.00466456
0.00533879
0.0059779
0.00653208
0.00695229
0.00717422
0.00725427
0.00717688
0.0069386
0.0066132
0.00625702
0.00590137
0.00556842
0.00526697
0.00499973
0.00476588
0.00456335
0.00438908
0.00424057
0.00411524
0.00401113
0.00392617
0.00385871
0.00380726
0.00377039
0.00374819
0.00373836
0.00373606
0.00374611
0.00376793
0.00379894
0.00384015
0.00389123
0.00395279
0.00402542
0.00411002
0.00420771
0.00432
0.00444868
0.00459596
0.0047645
0.00495761
0.00517937
0.00543501
0.00573138
0.00607758
0.00648715
0.00697872
0.00758042
0.00832891
0.0092647
0.0104283
0.0118354
0.0134579
0.0152122
0.0169051
0.0181237
0.0186465
0.0185099
0.0170494
0.0145872
0.0114735
0.00821525
0.00531485
0.00309833
0.00164501
0.000848641
0.000549805
0.000915682
0.00295046
0.00135436
0.00120339
0.00132243
0.00155657
0.00187521
0.00227294
0.00274783
0.00329468
0.00390176
0.00454828
0.00520281
0.00582344
0.00636116
0.00676676
0.00697188
0.00703981
0.00693578
0.00668328
0.00634405
0.00597098
0.00560127
0.00525473
0.00494141
0.0046632
0.00441921
0.00420711
0.00402445
0.00386864
0.00373757
0.00362916
0.00354154
0.00347285
0.00342137
0.0033853
0.0033651
0.0033568
0.00335562
0.00336687
0.00338844
0.003419
0.00345802
0.00350575
0.00356213
0.00362765
0.00370283
0.00378847
0.00388557
0.00399535
0.00411923
0.00425884
0.00441599
0.00459276
0.00479153
0.00501518
0.00526737
0.00555308
0.0058795
0.00625731
0.00670076
0.00723397
0.00790421
0.00877951
0.0099373
0.01142
0.0132433
0.0153151
0.0174175
0.0189879
0.0196591
0.019528
0.0177435
0.0147529
0.0110954
0.00747287
0.0044728
0.00238116
0.00118321
0.000696588
0.00110839
0.00362224
0.0016415
0.00145526
0.00159235
0.00186317
0.00222687
0.00267273
0.0031933
0.00377639
0.00440159
0.00503848
0.00564655
0.0061779
0.00658332
0.0067904
0.00685589
0.00674925
0.00649354
0.00614622
0.00575981
0.00537464
0.00501331
0.00468601
0.00439559
0.00414092
0.00391992
0.00373019
0.00356947
0.00343549
0.00332616
0.00323928
0.00317273
0.00312423
0.00309162
0.00307544
0.00306956
0.0030703
0.00308359
0.00310528
0.00313498
0.00317198
0.00321623
0.00326789
0.00332726
0.00339492
0.00347159
0.00355824
0.00365598
0.00376611
0.00389004
0.00402934
0.00418559
0.00436045
0.00455552
0.0047724
0.00501274
0.00527853
0.00557263
0.00589981
0.00626828
0.00669209
0.00718819
0.00779329
0.00858194
0.00969871
0.0112383
0.0132329
0.0156231
0.0181432
0.0200141
0.0207816
0.0204926
0.018184
0.0145062
0.0102859
0.00641512
0.00350155
0.00172472
0.000944753
0.00142245
0.0043482
0.0019533
0.00172718
0.00188052
0.00218596
0.00259058
0.00307701
0.00363108
0.00423273
0.00485288
0.00545272
0.00598572
0.00640263
0.00662797
0.0067003
0.00660968
0.00636186
0.0060127
0.00561596
0.00521489
0.0048366
0.00449329
0.0041887
0.00392228
0.00369192
0.00349535
0.00333023
0.00319419
0.00308472
0.00299921
0.00293497
0.00288913
0.00285954
0.00284517
0.00284021
0.00284132
0.00285315
0.0028725
0.00289825
0.00293014
0.00296803
0.00301214
0.00306286
0.00312082
0.00318682
0.00326183
0.00334702
0.00344371
0.00355338
0.00367765
0.00381822
0.00397686
0.00415527
0.00435501
0.00457735
0.00482318
0.00509297
0.00538687
0.00570548
0.0060509
0.00642874
0.00685121
0.00733232
0.00790594
0.00864817
0.00969951
0.0112778
0.0134477
0.0161693
0.0191135
0.0211739
0.0219406
0.0212497
0.01815
0.0136709
0.00896797
0.00508407
0.0025324
0.00132813
0.00187833
0.00511563
0.00228486
0.00201391
0.00218052
0.00251693
0.00295647
0.00347399
0.0040478
0.00464983
0.00524325
0.00578331
0.00622091
0.00647872
0.00656709
0.00650769
0.00628035
0.00593732
0.00553379
0.00511733
0.00471997
0.00435798
0.00403676
0.0037565
0.00351529
0.00331074
0.00314034
0.00300138
0.00289088
0.00280565
0.00274237
0.00269757
0.00266805
0.00265308
0.00264713
0.00264619
0.0026532
0.00266723
0.00268628
0.00271026
0.00273917
0.00277327
0.00281306
0.00285918
0.00291248
0.00297395
0.00304471
0.0031261
0.00321959
0.00332684
0.00344968
0.00359012
0.00375023
0.00393212
0.00413776
0.00436883
0.00462643
0.00491086
0.00522135
0.00555604
0.00591258
0.00629005
0.00669117
0.00712669
0.00760889
0.00816964
0.00889251
0.00992499
0.0115379
0.0139141
0.0170005
0.020369
0.0224127
0.023031
0.0215591
0.0174125
0.0121117
0.00718345
0.00365626
0.00187443
0.00247486
0.00590554
0.0026302
0.00230947
0.00248529
0.00284764
0.00331473
0.00385276
0.00443217
0.00501739
0.00556571
0.00603003
0.00633407
0.0064474
0.00643219
0.0062392
0.00591308
0.00550877
0.0050785
0.00466069
0.00427696
0.0039359
0.00363884
0.0033842
0.00316943
0.00299172
0.00284791
0.00273446
0.00264756
0.00258321
0.00253731
0.00250616
0.00248717
0.00247802
0.00247458
0.00247431
0.00248079
0.0024916
0.0025062
0.00252486
0.00254789
0.00257581
0.00260932
0.0026492
0.00269639
0.00275194
0.00281705
0.00289307
0.00298157
0.0030843
0.00320328
0.00334076
0.0034992
0.00368122
0.00388947
0.00412641
0.00439405
0.00469349
0.00502453
0.0053852
0.00577147
0.00617763
0.00659856
0.00703368
0.00749248
0.00798552
0.0085506
0.00927364
0.0103259
0.0120241
0.0146736
0.0181968
0.0218914
0.0236551
0.0239477
0.021133
0.0157414
0.00982951
0.00514823
0.00260523
0.00318795
0.00669878
0.00298261
0.00260746
0.00278755
0.00316981
0.00365628
0.00420399
0.00477558
0.00532879
0.00581679
0.00617898
0.00634169
0.00636738
0.00622589
0.00593094
0.0055355
0.00509569
0.00465722
0.00424892
0.00388416
0.00356648
0.00329487
0.00306672
0.00287881
0.0027275
0.00260866
0.00251779
0.00245025
0.00240133
0.00236682
0.00234333
0.00232812
0.00231878
0.0023139
0.00231204
0.00231335
0.00231851
0.00232684
0.00233898
0.0023554
0.00237677
0.00240382
0.00243738
0.00247836
0.00252777
0.00258676
0.00265666
0.00273898
0.00283553
0.00294838
0.00307997
0.00323306
0.00341076
0.00361641
0.00385343
0.00412503
0.00443376
0.00478092
0.00516585
0.00558521
0.00603243
0.00649777
0.00697093
0.00744686
0.00793484
0.00844503
0.00902129
0.00976644
0.0108771
0.0127481
0.0157746
0.0198538
0.0235654
0.0249803
0.0243053
0.0196276
0.0130227
0.00705249
0.00353753
0.00397851
0.00747647
0.00333524
0.00290142
0.0030803
0.00347583
0.0039733
0.00452042
0.00507265
0.00558231
0.00599896
0.00623763
0.00630678
0.00622568
0.00597845
0.00560618
0.0051653
0.00470863
0.00427387
0.00388138
0.0035385
0.00324556
0.00300002
0.00279834
0.00263633
0.00250928
0.002412
0.0023392
0.00228559
0.00224637
0.00221772
0.00219669
0.00218096
0.00216893
0.00215973
0.00215298
0.0021495
0.00214834
0.00215019
0.00215612
0.00216659
0.00218218
0.00220358
0.00223156
0.00226694
0.00231063
0.00236367
0.00242728
0.00250289
0.00259224
0.00269739
0.00282084
0.00296551
0.00313485
0.00333277
0.00356354
0.00383162
0.00414121
0.00449569
0.00489671
0.00534312
0.00582991
0.00634717
0.00688003
0.0074111
0.007929
0.00843526
0.00896384
0.00957278
0.010361
0.0115856
0.0137481
0.0172626
0.0219325
0.0252161
0.0260756
0.0233814
0.0166949
0.0094143
0.0046868
0.00480889
0.00822093
0.00368144
0.00318526
0.00335717
0.00375913
0.00425951
0.00479686
0.00532036
0.00577916
0.00610165
0.00622876
0.00622554
0.00604053
0.00570911
0.00528108
0.00481314
0.0043525
0.0039289
0.00355584
0.0032364
0.0029687
0.00274897
0.00257254
0.00243411
0.00232784
0.00224774
0.00218796
0.00214309
0.00210881
0.00208189
0.00205993
0.0020413
0.0020251
0.00201102
0.00199913
0.00198983
0.00198375
0.00198123
0.00198144
0.00198707
0.00199805
0.00201492
0.00203831
0.00206893
0.00210756
0.00215512
0.00221269
0.00228158
0.00236338
0.00246009
0.00257412
0.00270844
0.00286663
0.00305293
0.00327224
0.00353001
0.00383199
0.00418367
0.00458948
0.00505156
0.00556816
0.00613203
0.00672903
0.00733768
0.00793242
0.00849844
0.00901513
0.00954686
0.0102006
0.0110605
0.0124873
0.0151519
0.019361
0.0244261
0.0267297
0.0264585
0.0206561
0.0122851
0.00605636
0.00565784
0.00891667
0.00401516
0.00345358
0.00361278
0.00401448
0.00451034
0.0050301
0.00551709
0.00591584
0.00613754
0.00619481
0.00609725
0.00582814
0.00543228
0.00496626
0.00448488
0.00402892
0.00362102
0.00326936
0.00297393
0.00273113
0.00253594
0.0023825
0.00226434
0.00217478
0.00210731
0.00205593
0.0020157
0.00198298
0.0019552
0.00193059
0.00190819
0.00188765
0.00186901
0.00185262
0.00183891
0.00182838
0.00182207
0.00181961
0.00182089
0.00182834
0.00184168
0.00186138
0.00188803
0.00192229
0.00196494
0.00201693
0.00207942
0.00215387
0.0022421
0.0023464
0.00246961
0.00261529
0.00278775
0.00299221
0.00323478
0.00352234
0.00386221
0.00426149
0.00472587
0.00525797
0.00585506
0.00650666
0.00719246
0.00788141
0.00853573
0.00915323
0.00967322
0.0101969
0.0109005
0.0118883
0.0136541
0.0170355
0.0221993
0.0268088
0.0281122
0.0245773
0.015702
0.0076793
0.00651387
0.0095509
0.00433115
0.00370191
0.0038429
0.00423807
0.00472297
0.00521924
0.00566623
0.00599277
0.00612674
0.00612366
0.00594027
0.00560191
0.00515826
0.00466824
0.00418322
0.00373761
0.00334804
0.0030186
0.00274691
0.00252786
0.00235512
0.00222166
0.00212007
0.00204315
0.00198425
0.0019377
0.00189927
0.00186607
0.00183614
0.00180838
0.00178232
0.00175798
0.00173566
0.00171578
0.00169884
0.00168534
0.00167595
0.00167144
0.00167031
0.00167468
0.00168525
0.00170194
0.00172524
0.00175571
0.001794
0.00184095
0.00189758
0.00196518
0.00204539
0.00214031
0.00225259
0.0023856
0.00254355
0.00273167
0.00295634
0.0032251
0.0035466
0.00393009
0.00438457
0.00491721
0.00553092
0.00622137
0.00697352
0.00775912
0.00853619
0.0092567
0.0098872
0.0104035
0.0109158
0.0116943
0.0129042
0.0152897
0.0196425
0.0257618
0.0287674
0.0279867
0.0196438
0.0096504
0.00744447
0.0101126
0.00462509
0.00392696
0.00404457
0.00442754
0.00489612
0.00536434
0.00576657
0.00601616
0.00609425
0.00601812
0.00576481
0.00537167
0.004894
0.0043907
0.0039089
0.00347719
0.00310727
0.00280003
0.00255111
0.00235395
0.00220101
0.00208423
0.00199561
0.00192776
0.00187423
0.00183004
0.0017917
0.00175701
0.00172462
0.00169391
0.00166479
0.00163752
0.00161248
0.00159014
0.00157097
0.00155543
0.00154395
0.00153755
0.0015352
0.00153701
0.00154525
0.00155939
0.00157979
0.00160691
0.00164133
0.00168377
0.00173513
0.00179653
0.00186945
0.00195576
0.00205788
0.00217889
0.00232277
0.00249455
0.00270053
0.0029485
0.0032478
0.00360921
0.00404432
0.00456438
0.005178
0.00588787
0.00668635
0.00755083
0.00844009
0.0092951
0.0100829
0.0106971
0.0111858
0.0116901
0.0126047
0.0142322
0.0176481
0.0234116
0.0288923
0.0302564
0.0239569
0.0121053
0.00858172
0.0105936
0.00489415
0.00412645
0.00421605
0.00458181
0.00502967
0.00546647
0.00582237
0.00600314
0.00603108
0.00589026
0.00557965
0.00514457
0.00464399
0.00413539
0.00366148
0.00324573
0.00289583
0.00261007
0.00238235
0.0022048
0.00206877
0.00196548
0.00188663
0.00182497
0.00177458
0.0017312
0.0016921
0.00165565
0.001621
0.00158791
0.0015565
0.00152714
0.00150024
0.00147625
0.00145558
0.00143863
0.00142573
0.00141777
0.00141446
0.00141428
0.00142037
0.00143222
0.00145001
0.00147413
0.00150508
0.00154349
0.00159014
0.00164605
0.00171249
0.00179114
0.00188413
0.00199429
0.00212521
0.00228161
0.0024695
0.00269653
0.00297223
0.00330818
0.00371777
0.0042155
0.00481515
0.00552667
0.00635147
0.00727643
0.00826786
0.00926733
0.0101964
0.0109877
0.0115658
0.0120046
0.0125548
0.0137356
0.0161391
0.0210452
0.0281073
0.0313536
0.0283111
0.0151783
0.0100427
0.0109899
0.00513645
0.00429916
0.00435672
0.00470104
0.00512506
0.00552976
0.00583351
0.00596425
0.00594562
0.00574795
0.0053915
0.00492558
0.00441088
0.00390281
0.00343981
0.00304099
0.00271076
0.00244522
0.00223676
0.00207632
0.00195436
0.00186168
0.00179
0.00173242
0.0016837
0.00164032
0.00160018
0.00156213
0.00152568
0.00149084
0.00145785
0.00142709
0.00139898
0.0013739
0.00135222
0.00133425
0.00132029
0.00131076
0.00130619
0.00130501
0.00130893
0.00131865
0.00133403
0.0013554
0.0013832
0.00141799
0.00146048
0.00151154
0.0015723
0.00164424
0.00172926
0.00182985
0.00194926
0.00209177
0.00226297
0.00247013
0.00272258
0.00303208
0.00341301
0.00388206
0.00445716
0.0051548
0.00598555
0.00694724
0.00801665
0.00914156
0.0102367
0.0112299
0.011964
0.0124494
0.012834
0.0135868
0.0152803
0.0191504
0.0261736
0.0317444
0.0320248
0.0189522
0.0117827
0.0112998
0.00535106
0.00444479
0.00446695
0.00478631
0.00518402
0.00555533
0.00581458
0.00590202
0.00583982
0.00559717
0.00520548
0.00471801
0.00419609
0.00369268
0.00324237
0.00286063
0.00254917
0.00230224
0.00211089
0.00196504
0.00185457
0.00177009
0.00170356
0.00164861
0.00160072
0.001557
0.00151586
0.00147654
0.0014388
0.00140278
0.00136877
0.00133713
0.00130824
0.00128241
0.00125996
0.00124115
0.00122622
0.0012154
0.0012095
0.00120742
0.00120932
0.00121698
0.00123008
0.00124889
0.00127381
0.00130534
0.00134412
0.00139091
0.00144674
0.00151288
0.00159101
0.00168332
0.00179271
0.00192303
0.00207935
0.00226841
0.00249907
0.00278283
0.00313432
0.00357151
0.00411522
0.00478737
0.00560709
0.00658403
0.00770887
0.0089424
0.0102063
0.0113846
0.0123428
0.0129626
0.0132993
0.0137071
0.0148971
0.0176961
0.0238263
0.031804
0.0344172
0.0235396
0.0136444
0.0115341
0.00553908
0.00456249
0.00454794
0.00483872
0.00520683
0.00554871
0.00576733
0.00582211
0.00572049
0.00544277
0.00502525
0.00452397
0.00400011
0.00350417
0.00306742
0.00270231
0.00240833
0.00217817
0.00200172
0.00186812
0.00176689
0.00168867
0.00162582
0.00157258
0.00152506
0.00148095
0.00143903
0.00139882
0.00136024
0.00132348
0.00128885
0.00125666
0.00122724
0.00120086
0.00117778
0.0011582
0.00114235
0.0011304
0.00112307
0.0011201
0.00112014
0.00112576
0.00113669
0.0011531
0.00117536
0.00120393
0.00123938
0.00128242
0.00133394
0.00139507
0.0014673
0.00155254
0.00165335
0.00177314
0.00191648
0.00208949
0.00230042
0.00256018
0.00288315
0.00328769
0.00379639
0.00443515
0.00523028
0.0062025
0.007357
0.00866999
0.0100742
0.0114483
0.0126693
0.0134961
0.0139007
0.0141542
0.0148056
0.0168302
0.0218325
0.0307736
0.0357576
0.0286122
0.0156617
0.0116879
0.00570168
0.00465312
0.00460123
0.00485939
0.00520188
0.00552002
0.00569675
0.00572632
0.00559248
0.00528854
0.00485337
0.00434465
0.00382284
0.00333619
0.00291317
0.0025638
0.00228577
0.00207043
0.00190675
0.00178329
0.0016894
0.00161595
0.00155576
0.00150366
0.00145634
0.00141191
0.00136947
0.00132871
0.00128963
0.00125247
0.00121748
0.00118495
0.00115515
0.0011283
0.00110464
0.00108434
0.0010676
0.00105461
0.0010457
0.0010414
0.00104033
0.00104387
0.00105271
0.00106687
0.00108665
0.00111251
0.00114496
0.00118465
0.0012324
0.00128921
0.00135638
0.0014356
0.00152913
0.00163995
0.00177214
0.00193121
0.00212468
0.00236273
0.0026591
0.00303194
0.00350456
0.00410548
0.00486665
0.0058187
0.00698154
0.00835003
0.00987634
0.0114539
0.0129188
0.0140151
0.0145442
0.0147614
0.0150675
0.0164317
0.0203863
0.028953
0.0363586
0.033625
0.0177117
0.0117626
0.00583958
0.00471989
0.00462969
0.0048561
0.00517766
0.00546278
0.00560901
0.00561805
0.0054595
0.00513726
0.00469155
0.00418056
0.00366381
0.00318749
0.00277786
0.00244303
0.00217924
0.00197679
0.00182389
0.00170873
0.00162065
0.00155084
0.00149261
0.00144133
0.00139417
0.00134957
0.00130685
0.00126581
0.0012265
0.00118914
0.00115396
0.0011212
0.00109109
0.00106383
0.00103961
0.00101861
0.001001
0.000986959
0.00097669
0.000970903
0.000968846
0.000970456
0.000977294
0.000989315
0.0010068
0.00103014
0.00105986
0.00109655
0.00114095
0.00119399
0.00125682
0.00133094
0.0014183
0.00152154
0.00164427
0.00179138
0.00196967
0.0021885
0.00246073
0.00280385
0.00324113
0.00380242
0.00452364
0.00544349
0.00659522
0.00799194
0.00960606
0.0113473
0.0130513
0.014487
0.0152337
0.0154883
0.0155923
0.016314
0.0192105
0.0269171
0.0365629
0.037909
0.0196023
0.0117525
0.00595171
0.00476423
0.00463367
0.00483662
0.00512769
0.00538533
0.00550775
0.00550028
0.00532436
0.00499096
0.00454077
0.00403176
0.00352225
0.00305675
0.0026598
0.00233811
0.00208681
0.00189537
0.00175145
0.00164301
0.00155953
0.00149252
0.00143577
0.00138515
0.00133817
0.00129356
0.00125076
0.00120964
0.00117028
0.00113286
0.0010976
0.00106468
0.00103431
0.00100667
0.000981918
0.000960235
0.000941788
0.000926752
0.000915308
0.000908021
0.000904969
0.00090489
0.000909821
0.00091983
0.000935151
0.000956168
0.000983364
0.00101732
0.00105873
0.00110845
0.00116751
0.00123725
0.0013194
0.00141628
0.00153102
0.001668
0.00183327
0.00203534
0.00228611
0.00260209
0.00300594
0.00352784
0.00420618
0.0050859
0.00621209
0.00761622
0.00929372
0.0111756
0.0131006
0.0148659
0.0159355
0.0162825
0.0163082
0.0165487
0.0185983
0.0249637
0.0364701
0.0410819
0.021153
0.0116967
0.00604449
0.00479255
0.00462494
0.0047948
0.00505815
0.00529095
0.00539651
0.00537551
0.00518919
0.00485096
0.00440151
0.00389794
0.00339727
0.00294266
0.00255745
0.00224738
0.00200682
0.00182461
0.00168805
0.00158501
0.00150513
0.0014403
0.00138474
0.00133468
0.00128795
0.00124346
0.00120073
0.00115968
0.00112039
0.00108301
0.00104772
0.0010147
0.000984112
0.000956123
0.000930896
0.000908593
0.000889386
0.000873453
0.000860992
0.000852233
0.000847863
0.000846739
0.000849838
0.000857962
0.000871265
0.000890107
0.000914961
0.000946393
0.000985075
0.00103181
0.00108756
0.00115353
0.00123126
0.00132278
0.00143084
0.00155929
0.00171351
0.00190117
0.00213313
0.0024248
0.0027978
0.0032819
0.00391663
0.00475126
0.00584061
0.00723316
0.00894868
0.0109465
0.0130926
0.0151407
0.0166042
0.017146
0.0171637
0.0170945
0.0183466
0.0235557
0.0353015
0.0430316
0.0222429
0.0115747
0.00611835
0.00480417
0.00460079
0.00473576
0.00497286
0.00518379
0.00527692
0.00524644
0.00505559
0.00471811
0.00427385
0.00377857
0.00328791
0.00284399
0.0024694
0.00216939
0.00193783
0.00176321
0.00163257
0.00153381
0.00145676
0.00139364
0.00133904
0.00128951
0.0012431
0.00119882
0.00115629
0.00111542
0.00107628
0.00103901
0.00100375
0.000970669
0.000939912
0.000911636
0.000885998
0.000863159
0.000843286
0.000826554
0.000813147
0.00080326
0.000797554
0.000795511
0.000796983
0.000803369
0.000814793
0.000831602
0.000854263
0.000883339
0.000919494
0.000963505
0.00101629
0.00107896
0.0011529
0.00123991
0.00134239
0.00146372
0.00160866
0.00178404
0.00199973
0.00226993
0.00261502
0.00306378
0.00365581
0.00444305
0.00548781
0.00685342
0.00858272
0.0106631
0.0129856
0.0153197
0.017212
0.0180385
0.0181117
0.0178118
0.0183071
0.0224966
0.0338795
0.04392
0.0228294
0.0114111
0.0061776
0.00480311
0.00455969
0.00466306
0.004875
0.00506696
0.00515098
0.00511503
0.00492471
0.00459278
0.00415756
0.00367294
0.00319317
0.00275955
0.00239443
0.0021029
0.00187869
0.00171012
0.00158413
0.00148868
0.00141381
0.00135205
0.00129826
0.00124924
0.00120318
0.00115921
0.00111696
0.00107635
0.00103744
0.00100033
0.000965157
0.000932069
0.000901206
0.000872719
0.000846761
0.000823491
0.000803073
0.000785679
0.000771483
0.000760668
0.000753742
0.000750839
0.000750947
0.000755752
0.000765442
0.000780357
0.000800958
0.000827816
0.000861597
0.00090308
0.000953161
0.00101289
0.00108355
0.00116673
0.00126456
0.00137999
0.00151718
0.00168222
0.00188398
0.00213547
0.00245566
0.002872
0.00342338
0.00416295
0.00515847
0.006486
0.00821076
0.0103505
0.0128248
0.0154104
0.0177307
0.0189468
0.0191672
0.0187035
0.0186687
0.02169
0.0323813
0.044189
0.0230839
0.0112021
0.006224
0.00479652
0.00450881
0.00457997
0.00476761
0.00494305
0.00502057
0.0049828
0.0047973
0.00447505
0.00405216
0.00358025
0.00311204
0.0026883
0.00233146
0.00204687
0.00182844
0.00166448
0.001542
0.00144902
0.0013758
0.00131509
0.00126199
0.00121346
0.00116782
0.00112422
0.00108231
0.00104202
0.00100339
0.000966497
0.000931473
0.000898447
0.000867557
0.000838951
0.00081278
0.000789201
0.000768378
0.000750475
0.000735664
0.000724127
0.000716126
0.000712237
0.00071145
0.000714812
0.00072292
0.00073608
0.000754751
0.000779512
0.000811047
0.000850148
0.000897716
0.000954781
0.00102254
0.00110246
0.00119641
0.00130696
0.00143776
0.00159417
0.00178414
0.00201948
0.00231774
0.00270477
0.00321821
0.00391123
0.00485505
0.00613597
0.00783975
0.0100158
0.0126194
0.0154462
0.0181418
0.0198293
0.0202807
0.019698
0.0192685
0.0212816
0.03087
0.0440362
0.0231614
0.0109533
0.00625974
0.00478192
0.00445036
0.00448935
0.00465344
0.00481426
0.00488738
0.00485092
0.00467379
0.00436472
0.00395702
0.00349961
0.00304355
0.00262927
0.00227957
0.00200046
0.00178629
0.00162564
0.0015056
0.00141435
0.0013423
0.00128239
0.00122987
0.00118183
0.00113662
0.00109344
0.00105194
0.00101202
0.000973718
0.000937105
0.000902293
0.000869404
0.000838577
0.000809954
0.000783686
0.000759931
0.000738844
0.000720584
0.000705314
0.000693199
0.00068442
0.00067958
0.000678077
0.000680206
0.000686898
0.000698451
0.000715324
0.000738108
0.000767509
0.000804349
0.000849554
0.000904159
0.000969331
0.00104643
0.00113713
0.00124368
0.00136925
0.00151856
0.00169865
0.0019202
0.00219931
0.00256019
0.00303878
0.00368739
0.00457899
0.00580756
0.00747679
0.00966713
0.0123758
0.0154407
0.0184818
0.0206723
0.0213999
0.0208959
0.0200327
0.0211209
0.0294221
0.0433116
0.0231497
0.0106712
0.00628292
0.00476058
0.00438627
0.00439363
0.0045349
0.00468244
0.00475285
0.00472025
0.0045544
0.00426143
0.0038714
0.00343007
0.00298671
0.00258162
0.00223805
0.00196302
0.00175169
0.00159307
0.00147449
0.00138427
0.00131296
0.00125361
0.00120158
0.00115398
0.00110923
0.0010665
0.00102545
0.000985967
0.000948052
0.000911779
0.000877249
0.000844581
0.00081391
0.000785377
0.000759134
0.000735331
0.000714122
0.000695655
0.000680081
0.000667549
0.000658215
0.000652563
0.000650438
0.000651543
0.000656994
0.000667095
0.00068231
0.000703241
0.000730624
0.000765315
0.000808283
0.000860596
0.00092342
0.000998054
0.00108603
0.00118932
0.00131069
0.00145421
0.00162612
0.00183601
0.0020986
0.00243635
0.00288332
0.00349029
0.0043306
0.00550355
0.00712781
0.00931256
0.0120957
0.0153564
0.0187394
0.0214713
0.022551
0.0222018