/*--------------------------------*- C++ -*----------------------------------*\
  =========                 |
  \\      /  F ield         | OpenFOAM: The Open Source CFD Toolbox
   \\    /   O peration     | Website:  https://openfoam.org
    \\  /    A nd           | Version:  13
     \\/     M anipulation  |
\*---------------------------------------------------------------------------*/
FoamFile
{
    format      ascii;
    class       volScalarField;
    location    "2.4";
    object      k;
}
// * * * * * * * * * * * * * * * * * * * * * * * * * * * * * * * * * * * * * //

dimensions      [0 2 -2 0 0 0 0];

internalField   nonuniform List<scalar> 
6400
(
2.77548e-07
1.40825e-06
3.21357e-06
5.26864e-06
7.35792e-06
9.45956e-06
1.16446e-05
1.39987e-05
1.6584e-05
1.94305e-05
2.2539e-05
2.58929e-05
2.94669e-05
3.32381e-05
3.7221e-05
4.1385e-05
4.57317e-05
5.02647e-05
5.49854e-05
5.9897e-05
6.50163e-05
7.04031e-05
7.62084e-05
8.27131e-05
9.02267e-05
9.87499e-05
0.000108061
0.00011775
0.00012772
0.000138264
0.000149524
0.00016158
0.000174215
0.000187027
0.000199821
0.000212657
0.000225597
0.000238708
0.000252122
0.000265954
0.000280302
0.000295268
0.000310993
0.000327574
0.000344821
0.000362712
0.000381317
0.00040109
0.00042307
0.000450045
0.00047858
0.00050691
0.000534534
0.000560749
0.000584657
0.000605194
0.000620964
0.000629629
0.000633243
0.00063078
0.000617009
0.00059383
0.000560867
0.000518483
0.000468092
0.00041276
0.000354812
0.000295822
0.000237828
0.000183576
0.000135705
9.82173e-05
6.80632e-05
4.50165e-05
2.84311e-05
1.71074e-05
9.73572e-06
5.08975e-06
2.14738e-06
4.29436e-07
1.39795e-06
1.18647e-05
2.74872e-05
4.44451e-05
6.11427e-05
7.7562e-05
9.42588e-05
0.000111813
0.00013061
0.000150817
0.000172434
0.000195374
0.000219525
0.000244774
0.000271003
0.000298315
0.000326816
0.00035662
0.000387818
0.000420511
0.00045485
0.000491207
0.000530415
0.000573866
0.000622855
0.000677088
0.00073503
0.000794372
0.000854244
0.000915175
0.000977178
0.00104012
0.00110235
0.00116205
0.00121842
0.00127186
0.00132276
0.00137161
0.00141919
0.00146615
0.00151312
0.00156066
0.00160944
0.00165983
0.00171147
0.00176426
0.00181798
0.00187247
0.00192649
0.00197896
0.00203253
0.00208701
0.00214124
0.00219324
0.00224132
0.00228294
0.00231466
0.00233005
0.00233405
0.00232159
0.00228413
0.00222056
0.00213001
0.00201163
0.00186655
0.00170104
0.00152003
0.00132731
0.00113059
0.000937543
0.000755026
0.000583551
0.000432551
0.000306666
0.000207153
0.000132306
7.90643e-05
4.29023e-05
1.82534e-05
2.25506e-06
3.25463e-06
2.79071e-05
6.20996e-05
9.56668e-05
0.00012692
0.000157172
0.000187864
0.000220062
0.000254405
0.000291185
0.000330479
0.000372281
0.000416579
0.000463414
0.000512898
0.000565222
0.0006206
0.000679208
0.000741122
0.000806236
0.000874138
0.000944091
0.001015
0.00108544
0.00115379
0.00121877
0.0012789
0.00133367
0.00138282
0.00142629
0.00146588
0.00150241
0.00153748
0.00157315
0.0016084
0.00164431
0.00168145
0.00172005
0.00176079
0.00180403
0.00185017
0.00189921
0.00195147
0.00200676
0.00206541
0.00212745
0.00219294
0.00226176
0.00233264
0.00240608
0.00248166
0.00255827
0.00263462
0.00270893
0.00277921
0.00284288
0.00289697
0.00293728
0.00295659
0.00296052
0.00293992
0.00288708
0.00280099
0.00267945
0.00252032
0.00232862
0.00211276
0.00187765
0.00163135
0.0013832
0.00114237
0.000916563
0.000712594
0.000535582
0.00038784
0.000268903
0.000175854
0.000103592
4.61316e-05
5.66338e-06
5.86327e-06
4.93292e-05
0.000103291
0.000151562
0.000195232
0.000237525
0.000280683
0.000326133
0.000374683
0.000426719
0.00048238
0.0005417
0.000604686
0.000671355
0.000741721
0.000815718
0.000893091
0.000973302
0.00105541
0.00113791
0.0012188
0.0012957
0.00136622
0.0014285
0.00148132
0.0015246
0.00155861
0.00158518
0.00160689
0.00162673
0.00164687
0.00166821
0.00169089
0.00171495
0.00174102
0.00177027
0.00180235
0.00183769
0.00187641
0.00191847
0.0019641
0.00201326
0.00206602
0.00212248
0.00218265
0.00224639
0.00231345
0.00238354
0.00245712
0.00253376
0.00261288
0.00269362
0.00277483
0.00285499
0.00293218
0.00300404
0.00306772
0.00311994
0.00315418
0.00316834
0.00316844
0.00313854
0.00307468
0.00297504
0.00283427
0.00265027
0.00243252
0.00218787
0.00192438
0.00165227
0.00138249
0.00112548
0.00089012
0.000682813
0.000507088
0.000363225
0.000247967
0.000154672
7.32537e-05
9.23708e-06
9.36236e-06
7.66212e-05
0.000151119
0.00021359
0.000269338
0.000323427
0.000378854
0.000437373
0.000499938
0.000566977
0.000638601
0.000714743
0.000795219
0.000879721
0.000967727
0.00105838
0.00115033
0.00124167
0.00132988
0.001412
0.00148503
0.00154651
0.00159477
0.00163034
0.00165404
0.00166846
0.00167701
0.00168406
0.00169122
0.00169876
0.00170841
0.00172066
0.00173556
0.0017535
0.00177469
0.00179925
0.00182703
0.00185802
0.00189204
0.00192925
0.00196966
0.0020134
0.0020606
0.00211083
0.00216416
0.00222057
0.00228003
0.00234307
0.00240966
0.00247961
0.00255268
0.00262845
0.0027063
0.00278536
0.00286425
0.00294121
0.00301397
0.00307962
0.00313437
0.00317055
0.00318516
0.00318001
0.00314162
0.00307045
0.00296993
0.00282511
0.00262998
0.00239775
0.00213555
0.001854
0.00156582
0.00128448
0.0010223
0.000788757
0.000589547
0.000426143
0.000295445
0.000189291
9.337e-05
1.19401e-05
1.39202e-05
0.00011024
0.000206287
0.000283372
0.000351589
0.000417765
0.000485614
0.000557205
0.000633581
0.000715109
0.000801706
0.000892974
0.000988231
0.00108644
0.0011861
0.00128509
0.00138066
0.00146948
0.00154804
0.00161317
0.00166287
0.00169712
0.00171383
0.00171956
0.00171985
0.0017155
0.00170949
0.00170565
0.00170419
0.00170457
0.00170926
0.00171776
0.00172906
0.00174307
0.00175985
0.00177926
0.00180103
0.00182492
0.00185077
0.00187851
0.00190797
0.00193925
0.00197261
0.00200837
0.00204681
0.00208822
0.00213304
0.00218104
0.00223248
0.00228753
0.00234637
0.00240908
0.00247563
0.00254579
0.00261916
0.00269485
0.00277158
0.00284769
0.00292038
0.00298602
0.00304078
0.0030732
0.0030841
0.00306427
0.00300501
0.00291003
0.00276785
0.00256863
0.00232473
0.00204578
0.0017458
0.00144156
0.00115018
0.000886272
0.00065969
0.000474343
0.000327802
0.000210729
0.000105779
1.35271e-05
1.96821e-05
0.000150273
0.000269062
0.000361436
0.00044263
0.000521166
0.000601433
0.000685758
0.000775185
0.000869873
0.000969336
0.00107257
0.00117807
0.00128374
0.00138681
0.00148386
0.00157104
0.00164457
0.00170133
0.00173921
0.00175657
0.00176093
0.00175409
0.00174039
0.00172601
0.00171299
0.00170245
0.00169427
0.00168911
0.0016869
0.00168674
0.00168952
0.00169407
0.00170019
0.00170832
0.00171816
0.00172952
0.0017423
0.00175649
0.00177223
0.00178964
0.00180875
0.00182944
0.00185197
0.00187647
0.00190316
0.00193225
0.00196399
0.00199881
0.00203713
0.00207949
0.00212645
0.00217856
0.00223631
0.0023002
0.00237036
0.00244638
0.00252737
0.00261262
0.00269969
0.00278534
0.00286416
0.00293
0.00296413
0.00297274
0.00293613
0.00286148
0.00272391
0.00251794
0.00225722
0.00195493
0.00163036
0.00130603
0.00100373
0.000740323
0.00052469
0.000356503
0.000225827
0.000113055
1.43141e-05
2.67831e-05
0.000196397
0.000339223
0.000447593
0.00054215
0.000633067
0.000725359
0.000821532
0.000922509
0.00102806
0.00113709
0.00124774
0.00135745
0.00146294
0.00156032
0.00164533
0.00171393
0.00176358
0.00178857
0.00179601
0.00178961
0.00177146
0.00175088
0.00173013
0.00170994
0.00169132
0.00167466
0.0016605
0.00164941
0.00164068
0.00163356
0.0016287
0.00162621
0.0016254
0.00162578
0.00162812
0.00163168
0.00163671
0.00164313
0.00165087
0.00165993
0.00167027
0.00168194
0.00169507
0.00170975
0.00172615
0.00174448
0.00176498
0.00178802
0.00181398
0.00184332
0.00187675
0.00191501
0.00195895
0.00200952
0.00206777
0.00213477
0.00221037
0.00229576
0.00239032
0.00249227
0.00259867
0.00270475
0.00280241
0.00287399
0.0029043
0.00289739
0.00284073
0.00270746
0.00248789
0.0022015
0.00186708
0.00151135
0.00116424
0.00085253
0.000593984
0.000393516
0.000242244
0.000118958
1.48859e-05
3.55616e-05
0.000247757
0.000416206
0.000541126
0.00064917
0.000752129
0.000855573
0.000962095
0.00107235
0.00118558
0.00129987
0.00141239
0.00151952
0.00161701
0.0017004
0.00176558
0.00180725
0.00182429
0.0018257
0.00180877
0.00178516
0.00175778
0.00172839
0.00169811
0.00167021
0.00164515
0.00162329
0.00160471
0.0015886
0.00157469
0.00156287
0.00155332
0.00154586
0.00154029
0.00153675
0.00153517
0.00153477
0.00153607
0.0015391
0.00154348
0.00154924
0.00155631
0.00156467
0.00157434
0.00158537
0.00159785
0.00161189
0.00162773
0.0016456
0.00166583
0.00168878
0.00171468
0.00174393
0.00177701
0.00181456
0.00185754
0.0019074
0.00196663
0.00203633
0.00211923
0.00221679
0.00232704
0.0024488
0.00257848
0.00270564
0.00281707
0.00287356
0.00288561
0.00284446
0.00271067
0.0024683
0.00214638
0.0017719
0.00138152
0.00101348
0.000698305
0.000451198
0.000268145
0.000127669
1.58712e-05
4.58961e-05
0.000304255
0.000499151
0.000640859
0.000762194
0.000876457
0.000989698
0.00110449
0.00122112
0.00133813
0.00145277
0.00156127
0.00165917
0.0017418
0.00180486
0.00184122
0.00185365
0.0018491
0.00182617
0.00179706
0.00176146
0.00172118
0.00168223
0.0016467
0.00161486
0.00158625
0.0015609
0.0015386
0.00151893
0.00150191
0.00148757
0.00147595
0.00146693
0.00146043
0.00145664
0.00145505
0.00145479
0.00145679
0.00146068
0.001466
0.00147275
0.00148077
0.00149
0.00150042
0.00151205
0.00152497
0.00153928
0.00155509
0.00157254
0.0015918
0.00161306
0.00163649
0.00166226
0.00169058
0.00172172
0.00175608
0.00179418
0.00183698
0.00188551
0.00194218
0.00201073
0.00209797
0.00220764
0.00233901
0.00248518
0.00263979
0.00278356
0.00286918
0.00289463
0.00286289
0.00271855
0.00244227
0.00207488
0.0016552
0.0012319
0.000850506
0.000541732
0.000312277
0.000143703
1.7897e-05
5.77164e-05
0.000365166
0.000586825
0.00074524
0.00087933
0.00100379
0.00112505
0.00124559
0.00136521
0.00148179
0.00159175
0.00169061
0.00177354
0.00183602
0.00187006
0.00188032
0.00187125
0.00184479
0.00180896
0.00176358
0.00171482
0.00166856
0.00162575
0.001587
0.00155222
0.00152101
0.00149336
0.00146916
0.00144832
0.00143094
0.00141705
0.00140658
0.00139935
0.00139577
0.00139455
0.001395
0.00139824
0.00140339
0.00141018
0.00141831
0.00142765
0.00143806
0.00144947
0.00146185
0.0014752
0.0014896
0.00150511
0.00152187
0.00154002
0.00155971
0.00158108
0.00160428
0.00162941
0.00165648
0.00168549
0.0017165
0.00174953
0.00178484
0.00182272
0.00186428
0.0019115
0.00196782
0.00203826
0.00213243
0.00226272
0.00242178
0.00259823
0.00277178
0.00288183
0.00291655
0.00288404
0.00271448
0.0023909
0.0019691
0.00150403
0.00105573
0.000674132
0.000382937
0.000171832
2.16607e-05
7.08603e-05
0.000429513
0.000677735
0.000852443
0.000998441
0.00113167
0.00125888
0.00138236
0.00150144
0.00161336
0.00171395
0.00179838
0.00186199
0.00189624
0.00190599
0.0018948
0.00186496
0.00182334
0.00176966
0.00171337
0.00165934
0.00160937
0.00156396
0.0015231
0.00148663
0.00145437
0.0014264
0.00140274
0.0013834
0.00136839
0.00135757
0.00135115
0.00134842
0.00134794
0.00135026
0.001355
0.00136185
0.0013702
0.00137982
0.00139046
0.00140199
0.00141431
0.00142737
0.0014412
0.00145582
0.00147134
0.00148786
0.00150554
0.00152452
0.00154498
0.00156707
0.00159094
0.0016167
0.00164443
0.0016741
0.00170536
0.00173789
0.00177109
0.00180518
0.00184031
0.00187694
0.0019172
0.00196381
0.00202257
0.00210255
0.00221856
0.00238372
0.0025782
0.00277835
0.0029046
0.00294203
0.0028956
0.00268038
0.00229433
0.00181363
0.00130869
0.000850613
0.000485201
0.000215908
2.77961e-05
8.50647e-05
0.000496105
0.000770218
0.000960486
0.00111728
0.00125765
0.00138856
0.00151211
0.00162722
0.00173062
0.00181786
0.00188424
0.0019211
0.00193195
0.00192085
0.00188848
0.0018419
0.00178157
0.00171839
0.00165666
0.00159928
0.00154711
0.00150027
0.00145864
0.00142216
0.00139084
0.00136477
0.00134396
0.00132829
0.00131751
0.00131215
0.00131029
0.00131059
0.0013144
0.00132045
0.00132842
0.00133778
0.0013482
0.00135944
0.00137137
0.00138389
0.00139699
0.00141069
0.00142506
0.0014402
0.00145626
0.0014734
0.00149181
0.00151167
0.00153319
0.00155656
0.00158191
0.00160933
0.00163882
0.00167022
0.0017033
0.00173769
0.00177227
0.00180597
0.00183932
0.00187237
0.00190635
0.00194271
0.00198294
0.00203244
0.00210181
0.00220512
0.00236816
0.00257836
0.00280069
0.00293096
0.00296153
0.00288513
0.00259487
0.00213595
0.00159554
0.00106597
0.000619184
0.000277483
3.67027e-05
0.00010008
0.000563729
0.000862525
0.00106734
0.00123363
0.0013794
0.00151177
0.00163266
0.00174068
0.00183235
0.00190323
0.00194497
0.00195865
0.00194995
0.00191646
0.001867
0.00180156
0.00173135
0.00166199
0.00159689
0.00153763
0.00148455
0.00143764
0.00139683
0.00136218
0.0013337
0.00131136
0.00129494
0.00128436
0.00127938
0.00127792
0.00127906
0.00128344
0.0012902
0.00129859
0.00130818
0.00131861
0.00132967
0.00134122
0.00135322
0.00136565
0.00137859
0.00139211
0.00140635
0.00142146
0.00143762
0.00145502
0.00147388
0.00149445
0.00151695
0.00154163
0.00156868
0.00159826
0.00163043
0.00166508
0.00170193
0.00174045
0.00178055
0.00182129
0.0018585
0.00189142
0.00192106
0.00194828
0.00197768
0.00201357
0.00205831
0.00211966
0.00221581
0.00237368
0.00259741
0.00283563
0.00295398
0.00296818
0.00283174
0.00244211
0.00189778
0.00131025
0.000780577
0.000355217
4.83568e-05
0.000115535
0.0006311
0.000952943
0.00117105
0.00134542
0.00149485
0.00162656
0.00174236
0.00184075
0.00191833
0.00196746
0.00198571
0.00198139
0.00194926
0.00189929
0.00183022
0.00175373
0.00167665
0.00160347
0.00153655
0.0014767
0.00142402
0.00137849
0.00134011
0.00130886
0.00128462
0.00126705
0.00125606
0.001251
0.00124956
0.00125081
0.00125528
0.00126196
0.00127016
0.00127934
0.00128915
0.00129942
0.00131002
0.00132095
0.00133223
0.00134394
0.0013562
0.00136915
0.00138292
0.00139771
0.00141371
0.00143112
0.00145017
0.00147113
0.00149427
0.00151988
0.00154825
0.00157964
0.00161422
0.00165205
0.00169299
0.0017366
0.00178207
0.00182852
0.00187601
0.00192046
0.00195632
0.00198424
0.00200545
0.00202465
0.00205157
0.00209316
0.00214876
0.00224086
0.00239859
0.00263641
0.0028706
0.00297226
0.00294566
0.00270201
0.00219485
0.00157204
0.000963178
0.000445679
6.22862e-05
0.000131055
0.000696961
0.00103986
0.00126983
0.00145083
0.00160227
0.00173145
0.00184013
0.00192692
0.00198684
0.00201293
0.0020146
0.00198812
0.00193838
0.00186795
0.00178639
0.00170186
0.00162024
0.00154496
0.00147752
0.00141831
0.00136733
0.00132455
0.00128988
0.0012631
0.00124373
0.00123153
0.00122583
0.00122408
0.0012248
0.00122879
0.00123492
0.00124241
0.00125073
0.00125954
0.00126864
0.00127797
0.00128753
0.00129738
0.00130764
0.00131841
0.00132986
0.00134212
0.00135537
0.00136977
0.00138549
0.00140276
0.00142179
0.00144284
0.00146621
0.00149223
0.00152126
0.00155366
0.00158977
0.00162985
0.00167399
0.00172202
0.00177339
0.00182703
0.00188123
0.00193552
0.0019871
0.00202803
0.00205515
0.00207075
0.00208119
0.00209685
0.00213122
0.00218556
0.00227645
0.00244041
0.00269221
0.00290148
0.00297072
0.0028685
0.00246456
0.00183928
0.00116086
0.00054472
7.77271e-05
0.00014627
0.000760156
0.00112184
0.00136212
0.00154832
0.00170031
0.00182543
0.00192539
0.0019988
0.00203769
0.00204706
0.00202924
0.00198288
0.00191466
0.00182967
0.00173855
0.00164839
0.00156405
0.00148803
0.00142124
0.00136382
0.00131571
0.00127674
0.00124658
0.00122466
0.00121029
0.00120328
0.00120083
0.00120071
0.00120367
0.00120889
0.00121539
0.00122261
0.00123019
0.00123796
0.00124587
0.00125395
0.00126228
0.00127098
0.0012802
0.00129009
0.0013008
0.00131246
0.00132524
0.00133927
0.00135473
0.0013718
0.00139067
0.0014116
0.00143488
0.00146086
0.00148993
0.00152255
0.00155919
0.00160029
0.00164622
0.00169713
0.00175285
0.0018127
0.00187533
0.00193851
0.0020003
0.00205942
0.0021052
0.0021295
0.00214001
0.00214391
0.00214913
0.00217342
0.00222685
0.00232086
0.00250059
0.00276537
0.00291632
0.00293118
0.00268846
0.00209951
0.00136763
0.000647424
9.39442e-05
0.000160834
0.000819673
0.00119767
0.00144666
0.00163671
0.00178804
0.00190801
0.00199854
0.00205502
0.00207575
0.00206958
0.0020312
0.00196821
0.00188314
0.00178715
0.00168897
0.00159509
0.00150946
0.00143384
0.00136873
0.0013141
0.00126972
0.00123518
0.00120979
0.00119257
0.00118324
0.00117942
0.00117855
0.00118005
0.00118406
0.00118941
0.00119541
0.00120172
0.00120813
0.00121461
0.00122119
0.001228
0.00123516
0.00124283
0.00125115
0.00126029
0.00127038
0.00128156
0.00129397
0.00130771
0.00132294
0.0013398
0.00135848
0.00137918
0.0014022
0.00142786
0.00145657
0.00148884
0.00152521
0.00156629
0.00161266
0.00166482
0.00172301
0.00178707
0.00185619
0.00192866
0.00200166
0.00207172
0.00213832
0.00218515
0.00220558
0.00221096
0.00220738
0.00220229
0.00221713
0.00227072
0.00237441
0.00258018
0.00282836
0.00292942
0.00282316
0.00233745
0.00157812
0.000750116
0.000110523
0.000174444
0.000874684
0.0012664
0.00152249
0.00171516
0.00186481
0.00197871
0.00205853
0.00209766
0.00210487
0.00208092
0.00202542
0.00194475
0.00184716
0.00174254
0.0016393
0.00154322
0.00145745
0.00138319
0.00132063
0.00126952
0.00122938
0.00119944
0.00117859
0.00116596
0.00116011
0.00115821
0.00115819
0.00116072
0.0011648
0.00116959
0.00117465
0.00117976
0.00118488
0.00119005
0.00119538
0.00120103
0.00120716
0.00121393
0.0012215
0.00123001
0.0012396
0.00125038
0.00126247
0.00127597
0.001291
0.00130768
0.00132617
0.00134664
0.00136935
0.0013946
0.00142279
0.00145442
0.00149007
0.00153043
0.00157626
0.00162831
0.00168722
0.00175333
0.00182649
0.00190569
0.00198881
0.00207226
0.00215109
0.00222397
0.00226809
0.0022836
0.00228441
0.00226663
0.00225267
0.00226021
0.00231798
0.00243971
0.00267724
0.00285055
0.00287208
0.00254387
0.00179041
0.000853868
0.000127241
0.00018685
0.000924552
0.00132734
0.00158897
0.00178318
0.00193052
0.00203828
0.00210501
0.00212982
0.00212402
0.00208229
0.00201165
0.00191662
0.0018087
0.00169745
0.00159075
0.00149367
0.00140869
0.00133657
0.0012772
0.00123006
0.00119432
0.00116882
0.00115208
0.0011432
0.00113945
0.00113846
0.00113917
0.00114188
0.00114548
0.00114937
0.00115329
0.00115716
0.00116102
0.00116498
0.00116919
0.00117382
0.00117904
0.00118501
0.00119191
0.00119984
0.00120895
0.00121933
0.00123111
0.00124436
0.00125919
0.0012757
0.00129402
0.0013143
0.00133675
0.00136165
0.00138934
0.0014203
0.00145509
0.00149445
0.00153919
0.00159025
0.00164857
0.00171495
0.00178984
0.00187305
0.00196329
0.00205783
0.00215208
0.00224
0.00231658
0.00235386
0.00236423
0.00235415
0.00231857
0.00229573
0.00230339
0.00237176
0.00252971
0.00277035
0.00286916
0.00269945
0.00200193
0.000966527
0.000145418
0.000197836
0.000968823
0.00138011
0.00164574
0.00184053
0.00198492
0.00208596
0.00213993
0.00215402
0.00213407
0.0020778
0.00199193
0.00188548
0.00176927
0.00165304
0.00154416
0.00144705
0.0013636
0.0012942
0.00123842
0.00119541
0.00116393
0.00114243
0.00112927
0.00112291
0.00112041
0.00111988
0.00112089
0.00112327
0.00112609
0.00112895
0.00113172
0.00113441
0.00113712
0.00113998
0.00114317
0.00114686
0.00115123
0.00115643
0.00116264
0.00116996
0.00117854
0.00118847
0.00119987
0.00121281
0.0012274
0.00124373
0.00126189
0.00128203
0.00130431
0.00132897
0.00135631
0.00138674
0.0014208
0.00145917
0.00150269
0.00155238
0.00160935
0.00167477
0.00174961
0.00183442
0.00192887
0.00203124
0.00213788
0.00224284
0.00233956
0.00241217
0.0024407
0.00244412
0.00241581
0.00235874
0.00233005
0.00234845
0.00243648
0.00264274
0.00279414
0.00277374
0.00220833
0.00110068
0.000167634
0.000207242
0.00100728
0.00142456
0.00169273
0.0018873
0.00202858
0.00212229
0.00216503
0.00216989
0.00213605
0.0020671
0.00196878
0.00185277
0.00173002
0.00161018
0.00150014
0.00140373
0.00132237
0.00125606
0.00120404
0.00116506
0.00113751
0.00111944
0.00110915
0.00110435
0.00110254
0.00110221
0.00110313
0.00110491
0.00110683
0.00110866
0.00111034
0.00111194
0.00111359
0.00111543
0.00111765
0.00112042
0.00112391
0.0011283
0.00113373
0.00114036
0.00114829
0.00115765
0.00116855
0.00118109
0.00119536
0.00121144
0.00122944
0.00124947
0.00127167
0.00129623
0.00132341
0.00135355
0.00138712
0.00142474
0.00146721
0.00151553
0.00157091
0.00163471
0.00170833
0.00179294
0.00188912
0.00199628
0.00211195
0.00223113
0.00234576
0.00244901
0.00250984
0.00252848
0.00251659
0.00246157
0.00238629
0.0023559
0.00239607
0.00252902
0.00273632
0.00279446
0.00240421
0.00126542
0.000196175
0.00021499
0.00103985
0.00146074
0.00173013
0.00192384
0.00206197
0.00214802
0.00218172
0.00217816
0.00213282
0.00205163
0.00194338
0.00181963
0.00169182
0.00156949
0.00145908
0.00136391
0.001285
0.00122197
0.00117367
0.00113848
0.00111439
0.00109918
0.00109092
0.00108709
0.00108562
0.0010853
0.00108586
0.00108692
0.00108795
0.00108879
0.00108946
0.00109005
0.00109069
0.00109154
0.00109278
0.00109459
0.00109714
0.0011006
0.00110515
0.00111093
0.00111807
0.00112671
0.00113697
0.00114897
0.0011628
0.00117856
0.00119635
0.00121628
0.00123845
0.00126304
0.00129025
0.00132035
0.00135374
0.00139095
0.0014327
0.00147993
0.00153384
0.00159586
0.00166766
0.00175088
0.00184691
0.00195625
0.00207784
0.00220812
0.00234024
0.00246353
0.00256427
0.00260749
0.00261375
0.00257416
0.00248442
0.00240388
0.00238633
0.00245822
0.00265289
0.00276723
0.00256568
0.00145384
0.000230163
0.000221049
0.00106665
0.00148889
0.00175825
0.00195049
0.00208522
0.00216426
0.00219135
0.00217892
0.00212457
0.00203337
0.00191687
0.00178696
0.00165533
0.00153138
0.0014212
0.00132767
0.0012514
0.00119165
0.0011469
0.00111511
0.00109398
0.00108105
0.00107417
0.00107091
0.00106953
0.00106912
0.00106919
0.00106951
0.00106962
0.00106956
0.00106928
0.00106889
0.00106854
0.0010684
0.00106862
0.00106939
0.00107089
0.00107331
0.00107682
0.0010816
0.00108779
0.00109554
0.00110501
0.00111632
0.00112959
0.00114493
0.00116244
0.00118223
0.00120441
0.00122911
0.00125649
0.00128678
0.00132029
0.00135746
0.0013989
0.00144545
0.00149822
0.00155866
0.00162851
0.00170975
0.00180434
0.00191379
0.00203835
0.00217605
0.00232159
0.00246545
0.00259509
0.0026771
0.00270287
0.00268593
0.00260604
0.00247822
0.00241391
0.00242972
0.00256135
0.00270572
0.00265619
0.00165142
0.00026653
0.000225629
0.00108771
0.00150939
0.00177757
0.00196779
0.00209912
0.00217223
0.00219408
0.00217528
0.00211199
0.00201316
0.00189012
0.00175543
0.00162101
0.00149615
0.00138662
0.00129494
0.00122137
0.00116478
0.00112327
0.00109447
0.00107579
0.00106463
0.00105866
0.0010557
0.00105426
0.00105355
0.00105314
0.00105273
0.00105206
0.0010511
0.0010499
0.00104855
0.00104719
0.00104598
0.00104516
0.00104485
0.00104519
0.00104643
0.00104876
0.00105239
0.00105748
0.00106419
0.00107271
0.00108318
0.00109575
0.00111055
0.00112769
0.00114729
0.00116946
0.00119431
0.00122197
0.00125262
0.0012865
0.00132396
0.00136549
0.00141181
0.00146392
0.00152316
0.00159128
0.0016704
0.0017629
0.00187106
0.00199636
0.00213845
0.00229381
0.00245441
0.00260671
0.00273157
0.00278536
0.00279066
0.00272984
0.00259733
0.00246237
0.00242453
0.00249708
0.00266516
0.00269088
0.00185936
0.000305936
0.000228632
0.00110346
0.00152269
0.00178855
0.00197622
0.00210397
0.00217248
0.00219144
0.00216659
0.00209668
0.00199187
0.00186382
0.00172558
0.00158922
0.00146397
0.00135537
0.00126563
0.00119467
0.00114101
0.00110239
0.00107613
0.00105942
0.00104957
0.00104421
0.00104139
0.00103981
0.00103875
0.00103781
0.00103672
0.00103528
0.00103348
0.00103137
0.00102906
0.00102668
0.00102439
0.00102239
0.00102084
0.00102009
0.00102003
0.00102108
0.00102343
0.00102728
0.00103282
0.00104025
0.00104974
0.00106148
0.0010756
0.00109227
0.00111159
0.0011337
0.00115869
0.00118668
0.00121781
0.00125225
0.00129027
0.00133225
0.00137877
0.0014307
0.00148923
0.00155602
0.00163322
0.00172343
0.00182947
0.00195386
0.00209781
0.00225976
0.0024337
0.00260779
0.0027646
0.00285996
0.00288713
0.00285334
0.0027311
0.00254752
0.00245262
0.00246488
0.00261748
0.00269534
0.00206212
0.000345978
0.000230085
0.00111423
0.00152908
0.00179122
0.00197612
0.00210208
0.00216827
0.00218398
0.00215377
0.0020793
0.00197015
0.00183851
0.00169778
0.00156019
0.00143494
0.00132741
0.00123957
0.00117103
0.00112
0.00108387
0.00105972
0.00104457
0.00103567
0.00103072
0.00102793
0.00102615
0.00102472
0.00102326
0.0010215
0.00101933
0.00101671
0.00101371
0.00101043
0.00100701
0.00100361
0.00100042
0.000997634
0.000995464
0.000994245
0.000993971
0.00099494
0.000997452
0.00100171
0.00100794
0.00101633
0.0010271
0.00104044
0.00105649
0.00107544
0.00109739
0.00112248
0.0011508
0.00118246
0.00121758
0.00125636
0.00129908
0.00134618
0.00139837
0.0014567
0.00152266
0.00159832
0.00168635
0.00178993
0.00191235
0.00205617
0.00222176
0.00240529
0.0025968
0.00277891
0.00292025
0.00297594
0.00296956
0.0028658
0.00267177
0.00249683
0.00245691
0.00255354
0.00266334
0.00224089
0.000382904
0.000229884
0.0011202
0.00152901
0.00178859
0.00197154
0.00209506
0.0021581
0.00217123
0.00213792
0.00206047
0.00194853
0.0018146
0.00167231
0.00153407
0.00140909
0.00130266
0.00121658
0.00115021
0.00110145
0.00106742
0.00104497
0.00103101
0.0010228
0.00101811
0.00101528
0.00101327
0.00101146
0.00100948
0.0010071
0.00100421
0.0010008
0.000996925
0.000992689
0.000988228
0.000983709
0.000979322
0.000975275
0.000971791
0.000969102
0.000967596
0.00096724
0.000968337
0.000971243
0.00097618
0.000983384
0.000993083
0.0010055
0.00102083
0.00103926
0.00106095
0.00108603
0.00111462
0.0011468
0.00118267
0.00122235
0.00126601
0.001314
0.00136685
0.00142543
0.00149107
0.00156568
0.00165186
0.00175297
0.00187283
0.00201513
0.00218203
0.00237203
0.00257749
0.00278229
0.00296393
0.00305944
0.00307754
0.00300228
0.00281096
0.00257219
0.00247085
0.00251763
0.00263367
0.00238266
0.000413186
0.000228784
0.00112265
0.00152576
0.00178087
0.00196044
0.00208113
0.00214253
0.00215459
0.00211965
0.00204071
0.00192741
0.00179237
0.00164937
0.00151095
0.00138641
0.00128102
0.00119649
0.00113197
0.0010851
0.00105277
0.00103165
0.00101859
0.00101086
0.0010063
0.00100339
0.00100113
0.000998936
0.000996456
0.000993481
0.000989914
0.000985743
0.000981022
0.000975853
0.000970376
0.000964762
0.000959206
0.000953924
0.000949151
0.000945132
0.000942122
0.000940578
0.000940334
0.000941838
0.00094544
0.000951384
0.000959925
0.000971314
0.00098579
0.00100358
0.00102487
0.00104983
0.00107858
0.00111123
0.00114783
0.00118846
0.00123321
0.00128231
0.00133614
0.00139538
0.00146117
0.00153522
0.00162
0.00171886
0.00183596
0.00197583
0.0021422
0.00233592
0.00255214
0.00277737
0.00298798
0.00313103
0.00317714
0.00313351
0.00295579
0.00268151
0.00250413
0.00249485
0.00260781
0.00248054
0.000434467
0.000226392
0.00112184
0.0015176
0.00176704
0.00194336
0.00206218
0.00212289
0.00213469
0.00209945
0.00202043
0.0019071
0.00177203
0.00162907
0.00149087
0.00136685
0.00126238
0.00117912
0.00111609
0.00107071
0.00103969
0.00101958
0.00100717
0.000999746
0.000995242
0.000992197
0.000989678
0.000987115
0.000984166
0.000980633
0.000976425
0.000971533
0.00096601
0.000959958
0.000953519
0.000946867
0.000940204
0.000933753
0.000927756
0.000922465
0.000918142
0.000915137
0.000913807
0.000913937
0.000916194
0.000920846
0.000928171
0.00093845
0.000951961
0.000968968
0.000989711
0.0010144
0.00104318
0.00107618
0.00111344
0.00115502
0.00120093
0.00125128
0.00130633
0.00136658
0.00143293
0.0015069
0.00159075
0.00168773
0.00180212
0.00193905
0.00210351
0.0022985
0.00252191
0.00276283
0.00299897
0.00318985
0.0032698
0.00325845
0.00310247
0.00281672
0.00255071
0.00248684
0.00257666
0.00253437
0.000445912
0.000223188
0.00111885
0.00150497
0.00174888
0.00192187
0.00203902
0.00209979
0.00211211
0.00207777
0.00199993
0.00188778
0.0017537
0.00161147
0.00147382
0.00135037
0.00124664
0.00116433
0.00110239
0.00105811
0.00102804
0.00100862
0.000996628
0.00098938
0.000984857
0.000981655
0.000978874
0.000975957
0.00097257
0.000968522
0.000963724
0.000958168
0.000951907
0.000945043
0.000937722
0.00093012
0.000922446
0.000914929
0.000907814
0.000901362
0.000895844
0.000891539
0.000888883
0.000887962
0.000888891
0.000892253
0.000898337
0.000907448
0.000919901
0.000936005
0.000956051
0.000980295
0.00100894
0.00104214
0.00107996
0.00112241
0.00116948
0.00122118
0.00127761
0.00133912
0.0014064
0.00148071
0.00156409
0.00165961
0.00177154
0.00190532
0.00206699
0.00226145
0.00248942
0.00274307
0.00300185
0.00323331
0.00335697
0.00337474
0.00324899
0.00296371
0.00262492
0.00248724
0.00254929
0.00255929
0.000450878
0.000219093
0.00111266
0.00148915
0.00172715
0.0018967
0.00201235
0.00207377
0.00208733
0.00205494
0.00197944
0.00186959
0.00173742
0.00159656
0.00145978
0.00133691
0.0012337
0.00115199
0.00109073
0.00104714
0.00101766
0.000998657
0.000986886
0.000979689
0.000975083
0.000971703
0.000968663
0.000965416
0.00096163
0.000957117
0.000951791
0.000945643
0.000938726
0.000931144
0.000923045
0.00091461
0.000906049
0.000897595
0.000889499
0.000882022
0.000875437
0.000870024
0.000866076
0.000864129
0.000863909
0.000866024
0.000870876
0.000878794
0.000890123
0.000905219
0.000924427
0.000948064
0.000976396
0.00100962
0.00104783
0.00109105
0.00113922
0.00119228
0.00125021
0.00131317
0.00138165
0.00145668
0.00154003
0.00163452
0.00174431
0.00187498
0.00203328
0.00222575
0.00245583
0.00271926
0.00299896
0.00326154
0.00343478
0.00348316
0.00339162
0.00311462
0.00272847
0.00251037
0.00252273
0.00256772
0.000452389
0.000214221
0.00110418
0.00147072
0.00170251
0.00186852
0.00198282
0.00204535
0.00206079
0.00203124
0.0019591
0.00185256
0.00172319
0.00158431
0.0014487
0.00132641
0.00122349
0.00114202
0.00108102
0.0010377
0.00100846
0.000989603
0.000977867
0.000970608
0.000965864
0.000962285
0.000958995
0.000955446
0.000951307
0.00094639
0.000940608
0.000933952
0.000926478
0.000918289
0.000909536
0.000900401
0.000891098
0.000881861
0.000872939
0.000864595
0.000857098
0.000850724
0.000845751
0.000842647
0.000841533
0.000842477
0.000846146
0.000852878
0.00086305
0.00087706
0.000895311
0.000918186
0.000946021
0.000979076
0.0010175
0.00106134
0.00111052
0.00116491
0.00122437
0.00128892
0.00135883
0.00143488
0.00151857
0.00161246
0.00172048
0.00184822
0.00200286
0.00219223
0.00242222
0.002692
0.00298806
0.00327971
0.00350182
0.00358498
0.00352959
0.00326621
0.00285551
0.00254071
0.00250001
0.00256825
0.000452156
0.000208699
0.00109386
0.0014502
0.00167556