/*--------------------------------*- C++ -*----------------------------------*\
  =========                 |
  \\      /  F ield         | OpenFOAM: The Open Source CFD Toolbox
   \\    /   O peration     | Website:  https://openfoam.org
    \\  /    A nd           | Version:  13
     \\/     M anipulation  |
\*---------------------------------------------------------------------------*/
FoamFile
{
    format      ascii;
    class       volScalarField;
    location    "2.4";
    object      p;
}
// * * * * * * * * * * * * * * * * * * * * * * * * * * * * * * * * * * * * * //

dimensions      [0 2 -2 0 0 0 0];

internalField   nonuniform List<scalar> 
6400
(
1.09879e-08
3.51827e-06
-4.38822e-06
-2.5497e-05
-5.96508e-05
-0.000105017
-0.000159454
-0.000221229
-0.000289373
-0.000363549
-0.000443948
-0.000530993
-0.000625258
-0.000727407
-0.000838342
-0.000958695
-0.00108942
-0.00123145
-0.00138574
-0.00155324
-0.00173465
-0.00193059
-0.00214179
-0.00236972
-0.00261591
-0.00288113
-0.00316535
-0.00346686
-0.00378003
-0.0040955
-0.00440755
-0.00471207
-0.00500272
-0.00527393
-0.00552042
-0.00573737
-0.00591991
-0.00606266
-0.00615979
-0.00620501
-0.00619171
-0.00611319
-0.00596319
-0.00573654
-0.0054294
-0.00503972
-0.00456686
-0.00400758
-0.00335776
-0.00262708
-0.00182774
-0.000965219
-5.35693e-05
0.000892303
0.00185257
0.00280525
0.00372556
0.00458707
0.00536032
0.00601681
0.00653309
0.00689123
0.00708177
0.00710539
0.00697392
0.00670752
0.00634259
0.00591777
0.0054744
0.00505132
0.00467419
0.0043637
0.00413477
0.00397593
0.00387553
0.00382201
0.00380158
0.00380179
0.0038135
0.0038277
-3.21019e-06
4.18945e-08
-8.11253e-06
-2.91566e-05
-6.26247e-05
-0.000106667
-0.000159251
-0.000218962
-0.000285018
-0.000357118
-0.000435408
-0.00052023
-0.000612091
-0.000711609
-0.000819302
-0.000936079
-0.00106274
-0.00119996
-0.00134875
-0.00150999
-0.00168433
-0.00187222
-0.00207408
-0.00229057
-0.00252304
-0.00277319
-0.00304175
-0.00332887
-0.00363367
-0.00395172
-0.00427368
-0.00459084
-0.00489661
-0.00518495
-0.00545035
-0.00568701
-0.00588939
-0.00605162
-0.00616757
-0.00623093
-0.0062354
-0.00617485
-0.00604352
-0.00583618
-0.00554877
-0.00517887
-0.00472457
-0.00418418
-0.00356233
-0.00286533
-0.00209518
-0.00126254
-0.000380262
0.000536244
0.0014684
0.00239486
0.00329097
0.0041302
0.00488671
0.00553575
0.00605334
0.00642169
0.00663154
0.00668297
0.00658642
0.0063628
0.00604323
0.00566259
0.00526284
0.00487886
0.00453955
0.00426768
0.00406672
0.00393403
0.0038585
0.00382638
0.00381883
0.00382296
0.00383379
0.00384761
2.25258e-06
4.37134e-06
-5.12347e-06
-2.71547e-05
-6.06782e-05
-0.000103589
-0.000154007
-0.000210878
-0.000273741
-0.000342399
-0.00041682
-0.000497322
-0.000584246
-0.000678081
-0.000779414
-0.000888968
-0.00100759
-0.00113623
-0.00127572
-0.00142695
-0.00159107
-0.0017694
-0.00196356
-0.00217554
-0.00240737
-0.00266092
-0.00293671
-0.0032341
-0.00355078
-0.00388232
-0.00422209
-0.00456239
-0.00489551
-0.00521311
-0.00550755
-0.00577255
-0.006002
-0.00618965
-0.00632941
-0.00641506
-0.00644054
-0.00640034
-0.00628934
-0.00610284
-0.00583714
-0.00549007
-0.00506107
-0.0045518
-0.00395683
-0.00328687
-0.00254757
-0.00174712
-0.000896762
-1.07715e-05
0.00089347
0.00179597
0.0026738
0.00350141
0.00425383
0.00490731
0.00543891
0.00583073
0.00607322
0.00616557
0.00611632
0.00594437
0.00567846
0.00535254
0.00500227
0.00466423
0.00436503
0.00412434
0.00395586
0.00385356
0.00380224
0.00378822
0.00379576
0.00381108
0.00382952
0.0038481
1.96321e-05
1.92883e-05
7.27274e-06
-1.69275e-05
-5.13856e-05
-9.33808e-05
-0.000141277
-0.000194509
-0.000252957
-0.000316693
-0.000385811
-0.000460519
-0.00054111
-0.00062802
-0.000721871
-0.00082347
-0.000933824
-0.00105417
-0.00118589
-0.00133061
-0.00149029
-0.00166732
-0.00186439
-0.00208495
-0.00233206
-0.00260738
-0.00291018
-0.00323855
-0.00358899
-0.00395534
-0.00432997
-0.00470506
-0.00507233
-0.00542254
-0.00574771
-0.00604121
-0.00629646
-0.00650727
-0.0066676
-0.00677155
-0.00681362
-0.00678878
-0.0066925
-0.00652083
-0.00627076
-0.00594055
-0.00553007
-0.00503757
-0.00446511
-0.00381732
-0.00309998
-0.00232084
-0.00149001
-0.000620488
0.000271461
0.00116691
0.00204412
0.00287896
0.00364635
0.00432256
0.00488525
0.00531503
0.00560017
0.00573881
0.00573718
0.00561105
0.00538768
0.00510005
0.00478382
0.00447378
0.00419832
0.00397794
0.00382416
0.00373611
0.00370441
0.00370912
0.00373258
0.0037628
0.00379253
0.0038167
5.14976e-05
4.70827e-05
3.11189e-05
3.59483e-06
-3.23382e-05
-7.36477e-05
-0.000119202
-0.000168905
-0.000222982
-0.000281709
-0.000345344
-0.000414178
-0.000488604
-0.000569212
-0.000656858
-0.000752712
-0.000858321
-0.000975646
-0.00110705
-0.00125535
-0.00142383
-0.00161608
-0.00183534
-0.00208459
-0.00236567
-0.00267941
-0.00302455
-0.00339728
-0.00379172
-0.00419995
-0.00461364
-0.0050242
-0.00542258
-0.00580058
-0.00615113
-0.00646734
-0.00674269
-0.00697116
-0.0071468
-0.00726425
-0.00731866
-0.00730553
-0.00722096
-0.00706157
-0.00682463
-0.00650839
-0.00611271
-0.00563726
-0.00508359
-0.00445517
-0.00375697
-0.00299572
-0.00218015
-0.00132206
-0.00043662
0.000458723
0.00134381
0.00219625
0.00299081
0.00370348
0.00431196
0.00479599
0.00513899
0.00533554
0.00539135
0.0053199
0.00514402
0.00489495
0.00460871
0.00432047
0.00406033
0.0038502
0.00370272
0.00361979
0.00359297
0.00360632
0.00364118
0.00368341
0.00372251
0.00375034
9.93924e-05
8.94965e-05
6.74909e-05
3.52817e-05
-3.14525e-06
-4.41223e-05
-8.77062e-05
-0.000134292
-0.000184462
-0.000238747
-0.000297625
-0.000361603
-0.000431347
-0.000507826
-0.000592432
-0.000687068
-0.000794228
-0.00091703
-0.00105905
-0.00122445
-0.00141747
-0.00164177
-0.00189985
-0.00219363
-0.00252425
-0.00288973
-0.00328636
-0.00370798
-0.00414671
-0.00459468
-0.00504415
-0.00548632
-0.00591232
-0.0063144
-0.00668582
-0.00702019
-0.00731136
-0.00755366
-0.00774167
-0.0078702
-0.00793492
-0.00793219
-0.00785887
-0.00771212
-0.00748953
-0.00718936
-0.00681244
-0.00635787
-0.0058265
-0.00522109
-0.00454565
-0.00380555
-0.00300835
-0.00216535
-0.00128957
-0.000396068
0.00049659
0.00136779
0.0021931
0.00294905
0.00361263
0.0041625
0.00458038
0.00485524
0.00498671
0.00498812
0.00487894
0.00468601
0.00444317
0.00418613
0.0039463
0.00374766
0.00360479
0.0035218
0.00349305
0.00350549
0.00354225
0.00358713
0.00362919
0.00365739
0.000163702
0.000147177
0.000116795
7.78802e-05
3.65707e-05
-4.80429e-06
-4.69426e-05
-9.10189e-05
-0.000138081
-0.000189011
-0.000244614
-0.000305779
-0.000373673
-0.000449923
-0.000536774
-0.000637189
-0.000754919
-0.000894446
-0.0010604
-0.00125736
-0.00148973
-0.00175974
-0.0020698
-0.00242015
-0.00280871
-0.00323012
-0.00367851
-0.00414746
-0.00462878
-0.00511435
-0.00559637
-0.00606642
-0.00651649
-0.00693939
-0.00732868
-0.00767845
-0.00798309
-0.00823741
-0.00843632
-0.0085744
-0.00864848
-0.0086562
-0.00859521
-0.00846325
-0.00825875
-0.00798066
-0.00762698
-0.00719781
-0.0066944
-0.00611843
-0.00547253
-0.00476166
-0.00399295
-0.00317426
-0.00231474
-0.00142805
-0.00053162
0.000353537
0.00120734
0.00200813
0.00273265
0.00335788
0.00386454
0.00423815
0.00447174
0.00457075
0.00455152
0.00443874
0.00426104
0.00405277
0.00384613
0.00366696
0.00353226
0.00344892
0.00341454
0.00341945
0.00344962
0.00348865
0.00352574
0.00354948
0.000244231
0.000218967
0.00017849
0.000130911
8.5525e-05
4.32552e-05
1.92578e-06
-4.05368e-05
-8.57436e-05
-0.000135041
-0.000189723
-0.000251263
-0.000321575
-0.000403223
-0.000499568
-0.000614836
-0.000754145
-0.000922643
-0.00112553
-0.00136702
-0.00165063
-0.00197805
-0.00234908
-0.00276061
-0.00320763
-0.00368424
-0.00418322
-0.00469736
-0.00521855
-0.00573872
-0.00625022
-0.00674526
-0.0072165
-0.00765731
-0.00806173
-0.00842436
-0.00873992
-0.00900315
-0.00920901
-0.00935499
-0.00943916
-0.00945935
-0.00941289
-0.00929753
-0.00911207
-0.00885582
-0.00852743
-0.00812681
-0.00765514
-0.0071135
-0.00650406
-0.00583073
-0.0050985
-0.00431335
-0.00348405
-0.00262272
-0.00174126
-0.000854245
2.33841e-05
0.000867118
0.00165205
0.00235815
0.00296429
0.00345205
0.00380969
0.00403373
0.00413317
0.00412702
0.00404004
0.00390236
0.00374611
0.00359865
0.00347963
0.00339932
0.00335853
0.00335142
0.00337034
0.00339641
0.00342107
0.00343672
0.000337485
0.000303521
0.000249963
0.000191981
0.000141593
9.77425e-05
5.6326e-05
1.42129e-05
-3.09035e-05
-8.09878e-05
-0.000137999
-0.000204214
-0.000282517
-0.000376615
-0.000491113
-0.000631446
-0.000803399
-0.00101273
-0.0012638
-0.00156055
-0.00190502
-0.00229635
-0.00273064
-0.00320341
-0.00370814
-0.00423785
-0.00478475
-0.00534111
-0.0058989
-0.00645034
-0.00698812
-0.00750504
-0.00799431
-0.00844984
-0.00886615
-0.00923812
-0.00956048
-0.00982883
-0.0100412
-0.0101974
-0.0102942
-0.0103278
-0.0102958
-0.0101965
-0.0100287
-0.00979209
-0.00948717
-0.00911455
-0.00867468
-0.0081689
-0.0075994
-0.00696895
-0.00628129
-0.00554137
-0.00475598
-0.00393193
-0.00307507
-0.00219726
-0.00131651
-0.000450299
0.000385442
0.0011699
0.00187555
0.00248495
0.00298094
0.00335232
0.00359787
0.00372689
0.00375814
0.0037161
0.00363017
0.00352936
0.00343609
0.00336465
0.00332085
0.00330157
0.0033016
0.00331135
0.00331959
0.0033251
0.000440136
0.000396382
0.000327823
0.000257636
0.000201325
0.000155005
0.000112298
6.88641e-05
2.15471e-05
-3.24034e-05
-9.57969e-05
-0.000171894
-0.000264707
-0.000379142
-0.000520929
-0.000696248
-0.000911407
-0.00117151
-0.00148018
-0.00184002
-0.00224998
-0.00270637
-0.00320412
-0.00373681
-0.00429679
-0.00487625
-0.00546722
-0.00606185
-0.00665234
-0.00723126
-0.00779161
-0.00832674
-0.00883045
-0.00929718
-0.0097219
-0.0101001
-0.0104282
-0.0107038
-0.0109248
-0.0110878
-0.0111905
-0.011231
-0.0112083
-0.0111218
-0.0109713
-0.0107565
-0.0104775
-0.0101349
-0.0097295
-0.0092624
-0.0087352
-0.00814983
-0.00750877
-0.00681516
-0.00607284
-0.00528652
-0.00446492
-0.00361639
-0.00275085
-0.00187633
-0.00100831
-0.000171075
0.000621706
0.00134716
0.00198241
0.00251212
0.00292383
0.00321434
0.00339167
0.00347275
0.00348077
0.00344397
0.00338851
0.00333295
0.00328851
0.00325827
0.00324063
0.00323002
0.00322062
0.00321551
0.000547234
0.000492778
0.000406858
0.000323334
0.000260153
0.000210207
0.000164682
0.00011786
6.55738e-05
4.12571e-06
-7.02967e-05
-0.000162065
-0.00027636
-0.00041919
-0.000597059
-0.00081652
-0.00108353
-0.00140224
-0.00177502
-0.00220121
-0.00267777
-0.00319903
-0.00375819
-0.00434741
-0.00495854
-0.00558344
-0.00621406
-0.00684258
-0.00746141
-0.00806345
-0.00864208
-0.00919113
-0.00970508
-0.010179
-0.0106087
-0.0109903
-0.011321
-0.0115984
-0.0118206
-0.0119854
-0.0120913
-0.0121373
-0.0121229
-0.0120481
-0.0119128
-0.0117173
-0.0114618
-0.0111472
-0.0107742
-0.010344
-0.00985792
-0.0093174
-0.00872417
-0.00808018
-0.00738765
-0.00664949
-0.00587034
-0.00505518
-0.00421028
-0.00334558
-0.00247255
-0.00160129
-0.000745038
7.13887e-05
0.000832353
0.0015143
0.00209748
0.00256674
0.00291524
0.00314737
0.00327693
0.00332616
0.0033233
0.00329274
0.00325226
0.00321263
0.00317769
0.00314634
0.00312045
0.00310497
0.00065246
0.000586489
0.000481796
0.000383723
0.000312559
0.000257611
0.000207442
0.000154819
9.44185e-05
2.14738e-05
-6.89294e-05
-0.000182344
-0.000325091
-0.000503955
-0.000725621
-0.000996724
-0.00132217
-0.00170468
-0.00214411
-0.00263757
-0.00317965
-0.00376297
-0.00437957
-0.00502096
-0.00567861
-0.00634415
-0.00700948
-0.00766686
-0.00830895
-0.00892897
-0.00952074
-0.0100787
-0.010598
-0.0110745
-0.0115045
-0.0118851
-0.0122139
-0.012489
-0.0127092
-0.0128732
-0.01298
-0.0130294
-0.013021
-0.0129553
-0.0128324
-0.012653
-0.0124178
-0.0121276
-0.0117835
-0.0113866
-0.0109381
-0.0104392
-0.00989105
-0.00929503
-0.00865239
-0.00796473
-0.00723415
-0.00646298
-0.00565445
-0.00481365
-0.00394687
-0.00306187
-0.00217286
-0.00129022
-0.000431554
0.000379586
0.00112188
0.00177101
0.0023055
0.00271284
0.00299252
0.00315569
0.00322575
0.00323281
0.00320273
0.00315564
0.00310412
0.00305314
0.00301281
0.0029876
0.000749372
0.000670711
0.000546302
0.000432737
0.000352436
0.000290927
0.000234057
0.000172973
0.000101097
1.25277e-05
-9.88029e-05
-0.000239716
-0.000417425
-0.000638552
-0.000910382
-0.0012386
-0.00162659
-0.00207511
-0.00258147
-0.00314044
-0.00374474
-0.00438601
-0.00505542
-0.00574398
-0.00644289
-0.00714361
-0.00783804
-0.00851857
-0.00917816
-0.00981047
-0.0104099
-0.0109716
-0.0114914
-0.0119659
-0.0123921
-0.0127678
-0.0130913
-0.0133614
-0.0135772
-0.0137381
-0.0138437
-0.013894
-0.0138893
-0.01383
-0.0137169
-0.0135507
-0.0133324
-0.0130631
-0.012744
-0.0123762
-0.0119609
-0.0114992
-0.0109921
-0.0104403
-0.00984463
-0.00920554
-0.00852364
-0.00779949
-0.00703406
-0.00622907
-0.00538693
-0.00451153
-0.0036095
-0.00268928
-0.00176593
-0.000855391
1.91178e-05
0.000830984
0.00154991
0.00214604
0.00259982
0.00290675
0.00307772
0.00314073
0.00313173
0.00308121
0.00301362
0.00294418
0.00289047
0.00285584
0.000829606
0.000738291
0.0005937
0.000464032
0.00037346
0.000303724
0.000237966
0.000165663
7.89369e-05
-2.92474e-05
-0.000166226
-0.000340094
-0.000557644
-0.000826215
-0.00115269
-0.00154119
-0.00199354
-0.00250774
-0.00307886
-0.00369983
-0.00436209
-0.00505641
-0.0057733
-0.0065034
-0.00723766
-0.00796748
-0.00868484
-0.00938237
-0.0100534
-0.0106923
-0.0112941
-0.0118547
-0.0123707
-0.0128393
-0.0132584
-0.0136264
-0.0139423
-0.0142053
-0.0144149
-0.0145711
-0.0146738
-0.0147233
-0.0147203
-0.0146654
-0.0145597
-0.0144039
-0.0141995
-0.0139476
-0.0136495
-0.0133066
-0.0129199
-0.0124907
-0.0120197
-0.0115075
-0.0109545
-0.0103604
-0.00972502
-0.00904753
-0.00832718
-0.00756327
-0.00675554
-0.00590464
-0.00501252
-0.00408315
-0.00312442
-0.00214857
-0.0011752
-0.000230558
0.000652561
0.00143496
0.00207719
0.00255329
0.00285648
0.00300256
0.00303011
0.00298431
0.00290271
0.00281528
0.00274732
0.00270239
0.000886256
0.000782283
0.000617589
0.000471483
0.000369534
0.000289868
0.00021302
0.000126817
2.21044e-05
-0.000109308
-0.00027637
-0.000487006
-0.000748273
-0.0010681
-0.00145154
-0.00190167
-0.00241757
-0.00299502
-0.00362729
-0.00430578
-0.00502091
-0.00576269
-0.00652113
-0.00728656
-0.0080498
-0.00880228
-0.0095362
-0.0102446
-0.0109214
-0.0115616
-0.0121612
-0.0127167
-0.0132254
-0.0136852
-0.0140949
-0.0144534
-0.0147602
-0.0150148
-0.0152172
-0.0153676
-0.0154664
-0.0155141
-0.0155115
-0.0154594
-0.0153591
-0.0152115
-0.0150182
-0.0147805
-0.0144997
-0.0141774
-0.0138148
-0.0134131
-0.012973
-0.0124952
-0.0119797
-0.0114261
-0.0108333
-0.0102
-0.00952418
-0.00880345
-0.00803537
-0.00721789
-0.00634981
-0.00543137
-0.00446507
-0.00345738
-0.00242164
-0.00138007
-0.00036475
0.000582927
0.00141217
0.00207462
0.00253837
0.00279935
0.00288814
0.0028599
0.00276929
0.00266322
0.00257728
0.00252092
0.000912352
0.000796153
0.000612015
0.000449458
0.000335128
0.000243885
0.000153853
5.13227e-05
-7.40446e-05
-0.000232145
-0.000432472
-0.000682346
-0.000990602
-0.00136325
-0.00180438
-0.00231505
-0.00289191
-0.00352891
-0.00421769
-0.00494843
-0.00571065
-0.00649374
-0.00728734
-0.00808157
-0.00886722
-0.00963595
-0.0103803
-0.0110938
-0.0117714
-0.0124086
-0.0130022
-0.0135494
-0.0140484
-0.0144978
-0.0148968
-0.0152449
-0.0155418
-0.0157876
-0.0159825
-0.0161269
-0.0162213
-0.0162666
-0.0162635
-0.0162132
-0.0161167
-0.0159755
-0.0157909
-0.0155645
-0.0152977
-0.0149922
-0.0146493
-0.0142702
-0.013856
-0.0134072
-0.0129237
-0.0124052
-0.0118504
-0.0112574
-0.0106234
-0.00994514
-0.00921875
-0.00844008
-0.00760532
-0.00671163
-0.00575769
-0.00474505
-0.00368063
-0.00257992
-0.00146986
-0.00039036
0.000605903
0.00145529
0.00210046
0.00250897
0.00269067
0.00270025
0.0026101
0.00248496
0.00237507
0.0023069
0.000901758
0.000774185
0.000571827
0.000393143
0.000265607
0.000161288
5.62008e-05
-6.46879e-05
-0.000213128
-0.000400691
-0.000635752
-0.000927311
-0.00128366
-0.00170914
-0.00220683
-0.00277519
-0.00340923
-0.00410109
-0.00484099
-0.00561807
-0.00642112
-0.00723906
-0.00806123
-0.00887769
-0.00967939
-0.0104583
-0.0112075
-0.0119214
-0.0125956
-0.0132264
-0.0138113
-0.0143483
-0.0148363
-0.0152744
-0.0156622
-0.0159997
-0.0162869
-0.0165241
-0.0167116
-0.0168502
-0.0169403
-0.016983
-0.016979
-0.0169296
-0.016836
-0.0166995
-0.0165217
-0.0163042
-0.0160485
-0.0157563
-0.0154292
-0.0150684
-0.0146751
-0.01425
-0.0137933
-0.0133045
-0.0127823
-0.0122247
-0.0116288
-0.0109905
-0.0103051
-0.00956729
-0.0087712
-0.00791149
-0.00698394
-0.00598607
-0.00491941
-0.00379285
-0.00262586
-0.00145258
-0.000323152
0.000695886
0.0015269
0.00210814
0.00241803
0.00249445
0.00241851
0.00227635
0.00213701
0.00205701
0.000849506
0.000711814
0.000492954
0.000298819
0.000157496
3.88666e-05
-8.28073e-05
-0.000223606
-0.000397229
-0.000615436
-0.000886534
-0.00122082
-0.00162446
-0.00210163
-0.002653
-0.00327532
-0.00396184
-0.00470313
-0.00548821
-0.00630536
-0.00714278
-0.00798901
-0.00883325
-0.00966565
-0.0104775
-0.0112612
-0.0120107
-0.0127211
-0.0133887
-0.0140107
-0.0145853
-0.0151112
-0.0155876
-0.0160143
-0.0163913
-0.0167187
-0.0169967
-0.017226
-0.0174068
-0.01754
-0.0176262
-0.0176664
-0.0176614
-0.0176125
-0.0175209
-0.017388
-0.0172154
-0.0170047
-0.0167576
-0.0164757
-0.0161609
-0.0158145
-0.0154378
-0.0150316
-0.0145965
-0.014132
-0.0136372
-0.01311
-0.0125474
-0.0119454
-0.0112988
-0.0106013
-0.00984605
-0.0090257
-0.00813363
-0.00716459
-0.00611547
-0.00498911
-0.00379793
-0.00256773
-0.00134275
-0.000186684
0.000817318
0.00158367
0.00205119
0.0022252
0.00218664
0.00203395
0.00186171
0.00177002
0.000752005
0.000605849
0.000372618
0.000164025
8.61433e-06
-0.000125219
-0.000264478
-0.00042651
-0.00062656
-0.000875484
-0.00118357
-0.00155968
-0.00200905
-0.00253514
-0.00313652
-0.00380822
-0.00454187
-0.00532671
-0.00615076
-0.00700157
-0.00786689
-0.00873502
-0.00959519
-0.0104378
-0.0112546
-0.0120388
-0.0127849
-0.0134889
-0.0141478
-0.0147596
-0.0153231
-0.0158375
-0.0163027
-0.0167186
-0.0170855
-0.0174037
-0.0176736
-0.0178958
-0.0180708
-0.0181994
-0.0182822
-0.0183202
-0.0183142
-0.0182656
-0.0181754
-0.0180452
-0.0178764
-0.0176708
-0.0174301
-0.0171561
-0.0168506
-0.0165151
-0.0161511
-0.0157597
-0.0153415
-0.0148965
-0.0144239
-0.013922
-0.013388
-0.012818
-0.0122065
-0.0115473
-0.0108326
-0.010054
-0.00920279
-0.00827155
-0.0072542
-0.00614794
-0.00495868
-0.00370423
-0.0024195
-0.00116275
-1.47565e-05
0.000927027
0.0015717
0.00187899
0.00190369
0.00175132
0.00155031
0.00144571
0.000607128
0.000454681
0.000209472
-1.2311e-05
-0.000181809
-0.000331411
-0.000488839
-0.000672964
-0.000899476
-0.00117933
-0.0015237
-0.00193959
-0.00243239
-0.00300365
-0.00365058
-0.00436648
-0.00514151
-0.00596381
-0.00682053
-0.00769869
-0.00858568
-0.00946975
-0.0103403
-0.0111882
-0.0120057
-0.0127867
-0.0135267
-0.0142223
-0.0148713
-0.0154724
-0.0160248
-0.0165283
-0.0169829
-0.0173889
-0.0177468
-0.018057
-0.0183199
-0.0185361
-0.0187063
-0.0188311
-0.0189112
-0.0189474
-0.0189407
-0.0188921
-0.018803
-0.0186747
-0.0185088
-0.0183069
-0.0180709
-0.0178026
-0.0175038
-0.0171763
-0.0168218
-0.0164414
-0.0160361
-0.0156061
-0.0151511
-0.0146697
-0.0141595
-0.0136167
-0.0130365
-0.0124122
-0.0117361
-0.0109992
-0.0101915
-0.00930331
-0.00832671
-0.00725507
-0.00608767
-0.00483531
-0.00352337
-0.00220095
-0.000945682
0.000149177
0.000973941
0.00144078
0.00155378
0.00142029
0.00120545
0.001083
0.000414816
0.000257892
3.50913e-06
-0.000229961
-0.000413222
-0.000578677
-0.000754501
-0.00096095
-0.00121334
-0.00152375
-0.00190242
-0.00235564
-0.00288841
-0.00350067
-0.00418816
-0.00494271
-0.00575322
-0.00660687
-0.00749013
-0.00838959
-0.00929247
-0.0101871
-0.0110632
-0.0119121
-0.0127269
-0.0135023
-0.0142343
-0.0149204
-0.0155591
-0.0161495
-0.0166913
-0.0171846
-0.0176298
-0.0180272
-0.0183774
-0.0186808
-0.018938
-0.0191495
-0.0193158
-0.0194377
-0.0195157
-0.0195505
-0.0195433
-0.0194948
-0.0194065
-0.0192795
-0.0191156
-0.0189163
-0.0186835
-0.0184191
-0.018125
-0.0178031
-0.0174552
-0.0170827
-0.0166868
-0.0162681
-0.0158265
-0.0153612
-0.0148702
-0.0143503
-0.0137969
-0.0132038
-0.0125634
-0.0118664
-0.0111023
-0.01026
-0.00932923
-0.00830163
-0.00717096
-0.00594068
-0.00462806
-0.00327136
-0.00194425
-0.000730208
0.000256125
0.000894674
0.00112829
0.00103704
0.000824079
0.000677597
0.000176513
1.65775e-05
-0.000244079
-0.000487444
-0.000683788
-0.00086478
-0.00105886
-0.00128705
-0.00156463
-0.00190412
-0.00231445
-0.00280211
-0.00337083
-0.00401942
-0.00474222
-0.00552975
-0.00636986
-0.00724893
-0.0081529
-0.00906807
-0.00998164
-0.0108821
-0.0117598
-0.0126065
-0.0134161
-0.014184
-0.014907
-0.0155832
-0.0162116
-0.0167919
-0.017324
-0.0178083
-0.0182452
-0.0186353
-0.0189791
-0.0192771
-0.0195298
-0.0197377
-0.0199012
-0.020021
-0.0200976
-0.0201316
-0.020124
-0.0200757
-0.0199879
-0.0198619
-0.0196993
-0.0195016
-0.0192709
-0.0190089
-0.0187177
-0.0183994
-0.0180557
-0.0176885
-0.017299
-0.0168883
-0.0164567
-0.0160036
-0.0155278
-0.0150264
-0.0144956
-0.0139297
-0.0133213
-0.0126615
-0.0119395
-0.0111436
-0.0102615
-0.0092832
-0.00819962
-0.00700693
-0.00571453
-0.00435003
-0.00298284
-0.00168654
-0.000566221
0.000239635
0.00061696
0.000593616
0.00039701
0.000222002
-0.000105449
-0.000266616
-0.000530743
-0.000782043
-0.000990485
-0.00118636
-0.00139816
-0.0016471
-0.00194876
-0.00231503
-0.00275414
-0.00327266
-0.00387307
-0.0045531
-0.00530586
-0.00612077
-0.0069848
-0.00788368
-0.00880299
-0.00972885
-0.0106486
-0.011551
-0.012427
-0.013269
-0.0140717
-0.014831
-0.0155446
-0.016211
-0.0168297
-0.0174007
-0.0179242
-0.0184007
-0.0188307
-0.0192148
-0.0195536
-0.0198475
-0.0200969
-0.0203022
-0.0204639
-0.0205824
-0.0206582
-0.0206919
-0.0206842
-0.0206362
-0.0205488
-0.0204234
-0.0202615
-0.0200647
-0.019835
-0.0195742
-0.0192845
-0.018968
-0.0186267
-0.0182625
-0.0178771
-0.0174717
-0.0170469
-0.0166028
-0.0161385
-0.015652
-0.0151398
-0.014597
-0.0140169
-0.0133908
-0.0127084
-0.0119575
-0.0111251
-0.0101987
-0.00916826
-0.00802529
-0.0067708
-0.00542014
-0.00403185
-0.00269105
-0.00147084
-0.000518192
1.17658e-05
8.47274e-05
-8.18414e-05
-0.000292925
-0.000427416
-0.000587968
-0.000852866
-0.00111002
-0.00132932
-0.00153915
-0.00176777
-0.00203626
-0.00236012
-0.00275049
-0.00321533
-0.00376081
-0.00438849
-0.005095
-0.00587246
-0.00670936
-0.00759197
-0.00850551
-0.00943531
-0.0103675
-0.0112896
-0.0121909
-0.0130627
-0.0138983
-0.0146929
-0.0154433
-0.0161474
-0.0168045
-0.0174143
-0.017977
-0.0184931
-0.0189631
-0.0193875
-0.019767
-0.020102
-0.020393
-0.0206402
-0.020844
-0.0210047
-0.0211226
-0.0211982
-0.0212319
-0.0212245
-0.0211768
-0.0210898
-0.0209647
-0.0208031
-0.0206066
-0.0203771
-0.0201165
-0.0198271
-0.0195111
-0.0191706
-0.0188076
-0.0184242
-0.0180217
-0.0176013
-0.0171634
-0.0167076
-0.0162325
-0.0157353
-0.0152119
-0.0146563
-0.0140604
-0.0134143
-0.0127061
-0.0119222
-0.0110488
-0.0100743
-0.00898814
-0.00778476
-0.00647058
-0.00507582
-0.00371847
-0.0024391
-0.00137165
-0.000692247
-0.000498685
-0.000622422
-0.000877535
-0.000784646
-0.000942825
-0.00120592
-0.00146679
-0.00169548
-0.00191818
-0.00216258
-0.00244899
-0.00279263
-0.00320429
-0.00369156
-0.00426007
-0.00491054
-0.0056387
-0.00643581
-0.00728965
-0.00818591
-0.00910949
-0.0100456
-0.0109804
-0.0119017
-0.0127993
-0.0136652
-0.0144933
-0.0152794
-0.0160207
-0.0167159
-0.0173644
-0.0179663
-0.0185218
-0.0190317
-0.0194964
-0.0199165
-0.0202926
-0.020625
-0.0209142
-0.0211602
-0.0213633
-0.0215238
-0.0216419
-0.0217178
-0.021752
-0.021745
-0.0216977
-0.021611
-0.0214861
-0.0213245
-0.0211277
-0.0208977
-0.0206366
-0.0203465
-0.0200298
-0.0196887
-0.0193256
-0.0189425
-0.0185411
-0.0181231
-0.017689
-0.0172391
-0.0167725
-0.0162873
-0.0157798
-0.0152449
-0.0146756
-0.0140623
-0.0133937
-0.0126562
-0.0118354
-0.0109174
-0.00989126
-0.00874672
-0.00748309
-0.00611209
-0.00474608
-0.00344726
-0.00230088
-0.00149236
-0.00117201
-0.00124051
-0.00153909
-0.00117162
-0.00132578
-0.00158472
-0.00184733
-0.0020839
-0.00231825
-0.00257674
-0.00287898
-0.00324008
-0.00367016
-0.00417646
-0.00476406
-0.00543294
-0.00617811
-0.00699015
-0.00785628
-0.00876178
-0.00969134
-0.0106301
-0.0115644
-0.0124826
-0.0133748
-0.0142336
-0.0150536
-0.0158309
-0.0165636
-0.0172504
-0.0178912
-0.0184861
-0.0190357
-0.0195405
-0.0200011
-0.0204181
-0.0207919
-0.0211228
-0.0214111
-0.0216568
-0.0218601
-0.022021
-0.0221398
-0.0222165
-0.0222515
-0.0222453
-0.0221985
-0.0221122
-0.0219873
-0.0218254
-0.021628
-0.021397
-0.0211346
-0.020843
-0.0205246
-0.020182
-0.0198174
-0.0194333
-0.0190316
-0.0186141
-0.018182
-0.0177359
-0.0172755
-0.0167993
-0.0163048
-0.0157874
-0.015241
-0.014657
-0.0140246
-0.0133306
-0.0125604
-0.0116988
-0.0107337
-0.00965282
-0.00844969
-0.00713158
-0.00575773
-0.00446546
-0.00327929
-0.00237212
-0.00193587
-0.00194274
-0.00227434
-0.0015823
-0.00173097
-0.00198374
-0.00224603
-0.00248875
-0.00273317
-0.00300383
-0.00332003
-0.00369625
-0.00414182
-0.0046638
-0.00526665
-0.00594977
-0.00670761
-0.00753023
-0.00840447
-0.00931532
-0.0102474
-0.0111858
-0.0121173
-0.0130304
-0.013916
-0.014767
-0.0155786
-0.0163475
-0.0170719
-0.0177512
-0.0183852
-0.0189743
-0.0195189
-0.0200198
-0.0204774
-0.0208923
-0.0212648
-0.0215951
-0.0218834
-0.0221295
-0.0223336
-0.0224956
-0.0226156
-0.0226935
-0.0227297
-0.0227244
-0.0226784
-0.0225924
-0.0224675
-0.022305
-0.0221067
-0.0218743
-0.0216101
-0.0213164
-0.0209957
-0.0206505
-0.0202836
-0.0198973
-0.019494
-0.0190758
-0.0186441
-0.0182
-0.0177436
-0.0172744
-0.0167901
-0.0162873
-0.0157607
-0.0152024
-0.0146026
-0.0139488
-0.0132264
-0.0124198
-0.0115154
-0.0105011
-0.00936642
-0.00810994
-0.00674877
-0.00547481
-0.00428616
-0.00331251
-0.00277339
-0.00271894
-0.00307212
-0.00201037
-0.00215222
-0.00239676
-0.00265673
-0.00290388
-0.00315663
-0.00343787
-0.00376626
-0.00415511
-0.00461323
-0.0051476
-0.00576206
-0.00645552
-0.00722203
-0.00805133
-0.00892996
-0.00984281
-0.0107744
-0.0117101
-0.0126369
-0.0135437
-0.0144218
-0.0152647
-0.016068
-0.0168289
-0.0175459
-0.0182184
-0.0188466
-0.0194308
-0.0199716
-0.0204695
-0.0209251
-0.0213389
-0.0217109
-0.0220414
-0.0223303
-0.0225775
-0.022783
-0.0229466
-0.0230681
-0.0231477
-0.0231853
-0.0231812
-0.023136
-0.0230504
-0.0229254
-0.0227624
-0.0225629
-0.0223288
-0.0220624
-0.0217661
-0.0214424
-0.0210941
-0.0207239
-0.0203347
-0.0199288
-0.0195086
-0.0190761
-0.0186325
-0.0181787
-0.0177143
-0.0172381
-0.0167474
-0.0162374
-0.0157017
-0.0151311
-0.0145139
-0.0138362
-0.0130821
-0.0122365
-0.011288
-0.0102239
-0.00903667
-0.00772451
-0.00645474
-0.00529129
-0.00428748
-0.0036624
-0.00355047
-0.00390869
-0.00244927
-0.00258317
-0.00281765
-0.00307364
-0.00332369
-0.00358326
-0.00387346
-0.00421183
-0.00461073
-0.00507863
-0.00562227
-0.00624492
-0.00694515
-0.00771673
-0.00854921
-0.00942902
-0.010341
-0.0112698
-0.0122008
-0.0131215
-0.0140211
-0.0148914
-0.0157262
-0.0165216
-0.017275
-0.0179853
-0.0186519
-0.0192752
-0.0198554
-0.0203933
-0.0208892
-0.0213437
-0.021757
-0.0221293
-0.0224605
-0.0227507
-0.0229996
-0.023207
-0.0233725
-0.023496
-0.0235774
-0.0236167
-0.023614
-0.0235698
-0.0234847
-0.0233596
-0.0231959
-0.0229952
-0.0227592
-0.0224903
-0.022191
-0.0218639
-0.0215119
-0.0211379
-0.0207449
-0.0203357
-0.0199127
-0.0194783
-0.0190342
-0.0185815
-0.0181204
-0.0176504
-0.0171694
-0.0166736
-0.0161574
-0.0156126
-0.0150286
-0.0143919
-0.0136872
-0.0128983
-0.0120133
-0.0110185
-0.00990372
-0.00866911
-0.00739829
-0.00627057
-0.00526617
-0.00457714
-0.00441288
-0.00474143
-0.00289255
-0.00301757
-0.00324077
-0.00349143
-0.00374277
-0.00400758
-0.00430484
-0.00465096
-0.00505753
-0.00553263
-0.00608264
-0.00671036
-0.00741412
-0.00818755
-0.00902015
-0.00989837
-0.0108071
-0.0117311
-0.0126561
-0.0135697
-0.0144616
-0.0153239
-0.0161509
-0.0169388
-0.0176855
-0.0183898
-0.0190514
-0.0196706
-0.0202478
-0.0207835
-0.0212782
-0.0217322
-0.0221457
-0.0225189
-0.0228515
-0.0231434
-0.0233944
-0.0236039
-0.0237718
-0.0238976
-0.0239811
-0.0240222
-0.0240211
-0.0239779
-0.0238934
-0.0237683
-0.0236039
-0.0234018
-0.0231639
-0.0228923
-0.0225897
-0.0222588
-0.0219028
-0.0215245
-0.0211273
-0.020714
-0.0202876
-0.0198505
-0.0194049
-0.0189522
-0.0184932
-0.0180278
-0.0175546
-0.0170707
-0.0165713
-0.0160493
-0.0154949
-0.0148957
-0.0142367
-0.0135019
-0.0126779
-0.0117523
-0.010713
-0.00955652
-0.0083023
-0.00721031
-0.00622669
-0.00549345
-0.00527596
-0.00555201
-0.00333408
-0.00344965
-0.00366075
-0.0039047
-0.00415567
-0.00442402
-0.00472655
-0.0050784
-0.00549043
-0.00597032
-0.00652402
-0.00715401
-0.00785842
-0.00863084
-0.0094609
-0.0103352
-0.0112387
-0.0121564
-0.0130743
-0.0139801
-0.0148641
-0.0157185
-0.0165381
-0.0173192
-0.0180598
-0.0187589
-0.0194163
-0.0200323
-0.0206072
-0.0211415
-0.0216355
-0.0220897
-0.022504
-0.0228784
-0.0232128
-0.0235069
-0.0237601
-0.0239722
-0.0241425
-0.0242708
-0.0243566
-0.0243997
-0.0244002
-0.0243583
-0.0242744
-0.0241493
-0.0239843
-0.0237809
-0.0235409
-0.0232665
-0.0229605
-0.0226257
-0.0222653
-0.0218824
-0.0214806
-0.0210629
-0.0206324
-0.0201921
-0.0197443
-0.0192907
-0.0188328
-0.0183706
-0.0179036
-0.0174296
-0.0169446
-0.0164425
-0.0159146
-0.0153493
-0.0147324
-0.0140483
-0.0132822
-0.0124234
-0.0114593
-0.0103802
-0.00917617
-0.00810159
-0.00714847
-0.0063932
-0.00612339
-0.00634771
-0.00376814
-0.00387399
-0.00407222
-0.00430821
-0.00455738
-0.00482767
-0.00513375
-0.00548942
-0.00590485
-0.00638728
-0.00694224
-0.007572
-0.00827457
-0.00904344
-0.00986863
-0.010737
-0.0116337
-0.0125439
-0.0134539
-0.0143517
-0.0152277
-0.0160746
-0.0168871
-0.017662
-0.0183973
-0.019092
-0.019746
-0.0203594
-0.0209327
-0.0214661
-0.0219601
-0.0224149
-0.0228304
-0.0232065
-0.0235429
-0.0238393
-0.0240951
-0.0243098
-0.0244828
-0.0246136
-0.0247018
-0.0247471
-0.0247493
-0.0247086
-0.0246255
-0.0245005
-0.024335
-0.0241302
-0.0238881
-0.023611
-0.0233016
-0.0229627
-0.0225978
-0.0222102
-0.0218034
-0.0213809
-0.0209461
-0.0205021
-0.0200515
-0.0195965
-0.0191386
-0.0186788
-0.0182166
-0.0177507
-0.017278
-0.0167933
-0.0162888
-0.015754
-0.0151756
-0.0145383
-0.0138265
-0.0130301