/*--------------------------------*- C++ -*----------------------------------*\
  =========                 |
  \\      /  F ield         | OpenFOAM: The Open Source CFD Toolbox
   \\    /   O peration     | Website:  https://openfoam.org
    \\  /    A nd           | Version:  13
     \\/     M anipulation  |
\*---------------------------------------------------------------------------*/
FoamFile
{
    format      ascii;
    class       surfaceScalarField;
    location    "2.4";
    object      phi;
}
// * * * * * * * * * * * * * * * * * * * * * * * * * * * * * * * * * * * * * //

dimensions      [0 3 -1 0 0 0 0];

internalField   nonuniform List<scalar> 
12640
(
4.00745e-09
-4.00766e-09
1.29743e-08
-8.96682e-09
2.39118e-08
-1.09375e-08
3.44568e-08
-1.05451e-08
4.32708e-08
-8.81402e-09
5.00074e-08
-6.73654e-09
5.49193e-08
-4.91191e-09
5.84537e-08
-3.53442e-09
6.10222e-08
-2.56852e-09
6.2929e-08
-1.90686e-09
6.43267e-08
-1.39762e-09
6.5273e-08
-9.46389e-10
6.57567e-08
-4.83687e-10
6.57445e-08
1.22523e-11
6.50987e-08
6.45757e-10
6.37182e-08
1.38046e-09
6.14377e-08
2.28054e-09
5.80749e-08
3.36275e-09
5.33357e-08
4.73919e-09
4.68672e-08
6.46856e-09
3.82957e-08
8.57147e-09
2.728e-08
1.10157e-08
1.35998e-08
1.36802e-08
-2.83142e-09
1.64312e-08
-2.22047e-08
1.93733e-08
-4.49888e-08
2.27841e-08
-7.18094e-08
2.68206e-08
-1.03462e-07
3.16523e-08
-1.40994e-07
3.75322e-08
-1.85497e-07
4.45028e-08
-2.37387e-07
5.18904e-08
-2.96291e-07
5.89037e-08
-3.61516e-07
6.52254e-08
-4.32058e-07
7.05416e-08
-5.06539e-07
7.44814e-08
-5.83435e-07
7.68959e-08
-6.61185e-07
7.77498e-08
-7.38244e-07
7.70596e-08
-8.1318e-07
7.4936e-08
-8.84714e-07
7.15334e-08
-9.51736e-07
6.70224e-08
-1.01328e-06
6.15406e-08
-1.06849e-06
5.52089e-08
-1.11661e-06
4.81262e-08
-1.15697e-06
4.0362e-08
-1.18893e-06
3.19582e-08
-1.21186e-06
2.29242e-08
-1.22537e-06
1.35124e-08
-1.2298e-06
4.43132e-09
-1.22349e-06
-6.31113e-09
-1.20674e-06
-1.6744e-08
-1.17889e-06
-2.78539e-08
-1.1398e-06
-3.90957e-08
-1.08935e-06
-5.04459e-08
-1.02769e-06
-6.16558e-08
-9.55219e-07
-7.24746e-08
-8.72666e-07
-8.25526e-08
-7.80956e-07
-9.17108e-08
-6.81109e-07
-9.98466e-08
-5.74623e-07
-1.06485e-07
-4.63488e-07
-1.11136e-07
-3.5018e-07
-1.13308e-07
-2.37566e-07
-1.12614e-07
-1.2887e-07
-1.08696e-07
-2.75483e-08
-1.01322e-07
6.31821e-08
-9.07304e-08
1.39904e-07
-7.67219e-08
1.99422e-07
-5.95183e-08
2.39505e-07
-4.00823e-08
2.58924e-07
-1.94199e-08
2.58296e-07
6.28688e-10
2.39039e-07
1.92572e-08
2.05035e-07
3.4004e-08
1.61877e-07
4.31578e-08
1.17044e-07
4.48327e-08
7.60247e-08
4.10195e-08
4.24451e-08
3.35796e-08
1.80428e-08
2.44023e-08
3.89412e-09
1.41487e-08
3.89412e-09
8.74475e-09
-1.27524e-08
2.5394e-08
-2.5616e-08
4.32448e-08
-2.87884e-08
5.86272e-08
-2.59274e-08
7.01474e-08
-2.03342e-08
7.77178e-08
-1.4307e-08
8.18066e-08
-9.00069e-09
8.30475e-08
-4.77535e-09
8.2e-08
-1.52097e-09
7.90128e-08
1.08032e-09
7.42445e-08
3.37064e-09
6.77224e-08
5.57573e-09
5.93408e-08
7.89794e-09
4.88641e-08
1.04889e-08
3.60241e-08
1.34858e-08
2.04125e-08
1.6992e-08
1.54186e-09
2.11512e-08
-2.12515e-08
2.61561e-08
-4.86261e-08
3.21138e-08
-8.13039e-08
3.91463e-08
-1.20095e-07
4.73623e-08
-1.65858e-07
5.67789e-08
-2.19469e-07
6.72915e-08
-2.81761e-07
7.87234e-08
-3.5331e-07
9.09217e-08
-4.34272e-07
1.03746e-07
-5.24332e-07
1.16881e-07
-6.22607e-07
1.29927e-07
-7.27377e-07
1.42302e-07
-8.36169e-07
1.53294e-07
-9.4674e-07
1.62462e-07
-1.0574e-06
1.69564e-07
-1.16635e-06
1.74175e-07
-1.27196e-06
1.76146e-07
-1.37275e-06
1.75274e-07
-1.46751e-06
1.71661e-07
-1.5553e-06
1.65535e-07
-1.63536e-06
1.57127e-07
-1.70715e-06
1.46718e-07
-1.7702e-06
1.34587e-07
-1.82418e-06
1.21003e-07
-1.8688e-06
1.06163e-07
-1.90384e-06
9.02417e-08
-1.9291e-06
7.33957e-08
-1.94447e-06
5.57278e-08
-1.94981e-06
3.73024e-08
-1.94506e-06
1.81655e-08
-1.92954e-06
-2.00463e-09
-1.90336e-06
-2.1752e-08
-1.86677e-06
-4.28981e-08
-1.81905e-06
-6.4466e-08
-1.76045e-06
-8.64547e-08
-1.69084e-06
-1.08704e-07
-1.61029e-06
-1.30996e-07
-1.51891e-06
-1.53037e-07
-1.41696e-06
-1.74423e-07
-1.30482e-06
-1.9469e-07
-1.18319e-06
-2.13346e-07
-1.05341e-06
-2.29624e-07
-9.17043e-07
-2.4285e-07
-7.75932e-07
-2.52247e-07
-6.32349e-07
-2.56891e-07
-4.88854e-07
-2.56109e-07
-3.48209e-07
-2.49341e-07
-2.13432e-07
-2.36098e-07
-8.80246e-08
-2.16138e-07
2.48677e-08
-1.89614e-07
1.2252e-07
-1.5717e-07
2.01951e-07
-1.19514e-07
2.60932e-07
-7.84002e-08
2.97474e-07
-3.59135e-08
3.11672e-07
5.05889e-09
3.02949e-07
4.27269e-08
2.73835e-07
7.22723e-08
2.27078e-07
9.1589e-08
1.69457e-07
9.8641e-08
1.09728e-07
9.33081e-08
5.6566e-08
7.75645e-08
1.76359e-08
5.30788e-08
2.153e-08
1.11965e-08
-2.39489e-08
2.9503e-08
-4.39226e-08
4.58266e-08
-4.5112e-08
5.73295e-08
-3.74304e-08
6.39467e-08
-2.69515e-08
6.62723e-08
-1.66325e-08
6.49499e-08
-7.67831e-09
6.04997e-08
-3.25178e-10
5.32353e-08
5.74341e-09
4.33026e-08
1.10131e-08
3.06531e-08
1.60201e-08
1.50334e-08
2.11954e-08
-3.94653e-09
2.68779e-08
-2.6784e-08
3.33264e-08
-5.40596e-08
4.07614e-08
-8.64673e-08
4.93997e-08
-1.24781e-07
5.94646e-08
-1.69799e-07
7.11741e-08
-2.22386e-07
8.47009e-08
-2.83405e-07
1.00165e-07
-3.53573e-07
1.1753e-07
-4.33363e-07
1.36569e-07
-5.22906e-07
1.56834e-07
-6.21912e-07
1.77729e-07
-7.29458e-07
1.98468e-07
-8.43996e-07
2.18285e-07
-9.63408e-07
2.36293e-07
-1.08528e-06
2.51801e-07
-1.20725e-06
2.64275e-07
-1.32717e-06
2.73214e-07
-1.44316e-06
2.78449e-07
-1.55355e-06
2.79956e-07
-1.657e-06
2.77621e-07
-1.75253e-06
2.71675e-07
-1.83969e-06
2.62434e-07
-1.91824e-06
2.50211e-07
-1.98806e-06
2.35361e-07
-2.04915e-06
2.18211e-07
-2.10151e-06
1.99076e-07
-2.14518e-06
1.78255e-07
-2.18019e-06
1.56021e-07
-2.2066e-06
1.32569e-07
-2.22441e-06
1.08052e-07
-2.23359e-06
8.25768e-08
-2.23406e-06
5.6196e-08
-2.22572e-06
2.89673e-08
-2.20828e-06
7.2544e-10
-2.18218e-06
-2.81097e-08
-2.14618e-06
-5.77541e-08
-2.10076e-06
-8.83166e-08
-2.04562e-06
-1.19604e-07
-1.98055e-06
-1.51522e-07
-1.9054e-06
-1.83855e-07
-1.82009e-06
-2.16306e-07
-1.72466e-06
-2.48466e-07
-1.61928e-06
-2.79806e-07
-1.5043e-06
-3.09673e-07
-1.38037e-06
-3.37268e-07
-1.24843e-06
-3.61572e-07
-1.10973e-06
-3.81552e-07
-9.65922e-07
-3.9605e-07
-8.19025e-07
-4.03789e-07
-6.71425e-07
-4.03709e-07
-5.25748e-07
-3.95018e-07
-3.8465e-07
-3.77196e-07
-2.51053e-07
-3.49736e-07
-1.27927e-07
-3.12741e-07
-1.81584e-08
-2.66939e-07
7.60457e-08
-2.13718e-07
1.52553e-07
-1.54907e-07
2.09837e-07
-9.3198e-08
2.46603e-07
-3.17076e-08
2.62661e-07
2.66697e-08
2.57331e-07
7.76016e-08
2.32167e-07
1.16753e-07
1.90314e-07
1.40494e-07
1.36635e-07
1.46987e-07
7.89823e-08
1.35217e-07
2.78645e-08
1.04197e-07
4.93945e-08
1.16848e-08
-3.56336e-08
2.75591e-08
-5.97969e-08
3.85371e-08
-5.609e-08
4.36403e-08
-4.25335e-08
4.3871e-08
-2.71822e-08
4.00719e-08
-1.28335e-08
3.27312e-08
-3.37544e-10
2.20641e-08
1.03419e-08
8.08924e-09
1.97182e-08
-9.36683e-09
2.84691e-08
-3.06247e-08
3.72779e-08
-5.61541e-08
4.67248e-08
-8.65478e-08
5.72716e-08
-1.22505e-07
6.92837e-08
-1.64815e-07
8.30717e-08
-2.14333e-07
9.89168e-08
-2.71931e-07
1.17063e-07
-3.38434e-07
1.37678e-07
-4.14526e-07
1.60793e-07
-5.00602e-07
1.86241e-07
-5.96641e-07
2.13569e-07
-7.02102e-07
2.42031e-07
-8.15818e-07
2.7055e-07
-9.36069e-07
2.9798e-07
-1.06065e-06
3.2305e-07
-1.18716e-06
3.44797e-07
-1.31319e-06
3.62316e-07
-1.43651e-06
3.75123e-07
-1.55516e-06
3.8293e-07
-1.66749e-06
3.85538e-07
-1.7723e-06
3.83258e-07
-1.86886e-06
3.76519e-07
-1.95691e-06
3.65675e-07
-2.03644e-06
3.51198e-07
-2.10752e-06
3.33514e-07
-2.17033e-06
3.13023e-07
-2.22512e-06
2.90148e-07
-2.27209e-06
2.65186e-07
-2.31145e-06
2.38436e-07
-2.34336e-06
2.10166e-07
-2.36793e-06
1.8059e-07
-2.38522e-06
1.49859e-07
-2.39523e-06
1.18064e-07
-2.39791e-06
8.525e-08
-2.39312e-06
5.1412e-08
-2.3807e-06
1.65433e-08
-2.36059e-06
-1.93831e-08
-2.33242e-06
-5.62821e-08
-2.29592e-06
-9.42546e-08
-2.25092e-06
-1.33315e-07
-2.19716e-06
-1.73362e-07
-2.13437e-06
-2.14314e-07
-2.06227e-06
-2.55956e-07
-1.98062e-06
-2.97958e-07
-1.88929e-06
-3.39795e-07
-1.78825e-06
-3.80844e-07
-1.67762e-06
-4.20303e-07
-1.55773e-06
-4.57159e-07
-1.42918e-06
-4.90121e-07
-1.29295e-06
-5.17783e-07
-1.15039e-06
-5.38607e-07
-1.00317e-06
-5.51014e-07
-8.53454e-07
-5.53421e-07
-7.04043e-07
-5.44429e-07
-5.57807e-07
-5.23431e-07
-4.17533e-07
-4.9001e-07
-2.86044e-07
-4.4423e-07
-1.66246e-07
-3.86736e-07
-6.07589e-08
-3.19205e-07
2.84056e-08
-2.44072e-07
9.96752e-08
-1.64468e-07
1.51914e-07
-8.39459e-08
1.8501e-07
-6.42728e-09
1.98653e-07
6.39593e-08
1.9301e-07
1.22396e-07
1.69074e-07
1.6443e-07
1.30066e-07
1.85995e-07
8.08812e-08
1.84402e-07
3.04678e-08
1.5461e-07
7.98623e-08
1.05575e-08
-4.61911e-08
2.13143e-08
-7.05537e-08
2.53564e-08
-6.01321e-08
2.35445e-08
-4.07217e-08
1.7168e-08
-2.08058e-08
6.95182e-09
-2.61723e-09
-6.86123e-09
1.34755e-08
-2.43392e-08
2.78199e-08
-4.57507e-08
4.11297e-08
-7.15274e-08
5.42459e-08
-1.02227e-07
6.79772e-08
-1.38515e-07
8.30132e-08
-1.8115e-07
9.99063e-08
-2.30956e-07
1.1909e-07
-2.88787e-07
1.40903e-07
-3.55465e-07
1.65595e-07
-4.31687e-07
1.93285e-07
-5.17898e-07
2.23889e-07
-6.14144e-07
2.57039e-07
-7.19945e-07
2.92042e-07
-8.34196e-07
3.2782e-07
-9.55199e-07
3.63034e-07
-1.08074e-06
3.96091e-07
-1.20842e-06
4.25665e-07
-1.33587e-06
4.50496e-07
-1.4608e-06
4.69723e-07
-1.58111e-06
4.82628e-07
-1.69501e-06
4.8902e-07
-1.80139e-06
4.89318e-07
-1.8998e-06
4.83942e-07
-1.99e-06
4.73456e-07
-2.07201e-06
4.58531e-07
-2.14608e-06
4.39747e-07
-2.21249e-06
4.17611e-07
-2.27153e-06
3.92551e-07
-2.32348e-06
3.64977e-07
-2.36862e-06
3.35282e-07
-2.40718e-06
3.03745e-07
-2.43936e-06
2.70614e-07
-2.46528e-06
2.36087e-07
-2.48502e-06
2.00337e-07
-2.49863e-06
1.63462e-07
-2.50607e-06
1.25506e-07
-2.50728e-06
8.64597e-08
-2.50213e-06
4.6268e-08
-2.49044e-06
4.84798e-09
-2.47203e-06
-3.77919e-08
-2.4466e-06
-8.17104e-08
-2.41388e-06
-1.26977e-07
-2.37359e-06
-1.73604e-07
-2.32542e-06
-2.21529e-07
-2.26904e-06
-2.70694e-07
-2.20407e-06
-3.20925e-07
-2.1301e-06
-3.71934e-07
-2.04679e-06
-4.231e-07
-1.9539e-06
-4.73735e-07
-1.85129e-06
-5.22912e-07
-1.7389e-06
-5.69551e-07
-1.61698e-06
-6.12044e-07
-1.48601e-06
-6.48745e-07
-1.34696e-06
-6.77662e-07
-1.20116e-06
-6.96813e-07
-1.05036e-06
-7.04221e-07
-8.96975e-07
-6.97813e-07
-7.44331e-07
-6.76076e-07
-5.95781e-07
-6.38559e-07
-4.54284e-07
-5.85728e-07
-3.22887e-07
-5.18133e-07
-2.04549e-07
-4.37543e-07
-1.01775e-07
-3.46845e-07
-1.64892e-08
-2.49754e-07
5.01416e-08
-1.50577e-07
9.76156e-08
-5.39013e-08
1.26144e-07
3.54307e-08
1.3612e-07
1.12421e-07
1.28467e-07
1.72083e-07
1.04831e-07
2.0963e-07
6.8492e-08
2.20741e-07
2.65737e-08
1.96528e-07
1.06436e-07
8.01547e-09
-5.42066e-08
1.21811e-08
-7.47194e-08
8.68567e-09
-5.66366e-08
-2.88373e-10
-3.17476e-08
-1.3474e-08
-7.62015e-09
-3.04552e-08
1.43639e-08
-5.12397e-08
3.426e-08
-7.61368e-08
5.27171e-08
-1.05653e-07
7.06455e-08
-1.40428e-07
8.90208e-08
-1.81196e-07
1.08745e-07
-2.28755e-07
1.30573e-07
-2.83937e-07
1.55088e-07
-3.47559e-07
1.82711e-07
-4.20352e-07
2.13696e-07
-5.0286e-07
2.48103e-07
-5.95306e-07
2.85731e-07
-6.97459e-07
3.26041e-07
-8.08483e-07
3.68063e-07
-9.26941e-07
4.10499e-07
-1.05082e-06
4.51699e-07
-1.17777e-06
4.89984e-07
-1.30541e-06
5.23729e-07
-1.4313e-06
5.51556e-07
-1.55312e-06
5.72313e-07
-1.66887e-06
5.85478e-07
-1.77745e-06
5.91211e-07
-1.8783e-06
5.89866e-07
-1.97125e-06
5.82264e-07
-2.05643e-06
5.6913e-07
-2.13409e-06
5.51107e-07
-2.2045e-06
5.28949e-07
-2.26803e-06
5.03271e-07
-2.32497e-06
4.74554e-07
-2.37565e-06
4.4323e-07
-2.42035e-06
4.09678e-07
-2.4593e-06
3.74235e-07
-2.49273e-06
3.37166e-07
-2.52077e-06
2.98657e-07
-2.54349e-06
2.58809e-07
-2.56095e-06
2.17796e-07
-2.57318e-06
1.75695e-07
-2.58019e-06
1.32514e-07
-2.58194e-06
8.82103e-08
-2.57839e-06
4.27129e-08
-2.56934e-06
-4.19874e-09
-2.55467e-06
-5.24583e-08
-2.53399e-06
-1.02395e-07
-2.50699e-06
-1.53975e-07
-2.47334e-06
-2.0725e-07
-2.43269e-06
-2.62184e-07
-2.38464e-06
-3.18743e-07
-2.32885e-06
-3.76712e-07
-2.26487e-06
-4.35913e-07
-2.19204e-06
-4.9594e-07
-2.1098e-06
-5.55974e-07
-2.01783e-06
-6.14877e-07
-1.91566e-06
-6.71724e-07
-1.80313e-06
-7.24571e-07
-1.68031e-06
-7.71569e-07
-1.54749e-06
-8.10479e-07
-1.40556e-06
-8.38745e-07
-1.25604e-06
-8.53739e-07
-1.10078e-06
-8.53077e-07
-9.42512e-07
-8.3434e-07
-7.84916e-07
-7.96155e-07
-6.32092e-07
-7.38553e-07
-4.87492e-07
-6.62733e-07
-3.54431e-07
-5.70603e-07
-2.36065e-07
-4.65212e-07
-1.34942e-07
-3.50877e-07
-5.27889e-08
-2.3273e-07
9.63592e-09
-1.16326e-07
5.2426e-08
-7.35937e-09
7.63097e-08
8.85372e-08
8.24663e-08
1.65927e-07
7.25194e-08
2.19577e-07
4.94935e-08
2.43767e-07
1.94919e-08
2.2653e-07
1.25928e-07
4.441e-09
-5.86476e-08
1.00023e-09
-7.12786e-08
-1.00868e-08
-4.55496e-08
-2.62705e-08
-1.55639e-08
-4.65037e-08
1.2613e-08
-7.05672e-08
3.84275e-08
-9.87138e-08
6.24065e-08
-1.31464e-07
8.54672e-08
-1.69506e-07
1.08687e-07
-2.13627e-07
1.33142e-07
-2.64664e-07
1.59781e-07
-3.2345e-07
1.89359e-07
-3.90768e-07
2.22406e-07
-4.67269e-07
2.59211e-07
-5.53368e-07
2.99796e-07
-6.49123e-07
3.43858e-07
-7.541e-07
3.90707e-07
-8.67286e-07
4.39227e-07
-9.87072e-07
4.87849e-07
-1.11132e-06
5.3475e-07
-1.23772e-06
5.78099e-07
-1.36374e-06
6.16004e-07
-1.48692e-06
6.46904e-07
-1.60489e-06
6.69532e-07
-1.71616e-06
6.83581e-07
-1.81995e-06
6.89261e-07
-1.91604e-06
6.87301e-07
-2.0046e-06
6.78427e-07
-2.08586e-06
6.6353e-07
-2.16015e-06
6.43416e-07
-2.22783e-06
6.18786e-07
-2.28924e-06
5.90365e-07
-2.3447e-06
5.58732e-07
-2.39449e-06
5.24339e-07
-2.43885e-06
4.87597e-07
-2.47804e-06
4.48865e-07
-2.51224e-06
4.08438e-07
-2.54164e-06
3.66564e-07
-2.56641e-06
3.23427e-07
-2.58656e-06
2.78953e-07
-2.60213e-06
2.33371e-07
-2.6132e-06
1.86767e-07
-2.6198e-06
1.39113e-07
-2.6219e-06
9.03107e-08
-2.61945e-06
4.02614e-08
-2.61246e-06
-1.11917e-08
-2.60087e-06
-6.40484e-08
-2.58464e-06
-1.18624e-07
-2.56355e-06
-1.75064e-07
-2.53727e-06
-2.33527e-07
-2.50536e-06
-2.94097e-07
-2.46729e-06
-3.56807e-07
-2.42238e-06
-4.21628e-07
-2.37002e-06
-4.88274e-07
-2.30953e-06
-5.56425e-07
-2.24005e-06
-6.25454e-07
-2.16113e-06
-6.93798e-07
-2.07226e-06
-7.606e-07
-1.97243e-06
-8.24394e-07
-1.86126e-06
-8.82741e-07
-1.73847e-06
-9.33266e-07
-1.60428e-06
-9.72943e-07
-1.45944e-06
-9.98577e-07
-1.30547e-06
-1.00704e-06
-1.14468e-06
-9.9513e-07
-9.80083e-07
-9.60754e-07
-8.16257e-07
-9.02379e-07
-6.57844e-07
-8.21146e-07
-5.08937e-07
-7.19511e-07
-3.73317e-07
-6.00831e-07
-2.54424e-07
-4.6977e-07
-1.54818e-07
-3.32335e-07
-7.59446e-08
-1.952e-07
-1.80676e-08
-6.52364e-08
1.95341e-08
5.09355e-08
3.83847e-08
1.47076e-07
4.0819e-08
2.17143e-07
2.98523e-08
2.54734e-07
1.15809e-08
2.44801e-07
1.37509e-07
-1.50103e-10
-5.84975e-08
-1.12113e-08
-6.02174e-08
-2.99895e-08
-2.67714e-08
-5.34519e-08
7.89843e-09
-8.08185e-08
3.99796e-08
-1.12131e-07
6.97397e-08
-1.47836e-07
9.81121e-08
-1.88617e-07
1.26248e-07
-2.35284e-07
1.55354e-07
-2.887e-07
1.86558e-07
-3.49711e-07
2.20793e-07
-4.19084e-07
2.58732e-07
-4.97421e-07
3.00743e-07
-5.85064e-07
3.46855e-07
-6.81975e-07
3.96707e-07
-7.87616e-07
4.49499e-07
-9.00905e-07
5.03997e-07
-1.0202e-06
5.58522e-07
-1.14339e-06
6.1104e-07
-1.26806e-06
6.59419e-07
-1.39167e-06
7.01713e-07
-1.51162e-06
7.35946e-07
-1.62575e-06
7.61034e-07
-1.73287e-06
7.76654e-07
-1.83254e-06
7.83254e-07
-1.92478e-06
7.81501e-07
-2.00978e-06
7.72306e-07
-2.08791e-06
7.56549e-07
-2.15949e-06
7.3511e-07
-2.22487e-06
7.088e-07
-2.2844e-06
6.78319e-07
-2.33836e-06
6.44321e-07
-2.38697e-06
6.07343e-07
-2.43047e-06
5.67832e-07
-2.46905e-06
5.26181e-07
-2.50291e-06
4.82722e-07
-2.53219e-06
4.37722e-07
-2.55699e-06
3.91363e-07
-2.57751e-06
3.43947e-07
-2.59418e-06
2.95626e-07
-2.60717e-06
2.46356e-07
-2.61644e-06
1.96038e-07
-2.62195e-06
1.44621e-07
-2.62368e-06
9.20478e-08
-2.62161e-06
3.81839e-08
-2.61573e-06
-1.70696e-08
-2.60609e-06
-7.36886e-08
-2.59269e-06
-1.32024e-07
-2.57546e-06
-1.92294e-07
-2.55428e-06
-2.54701e-07
-2.52892e-06
-3.1946e-07
-2.49907e-06
-3.86657e-07
-2.46437e-06
-4.56334e-07
-2.42428e-06
-5.28365e-07
-2.37815e-06
-6.02555e-07
-2.32497e-06
-6.78626e-07
-2.2628e-06
-7.55967e-07
-2.19052e-06
-8.32879e-07
-2.10708e-06
-9.0784e-07
-2.01176e-06
-9.78058e-07
-1.90398e-06
-1.04105e-06
-1.78278e-06
-1.09413e-06
-1.64817e-06
-1.13319e-06
-1.50075e-06
-1.15447e-06
-1.34205e-06
-1.15383e-06
-1.17476e-06
-1.12804e-06
-1.00279e-06
-1.07435e-06
-8.31543e-07
-9.92397e-07
-6.66645e-07
-8.84409e-07
-5.12962e-07
-7.54514e-07
-3.74781e-07
-6.07951e-07
-2.55806e-07
-4.51311e-07
-1.58521e-07
-2.92484e-07
-8.3958e-08
-1.398e-07
-3.17781e-08
-1.24447e-09
3.03962e-11
1.15267e-07
1.36405e-08
2.03533e-07
1.35144e-08
2.5486e-07
5.28674e-09
2.53029e-07
1.42796e-07
-5.15819e-09
-5.33393e-08
-2.41038e-08
-4.12718e-08
-5.04023e-08
-4.72847e-10
-8.10163e-08
3.85124e-08
-1.15482e-07
7.44451e-08
-1.54028e-07
1.08286e-07
-1.97258e-07
1.41342e-07
-2.45962e-07
1.74952e-07
-3.01009e-07
2.10402e-07
-3.63261e-07
2.48809e-07
-4.33485e-07
2.91017e-07
-5.12275e-07
3.37522e-07
-5.99952e-07
3.8842e-07
-6.96454e-07
4.43357e-07
-8.0123e-07
5.01482e-07
-9.13241e-07
5.6151e-07
-1.03089e-06
6.2165e-07
-1.15204e-06
6.79669e-07
-1.27426e-06
7.33263e-07
-1.39501e-06
7.80169e-07
-1.51159e-06
8.18288e-07
-1.62216e-06
8.46516e-07
-1.72575e-06
8.64622e-07
-1.82209e-06
8.72992e-07
-1.9112e-06
8.72369e-07
-1.99335e-06
8.63647e-07
-2.06884e-06
8.47798e-07
-2.13802e-06
8.25735e-07
-2.20124e-06
7.98321e-07
-2.25876e-06
7.66326e-07
-2.31087e-06
7.30424e-07
-2.35777e-06
6.91223e-07
-2.39967e-06
6.49245e-07
-2.43678e-06
6.04938e-07
-2.46928e-06
5.58686e-07
-2.49739e-06
5.10829e-07
-2.52137e-06
4.61703e-07
-2.54155e-06
4.11539e-07
-2.55797e-06
3.60367e-07
-2.5707e-06
3.08364e-07
-2.57982e-06
2.55473e-07
-2.58548e-06
2.01693e-07
-2.58786e-06
1.4701e-07
-2.58719e-06
9.13762e-08
-2.58369e-06
3.46846e-08
-2.57755e-06
-2.32125e-08
-2.56876e-06
-8.24825e-08
-2.5573e-06
-1.43479e-07
-2.54318e-06
-2.06417e-07
-2.52632e-06
-2.7156e-07
-2.50661e-06
-3.39172e-07
-2.48381e-06
-4.09456e-07
-2.45758e-06
-4.82564e-07
-2.42739e-06
-5.58553e-07
-2.3926e-06
-6.37345e-07
-2.3527e-06
-7.18522e-07
-2.30681e-06
-8.01862e-07
-2.25356e-06
-8.86128e-07
-2.19119e-06
-9.70207e-07
-2.11703e-06
-1.05222e-06
-2.02921e-06
-1.12887e-06
-1.92663e-06
-1.19671e-06
-1.80874e-06
-1.25108e-06
-1.67467e-06
-1.28853e-06
-1.52497e-06
-1.30353e-06
-1.36137e-06
-1.29165e-06
-1.18683e-06
-1.24888e-06
-1.0064e-06
-1.17282e-06
-8.26848e-07
-1.06396e-06
-6.55099e-07
-9.26262e-07
-4.96881e-07
-7.6617e-07
-3.56976e-07
-5.91215e-07
-2.39276e-07
-4.10184e-07
-1.46044e-07
-2.33032e-07
-7.7516e-08
-6.97729e-08
-3.24673e-08
7.02188e-08
-7.50771e-09
1.78573e-07
2.07401e-09
2.45278e-07
1.67198e-09
2.53431e-07
1.44468e-07
-1.06712e-08
-4.26681e-08
-3.72603e-08
-1.46828e-08
-7.06616e-08
3.29285e-08
-1.08263e-07
7.61134e-08
-1.4964e-07
1.15823e-07
-1.95214e-07
1.53859e-07
-2.45698e-07
1.91826e-07
-3.0194e-07
2.31193e-07
-3.64802e-07
2.73264e-07
-4.35071e-07
3.19078e-07
-5.13359e-07
3.69305e-07
-6.00011e-07
4.24175e-07
-6.95004e-07
4.83413e-07
-7.97843e-07
5.46196e-07
-9.07596e-07
6.11235e-07
-1.02276e-06
6.76672e-07
-1.1412e-06
7.40092e-07
-1.26053e-06
7.99003e-07
-1.37817e-06
8.50898e-07
-1.49158e-06
8.93577e-07
-1.59904e-06
9.25752e-07
-1.69975e-06
9.47227e-07
-1.79337e-06
9.58244e-07
-1.87993e-06
9.59548e-07
-1.95963e-06
9.52068e-07
-2.03278e-06
9.36803e-07
-2.09971e-06
9.14721e-07
-2.16069e-06
8.86719e-07
-2.216e-06
8.53628e-07
-2.26586e-06
8.16187e-07
-2.31049e-06
7.75055e-07
-2.3501e-06
7.30835e-07
-2.38491e-06
6.84051e-07
-2.41514e-06
6.35169e-07
-2.44104e-06
5.84589e-07
-2.46288e-06
5.32662e-07
-2.48081e-06
4.79638e-07
-2.49499e-06
4.25716e-07
-2.50563e-06
3.71011e-07
-2.51295e-06
3.15688e-07
-2.51726e-06
2.59774e-07
-2.51883e-06
2.03268e-07
-2.51794e-06
1.46119e-07
-2.51479e-06
8.82308e-08
-2.50956e-06
2.9448e-08
-2.50237e-06
-3.04036e-08
-2.4933e-06
-9.15463e-08
-2.48251e-06
-1.54275e-07
-2.47006e-06
-2.1886e-07
-2.45602e-06
-2.85603e-07
-2.44038e-06
-3.54811e-07
-2.42307e-06
-4.26771e-07
-2.40389e-06
-5.01738e-07
-2.38255e-06
-5.79899e-07
-2.35857e-06
-6.61323e-07
-2.33118e-06
-7.45911e-07
-2.29959e-06
-8.33457e-07
-2.26245e-06
-9.23261e-07
-2.21852e-06
-1.01414e-06
-2.16603e-06
-1.10471e-06
-2.10228e-06
-1.19263e-06
-2.02428e-06
-1.27471e-06
-1.92902e-06
-1.34634e-06
-1.81533e-06
-1.40222e-06
-1.68238e-06
-1.43648e-06
-1.5303e-06
-1.44373e-06
-1.36104e-06
-1.41815e-06
-1.1784e-06
-1.35546e-06
-9.88684e-07
-1.25368e-06
-8.00396e-07
-1.11455e-06
-6.22079e-07
-9.44486e-07
-4.60385e-07
-7.5291e-07
-3.20533e-07
-5.50036e-07
-2.06422e-07
-3.47142e-07
-1.19616e-07
-1.56579e-07
-5.94358e-08
1.00381e-08
-2.28696e-08
1.42007e-07
-4.59641e-09
2.27005e-07
5.86038e-10
2.48248e-07
1.45054e-07
-1.63423e-08
-2.63258e-08
-5.01074e-08
1.90824e-08
-9.03876e-08
7.32086e-08
-1.34578e-07
1.20304e-07
-1.82513e-07
1.63758e-07
-2.34717e-07
2.06064e-07
-2.91968e-07
2.49077e-07
-3.55113e-07
2.94338e-07
-4.24954e-07
3.43106e-07
-5.02142e-07
3.96266e-07
-5.87076e-07
4.54239e-07
-6.79812e-07
5.16911e-07
-7.7997e-07
5.83571e-07
-8.86757e-07
6.52983e-07
-9.98807e-07
7.23285e-07
-1.11407e-06
7.91931e-07
-1.23022e-06
8.56247e-07
-1.34474e-06
9.13521e-07
-1.45524e-06
9.61399e-07
-1.56007e-06
9.98407e-07
-1.65839e-06
1.02407e-06
-1.74976e-06
1.0386e-06
-1.83416e-06
1.04264e-06
-1.91174e-06
1.03713e-06
-1.98278e-06
1.02311e-06
-2.04755e-06
1.00157e-06
-2.10629e-06
9.73462e-07
-2.15924e-06
9.39668e-07
-2.20661e-06
9.00998e-07
-2.24861e-06
8.58187e-07
-2.28546e-06
8.11909e-07
-2.3174e-06
7.62777e-07
-2.34469e-06
7.11338e-07
-2.36759e-06
6.58074e-07
-2.3864e-06
6.03399e-07
-2.40139e-06
5.47646e-07
-2.41281e-06
4.91064e-07
-2.42096e-06
4.33862e-07
-2.42614e-06
3.76194e-07
-2.42863e-06
3.18178e-07
-2.4287e-06
2.59843e-07
-2.4266e-06
2.01169e-07
-2.42257e-06
1.42084e-07
-2.41681e-06
8.24686e-08
-2.40951e-06
2.21556e-08
-2.40088e-06
-3.90394e-08
-2.39106e-06
-1.0136e-07
-2.38026e-06
-1.65083e-07
-2.36861e-06
-2.30504e-07
-2.35626e-06
-2.97951e-07
-2.34331e-06
-3.67764e-07
-2.32979e-06
-4.40288e-07
-2.31568e-06
-5.15852e-07
-2.30083e-06
-5.94749e-07
-2.28495e-06
-6.77197e-07
-2.26756e-06
-7.6331e-07
-2.24797e-06
-8.53042e-07
-2.2252e-06
-9.46032e-07
-2.19779e-06
-1.04156e-06
-2.16398e-06
-1.13851e-06
-2.12157e-06
-1.23504e-06
-2.06812e-06
-1.32816e-06
-1.99956e-06
-1.41489e-06
-1.91235e-06
-1.48943e-06
-1.80328e-06
-1.54556e-06
-1.67113e-06
-1.57588e-06
-1.51592e-06
-1.57336e-06
-1.33999e-06
-1.5314e-06
-1.14822e-06
-1.44544e-06
-9.48622e-07
-1.31415e-06
-7.51831e-07
-1.14128e-06
-5.68174e-07
-9.36566e-07
-4.05138e-07
-7.13072e-07
-2.68293e-07
-4.83988e-07
-1.61071e-07
-2.638e-07
-8.38943e-08
-6.71385e-08
-3.44284e-08
9.25412e-08
-7.93648e-09
2.00513e-07
1.28198e-09
2.3903e-07
1.46336e-07
-2.1931e-08
-4.39479e-09
-6.24034e-08
5.95548e-08
-1.09046e-07
1.19852e-07
-1.59376e-07
1.70633e-07
-2.13378e-07
2.1776e-07
-2.71655e-07
2.64341e-07
-3.34999e-07
3.12421e-07
-4.04216e-07
3.63555e-07
-4.79999e-07
4.18888e-07
-5.62821e-07
4.79088e-07
-6.52841e-07
5.44259e-07
-7.49819e-07
6.13889e-07
-8.5314e-07
6.86892e-07
-9.61635e-07
7.61478e-07
-1.07337e-06
8.35022e-07
-1.18616e-06
9.04717e-07
-1.2976e-06
9.67691e-07
-1.40542e-06
1.02134e-06
-1.50797e-06
1.06395e-06
-1.60425e-06
1.09469e-06
-1.69376e-06
1.11358e-06
-1.77635e-06
1.12119e-06
-1.85213e-06
1.11841e-06
-1.9213e-06
1.1063e-06
-1.98408e-06
1.08589e-06
-2.04069e-06
1.05818e-06
-2.09134e-06
1.02411e-06
-2.13622e-06
9.84551e-07
-2.17556e-06
9.40337e-07
-2.2096e-06
8.92229e-07
-2.23862e-06
8.40929e-07
-2.26292e-06
7.87078e-07
-2.28283e-06
7.31251e-07
-2.2987e-06
6.73942e-07
-2.31086e-06
6.15553e-07
-2.31962e-06
5.56407e-07
-2.32531e-06
4.9676e-07
-2.32827e-06
4.36815e-07
-2.32878e-06
3.76707e-07
-2.32712e-06
3.16515e-07
-2.32352e-06
2.5625e-07
-2.31823e-06
1.95874e-07
-2.31145e-06
1.35302e-07
-2.30338e-06
7.44078e-08
-2.29425e-06
1.3024e-08
-2.28425e-06
-4.90403e-08
-2.27358e-06
-1.12027e-07
-2.26246e-06
-1.76208e-07
-2.25108e-06
-2.41886e-07
-2.23963e-06
-3.09398e-07
-2.22829e-06
-3.79105e-07
-2.21719e-06
-4.51386e-07
-2.20642e-06
-5.26626e-07
-2.19597e-06
-6.05199e-07
-2.18572e-06
-6.8744e-07
-2.17542e-06
-7.73614e-07
-2.1646e-06
-8.63859e-07
-2.15254e-06
-9.58097e-07
-2.13812e-06
-1.05598e-06
-2.11987e-06
-1.15676e-06
-2.09584e-06
-1.25907e-06
-2.06318e-06
-1.36081e-06
-2.01901e-06
-1.45907e-06
-1.95921e-06
-1.54923e-06
-1.87879e-06
-1.62597e-06
-1.77367e-06
-1.68101e-06
-1.64129e-06
-1.70574e-06
-1.48158e-06
-1.6911e-06
-1.29759e-06
-1.62943e-06
-1.09568e-06
-1.51607e-06
-8.86098e-07
-1.35086e-06
-6.82058e-07
-1.14061e-06
-4.95535e-07
-8.99595e-07
-3.34717e-07
-6.44805e-07
-2.05147e-07
-3.93371e-07
-1.0914e-07
-1.63145e-07
-4.53896e-08
2.87911e-08
-1.01991e-08
1.65323e-07
2.69347e-09
2.26137e-07
1.49029e-07
-2.71295e-08
2.27347e-08
-7.38058e-08
1.06231e-07
-1.26242e-07
1.72288e-07
-1.82146e-07
2.26537e-07
-2.41607e-07
2.7722e-07
-3.05262e-07
3.27996e-07
-3.73885e-07
3.81044e-07
-4.482e-07
4.3787e-07
-5.2876e-07
4.99448e-07
-6.15842e-07
5.6617e-07
-7.09355e-07
6.37773e-07
-8.08877e-07
7.13411e-07
-9.135e-07
7.91514e-07
-1.02147e-06
8.69444e-07
-1.13073e-06
9.44282e-07
-1.2391e-06
1.01309e-06
-1.34437e-06
1.07297e-06
-1.44486e-06
1.12183e-06
-1.53941e-06
1.1585e-06
-1.62737e-06
1.18265e-06
-1.70849e-06
1.1947e-06
-1.78278e-06
1.19548e-06
-1.85037e-06
1.18601e-06
-1.91145e-06
1.16738e-06
-1.96619e-06
1.14063e-06
-2.01478e-06
1.10676e-06
-2.05741e-06
1.06674e-06
-2.09433e-06
1.02147e-06
-2.12582e-06
9.71826e-07
-2.1522e-06
9.18605e-07
-2.17382e-06
8.62552e-07
-2.19109e-06
8.04343e-07
-2.20439e-06
7.44552e-07
-2.2141e-06
6.83658e-07
-2.2206e-06
6.22047e-07
-2.22422e-06
5.60029e-07
-2.2253e-06
4.97844e-07
-2.22415e-06
4.3566e-07
-2.22102e-06
3.73577e-07
-2.21615e-06
3.11645e-07
-2.20975e-06
2.49853e-07
-2.20202e-06
1.88149e-07
-2.19316e-06
1.2644e-07
-2.18335e-06
6.45989e-08
-2.17279e-06
2.46425e-09
-2.16168e-06
-6.01541e-08
-2.15022e-06
-1.23485e-07
-2.13864e-06
-1.87791e-07
-2.12716e-06
-2.53366e-07
-2.11601e-06
-3.20542e-07
-2.10543e-06
-3.89685e-07
-2.09563e-06
-4.6119e-07
-2.08678e-06
-5.35477e-07
-2.079e-06
-6.12974e-07
-2.07234e-06
-6.94106e-07
-2.06669e-06
-7.7926e-07
-2.06181e-06
-8.68738e-07
-2.05721e-06
-9.62701e-07
-2.05209e-06
-1.0611e-06
-2.04531e-06
-1.16354e-06
-2.03521e-06
-1.26917e-06
-2.01953e-06
-1.37649e-06
-1.99546e-06
-1.48314e-06
-1.95911e-06
-1.58557e-06
-1.90617e-06
-1.67892e-06
-1.83088e-06
-1.75629e-06
-1.72781e-06
-1.8088e-06
-1.59334e-06
-1.82558e-06
-1.42723e-06
-1.79555e-06
-1.23355e-06
-1.70974e-06
-1.02071e-06
-1.5637e-06
-8.01983e-07
-1.35934e-06
-5.9333e-07
-1.10825e-06
-4.08039e-07
-8.30096e-07
-2.54643e-07
-5.46767e-07
-1.37949e-07
-2.7984e-07
-5.83958e-08
-5.07617e-08
-1.33007e-08
1.20228e-07
3.83784e-09
2.08999e-07
1.52867e-07
-3.20173e-08
5.4752e-08
-8.4116e-08
1.5833e-07
-1.41664e-07
2.29836e-07
-2.02473e-07
2.87346e-07
-2.66679e-07
3.41426e-07
-3.34918e-07
3.96235e-07
-4.07906e-07
4.54033e-07
-4.86261e-07
5.16224e-07
-5.70377e-07
5.83565e-07
-6.6033e-07
6.56123e-07
-7.55872e-07
7.33314e-07
-8.56389e-07
8.13928e-07
-9.60402e-07
8.95528e-07
-1.06598e-06
9.75027e-07
-1.17121e-06
1.04951e-06
-1.27397e-06
1.11585e-06
-1.37252e-06
1.17151e-06
-1.46555e-06
1.21486e-06
-1.55224e-06
1.24519e-06
-1.6322e-06
1.26261e-06
-1.70533e-06
1.26783e-06
-1.77171e-06
1.26185e-06
-1.83144e-06
1.24574e-06
-1.88468e-06
1.22062e-06
-1.93159e-06
1.18754e-06
-1.97239e-06
1.14756e-06
-2.00732e-06
1.10167e-06
-2.03671e-06
1.05086e-06
-2.06092e-06
9.96037e-07
-2.08037e-06
9.38056e-07
-2.09551e-06
8.77695e-07
-2.10679e-06
8.1562e-07
-2.11462e-06
7.52383e-07
-2.1194e-06
6.8844e-07
-2.1215e-06
6.24149e-07
-2.12126e-06
5.59785e-07
-2.11896e-06
4.95549e-07
-2.11487e-06
4.31568e-07
-2.1092e-06
3.67907e-07
-2.10214e-06
3.04586e-07
-2.09387e-06
2.41577e-07
-2.08453e-06
1.78815e-07
-2.0743e-06
1.16207e-07
-2.06333e-06
5.36259e-08
-2.05178e-06
-9.0781e-09
-2.03985e-06
-7.20851e-08
-2.02774e-06
-1.35604e-07
-2.01565e-06
-1.99877e-07
-2.00383e-06
-2.6518e-07
-1.99255e-06
-3.31827e-07
-1.98207e-06
-4.0017e-07
-1.97265e-06
-4.70605e-07
-1.96457e-06
-5.43562e-07
-1.95803e-06
-6.19506e-07
-1.95322e-06
-6.98922e-07
-1.95019e-06
-7.82288e-07
-1.94888e-06
-8.7005e-07
-1.94902e-06
-9.62562e-07
-1.95009e-06
-1.06003e-06
-1.95123e-06
-1.16239e-06
-1.95116e-06
-1.26924e-06
-1.94803e-06
-1.37962e-06
-1.93937e-06
-1.49181e-06
-1.92186e-06
-1.60308e-06
-1.89145e-06
-1.70933e-06
-1.84298e-06
-1.80476e-06
-1.77029e-06
-1.88149e-06
-1.66678e-06
-1.92909e-06
-1.52769e-06
-1.93463e-06
-1.35285e-06
-1.88458e-06
-1.14788e-06
-1.76867e-06
-9.24007e-07
-1.58321e-06
-6.98364e-07
-1.33389e-06
-4.89523e-07
-1.03894e-06
-3.11408e-07
-7.24882e-07
-1.72194e-07
-4.19054e-07
-7.508e-08
-1.47875e-07
-1.84907e-08
6.36382e-08
4.13004e-09
1.86378e-07
1.56997e-07
-3.63429e-08
9.10949e-08
-9.31038e-08
2.15091e-07
-1.55036e-07
2.91768e-07
-2.20017e-07
3.52327e-07
-2.88188e-07
4.09598e-07
-3.60151e-07
4.68199e-07
-4.36542e-07
5.30423e-07
-5.17851e-07
5.97533e-07
-6.04307e-07
6.70021e-07
-6.95839e-07
7.47654e-07
-7.92103e-07
8.29579e-07
-8.92004e-07
9.13829e-07
-9.93762e-07
9.97286e-07
-1.0957e-06
1.07697e-06
-1.19587e-06
1.14968e-06
-1.29247e-06
1.21245e-06
-1.3841e-06
1.26314e-06
-1.46974e-06
1.3005e-06
-1.54882e-06
1.32427e-06
-1.62114e-06
1.33493e-06
-1.68667e-06
1.33336e-06
-1.74546e-06
1.32065e-06
-1.79765e-06
1.29793e-06
-1.84336e-06
1.26633e-06
-1.88282e-06
1.227e-06
-1.91629e-06
1.18103e-06
-1.94413e-06
1.12951e-06
-1.96676e-06
1.07348e-06
-1.98462e-06
1.01391e-06
-1.99824e-06
9.51673e-07
-2.0081e-06
8.8755e-07
-2.01465e-06
8.2217e-07
-2.01832e-06
7.56053e-07
-2.01949e-06
6.89614e-07
-2.01851e-06
6.23165e-07
-2.01565e-06
5.56932e-07
-2.01117e-06
4.91068e-07
-2.00526e-06
4.25656e-07
-1.99808e-06
3.6073e-07
-1.98978e-06
2.96282e-07
-1.98047e-06
2.32269e-07
-1.97028e-06
1.68621e-07
-1.95931e-06
1.05243e-07
-1.9477e-06
4.20171e-08
-1.93559e-06
-2.11927e-08
-1.92313e-06
-8.45469e-08
-1.9105e-06
-1.48229e-07
-1.89793e-06
-2.12454e-07
-1.88564e-06
-2.77467e-07
-1.87391e-06
-3.43553e-07
-1.86304e-06
-4.1104e-07
-1.85334e-06
-4.80304e-07
-1.84514e-06
-5.5177e-07
-1.83873e-06
-6.25915e-07
-1.83439e-06
-7.03258e-07
-1.83233e-06
-7.84348e-07
-1.83264e-06
-8.69737e-07
-1.83526e-06