/*--------------------------------*- C++ -*----------------------------------*\
  =========                 |
  \\      /  F ield         | OpenFOAM: The Open Source CFD Toolbox
   \\    /   O peration     | Website:  https://openfoam.org
    \\  /    A nd           | Version:  13
     \\/     M anipulation  |
\*---------------------------------------------------------------------------*/
FoamFile
{
    format      ascii;
    class       volVectorField;
    location    "2.4";
    object      U;
}
// * * * * * * * * * * * * * * * * * * * * * * * * * * * * * * * * * * * * * //

dimensions      [0 1 -1 0 0 0 0];

internalField   nonuniform List<vector> 
6400
(
(6.97784e-05 -7.30145e-05 0)
(0.000622843 -0.000177048 0)
(0.00146902 -0.00023198 0)
(0.00235335 -0.000239744 0)
(0.00314012 -0.000215373 0)
(0.00376092 -0.000178914 0)
(0.00422234 -0.000150399 0)
(0.00455496 -0.000134556 0)
(0.00479481 -0.000129395 0)
(0.00497132 -0.000131677 0)
(0.00510236 -0.00013804 0)
(0.00519629 -0.000146297 0)
(0.00525496 -0.000155296 0)
(0.00527466 -0.000164707 0)
(0.00525166 -0.000174674 0)
(0.00517429 -0.000184798 0)
(0.00503089 -0.000193816 0)
(0.00481035 -0.000201679 0)
(0.00449163 -0.000205321 0)
(0.00404984 -0.000204124 0)
(0.0034555 -0.000197597 0)
(0.00267972 -0.000187753 0)
(0.00169879 -0.000181365 0)
(0.000489493 -0.00018703 0)
(-0.000936274 -0.000207492 0)
(-0.00261516 -0.000229203 0)
(-0.00460078 -0.00023812 0)
(-0.00694331 -0.000209595 0)
(-0.00969753 -9.20997e-05 0)
(-0.0129194 0.000155132 0)
(-0.0168073 0.000517821 0)
(-0.0212435 0.000924855 0)
(-0.0262236 0.00135295 0)
(-0.031677 0.00177748 0)
(-0.0375059 0.0021718 0)
(-0.0435934 0.00251184 0)
(-0.0498135 0.00278284 0)
(-0.0560384 0.00297677 0)
(-0.0621474 0.00309285 0)
(-0.0680313 0.00313577 0)
(-0.0735936 0.00311246 0)
(-0.0787499 0.00302901 0)
(-0.0834286 0.00288996 0)
(-0.0875693 0.00269744 0)
(-0.0911104 0.00245269 0)
(-0.0940122 0.00216012 0)
(-0.0962457 0.00182942 0)
(-0.0976771 0.00149799 0)
(-0.0983107 0.0011951 0)
(-0.0983587 0.000722614 0)
(-0.0973445 0.000308376 0)
(-0.095599 -0.000176719 0)
(-0.0928808 -0.000658093 0)
(-0.0892998 -0.00115485 0)
(-0.0847916 -0.00164255 0)
(-0.0794127 -0.00211153 0)
(-0.073182 -0.00254429 0)
(-0.0661783 -0.0029401 0)
(-0.0585197 -0.00331408 0)
(-0.0502491 -0.00361778 0)
(-0.0415307 -0.00382629 0)
(-0.0325418 -0.00391822 0)
(-0.0234958 -0.00387396 0)
(-0.0146223 -0.00367642 0)
(-0.00616012 -0.0033208 0)
(0.00157406 -0.00283888 0)
(0.00829396 -0.00221202 0)
(0.0137811 -0.0014505 0)
(0.0178084 -0.000622656 0)
(0.0202814 0.000211168 0)
(0.0209646 0.00101898 0)
(0.0202459 0.00139864 0)
(0.0180984 0.00165577 0)
(0.0148217 0.00164362 0)
(0.0111975 0.00137034 0)
(0.00766444 0.000963809 0)
(0.00461532 0.000587006 0)
(0.0022569 0.000307862 0)
(0.000694723 9.58704e-05 0)
(-1.7456e-05 -6.54311e-05 0)
(0.000164437 -0.00061322 0)
(0.00130657 -0.00131939 0)
(0.00277285 -0.00158032 0)
(0.00413835 -0.00150369 0)
(0.0052204 -0.00124164 0)
(0.00598146 -0.000935596 0)
(0.00643884 -0.000662632 0)
(0.00664257 -0.000450477 0)
(0.0066427 -0.000295445 0)
(0.00647872 -0.000183433 0)
(0.00616688 -9.33571e-05 0)
(0.00571693 -1.15336e-05 0)
(0.0051242 7.26667e-05 0)
(0.00437564 0.000165368 0)
(0.00345025 0.000271305 0)
(0.00232065 0.000396824 0)
(0.000951034 0.000548982 0)
(-0.000699698 0.000737556 0)
(-0.00269372 0.000973858 0)
(-0.00508112 0.0012632 0)
(-0.00792364 0.00161225 0)
(-0.0112883 0.00202118 0)
(-0.015244 0.00248118 0)
(-0.0198592 0.00298355 0)
(-0.025209 0.00354621 0)
(-0.0313153 0.00419631 0)
(-0.0381674 0.00494343 0)
(-0.0457328 0.00578466 0)
(-0.0539201 0.00669419 0)
(-0.0625357 0.00762011 0)
(-0.0713217 0.00847654 0)
(-0.0802125 0.00922118 0)
(-0.0890212 0.00982525 0)
(-0.097639 0.0102597 0)
(-0.10592 0.0104871 0)
(-0.113763 0.0105113 0)
(-0.121082 0.0103439 0)
(-0.127809 0.0099978 0)
(-0.133893 0.00949436 0)
(-0.139293 0.00885508 0)
(-0.143979 0.00810002 0)
(-0.147926 0.00724438 0)
(-0.151115 0.00630218 0)
(-0.153523 0.0052891 0)
(-0.155147 0.00421748 0)
(-0.155978 0.00309249 0)
(-0.156001 0.00192108 0)
(-0.155181 0.00071463 0)
(-0.153511 -0.000540707 0)
(-0.151014 -0.00186411 0)
(-0.147615 -0.00322903 0)
(-0.143369 -0.00462432 0)
(-0.138228 -0.00603951 0)
(-0.132219 -0.00745745 0)
(-0.125329 -0.00886018 0)
(-0.117585 -0.010217 0)
(-0.109011 -0.0114921 0)
(-0.099647 -0.0126598 0)
(-0.089555 -0.013674 0)
(-0.078887 -0.0144935 0)
(-0.0677635 -0.015068 0)
(-0.0563452 -0.0153384 0)
(-0.0448303 -0.0152594 0)
(-0.0334324 -0.0147903 0)
(-0.0223751 -0.0138997 0)
(-0.011916 -0.0125854 0)
(-0.00232192 -0.0108499 0)
(0.00615141 -0.00873055 0)
(0.0132749 -0.00629558 0)
(0.0188707 -0.00365429 0)
(0.0227339 -0.000978684 0)
(0.0248305 0.0015004 0)
(0.025059 0.0036369 0)
(0.0235075 0.00523596 0)
(0.0204345 0.00596165 0)
(0.0160857 0.00585844 0)
(0.0111649 0.00506212 0)
(0.00645048 0.00383314 0)
(0.00264522 0.00233807 0)
(0.000278053 0.000776931 0)
(0.000237491 -0.00145432 0)
(0.00162875 -0.00280941 0)
(0.00310033 -0.00305286 0)
(0.00422013 -0.00266708 0)
(0.00493456 -0.00203045 0)
(0.00528255 -0.00137021 0)
(0.00531352 -0.000792796 0)
(0.00507554 -0.000326876 0)
(0.0046028 4.21022e-05 0)
(0.00391494 0.000346604 0)
(0.00301527 0.000621252 0)
(0.00189133 0.00089514 0)
(0.000516876 0.00119043 0)
(-0.00114497 0.00152385 0)
(-0.00313619 0.00190938 0)
(-0.00550836 0.00236044 0)
(-0.00832092 0.00289278 0)
(-0.0116389 0.00352447 0)
(-0.0155237 0.00426777 0)
(-0.0200514 0.00513823 0)
(-0.0252858 0.00614531 0)
(-0.0312766 0.00728845 0)
(-0.03805 0.00855374 0)
(-0.0456028 0.00991346 0)
(-0.0538921 0.0113231 0)
(-0.0628178 0.0127332 0)
(-0.0722256 0.0140808 0)
(-0.0819324 0.0153131 0)
(-0.0917384 0.0163916 0)
(-0.101461 0.0172709 0)
(-0.11093 0.0179202 0)
(-0.120018 0.0183151 0)
(-0.128597 0.0184204 0)
(-0.136565 0.0182548 0)
(-0.143873 0.0178409 0)
(-0.150508 0.0171914 0)
(-0.156441 0.0163304 0)
(-0.161678 0.015285 0)
(-0.166215 0.014077 0)
(-0.170053 0.0127307 0)
(-0.173198 0.0112712 0)
(-0.175654 0.00971447 0)
(-0.177421 0.00807592 0)
(-0.178499 0.00636421 0)
(-0.178883 0.00458333 0)
(-0.178567 0.00274014 0)
(-0.177542 0.000839253 0)
(-0.175801 -0.00112131 0)
(-0.17331 -0.00314793 0)
(-0.170059 -0.00523793 0)
(-0.166035 -0.00736611 0)
(-0.161228 -0.00953334 0)
(-0.155616 -0.0117245 0)
(-0.149195 -0.0139184 0)
(-0.14196 -0.0160866 0)
(-0.133919 -0.0181922 0)
(-0.125092 -0.0201922 0)
(-0.115524 -0.0220318 0)
(-0.105268 -0.0236396 0)
(-0.0944154 -0.0249544 0)
(-0.08309 -0.0258965 0)
(-0.0714303 -0.0263756 0)
(-0.0596107 -0.0263249 0)
(-0.0478416 -0.0256964 0)
(-0.0363332 -0.0244433 0)
(-0.0252977 -0.0225318 0)
(-0.0149771 -0.0199759 0)
(-0.00560668 -0.0168293 0)
(0.00260027 -0.0131758 0)
(0.00946931 -0.00915483 0)
(0.0148558 -0.00495261 0)
(0.0186523 -0.000788865 0)
(0.0208337 0.00308089 0)
(0.0212776 0.00631204 0)
(0.0199826 0.00870622 0)
(0.017281 0.00990285 0)
(0.0132861 0.00986177 0)
(0.00862219 0.00861559 0)
(0.00404926 0.00623937 0)
(0.000534762 0.00275358 0)
(0.000288695 -0.00240219 0)
(0.00164682 -0.004244 0)
(0.00276515 -0.00418351 0)
(0.00338427 -0.00333668 0)
(0.00358053 -0.00229666 0)
(0.00342941 -0.00130395 0)
(0.00297906 -0.000444585 0)
(0.00225727 0.000272966 0)
(0.00127339 0.000880325 0)
(2.1287e-05 0.00142586 0)
(-0.00151906 0.00195846 0)
(-0.00337955 0.00251919 0)
(-0.00560306 0.00314044 0)
(-0.00824172 0.00384754 0)
(-0.0113554 0.00466266 0)
(-0.0150104 0.00560732 0)
(-0.0192771 0.00670252 0)
(-0.0242253 0.0079672 0)
(-0.0299168 0.00941466 0)
(-0.0363982 0.0110482 0)
(-0.0436871 0.012853 0)
(-0.0517627 0.0147934 0)
(-0.0605577 0.0168098 0)
(-0.0699583 0.0188263 0)
(-0.0798043 0.0207502 0)
(-0.089903 0.022505 0)
(-0.100052 0.0240192 0)
(-0.110074 0.0252343 0)
(-0.119796 0.0260969 0)
(-0.129065 0.0265794 0)
(-0.137768 0.0267034 0)
(-0.145835 0.0264936 0)
(-0.153222 0.0259657 0)
(-0.159918 0.0251422 0)
(-0.165939 0.0240483 0)
(-0.171289 0.0227198 0)
(-0.175987 0.0211903 0)
(-0.180054 0.0194835 0)
(-0.183501 0.0176271 0)
(-0.186349 0.0156439 0)
(-0.188605 0.0135517 0)
(-0.190278 0.0113656 0)
(-0.191369 0.00909481 0)
(-0.191877 0.00674582 0)
(-0.191793 0.00432105 0)
(-0.191107 0.00182266 0)
(-0.189809 -0.000749132 0)
(-0.187879 -0.00339598 0)
(-0.185294 -0.00611054 0)
(-0.182036 -0.00890398 0)
(-0.178089 -0.0117632 0)
(-0.173429 -0.0146814 0)
(-0.168035 -0.0176406 0)
(-0.161885 -0.0206144 0)
(-0.154965 -0.0235658 0)
(-0.147266 -0.0264488 0)
(-0.138793 -0.0292042 0)
(-0.129564 -0.0317582 0)
(-0.119614 -0.0340212 0)
(-0.108999 -0.035891 0)
(-0.0978242 -0.0372614 0)
(-0.0862089 -0.0380232 0)
(-0.0742924 -0.0380718 0)
(-0.0622754 -0.0373224 0)
(-0.0504115 -0.035745 0)
(-0.0389093 -0.0332991 0)
(-0.0279858 -0.0299786 0)
(-0.0178822 -0.0258455 0)
(-0.00882073 -0.021021 0)
(-0.00098788 -0.0156761 0)
(0.00546703 -0.0100387 0)
(0.0104355 -0.00436726 0)
(0.013872 0.00106861 0)
(0.0157719 0.00592322 0)
(0.0161161 0.00981244 0)
(0.0148703 0.0124536 0)
(0.0122657 0.0135571 0)
(0.00860551 0.0129657 0)
(0.00438596 0.0104369 0)
(0.000615982 0.00518307 0)
(0.000317063 -0.00331395 0)
(0.00141743 -0.00534158 0)
(0.00198901 -0.0047987 0)
(0.00204675 -0.00347285 0)
(0.00170482 -0.00205395 0)
(0.00103655 -0.000749833 0)
(7.54513e-05 0.000390806 0)
(-0.00117235 0.00138391 0)
(-0.00272077 0.00227843 0)
(-0.00459833 0.00313579 0)
(-0.00684493 0.00401631 0)
(-0.0095098 0.00497154 0)
(-0.0126503 0.00604303 0)
(-0.0163303 0.00726409 0)
(-0.020618 0.00866263 0)
(-0.0255818 0.0102626 0)
(-0.0312848 0.0120821 0)
(-0.0377756 0.014129 0)
(-0.0450767 0.0163945 0)
(-0.0531733 0.018847 0)
(-0.0620032 0.0214257 0)
(-0.0714545 0.024041 0)
(-0.0813653 0.0265771 0)
(-0.0915451 0.028931 0)
(-0.101799 0.0310035 0)
(-0.111945 0.0327129 0)
(-0.121798 0.0339747 0)
(-0.131203 0.0347695 0)
(-0.14003 0.0351133 0)
(-0.148226 0.0350104 0)
(-0.155775 0.034493 0)
(-0.162658 0.0336097 0)
(-0.168893 0.0324043 0)
(-0.174505 0.0309195 0)
(-0.179517 0.0291906 0)
(-0.183949 0.0272483 0)
(-0.187828 0.025126 0)
(-0.19117 0.0228477 0)
(-0.193995 0.0204345 0)
(-0.196316 0.0179045 0)
(-0.198141 0.0152737 0)
(-0.199474 0.0125518 0)
(-0.200315 0.00974444 0)
(-0.200663 0.00685286 0)
(-0.200506 0.00387519 0)
(-0.199835 0.00080918 0)
(-0.198635 -0.0023466 0)
(-0.196885 -0.00559341 0)
(-0.194562 -0.0089352 0)
(-0.191645 -0.0123748 0)
(-0.188111 -0.015907 0)
(-0.183934 -0.0195247 0)
(-0.179083 -0.0232104 0)
(-0.173531 -0.0269359 0)
(-0.167242 -0.0306574 0)
(-0.160195 -0.0343221 0)
(-0.152374 -0.0378593 0)
(-0.143771 -0.0411809 0)
(-0.134394 -0.0441712 0)
(-0.124268 -0.0467103 0)
(-0.113445 -0.0486577 0)
(-0.102027 -0.0498679 0)
(-0.0901444 -0.050206 0)
(-0.0779266 -0.0495341 0)
(-0.0656229 -0.0477679 0)
(-0.0535285 -0.0448844 0)
(-0.041879 -0.0409109 0)
(-0.0309046 -0.0358853 0)
(-0.0208579 -0.029949 0)
(-0.0119609 -0.0233158 0)
(-0.00439378 -0.0162585 0)
(0.0017145 -0.00908848 0)
(0.00629855 -0.00213672 0)
(0.00935376 0.00423337 0)
(0.0109027 0.00964225 0)
(0.0109744 0.0137012 0)
(0.00966684 0.0160558 0)
(0.00718292 0.0164169 0)
(0.00384697 0.0141964 0)
(0.000516038 0.00751286 0)
(0.000316524 -0.00407987 0)
(0.000982617 -0.00595226 0)
(0.000948996 -0.00482381 0)
(0.000419583 -0.00304143 0)
(-0.00047422 -0.00127491 0)
(-0.00168242 0.000331895 0)
(-0.00318865 0.00176654 0)
(-0.00500747 0.00306926 0)
(-0.00717248 0.00430554 0)
(-0.00973027 0.00554863 0)
(-0.0127364 0.00686782 0)
(-0.0162526 0.00832201 0)
(-0.0203449 0.00995822 0)
(-0.0250802 0.0118127 0)
(-0.0305225 0.013912 0)
(-0.036725 0.0162718 0)
(-0.0437215 0.0188927 0)
(-0.0515146 0.0217527 0)
(-0.0600635 0.0248005 0)
(-0.0692781 0.0279524 0)
(-0.0790187 0.031095 0)
(-0.0891024 0.0341025 0)
(-0.0993338 0.0368414 0)
(-0.109527 0.039204 0)
(-0.119488 0.0410766 0)
(-0.129025 0.0424077 0)
(-0.138017 0.0431768 0)
(-0.146405 0.043382 0)
(-0.154152 0.0430796 0)
(-0.161274 0.0423241 0)
(-0.167785 0.0411662 0)
(-0.173698 0.0396645 0)
(-0.179047 0.0378668 0)
(-0.183858 0.0358134 0)
(-0.188157 0.0335398 0)
(-0.191966 0.0310777 0)
(-0.195307 0.0284565 0)
(-0.198197 0.0256966 0)
(-0.200653 0.0228145 0)
(-0.202682 0.0198239 0)
(-0.204287 0.0167388 0)
(-0.205474 0.0135654 0)
(-0.206243 0.0103048 0)
(-0.206594 0.00695447 0)
(-0.206521 0.00350884 0)
(-0.206018 -4.11894e-05 0)
(-0.205078 -0.0037067 0)
(-0.203667 -0.00748499 0)
(-0.201764 -0.01138 0)
(-0.199344 -0.0153931 0)
(-0.196378 -0.0195207 0)
(-0.192834 -0.0237572 0)
(-0.18868 -0.0280902 0)
(-0.183904 -0.0325127 0)
(-0.178438 -0.0369695 0)
(-0.172241 -0.0413984 0)
(-0.165275 -0.0457209 0)
(-0.157517 -0.049847 0)
(-0.148929 -0.0536413 0)
(-0.139514 -0.0569615 0)
(-0.129282 -0.0596321 0)
(-0.118271 -0.0614802 0)
(-0.10659 -0.0623185 0)
(-0.0943748 -0.0619636 0)
(-0.0817835 -0.0602709 0)
(-0.069069 -0.0571661 0)
(-0.0565894 -0.0526944 0)
(-0.0446379 -0.0469189 0)
(-0.0334623 -0.0399807 0)
(-0.0233406 -0.0321231 0)
(-0.0145062 -0.0236681 0)
(-0.0071349 -0.0149912 0)
(-0.00132835 -0.00649457 0)
(0.00288908 0.001407 0)
(0.00555359 0.0082964 0)
(0.00673666 0.0137589 0)
(0.00654673 0.017393 0)
(0.00512931 0.0187844 0)
(0.00287354 0.0171129 0)
(0.000335613 0.00940305 0)
(0.000284896 -0.00458633 0)
(0.000409623 -0.00598714 0)
(-0.000263287 -0.00423438 0)
(-0.00137774 -0.002034 0)
(-0.00283482 6.06355e-05 0)
(-0.00460309 0.00197071 0)
(-0.00668341 0.00371975 0)
(-0.00910721 0.00537101 0)
(-0.0119241 0.00700468 0)
(-0.0151942 0.00870365 0)
(-0.0189833 0.0105432 0)
(-0.0233591 0.0125851 0)
(-0.0283877 0.014876 0)
(-0.034128 0.0174469 0)
(-0.0406253 0.0203118 0)
(-0.0479013 0.0234641 0)
(-0.0559436 0.0268707 0)
(-0.0646966 0.0304641 0)
(-0.0740535 0.0341391 0)
(-0.0838628 0.0377722 0)
(-0.0939408 0.0412113 0)
(-0.104087 0.0443216 0)
(-0.114111 0.0469673 0)
(-0.123803 0.0490306 0)
(-0.132998 0.0504506 0)
(-0.141608 0.0512082 0)
(-0.149604 0.0513517 0)
(-0.156988 0.0509307 0)
(-0.163774 0.050015 0)
(-0.169989 0.0486679 0)
(-0.17566 0.0469441 0)
(-0.180816 0.0449047 0)
(-0.185484 0.0425973 0)
(-0.189687 0.0400586 0)
(-0.193447 0.0373226 0)
(-0.196785 0.0344181 0)
(-0.199716 0.031369 0)
(-0.202257 0.0281954 0)
(-0.204421 0.0249103 0)
(-0.206214 0.0215253 0)
(-0.207641 0.0180535 0)
(-0.208706 0.014497 0)
(-0.209412 0.0108523 0)
(-0.20976 0.00711399 0)
(-0.209747 0.00327468 0)
(-0.20937 -0.000677261 0)
(-0.208622 -0.00475684 0)
(-0.207513 -0.00897282 0)
(-0.206024 -0.0133354 0)
(-0.204137 -0.0178503 0)
(-0.201815 -0.022512 0)
(-0.199025 -0.0273245 0)
(-0.195723 -0.0322722 0)
(-0.191835 -0.0373211 0)
(-0.187333 -0.042449 0)
(-0.182148 -0.0475911 0)
(-0.176206 -0.0526543 0)
(-0.169522 -0.0576051 0)
(-0.161981 -0.0622601 0)
(-0.153547 -0.0664505 0)
(-0.144194 -0.0699892 0)
(-0.13391 -0.0726535 0)
(-0.122735 -0.0742061 0)
(-0.110756 -0.0744415 0)
(-0.0981336 -0.073124 0)
(-0.0850596 -0.0701256 0)
(-0.0718215 -0.0653945 0)
(-0.0588597 -0.0590441 0)
(-0.046494 -0.0512503 0)
(-0.0350321 -0.0422551 0)
(-0.0247803 -0.0324273 0)
(-0.0159854 -0.0222122 0)
(-0.00881208 -0.0120964 0)
(-0.00333132 -0.00257701 0)
(0.000476852 0.00586428 0)
(0.00270636 0.0127698 0)
(0.00351333 0.0176951 0)
(0.00308459 0.0201513 0)
(0.00176977 0.0190386 0)
(0.000144837 0.010643 0)
(0.000229685 -0.00476409 0)
(-0.000263948 -0.00540238 0)
(-0.00157497 -0.00303574 0)
(-0.00326429 -0.000445681 0)
(-0.0052911 0.00196576 0)
(-0.00763212 0.00418602 0)
(-0.010302 0.00627406 0)
(-0.0133468 0.00831342 0)
(-0.0168279 0.0103964 0)
(-0.0208137 0.0126122 0)
(-0.0253738 0.0150376 0)
(-0.0305742 0.0177315 0)
(-0.0364715 0.020732 0)
(-0.0431057 0.0240544 0)
(-0.0504916 0.0276876 0)
(-0.0586086 0.031589 0)
(-0.0673937 0.0356789 0)
(-0.0767346 0.0398474 0)
(-0.0864833 0.0439467 0)
(-0.0964479 0.0478102 0)
(-0.106435 0.0512996 0)
(-0.116233 0.0542369 0)
(-0.125635 0.0565124 0)
(-0.1345 0.0580539 0)
(-0.142778 0.0588774 0)
(-0.150452 0.0590249 0)
(-0.157535 0.0585641 0)
(-0.164055 0.0575638 0)
(-0.170035 0.0560954 0)
(-0.175506 0.0542246 0)
(-0.180496 0.0520083 0)
(-0.18503 0.049501 0)
(-0.189127 0.0467475 0)
(-0.192805 0.0437834 0)
(-0.196084 0.0406402 0)
(-0.198978 0.0373456 0)
(-0.201501 0.0339228 0)
(-0.203663 0.0303953 0)
(-0.205462 0.0267878 0)
(-0.206944 0.0230679 0)
(-0.20813 0.0192517 0)
(-0.209023 0.0153492 0)
(-0.209613 0.0113634 0)
(-0.209902 0.0072879 0)
(-0.209889 0.00311507 0)
(-0.209571 -0.00116352 0)
(-0.208945 -0.00555687 0)
(-0.208026 -0.0100823 0)
(-0.206802 -0.0147588 0)
(-0.205266 -0.0196051 0)
(-0.203409 -0.0246429 0)
(-0.201206 -0.0298723 0)
(-0.198631 -0.035297 0)
(-0.195645 -0.0409068 0)
(-0.192208 -0.0466861 0)
(-0.188264 -0.0526058 0)
(-0.183694 -0.0585027 0)
(-0.178314 -0.0642425 0)
(-0.172103 -0.0697519 0)
(-0.164962 -0.0748476 0)
(-0.156865 -0.0793687 0)
(-0.147713 -0.0830311 0)
(-0.137481 -0.0855513 0)
(-0.126193 -0.0866493 0)
(-0.113917 -0.0860399 0)
(-0.100836 -0.083524 0)
(-0.0871797 -0.0789113 0)
(-0.0733385 -0.0722696 0)
(-0.0597961 -0.0638059 0)
(-0.0469634 -0.05382 0)
(-0.0351963 -0.0426839 0)
(-0.0248344 -0.0309152 0)
(-0.0161323 -0.0190952 0)
(-0.00923607 -0.00782712 0)
(-0.00417456 0.00230492 0)
(-0.000869381 0.0107677 0)
(0.000881992 0.0170574 0)
(0.00135098 0.0205957 0)
(0.000858498 0.020081 0)
(2.26331e-05 0.011293 0)
(0.000126556 -0.00455947 0)
(-0.00100695 -0.00419631 0)
(-0.00292964 -0.00123294 0)
(-0.0051831 0.00172202 0)
(-0.00777554 0.00444288 0)
(-0.0106883 0.00698405 0)
(-0.0139467 0.00943601 0)
(-0.0176078 0.0118993 0)
(-0.0217404 0.0144746 0)
(-0.0264155 0.0172532 0)
(-0.0316998 0.0203076 0)
(-0.0376496 0.0236866 0)
(-0.0443038 0.0274106 0)
(-0.0516752 0.0314686 0)
(-0.0597415 0.0358135 0)
(-0.0684381 0.0403581 0)
(-0.0776632 0.0449866 0)
(-0.0872661 0.0495367 0)
(-0.0970481 0.0538343 0)
(-0.106828 0.0577024 0)
(-0.116376 0.0609645 0)
(-0.12549 0.0634872 0)
(-0.13407 0.0652184 0)
(-0.142069 0.0661722 0)
(-0.149486 0.0664004 0)
(-0.15633 0.0659696 0)
(-0.162628 0.0649565 0)
(-0.168409 0.0634338 0)
(-0.173697 0.0614711 0)
(-0.178521 0.0591317 0)
(-0.182901 0.0564705 0)
(-0.186856 0.0535373 0)
(-0.190403 0.0503738 0)
(-0.193559 0.0470157 0)
(-0.196339 0.0434945 0)
(-0.19876 0.0398371 0)
(-0.200834 0.0360677 0)
(-0.20259 0.0321934 0)
(-0.204057 0.0282225 0)
(-0.205225 0.0241986 0)
(-0.206097 0.0201092 0)
(-0.206681 0.0159419 0)
(-0.206999 0.011689 0)
(-0.207063 0.00734677 0)
(-0.206889 0.00290671 0)
(-0.206501 -0.00164007 0)
(-0.205906 -0.0063043 0)
(-0.205094 -0.0111068 0)
(-0.204071 -0.0160669 0)
(-0.202832 -0.0212022 0)
(-0.201372 -0.0265295 0)
(-0.199675 -0.0320604 0)
(-0.197721 -0.0378006 0)
(-0.195474 -0.0437448 0)
(-0.192891 -0.0498749 0)
(-0.189908 -0.0561532 0)
(-0.186492 -0.0626294 0)
(-0.182549 -0.069175 0)
(-0.177974 -0.0756695 0)
(-0.172573 -0.0818282 0)
(-0.166093 -0.0873622 0)
(-0.158501 -0.0921289 0)
(-0.149709 -0.0958222 0)
(-0.139639 -0.0980915 0)
(-0.128276 -0.0985615 0)
(-0.115716 -0.0969183 0)
(-0.10213 -0.0929191 0)
(-0.087818 -0.0864421 0)
(-0.0732794 -0.0776282 0)
(-0.0591053 -0.0668367 0)
(-0.0458009 -0.0545321 0)
(-0.0337732 -0.0412431 0)
(-0.0233935 -0.0276544 0)
(-0.014914 -0.0144934 0)
(-0.00844094 -0.00247993 0)
(-0.00393682 0.00772741 0)
(-0.00121373 0.0155313 0)
(5.88692e-05 0.02021 0)
(0.000281215 0.020411 0)
(5.3283e-08 0.0115434 0)
(-5.96001e-06 -0.00392585 0)
(-0.00178649 -0.00236901 0)
(-0.00428603 0.00116318 0)
(-0.00708151 0.00445759 0)
(-0.0102267 0.00748309 0)
(-0.0136967 0.0103559 0)
(-0.0175254 0.0131932 0)
(-0.0217778 0.0161083 0)
(-0.0265252 0.0192061 0)
(-0.0318357 0.0225742 0)
(-0.037767 0.0262746 0)
(-0.0443596 0.0303381 0)
(-0.0516288 0.0347591 0)
(-0.0595559 0.0394916 0)
(-0.0680815 0.0444461 0)
(-0.0771157 0.0495042 0)
(-0.0865105 0.0544927 0)
(-0.0960701 0.0592195 0)
(-0.105607 0.0634882 0)
(-0.114902 0.0671114 0)
(-0.123761 0.069937 0)
(-0.132101 0.0719267 0)
(-0.139879 0.0730864 0)
(-0.147083 0.0734663 0)
(-0.153728 0.0731341 0)
(-0.159835 0.0721672 0)
(-0.165432 0.0706434 0)
(-0.170543 0.0686356 0)
(-0.175189 0.0662115 0)
(-0.17939 0.0634309 0)
(-0.183165 0.0603466 0)
(-0.18653 0.0570066 0)
(-0.189501 0.0534525 0)
(-0.192097 0.0497206 0)
(-0.194337 0.0458419 0)
(-0.196239 0.0418437 0)
(-0.197827 0.0377484 0)
(-0.199108 0.0335784 0)
(-0.200098 0.02934 0)
(-0.20081 0.0250395 0)
(-0.201268 0.0206759 0)
(-0.201496 0.016251 0)
(-0.201518 0.011764 0)
(-0.201353 0.00720972 0)
(-0.201015 0.00257809 0)
(-0.200515 -0.00214626 0)
(-0.199862 -0.00698251 0)
(-0.199065 -0.0119515 0)
(-0.198133 -0.0170743 0)
(-0.197073 -0.0223744 0)
(-0.195886 -0.0278748 0)
(-0.194569 -0.0335963 0)
(-0.193114 -0.0395563 0)
(-0.1915 -0.0457652 0)
(-0.189696 -0.0522224 0)
(-0.187653 -0.0589072 0)
(-0.185314 -0.0657771 0)
(-0.182594 -0.0727598 0)
(-0.179377 -0.0797517 0)
(-0.175542 -0.0867059 0)
(-0.170955 -0.093418 0)
(-0.16537 -0.0995276 0)
(-0.158447 -0.104501 0)
(-0.150128 -0.108167 0)
(-0.140279 -0.110055 0)
(-0.128864 -0.109746 0)
(-0.115974 -0.10686 0)
(-0.101817 -0.10114 0)
(-0.0867787 -0.0925279 0)
(-0.0714822 -0.0812877 0)
(-0.0566695 -0.0679881 0)
(-0.0429476 -0.0532968 0)
(-0.0307775 -0.0379265 0)
(-0.0205497 -0.0227472 0)
(-0.012491 -0.00864471 0)
(-0.00664066 0.00355149 0)
(-0.00284136 0.0130953 0)
(-0.000783678 0.0190791 0)
(3.06761e-05 0.0201748 0)
(5.9802e-05 0.0116036 0)
(-0.000160353 -0.00284416 0)
(-0.00256401 5.52274e-05 0)
(-0.00560678 0.00412579 0)
(-0.00892019 0.00773806 0)
(-0.0125899 0.0110646 0)
(-0.0165876 0.0142771 0)
(-0.0209521 0.0175148 0)
(-0.025752 0.020899 0)
(-0.0310567 0.0245335 0)
(-0.0369264 0.0284966 0)
(-0.0434052 0.0328333 0)
(-0.0505135 0.0375496 0)
(-0.0582406 0.0426069 0)
(-0.0665371 0.0479189 0)
(-0.075326 0.0533679 0)
(-0.0844663 0.0587753 0)
(-0.0937721 0.0639283 0)
(-0.103056 0.0686198 0)
(-0.112104 0.0726429 0)
(-0.120743 0.075841 0)
(-0.128884 0.0781574 0)
(-0.136478 0.0795964 0)
(-0.143507 0.0801942 0)
(-0.149981 0.0800204 0)
(-0.15592 0.0791548 0)
(-0.161347 0.0776786 0)
(-0.166282 0.0756682 0)
(-0.170744 0.0731946 0)
(-0.174752 0.0703228 0)
(-0.178322 0.0671111 0)
(-0.181471 0.0636126 0)
(-0.184217 0.0598757 0)
(-0.18658 0.0559431 0)
(-0.188581 0.0518522 0)
(-0.190243 0.047636 0)
(-0.191589 0.0433219 0)
(-0.192639 0.0389304 0)
(-0.193416 0.0344768 0)
(-0.193943 0.0299727 0)
(-0.194244 0.0254284 0)
(-0.19434 0.0208473 0)
(-0.194253 0.0162292 0)
(-0.194003 0.0115694 0)
(-0.193607 0.00685892 0)
(-0.193081 0.00208515 0)
(-0.19244 -0.00276799 0)
(-0.191698 -0.00771932 0)
(-0.19087 -0.0127908 0)
(-0.189969 -0.0180057 0)
(-0.189006 -0.0233896 0)
(-0.187992 -0.0289689 0)
(-0.186933 -0.0347692 0)
(-0.185829 -0.0408146 0)
(-0.184674 -0.0471253 0)
(-0.183451 -0.0537146 0)
(-0.18213 -0.0605853 0)
(-0.180666 -0.0677268 0)
(-0.178993 -0.075097 0)
(-0.177012 -0.0826195 0)
(-0.174603 -0.0901689 0)
(-0.171606 -0.0975727 0)
(-0.167806 -0.104592 0)
(-0.163021 -0.111065 0)
(-0.156863 -0.116343 0)
(-0.149041 -0.119895 0)
(-0.139422 -0.121312 0)
(-0.127912 -0.120051 0)
(-0.114614 -0.115692 0)
(-0.0997977 -0.107987 0)
(-0.0839614 -0.0969543 0)
(-0.0678888 -0.0830458 0)
(-0.0524952 -0.0671019 0)
(-0.0384941 -0.0500277 0)
(-0.0263918 -0.0327532 0)
(-0.0165771 -0.0163686 0)
(-0.00921154 -0.00191051 0)
(-0.00420624 0.00967387 0)
(-0.00131304 0.0172928 0)
(1.41551e-05 0.019606 0)
(0.000173834 0.0116686 0)
(-0.000324142 -0.00132028 0)
(-0.00331823 0.00303824 0)
(-0.00686036 0.00761361 0)
(-0.0106556 0.0115292 0)
(-0.0148132 0.0151531 0)
(-0.0192974 0.018709 0)
(-0.0241494 0.0223535 0)
(-0.0294375 0.0262116 0)
(-0.0352255 0.0303804 0)
(-0.0415624 0.0349232 0)
(-0.0484754 0.0398624 0)
(-0.0559633 0.0451736 0)
(-0.0639902 0.0507809 0)
(-0.0724946 0.0565715 0)
(-0.081349 0.0623673 0)
(-0.0903768 0.067938 0)
(-0.0994004 0.073069 0)
(-0.108216 0.0775327 0)
(-0.116659 0.0811636 0)
(-0.124631 0.0838794 0)
(-0.13207 0.0856628 0)
(-0.138954 0.0865454 0)
(-0.145285 0.086592 0)
(-0.151078 0.0858837 0)
(-0.156352 0.0845035 0)
(-0.161123 0.0825323 0)
(-0.165408 0.0800443 0)
(-0.169225 0.0771095 0)
(-0.172588 0.0737927 0)
(-0.175517 0.0701535 0)
(-0.178033 0.066247 0)
(-0.180158 0.0621227 0)
(-0.181919 0.0578256 0)
(-0.183343 0.0533951 0)
(-0.184457 0.0488644 0)
(-0.185286 0.04426 0)
(-0.185857 0.0396015 0)
(-0.186196 0.034906 0)
(-0.186329 0.0301857 0)
(-0.186277 0.0254484 0)
(-0.186062 0.0206961 0)
(-0.185702 0.0159263 0)
(-0.185214 0.0111325 0)
(-0.184616 0.00630463 0)
(-0.183924 0.0014296 0)
(-0.183155 -0.0035087 0)
(-0.182324 -0.00852916 0)
(-0.181448 -0.0136539 0)
(-0.180543 -0.0189074 0)
(-0.179626 -0.0243163 0)
(-0.178712 -0.0299093 0)
(-0.177812 -0.0357155 0)
(-0.176936 -0.0417642 0)
(-0.176088 -0.0480824 0)
(-0.175263 -0.0546931 0)
(-0.174448 -0.0616121 0)
(-0.173614 -0.068844 0)
(-0.172715 -0.0763733 0)
(-0.171678 -0.0841603 0)
(-0.170404 -0.0921312 0)
(-0.168754 -0.100155 0)
(-0.166541 -0.108029 0)
(-0.163539 -0.11547 0)
(-0.159452 -0.122108 0)
(-0.153952 -0.127527 0)
(-0.146589 -0.130942 0)
(-0.13712 -0.131754 0)
(-0.125417 -0.129342 0)
(-0.111596 -0.123243 0)
(-0.0960172 -0.113235 0)
(-0.0793274 -0.0994681 0)
(-0.0625249 -0.0826632 0)
(-0.0467049 -0.0640014 0)
(-0.0326708 -0.0446389 0)
(-0.0209595 -0.0258062 0)
(-0.0119165 -0.00880396 0)
(-0.00557 0.00516657 0)
(-0.00174737 0.0148326 0)
(8.73367e-05 0.0187109 0)
(0.000308838 0.0118254 0)
(-0.00048071 0.000649697 0)
(-0.00402102 0.00653773 0)
(-0.00801792 0.0115885 0)
(-0.0122521 0.0157905 0)
(-0.0168514 0.0197045 0)
(-0.0217706 0.0236009 0)
(-0.0270504 0.0276491 0)
(-0.0327559 0.0319726 0)
(-0.0389423 0.0366572 0)
(-0.0456451 0.041746 0)
(-0.0528734 0.0472339 0)
(-0.0606056 0.0530627 0)
(-0.0687981 0.0591321 0)
(-0.0773433 0.0652727 0)
(-0.0860758 0.0712395 0)
(-0.0948308 0.0768139 0)
(-0.103422 0.0817525 0)
(-0.111684 0.0858656 0)
(-0.119508 0.0890451 0)
(-0.126818 0.0912437 0)
(-0.133584 0.09248 0)
(-0.139798 0.0928127 0)
(-0.14547 0.0923206 0)
(-0.150613 0.0910893 0)
(-0.155242 0.0892021 0)
(-0.15937 0.0867386 0)
(-0.163014 0.0837737 0)
(-0.16619 0.0803787 0)
(-0.168919 0.0766211 0)
(-0.171226 0.0725632 0)
(-0.173137 0.0682627 0)
(-0.174684 0.0637722 0)
(-0.175898 0.0591388 0)
(-0.176811 0.0544017 0)
(-0.177451 0.0495924 0)
(-0.177848 0.0447364 0)
(-0.17803 0.0398539 0)
(-0.178021 0.0349603 0)
(-0.177844 0.0300649 0)
(-0.177519 0.0251728 0)
(-0.177064 0.0202842 0)
(-0.176495 0.0153953 0)
(-0.175828 0.010499 0)
(-0.175077 0.00558482 0)
(-0.174258 0.000639765 0)
(-0.173387 -0.00435196 0)
(-0.172479 -0.009409 0)
(-0.171553 -0.0145529 0)
(-0.170626 -0.0198081 0)
(-0.169717 -0.0252013 0)
(-0.168843 -0.0307622 0)
(-0.168024 -0.0365221 0)
(-0.167275 -0.0425137 0)
(-0.166608 -0.0487696 0)
(-0.166031 -0.0553208 0)
(-0.165542 -0.0621939 0)
(-0.165128 -0.0694073 0)
(-0.16476 -0.0769654 0)
(-0.164389 -0.0848525 0)
(-0.163939 -0.0930248 0)
(-0.1633 -0.101396 0)
(-0.162317 -0.109826 0)
(-0.160786 -0.1181 0)
(-0.158445 -0.125892 0)
(-0.154967 -0.132768 0)
(-0.149949 -0.13815 0)
(-0.142908 -0.141277 0)
(-0.133445 -0.141307 0)
(-0.121391 -0.137479 0)
(-0.106901 -0.129295 0)
(-0.0904531 -0.116597 0)
(-0.0728973 -0.099746 0)
(-0.0555147 -0.079856 0)
(-0.0395426 -0.0584798 0)
(-0.025855 -0.0370973 0)
(-0.0149852 -0.017277 0)
(-0.00715576 -0.000542451 0)
(-0.00227723 0.0116467 0)
(0.000125897 0.0175291 0)
(0.000436507 0.0120967 0)
(-0.000642239 0.00303809 0)
(-0.00466516 0.0105025 0)
(-0.00905845 0.0160008 0)
(-0.0136806 0.0204722 0)
(-0.0186671 0.0246653 0)
(-0.0239616 0.0288925 0)
(-0.0296014 0.0333315 0)
(-0.035646 0.0380999 0)
(-0.04214 0.0432675 0)
(-0.0491038 0.0488533 0)
(-0.0565299 0.0548216 0)
(-0.0643928 0.0610913 0)
(-0.0726116 0.067516 0)
(-0.081035 0.0738411 0)
(-0.0895114 0.0798428 0)
(-0.0978771 0.0852725 0)
(-0.105963 0.0899076 0)
(-0.113652 0.0936068 0)
(-0.120855 0.0962905 0)
(-0.127526 0.0979537 0)
(-0.13365 0.0986429 0)
(-0.139228 0.0984329 0)
(-0.14427 0.097409 0)
(-0.148785 0.0956581 0)
(-0.152787 0.0932643 0)
(-0.156289 0.0903087 0)
(-0.159311 0.0868694 0)
(-0.161876 0.0830219 0)
(-0.164011 0.0788372 0)
(-0.165748 0.0743814 0)
(-0.167121 0.0697155 0)
(-0.168169 0.0648946 0)
(-0.168924 0.0599638 0)
(-0.16942 0.0549605 0)
(-0.169687 0.0499149 0)
(-0.169755 0.0448506 0)
(-0.169648 0.0397857 0)
(-0.169387 0.034732 0)
(-0.168992 0.029696 0)
(-0.168479 0.0246805 0)
(-0.167863 0.019684 0)
(-0.167155 0.0147017 0)
(-0.166369 0.009726 0)
(-0.165517 0.00474678 0)
(-0.164613 -0.000248569 0)
(-0.16367 -0.00527502 0)
(-0.162704 -0.0103502 0)
(-0.161731 -0.0154945 0)
(-0.16077 -0.0207309 0)
(-0.159841 -0.0260855 0)
(-0.158965 -0.0315875 0)
(-0.158164 -0.0372687 0)
(-0.157459 -0.0431637 0)
(-0.156871 -0.0493088 0)
(-0.156415 -0.0557407 0)
(-0.156101 -0.0624949 0)
(-0.155931 -0.0696018 0)
(-0.155892 -0.0770832 0)
(-0.155953 -0.0849459 0)
(-0.156062 -0.0931732 0)
(-0.156134 -0.101715 0)
(-0.156047 -0.110475 0)
(-0.155629 -0.119291 0)
(-0.154649 -0.127913 0)
(-0.152814 -0.135981 0)
(-0.14976 -0.142986 0)
(-0.145038 -0.148255 0)
(-0.138105 -0.150894 0)
(-0.128451 -0.14988 0)
(-0.115847 -0.144273 0)
(-0.100521 -0.133551 0)
(-0.0831159 -0.117676 0)
(-0.06478 -0.0973811 0)
(-0.0470935 -0.0742676 0)
(-0.031393 -0.0503481 0)
(-0.0185774 -0.0274759 0)
(-0.00910274 -0.00756909 0)
(-0.00303293 0.00760988 0)
(4.93853e-05 0.0159662 0)
(0.000546609 0.0124302 0)
(-0.000791806 0.00578441 0)
(-0.00523054 0.0148699 0)
(-0.00996222 0.0207934 0)
(-0.014917 0.0255178 0)
(-0.0202308 0.0299754 0)
(-0.0258352 0.034517 0)
(-0.0317625 0.039325 0)
(-0.0380645 0.0445068 0)
(-0.0447739 0.0501128 0)
(-0.0518955 0.0561361 0)
(-0.05942 0.0625162 0)
(-0.0672997 0.0691413 0)
(-0.0754016 0.0757714 0)
(-0.0835874 0.0821607 0)
(-0.0917165 0.0880722 0)
(-0.099624 0.0932506 0)
(-0.107182 0.097516 0)
(-0.114291 0.10075 0)
(-0.120889 0.102916 0)
(-0.126948 0.104038 0)
(-0.132461 0.104183 0)
(-0.137432 0.103434 0)
(-0.141868 0.10188 0)
(-0.145779 0.0996102 0)
(-0.14918 0.0967114 0)
(-0.15209 0.0932695 0)
(-0.154534 0.0893681 0)
(-0.156542 0.0850874 0)
(-0.158151 0.0805025 0)
(-0.159399 0.0756838 0)
(-0.160328 0.0706942 0)
(-0.160974 0.0655858 0)
(-0.161374 0.0604015 0)
(-0.16156 0.0551767 0)
(-0.161561 0.0499381 0)
(-0.161402 0.0447064 0)
(-0.161104 0.0394957 0)
(-0.160684 0.0343142 0)
(-0.160157 0.0291661 0)
(-0.159535 0.0240516 0)
(-0.158828 0.0189679 0)
(-0.158046 0.0139096 0)
(-0.157197 0.00886901 0)
(-0.156291 0.00383633 0)
(-0.155339 -0.00120004 0)
(-0.154353 -0.00625375 0)
(-0.153345 -0.0113407 0)