/*--------------------------------*- C++ -*----------------------------------*\
  =========                 |
  \\      /  F ield         | OpenFOAM: The Open Source CFD Toolbox
   \\    /   O peration     | Website:  https://openfoam.org
    \\  /    A nd           | Version:  13
     \\/     M anipulation  |
\*---------------------------------------------------------------------------*/
FoamFile
{
    format      ascii;
    class       volScalarField;
    location    "1.3";
    object      nut;
}
// * * * * * * * * * * * * * * * * * * * * * * * * * * * * * * * * * * * * * //

dimensions      [0 2 -1 0 0 0 0];

internalField   nonuniform List<scalar> 
6400
(
5.46659e-10
2.65567e-09
5.52754e-09
8.45574e-09
1.11891e-08
1.36614e-08
1.58939e-08
1.79201e-08
1.97674e-08
2.14567e-08
2.30046e-08
2.44279e-08
2.57441e-08
2.69727e-08
2.81347e-08
2.92529e-08
3.03508e-08
3.14525e-08
3.25823e-08
3.37636e-08
3.50187e-08
3.63677e-08
3.78278e-08
3.94122e-08
4.11297e-08
4.29843e-08
4.49757e-08
4.70991e-08
4.93461e-08
5.17057e-08
5.41649e-08
5.67101e-08
5.93278e-08
6.20049e-08
6.47293e-08
6.74897e-08
7.02755e-08
7.30759e-08
7.58792e-08
7.86715e-08
8.14349e-08
8.41458e-08
8.67729e-08
8.9278e-08
9.16236e-08
9.38049e-08
9.6029e-08
9.80512e-08
9.9795e-08
1.01138e-07
1.02079e-07
1.02637e-07
1.0277e-07
1.02303e-07
1.01233e-07
9.9566e-08
9.73031e-08
9.44631e-08
9.10813e-08
8.72102e-08
8.29184e-08
7.82871e-08
7.34018e-08
6.8347e-08
6.32033e-08
5.80437e-08
5.29296e-08
4.79106e-08
4.30265e-08
3.82894e-08
3.37132e-08
2.92989e-08
2.50399e-08
2.09604e-08
1.7006e-08
1.31524e-08
9.41799e-09
5.87511e-09
2.74431e-09
5.62618e-10
2.67715e-09
2.14362e-07
6.48917e-07
1.05555e-06
1.39151e-06
1.67074e-06
1.90922e-06
2.11774e-06
2.30284e-06
2.46849e-06
2.61737e-06
2.75169e-06
2.87357e-06
2.98514e-06
3.08862e-06
3.18625e-06
3.2803e-06
3.37299e-06
3.46639e-06
3.56245e-06
3.66285e-06
3.769e-06
3.88193e-06
4.00228e-06
4.13027e-06
4.26582e-06
4.40862e-06
4.5582e-06
4.71404e-06
4.87563e-06
5.04255e-06
5.21449e-06
5.39127e-06
5.57286e-06
5.75929e-06
5.9507e-06
6.14724e-06
6.34905e-06
6.55614e-06
6.76832e-06
6.98504e-06
7.20518e-06
7.42681e-06
7.64677e-06
7.85988e-06
8.05749e-06
8.22726e-06
8.38763e-06
8.53642e-06
8.65207e-06
8.73681e-06
8.80791e-06
8.85254e-06
8.85683e-06
8.8226e-06
8.74878e-06
8.63445e-06
8.47922e-06
8.28356e-06
8.04884e-06
7.77737e-06
7.47226e-06
7.13731e-06
6.7767e-06
6.39481e-06
5.99597e-06
5.58418e-06
5.16296e-06
4.73531e-06
4.30331e-06
3.86836e-06
3.43065e-06
2.98902e-06
2.53669e-06
2.07644e-06
1.61234e-06
1.14394e-06
6.70229e-07
2.19955e-07
2.75519e-09
5.79314e-09
6.6911e-07
2.51423e-06
4.33772e-06
5.76604e-06
6.87927e-06
7.77646e-06
8.52444e-06
9.16353e-06
9.71814e-06
1.02042e-05
1.06334e-05
1.10157e-05
1.13599e-05
1.16744e-05
1.19671e-05
1.22458e-05
1.25177e-05
1.27889e-05
1.30648e-05
1.33499e-05
1.36477e-05
1.39601e-05
1.42882e-05
1.46315e-05
1.4989e-05
1.53596e-05
1.57418e-05
1.61348e-05
1.65377e-05
1.69502e-05
1.73724e-05
1.78047e-05
1.82474e-05
1.87013e-05
1.91668e-05
1.96442e-05
2.01336e-05
2.06343e-05
2.11448e-05
2.16626e-05
2.2184e-05
2.2703e-05
2.32121e-05
2.37007e-05
2.41595e-05
2.45859e-05
2.49834e-05
2.53426e-05
2.56692e-05
2.59164e-05
2.60836e-05
2.6234e-05
2.62897e-05
2.62566e-05
2.6135e-05
2.59227e-05
2.56175e-05
2.52181e-05
2.47247e-05
2.41385e-05
2.34622e-05
2.26998e-05
2.18557e-05
2.09355e-05
1.99447e-05
1.88888e-05
1.77727e-05
1.65999e-05
1.53702e-05
1.40842e-05
1.27398e-05
1.13312e-05
9.84515e-06
8.26146e-06
6.55729e-06
4.69004e-06
2.63193e-06
6.92642e-07
5.88163e-09
9.39365e-09
1.16559e-06
4.60627e-06
8.10206e-06
1.08192e-05
1.28848e-05
1.45064e-05
1.58266e-05
1.69336e-05
1.78813e-05
1.87045e-05
1.94273e-05
2.00698e-05
2.06487e-05
2.11787e-05
2.16735e-05
2.21461e-05
2.26087e-05
2.3074e-05
2.35498e-05
2.40392e-05
2.45457e-05
2.50716e-05
2.56175e-05
2.61816e-05
2.67602e-05
2.73506e-05
2.795e-05
2.85557e-05
2.91655e-05
2.9778e-05
3.0392e-05
3.1007e-05
3.16228e-05
3.22391e-05
3.28549e-05
3.34701e-05
3.4084e-05
3.46943e-05
3.52984e-05
3.58924e-05
3.64711e-05
3.70277e-05
3.75526e-05
3.80405e-05
3.84903e-05
3.88975e-05
3.9256e-05
3.95586e-05
3.97997e-05
3.99726e-05
4.00648e-05
4.01007e-05
4.00508e-05
3.99014e-05
3.96623e-05
3.9334e-05
3.89151e-05
3.84038e-05
3.77986e-05
3.70976e-05
3.62987e-05
3.5399e-05
3.43953e-05
3.32835e-05
3.2059e-05
3.07167e-05
2.92516e-05
2.7658e-05
2.59313e-05
2.4064e-05
2.20446e-05
1.98558e-05
1.74698e-05
1.48449e-05
1.19131e-05
8.56271e-06
4.72069e-06
1.1644e-06
9.19391e-09
1.32428e-08
1.65649e-06
6.54658e-06
1.15221e-05
1.5406e-05
1.83641e-05
2.06771e-05
2.25475e-05
2.41057e-05
2.5435e-05
2.65903e-05
2.7611e-05
2.85251e-05
2.9356e-05
3.01242e-05
3.08481e-05
3.15441e-05
3.22258e-05
3.2903e-05
3.35838e-05
3.42762e-05
3.49812e-05
3.56994e-05
3.64313e-05
3.71743e-05
3.79281e-05
3.86791e-05
3.94193e-05
4.01438e-05
4.08483e-05
4.15296e-05
4.21856e-05
4.28152e-05
4.3418e-05
4.39947e-05
4.45503e-05
4.50823e-05
4.55857e-05
4.60581e-05
4.64969e-05
4.68993e-05
4.72625e-05
4.75848e-05
4.78667e-05
4.81076e-05
4.83045e-05
4.84548e-05
4.85551e-05
4.86019e-05
4.8592e-05
4.85221e-05
4.83592e-05
4.82314e-05
4.79883e-05
4.76557e-05
4.72617e-05
4.68094e-05
4.62992e-05
4.57312e-05
4.51048e-05
4.44182e-05
4.36672e-05
4.28443e-05
4.19382e-05
4.09332e-05
3.98096e-05
3.85449e-05
3.71145e-05
3.54937e-05
3.36577e-05
3.15817e-05
2.9239e-05
2.65978e-05
2.36145e-05
2.02239e-05
1.63216e-05
1.17541e-05
6.46242e-06
1.58338e-06
1.23691e-08
1.71853e-08
2.13226e-06
8.31611e-06
1.45847e-05
1.95081e-05
2.3281e-05
2.62377e-05
2.86269e-05
3.06141e-05
3.2308e-05
3.37815e-05
3.50862e-05
3.62601e-05
3.73338e-05
3.83329e-05
3.92794e-05
4.0192e-05
4.10857e-05
4.19718e-05
4.28588e-05
4.37515e-05
4.46517e-05
4.55545e-05
4.64499e-05
4.73269e-05
4.81703e-05
4.8973e-05
4.97307e-05
5.04374e-05
5.1088e-05
5.16788e-05
5.22079e-05
5.26748e-05
5.30797e-05
5.34218e-05
5.37002e-05
5.39214e-05
5.40915e-05
5.42142e-05
5.42932e-05
5.43317e-05
5.43328e-05
5.42995e-05
5.42341e-05
5.41352e-05
5.40025e-05
5.38354e-05
5.36325e-05
5.3392e-05
5.3112e-05
5.27922e-05
5.23717e-05
5.19919e-05
5.16386e-05
5.11041e-05
5.05425e-05
4.99535e-05
4.93385e-05
4.87011e-05
4.80458e-05
4.73765e-05
4.66944e-05
4.59958e-05
4.52698e-05
4.44962e-05
4.36448e-05
4.26754e-05
4.15398e-05
4.01848e-05
3.85557e-05
3.65981e-05
3.42588e-05
3.14825e-05
2.82045e-05
2.43375e-05
1.97526e-05
1.42762e-05
7.87561e-06
1.94802e-06
1.53245e-08
2.11414e-08
2.58796e-06
9.93485e-06
1.73474e-05
2.32044e-05
2.77234e-05
3.12796e-05
3.4158e-05
3.65532e-05
3.8596e-05
4.03757e-05
4.19557e-05
4.33831e-05
4.46945e-05
4.592e-05
4.70838e-05
4.82055e-05
4.92998e-05
5.03763e-05
5.14398e-05
5.24899e-05
5.35211e-05
5.45226e-05
5.54803e-05
5.63791e-05
5.72044e-05
5.79468e-05
5.85937e-05
5.91373e-05
5.95737e-05
5.99027e-05
6.01269e-05
6.02521e-05
6.02858e-05
6.02378e-05
6.01171e-05
5.99326e-05
5.96949e-05
5.94139e-05
5.90988e-05
5.87575e-05
5.83966e-05
5.80212e-05
5.76343e-05
5.72371e-05
5.68292e-05
5.6409e-05
5.59734e-05
5.55185e-05
5.504e-05
5.45349e-05
5.39505e-05
5.33268e-05
5.28943e-05
5.22181e-05
5.14901e-05
5.07496e-05
4.99956e-05
4.92336e-05
4.84742e-05
4.77303e-05
4.70151e-05
4.63384e-05
4.57028e-05
4.50988e-05
4.45006e-05
4.38627e-05
4.31199e-05
4.21901e-05
4.09804e-05
3.9394e-05
3.73353e-05
3.47109e-05
3.14237e-05
2.73594e-05
2.23673e-05
1.62621e-05
9.0355e-06
2.26858e-06
1.80787e-08
2.50589e-08
3.02067e-06
1.14228e-05
1.98579e-05
2.65654e-05
3.17744e-05
3.58925e-05
3.92345e-05
4.20196e-05
4.43977e-05
4.64729e-05
4.83196e-05
4.99927e-05
5.15341e-05
5.29768e-05
5.4346e-05
5.56607e-05
5.69329e-05
5.81686e-05
5.93667e-05
6.05204e-05
6.1617e-05
6.26396e-05
6.35691e-05
6.43863e-05
6.50747e-05
6.56214e-05
6.60171e-05
6.62577e-05
6.63451e-05
6.62864e-05
6.60928e-05
6.57791e-05
6.53625e-05
6.48614e-05
6.42945e-05
6.36797e-05
6.30341e-05
6.23736e-05
6.17114e-05
6.10579e-05
6.04206e-05
5.98039e-05
5.92089e-05
5.86339e-05
5.80747e-05
5.75251e-05
5.69774e-05
5.64228e-05
5.58516e-05
5.52533e-05
5.46167e-05
5.38525e-05
5.3267e-05
5.26031e-05
5.17273e-05
5.08417e-05
4.99333e-05
4.90045e-05
4.80673e-05
4.7141e-05
4.62501e-05
4.54211e-05
4.46784e-05
4.40386e-05
4.35013e-05
4.30404e-05
4.25969e-05
4.20764e-05
4.13529e-05
4.028e-05
3.87036e-05
3.64716e-05
3.34349e-05
2.94377e-05
2.42993e-05
1.78184e-05
9.99997e-06
2.55467e-06
2.06731e-08
2.89024e-08
3.42882e-06
1.27967e-05
2.21502e-05
2.96426e-05
3.54958e-05
4.01443e-05
4.39283e-05
4.70877e-05
4.97895e-05
5.21508e-05
5.42556e-05
5.61656e-05
5.79269e-05
5.95739e-05
6.11318e-05
6.26168e-05
6.40371e-05
6.53927e-05
6.66761e-05
6.78727e-05
6.89629e-05
6.99236e-05
7.07311e-05
7.13639e-05
7.18049e-05
7.20432e-05
7.20754e-05
7.19055e-05
7.15456e-05
7.10145e-05
7.03359e-05
6.95374e-05
6.86485e-05
6.76988e-05
6.67166e-05
6.57278e-05
6.47549e-05
6.38164e-05
6.29257e-05
6.20915e-05
6.13174e-05
6.06023e-05
5.99411e-05
5.93254e-05
5.87446e-05
5.81862e-05
5.76369e-05
5.70832e-05
5.65116e-05
5.5909e-05
5.52659e-05
5.44873e-05
5.37455e-05
5.31518e-05
5.22087e-05
5.12128e-05
5.01767e-05
4.90921e-05
4.79647e-05
4.68114e-05
4.56602e-05
4.45463e-05
4.35114e-05
4.25996e-05
4.18487e-05
4.12764e-05
4.08647e-05
4.05444e-05
4.01875e-05
3.96127e-05
3.86026e-05
3.69264e-05
3.43561e-05
3.06679e-05
2.56299e-05
1.90089e-05
1.08033e-05
2.81245e-06
2.31409e-08
3.26478e-08
3.81252e-06
1.40625e-05
2.42536e-05
3.24743e-05
3.89328e-05
4.40852e-05
4.82926e-05
5.18131e-05
5.48283e-05
5.74669e-05
5.98211e-05
6.19583e-05
6.39272e-05
6.5763e-05
6.74888e-05
6.91171e-05
7.06505e-05
7.20821e-05
7.33967e-05
7.45723e-05
7.55821e-05
7.63978e-05
7.69929e-05
7.73457e-05
7.74422e-05
7.72782e-05
7.686e-05
7.62048e-05
7.53395e-05
7.42985e-05
7.31221e-05
7.18527e-05
7.05332e-05
6.92038e-05
6.79006e-05
6.66533e-05
6.54849e-05
6.44108e-05
6.34388e-05
6.25696e-05
6.17977e-05
6.11126e-05
6.05002e-05
5.99439e-05
5.94263e-05
5.893e-05
5.8438e-05
5.79343e-05
5.74042e-05
5.68347e-05
5.62156e-05
5.55e-05
5.46594e-05
5.40171e-05
5.3198e-05
5.21322e-05
5.10257e-05
4.98495e-05
4.85932e-05
4.72608e-05
4.58737e-05
4.4464e-05
4.30733e-05
4.17577e-05
4.05842e-05
3.96167e-05
3.89001e-05
3.84336e-05
3.81421e-05
3.78594e-05
3.73333e-05
3.62536e-05
3.42884e-05
3.11104e-05
2.64009e-05
1.9864e-05
1.1462e-05
3.0449e-06
2.54992e-08
3.62791e-08
4.17213e-06
1.5228e-05
2.61889e-05
3.50895e-05
4.21197e-05
4.77527e-05
5.23673e-05
5.6237e-05
5.95564e-05
6.24637e-05
6.50584e-05
6.74119e-05
6.95748e-05
7.15812e-05
7.34513e-05
7.51925e-05
7.68006e-05
7.82612e-05
7.95511e-05
8.06406e-05
8.14971e-05
8.20888e-05
8.23886e-05
8.23781e-05
8.20507e-05
8.14135e-05
8.0488e-05
7.93089e-05
7.79224e-05
7.63823e-05
7.47467e-05
7.30736e-05
7.14172e-05
6.98246e-05
6.83336e-05
6.69711e-05
6.57531e-05
6.46845e-05
6.3761e-05
6.29705e-05
6.22951e-05
6.17134e-05
6.12024e-05
6.07391e-05
6.03019e-05
5.98719e-05
5.94323e-05
5.89681e-05
5.84664e-05
5.7918e-05
5.73176e-05
5.66598e-05
5.58569e-05
5.50614e-05
5.43733e-05
5.33658e-05
5.22405e-05
5.10579e-05
4.97805e-05
4.83825e-05
4.68722e-05
4.52744e-05
4.36135e-05
4.19308e-05
4.03019e-05
3.88085e-05
3.75472e-05
3.65978e-05
3.59841e-05
3.56277e-05
3.53156e-05
3.47037e-05
3.33597e-05
3.08208e-05
2.66342e-05
2.03934e-05
1.1981e-05
3.25274e-06
2.77512e-08
3.97859e-08
4.50839e-06
1.63009e-05
2.79727e-05
3.75105e-05
4.50826e-05
5.11753e-05
5.61824e-05
6.03907e-05
6.40053e-05
6.71729e-05
6.99985e-05
7.25566e-05
7.48981e-05
7.70553e-05
7.90438e-05
8.08651e-05
8.25076e-05
8.39487e-05
8.51573e-05
8.60973e-05
8.67315e-05
8.70268e-05
8.69592e-05
8.65175e-05
8.57076e-05
8.45529e-05
8.30951e-05
8.1391e-05
7.95093e-05
7.75248e-05
7.55128e-05
7.35436e-05
7.16772e-05
6.99601e-05
6.84234e-05
6.70822e-05
6.59372e-05
6.4977e-05
6.41806e-05
6.35213e-05
6.29694e-05
6.24945e-05
6.20682e-05
6.16652e-05
6.12644e-05
6.0849e-05
6.04072e-05
5.99291e-05
5.94064e-05
5.88395e-05
5.82397e-05
5.75904e-05
5.68685e-05
5.60218e-05
5.52551e-05
5.44577e-05
5.33611e-05
5.22239e-05
5.10415e-05
4.97172e-05
4.82315e-05
4.66071e-05
4.48601e-05
4.29761e-05
4.10365e-05
3.90919e-05
3.72587e-05
3.56647e-05
3.44271e-05
3.35994e-05
3.30975e-05
3.2644e-05
3.17706e-05
2.98836e-05
2.63532e-05
2.0599e-05
1.23594e-05
3.43543e-06
2.98905e-08
4.31622e-08
4.82222e-06
1.72882e-05
2.96185e-05
3.97553e-05
4.78423e-05
5.43758e-05
5.97617e-05
6.42981e-05
6.81991e-05
7.16183e-05
7.46647e-05
7.74146e-05
7.99182e-05
8.22044e-05
8.42838e-05
8.6151e-05
8.77864e-05
8.91594e-05
9.02318e-05
9.09619e-05
9.13106e-05
9.12467e-05
9.07529e-05
8.98304e-05
8.85022e-05
8.68138e-05
8.48313e-05
8.26371e-05
8.03235e-05
7.79851e-05
7.57102e-05
7.35743e-05
7.16345e-05
6.99264e-05
6.84645e-05
6.7244e-05
6.62449e-05
6.5436e-05
6.47802e-05
6.42382e-05
6.37722e-05
6.33478e-05
6.29363e-05
6.25155e-05
6.2069e-05
6.15858e-05
6.10628e-05
6.05003e-05
5.98908e-05
5.92348e-05
5.85111e-05
5.77406e-05
5.69551e-05
5.61711e-05
5.53529e-05
5.45487e-05
5.37682e-05
5.28431e-05
5.18317e-05
5.07328e-05
4.94377e-05
4.79118e-05
4.62937e-05
4.44162e-05
4.24104e-05
4.02284e-05
3.79997e-05
3.58384e-05
3.39017e-05
3.23514e-05
3.12701e-05
3.05542e-05
2.98278e-05
2.84476e-05
2.56057e-05
2.04858e-05
1.25955e-05
3.59229e-06
3.191e-08
4.64046e-08
5.11465e-06
1.81959e-05
3.11376e-05
4.18384e-05
5.04155e-05
5.73719e-05
6.31236e-05
6.79779e-05
7.21564e-05
7.58179e-05
7.90743e-05
8.20022e-05
8.46501e-05
8.70425e-05
8.91842e-05
9.10622e-05
9.26491e-05
9.39067e-05
9.47905e-05
9.52557e-05
9.52636e-05
9.47889e-05
9.38257e-05
9.23925e-05
9.05348e-05
8.83245e-05
8.58557e-05
8.32376e-05
8.05847e-05
7.80061e-05
7.55954e-05
7.34228e-05
7.15313e-05
6.99354e-05
6.86251e-05
6.75707e-05
6.673e-05
6.60541e-05
6.54935e-05
6.5002e-05
6.45395e-05
6.40735e-05
6.35808e-05
6.30475e-05
6.24654e-05
6.18272e-05
6.11348e-05
6.0396e-05
5.96291e-05
5.88471e-05
5.80706e-05
5.73006e-05
5.65236e-05
5.57331e-05
5.492e-05
5.40982e-05
5.32488e-05
5.23642e-05
5.14902e-05
5.0578e-05
4.96635e-05
4.86763e-05
4.73862e-05
4.57057e-05
4.38923e-05
4.17191e-05
3.93856e-05
3.69096e-05
3.44327e-05
3.2159e-05
3.02933e-05
2.89375e-05
2.79351e-05
2.67507e-05
2.4488e-05
2.00747e-05
1.2691e-05
3.72358e-06
3.38114e-08
4.95115e-08
5.38668e-06
1.90296e-05
3.25398e-05
4.3772e-05
5.28159e-05
6.01783e-05
6.62831e-05
7.1445e-05
7.58916e-05
7.97855e-05
8.32401e-05
8.63315e-05
8.91048e-05
9.15799e-05
9.37546e-05
9.56086e-05
9.71065e-05
9.82035e-05
9.88507e-05
9.90025e-05
9.86242e-05
9.77003e-05
9.62414e-05
9.42883e-05
9.19139e-05
8.922e-05
8.63301e-05
8.33784e-05
8.04963e-05
7.7799e-05
7.5374e-05
7.32749e-05
7.15193e-05
7.00931e-05
6.89578e-05
6.80591e-05
6.73356e-05
6.67265e-05
6.61765e-05
6.56391e-05
6.50785e-05
6.44685e-05
6.37981e-05
6.30701e-05
6.22896e-05
6.1445e-05
6.05732e-05
5.97004e-05
5.88172e-05
5.79429e-05
5.70728e-05
5.62278e-05
5.54208e-05
5.46666e-05
5.39491e-05
5.32568e-05
5.25573e-05
5.18329e-05
5.1045e-05
5.01044e-05
4.91182e-05
4.82667e-05
4.72133e-05
4.63562e-05
4.49857e-05
4.3037e-05
4.09269e-05
3.84419e-05
3.5715e-05
3.29346e-05
3.03372e-05
2.81653e-05
2.65155e-05
2.5115e-05
2.31644e-05
1.94159e-05
1.26549e-05
3.83171e-06
3.56196e-08
5.24807e-08
5.63914e-06
1.97931e-05
3.38358e-05
4.55651e-05
5.50546e-05
6.28068e-05
6.9252e-05
7.4711e-05
7.94159e-05
8.35316e-05
8.7172e-05
9.04113e-05
9.32907e-05
9.58243e-05
9.8003e-05
9.97987e-05
0.000101169
0.000102064
0.000102432
0.00010223
0.000101431
0.000100034
9.80713e-05
9.56099e-05
9.27542e-05
8.96375e-05
8.64114e-05
8.32301e-05
8.02331e-05
7.75301e-05
7.51906e-05
7.32399e-05
7.16635e-05
7.04152e-05
6.9429e-05
6.86307e-05
6.79466e-05
6.73113e-05
6.66711e-05
6.59861e-05
6.52334e-05
6.43866e-05
6.34574e-05
6.24849e-05
6.14887e-05
6.0412e-05
5.93309e-05
5.82668e-05
5.72231e-05
5.62572e-05
5.53145e-05
5.44108e-05
5.355e-05
5.27878e-05
5.20714e-05
5.14068e-05
5.07902e-05
5.02156e-05
4.96701e-05
4.91339e-05
4.85716e-05
4.77054e-05
4.67212e-05
4.58309e-05
4.47738e-05
4.3764e-05
4.22112e-05
3.99592e-05
3.72922e-05
3.43322e-05
3.12593e-05
2.8351e-05
2.58805e-05
2.38885e-05
2.18689e-05
1.86015e-05
1.25079e-05
3.92316e-06
3.74027e-08
5.53105e-08
5.87292e-06
2.04904e-05
3.50331e-05
4.72259e-05
5.71406e-05
6.52671e-05
7.20401e-05
7.77853e-05
8.27379e-05
8.70642e-05
9.08774e-05
9.42484e-05
9.72141e-05
9.97821e-05
0.000101936
0.000103641
0.000104849
0.000105505
0.000105558
0.000104971
0.00010373
0.000101851
9.93925e-05
9.64538e-05
9.31713e-05
8.97095e-05
8.62433e-05
8.29385e-05
7.99315e-05
7.73141e-05
7.51262e-05
7.3358e-05
7.19595e-05
7.08547e-05
6.99557e-05
6.91757e-05
6.84372e-05
6.76775e-05
6.6854e-05
6.59302e-05
6.49457e-05
6.37873e-05
6.25834e-05
6.14298e-05
6.02128e-05
5.8933e-05
5.7634e-05
5.64943e-05
5.5408e-05
5.44149e-05
5.35593e-05
5.27557e-05
5.18194e-05
5.10809e-05
5.036e-05
4.9678e-05
4.90431e-05
4.84588e-05
4.79289e-05
4.74462e-05
4.69963e-05
4.6565e-05
4.60766e-05
4.52085e-05
4.42588e-05
4.31988e-05
4.23185e-05
4.10126e-05
3.86902e-05
3.59031e-05
3.27113e-05
2.93415e-05
2.61264e-05
2.33443e-05
2.08736e-05
1.77743e-05
1.22867e-05
4.01226e-06
3.93029e-08
5.80008e-08
6.08889e-06
2.1126e-05
3.61338e-05
4.87625e-05
5.90822e-05
6.75671e-05
7.46551e-05
8.06753e-05
8.58647e-05
9.03898e-05
9.43618e-05
9.78482e-05
0.00010088
0.000103459
0.000105561
0.000107146
0.000108158
0.000108544
0.000108256
0.000107263
0.000105569
0.000103214
0.000100287
9.69177e-05
9.32776e-05
8.95576e-05
8.59488e-05
8.26178e-05
7.96853e-05
7.72141e-05
7.5207e-05
7.36159e-05
7.2358e-05
7.13332e-05
7.04405e-05
6.95893e-05
6.87059e-05
6.77322e-05
6.66831e-05
6.53312e-05
6.40159e-05
6.29082e-05
6.14799e-05
5.98355e-05
5.84914e-05
5.72523e-05
5.60761e-05
5.5026e-05
5.41072e-05
5.32188e-05
5.25408e-05
5.19764e-05
5.11754e-05
5.04872e-05
4.9764e-05
4.90124e-05
4.82514e-05
4.75026e-05
4.68027e-05
4.6179e-05
4.55786e-05
4.50731e-05
4.46463e-05
4.42316e-05
4.35463e-05
4.24945e-05
4.16548e-05
4.07159e-05
3.94935e-05
3.72116e-05
3.42744e-05
3.08133e-05
2.71233e-05
2.35899e-05
2.042e-05
1.71215e-05
1.20577e-05
4.11647e-06
4.15728e-08
6.05513e-08
6.28778e-06
2.17027e-05
3.71414e-05
5.01807e-05
6.08856e-05
6.97135e-05
7.71036e-05
8.3387e-05
8.88017e-05
9.35131e-05
9.76299e-05
0.000101215
0.000104294
0.000106861
0.000108886
0.000110323
0.000111114
0.000111205
0.000110555
0.000109147
0.000107004
0.000104194
0.000100836
9.70967e-05
9.31762e-05
8.92865e-05
8.56249e-05
8.23469e-05
7.95465e-05
7.72492e-05
7.54174e-05
7.39671e-05
7.27887e-05
7.1767e-05
7.07969e-05
6.97945e-05
6.87094e-05
6.7303e-05
6.5797e-05
6.46536e-05
6.30955e-05
6.13605e-05
5.98674e-05
5.84005e-05
5.71208e-05
5.60445e-05
5.5145e-05
5.44202e-05
5.38487e-05
5.33081e-05
5.29905e-05
5.26656e-05
5.20869e-05
5.16268e-05
5.10726e-05
5.04086e-05
4.96024e-05
4.86429e-05
4.75422e-05
4.63655e-05
4.52874e-05
4.43189e-05
4.35435e-05
4.28838e-05
4.23043e-05
4.17906e-05
4.08947e-05
4.01852e-05
3.91158e-05
3.79143e-05
3.55549e-05
3.23832e-05
2.85877e-05
2.45407e-05
2.06403e-05
1.68405e-05
1.19142e-05
4.26222e-06
4.46422e-08
6.29616e-08
6.47017e-06
2.22231e-05
3.80598e-05
5.14852e-05
6.25561e-05
7.17116e-05
7.93906e-05
8.59251e-05
9.15531e-05
9.64382e-05
0.000100685
0.000104353
0.000107459
0.000109994
0.000111919
0.000113185
0.000113734
0.000113513
0.000112491
0.000110669
0.000108092
0.000104858
0.000101121
9.70788e-05
9.2957e-05
8.89801e-05
8.53405e-05
8.21715e-05
7.95318e-05
7.74057e-05
7.57168e-05
7.4351e-05
7.31803e-05
7.2083e-05
7.09559e-05
6.96826e-05
6.79843e-05
6.662e-05
6.52366e-05
6.3354e-05
6.16591e-05
6.00011e-05
5.85612e-05
5.7324e-05
5.63577e-05
5.56737e-05
5.52286e-05
5.4962e-05
5.48271e-05
5.47881e-05
5.47868e-05
5.47001e-05
5.45457e-05
5.43256e-05
5.39518e-05
5.34174e-05
5.26987e-05
5.17792e-05
5.06554e-05
4.9332e-05
4.78182e-05
4.60957e-05
4.42457e-05
4.26165e-05
4.15432e-05
4.07611e-05
4.01888e-05
3.93236e-05
3.86454e-05
3.75169e-05
3.62412e-05
3.36823e-05
3.01726e-05
2.59606e-05
2.15094e-05
1.70815e-05
1.19629e-05
4.48288e-06
4.91891e-08
6.52304e-08
6.63658e-06
2.26894e-05
3.8892e-05
5.26799e-05
6.40979e-05
7.35656e-05
8.15203e-05
8.82936e-05
9.41226e-05
9.91683e-05
0.000103532
0.000107265
0.000110382
0.000112865
0.000114672
0.000115748
0.000116038
0.000115496
0.000114102
0.000111876
0.00010889
0.000105275
0.000101217
9.69417e-05
9.26937e-05
8.86999e-05
8.51373e-05
8.21084e-05
7.96316e-05
7.76503e-05
7.60543e-05
7.47077e-05
7.34756e-05
7.22421e-05
7.07476e-05
6.89178e-05
6.76008e-05
6.59053e-05
6.39812e-05
6.20924e-05
6.03947e-05
5.89097e-05
5.77484e-05
5.69284e-05
5.64481e-05
5.62712e-05
5.63928e-05
5.65893e-05
5.67615e-05
5.71307e-05
5.73824e-05
5.75219e-05
5.75571e-05
5.74355e-05
5.71266e-05
5.66123e-05
5.58785e-05
5.49475e-05
5.38231e-05
5.24927e-05
5.09434e-05
4.92351e-05
4.73637e-05
4.52642e-05
4.28232e-05
4.06075e-05
3.93634e-05
3.85412e-05
3.76374e-05
3.69982e-05
3.58287e-05
3.44005e-05
3.15279e-05
2.7536e-05
2.28497e-05
1.78733e-05
1.2322e-05
4.8182e-06
5.6246e-08
6.73563e-08
6.78744e-06
2.31033e-05
3.96408e-05
5.3768e-05
6.55146e-05
7.52791e-05
8.3496e-05
9.04956e-05
9.65132e-05
0.000101707
0.000106172
0.000109957
0.000113068
0.000115483
0.000117155
0.000118029
0.000118051
0.000117185
0.000115426
0.000112817
0.000109458
0.00010551
0.000101191
9.67502e-05
9.24417e-05
8.84853e-05
8.5034e-05
8.21532e-05
7.98202e-05
7.79415e-05
7.63807e-05
7.49916e-05
7.36403e-05
7.19706e-05
7.00319e-05
6.86752e-05
6.68043e-05
6.47698e-05
6.27769e-05
6.09659e-05
5.94543e-05
5.8322e-05
5.76182e-05
5.73303e-05
5.73879e-05
5.78803e-05
5.83271e-05
5.86859e-05
5.94041e-05
5.99245e-05
6.03382e-05
6.05993e-05
6.06684e-05
6.0525e-05
6.01722e-05
5.9608e-05
5.88287e-05
5.78252e-05
5.66031e-05
5.51809e-05
5.35868e-05
5.1857e-05
5.00549e-05
4.81337e-05
4.58764e-05
4.33424e-05
4.03493e-05
3.8073e-05
3.69407e-05
3.59056e-05
3.53016e-05
3.40099e-05
3.2336e-05
2.89526e-05
2.43814e-05
1.91011e-05
1.30862e-05
5.30252e-06
6.73207e-08
6.93377e-08
6.92313e-06
2.34665e-05
4.03084e-05
5.47521e-05
6.68088e-05
7.6855e-05
8.53205e-05
9.25338e-05
9.87275e-05
0.000104056
0.000108611
0.000112433
0.000115525
0.000117857
0.000119383
0.000120046
0.000119798
0.000118614
0.000116506
0.000113541
0.000109849
0.000105621
0.000101101
9.65554e-05
9.22395e-05
8.83576e-05
8.50317e-05
8.22882e-05
8.00655e-05
7.8239e-05
7.66564e-05
7.51722e-05
7.3411e-05
7.13232e-05
6.98918e-05
6.79467e-05
6.578e-05
6.36745e-05
6.1741e-05
6.01498e-05
5.90023e-05
5.83529e-05
5.81833e-05
5.85087e-05
5.92644e-05
5.98938e-05
6.05023e-05
6.14931e-05
6.23113e-05
6.29884e-05
6.35209e-05
6.38735e-05
6.40357e-05
6.39965e-05
6.37396e-05
6.32567e-05
6.25336e-05
6.15473e-05
6.02834e-05
5.87634e-05
5.69531e-05
5.48891e-05
5.25975e-05
5.03154e-05
4.82252e-05
4.60436e-05
4.33069e-05
4.01481e-05
3.68827e-05
3.52927e-05
3.4055e-05
3.35078e-05
3.19476e-05
2.99604e-05
2.57864e-05
2.05358e-05
1.42509e-05
5.9401e-06
8.42355e-08
7.11725e-08
7.04397e-06
2.37804e-05
4.08966e-05
5.56344e-05
6.79829e-05
7.82954e-05
8.69961e-05
9.44106e-05
0.000100768
0.000106219
0.000110851
0.000114698
0.000117759
0.000119999
0.000121371
0.00012182
0.000121306
0.000119815
0.000117381
0.000114095
0.000110114
0.000105659
0.000100994
9.63944e-05
9.21103e-05
8.83229e-05
8.51201e-05
8.24897e-05
8.03356e-05
7.8509e-05
7.68492e-05
7.50846e-05
7.28204e-05
7.12418e-05
6.93244e-05
6.70454e-05
6.47911e-05
6.27176e-05
6.09947e-05
5.97645e-05
5.90943e-05
5.89751e-05
5.94765e-05
6.04665e-05
6.12982e-05
6.21198e-05
6.33313e-05
6.44837e-05
6.54562e-05
6.62841e-05
6.69353e-05
6.73833e-05
6.76152e-05
6.76289e-05
6.74309e-05
6.70171e-05
6.63864e-05
6.55305e-05
6.44015e-05
6.2941e-05
6.11241e-05
5.90073e-05
5.65224e-05
5.36602e-05
5.07551e-05
4.80425e-05
4.56017e-05
4.2917e-05
3.95769e-05
3.5702e-05
3.36028e-05
3.21558e-05
3.14328e-05
2.97739e-05
2.67586e-05
2.18984e-05
1.56276e-05
6.69875e-06
1.08696e-07
7.28586e-08
7.15025e-06
2.40464e-05
4.14073e-05
5.64167e-05
6.90389e-05
7.96025e-05
8.8525e-05
9.61282e-05
0.000102638
0.0001082
0.000112897
0.000116759
0.000119779
0.000121921
0.000123136
0.000123373
0.000122602
0.000120824
0.000118091
0.000114522
0.000110299
0.000105667
0.000100905
9.62923e-05
9.20652e-05
8.8378e-05
8.52833e-05
8.2734e-05
8.06057e-05
7.87286e-05
7.69174e-05
7.45654e-05
7.27219e-05
7.09e-05
6.85456e-05
6.61556e-05
6.39117e-05
6.20086e-05
6.06191e-05
5.98434e-05
5.9686e-05
6.02472e-05
6.14141e-05
6.25036e-05
6.34858e-05
6.48396e-05
6.6347e-05
6.76408e-05
6.87891e-05
6.97713e-05
7.05558e-05
7.11201e-05
7.14475e-05
7.15252e-05
7.1341e-05
7.08952e-05
7.01999e-05
6.92835e-05
6.81966e-05
6.68983e-05
6.53307e-05
6.3342e-05
6.0954e-05
5.8013e-05
5.47116e-05
5.14232e-05
4.80845e-05
4.48541e-05
4.20753e-05
3.8428e-05
3.41624e-05
3.17318e-05
3.02079e-05
2.928e-05
2.71925e-05
2.29256e-05
1.69132e-05
7.4685e-06
1.40995e-07
7.43941e-08
7.24226e-06
2.42655e-05
4.18419e-05
5.71007e-05
6.99784e-05
8.07781e-05
8.99092e-05
9.76889e-05
0.000104339
0.000110002
0.000114755
0.000118623
0.000121596
0.000123636
0.000124695
0.000124729
0.000123715
0.000121673
0.000118674
0.000114861
0.000110441
0.000105678
0.00010086
9.62642e-05
9.21068e-05
8.85137e-05
8.55042e-05
8.30012e-05
8.08605e-05
7.89059e-05
7.65722e-05
7.43159e-05
7.26363e-05
7.02793e-05
6.77762e-05
6.53541e-05
6.32292e-05
6.16075e-05
6.06338e-05
6.03441e-05
6.07892e-05
6.20571e-05
6.34656e-05
6.45853e-05
6.60284e-05
6.77602e-05
6.9439e-05
7.09085e-05
7.22294e-05
7.33633e-05
7.42809e-05
7.49596e-05
7.53812e-05
7.55313e-05
7.54001e-05
7.49835e-05
7.42818e-05
7.32986e-05
7.20405e-05
7.05743e-05
6.90082e-05
6.7234e-05
6.5114e-05
6.24382e-05
5.91674e-05
5.57152e-05
5.20371e-05
4.78414e-05
4.40726e-05
4.07557e-05
3.67689e-05
3.2114e-05
2.95519e-05
2.85805e-05
2.6669e-05
2.34349e-05
1.78463e-05
8.12744e-06
1.80664e-07
7.57769e-08
7.32024e-06
2.4439e-05
4.22018e-05
5.76879e-05
7.0803e-05
8.18239e-05
9.11505e-05
9.9095e-05
0.000105875
0.000111629
0.000116429
0.000120298
0.00012322
0.000125159
0.000126068
0.000125909
0.000124673
0.000122393
0.000119164
0.000115148
0.000110574
0.00010572
0.000100879
9.63174e-05
9.22322e-05
8.87194e-05
8.57674e-05
8.32733e-05
8.10748e-05
7.89016e-05
7.62203e-05
7.44357e-05
7.22771e-05
6.96568e-05
6.70702e-05
6.47046e-05
6.2791e-05
6.15244e-05
6.10044e-05
6.12136e-05
6.24053e-05
6.40046e-05
6.54274e-05
6.69361e-05
6.87346e-05
7.07014e-05
7.25517e-05
7.41986e-05
7.56805e-05
7.69578e-05
7.8003e-05
7.87934e-05
7.93096e-05
7.95361e-05
7.94608e-05
7.90764e-05
7.83813e-05
7.73808e-05
7.60884e-05
7.45227e-05
7.26957e-05
7.07318e-05
6.87058e-05
6.6377e-05
6.33336e-05
5.97048e-05
5.61266e-05
5.21571e-05
4.73729e-05
4.30412e-05
3.89981e-05
3.45e-05
2.95353e-05
2.70406e-05
2.61719e-05
2.34992e-05
1.83434e-05
8.59296e-06
2.25164e-07
7.70054e-08
7.38447e-06
2.45681e-05
4.24885e-05
5.81798e-05
7.15142e-05
8.27415e-05
9.22509e-05
0.000100349
0.00010725
0.000113086
0.000117927
0.000121791
0.000124663
0.000126504
0.000127272
0.000126938
0.000125502
0.000123015
0.000119591
0.000115411
0.000110722
0.000105811
0.000100971
9.64545e-05
9.24364e-05
8.89854e-05
8.60643e-05
8.35521e-05
8.12793e-05
7.86469e-05
7.62839e-05
7.4428e-05
7.17899e-05
6.90711e-05
6.64785e-05
6.42453e-05
6.26075e-05
6.17263e-05
6.16364e-05
6.25261e-05
6.41626e-05
6.58786e-05
6.74966e-05
6.94044e-05
7.14673e-05
7.35705e-05
7.55993e-05
7.74122e-05
7.90396e-05
8.04485e-05
8.16138e-05
8.25141e-05
8.31304e-05
8.34455e-05
8.34443e-05
8.31146e-05
8.24488e-05
8.14472e-05
8.01194e-05
7.84854e-05
7.65735e-05
7.44139e-05
7.20659e-05
6.97573e-05
6.7154e-05
6.37582e-05
5.97285e-05
5.59837e-05
5.16729e-05
4.63408e-05
4.13458e-05
3.68083e-05
3.16168e-05
2.69137e-05
2.48988e-05
2.29647e-05
1.84667e-05
8.96139e-06
2.73535e-07
7.80782e-08
7.43524e-06
2.4654e-05
4.27034e-05
5.8578e-05
7.21138e-05
8.35328e-05
9.32128e-05
0.000101454
0.000108466
0.000114378
0.000119255
0.000123114
0.000125936
0.000127687
0.000128327
0.000127836
0.000126226
0.000123565
0.000119981
0.000115676
0.000110907
0.000105967
0.000101143
9.66749e-05
9.27136e-05
8.93035e-05
8.63847e-05
8.38161e-05
8.13806e-05
7.84387e-05
7.64646e-05
7.41329e-05
7.13444e-05
6.85723e-05
6.60338e-05
6.3989e-05
6.2666e-05
6.21863e-05
6.25423e-05
6.40206e-05
6.59063e-05
6.76856e-05
6.96185e-05
7.18166e-05
7.41143e-05
7.6342e-05
7.8469e-05
8.04444e-05
8.22016e-05
8.37273e-05
8.50029e-05
8.60112e-05
8.67347e-05
8.7156e-05
8.72562e-05
8.70166e-05
8.64208e-05
8.54583e-05
8.413e-05
8.24512e-05
8.04537e-05
7.8182e-05
7.56829e-05
7.29836e-05
7.0369e-05
6.74074e-05
6.35784e-05
5.93455e-05
5.5353e-05
5.05663e-05
4.45389e-05
3.89988e-05
3.39641e-05
2.80437e-05
2.39005e-05
2.2526e-05
1.84938e-05
9.43648e-06
3.30239e-07
7.89947e-08
7.47281e-06
2.4698e-05
4.28481e-05
5.88841e-05
7.26033e-05
8.41997e-05
9.40384e-05
0.000102413
0.000109528
0.00011551
0.00012042
0.000124273
0.000127052
0.000128722
0.00012925
0.000128624
0.000126869
0.000124065
0.000120359
0.000115962
0.000111144
0.000106196
0.0001014
9.69774e-05
9.30601e-05
8.96717e-05
8.67386e-05
8.4119e-05
8.13243e-05
7.85588e-05
7.66137e-05
7.38591e-05
7.09776e-05
6.81905e-05
6.57494e-05
6.39243e-05
6.2918e-05
6.2792e-05
6.36982e-05
6.55242e-05
6.75562e-05
6.94625e-05
7.16837e-05
7.40963e-05
7.65498e-05
7.893e-05
8.11283e-05
8.31775e-05
8.50601e-05
8.66873e-05
8.80602e-05
8.91711e-05
9.00073e-05
9.05523e-05
9.07847e-05
9.06785e-05
9.02059e-05
8.93417e-05
8.80708e-05
8.63958e-05
8.43423e-05
8.19597e-05
7.93141e-05
7.64723e-05
7.34744e-05
7.0565e-05
6.71095e-05
6.27223e-05
5.85811e-05
5.41683e-05
4.88021e-05
4.17547e-05
3.58572e-05
3.0099e-05
2.4128e-05
2.14324e-05
1.83257e-05
1.00528e-05
3.99703e-07
7.97545e-08
7.49752e-06
2.47014e-05
4.29242e-05
5.91007e-05
7.29845e-05
8.47443e-05
9.47305e-05
0.000103229
0.000110441
0.000116488
0.00012143
0.000125281
0.000128023
0.000129625
0.000130059
0.000129323
0.000127451
0.000124538
0.000120742
0.000116286
0.000111444
0.000106505
0.000101742
9.73606e-05
9.34735e-05
9.00871e-05
8.71138e-05
8.43986e-05
8.13143e-05
7.88406e-05
7.65942e-05
7.36593e-05
7.07097e-05
6.79398e-05
6.56228e-05
6.40276e-05
6.33271e-05
6.35453e-05
6.49093e-05
6.69468e-05
6.90592e-05
7.11712e-05
7.36011e-05
7.6168e-05
7.87351e-05
8.12047e-05
8.35132e-05
8.55664e-05
8.75086e-05
8.92282e-05
9.0682e-05
9.18854e-05
9.28346e-05
9.35173e-05
9.39111e-05
9.39835e-05
9.36938e-05
9.29989e-05
9.18619e-05
9.0264e-05
8.8214e-05
8.57552e-05
8.29625e-05
7.99286e-05
7.6741e-05