/*--------------------------------*- C++ -*----------------------------------*\
  =========                 |
  \\      /  F ield         | OpenFOAM: The Open Source CFD Toolbox
   \\    /   O peration     | Website:  https://openfoam.org
    \\  /    A nd           | Version:  13
     \\/     M anipulation  |
\*---------------------------------------------------------------------------*/
FoamFile
{
    format      ascii;
    class       surfaceScalarField;
    location    "1.3";
    object      phi;
}
// * * * * * * * * * * * * * * * * * * * * * * * * * * * * * * * * * * * * * //

dimensions      [0 3 -1 0 0 0 0];

internalField   nonuniform List<scalar> 
12640
(
1.59862e-09
-1.59844e-09
3.5325e-09
-1.93388e-09
4.45186e-09
-9.19368e-10
3.92551e-09
5.26347e-10
2.04679e-09
1.87872e-09
-8.8119e-10
2.92797e-09
-4.55914e-09
3.67795e-09
-8.76037e-09
4.20123e-09
-1.33192e-08
4.55878e-09
-1.81201e-08
4.80099e-09
-2.30913e-08
4.97113e-09
-2.8191e-08
5.09973e-09
-3.33985e-08
5.20747e-09
-3.87072e-08
5.30875e-09
-4.41212e-08
5.41394e-09
-4.96518e-08
5.53064e-09
-5.53163e-08
5.66447e-09
-6.11356e-08
5.81936e-09
-6.71332e-08
5.99754e-09
-7.33326e-08
6.19947e-09
-7.97564e-08
6.42377e-09
-8.64237e-08
6.66732e-09
-9.33491e-08
6.92536e-09
-1.00541e-07
7.19161e-09
-1.07999e-07
7.4584e-09
-1.15716e-07
7.71707e-09
-1.23675e-07
7.95857e-09
-1.31849e-07
8.17408e-09
-1.40204e-07
8.35549e-09
-1.487e-07
8.4956e-09
-1.57288e-07
8.5881e-09
-1.65915e-07
8.6275e-09
-1.74524e-07
8.60885e-09
-1.83052e-07
8.52724e-09
-1.91429e-07
8.37744e-09
-1.99582e-07
8.15346e-09
-2.07431e-07
7.84831e-09
-2.14885e-07
7.45389e-09
-2.21846e-07
6.96115e-09
-2.28206e-07
6.36052e-09
-2.33849e-07
5.64255e-09
-2.38647e-07
4.79847e-09
-2.42466e-07
3.81844e-09
-2.45157e-07
2.69072e-09
-2.46604e-07
1.44744e-09
-2.46775e-07
1.70607e-10
-2.45424e-07
-1.35065e-09
-2.42494e-07
-2.93041e-09
-2.37926e-07
-4.56758e-09
-2.31677e-07
-6.24939e-09
-2.23738e-07
-7.93824e-09
-2.14141e-07
-9.59699e-09
-2.02968e-07
-1.11731e-08
-1.9036e-07
-1.26086e-08
-1.76492e-07
-1.38676e-08
-1.61578e-07
-1.49137e-08
-1.45865e-07
-1.5713e-08
-1.29628e-07
-1.62369e-08
-1.13164e-07
-1.64647e-08
-9.67794e-08
-1.63843e-08
-8.07743e-08
-1.60051e-08
-6.54193e-08
-1.5355e-08
-5.09575e-08
-1.44618e-08
-3.76012e-08
-1.33563e-08
-2.55244e-08
-1.20768e-08
-1.4859e-08
-1.06654e-08
-5.69445e-09
-9.16451e-09
1.92366e-09
-7.61811e-09
8.01521e-09
-6.09155e-09
1.25715e-08
-4.55629e-09
1.56387e-08
-3.06725e-09
1.72887e-08
-1.64994e-09
1.76092e-08
-3.20529e-10
1.67016e-08
9.07628e-10
1.46955e-08
2.00607e-09
1.17695e-08
2.92598e-09
8.22762e-09
3.54193e-09
4.55288e-09
3.67474e-09
1.48073e-09
3.07215e-09
1.48073e-09
1.98087e-09
-3.57931e-09
3.66434e-09
-3.61735e-09
2.87703e-09
-1.32061e-10
-7.91939e-10
4.19531e-09
-7.05073e-09
8.1375e-09
-1.53786e-08
1.12559e-08
-2.52459e-08
1.35452e-08
-3.6209e-08
1.51643e-08
-4.79421e-08
1.6292e-08
-6.02274e-08
1.70862e-08
-7.29191e-08
1.76629e-08
-8.5925e-08
1.81056e-08
-9.91916e-08
1.84741e-08
-1.12694e-07
1.88107e-08
-1.26426e-07
1.91459e-08
-1.40396e-07
1.95009e-08
-1.54621e-07
1.989e-08
-1.69123e-07
2.0321e-08
-1.83921e-07
2.0796e-08
-1.99033e-07
2.13106e-08
-2.14463e-07
2.18541e-08
-2.30206e-07
2.24106e-08
-2.46241e-07
2.29597e-08
-2.62526e-07
2.34775e-08
-2.79006e-07
2.39382e-08
-2.95605e-07
2.43157e-08
-3.12232e-07
2.45858e-08
-3.28786e-07
2.47278e-08
-3.45156e-07
2.47258e-08
-3.61229e-07
2.45682e-08
-3.76888e-07
2.42477e-08
-3.92021e-07
2.37598e-08
-4.06513e-07
2.31012e-08
-4.20254e-07
2.22688e-08
-4.33135e-07
2.12576e-08
-4.45042e-07
2.00605e-08
-4.5586e-07
1.8667e-08
-4.65471e-07
1.7064e-08
-4.73745e-07
1.5236e-08
-4.80552e-07
1.31671e-08
-4.85752e-07
1.08421e-08
-4.89203e-07
8.24975e-09
-4.90767e-07
5.38267e-09
-4.90303e-07
2.22615e-09
-4.87673e-07
-1.18232e-09
-4.82725e-07
-4.77692e-09
-4.75453e-07
-8.6227e-09
-4.65748e-07
-1.26352e-08
-4.53583e-07
-1.6733e-08
-4.38975e-07
-2.08569e-08
-4.2198e-07
-2.4934e-08
-4.02702e-07
-2.88745e-08
-3.81304e-07
-3.25718e-08
-3.58001e-07
-3.59112e-08
-3.33057e-07
-3.88119e-08
-3.06769e-07
-4.12016e-08
-2.79471e-07
-4.30107e-08
-2.51527e-07
-4.41807e-08
-2.23321e-07
-4.46714e-08
-1.95239e-07
-4.44661e-08
-1.67674e-07
-4.357e-08
-1.41014e-07
-4.20153e-08
-1.15616e-07
-3.98592e-08
-9.17977e-08
-3.71747e-08
-6.98275e-08
-3.4047e-08
-4.99236e-08
-3.05694e-08
-3.2251e-08
-2.68371e-08
-1.69259e-08
-2.29432e-08
-4.03939e-09
-1.8978e-08
6.4046e-09
-1.50003e-08
1.44105e-08
-1.10731e-08
1.99912e-08
-7.23064e-09
2.31973e-08
-3.5267e-09
2.41157e-08
-1.07685e-11
2.28237e-08
3.29815e-09
1.95326e-08
6.21706e-09
1.45912e-08
8.48332e-09
8.69173e-09
9.57419e-09
3.09395e-09
8.66993e-09
4.57468e-09
9.69785e-10
-4.54909e-09
1.19058e-10
-2.76662e-09
-4.02909e-09
4.01609e-09
-1.1425e-08
1.15912e-08
-2.14801e-08
1.81926e-08
-3.35978e-08
2.33736e-08
-4.7289e-08
2.72363e-08
-6.21662e-08
3.00415e-08
-7.7936e-08
3.20618e-08
-9.43814e-08
3.35316e-08
-1.1135e-07
3.46313e-08
-1.28739e-07
3.54949e-08
-1.46484e-07
3.62193e-08
-1.64548e-07
3.68741e-08
-1.8291e-07
3.75079e-08
-2.01562e-07
3.8153e-08
-2.205e-07
3.88282e-08
-2.39719e-07
3.95402e-08
-2.59207e-07
4.02843e-08
-2.78942e-07
4.1045e-08
-2.98885e-07
4.1797e-08
-3.18981e-07
4.25071e-08
-3.39158e-07
4.31369e-08
-3.59326e-07
4.36453e-08
-3.7938e-07
4.39921e-08
-3.99205e-07
4.41408e-08
-4.1868e-07
4.40605e-08
-4.37681e-07
4.37289e-08
-4.56087e-07
4.31322e-08
-4.73783e-07
4.22643e-08
-4.9066e-07
4.11246e-08
-5.06616e-07
3.97159e-08
-5.21556e-07
3.80409e-08
-5.35388e-07
3.61005e-08
-5.48021e-07
3.38911e-08
-5.59365e-07
3.14038e-08
-5.69322e-07
2.86243e-08
-5.77791e-07
2.55332e-08
-5.84663e-07
2.21078e-08
-5.89821e-07
1.8325e-08
-5.93142e-07
1.41636e-08
-5.94501e-07
9.60851e-09
-5.93768e-07
4.6498e-09
-5.90811e-07
-7.30975e-10
-5.85558e-07
-6.4353e-09
-5.77841e-07
-1.2494e-08
-5.67615e-07
-1.88489e-08
-5.54832e-07
-2.54175e-08
-5.39468e-07
-3.20978e-08
-5.21543e-07
-3.87814e-08
-5.01126e-07
-4.53509e-08
-4.78327e-07
-5.1674e-08
-4.5331e-07
-5.75881e-08
-4.26304e-07
-6.29172e-08
-3.97587e-07
-6.75295e-08
-3.67472e-07
-7.13168e-08
-3.3631e-07
-7.41723e-08
-3.04487e-07
-7.60039e-08
-2.7241e-07
-7.67478e-08
-2.40501e-07
-7.63752e-08
-2.09177e-07
-7.48946e-08
-1.78839e-07
-7.23532e-08
-1.49863e-07
-6.88354e-08
-1.22583e-07
-6.44548e-08
-9.72836e-08
-5.9346e-08
-7.41964e-08
-5.36566e-08
-5.34956e-08
-4.75379e-08
-3.53024e-08
-4.11364e-08
-1.96926e-08
-3.45878e-08
-6.69111e-09
-2.80018e-08
3.70948e-09
-2.14737e-08
1.15595e-08
-1.50807e-08
1.6903e-08
-8.87017e-09
1.98026e-08
-2.91035e-09
2.03668e-08
2.73395e-09
1.86907e-08
7.89314e-09
1.49614e-08
1.22126e-08
9.58709e-09
1.49485e-08
3.66832e-09
1.45887e-08
8.24301e-09
-6.66832e-10
-3.88226e-09
-4.7204e-09
1.28695e-09
-1.24066e-08
1.17023e-08
-2.29457e-08
2.21303e-08
-3.56789e-08
3.09258e-08
-5.01621e-08
3.78568e-08
-6.6055e-08
4.31292e-08
-8.30813e-08
4.70678e-08
-1.01017e-07
4.99972e-08
-1.19683e-07
5.21979e-08
-1.38945e-07
5.38936e-08
-1.58705e-07
5.52546e-08
-1.78892e-07
5.64066e-08
-1.99458e-07
5.744e-08
-2.20367e-07
5.84165e-08
-2.41589e-07
5.9375e-08
-2.63094e-07
6.03338e-08
-2.84848e-07
6.12935e-08
-3.06802e-07
6.22386e-08
-3.28898e-07
6.31406e-08
-3.51059e-07
6.39588e-08
-3.73197e-07
6.46446e-08
-3.95205e-07
6.51449e-08
-4.16968e-07
6.5408e-08
-4.38363e-07
6.53873e-08
-4.59267e-07
6.50447e-08
-4.79559e-07
6.43527e-08
-4.99126e-07
6.32962e-08
-5.17865e-07
6.18712e-08
-5.35683e-07
6.00823e-08
-5.52498e-07
5.79391e-08
-5.68235e-07
5.54528e-08
-5.82826e-07
5.26322e-08
-5.96206e-07
4.94802e-08
-6.08307e-07
4.59923e-08
-6.19058e-07
4.21547e-08
-6.28379e-07
3.79452e-08
-6.3618e-07
3.33347e-08
-6.42362e-07
2.82899e-08
-6.46814e-07
2.27769e-08
-6.49416e-07
1.67652e-08
-6.5004e-07
1.02323e-08
-6.48555e-07
3.16523e-09
-6.44855e-07
-4.43141e-09
-6.38773e-07
-1.2517e-08
-6.30211e-07
-2.10559e-08
-6.19082e-07
-2.99777e-08
-6.05322e-07
-3.91774e-08
-5.88895e-07
-4.85254e-08
-5.69804e-07
-5.78719e-08
-5.48106e-07
-6.70495e-08
-5.23898e-07
-7.5882e-08
-4.97325e-07
-8.41605e-08
-4.68602e-07
-9.16406e-08
-4.38014e-07
-9.81173e-08
-4.05885e-07
-1.03446e-07
-3.72582e-07
-1.07475e-07
-3.38515e-07
-1.10071e-07
-3.04126e-07
-1.11137e-07
-2.69873e-07
-1.10628e-07
-2.36216e-07
-1.08551e-07
-2.036e-07
-1.0497e-07
-1.72435e-07
-1e-07
-1.43088e-07
-9.38017e-08
-1.15867e-07
-8.65674e-08
-9.10139e-08
-7.85095e-08
-6.87054e-08
-6.98463e-08
-4.90525e-08
-6.07893e-08
-3.21086e-08
-5.15318e-08
-1.78719e-08
-4.22385e-08
-6.29881e-09
-3.30468e-08
2.68478e-09
-2.40643e-08
9.19073e-09
-1.53761e-08
1.33269e-08
-7.04648e-09
1.52299e-08
8.30868e-10
1.50159e-08
8.10722e-09
1.27941e-08
1.44343e-08
8.72354e-09
1.90191e-08
3.54162e-09
1.97706e-08
1.17846e-08
-2.45454e-09
-1.42772e-09
-9.65425e-09
8.48667e-09
-2.0407e-08
2.24551e-08
-3.34658e-08
3.51892e-08
-4.82342e-08
4.56941e-08
-6.44128e-08
5.40355e-08
-8.1797e-08
6.05133e-08
-1.00214e-07
6.54843e-08
-1.19508e-07
6.92921e-08
-1.39548e-07
7.22373e-08
-1.6022e-07
7.45659e-08
-1.81436e-07
7.64703e-08
-2.03124e-07
7.80946e-08
-2.25226e-07
7.95424e-08
-2.47693e-07
8.08828e-08
-2.70473e-07
8.21558e-08
-2.93515e-07
8.33756e-08
-3.16756e-07
8.45342e-08
-3.40122e-07
8.56046e-08
-3.63526e-07
8.65443e-08
-3.86866e-07
8.72993e-08
-4.10031e-07
8.78098e-08
-4.32901e-07
8.80148e-08
-4.55352e-07
8.78588e-08
-4.77261e-07
8.72966e-08
-4.98513e-07
8.62969e-08
-5.19005e-07
8.48439e-08
-5.38644e-07
8.29355e-08
-5.57354e-07
8.05809e-08
-5.75068e-07
7.77971e-08
-5.91734e-07
7.46045e-08
-6.07303e-07
7.10218e-08
-6.21732e-07
6.70614e-08
-6.34978e-07
6.27258e-08
-6.46991e-07
5.80056e-08
-6.57715e-07
5.28783e-08
-6.67079e-07
4.73102e-08
-6.75003e-07
4.12584e-08
-6.81388e-07
3.46744e-08
-6.86119e-07
2.75087e-08
-6.89071e-07
1.97165e-08
-6.90102e-07
1.12631e-08
-6.89067e-07
2.13087e-09
-6.85815e-07
-7.68359e-09
-6.80187e-07
-1.81446e-08
-6.72044e-07
-2.91988e-08
-6.61264e-07
-4.0758e-08
-6.47745e-07
-5.26965e-08
-6.31415e-07
-6.48556e-08
-6.12241e-07
-7.70459e-08
-5.90242e-07
-8.90487e-08
-5.65487e-07
-1.00636e-07
-5.38097e-07
-1.11551e-07
-5.08254e-07
-1.21483e-07
-4.76239e-07
-1.30132e-07
-4.42388e-07
-1.37297e-07
-4.07089e-07
-1.42774e-07
-3.70788e-07
-1.46371e-07
-3.3398e-07
-1.47946e-07
-2.97188e-07
-1.4742e-07
-2.60945e-07
-1.44794e-07
-2.2577e-07
-1.40144e-07
-1.92151e-07
-1.33619e-07
-1.60516e-07
-1.25437e-07
-1.31223e-07
-1.1586e-07
-1.04546e-07
-1.05187e-07
-8.06701e-08
-9.37218e-08
-5.96986e-08
-8.17608e-08
-4.16569e-08
-6.95734e-08
-2.65047e-08
-5.73907e-08
-1.41495e-08
-4.5402e-08
-4.45829e-09
-3.37555e-08
2.7288e-09
-2.25632e-08
7.59843e-09
-1.19161e-08
1.03314e-08
-1.90207e-09
1.11031e-08
7.33551e-09
1.00361e-08
1.55013e-08
7.21583e-09
2.18394e-08
3.08963e-09
2.38968e-08
1.48743e-08
-4.11542e-09
2.6877e-09
-1.41063e-08
1.84776e-08
-2.74028e-08
3.57515e-08
-4.25304e-08
5.03168e-08
-5.89649e-08
6.21287e-08
-7.65108e-08
7.15814e-08
-9.50596e-08
7.90621e-08
-1.14518e-07
8.49425e-08
-1.34792e-07
8.95661e-08
-1.5579e-07
9.3235e-08
-1.77425e-07
9.62013e-08
-1.99621e-07
9.86662e-08
-2.22308e-07
1.00782e-07
-2.45423e-07
1.02658e-07
-2.68905e-07
1.04364e-07
-2.92686e-07
1.05937e-07
-3.16695e-07
1.07385e-07
-3.40851e-07
1.08689e-07
-3.65058e-07
1.09812e-07
-3.89211e-07
1.10697e-07
-4.13194e-07
1.11283e-07
-4.36886e-07
1.11502e-07
-4.60165e-07
1.11293e-07
-4.82911e-07
1.10605e-07
-5.05015e-07
1.09401e-07
-5.2638e-07
1.07663e-07
-5.46925e-07
1.05389e-07
-5.66583e-07
1.02593e-07
-5.85302e-07
9.92995e-08
-6.03043e-07
9.55385e-08
-6.19779e-07
9.13407e-08
-6.35488e-07
8.67308e-08
-6.50149e-07
8.17226e-08
-6.63739e-07
7.63154e-08
-6.76225e-07
7.04916e-08
-6.87563e-07
6.42164e-08
-6.97692e-07
5.74396e-08
-7.06533e-07
5.00992e-08
-7.13985e-07
4.21259e-08
-7.19925e-07
3.34491e-08
-7.24212e-07
2.40032e-08
-7.26684e-07
1.37348e-08
-7.27168e-07
2.61514e-09
-7.25474e-07
-9.37742e-09
-7.21412e-07
-2.22069e-08
-7.14792e-07
-3.58184e-08
-7.05438e-07
-5.01122e-08
-6.9319e-07
-6.49444e-08
-6.77917e-07
-8.01286e-08
-6.59526e-07
-9.54368e-08
-6.37975e-07
-1.106e-07
-6.13281e-07
-1.2533e-07
-5.8552e-07
-1.39312e-07
-5.54838e-07
-1.52165e-07
-5.21484e-07
-1.63486e-07
-4.858e-07
-1.72981e-07
-4.48197e-07
-1.80377e-07
-4.09166e-07
-1.85403e-07
-3.6927e-07
-1.87841e-07
-3.29127e-07
-1.87564e-07
-2.89381e-07
-1.84541e-07
-2.50675e-07
-1.7885e-07
-2.13618e-07
-1.70676e-07
-1.78756e-07
-1.60298e-07
-1.46542e-07
-1.48074e-07
-1.17316e-07
-1.34412e-07
-9.12991e-08
-1.19739e-07
-6.85914e-08
-1.04469e-07
-4.91889e-08
-8.89759e-08
-3.29996e-08
-7.35799e-08
-1.98651e-08
-5.85366e-08
-9.57954e-09
-4.4041e-08
-1.90595e-09
-3.02368e-08
3.4097e-09
-1.72317e-08
6.62468e-09
-5.11704e-09
7.97913e-09
5.98106e-09
7.65902e-09
1.58214e-08
5.77506e-09
2.37234e-08
2.60421e-09
2.70677e-08
1.74785e-08
-5.58819e-09
8.27589e-09
-1.79016e-08
3.0791e-08
-3.32814e-08
5.11313e-08
-5.01287e-08
6.71642e-08
-6.79743e-08
7.99742e-08
-8.6686e-08
9.02931e-08
-1.06217e-07
9.85932e-08
-1.2653e-07
1.05256e-07
-1.47579e-07
1.10615e-07
-1.69308e-07
1.14963e-07
-1.91654e-07
1.18547e-07
-2.14554e-07
1.21566e-07
-2.37943e-07
1.24172e-07
-2.61756e-07
1.26471e-07
-2.85922e-07
1.2853e-07
-3.10364e-07
1.30379e-07
-3.34996e-07
1.32017e-07
-3.59721e-07
1.33415e-07
-3.84433e-07
1.34524e-07
-4.09018e-07
1.35282e-07
-4.33354e-07
1.35619e-07
-4.57322e-07
1.3547e-07
-4.80807e-07
1.34778e-07
-5.03704e-07
1.33501e-07
-5.25921e-07
1.31617e-07
-5.47382e-07
1.29124e-07
-5.68029e-07
1.26036e-07
-5.87822e-07
1.22386e-07
-6.06736e-07
1.18214e-07
-6.24761e-07
1.13563e-07
-6.41894e-07
1.08474e-07
-6.58139e-07
1.02976e-07
-6.735e-07
9.70834e-08
-6.87974e-07
9.07889e-08
-7.01545e-07
8.40635e-08
-7.14185e-07
7.68562e-08
-7.25841e-07
6.90956e-08
-7.36436e-07
6.06944e-08
-7.45866e-07
5.15558e-08
-7.53998e-07
4.15803e-08
-7.60668e-07
3.06734e-08
-7.65687e-07
1.87545e-08
-7.68841e-07
5.76886e-09
-7.69899e-07
-8.31928e-09
-7.68609e-07
-2.34968e-08
-7.64717e-07
-3.97109e-08
-7.57969e-07
-5.68597e-08
-7.48126e-07
-7.47872e-08
-7.34972e-07
-9.32828e-08
-7.18327e-07
-1.12082e-07
-6.98061e-07
-1.30866e-07
-6.74115e-07
-1.49277e-07
-6.46491e-07
-1.66936e-07
-6.15279e-07
-1.83377e-07
-5.80669e-07
-1.98096e-07
-5.42993e-07
-2.10657e-07
-5.02669e-07
-2.20701e-07
-4.60229e-07
-2.27843e-07
-4.16314e-07
-2.31756e-07
-3.71658e-07
-2.3222e-07
-3.27052e-07
-2.29146e-07
-2.83316e-07
-2.22586e-07
-2.41252e-07
-2.1274e-07
-2.01596e-07
-1.99954e-07
-1.64974e-07
-1.84697e-07
-1.3186e-07
-1.67526e-07
-1.02557e-07
-1.49041e-07
-7.71951e-08
-1.29831e-07
-5.57426e-08
-1.10428e-07
-3.80423e-08
-9.12803e-08
-2.38446e-08
-7.27342e-08
-1.28424e-08
-5.50432e-08
-4.69753e-09
-3.83817e-08
9.38615e-10
-2.28679e-08
4.41437e-09
-8.5928e-09
6.04721e-09
4.34822e-09
6.10649e-09
1.57621e-08
4.77089e-09
2.5059e-08
2.25141e-09
2.95872e-08
1.97299e-08
-6.84162e-09
1.51175e-08
-2.10407e-08
4.49901e-08
-3.81143e-08
6.82049e-08
-5.63957e-08
8.54455e-08
-7.54476e-08
9.90261e-08
-9.51719e-08
1.10017e-07
-1.15558e-07
1.18979e-07
-1.36605e-07
1.26303e-07
-1.58302e-07
1.32312e-07
-1.80621e-07
1.37282e-07
-2.0352e-07
1.41447e-07
-2.2695e-07
1.44996e-07
-2.50851e-07
1.48073e-07
-2.75157e-07
1.50777e-07
-2.99793e-07
1.53166e-07
-3.24676e-07
1.55262e-07
-3.49711e-07
1.57051e-07
-3.74793e-07
1.58498e-07
-3.99813e-07
1.59543e-07
-4.24652e-07
1.60121e-07
-4.49196e-07
1.60163e-07
-4.73332e-07
1.59607e-07
-4.9696e-07
1.58406e-07
-5.19991e-07
1.56532e-07
-5.42355e-07
1.53981e-07
-5.63999e-07
1.50768e-07
-5.84893e-07
1.4693e-07
-6.05022e-07
1.42515e-07
-6.24392e-07
1.37583e-07
-6.4302e-07
1.32191e-07
-6.60935e-07
1.26388e-07
-6.78168e-07
1.20209e-07
-6.94751e-07
1.13666e-07
-7.10706e-07
1.06744e-07
-7.26042e-07
9.93998e-08
-7.40747e-07
9.15612e-08
-7.54781e-07
8.31298e-08
-7.68073e-07
7.3986e-08
-7.80513e-07
6.39963e-08
-7.91955e-07
5.30217e-08
-8.02209e-07
4.09272e-08
-8.11047e-07
2.75926e-08
-8.18202e-07
1.29237e-08
-8.23384e-07
-3.13737e-09
-8.2626e-07
-2.06209e-08
-8.26489e-07
-3.94813e-08
-8.2372e-07
-5.96285e-08
-8.17609e-07
-8.08988e-08
-8.07828e-07
-1.03063e-07
-7.94087e-07
-1.25823e-07
-7.76143e-07
-1.48811e-07
-7.53826e-07
-1.71593e-07
-7.27049e-07
-1.93714e-07
-6.95806e-07
-2.1462e-07
-6.60216e-07
-2.33686e-07
-6.20549e-07
-2.50324e-07
-5.77211e-07
-2.64039e-07
-5.3075e-07
-2.74304e-07
-4.81869e-07
-2.80636e-07
-4.31415e-07
-2.82675e-07
-3.80345e-07
-2.80216e-07
-3.29698e-07
-2.73234e-07
-2.80536e-07
-2.61903e-07
-2.33883e-07
-2.46607e-07
-1.9065e-07
-2.27929e-07
-1.51564e-07
-2.06612e-07
-1.17116e-07
-1.8349e-07
-8.75322e-08
-1.59414e-07
-6.27918e-08
-1.35169e-07
-4.26661e-08
-1.11406e-07
-2.67826e-08
-8.86177e-08
-1.46865e-08
-6.71393e-08
-5.89136e-09
-4.71768e-08
8.71724e-11
-2.88464e-08
3.70986e-09
-1.22155e-08
5.40148e-09
2.65661e-09
5.52433e-09
1.56393e-08
4.34802e-09
2.62353e-08
2.09938e-09
3.18358e-08
2.18293e-08
-7.87644e-09
2.2994e-08
-2.35863e-08
6.07e-08
-4.20286e-08
8.66472e-08
-6.15017e-08
1.04919e-07
-8.15821e-08
1.19106e-07
-1.02186e-07
1.30621e-07
-1.2332e-07
1.40114e-07
-1.45009e-07
1.47992e-07
-1.67262e-07
1.54565e-07
-1.90073e-07
1.60093e-07
-2.13418e-07
1.64792e-07
-2.37258e-07
1.68836e-07
-2.61541e-07
1.72356e-07
-2.86203e-07
1.75438e-07
-3.11167e-07
1.7813e-07
-3.36347e-07
1.80441e-07
-3.61644e-07
1.82349e-07
-3.86955e-07
1.83808e-07
-4.12169e-07
1.84757e-07
-4.37175e-07
1.85127e-07
-4.61867e-07
1.84854e-07
-4.86146e-07
1.83886e-07
-5.09929e-07
1.82189e-07
-5.33149e-07
1.79753e-07
-5.55759e-07
1.76591e-07
-5.77734e-07
1.72743e-07
-5.9907e-07
1.68266e-07
-6.19785e-07
1.6323e-07
-6.39916e-07
1.57714e-07
-6.59513e-07
1.51789e-07
-6.78641e-07
1.45516e-07
-6.97367e-07
1.38935e-07
-7.15757e-07
1.32056e-07
-7.33869e-07
1.24856e-07
-7.5174e-07
1.17271e-07
-7.69384e-07
1.09205e-07
-7.86776e-07
1.00522e-07
-8.0385e-07
9.10601e-08
-8.20491e-07
8.06368e-08
-8.36528e-07
6.9059e-08
-8.51736e-07
5.61357e-08
-8.65834e-07
4.16906e-08
-8.78485e-07
2.55741e-08
-8.89311e-07
7.68909e-09
-8.97896e-07
-1.20362e-08
-9.03776e-07
-3.36008e-08
-9.06484e-07
-5.69209e-08
-9.05552e-07
-8.1831e-08
-9.00525e-07
-1.08089e-07
-8.90983e-07
-1.35366e-07
-8.76549e-07
-1.63244e-07
-8.56925e-07
-1.91218e-07
-8.31907e-07
-2.18731e-07
-8.01381e-07
-2.45146e-07
-7.65367e-07
-2.697e-07
-7.24029e-07
-2.91661e-07
-6.77722e-07
-3.10346e-07
-6.26966e-07
-3.2506e-07
-5.72479e-07
-3.35123e-07
-5.15179e-07
-3.39975e-07
-4.56168e-07
-3.39227e-07
-3.96694e-07
-3.32707e-07
-3.38113e-07
-3.20484e-07
-2.81816e-07
-3.02904e-07
-2.29125e-07
-2.8062e-07
-1.81184e-07
-2.54554e-07
-1.38849e-07
-2.25824e-07
-1.02611e-07
-1.95653e-07
-7.25655e-08
-1.65215e-07
-4.84573e-08
-1.35514e-07
-2.97717e-08
-1.07303e-07
-1.58463e-08
-8.10647e-08
-5.97132e-09
-5.70518e-08
5.42298e-10
-3.536e-08
4.32751e-09
-1.60007e-08
5.9471e-09
1.03702e-09
5.88347e-09
1.57029e-08
4.51711e-09
2.76016e-08
2.16012e-09
3.41928e-08
2.39894e-08
-8.7134e-09
3.17074e-08
-2.56185e-08
7.76051e-08
-4.51584e-08
1.06187e-07
-6.56134e-08
1.25374e-07
-8.6562e-08
1.40055e-07
-1.07922e-07
1.51981e-07
-1.29708e-07
1.619e-07
-1.51955e-07
1.70238e-07
-1.74687e-07
1.77298e-07
-1.97915e-07
1.8332e-07
-2.21625e-07
1.88503e-07
-2.4579e-07
1.93001e-07
-2.70364e-07
1.96929e-07
-2.95285e-07
2.00359e-07
-3.2048e-07
2.03325e-07
-3.45862e-07
2.05823e-07
-3.71336e-07
2.07824e-07
-3.96801e-07
2.09274e-07
-4.22154e-07
2.1011e-07
-4.47293e-07
2.10267e-07
-4.72127e-07
2.09688e-07
-4.96575e-07
2.08334e-07
-5.20575e-07
2.06188e-07
-5.44082e-07
2.0326e-07
-5.67078e-07
1.99587e-07
-5.89567e-07
1.95232e-07
-6.11576e-07
1.90276e-07
-6.3316e-07
1.84814e-07
-6.54393e-07
1.78946e-07
-6.75367e-07
1.72763e-07
-6.96191e-07
1.6634e-07
-7.16977e-07
1.59721e-07
-7.37838e-07
1.52917e-07
-7.58872e-07
1.4589e-07
-7.80157e-07
1.38556e-07
-8.01732e-07
1.30779e-07
-8.23589e-07
1.22379e-07
-8.45663e-07
1.13134e-07
-8.67819e-07
1.02794e-07
-8.89853e-07
9.10927e-08
-9.11482e-07
7.77644e-08
-9.32349e-07
6.2558e-08
-9.52029e-07
4.52545e-08
-9.7002e-07
2.56798e-08
-9.85837e-07
3.78052e-09
-9.98854e-07
-2.05835e-08
-1.00847e-06
-4.73032e-08
-1.0141e-06
-7.6203e-08
-1.01515e-06
-1.0704e-07
-1.01106e-06
-1.39453e-07
-1.00133e-06
-1.72974e-07
-9.85519e-07
-2.07031e-07
-9.63289e-07
-2.40961e-07
-9.34413e-07
-2.74022e-07
-8.98788e-07
-3.05326e-07
-8.56465e-07
-3.33983e-07
-8.07685e-07
-3.59127e-07
-7.52892e-07
-3.79853e-07
-6.92755e-07
-3.9526e-07
-6.2819e-07
-4.0454e-07
-5.60362e-07
-4.07055e-07
-4.90666e-07
-4.02403e-07
-4.20703e-07
-3.90447e-07
-3.52225e-07
-3.71382e-07
-2.87036e-07
-3.45809e-07
-2.26837e-07
-3.14753e-07
-1.73081e-07
-2.7958e-07
-1.26783e-07
-2.41951e-07
-8.84067e-08
-2.03591e-07
-5.78429e-08
-1.66078e-07
-3.44962e-08
-1.3065e-07
-1.74568e-08
-9.81041e-08
-5.69201e-09
-6.88165e-08
1.80519e-09
-4.28572e-08
5.9358e-09
-2.01313e-08
7.47122e-09
-4.98388e-10
7.05732e-09
1.61168e-08
5.21716e-09
2.94418e-08
2.41674e-09
3.69932e-08
2.64061e-08
-9.37772e-09
4.10851e-08
-2.72146e-08
9.5442e-08
-4.7625e-08
1.26598e-07
-6.88788e-08
1.46627e-07
-9.05498e-08
1.61726e-07
-1.1255e-07
1.73982e-07
-1.34895e-07
1.84244e-07
-1.57622e-07
1.92965e-07
-1.80765e-07
2.00441e-07
-2.04343e-07
2.06898e-07
-2.28355e-07
2.12514e-07
-2.52778e-07
2.17424e-07
-2.77573e-07
2.21725e-07
-3.02686e-07
2.25472e-07
-3.28045e-07
2.28684e-07
-3.53569e-07
2.31348e-07
-3.79169e-07
2.33424e-07
-4.04751e-07
2.34856e-07
-4.30224e-07
2.35582e-07
-4.55501e-07
2.35543e-07
-4.80506e-07
2.34694e-07
-5.05182e-07
2.3301e-07
-5.29488e-07
2.30495e-07
-5.5341e-07
2.27182e-07
-5.76957e-07
2.23134e-07
-6.00167e-07
2.18442e-07
-6.23108e-07
2.13216e-07
-6.45873e-07
2.07579e-07
-6.68585e-07
2.01658e-07
-6.91388e-07
1.95566e-07
-7.14444e-07
1.89396e-07
-7.37924e-07
1.83201e-07
-7.61995e-07
1.76988e-07
-7.86805e-07
1.70701e-07
-8.12472e-07
1.64223e-07
-8.3906e-07
1.57368e-07
-8.66569e-07
1.49887e-07
-8.94915e-07
1.41481e-07
-9.23929e-07
1.31807e-07
-9.53342e-07
1.20506e-07
-9.82792e-07
1.07214e-07
-1.01182e-06
9.15887e-08
-1.0399e-06
7.33276e-08
-1.06641e-06
5.21889e-08
-1.09063e-06
2.80066e-08
-1.11206e-06
8.42351e-10
-1.12972e-06
-2.96363e-08
-1.14302e-06
-6.29106e-08
-1.15121e-06
-9.88479e-08
-1.15362e-06
-1.37045e-07
-1.14961e-06
-1.76979e-07
-1.13863e-06
-2.1801e-07
-1.12021e-06
-2.59383e-07
-1.09399e-06
-3.00241e-07
-1.05974e-06
-3.39578e-07
-1.01739e-06
-3.76331e-07
-9.67052e-07
-4.09466e-07
-9.09031e-07
-4.37874e-07
-8.43886e-07
-4.60405e-07
-7.7245e-07
-4.75976e-07
-6.95848e-07
-4.83658e-07
-6.15505e-07
-4.82747e-07
-5.33155e-07
-4.72796e-07
-4.50807e-07
-4.5373e-07
-3.70682e-07
-4.25934e-07
-2.95057e-07
-3.90378e-07
-2.26127e-07
-3.4851e-07
-1.65703e-07
-3.02375e-07
-1.14986e-07
-2.54308e-07
-7.43869e-08
-2.06677e-07
-4.34912e-08
-1.61546e-07
-2.12286e-08
-1.20367e-07
-6.17516e-09
-8.38699e-08
3.14384e-09
-5.21762e-08
8.05462e-09
-2.50421e-08
9.66122e-09
-2.10499e-09
8.85306e-09
1.6925e-08
6.34959e-09
3.19453e-08
2.8397e-09
4.05031e-08
2.92458e-08
-9.89384e-09
5.09789e-08
-2.84432e-08
1.13991e-07
-4.95317e-08
1.47686e-07
-7.14234e-08
1.68519e-07
-9.36837e-08
1.83986e-07
-1.16216e-07
1.96514e-07
-1.39029e-07
2.07057e-07
-1.62161e-07
2.16097e-07
-1.85649e-07
2.2393e-07
-2.09519e-07
2.30767e-07
-2.33774e-07
2.36769e-07
-2.584e-07
2.42051e-07
-2.83364e-07
2.46689e-07
-3.08617e-07
2.50725e-07
-3.34095e-07
2.54162e-07
-3.59724e-07
2.56976e-07
-3.85423e-07
2.59122e-07
-4.1111e-07
2.60544e-07
-4.36709e-07
2.61181e-07
-4.6215e-07
2.60984e-07
-4.87379e-07
2.59923e-07
-5.12362e-07
2.57992e-07
-5.37085e-07
2.55218e-07
-5.61565e-07
2.51662e-07
-5.85846e-07
2.47415e-07
-6.10006e-07
2.42602e-07
-6.34155e-07
2.37366e-07
-6.58441e-07
2.31865e-07
-6.83043e-07
2.26259e-07
-7.08166e-07
2.2069e-07
-7.34041e-07
2.15271e-07
-7.60904e-07
2.10064e-07
-7.88982e-07
2.05066e-07
-8.18475e-07
2.00194e-07
-8.49533e-07
1.9528e-07
-8.8223e-07
1.90065e-07
-9.16549e-07
1.84207e-07
-9.52367e-07
1.77298e-07
-9.89441e-07
1.68882e-07
-1.02742e-06
1.5848e-07
-1.06582e-06
1.45617e-07
-1.10408e-06
1.29849e-07
-1.14153e-06
1.10783e-07
-1.17745e-06
8.81078e-08
-1.21106e-06
6.16101e-08
-1.24142e-06
3.12076e-08
-1.26793e-06
-3.12724e-09
-1.28958e-06
-4.12587e-08
-1.3056e-06
-8.28317e-08
-1.3152e-06
-1.27441e-07
-1.31767e-06
-1.74515e-07
-1.31233e-06
-2.23346e-07
-1.29861e-06
-2.73101e-07
-1.27604e-06
-3.22817e-07
-1.24423e-06
-3.71382e-07
-1.203e-06
-4.17566e-07
-1.15231e-06
-4.60151e-07
-1.09232e-06
-4.97867e-07
-1.0234e-06
-5.29323e-07
-9.4624e-07
-5.53137e-07
-8.61818e-07
-5.68079e-07
-7.71466e-07
-5.73099e-07
-6.76928e-07
-5.67334e-07
-5.80315e-07
-5.50343e-07
-4.84086e-07
-5.22163e-07
-3.90972e-07
-4.83492e-07
-3.03861e-07
-4.35621e-07
-2.25444e-07
-3.80793e-07
-1.57965e-07
-3.21786e-07
-1.02842e-07
-2.618e-07
-6.03619e-08
-2.04026e-07
-2.96674e-08
-1.51061e-07
-9.05733e-09
-1.0448e-07
3.52064e-09
-6.47542e-08
1.00262e-08
-3.15476e-08
1.20966e-08
-4.17542e-09
1.10112e-08
1.80104e-08
7.77819e-09
3.51783e-08
3.38645e-09
4.48948e-08
3.26323e-08
-1.02839e-08
6.12629e-08
-2.93614e-08
1.33069e-07
-5.09634e-08
1.69288e-07
-7.33511e-08
1.90907e-07
-9.60792e-08
2.06714e-07
-1.1904e-07
2.19474e-07
-1.42234e-07
2.30252e-07
-1.65698e-07
2.3956e-07
-1.89468e-07
2.477e-07
-2.13571e-07
2.54871e-07
-2.38018e-07
2.61216e-07
-2.628e-07
2.66832e-07
-2.8789e-07
2.71779e-07
-3.13245e-07
2.7608e-07
-3.3881e-07
2.79726e-07
-3.6452e-07
2.82686e-07
-3.90307e-07
2.84909e-07
-4.16104e-07
2.8634e-07
-4.4185e-07
2.86927e-07
-4.67497e-07
2.86632e-07
-4.93015e-07
2.85441e-07
-5.18396e-07
2.83373e-07
-5.43658e-07
2.8048e-07
-5.68851e-07
2.76855e-07
-5.9406e-07
2.72625e-07
-6.1941e-07
2.67951e-07
-6.45064e-07
2.6302e-07
-6.71231e-07
2.58032e-07
-6.98156e-07
2.53185e-07
-7.26122e-07
2.48656e-07
-7.55431e-07
2.4458e-07
-7.86391e-07
2.41023e-07
-8.19286e-07
2.37961e-07
-8.54357e-07
2.35265e-07
-8.91763e-07
2.32686e-07
-9.31561e-07
2.29863e-07
-9.73685e-07
2.26331e-07
-1.01793e-06
2.21545e-07
-1.06396e-06
2.14911e-07
-1.1113e-06
2.05817e-07
-1.15935e-06
1.93669e-07
-1.20742e-06
1.77917e-07
-1.25472e-06
1.58085e-07
-1.30041e-06
1.33795e-07
-1.34359e-06
1.04791e-07
-1.38333e-06
7.09528e-08
-1.41875e-06
3.22861e-08
-1.44895e-06
-1.10509e-08
-1.47302e-06
-5.87634e-08
-1.49013e-06
-1.10335e-07
-1.49949e-06
-1.65154e-07
-1.50038e-06
-2.22459e-07
-1.49212e-06
-2.81358e-07
-1.47413e-06
-3.40811e-07
-1.4459e-06
-3.99607e-07
-1.40707e-06
-4.56404e-07
-1.35743e-06
-5.09791e-07
-1.29699e-06
-5.58305e-07
-1.22594e-06
-6.00375e-07
-1.14474e-06
-6.34331e-07
-1.05418e-06
-6.58643e-07
-9.55387e-07
-6.71889e-07
-8.49964e-07
-6.72758e-07
-7.39967e-07
-6.60339e-07
-6.27886e-07
-6.34245e-07
-5.16764e-07
-5.94613e-07
-4.09942e-07
-5.42443e-07
-3.10845e-07
-4.79889e-07
-2.2281e-07
-4.09821e-07
-1.48567e-07
-3.36044e-07
-8.96889e-08
-2.62904e-07
-4.62146e-08
-1.94536e-07
-1.6659e-08
-1.34036e-07
1.47951e-09
-8.28927e-08
1.09677e-08
-4.10358e-08
1.42463e-08
-7.45395e-09
1.32207e-08
1.9036e-08
9.34359e-09
3.90554e-08
4.00692e-09
5.02315e-08
3.66392e-08
-1.05681e-08
7.1831e-08
-3.0016e-08
1.52517e-07
-5.19889e-08
1.91261e-07
-7.47468e-08
2.13665e-07
-9.78315e-08
2.29799e-07
-1.21124e-07
2.42767e-07
-1.44617e-07
2.53745e-07
-1.68339e-07
2.63283e-07
-1.92328e-07
2.71689e-07
-2.16611e-07
2.79154e-07
-2.41201e-07
2.85806e-07
-2.66095e-07
2.91726e-07
-2.91272e-07
2.96957e-07
-3.16698e-07
3.01506e-07
-3.42326e-07
3.05355e-07
-3.68104e-07
3.08464e-07
-3.93977e-07
3.10783e-07
-4.19896e-07
3.12259e-07
-4.4582e-07
3.12851e-07
-4.71724e-07
3.12535e-07
-4.97603e-07
3.1132e-07
-5.23479e-07
3.09249e-07
-5.49406e-07
3.06407e-07
-5.75472e-07
3.02921e-07
-6.0181e-07
2.98962e-07
-6.28596e-07
2.94737e-07
-6.56058e-07
2.90482e-07
-6.84474e-07
2.86448e-07
-7.1417e-07
2.8288e-07
-7.45505e-07
2.79992e-07
-7.7886e-07
2.77936e-07
-8.14607e-07
2.76769e-07
-8.53073e-07
2.76428e-07
-8.9451e-07
2.76702e-07
-9.39057e-07
2.77233e-07
-9.86713e-07
2.77519e-07
-1.03732e-06
2.76942e-07
-1.09058e-06
2.74799e-07
-1.14601e-06
2.70341e-07
-1.20301e-06
2.6282e-07
-1.26086e-06
2.51522e-07
-1.31875e-06
2.35805e-07
-1.37578e-06
2.15118e-07
-1.43101e-06
1.89026e-07
-1.48347e-06
1.57247e-07
-1.53218e-06
1.19664e-07
-1.57618e-06
7.62902e-08
-1.61455e-06
2.73132e-08
-1.64639e-06
-2.69262e-08
-1.67082e-06
-8.58997e-08
-1.68707e-06
-1.48909e-07
-1.69438e-06
-2.15142e-07
-1.69206e-06
-2.83677e-07
-1.67944e-06
-3.53432e-07
-1.65593e-06
-4.23124e-07
-1.62099e-06
-4.9134e-07
-1.57421e-06
-5.56566e-07
-1.51535e-06
-6.17169e-07
-1.44433e-06
-6.71397e-07
-1.3613e-06
-7.17354e-07
-1.26677e-06
-7.53174e-07
-1.16172e-06
-7.76945e-07
-1.04751e-06
-7.86962e-07
-9.26005e-07
-7.81847e-07
-7.99605e-07
-7.60645e-07
-6.71404e-07
-7.22815e-07
-5.44906e-07
-6.68941e-07
-4.24105e-07
-6.0069e-07
-3.13219e-07
-5.20708e-07
-2.16239e-07
-4.33023e-07
-1.36312e-07
-3.42831e-07
-7.50574e-08
-2.5579e-07
-3.20614e-08
-1.77032e-07
-4.96642e-09
-1.09988e-07
9.70042e-09
-5.57027e-08
1.54375e-08
-1.3191e-08
1.51105e-08
1.93629e-08
1.08646e-08
4.33013e-08
4.64544e-09
5.64507e-08
4.12847e-08
-1.07646e-08
8.25956e-08
-3.04433e-08
1.72195e-07
-5.2663e-08
2.13481e-07
-7.56783e-08
2.3668e-07
-9.9018e-08
2.53139e-07
-1.22551e-07
2.663e-07
-1.46262e-07
2.77455e-07
-1.70173e-07
2.87194e-07
-1.94318e-07
2.95834e-07
-2.18726e-07
3.03561e-07
-2.43412e-07
3.10492e-07
-2.68376e-07
3.16691e-07
-2.93606e-07
3.22186e-07
-3.19075e-07
3.26975e-07
-3.44748e-07
3.31027e-07
-3.70585e-07
3.34301e-07
-3.96549e-07
3.36747e-07
-4.22608e-07
3.38318e-07
-4.48743e-07
3.38986e-07
-4.74955e-07
3.38747e-07
-5.01268e-07
3.37633e-07
-5.27737e-07
3.35718e-07
-5.54454e-07
3.33123e-07
-5.81552e-07
3.30019e-07
-6.09215e-07
3.26625e-07
-6.37682e-07
3.23205e-07
-6.67252e-07
3.20052e-07
-6.98281e-07
3.17477e-07
-7.31176e-07
3.15775e-07
-7.66379e-07
3.15195e-07
-8.04338e-07
3.15894e-07
-8.45469e-07
3.17901e-07
-8.90115e-07
3.21073e-07
-9.385e-07
3.25088e-07
-9.90701e-07
3.29434e-07
-1.04662e-06
3.33439e-07
-1.10599e-06
3.36307e-07
-1.16835e-06
3.37162e-07
-1.23311e-06
3.35101e-07
-1.29953e-06
3.29241e-07
-1.36676e-06
3.18755e-07
-1.43388e-06
3.02924e-07
-1.4999e-06
2.8114e-07
-1.5638e-06
2.52924e-07
-1.62454e-06
2.17986e-07
-1.68111e-06
1.76236e-07
-1.73256e-06
1.27734e-07
-1.77794e-06
7.26951e-08
-1.81643e-06
1.1565e-08
-1.84722e-06
-5.51088e-08
-1.86959e-06
-1.26534e-07
-1.88288e-06
-2.01856e-07
-1.88642e-06
-2.80142e-07
-1.87953e-06
-3.60322e-07
-1.86157e-06
-4.41085e-07
-1.83191e-06
-5.20991e-07
-1.78998e-06