/*--------------------------------*- C++ -*----------------------------------*\
  =========                 |
  \\      /  F ield         | OpenFOAM: The Open Source CFD Toolbox
   \\    /   O peration     | Website:  https://openfoam.org
    \\  /    A nd           | Version:  13
     \\/     M anipulation  |
\*---------------------------------------------------------------------------*/
FoamFile
{
    format      ascii;
    class       volScalarField;
    location    "500";
    object      k;
}
// * * * * * * * * * * * * * * * * * * * * * * * * * * * * * * * * * * * * * //

dimensions      [0 2 -2 0 0 0 0];

internalField   nonuniform List<scalar> 
12225
(
0.531373
1.36649
2.08555
3.20261
3.39519
2.58467
2.19122
1.76866
1.62014
1.71538
1.61691
1.42143
1.77407
2.4203
1.95306
2.17534
2.05163
2.49316
0.051623
0.0519179
0.0706456
0.143528
0.196742
0.189997
0.387622
0.391987
0.440954
0.495627
0.610906
0.683571
0.732078
0.773536
0.795856
0.812603
0.822312
0.842674
0.091994
0.0587036
0.0666006
0.0847187
0.164577
0.227715
0.227775
0.216295
0.210435
0.207527
0.209
0.209684
0.211497
0.214227
0.21693
0.217384
0.201361
0.191027
0.167765
0.132719
0.161285
0.170266
0.24372
0.28449
0.273779
0.240826
0.199364
0.158103
0.121128
0.0906118
0.0708197
0.0685111
0.0636752
0.060932
0.0567532
0.0563473
0.260678
0.250461
0.275872
0.291641
0.310708
0.326443
0.319994
0.296701
0.26593
0.231672
0.199391
0.168965
0.142454
0.121539
0.104353
0.0906813
0.080339
0.0761719
0.330305
0.326545
0.330751
0.338684
0.343438
0.34783
0.341901
0.327327
0.307808
0.284655
0.263536
0.241212
0.22301
0.202597
0.188631
0.171858
0.160594
0.153542
0.360812
0.358399
0.35575
0.356389
0.35748
0.357218
0.352683
0.343039
0.331544
0.317324
0.304166
0.289617
0.278603
0.264699
0.25482
0.242316
0.235131
0.224445
0.370726
0.368246
0.366018
0.363846
0.362901
0.361369
0.357927
0.351667
0.344732
0.33632
0.32883
0.319977
0.313432
0.305019
0.299331
0.290914
0.286002
0.278208
0.373208
0.370894
0.36875
0.366569
0.36498
0.363044
0.36049
0.356528
0.352285
0.347147
0.342655
0.337338
0.333225
0.327954
0.324252
0.318843
0.315474
0.310132
0.373733
0.371475
0.36934
0.367252
0.365457
0.363582
0.361532
0.358855
0.356088
0.352827
0.349906
0.346546
0.343782
0.340393
0.337752
0.334245
0.331729
0.328125
0.373821
0.371566
0.369431
0.367371
0.365504
0.363654
0.361849
0.359809
0.357782
0.355522
0.353432
0.351126
0.349101
0.346782
0.344797
0.342398
0.340467
0.337996
0.37383
0.371568
0.369429
0.367379
0.365479
0.363638
0.361895
0.360105
0.358377
0.356563
0.354857
0.353057
0.35141
0.349623
0.348017
0.346195
0.344638
0.342783
0.373829
0.371561
0.369419
0.367373
0.365456
0.363616
0.361886
0.360191
0.358581
0.356977
0.355457
0.353929
0.352495
0.351014
0.34964
0.348173
0.346862
0.345405
0.373828
0.371556
0.369408
0.367365
0.365437
0.363598
0.361862
0.360198
0.358621
0.357097
0.355652
0.354245
0.352914
0.351597
0.350356
0.349103
0.34794
0.346744
0.373827
0.371553
0.369401
0.367357
0.365422
0.363582
0.36184
0.36018
0.358605
0.3571
0.355671
0.354301
0.353
0.351745
0.350553
0.349395
0.348296
0.347224
0.373826
0.371551
0.369395
0.367351
0.365411
0.36357
0.361821
0.36016
0.35858
0.357076
0.355646
0.354281
0.352982
0.351741
0.350557
0.349424
0.348344
0.347308
0.373825
0.37155
0.369392
0.367345
0.365403
0.363559
0.361808
0.360144
0.358561
0.357054
0.35562
0.354254
0.352952
0.35171
0.350525
0.349395
0.348315
0.347285
0.373825
0.371549
0.36939
0.367342
0.365399
0.363553
0.3618
0.360134
0.358548
0.35704
0.355603
0.354235
0.352931
0.351687
0.3505
0.349368
0.348287
0.347256
0.373825
0.371549
0.36939
0.367342
0.365398
0.363552
0.361798
0.360131
0.358545
0.357036
0.355598
0.354229
0.352923
0.351679
0.350492
0.349359
0.348277
0.347245
0.373826
0.37155
0.369393
0.367345
0.365403
0.363557
0.361805
0.360138
0.358554
0.357046
0.355609
0.354241
0.352936
0.351692
0.350504
0.34937
0.348286
0.347251
0.373825
0.371554
0.369396
0.36735
0.365406
0.363564
0.361812
0.360153
0.358571
0.357068
0.355631
0.354261
0.352949
0.351695
0.350492
0.349339
0.348229
0.347166
0.373823
0.371563
0.369389
0.367325
0.365367
0.363531
0.361787
0.360146
0.358568
0.35706
0.355592
0.354179
0.352797
0.351466
0.350157
0.348889
0.347639
0.346429
0.37383
0.371513
0.369132
0.366918
0.364905
0.363075
0.361355
0.359757
0.358138
0.356556
0.354903
0.353266
0.351583
0.349928
0.348222
0.34654
0.344797
0.343085
0.373533
0.37085
0.366959
0.364087
0.361878
0.359634
0.358189
0.356544
0.354948
0.353303
0.351234
0.349006
0.346585
0.344126
0.341429
0.338725
0.335732
0.332817
0.37432
0.365891
0.354242
0.349186
0.346838
0.3372
0.341788
0.336347
0.339701
0.340594
0.339241
0.336085
0.332471
0.328338
0.323594
0.318717
0.313003
0.307643
0.38272
0.329938
0.299314
0.284387
0.272547
0.287039
0.276551
0.296443
0.289898
0.301234
0.306588
0.3042
0.300372
0.292885
0.285136
0.275652
0.264723
0.254527
0.420503
0.284209
0.215582
0.168694
0.159686
0.17855
0.173761
0.170964
0.20751
0.199704
0.218768
0.231273
0.229467
0.219339
0.208928
0.191292
0.176652
0.158339
0.418199
0.210886
0.104771
0.0530836
0.0346501
0.0281896
0.0304618
0.0771259
0.0921002
0.0957362
0.124625
0.13359
0.1469
0.152814
0.15781
0.159724
0.161787
0.156382
0.303206
0.198363
0.163242
0.127294
0.12685
0.143122
0.175786
0.242537
0.334037
0.381132
0.419942
0.45282
0.491347
0.511818
0.534059
0.557685
0.56562
0.564403
0.897034
1.22375
1.43591
1.55123
1.59256
1.58559
1.56102
1.52271
1.48173
1.44183
1.40365
1.3676
1.33525
1.3054
1.27789
1.25255
1.22859
1.20653
1.5548e-08
3.85154e-07
1.96994e-06
7.76358e-06
2.59907e-05
7.88123e-05
0.000209343
0.000421888
0.000691382
0.000978681
0.0012398
0.00144417
0.00158282
0.00163869
0.00162095
0.00156171
0.00143712
0.00124053
0.00104838
0.000890624
0.000743702
0.000603182
0.000467411
0.000341824
0.0002281
0.000137861
7.57811e-05
3.92907e-05
2.03104e-05
1.10536e-05
6.59169e-06
4.64013e-06
4.66483e-06
7.57589e-06
1.13537e-05
8.55636e-05
0.000205768
0.000506769
0.000894357
0.00116179
0.00113925
0.00101
0.0008168
0.000722711
0.000739806
0.000904644
0.00110299
0.00192598
0.00362765
0.00928372
0.0291464
0.0638733
0.0958685
0.103998
0.0864831
0.107921
0.126508
0.131402
0.129223
0.154586
0.153332
0.168254
0.1853
0.15279
0.175241
0.179614
0.189496
0.197302
0.205678
0.213478
0.221483
0.229111
0.236846
0.244344
0.251861
0.259236
0.266578
0.273825
0.281015
0.288129
0.295173
0.302146
0.309039
0.315859
0.322587
0.329235
0.335779
0.342231
0.34857
0.3548
0.360908
0.36688
0.372706
0.378375
0.383876
0.3892
0.394339
0.399297
0.404085
0.408742
0.413331
0.417761
0.422049
0.426192
0.430187
0.434035
0.43773
0.441268
0.44465
0.447868
0.450925
0.453811
0.456533
0.459077
0.461455
0.463649
0.465674
0.467512
0.469176
0.470648
0.471945
0.473057
0.474
0.474762
0.475359
0.475784
0.47607
0.476241
0.476361
0.476125
0.475323
0.475097
0.47378
0.473253
0.471497
0.470373
0.468954
0.467219
0.465416
0.463397
0.461253
0.458957
0.456534
0.453991
0.451333
0.448576
0.445721
0.442784
0.439767
0.436684
0.433537
0.43034
0.427093
0.423806
0.420486
0.417145
0.413794
0.410453
0.407142
0.403873
0.400654
0.39749
0.394395
0.391367
0.388416
0.385534
0.38273
0.379998
0.377348
0.374771
0.372275
0.369841
0.367466
0.365114
0.362746
0.360252
0.357548
0.354212
0.34976
0.335838
7.76093e-08
2.20159e-06
1.47534e-05
6.26312e-05
0.000231613
0.00065896
0.00155227
0.0028416
0.00435693
0.00592875
0.00738161
0.00858313
0.00949114
0.0100518
0.0103788
0.010355
0.0102147
0.009879
0.00934599
0.00860261
0.00765143
0.00655193
0.00532928
0.00410395
0.00288225
0.00193499
0.00124368
0.000778883
0.000478116
0.000293803
0.000187783
0.000131592
0.000110434
0.000131795
8.74129e-05
0.000976179
0.00217904
0.00511005
0.00849905
0.0110186
0.0119181
0.0117404
0.0112932
0.0117248
0.0138866
0.0182038
0.0247739
0.0372517
0.0587927
0.0841849
0.110116
0.134181
0.153162
0.167398
0.178158
0.193391
0.208003
0.222898
0.238972
0.256855
0.274364
0.294082
0.312516
0.330054
0.350025
0.368223
0.386927
0.405043
0.423112
0.440922
0.458653
0.476219
0.493722
0.511125
0.528475
0.545763
0.563005
0.580201
0.597353
0.614463
0.631523
0.648535
0.665486
0.682375
0.699186
0.715917
0.732548
0.749076
0.765482
0.781759
0.797885
0.813839
0.829599
0.845144
0.860448
0.875483
0.89022
0.904624
0.918661
0.932295
0.945505
0.958483
0.971178
0.983622
0.995783
1.00767
1.01925
1.03053
1.04149
1.05213
1.06242
1.07237
1.08195
1.09117
1.10001
1.10847
1.11652
1.12418
1.13141
1.13822
1.14461
1.15056
1.15608
1.16117
1.16581
1.17
1.17374
1.17702
1.17986
1.18222
1.18412
1.18561
1.18657
1.18696
1.18679
1.18682
1.18639
1.18566
1.18446
1.18279
1.1807
1.17819
1.17529
1.172
1.16836
1.16438
1.16007
1.15547
1.15057
1.14542
1.14003
1.13441
1.12858
1.12257
1.11638
1.11005
1.1036
1.09707
1.09049
1.08389
1.0773
1.07073
1.06421
1.05775
1.05137
1.04505
1.03881
1.03264
1.02655
1.02054
1.01462
1.00875
1.00293
0.997109
0.99121
0.985083
0.978552
0.971096
0.960915
0.937435
1.83776e-07
5.45305e-06
4.12392e-05
0.000187037
0.00073178
0.00177081
0.00367829
0.00592254
0.00820583
0.0103005
0.0120683
0.0134428
0.0144191
0.0150118
0.0153168
0.0152962
0.0151531
0.0148109
0.0143133
0.013687
0.0129333
0.0120443
0.0110054
0.00981452
0.00849527
0.00698669
0.00540615
0.00396771
0.00270743
0.00180418
0.00123162
0.00089934
0.000691741
0.000733086
0.000925094
0.00424702
0.00963728
0.018298
0.025626
0.0306797
0.0333633
0.0347329
0.0387714
0.049551
0.0662415
0.0836813
0.102334
0.12335
0.144081
0.164464
0.185639
0.206369
0.22705
0.247837
0.272263
0.299023
0.326111
0.353325
0.381815
0.409592
0.437327
0.464757
0.491426
0.517605
0.543371
0.568483
0.59321
0.6175
0.641484
0.665193
0.688683
0.711987
0.735146
0.758177
0.781103
0.803936
0.826684
0.849352
0.871941
0.89445
0.916873
0.939207
0.961443
0.983571
1.00558
1.02746
1.0492
1.07079
1.09222
1.11346
1.13451
1.15535
1.17595
1.19631
1.21641
1.23623
1.25577
1.27501
1.29396
1.31259
1.33092
1.34892
1.36657
1.38386
1.40076
1.41728
1.43338
1.44906
1.4643
1.47908
1.4934
1.50724
1.52058
1.53343
1.54575
1.55754
1.5688
1.5795
1.58964
1.59921
1.60819
1.6166
1.62442
1.63165
1.63827
1.64429
1.64968
1.65446
1.65861
1.66212
1.66499
1.66724
1.66882
1.66967
1.67
1.67014
1.6696
1.66832
1.66643
1.66392
1.66083
1.65717
1.65297
1.64824
1.64303
1.63734
1.63121
1.62466
1.61772
1.61042
1.6028
1.59486
1.58665
1.57818
1.56948
1.56059
1.55153
1.54234
1.53305
1.52371
1.51434
1.50498
1.49564
1.48635
1.47712
1.46796
1.45886
1.44982
1.44086
1.43198
1.42318
1.41445
1.40579
1.39715
1.38849
1.37968
1.37054
1.36067
1.34815
1.32618
6.96431e-07
2.09434e-05
0.000164248
0.00066404
0.00203394
0.00477482
0.00819112
0.0115679
0.014542
0.0169239
0.018666
0.019804
0.0204267
0.0206054
0.020503
0.0202077
0.0196973
0.019068
0.0183537
0.0175722
0.0167273
0.015815
0.0148253
0.0137355
0.0125296
0.0111868
0.00971282
0.00816738
0.00668542
0.00522996
0.00408489
0.00306587
0.00271828
0.00343715
0.00730337
0.0184036
0.0332224
0.0457998
0.0555381
0.0636045
0.0723565
0.0838655
0.0981968
0.113404
0.128595
0.14454
0.162534
0.183096
0.204456
0.228502
0.254061
0.281382
0.310171
0.3404
0.372158
0.404646
0.437388
0.470186
0.50296
0.535263
0.567141
0.598481
0.629193
0.65938
0.689051
0.718238
0.747031
0.775485
0.803662
0.831607
0.859364
0.886969
0.91445
0.941828
0.969118
0.996329
1.02347
1.05053
1.07752
1.10442
1.13124
1.15796
1.18457
1.21107
1.23743
1.26365
1.28971
1.3156
1.3413
1.36681
1.3921
1.41715
1.44196
1.4665
1.49077
1.51475
1.53842
1.56178
1.5848
1.60747
1.62977
1.65166
1.67312
1.69415
1.71471
1.73478
1.75435
1.7734
1.79191
1.80986
1.82724
1.84403
1.86022
1.87578
1.89072
1.90502
1.91865
1.93162
1.9439
1.95548
1.96637
1.97655
1.98601
1.99475
2.00276
2.01003
2.01655
2.02231
2.02731
2.03154
2.03498
2.03766
2.03955
2.04059
2.04101
2.04103
2.04008
2.03836
2.03589
2.03271
2.02882
2.02424
2.01901
2.01315
2.00669
1.99967
1.9921
1.98403
1.97548
1.9665
1.9571
1.94733
1.93721
1.92679
1.91608
1.90511
1.89393
1.88258
1.87108
1.85949
1.84783
1.83615
1.82447
1.81281
1.80119
1.78961
1.77808
1.7666
1.75518
1.74382
1.73255
1.72135
1.71023
1.69916
1.68811
1.67701
1.66571
1.65393
1.63998
1.61938
2.34411e-06
7.03402e-05
0.00052572
0.00205092
0.00564965
0.0107611
0.0156226
0.0195836
0.0224519
0.0242896
0.0252786
0.0256184
0.0255158
0.0251527
0.0245137
0.0237413
0.0228921
0.0220053
0.0211054
0.0202033
0.0192963
0.0183769
0.0174312
0.0164359
0.0153686
0.0141946
0.0128968
0.0115088
0.0101147
0.00878062
0.00727084
0.00681428
0.00854726
0.0162993
0.033741
0.053505
0.0710599
0.0852055
0.0967097
0.107252
0.118186
0.129837
0.142361
0.155823
0.17198
0.191233
0.213096
0.237825
0.264732
0.293956
0.324689
0.356855
0.390046
0.424088
0.45879
0.493836
0.529008
0.564154
0.599169
0.633899
0.668298
0.702316
0.735915
0.76913
0.801977
0.834496
0.866734
0.898735
0.930542
0.962192
0.99372
1.02515
1.05651
1.08781
1.11907
1.15027
1.18143
1.21254
1.24359
1.27457
1.30547
1.33627
1.36697
1.39755
1.42799
1.45827
1.48839
1.51833
1.54806
1.57758
1.60687
1.6359
1.66466
1.69314
1.72131
1.74915
1.77666
1.8038
1.83055
1.85688
1.88277
1.9082
1.93313
1.95754
1.98142
2.00473
2.02745
2.04956
2.07105
2.09188
2.11204
2.13152
2.15029
2.16834
2.18565
2.20222
2.21801
2.23303
2.24725
2.26067
2.27327
2.28504
2.29599
2.30609
2.31535
2.32374
2.33127
2.33792
2.34368
2.34855
2.35252
2.35559
2.35776
2.35895
2.3594
2.35922
2.35802
2.35592
2.35297
2.34919
2.3446
2.33922
2.33309
2.32622
2.31866
2.31044
2.30159
2.29215
2.28215
2.27163
2.26063
2.24918
2.23732
2.22509
2.21252
2.19964
2.18649
2.17312
2.15956
2.14586
2.13206
2.11819
2.10428
2.09037
2.07648
2.0626
2.04875
2.03493
2.02115
2.00743
1.99377
1.98019
1.9667
1.95329
1.93996
1.92665
1.91328
1.89965
1.88433
1.86397
7.44572e-06
0.000218874
0.00157231
0.00559039
0.0129964
0.0197103
0.0246046
0.0276855
0.0293441
0.0300081
0.0299822
0.0296299
0.0288927
0.0279564
0.0269155
0.0258327
0.0247527
0.0237039
0.0227013
0.0217474
0.0208343
0.0199487
0.0190697
0.0181673
0.0172227
0.0161861
0.0150163
0.0136813
0.0123692
0.0116973
0.0124585
0.0171889
0.0297532
0.0516187
0.0751579
0.0955859
0.111359
0.12284
0.131874
0.140479
0.149911
0.161129
0.175467
0.19294
0.213723
0.237799
0.264573
0.293665
0.324465
0.356688
0.389951
0.424097
0.458905
0.494267
0.53008
0.566216
0.602569
0.639046
0.675563
0.71203
0.748384
0.784581
0.820594
0.856421
0.892065
0.927545
0.962887
0.998117
1.03326
1.06836
1.10341
1.13846
1.1735
1.20855
1.24361
1.27867
1.31373
1.34878
1.38379
1.41876
1.45366
1.48848
1.5232
1.5578
1.59226
1.62656
1.66068
1.69461
1.72833
1.76181
1.79504
1.828
1.86065
1.89299
1.92499
1.95663
1.98788
2.01871
2.04909
2.079
2.10841
2.13729
2.16561
2.19334
2.22046
2.24693
2.27273
2.29784
2.32223
2.34587
2.36875
2.39085
2.41214
2.43261
2.45224
2.47102
2.48892
2.50593
2.52204
2.53724
2.5515
2.56483
2.57722
2.58865
2.59911
2.6086
2.6171
2.62461
2.63112
2.63661
2.64109
2.64456
2.64701
2.64836
2.64883
2.64849
2.64706
2.64463
2.64124
2.6369
2.63165
2.62551
2.6185
2.61068
2.60206
2.59268
2.58259
2.57182
2.56041
2.54839
2.53582
2.52272
2.50915
2.49514
2.48073
2.46596
2.45085
2.43547
2.41986
2.40406
2.38811
2.37206
2.35594
2.33978
2.3236
2.30742
2.29124
2.27507
2.25893
2.24283
2.22678
2.21081
2.19494
2.17918
2.16354
2.14801
2.13252
2.11695
2.10006
2.0791
2.36294e-05
0.000653761
0.00428472
0.0134316
0.022638
0.028689
0.0321017
0.0337712
0.0343134
0.034145
0.0335054
0.0324526
0.0311943
0.0298364
0.0284595
0.0271211
0.025859
0.0246924
0.0236263
0.0226531
0.0217573
0.0209149
0.0200901
0.0192205
0.018251
0.0171779
0.0160741
0.0154486
0.0159922
0.0197633
0.0294334
0.0478969
0.0714889
0.0946201
0.114829
0.129953
0.140233
0.1478
0.154932
0.163564
0.175394
0.19064
0.209441
0.231725
0.2571
0.285039
0.31487
0.346137
0.378478
0.411703
0.445661
0.48027
0.515465
0.551207
0.58746
0.62417
0.661276
0.69871
0.736398
0.774274
0.812278
0.850362
0.888492
0.926648
0.96482
1.00301
1.04122
1.07948
1.11778
1.15616
1.19462
1.23317
1.27181
1.31055
1.34938
1.38828
1.42723
1.46622
1.50522
1.5442
1.58314
1.62201
1.66079
1.69945
1.73798
1.77634
1.81452
1.85249
1.89023
1.92772
1.96493
2.00184
2.03843
2.07466
2.11052
2.14596
2.18098
2.21552
2.24957
2.28308
2.31603
2.34839
2.38012
2.41119
2.44157
2.47122
2.50012
2.52824
2.55554
2.58201
2.60762
2.63234
2.65616
2.67905
2.70099
2.72197
2.74197
2.76098
2.77896
2.79593
2.81185
2.82672
2.84053
2.85327
2.86493
2.8755
2.88497
2.89333
2.90057
2.90669
2.91167
2.91553
2.91825
2.91976
2.92026
2.91978
2.91812
2.91537
2.91153
2.90664
2.90073
2.89382
2.88595
2.87716
2.86747
2.85694
2.84559
2.83347
2.82063
2.8071
2.79293
2.77817
2.76285
2.74703
2.73074
2.71403
2.69693
2.6795
2.66178
2.64384
2.62571
2.60743
2.58904
2.57059
2.55208
2.53354
2.51498
2.49641
2.47784
2.45931
2.44082
2.42241
2.40411
2.38594
2.36794
2.35012
2.33243
2.31478
2.29608
2.27392
7.08794e-05
0.00180538
0.0102201
0.0232072
0.0314217
0.0358257
0.0379365
0.0386265
0.0384209
0.0376001
0.0362804
0.0346961
0.0329848
0.0312557
0.0295903
0.0280437
0.0266463
0.0254065
0.0243178
0.0233644
0.0225304
0.0218107
0.0211822
0.0206732
0.0204309
0.0207209
0.0220846
0.0253918
0.0324679
0.0465307
0.0665086
0.0881589
0.109315
0.127436
0.141097
0.150423
0.157255
0.164306
0.173628
0.186212
0.202451
0.222272
0.245377
0.271299
0.299423
0.329142
0.359997
0.391736
0.424223
0.457396
0.491226
0.525707
0.560838
0.596625
0.633062
0.670122
0.707762
0.745935
0.784585
0.823653
0.863086
0.902835
0.942861
0.983134
1.02363
1.06435
1.10527
1.14641
1.18776
1.22934
1.27114
1.31316
1.35539
1.39783
1.44045
1.48323
1.52614
1.56915
1.61221
1.65529
1.69837
1.74139
1.78433
1.82716
1.86985
1.91238
1.9547
1.9968
2.03866
2.08023
2.12151
2.16245
2.20304
2.24323
2.283
2.32233
2.36117
2.39949
2.43725
2.47443
2.51098
2.54687
2.58206
2.61651
2.65019
2.68307
2.71509
2.74625
2.7765
2.80581
2.83416
2.86151
2.88786
2.91317
2.93742
2.9606
2.98269
3.00366
3.02352
3.04223
3.05978
3.07617
3.09138
3.10541
3.11824
3.12987
3.14028
3.14947
3.15742
3.16413
3.16959
3.17381
3.17679
3.17843
3.17894
3.17831
3.17641
3.1733
3.169
3.16354
3.15695
3.14925
3.14048
3.13069
3.11991
3.10817
3.09553
3.08203
3.06772
3.05263
3.03682
3.02034
3.00323
2.98554
2.96732
2.9486
2.92945
2.90991
2.89004
2.86989
2.84951
2.82895
2.80824
2.78742
2.76652
2.74556
2.72455
2.70351
2.68246
2.66143
2.64045
2.61954
2.59876
2.57814
2.55771
2.53751
2.51751
2.49766
2.47693
2.45314
0.000185665
0.00431729
0.0192382
0.0320595
0.03879
0.0420265
0.0432471
0.0431822
0.0423144
0.0407898
0.0388984
0.0368149
0.034685
0.0326247
0.0307199
0.0290245
0.0275666
0.0263492
0.0253581
0.0245648
0.0239281
0.023486
0.0232495
0.0235141
0.0248414
0.0281488
0.0349155
0.0464134
0.0624257
0.0808375
0.0999634
0.118043
0.133598
0.145728
0.154814
0.162331
0.170388
0.180702
0.194252
0.211298
0.231686
0.25502
0.280785
0.308427
0.337421
0.36738
0.398086
0.429454
0.461471
0.494154
0.527533
0.561646
0.596529
0.632204
0.668674
0.705934
0.743962
0.782723
0.822176
0.862274
0.902968
0.944214
0.985971
1.02821
1.07089
1.11401
1.15755
1.20149
1.24584
1.29058
1.33572
1.38122
1.42709
1.47328
1.51978
1.56653
1.61351
1.66065
1.7079
1.75522
1.80255
1.84986
1.89709
1.94421
1.99119
2.03799
2.08458
2.13092
2.17699
2.22275
2.26818
2.31324
2.3579
2.40213
2.4459
2.48916
2.53189
2.57404
2.61558
2.65647
2.69666
2.73611
2.77479
2.81265
2.84965
2.88574
2.9209
2.95509
2.98827
3.02041
3.05148
3.08145
3.11029
3.13799
3.16451
3.18985
3.21398
3.23688
3.25854
3.27895
3.29808
3.31593
3.33248
3.34774
3.36168
3.3743
3.3856
3.39555
3.40416
3.41141
3.4173
3.42182
3.42499
3.42673
3.4272
3.42638
3.4242
3.42068
3.41587
3.40979
3.40246
3.39392
3.38421
3.37337
3.36144
3.34845
3.33447
3.31954
3.3037
3.28701
3.26951
3.25125
3.2323
3.21269
3.19247
3.1717
3.15043
3.12872
3.10664
3.08423
3.06155
3.03864
3.01554
2.99231
2.96895
2.94551
2.922
2.89844
2.87485
2.85127
2.82775
2.8043
2.78099
2.75786
2.73495
2.71231
2.68992
2.66775
2.64485
2.6191
0.000417216
0.00883302
0.0285156
0.0400556
0.0455392
0.0479053
0.0484303
0.047758
0.0462277
0.0441395
0.0417303
0.0391989
0.0367131
0.0344041
0.0323666
0.0306587
0.0293186
0.0283523
0.0277518
0.027573
0.0278472
0.0287732
0.030642
0.0340365
0.039941
0.0490076
0.0610519
0.0754763
0.0913848
0.107514
0.122655
0.135887
0.146928
0.156156
0.164682
0.17402
0.185525
0.199976
0.217565
0.238081
0.261132
0.28625
0.312965
0.340856
0.369602
0.399015
0.42903
0.459656
0.490941
0.522945
0.555733
0.589367
0.623893
0.659346
0.695747
0.733105
0.771413
0.810653
0.850796
0.891808
0.93365
0.976284
1.01967
1.06378
1.10858
1.15405
1.20016
1.2469
1.29426
1.3422
1.39072
1.43979
1.48938
1.53944
1.58992
1.64078
1.69195
1.74337
1.79496
1.84666
1.8984
1.95013
2.00178
2.05333
2.10472
2.15592
2.20688
2.25757
2.30795
2.35798
2.40763
2.45688
2.50568
2.55401
2.60181
2.64906
2.69571
2.74172
2.78704
2.83164
2.87547
2.91848
2.96063
3.00187
3.04215
3.08143
3.11967
3.15683
3.19288
3.22778
3.26149
3.29399
3.32524
3.35523
3.38394
3.41133
3.4374
3.46213
3.48549
3.50748
3.52808
3.54728
3.56507
3.58145
3.59639
3.60991
3.62198
3.6326
3.64176
3.64945
3.65567
3.66042
3.6637
3.66545
3.6658
3.66473
3.66218
3.65819
3.6528
3.64602
3.63789
3.62845
3.61773
3.60577
3.59262
3.57833
3.56295
3.54652
3.52911
3.51075
3.4915
3.47142
3.45056
3.42896
3.4067
3.38381
3.36037
3.33644
3.31208
3.28736
3.26233
3.23703
3.2115
3.18579
3.15994
3.13397
3.10791
3.08177
3.05561
3.02946
3.00336
2.97734
2.95147
2.92579
2.90036
2.87521
2.85037
2.82582
2.80065
2.77294
0.000804048
0.0154614
0.0368156
0.0473408
0.052104
0.0538843
0.0538739
0.0526466
0.0505965
0.0480311
0.0452129
0.042369
0.0396919
0.0373311
0.0353975
0.0339527
0.0330825
0.032784
0.033015
0.0340344
0.0361144
0.0396315
0.0449844
0.0524506
0.0618805
0.0730182
0.0855439
0.0988526
0.112186
0.124825
0.136326
0.146629
0.156116
0.165635
0.176239
0.188849
0.204001
0.221811
0.242086
0.264479
0.288605
0.314091
0.340613
0.36792
0.395854
0.424352
0.453431
0.483149
0.513585
0.544828
0.576959
0.610045
0.644149
0.679319
0.715591
0.752987
0.791517
0.831178
0.871957
0.913833
0.956781
1.00077
1.04577
1.09175
1.13868
1.18652
1.23527
1.28487
1.33532
1.38658
1.43861
1.49137
1.54482
1.5989
1.65352
1.70864
1.76416
1.82
1.87607
1.9323
1.98858
2.04486
2.10107
2.15716
2.21307
2.26877
2.3242
2.37931
2.43406
2.48842
2.54235
2.59582
2.64878
2.70121
2.75306
2.80427
2.85482
2.90464
2.9537
3.00195
3.04935
3.09583
3.14136
3.18587
3.22931
3.27165
3.31283
3.35283
3.3916
3.4291
3.4653
3.50016
3.53365
3.56576
3.59646
3.62574
3.65357
3.67993
3.70482
3.72822
3.75011
3.77048
3.78933
3.80664
3.82242
3.83666
3.84935
3.86048
3.87004
3.87804
3.88445
3.88929
3.89254
3.8942
3.89432
3.89289
3.88988
3.88532
3.87925
3.87169
3.86268
3.85225
3.84044
3.8273
3.81287
3.7972
3.78035
3.76237
3.74332
3.72325
3.7022
3.68025
3.65743
3.63381
3.60944
3.58439
3.55874
3.53254
3.50588
3.47882
3.4514
3.42368
3.3957
3.3675
3.33912
3.3106
3.28195
3.25324
3.22448
3.19574
3.16705
3.13846
3.11002
3.08178
3.05379
3.02612
2.99879
2.97181
2.94433
2.91462
0.00131161
0.0225514
0.0444263
0.0544509
0.0588036
0.0601774
0.0597831
0.0581484
0.0557133
0.0528367
0.0498245
0.0469353
0.0443861
0.0423579
0.0410244
0.0404832
0.0405654
0.0415268
0.0434601
0.0465223
0.0508828
0.0566752
0.0639391
0.0725786
0.0823634
0.0929649
0.103998
0.11507
0.125851
0.136174
0.146091
0.155952
0.166369
0.178021
0.191472
0.207039
0.224768
0.244497
0.265954
0.288843
0.312885
0.337843
0.363532
0.389829
0.416681
0.444099
0.472139
0.500888
0.530444
0.560903
0.592356
0.624885
0.658564
0.693454
0.729603
0.76705
0.80582
0.845926
0.887374
0.930159
0.97427
1.01969
1.06639
1.11435
1.16353
1.2139
1.26542
1.31807
1.37179
1.42654
1.48229
1.53896
1.59648
1.65477
1.71373
1.77328
1.83331
1.89373
1.95443
2.0153
2.07624
2.13717
2.19802
2.25873
2.31923
2.37948
2.43941
2.49896
2.55809
2.61676
2.67493
2.73257
2.78965
2.84611
2.90191
2.957
3.01133
3.06484
3.11749
3.16923
3.22002
3.26979
3.31848
3.36605
3.41243
3.45759
3.50147
3.54404
3.58527
3.6251
3.6635
3.70044
3.7359
3.76984
3.80226
3.83312
3.86242
3.89015
3.91628
3.94081
3.96372
3.985
4.00464
4.02265
4.03901
4.05373
4.0668
4.07822
4.08798
4.09607
4.10249
4.10724
4.11031
4.1117
4.11145
4.10955
4.10593
4.10068
4.09381
4.08537
4.07538
4.06387
4.05089
4.03649
4.02071
4.0036
3.98522
3.96563
3.94489
3.92306
3.90018
3.87632
3.85152
3.82583
3.79933
3.7721
3.74421
3.71575
3.68677
3.65735
3.62755
3.59741
3.56698
3.5363
3.5054
3.47432
3.4431
3.41181
3.38048
3.34917
3.31792
3.28677
3.25577
3.22499
3.19447
3.16428
3.13445
3.10503
3.07524
3.0435
0.00192825
0.0292539
0.0518874
0.061808
0.0658897
0.0669796
0.0662848
0.0643482
0.061676
0.0587078
0.0558015
0.0532361
0.0512162
0.0500205
0.0496313
0.0500219
0.051386
0.0537454
0.057131
0.0615767
0.0671144
0.0737087
0.081251
0.0895778
0.0984903
0.107776
0.117264
0.12684
0.136483
0.146306
0.156591
0.167736
0.180136
0.194095
0.209766
0.227141
0.246091
0.266418
0.28791
0.310369
0.333632
0.357575
0.382116
0.407219
0.432896
0.459198
0.486207
0.514021
0.542743
0.57248
0.603331
0.635389
0.668737
0.703454
0.739603
0.777236
0.81639
0.857098
0.899383
0.943258
0.988728
1.03578
1.08441
1.1346
1.1863
1.23948
1.2941
1.35011
1.40744
1.46604
1.52583
1.58673
1.64863
1.71139
1.77491
1.83906
1.90373
1.96882
2.0342
2.09975
2.16536
2.23095
2.29643
2.36174
2.4268
2.49156
2.55592
2.61983
2.68323
2.74608
2.80836
2.87002
2.93104
2.99135
3.0509
3.10964
3.1675
3.22444
3.2804
3.33534
3.3892
3.44192
3.49344
3.5437
3.59264
3.64023
3.68641
3.73115
3.77441
3.81616
3.85635
3.89495
3.93195
3.9673
4.00101
4.03305
4.06341
4.09209
4.11907
4.14434
4.16789
4.1897
4.20979
4.22813
4.24475
4.25963
4.27277
4.28418
4.29385
4.30177
4.30794
4.31237
4.31504
4.31595
4.31518
4.31262
4.30824
4.30214
4.29436
4.28491
4.27383
4.26115
4.24692
4.23118
4.21397
4.19536
4.17541
4.15417
4.13171
4.10808
4.08335
4.05757
4.03078
4.00302
3.9744
3.94499
3.91489
3.88417
3.85291
3.82117
3.78901
3.75649
3.72364
3.69052
3.65713
3.62353
3.5898
3.55598
3.52213
3.4883
3.45455
3.4209
3.38741
3.35413
3.32112
3.28845
3.25618
3.22436
3.19228
3.15858
0.00274164
0.0348377
0.0589426
0.0691347
0.0731732
0.0741152
0.0731914
0.0710408
0.0682506
0.065371
0.0628492
0.0609393
0.0598354
0.059487
0.0599305
0.0613632
0.0637228
0.0669767
0.071106
0.076087
0.0818659
0.0883632
0.0954875
0.103149
0.111271
0.119792
0.128699
0.138045
0.147954
0.158617
0.170252
0.183062
0.197183
0.21266
0.229455
0.247467
0.266557
0.286583
0.307417
0.328954
0.351121
0.373874
0.397203
0.421133
0.445713
0.471022
0.497155
0.524218
0.552317
0.581558
0.612044
0.643878
0.677158
0.711971
0.748399
0.786508
0.826361
0.868011
0.911499
0.95686
1.00411
1.05326
1.1043
1.15721
1.21196
1.2685
1.32678
1.3867
1.44819
1.51115
1.57545
1.64097
1.70757
1.77507
1.8433
1.91213
1.98143
2.0511
2.12104
2.19114
2.26127
2.33135
2.40129
2.47102
2.54046
2.60953
2.67809
2.74608
2.81347
2.88022
2.9463
3.01166
3.07627
3.14006
3.20298
3.26495
3.32593
3.38584
3.44464
3.50227
3.55869
3.61383
3.66763
3.72003
3.77097
3.8204
3.8683
3.91461
3.95932
4.00238
4.04376
4.08343
4.12137
4.15755
4.19197
4.22462
4.25548
4.28457
4.31187
4.33736
4.36104
4.38291
4.40296
4.42119
4.43761
4.45223
4.46505
4.47606
4.48528
4.49269
4.49831
4.50213
4.50414
4.50434
4.50284
4.49937
4.49405
4.48695
4.47811
4.46753
4.45525
4.44131
4.42574
4.40859
4.38991
4.36976
4.34819
4.32527
4.30107
4.27565
4.24908
4.2214
4.19265
4.16285
4.13215
4.10063
4.06838
4.03547
4.00199
3.96799
3.93354
3.89871
3.86353
3.82805
3.79225
3.75622
3.72005
3.68381
3.64754
3.6113
3.57514
3.5391
3.50321
3.46753
3.43212
3.39706
3.36242
3.3283
3.29401
3.25848
0.0035828
0.0408996
0.0661145
0.0765371
0.080533
0.0813502
0.0801344
0.0776614
0.0748352
0.0723034
0.0704184
0.0694121
0.0690972
0.0694282
0.0706863
0.0728128
0.0757449
0.0794303
0.0838291
0.0889031
0.0946118
0.100922
0.10781
0.115261
0.123275
0.131885
0.141157
0.151182
0.162072
0.173932
0.186833
0.200817
0.215875
0.231955
0.248976
0.266845
0.285472
0.304784
0.324724
0.345261
0.366387
0.388117
0.410482
0.43354
0.457371
0.482075
0.507757
0.534494
0.562396
0.591582
0.622171
0.654278
0.688015
0.723489
0.7608
0.800035
0.841272
0.884588
0.930042
0.977683
1.02754
1.07964
1.13396
1.19047
1.24912
1.30985
1.37259
1.43719
1.50353
1.57143
1.64071
1.71117
1.78265
1.85494
1.92786
2.0012
2.07478
2.14862
2.22266
2.29683
2.37104
2.44515
2.51909
2.5928
2.66617
2.73905
2.81132
2.88292
2.95383
3.02399
3.09334
3.16185
3.22947
3.29614
3.3618
3.42636
3.48978
3.55197
3.6129
3.67251
3.73075
3.78756
3.84289
3.89665
3.94881
3.99931
4.04813
4.09523
4.14059
4.18418
4.22597
4.26592
4.30403
4.34028
4.37466
4.40718
4.43783
4.46662
4.49354
4.51859
4.54176
4.56304
4.58245
4.59999
4.61567
4.6295
4.64147
4.65162
4.65993
4.66641
4.67107
4.67392
4.67495
4.67422
4.67161
4.66697
4.6605
4.65223
4.64215
4.63029
4.61669
4.60137
4.58437
4.56573
4.54551
4.52376
4.50054
4.47592
4.44996
4.42274
4.39431
4.36475
4.33408
4.30236
4.26969
4.23618
4.20189
4.16692
4.13132
4.09518
4.05856
4.02153
3.98414
3.94644
3.90836
3.87005
3.8316
3.79308
3.75454
3.71604
3.67762
3.63932
3.60119
3.56324
3.52557
3.48827
3.45141
3.41513
3.37875
3.34161
0.00448919
0.0468478
0.0731892
0.0838677
0.087836
0.0884907
0.0869165
0.0842818
0.0816836
0.0796959
0.0786161
0.078252
0.0784578
0.0794448
0.0812496
0.0838148
0.0870855
0.0910193
0.095593
0.100796
0.106626
0.11309
0.120204
0.128001
0.136525
0.145826
0.155958
0.166969
0.178892
0.191729
0.20547
0.220087
0.235522
0.25171
0.268589
0.286107
0.304229
0.322939
0.342239
0.362147
0.38269
0.403916
0.425894
0.448717
0.472502
0.497413
0.523494
0.550725
0.579283
0.609315
0.640963
0.674356
0.709624
0.746893
0.786281
0.827893
0.871828
0.918157
0.966934
1.0182
1.072
1.12836
1.18719
1.24843
1.31201
1.37784
1.4458
1.51575
1.5875
1.66077
1.73526
1.81065
1.88678
1.96357
2.04081
2.11825
2.19572
2.27333
2.35103
2.42874
2.5063
2.58362
2.66076
2.73769
2.81417
2.89006
2.96526
3.03973
3.11333
3.18602
3.25773
3.32843
3.39808
3.46662
3.53397
3.60005
3.66481
3.72818
3.79011
3.85058
3.90952
3.96688
4.0226
4.07661
4.12885
4.17929
4.2279
4.27468
4.3196
4.36264
4.40377
4.44297
4.48021
4.51551
4.54887
4.58028
4.60978
4.63736
4.66302
4.68677
4.7086
4.72851
4.74652
4.76264
4.77687
4.78925
4.79977
4.80846
4.81531
4.82036
4.8236
4.82504
4.82477
4.82276
4.81861
4.81259
4.80475
4.79509
4.78362
4.77035
4.75531
4.73853
4.72004
4.69988
4.6781
4.65475
4.62989
4.60359
4.57591
4.54692
4.51669
4.48529
4.4528
4.41929
4.38481
4.34943
4.31324
4.27632
4.23873
4.20056
4.16188
4.12276