/*--------------------------------*- C++ -*----------------------------------*\
  =========                 |
  \\      /  F ield         | OpenFOAM: The Open Source CFD Toolbox
   \\    /   O peration     | Website:  https://openfoam.org
    \\  /    A nd           | Version:  13
     \\/     M anipulation  |
\*---------------------------------------------------------------------------*/
FoamFile
{
    format      ascii;
    class       volScalarField;
    location    "500";
    object      nut;
}
// * * * * * * * * * * * * * * * * * * * * * * * * * * * * * * * * * * * * * //

dimensions      [0 2 -1 0 0 0 0];

internalField   nonuniform List<scalar> 
12225
(
5.28271e-06
1.37998e-05
2.14632e-05
3.36259e-05
3.63518e-05
2.82064e-05
2.43842e-05
2.0058e-05
1.86824e-05
2.00601e-05
1.91436e-05
1.70343e-05
2.1481e-05
2.95769e-05
2.40886e-05
2.70715e-05
2.57181e-05
3.15017e-05
2.00654e-08
4.34194e-08
1.53973e-07
8.67515e-07
1.49854e-06
1.91115e-06
7.00818e-06
7.75563e-06
9.96255e-06
1.58176e-05
2.7336e-05
3.32879e-05
3.87861e-05
4.31542e-05
4.49158e-05
4.59724e-05
4.60832e-05
4.71671e-05
1.68249e-07
1.9706e-07
4.93232e-07
1.36123e-06
5.29113e-06
1.19905e-05
1.73559e-05
2.07522e-05
2.20674e-05
2.2974e-05
2.42293e-05
2.44473e-05
2.41593e-05
2.4774e-05
2.45216e-05
2.43411e-05
2.24237e-05
2.12269e-05
1.15605e-06
1.54764e-06
3.81873e-06
8.31126e-06
2.38226e-05
4.94164e-05
6.9672e-05
7.6731e-05
6.81165e-05
5.42032e-05
3.83156e-05
2.63145e-05
1.83675e-05
1.89117e-05
1.71169e-05
1.49548e-05
1.28127e-05
1.33264e-05
7.57555e-06
1.05438e-05
1.96713e-05
3.89008e-05
7.92634e-05
0.000143671
0.000202972
0.000226048
0.000205453
0.000178461
0.000132337
0.000103791
7.10693e-05
6.83101e-05
5.66631e-05
4.67462e-05
3.64609e-05
3.00327e-05
4.81211e-05
5.73674e-05
6.62606e-05
0.000110291
0.00019375
0.00030502
0.000398542
0.000427119
0.000390151
0.000307179
0.000259556
0.000186929
0.00020091
0.000169542
0.00013863
0.000125525
0.000112256
0.000100846
0.000239122
0.000263042
0.000175075
0.000234243
0.000356017
0.000487583
0.000588713
0.000604852
0.000587901
0.000481039
0.000395771
0.000327525
0.00027453
0.00022568
0.00018235
0.000191983
0.000183396
0.000151722
0.000626861
0.000570825
0.000564326
0.000431147
0.000558628
0.000588132
0.000668108
0.000705065
0.000687933
0.000617544
0.000543088
0.000468569
0.000416923
0.000364196
0.000331925
0.000289037
0.000299764
0.000285809
0.000794273
0.000777332
0.00076895
0.000739721
0.000777
0.000734926
0.000753416
0.000776186
0.000768144
0.000725426
0.000672601
0.000612183
0.000563373
0.000515516
0.000483386
0.000439824
0.000445345
0.000429962
0.000840312
0.000836513
0.000833423
0.000829064
0.000830866
0.000836818
0.000820473
0.000821892
0.000819652
0.000799811
0.000770595
0.000733389
0.000698417
0.00066206
0.000631971
0.000601836
0.00058302
0.000549916
0.000849555
0.000848467
0.000847034
0.000845641
0.000845629
0.000845678
0.000847099
0.000843652
0.000841555
0.000834719
0.000821564
0.000804551
0.00078497
0.000765669
0.000742947
0.000727269
0.000702522
0.000693818
0.000851158
0.000850273
0.000849412
0.0008483
0.000847836
0.000847383
0.000847378
0.000847801
0.000848061
0.000845036
0.000839507
0.000832317
0.000823512
0.000813912
0.000801807
0.000792434
0.000777227
0.000770981
0.000851489
0.000850606
0.000849864
0.00084885
0.000848353
0.00084743
0.000847283
0.000846884
0.000846707
0.000846174
0.000844359
0.000843747
0.00084001
0.000836088
0.000830361
0.00082606
0.000823074
0.000818008
0.000851543
0.000850653
0.000849913
0.000849003
0.00084841
0.000847532
0.00084708
0.000846435
0.000846015
0.000845472
0.000844773
0.00084401
0.0008431
0.000841659
0.000840588
0.000837595
0.000838215
0.000835924
0.000851545
0.000850664
0.000849879
0.00084906
0.000848363
0.00084761
0.00084699
0.000846332
0.000845786
0.000845185
0.000844669
0.000844054
0.000843554
0.000842878
0.000842352
0.000841552
0.00084094
0.000840054
0.00085154
0.000850671
0.000849858
0.000849071
0.000848337
0.000847623
0.00084696
0.000846314
0.000845717
0.000845127
0.000844584
0.000844038
0.00084354
0.00084303
0.000842564
0.000842081
0.00084163
0.000841163
0.000851537
0.000850673
0.000849852
0.000849069
0.000848327
0.000847618
0.000846946
0.000846303
0.000845693
0.000845107
0.000844551
0.000844016
0.000843508
0.000843017
0.000842551
0.000842101
0.000841671
0.000841256
0.000851539
0.000850677
0.000849857
0.000849077
0.000848334
0.000847627
0.000846953
0.00084631
0.000845698
0.000845112
0.000844553
0.000844019
0.000843507
0.000843018
0.000842549
0.0008421
0.00084167
0.000841258
0.000851537
0.000850674
0.000849851
0.000849069
0.000848324
0.000847615
0.000846939
0.000846295
0.00084568
0.000845093
0.000844532
0.000843997
0.000843483
0.000842993
0.000842523
0.000842072
0.00084164
0.000841226
0.000851531
0.000850679
0.000849853
0.000849068
0.000848319
0.000847614
0.000846936
0.000846298
0.000845681
0.000845103
0.000844539
0.000844009
0.000843489
0.000842996
0.000842511
0.000842049
0.00084159
0.000841152
0.000851472
0.000850769
0.000849909
0.000848991
0.000848208
0.000847532
0.000846862
0.000846287
0.00084567
0.000845152
0.000844546
0.000844031
0.000843393
0.000842826
0.000842183
0.000841533
0.000840861
0.000840157
0.000851356
0.000851272
0.000850473
0.000846825
0.00084591
0.000845573
0.000845356
0.000845263
0.000844851
0.000844607
0.00084377
0.000842844
0.000841353
0.000839963
0.000838564
0.000836306
0.000835872
0.000832903
0.000851568
0.000845818
0.000832664
0.000816429
0.000815232
0.000818514
0.000822722
0.000826534
0.000828245
0.000834034
0.000827215
0.000827698
0.000822866
0.000816828
0.000808434
0.000800194
0.000789569
0.000779884
0.000811593
0.00078649
0.000697466
0.000634216
0.000591886
0.000600909
0.000611093
0.000623331
0.00066967
0.000725368
0.000708397
0.000727152
0.000730592
0.000720235
0.000702911
0.000683272
0.000660404
0.000641214
0.000409984
0.0084735
0.000358234
0.000285737
0.000233483
0.000236332
0.000286161
0.000341679
0.000378292
0.000425275
0.000509192
0.0004647
0.00052245
0.000519748
0.000509561
0.000489416
0.000462594
0.000440367
0.000133353
0.0308311
0.000115741
5.7993e-05
5.94479e-05
7.8484e-05
9.76792e-05
0.000162849
0.000124636
0.000133172
0.000147912
0.000157658
0.000224688
0.000208001
0.000251875
0.000270829
0.000259923
0.000246817
0.000197452
8.34685e-05
4.30501e-05
3.19928e-05
2.75146e-05
2.18757e-05
2.55887e-05
2.53279e-05
3.10891e-05
3.14105e-05
5.23561e-05
4.82624e-05
5.18788e-05
6.54313e-05
9.14821e-05
7.84279e-05
8.22239e-05
8.01308e-05
6.01024e-05
1.3851e-05
4.79634e-06
3.71417e-06
2.30793e-06
2.69527e-06
3.02199e-06
8.17689e-06
1.01963e-05
9.34438e-06
1.28166e-05
1.77449e-05
1.83643e-05
2.03273e-05
2.47342e-05
3.12979e-05
3.02532e-05
3.11738e-05
1.03858e-05
8.53747e-06
8.12171e-06
6.41261e-06
7.07835e-06
8.94854e-06
1.18219e-05
1.64436e-05
2.42094e-05
2.86464e-05
3.38581e-05
3.71028e-05
4.11503e-05
4.43211e-05
4.77516e-05
5.02471e-05
5.02146e-05
4.92229e-05
1.17239e-05
1.61435e-05
1.91569e-05
2.09672e-05
2.18194e-05
2.20122e-05
2.19458e-05
2.1664e-05
2.13169e-05
2.09595e-05
2.06016e-05
2.02513e-05
1.9936e-05
1.96414e-05
1.93666e-05
1.91125e-05
1.88691e-05
1.86444e-05
1.35633e-12
1.53189e-10
7.82835e-10
3.08248e-09
1.03104e-08
3.12367e-08
8.28975e-08
1.66912e-07
2.73284e-07
3.86491e-07
4.89156e-07
5.69261e-07
6.23326e-07
6.44717e-07
6.37129e-07
6.13252e-07
5.63783e-07
4.86184e-07
4.10469e-07
3.48358e-07
2.90599e-07
2.35453e-07
1.82269e-07
1.33158e-07
8.87649e-08
5.35923e-08
2.94282e-08
1.52416e-08
7.87035e-09
4.27868e-09
2.54876e-09
1.7922e-09
1.79974e-09
2.91959e-09
4.37056e-09
3.28999e-08
7.90289e-08
1.94409e-07
3.42697e-07
4.44649e-07
4.35507e-07
3.85635e-07
3.11494e-07
2.75278e-07
2.81444e-07
3.43728e-07
4.1857e-07
7.29968e-07
1.37318e-06
3.50969e-06
1.10046e-05
2.40848e-05
3.61019e-05
3.91116e-05
2.6977e-05
3.34112e-05
3.76971e-05
3.58983e-05
3.27004e-05
3.65713e-05
3.42659e-05
3.58225e-05
3.77918e-05
3.0007e-05
3.32608e-05
3.304e-05
3.38847e-05
3.43758e-05
3.4985e-05
3.55109e-05
3.60838e-05
3.66058e-05
3.7154e-05
3.76734e-05
3.82032e-05
3.87187e-05
3.92365e-05
3.97473e-05
4.02573e-05
4.07639e-05
4.12684e-05
4.17714e-05
4.22721e-05
4.27722e-05
4.32698e-05
4.37673e-05
4.42623e-05
4.47573e-05
4.52505e-05
4.57431e-05
4.62342e-05
4.67231e-05
4.72099e-05
4.76942e-05
4.81756e-05
4.86542e-05
4.91303e-05
4.96056e-05
5.00824e-05
5.05666e-05
5.10647e-05
5.15644e-05
5.20694e-05
5.2581e-05
5.30995e-05
5.36261e-05
5.41607e-05
5.47039e-05
5.52564e-05
5.5818e-05
5.63903e-05
5.69725e-05
5.75667e-05
5.81718e-05
5.87904e-05
5.94212e-05
6.00671e-05
6.0727e-05
6.14034e-05
6.20958e-05
6.28077e-05
6.35393e-05
6.4294e-05
6.50717e-05
6.58762e-05
6.67083e-05
6.75748e-05
6.84812e-05
6.94397e-05
7.04086e-05
7.13577e-05
7.24609e-05
7.34692e-05
7.46747e-05
7.57652e-05
7.7036e-05
7.78917e-05
7.76433e-05
7.73869e-05
7.71116e-05
7.68249e-05
7.65245e-05
7.62124e-05
7.5889e-05
7.55548e-05
7.52108e-05
7.48573e-05
7.44952e-05
7.41247e-05
7.37469e-05
7.3362e-05
7.29709e-05
7.25737e-05
7.21711e-05
7.1764e-05
7.13528e-05
7.09396e-05
7.05255e-05
7.01137e-05
6.97037e-05
6.92975e-05
6.88942e-05
6.8497e-05
6.81036e-05
6.77175e-05
6.73356e-05
6.69616e-05
6.65919e-05
6.62309e-05
6.58744e-05
6.55269e-05
6.5183e-05
6.48465e-05
6.45102e-05
6.41741e-05
6.38253e-05
6.34589e-05
6.30347e-05
6.25134e-05
6.11241e-05
6.77028e-12
1.10531e-09
1.48425e-08
7.74815e-08
3.35432e-07
1.07205e-06
2.50467e-06
4.60062e-06
7.16745e-06
1.01132e-05
1.31186e-05
1.59252e-05
1.83395e-05
2.01129e-05
2.12819e-05
2.16218e-05
2.1344e-05
2.04732e-05
1.87464e-05
1.56675e-05
1.21885e-05
9.03283e-06
6.39442e-06
4.35861e-06
2.76876e-06
1.7304e-06
1.06286e-06
6.66603e-07
4.18889e-07
2.73726e-07
1.95382e-07
1.59313e-07
1.61257e-07
2.2208e-07
1.67722e-07
2.06921e-06
4.80171e-06
1.12328e-05
1.81015e-05
2.22364e-05
2.25739e-05
2.10429e-05
1.82202e-05
1.61871e-05
1.60655e-05
1.65908e-05
1.7401e-05
2.1759e-05
3.09668e-05
4.19573e-05
5.35572e-05
6.49734e-05
7.51714e-05
8.3421e-05
8.91632e-05
0.000100476
0.000110747
0.000121899
0.000134273
0.000148007
0.000162328
0.000175385
0.000189322
0.000197807
0.000210984
0.000222123
0.000233625
0.000244576
0.000255096
0.000265252
0.000275099
0.000284704
0.000294059
0.000303232
0.00031221
0.000321047
0.000329732
0.0003383
0.000346745
0.000355091
0.000363333
0.000371485
0.000379544
0.000387521
0.00039541
0.00040322
0.000410945
0.000418592
0.000426154
0.000433634
0.000441026
0.000448324
0.000455517
0.000462591
0.000469524
0.000476285
0.000482829
0.000489092
0.000494981
0.000500377
0.000505134
0.000509836
0.000514354
0.000518784
0.000523071
0.000527242
0.00053128
0.000535192
0.000538969
0.000542614
0.000546121
0.000549489
0.000552717
0.000555803
0.000558744
0.000561538
0.000564184
0.000566679
0.00056902
0.000571204
0.000573229
0.000575094
0.000576798
0.000578341
0.000579719
0.00058093
0.000581972
0.000582848
0.000583561
0.000584111
0.00058448
0.000584785
0.000584793
0.000584686
0.000584263
0.000584121
0.000583887
0.000583732
0.000583405
0.000582913
0.000582261
0.000581453
0.000580494
0.000579392
0.00057815
0.000576776
0.000575274
0.000573649
0.000571908
0.000570061
0.000568119
0.000566078
0.000563944
0.000561723
0.00055942
0.000557041
0.000554603
0.000552104
0.000549572
0.000547011
0.000544435
0.000541847
0.000539263
0.000536679
0.000534109
0.000531541
0.000528989
0.00052644
0.00052391
0.000521382
0.000518872
0.000516353
0.00051383
0.000511255
0.000508591
0.000505735
0.000502597
0.000498836
0.000493784
0.000479084
1.60318e-11
2.72516e-09
5.13334e-08
3.01264e-07
1.1161e-06
2.65696e-06
5.72178e-06
1.00185e-05
1.54076e-05
2.1592e-05
2.82361e-05
3.4805e-05
4.07656e-05
4.57606e-05
4.96975e-05
5.22263e-05
5.37458e-05
5.40763e-05
5.29035e-05
5.01214e-05
4.61574e-05
4.04082e-05
3.35852e-05
2.66441e-05
2.01713e-05
1.45956e-05
9.99041e-06
6.74155e-06
4.31714e-06
2.86821e-06
1.99921e-06
1.54614e-06
1.31743e-06
1.60243e-06
2.29872e-06
1.13355e-05
2.54288e-05
4.63071e-05
6.07039e-05
6.52857e-05
5.98846e-05
4.59194e-05
3.99692e-05
4.25338e-05
4.92848e-05
5.67525e-05
6.73383e-05
8.00215e-05
9.27268e-05
0.000107385
0.000125514
0.000145254
0.000167045
0.00018975
0.000215636
0.000244932
0.000274166
0.00030411
0.000334422
0.000364071
0.000393264
0.000420216
0.000447385
0.000471306
0.000496433
0.00051939
0.00054197
0.000563519
0.000584257
0.000604452
0.000624082
0.000643279
0.000662062
0.000680508
0.000698634
0.000716489
0.000734085
0.00075145
0.000768593
0.000785531
0.000802267
0.000818811
0.000835164
0.000851331
0.000867309
0.000883099
0.000898696
0.000914098
0.000929295
0.00094428
0.000959038
0.000973553
0.000987802
0.00100176
0.00101539
0.00102866
0.00104152
0.00105394
0.00106589
0.00107735
0.00108844
0.00109933
0.00110992
0.00112027
0.00113034
0.00114014
0.00114966
0.00115889
0.00116784
0.00117649
0.00118484
0.00119289
0.00120064
0.00120808
0.0012152
0.00122201
0.00122849
0.00123466
0.00124049
0.00124599
0.00125115
0.00125596
0.00126044
0.00126457
0.00126836
0.0012718
0.00127488
0.00127762
0.00128
0.00128203
0.00128369
0.00128505
0.00128596
0.0012865
0.00128671
0.00128704
0.001287
0.00128664
0.0012859
0.00128479
0.00128333
0.00128151
0.00127935
0.00127687
0.00127408
0.00127098
0.0012676
0.00126395
0.00126005
0.0012559
0.00125154
0.00124697
0.0012422
0.00123724
0.0012321
0.0012268
0.00122138
0.00121583
0.0012102
0.0012045
0.00119876
0.001193
0.00118723
0.00118148
0.00117575
0.00117004
0.00116435
0.00115868
0.00115304
0.00114742
0.00114183
0.00113624
0.00113063
0.00112492
0.001119
0.00111272
0.00110577
0.0010975
0.00108603
0.00105946
6.07534e-11
1.03097e-08
1.66982e-07
7.04451e-07
2.29917e-06
6.25213e-06
1.25853e-05
2.11749e-05
3.14568e-05
4.23733e-05
5.29763e-05
6.27148e-05
7.1126e-05
7.77361e-05
8.26596e-05
8.59894e-05
8.74824e-05
8.74905e-05
8.61696e-05
8.34192e-05
7.92602e-05
7.38084e-05
6.72569e-05
5.89541e-05
4.9602e-05
4.01417e-05
3.11268e-05
2.36063e-05
1.76315e-05
1.29659e-05
9.84113e-06
7.45749e-06
6.84531e-06
9.0609e-06
1.83392e-05
3.94149e-05
6.12743e-05
7.66405e-05
7.92625e-05
7.5602e-05
7.34006e-05
7.44623e-05
7.93384e-05
8.79775e-05
0.000100372
0.000113856
0.000127164
0.000150327
0.000172195
0.00020202
0.000234565
0.000271141
0.000310284
0.000351462
0.000394229
0.000438004
0.000481473
0.000524568
0.000566642
0.000607646
0.000647214
0.00068464
0.000721485
0.000756065
0.000790134
0.000822523
0.000854012
0.000884482
0.000914154
0.000943146
0.000971514
0.000999351
0.00102671
0.00105363
0.00108017
0.00110635
0.00113218
0.00115769
0.0011829
0.0012078
0.0012324
0.00125671
0.00128073
0.00130445
0.00132787
0.00135099
0.0013738
0.00139629
0.00141845
0.00144026
0.00146171
0.00148278
0.00150344
0.00152369
0.00154348
0.00156281
0.00158165
0.0016
0.00161786
0.00163527
0.00165228
0.00166893
0.00168518
0.00170103
0.00171646
0.00173149
0.00174609
0.00176026
0.00177399
0.00178728
0.00180013
0.00181252
0.00182445
0.00183592
0.00184693
0.00185746
0.00186752
0.0018771
0.00188619
0.00189478
0.00190288
0.00191047
0.00191757
0.00192416
0.00193024
0.00193581
0.00194086
0.0019454
0.00194943
0.00195294
0.0019559
0.00195835
0.00196021
0.00196153
0.00196238
0.00196318
0.00196326
0.00196285
0.00196189
0.0019604
0.00195838
0.00195584
0.0019528
0.00194928
0.0019453
0.00194087
0.00193602
0.00193077
0.00192514
0.00191916
0.00191285
0.00190622
0.00189929
0.00189209
0.00188463
0.00187694
0.00186904
0.00186097
0.00185276
0.00184444
0.00183605
0.00182761
0.00181917
0.00181072
0.00180229
0.00179388
0.00178549
0.00177712
0.00176878
0.00176047
0.0017522
0.00174392
0.00173561
0.00172718
0.00171849
0.00170932
0.00169927
0.0016874
0.00167125
0.00163998
2.04489e-10
3.09236e-08
3.70101e-07
1.76053e-06
6.06361e-06
1.48269e-05
2.78298e-05
4.35984e-05
6.02847e-05
7.62851e-05
9.03058e-05
0.000101623
0.00011007
0.000116036
0.000119312
0.000120548
0.000120137
0.000118395
0.000115552
0.000111723
0.000106599
0.000100867
9.4287e-05
8.61839e-05
7.67888e-05
6.63232e-05
5.52835e-05
4.50073e-05
3.61884e-05
2.92044e-05
2.30783e-05
2.00591e-05
2.22034e-05
3.40736e-05
5.84967e-05
7.87277e-05
8.9899e-05
9.49943e-05
9.74362e-05
0.000100579
0.00010674
0.000117007
0.000132362
0.000142956
0.000157701
0.000183199
0.000212057
0.000247526
0.000285973
0.000331417
0.000378659
0.000429361
0.000481345
0.000534343
0.000587545
0.000640571
0.00069277
0.000743924
0.000793799
0.000842154
0.000888958
0.00093431
0.000978267
0.00102057
0.00106178
0.00110168
0.00114056
0.00117848
0.0012156
0.00125198
0.00128771
0.00132286
0.00135748
0.0013916
0.00142525
0.00145848
0.00149128
0.00152367
0.00155565
0.00158724
0.00161843
0.00164922
0.0016796
0.00170958
0.00173914
0.00176829
0.00179701
0.00182529
0.00185313
0.0018805
0.0019074
0.00193381
0.00195971
0.0019851
0.00200995
0.00203427
0.00205805
0.0020813
0.00210404
0.00212627
0.00214802
0.00216927
0.00219001
0.00221024
0.00222995
0.00224912
0.00226775
0.00228584
0.00230336
0.00232033
0.00233673
0.00235256
0.00236781
0.00238248
0.00239657
0.00241006
0.00242296
0.00243526
0.00244695
0.00245803
0.00246849
0.00247833
0.00248755
0.00249614
0.0025041
0.00251143
0.00251812
0.00252418
0.0025296
0.00253439
0.00253852
0.00254196
0.00254473
0.00254678
0.0025483
0.00254948
0.00254988
0.00254961
0.00254868
0.00254709
0.00254486
0.002542
0.00253852
0.00253445
0.00252981
0.00252461
0.0025189
0.00251269
0.00250601
0.00249888
0.00249133
0.00248339
0.00247508
0.00246642
0.00245743
0.00244815
0.00243859
0.00242881
0.00241884
0.00240872
0.00239848
0.00238817
0.00237782
0.00236744
0.00235706
0.00234668
0.0023363
0.00232593
0.00231558
0.00230523
0.00229489
0.00228454
0.00227415
0.00226364
0.00225287
0.0022416
0.00222944
0.00221531
0.00219665
0.00216528
6.4953e-10
7.68059e-08
9.23226e-07
4.66484e-06
1.55657e-05
3.34237e-05
5.51555e-05
7.75072e-05
9.71647e-05
0.000112371
0.000123636
0.000132354
0.000138277
0.000141965
0.000143746
0.000143877
0.000142575
0.000140029
0.000136446
0.000131895
0.000126296
0.000120169
0.000113185
0.000105014
9.57385e-05
8.07514e-05
6.64639e-05
5.30234e-05
4.15888e-05
3.44463e-05
3.25998e-05
3.86711e-05
5.59013e-05
7.94769e-05
9.81868e-05
0.000110247
0.000117342
0.00012271
0.00013013
0.00014234
0.000158236
0.000167882
0.000184801
0.000210354
0.000240646
0.000279123
0.000322162
0.000371149
0.000423278
0.000479492
0.00053694
0.000596221
0.000655856
0.000715572
0.000774838
0.000833422
0.000890874
0.000947063
0.00100199
0.00105577
0.00110798
0.00115875
0.00120818
0.00125624
0.00130313
0.00134888
0.00139364
0.0014375
0.00148054
0.00152284
0.00156447
0.00160548
0.00164591
0.00168579
0.00172514
0.00176399
0.00180233
0.00184017
0.00187751
0.00191436
0.00195071
0.00198654
0.00202187
0.00205669
0.00209098
0.00212475
0.00215798
0.00219067
0.0022228
0.00225439
0.0022854
0.00231584
0.00234569
0.00237495
0.00240361
0.00243168
0.00245915
0.00248604
0.00251236
0.00253809
0.00256324
0.00258781
0.00261178
0.00263514
0.0026579
0.00268003
0.00270154
0.00272241
0.00274264
0.00276223
0.00278116
0.00279943
0.00281704
0.002834
0.00285028
0.00286589
0.00288083
0.00289509
0.00290866
0.00292154
0.00293372
0.0029452
0.00295599
0.00296607
0.00297544
0.00298411
0.00299206
0.00299931
0.00300584
0.00301169
0.00301675
0.00302106
0.00302465
0.00302741
0.00302957
0.00303122
0.00303205
0.00303211
0.00303144
0.00303005
0.00302793
0.00302512
0.00302162
0.00301747
0.00301267
0.00300725
0.00300125
0.00299468
0.00298758
0.00297997
0.00297188
0.00296333
0.00295435
0.00294496
0.0029352
0.00292507
0.00291463
0.00290391
0.00289295
0.00288179
0.00287048
0.00285904
0.00284752
0.00283595
0.00282433
0.00281267
0.00280099
0.00278929
0.00277757
0.00276585
0.00275412
0.00274237
0.00273057
0.00271867
0.00270653
0.00269396
0.00268059
0.00266546
0.00264619
0.00261663
2.06132e-09
1.93642e-07
2.43166e-06
1.28881e-05
3.44699e-05
6.25136e-05
9.06292e-05
0.000114217
0.000132237
0.000145133
0.000153927
0.000159033
0.000161459
0.000162087
0.000161416
0.000159709
0.000157108
0.000153689
0.000149404
0.000144203
0.000138135
0.000131276
0.000123185
0.000108408
9.23531e-05
7.78108e-05
6.426e-05
5.33505e-05
4.76808e-05
5.18706e-05
6.62448e-05
8.78762e-05
0.000110916
0.00012588
0.000136962
0.000145291
0.000153894
0.000166626
0.000181608
0.000190362
0.00020714
0.000231783
0.000261623
0.000299546
0.000343286
0.000393742
0.000448187
0.000506519
0.000567008
0.000629548
0.000692825
0.000756742
0.000820551
0.000883999
0.000946662
0.0010083
0.001069
0.00112871
0.00118714
0.00124438
0.00130029
0.0013549
0.00140828
0.00146047
0.00151157
0.00156164
0.00161077
0.00165904
0.00170651
0.00175325
0.00179931
0.00184472
0.00188952
0.00193373
0.00197735
0.00202039
0.00206286
0.00210475
0.00214605
0.00218677
0.00222689
0.00226641
0.00230531
0.00234361
0.00238129
0.00241834
0.00245476
0.00249056
0.00252572
0.00256025
0.00259414
0.00262738
0.00265998
0.00269192
0.00272322
0.00275386
0.00278385
0.00281318
0.00284183
0.00286984
0.0028972
0.0029239
0.00294995
0.00297534
0.00300005
0.00302409
0.00304745
0.00307012
0.00309211
0.00311341
0.00313403
0.00315396
0.00317317
0.00319168
0.00320948
0.00322655
0.00324291
0.00325854
0.00327344
0.0032876
0.00330102
0.0033137
0.00332564
0.00333683
0.00334727
0.00335696
0.00336589
0.00337407
0.00338152
0.00338825
0.00339408
0.00339917
0.0034035
0.00340695
0.00340974
0.00341192
0.00341325
0.00341378
0.00341353
0.00341251
0.00341074
0.00340822
0.00340499
0.00340106
0.00339647
0.00339127
0.00338545
0.00337902
0.00337202
0.00336447
0.00335638
0.0033478
0.00333874
0.00332922
0.00331927
0.00330892
0.00329821
0.00328716
0.00327583
0.00326425
0.00325247
0.00324052
0.00322844
0.00321624
0.00320396
0.0031916
0.00317917
0.00316669
0.00315415
0.00314159
0.00312899
0.00311635
0.00310367
0.0030909
0.00307794
0.00306465
0.00305069
0.00303532
0.00301665
0.00298988
6.18319e-09
5.0928e-07
6.48498e-06
2.80887e-05
6.04911e-05
9.31548e-05
0.000120094
0.000140542
0.000155728
0.000165589
0.000171043
0.000173454
0.000173849
0.000172805
0.000170736
0.000167867
0.000164233
0.000159701
0.000154294
0.000148124
0.000141377
0.000133841
0.000119378
0.000103768
9.06375e-05
8.09138e-05
7.65511e-05
7.90627e-05
8.11486e-05
9.56501e-05
0.000119633
0.000143421
0.000161906
0.000171999
0.000182101
0.000194888
0.000202266
0.000210597
0.000225852
0.000248049
0.000276495
0.000312272
0.000354229
0.000403079
0.000457121
0.000515725
0.000577053
0.000640609
0.000705483
0.000771322
0.000837477
0.000903678
0.000969556
0.00103451
0.00109877
0.00116245
0.00122503
0.00128661
0.00134706
0.00140638
0.00146454
0.00152156
0.00157748
0.00163233
0.00168619
0.00173912
0.00179116
0.00184239
0.00189285
0.00194259
0.00199165
0.00204007
0.00208785
0.00213502
0.00218157
0.00222748
0.00227277
0.00231742
0.00236141
0.00240474
0.00244739
0.00248935
0.00253063
0.00257121
0.0026111
0.00265028
0.00268875
0.00272653
0.00276361
0.0028
0.0028357
0.00287071
0.00290503
0.00293866
0.0029716
0.00300385
0.00303541
0.00306625
0.0030964
0.00312587
0.00315467
0.00318279
0.00321023
0.00323698
0.00326304
0.0032884
0.00331305
0.003337
0.00336024
0.00338275
0.00340454
0.00342561
0.00344595
0.00346555
0.00348442
0.00350255
0.00351993
0.00353657
0.00355246
0.0035676
0.00358198
0.00359559
0.00360845
0.00362054
0.00363187
0.00364244
0.00365223
0.00366127
0.00366959
0.0036771
0.00368374
0.00368965
0.00369478
0.00369901
0.00370256
0.00370543
0.00370745
0.00370867
0.00370909
0.00370872
0.00370759
0.00370569
0.00370306
0.0036997
0.00369563
0.00369089
0.00368549
0.00367946
0.0036728
0.00366556
0.00365776
0.00364941
0.00364054
0.00363117
0.00362133
0.00361104
0.00360034
0.00358927
0.00357786
0.00356615
0.0035542
0.00354203
0.00352967
0.00351715
0.00350449
0.00349171
0.00347881
0.00346581
0.00345273
0.00343958
0.00342637
0.00341311
0.0033998
0.00338641
0.00337288
0.0033591
0.00334484
0.00332965
0.00331193
0.00328832
1.61965e-08
1.26328e-06
1.47685e-05
4.80793e-05
8.80307e-05
0.000123041
0.000149147
0.000166494
0.000176837
0.000182549
0.00018468
0.00018416
0.000181803
0.000178343
0.000174229
0.00016961
0.000164456
0.000158751
0.000152417
0.000145218
0.000137066
0.000125434
0.000110573
9.98289e-05
9.47293e-05
9.14545e-05
9.37148e-05
0.000105536
0.000124942
0.000146431
0.000167503
0.000185889
0.000200248
0.00020961
0.000217947
0.000227446
0.000241449
0.000260878
0.000286805
0.000319564
0.00035871
0.000404268
0.000455443
0.000511828
0.000572018
0.000635045
0.000699818
0.000765847
0.000832599
0.000899736
0.000966893
0.00103356
0.00109955
0.0011654
0.00123026
0.00129438
0.00135753
0.00141971
0.00148087
0.00154099
0.00160008
0.00165815
0.00171522
0.00177134
0.00182656
0.00188092
0.00193446
0.00198724
0.00203929
0.00209065
0.00214137
0.00219146
0.00224095
0.00228983
0.0023381
0.00238571
0.00243266
0.00247893
0.00252451
0.00256938
0.00261351
0.00265689
0.00269953
0.00274141
0.00278255
0.00282299
0.00286269
0.00290162
0.0029398
0.00297723
0.00301391
0.00304986
0.00308508
0.00311957
0.00315334
0.0031864
0.00321876
0.00325042
0.0032814
0.0033117
0.00334131
0.00337023
0.00339846
0.003426
0.00345284
0.00347898
0.00350441
0.00352913
0.00355313
0.00357641
0.00359896
0.00362079
0.00364188
0.00366225
0.00368187
0.00370075
0.00371888
0.00373627
0.00375291
0.0037688
0.00378393
0.0037983
0.00381192
0.00382478
0.00383687
0.00384821
0.00385879
0.00386863
0.00387776
0.00388602
0.00389349
0.00390023
0.0039062
0.0039113
0.0039157
0.00391938
0.00392224
0.00392429
0.00392555
0.00392602
0.00392573
0.00392468
0.00392288
0.00392036
0.00391711
0.00391318
0.00390856
0.00390329
0.00389738
0.00389086
0.00388373
0.00387604
0.00386778
0.00385899
0.00384968
0.00383988
0.00382963
0.00381896
0.0038079
0.0037965
0.0037848
0.00377283
0.00376062
0.00374819
0.00373558
0.00372278
0.00370982
0.00369672
0.00368349
0.00367016
0.00365675
0.00364326
0.00362971
0.0036161
0.00360238
0.0035885
0.00357425
0.00355926
0.00354232
0.00352131
3.6396e-08
2.92853e-06
2.70777e-05
7.05439e-05
0.000113158
0.000146945
0.000170318
0.000185128
0.000192518
0.000194361
0.00019258
0.000188574
0.000183304
0.000177357
0.000171108
0.000164401
0.000157574
0.000150289
0.000142842
0.000135363
0.000127846
0.000120246
0.000113565
0.000109602
0.000111515
0.000120293
0.00013411
0.000151274
0.000169908
0.000187937
0.000203855
0.000216291
0.000227294
0.000239213
0.000253177
0.000271013
0.000294221
0.000323583
0.000359235
0.000400916
0.000448143
0.000500532
0.000557362
0.000617873
0.000680973
0.000745829
0.000811751
0.000878337
0.000945238
0.00101219
0.00107854
0.00114468
0.00121036
0.0012754
0.00133963
0.00140301
0.00146547
0.00152701
0.00158759
0.00164722
0.00170589
0.00176363
0.00182046
0.00187644
0.0019316
0.00198601
0.00203969
0.00209269
0.00214497
0.00219664
0.00224775
0.0022983
0.00234831
0.0023978
0.00244681
0.00249544
0.00254345
0.00259075
0.00263729
0.00268306
0.00272803
0.00277217
0.00281549
0.00285796
0.0028996
0.00294038
0.00298031
0.00301946
0.00305786
0.00309552
0.00313244
0.00316863
0.00320412
0.0032389
0.00327298
0.00330638
0.00333911
0.00337116
0.00340254
0.00343324
0.00346327
0.00349262
0.00352129
0.00354928
0.00357659
0.00360321
0.00362913
0.00365436
0.00367889
0.00370272
0.00372583
0.00374823
0.00376991
0.00379087
0.0038111
0.0038306
0.00384937
0.0038674
0.0038847
0.00390127
0.00391708
0.00393216
0.0039465
0.00396008
0.00397293
0.00398503
0.0039964
0.00400708
0.00401697
0.00402607
0.00403445
0.00404208
0.00404897
0.00405503
0.0040604
0.00406502
0.00406884
0.00407187
0.00407413
0.00407562
0.00407634
0.00407632
0.00407555
0.00407406
0.00407184
0.00406893
0.00406532
0.00406105
0.00405611
0.00405054
0.00404435
0.00403755
0.00403016
0.0040222
0.00401368
0.00400462
0.00399507
0.00398505
0.00397461
0.00396377
0.00395257
0.00394106
0.00392925
0.00391718
0.00390485
0.0038923
0.00387953
0.00386657
0.00385345
0.00384019
0.00382681
0.00381334
0.00379979
0.00378618
0.0037725
0.00375872
0.00374473
0.00373021
0.00371417
0.00369592
7.01415e-08
6.07824e-06
4.18171e-05
9.34614e-05
0.000138624
0.000170467
0.000190808
0.000200918
0.000203729
0.000201649
0.000196479
0.000189502
0.000181616
0.000173058
0.00016452
0.000155916
0.000147557
0.000140164
0.000133919
0.000128855
0.000125471
0.000124978
0.000128328
0.000135785
0.000146559
0.000159889
0.000175013
0.000190894
0.000206316
0.000219933
0.000232236
0.00024589
0.000260986
0.000278478
0.00029975
0.000326136
0.000358125
0.000395727
0.000438646
0.000486456
0.000538692
0.000594875
0.000654348
0.000716359
0.000780093
0.000844909
0.000910331
0.000976038
0.00104154
0.00110663
0.0011717
0.00123615
0.00129996
0.00136302
0.00142522
0.00148652
0.00154691
0.0016064
0.00166499
0.0017227
0.00177955
0.00183553
0.00189063
0.00194501
0.00199869
0.00205176
0.00210428
0.00215639
0.00220834
0.00225982
0.00231079
0.00236126
0.00241122
0.0024607
0.00250966
0.002558
0.00260574
0.00265282
0.00269918
0.00274483
0.0027897
0.00283377
0.00287701
0.00291941
0.00296099
0.00300175
0.00304174
0.00308096
0.00311944
0.00315717
0.00319417
0.00323046
0.00326605
0.00330095
0.00333517
0.00336873
0.00340162
0.00343386
0.00346545
0.00349638
0.00352665
0.00355628
0.00358526
0.00361359
0.00364126
0.00366827
0.00369461
0.00372029
0.00374529
0.00376962
0.00379326
0.0038162
0.00383846
0.00386001
0.00388086
0.003901
0.00392042
0.00393913
0.00395713
0.0039744
0.00399095
0.00400678
0.00402188
0.00403626
0.00404991
0.00406285
0.00407509
0.00408661
0.00409739
0.00410745
0.0041168
0.00412543
0.00413334
0.00414048
0.00414693
0.00415263
0.00415755
0.0041617
0.0041651
0.00416775
0.00416965
0.00417081
0.00417124
0.00417094
0.00416992
0.0041682
0.00416578
0.00416267
0.0041589
0.00415447
0.0041494
0.00414369
0.00413736
0.00413041
0.00412287
0.00411475
0.00410609
0.00409692
0.00408727
0.00407718
0.00406669
0.00405583
0.00404462
0.00403309
0.00402125
0.00400913
0.00399675
0.00398413
0.00397131
0.0039583
0.00394515
0.00393188
0.00391852
0.00390509
0.0038916
0.00387805
0.0038644
0.00385041
0.0038352
0.00381942
1.14419e-07
1.03277e-05
5.43621e-05
0.000110437
0.000157579
0.000189272
0.00020647
0.000213073
0.000212531
0.000207484
0.000199841
0.00019076
0.000181241
0.000172113
0.000163667
0.000156495
0.000150353
0.000146478
0.000144493
0.000144685
0.000147404
0.000152862
0.000160991
0.000171414
0.000183525
0.000196777
0.000210423
0.000223522
0.00023614
0.000250147
0.000266244
0.00028395
0.000304246
0.000328467
0.000357258
0.000390989
0.000429574
0.00047272