/*--------------------------------*- C++ -*----------------------------------*\
  =========                 |
  \\      /  F ield         | OpenFOAM: The Open Source CFD Toolbox
   \\    /   O peration     | Website:  https://openfoam.org
    \\  /    A nd           | Version:  13
     \\/     M anipulation  |
\*---------------------------------------------------------------------------*/
FoamFile
{
    format      ascii;
    class       volScalarField;
    location    "500";
    object      omega;
}
// * * * * * * * * * * * * * * * * * * * * * * * * * * * * * * * * * * * * * //

dimensions      [0 0 -1 0 0 0 0];

internalField   nonuniform List<scalar> 
12225
(
31477.7
31477.7
31477.7
31477.7
31477.7
41359.3
49059.2
51669.2
50425.9
44352
37407.5
37345.4
31477.7
31477.7
37077.2
31477.7
31477.7
31477.7
2.57273e+06
1.19573e+06
458819
165447
131289
99415.3
55309.9
50542.2
44261.1
31334
22348
20535.1
18874.8
17924.9
17718.8
17432.2
17484.5
16926.3
546773
297897
135029
62236.7
31104.4
18991.3
13123.8
10422.8
9536.01
9033.1
8625.92
8576.97
8754.27
8647.24
8846.49
8930.76
8979.83
8999.32
145119
85755.6
42235.2
20486.2
10230.6
5757.01
3929.55
3138.57
2926.82
2916.86
3161.33
3443.42
3855.7
3622.68
3720.01
4074.42
4429.45
4228.25
34410.5
23754.2
14024.1
7497.05
3919.94
2272.15
1576.54
1312.56
1294.36
1298.16
1506.69
1627.93
2004.44
1779.22
1841.65
1939.86
2203.43
2536.3
6864.04
5692.16
4991.67
3070.82
1772.58
1140.35
857.881
766.36
788.946
926.674
1015.34
1290.39
1110
1194.97
1360.68
1369.11
1430.6
1522.55
1508.91
1362.52
2031.99
1521.45
1004.11
732.629
599.075
567.145
563.946
659.663
768.541
884.258
1014.83
1172.9
1397.42
1262.17
1282.09
1479.33
591.4
645.112
648.593
843.902
649.63
614.435
535.732
498.773
501.113
544.609
605.482
682.881
751.774
837.513
901.804
1006.49
954.092
973.408
469.874
477.137
479.55
495.55
469.729
493.987
478.474
459.333
458.618
478.543
509.447
551.042
591.482
636.166
670.792
724.934
708.381
721.302
444.755
444.075
443.161
442.971
439.851
434.482
440.639
436.62
434.437
441.137
454.072
472.526
492.23
514.141
534.442
555.375
568.984
596.683
440.019
437.927
436.146
434.429
432.228
430.015
427.163
426.49
425.143
425.919
430.195
436.425
444.732
452.913
464.093
470.8
484.635
487.154
439.202
436.998
434.924
433.076
431.073
429.13
427.076
424.752
422.584
421.95
422.697
424.186
426.721
429.558
434.04
436.876
443.42
444.607
439.03
436.819
434.68
432.788
430.782
429.081
427.114
425.313
423.501
421.872
420.979
419.473
419.631
419.829
421.069
421.486
421.423
422.252
439
436.789
434.642
432.702
430.731
429.008
427.188
425.546
423.894
422.364
421.004
419.716
418.591
417.743
416.799
416.792
415.096
414.804
438.998
436.78
434.651
432.663
430.738
428.95
427.207
425.577
423.99
422.511
421.077
419.761
418.467
417.315
416.159
415.179
414.175
413.335
439
436.774
434.655
432.65
430.738
428.929
427.2
425.563
423.996
422.512
421.09
419.746
418.453
417.234
416.06
414.953
413.892
412.89
439
436.772
434.655
432.645
430.734
428.919
427.192
425.549
423.985
422.496
421.076
419.724
418.433
417.204
416.028
414.909
413.837
412.817
438.999
436.769
434.65
432.637
430.725
428.907
427.178
425.534
423.968
422.476
421.055
419.701
418.409
417.176
416
414.878
413.805
412.781
439
436.771
434.653
432.641
430.73
428.912
427.183
425.538
423.972
422.481
421.059
419.704
418.412
417.179
416.003
414.88
413.808
412.784
439.004
436.769
434.655
432.645
430.737
428.918
427.193
425.545
423.982
422.488
421.069
419.713
418.424
417.193
416.023
414.905
413.843
412.828
439.034
436.727
434.63
432.69
430.797
428.968
427.239
425.568
424.008
422.489
421.091
419.725
418.487
417.28
416.17
415.122
414.134
413.215
439.092
436.48
434.333
433.768
431.921
429.922
427.971
426.075
424.415
422.752
421.432
420.219
419.321
418.43
417.567
417.178
415.9
415.929
438.99
439.235
443.315
449.418
447.608
443.578
439.219
435.26
432.406
427.507
429.034
426.805
427.266
428.399
430.736
433.069
436.69
439.918
460.246
471.526
526.131
574.075
611.398
598.483
586.144
571.997
530.034
487.066
495.815
479.964
474.389
477.796
485.736
495.74
508.374
519.042
913.01
0.365891
988.857
1222.06
1485.5
1426.81
1194.39
984.395
897.986
800.88
666.234
723.23
636.369
631.726
635.044
651.219
676.625
698.608
2869.98
0.329938
2586.06
4903.82
4584.64
3657.29
2831.21
1820.35
2325.95
2261.99
2072.78
1929.49
1336.84
1408.1
1132.05
1017.81
1018.47
1031.24
2129.64
3404.99
5007.69
5272.89
5803.68
8162.03
6790.54
6750.03
6674.68
6357.9
4178.45
4791.99
4423.13
3352.2
2283.81
2439.08
2148.43
1976.01
6958.11
15225.3
21844
14292.2
15013.5
10458.9
10080
9432.17
9032.73
10245.3
9723.72
7528.35
7999.21
7517.7
6380.24
5103.35
5347.78
5016.47
29194.2
23234.4
20099.4
19850.6
17920.9
15993.9
14869.5
14749.6
13797.8
13304.7
12403
12204.5
11940.3
11548
11184.1
11098.9
11056.6
11047.3
18117.5
22917.1
25145.2
26298.3
26751.1
26703.7
26389.2
26194.5
25861.8
25514.8
25167.8
24834.3
24525
24229.7
23956.2
23695.5
23448.3
23219
11463.2
2514.24
2516.41
2518.61
2520.83
2523.07
2525.32
2527.6
2529.9
2532.22
2534.57
2536.93
2539.31
2541.72
2544.15
2546.6
2549.08
2551.57
2554.09
2556.64
2559.2
2561.79
2564.41
2567.05
2569.71
2572.4
2575.12
2577.86
2580.62
2583.41
2586.23
2589.08
2591.95
2594.85
2597.77
2600.73
2603.71
2606.72
2609.76
2612.82
2615.92
2619.05
2622.2
2625.39
2628.61
2631.86
2635.14
2638.45
2641.79
2645.17
2648.58
2652.02
2655.5
2659.01
3205.81
3230.08
3240.93
3339.48
3388.46
3349.09
3185.68
3268.4
2692.19
3304.99
3393.55
3480.27
3565.18
3642.93
3722.26
3794.42
3868.15
3936.94
4005.92
4071.92
4137.23
4200.63
4263.01
4323.97
4383.83
4442.53
4500.12
4556.67
4612.12
4666.59
4719.96
4772.37
4823.65
4873.94
4923.1
4971.21
5018.22
5064.06
5108.68
5152.04
5194.09
5234.8
5274.14
5312.18
5349
5384.94
5420.44
5454.71
5488.08
5520.48
5551.91
5582.39
5611.91
5640.44
5668.01
5694.54
5720.12
5744.63
5768.18
5790.64
5812.12
5832.51
5851.9
5870.19
5887.46
5903.6
5918.71
5932.73
5945.77
5957.74
5968.74
5978.7
5987.76
5995.87
6003.21
6009.16
6015.65
6016.71
6022.08
6020.38
6023.32
6020.9
6020.59
6017.5
6014.14
6009.44
6003.96
5997.52
5990.29
5982.3
5973.59
5964.25
5954.28
5943.79
5932.79
5921.38
5909.56
5897.42
5884.96
5872.25
5859.29
5846.22
5833.04
5819.92
5806.89
5794.14
5781.65
5769.57
5757.84
5746.64
5735.82
5725.56
5715.67
5706.37
5697.46
5689.17
5681.26
5673.89
5666.71
5659.79
5652.53
5644.35
5634.33
5619.32
5594.96
5494.36
11463.2
1991.84
993.998
808.338
690.492
614.672
619.749
617.655
607.878
586.238
562.684
538.966
517.524
499.767
487.682
478.915
478.575
482.532
498.55
549.072
627.759
725.346
833.427
941.575
1040.99
1118.23
1170.13
1168.44
1141.39
1073.35
961.107
825.993
684.835
593.459
521.178
471.765
453.805
454.921
469.522
495.52
527.959
557.927
619.816
724.333
864.375
1097.22
1423.71
1712.02
1898.57
2006.44
2056.05
2065.17
2037.51
2006.67
1998.11
1924.74
1878.17
1828.55
1779.75
1735.43
1690.19
1676.78
1650.71
1668.57
1659.01
1657.74
1656.19
1656.1
1658.64
1662.27
1667.23
1672.68
1678.99
1685.59
1692.69
1699.95
1707.46
1715.05
1722.74
1730.44
1738.14
1745.79
1753.38
1760.87
1768.26
1775.5
1782.59
1789.51
1796.26
1802.81
1809.16
1815.29
1821.22
1826.98
1832.6
1838.15
1843.76
1849.6
1855.95
1863.19
1871.79
1879.98
1888.15
1896.02
1903.73
1911.2
1918.48
1925.54
1932.37
1939
1945.39
1951.57
1957.52
1963.24
1968.72
1973.98
1979.01
1983.8
1988.35
1992.68
1996.77
2000.65
2004.31
2007.76
2010.99
2014.01
2016.82
2019.44
2021.83
2023.97
2025.93
2027.43
2029.04
2030.09
2031.26
2031.8
2031.89
2031.17
2030.24
2029.11
2027.79
2026.29
2024.63
2022.82
2020.86
2018.77
2016.56
2014.24
2011.82
2009.3
2006.67
2003.98
2001.23
1998.44
1995.61
1992.76
1989.89
1987.07
1984.25
1981.47
1978.74
1976.07
1973.46
1970.92
1968.45
1966.07
1963.76
1961.55
1959.41
1957.38
1955.43
1953.61
1951.88
1950.32
1948.93
1947.82
1946.99
1946.72
1946.02
1956.73
11463.2
2001
803.361
620.839
655.66
666.478
642.858
591.158
532.582
477.053
427.406
386.232
353.707
328.052
308.2
292.883
281.94
273.89
270.555
273.076
280.2
298.066
327.685
368.357
421.156
478.683
541.134
588.546
627.134
629.027
616.05
581.668
525.067
457.485
402.439
374.664
378.991
395.145
422.148
469.93
554.184
676.331
848.212
1042.15
1210.65
1348.86
1475.26
1541.46
1553.83
1531.54
1479.02
1420.75
1359.21
1306.12
1262.61
1220.84
1189.47
1161.83
1141.72
1125.03
1112.04
1106
1098.44
1098.23
1094.55
1094.52
1094.54
1095.79
1097.95
1100.49
1103.51
1106.81
1110.39
1114.13
1118.04
1122.05
1126.14
1130.28
1134.46
1138.66
1142.85
1147.04
1151.2
1155.33
1159.43
1163.48
1167.47
1171.42
1175.32
1179.17
1182.97
1186.73
1190.47
1194.21
1197.97
1201.79
1205.71
1209.76
1213.97
1218.36
1222.78
1227.04
1231.23
1235.28
1239.24
1243.07
1246.79
1250.38
1253.85
1257.2
1260.42
1263.52
1266.48
1269.31
1272.01
1274.58
1277.01
1279.3
1281.46
1283.49
1285.38
1287.14
1288.77
1290.27
1291.64
1292.88
1293.99
1294.96
1295.79
1296.47
1297.03
1297.41
1297.72
1297.84
1297.89
1297.66
1297.27
1296.65
1295.92
1295.09
1294.16
1293.14
1292.03
1290.85
1289.58
1288.25
1286.84
1285.38
1283.86
1282.28
1280.65
1278.99
1277.29
1275.57
1273.83
1272.08
1270.31
1268.54
1266.78
1265.02
1263.26
1261.51
1259.77
1258.04
1256.32
1254.63
1252.94
1251.27
1249.62
1248
1246.4
1244.85
1243.36
1242
1240.82
1239.92
1239.44
1239.79
1241.36
1251.75
11463.2
2031.43
983.626
942.635
884.641
763.711
650.85
546.301
462.286
399.4
352.346
315.778
287.191
265.069
248.042
235.002
225.157
217.944
212.995
210.649
211.043
214.271
220.428
232.987
252.603
278.683
312.04
345.983
379.175
403.365
415.083
411.113
397.101
379.339
398.238
466.919
542.191
597.593
655.895
733.994
849.721
987.536
1090.22
1164.03
1227.94
1269.5
1278.14
1217.99
1187.36
1131.09
1083.11
1037.77
999.633
968.525
944.016
923.84
908.437
896.33
887.615
880.879
876.28
874.154
872.081
872.121
872.069
873.213
874.732
876.768
879.133
881.737
884.562
887.545
890.664
893.885
897.191
900.559
903.978
907.432
910.913
914.409
917.914
921.42
924.921
928.412
931.889
935.348
938.788
942.21
945.614
949.002
952.377
955.741
959.102
962.469
965.848
969.248
972.671
976.115
979.567
983.002
986.371
989.649
992.849
995.956
998.976
1001.9
1004.73
1007.46
1010.1
1012.63
1015.06
1017.39
1019.6
1021.71
1023.71
1025.6
1027.38
1029.04
1030.6
1032.04
1033.37
1034.58
1035.69
1036.69
1037.57
1038.34
1038.99
1039.53
1039.95
1040.25
1040.43
1040.5
1040.47
1040.3
1040.06
1039.66
1039.13
1038.47
1037.72
1036.89
1035.97
1034.97
1033.9
1032.77
1031.56
1030.29
1028.97
1027.58
1026.15
1024.67
1023.14
1021.57
1019.97
1018.34
1016.68
1015.01
1013.32
1011.61
1009.89
1008.16
1006.42
1004.67
1002.92
1001.16
999.389
997.621
995.85
994.079
992.308
990.543
988.785
987.057
985.375
983.78
982.326
981.099
980.248
980.164
981.291
987.439
11463.2
2274.64
1420.48
1164.94
931.729
725.784
561.363
449.182
372.431
318.405
279.922
252.092
231.814
216.766
205.459
196.945
190.55
185.864
182.649
180.833
181.018
182.189
184.873
190.707
200.142
214.021
233.284
255.709
279.501
300.661
315.051
336.128
370.995
456.058
555.511
627.376
692.281
764.264
840.757
911.666
973.033
1027.09
1070.37
1090.01
1090.55
1043.86
1004.9
960.809
925.722
886.969
857.47
831.131
810.324
793.661
780.858
770.931
763.613
758.349
754.812
752.711
751.777
751.695
752.264
753.63
755.31
757.478
759.92
762.619
765.502
768.535
771.693
774.951
778.293
781.702
785.169
788.68
792.228
795.803
799.399
803.008
806.626
810.247
813.866
817.48
821.086
824.679
828.26
831.826
835.378
838.917
842.44
845.948
849.443
852.925
856.393
859.844
863.272
866.668
870.014
873.302
876.515
879.649
882.702
885.67
888.55
891.34
894.036
896.637
899.14
901.544
903.845
906.042
908.133
910.117
911.993
913.758
915.413
916.956
918.388
919.707
920.914
922.01
922.994
923.865
924.623
925.267
925.796
926.207
926.5
926.672
926.727
926.683
926.526
926.248
925.873
925.371
924.756
924.031
923.213
922.304
921.308
920.23
919.073
917.84
916.537
915.166
913.729
912.23
910.673
909.06
907.397
905.688
903.939
902.155
900.339
898.493
896.621
894.725
892.809
890.873
888.919
886.949
884.964
882.967
880.96
878.944
876.919
874.887
872.85
870.813
868.786
866.778
864.805
862.899
861.106
859.497
858.19
857.508
857.819
860.844
11463.2
2849.7
1703.06
1198.41
834.934
589.709
446.095
357.198
302.003
267.046
242.504
223.869
208.948
196.924
187.243
179.548
173.612
169.279
166.375
164.883
164.963
166.005
168.482
172.998
179.708
189.515
203.697
222.183
245.553
278.509
328.804
399.418
504.324
604.089
674.491
738.045
796.393
844.203
882.595
916.751
947.388
959.774
949.489
917.217
888.124
851.952
821.242
791.23
766.553
743.888
726.246
711.309
699.704
690.73
684.118
679.387
676.38
674.766
674.225
674.419
675.448
677.094
679.197
681.736
684.555
687.639
690.913
694.344
697.898
701.553
705.294
709.107
712.98
716.905
720.873
724.877
728.91
732.964
737.033
741.113
745.197
749.28
753.359
757.429
761.487
765.53
769.555
773.56
777.544
781.505
785.44
789.346
793.223
797.067
800.875
804.641
808.359
812.018
815.606
819.121
822.557
825.907
829.171
832.342
835.419
838.397
841.274
844.046
846.711
849.269
851.716
854.049
856.267
858.369
860.352
862.215
863.959
865.581
867.082
868.46
869.717
870.851
871.864
872.753
873.52
874.163
874.681
875.072
875.336
875.459
875.476
875.374
875.145
874.793
874.326
873.736
873.028
872.207
871.28
870.252
869.124
867.901
866.588
865.187
863.704
862.143
860.506
858.796
857.017
855.174
853.271
851.314
849.308
847.258
845.168
843.04
840.879
838.687
836.467
834.223
831.956
829.669
827.364
825.044
822.711
820.367
818.013
815.648
813.275
810.899
808.527
806.168
803.837
801.56
799.376
797.341
795.544
794.216
793.618
794.571
11463.2
3376.13
1762.05
1042.17
656.746
458.924
354.209
295.676
259.485
235.268
217.671
204.061
193.203
184.077
176.312
169.815
164.593
160.664
158.138
157.092
157.508
159.32
163.088
169.098
178.155
191.039
208.973
235.911
278.542
344.792
444.312
545.05
620.189
682.728
735.701
776.571
808.288
835.381
853.114
859.226
846.742
822.496
800.546
773.586
748.938
723.924
702.542
683.364
667.501
653.966
643.252
634.655
628.193
623.539
620.559
619.034
618.594
619.034
620.313
622.216
624.691
627.621
630.906
634.488
638.292
642.282
646.415
650.665
655.011
659.437
663.931
668.484
673.088
677.736
682.42
687.134
691.872
696.625
701.388
706.154
710.918
715.674
720.417
725.143
729.849
734.53
739.184
743.805
748.392
752.942
757.452
761.916
766.333
770.698
775.008
779.256
783.439
787.551
791.59
795.543
799.404
803.169
806.833
810.392
813.842
817.178
820.398
823.497
826.473
829.32
832.033
834.616
837.067
839.384
841.568
843.616
845.529
847.305
848.944
850.446
851.811
853.039
854.13
855.084
855.901
856.579
857.119
857.519
857.773
857.874
857.867
857.717
857.426
857.001
856.445
855.757
854.941
853.999
852.938
851.761
850.47
849.071
847.567
845.96
844.252
842.439
840.536
838.548
836.48
834.338
832.125
829.849
827.515
825.128
822.693
820.215
817.695
815.14
812.553
809.937
807.296
804.633
801.95
799.251
796.539
793.816
791.081
788.335
785.581
782.823
780.067
777.321
774.6
771.925
769.326
766.848
764.558
762.615
761.135
760.537
11463.2
3544.97
1575.97
826.211
519.443
384.582
315.89
274.84
246.718
227.068
212.113
200.03
189.733
180.872
173.31
167.059
162.247
159.088
157.607
157.736
159.364
162.96
169.252
178.794
194.24
218.733
255.953
316.293
400.104
486.468
555.938
614.686
664.616
705.515
737.747
764.181
777.466
780.192
768.765
750.707
732.205
711.789
692.707
673.067
655.019
638.212
623.853
611.506
601.322
593.003
586.555
581.741
578.448
576.724
576.156
576.475
577.749
579.767
582.443
585.655
589.322
593.361
597.702
602.287
607.067
612.004
617.07
622.242
627.501
632.835
638.232
643.682
649.179
654.714
660.282
665.877
671.489
677.11
682.732
688.348
693.951
699.535
705.094
710.623
716.118
721.575
726.992
732.361
737.678
742.94
748.142
753.281
758.352
763.352
768.275
773.117
777.875
782.547
787.124
791.597
795.957
800.201
804.323
808.32
812.186
815.919
819.514
822.969
826.28
829.447
832.464
835.33
838.045
840.607
843.016
845.27
847.37
849.315
851.104
852.738
854.216
855.538
856.706
857.719
858.576
859.279
859.824
860.213
860.43
860.495
860.429
860.194
859.805
859.266
858.578
857.743
856.764
855.645
854.389
853.001
851.483
849.841
848.079
846.201
844.214
842.119
839.924
837.633
835.252
832.787
830.242
827.624
824.941
822.198
819.401
816.553
813.66
810.726
807.758
804.758
801.732
798.682
795.61
792.522
789.421
786.309
783.185
780.052
776.911
773.767
770.625
767.494
764.386
761.319
758.316
755.413
752.656
750.126
747.881
746.016
11463.2
3417.52
1302.65
666.803
440.641
341.565
289.962
259.362
239.285
223.446
210.626
199.907
190.783
182.932
176.319
171.124
167.623
165.978
166.373
169.159
174.573
184.179
199.55
221.818
256.652
307.791
372.572
439.787
499.636
552.052
596.786
635.02
667.162
695.236
710.33
713.716
705.689
692.667
677.297
661.207
645.888
630.819
616.511
602.599
589.879
578.511
568.842
560.757
554.254
549.222
545.596
543.41
542.521
542.48
543.522
545.384
548.024
551.325
555.199
559.557
564.326
569.439
574.836
580.468
586.29
592.271
598.382
604.603
610.919
617.311
623.767
630.274
636.822
643.402
650.005
656.632
663.268
669.903
676.527
683.131
689.707
696.248
702.749
709.202
715.6
721.929
728.191
734.39
740.523
746.584
752.569
758.474
764.292
770.021
775.653
781.183
786.605
791.91
797.092
802.146
807.066
811.847
816.484
820.971
825.304
829.48
833.494
837.344
841.026
844.538
847.878
851.043
854.033
856.847
859.486
861.947
864.232
866.34
868.271
870.025
871.602
873.002
874.227
875.277
876.151
876.85
877.373
877.716
877.867
877.866
877.694
877.338
876.809
876.111
875.245
874.214
873.022
871.67
870.165
868.509
866.707
864.764
862.685
860.475
858.141
855.687
853.12
850.446
847.672
844.804
841.847
838.809
835.698
832.52
829.282
825.989
822.647
819.262
815.84
812.387
808.906
805.401
801.875
798.333
794.778
791.213
787.639
784.056
780.468
776.88
773.296
769.724
766.174
762.662
759.206
755.832
752.584
749.523
746.644
743.787
11463.2
3016.2
1053.1
567.81
402.437
326.01
284.353
257.973
240.122
227.1
216.691
207.87
200.285
193.982
189.159
186.488
186.062
188.652
194.283
203.697
217.818
239.287
269.818
310.545
358.168
407.402
455.237
498.938
537.85
572.072
601.679
628.262
646.422
652.789
650.461
642.109
630.562
618.008
605.632
593.843
582.699
571.891
561.51
551.661
542.755
534.996
528.524
523.325
519.383
516.644
515.263
514.877
515.461
516.97
519.358
522.524
526.391
530.877
535.904
541.403
547.309
553.565
560.117
566.916
573.919
581.091
588.404
595.838
603.392
611.025
618.719
626.461
634.234
642.019
649.793
657.513
665.221
672.922
680.608
688.266
695.887
703.464
710.991
718.46
725.868
733.212
740.487
747.672
754.758
761.74
768.614
775.375
782.02
788.542
794.936
801.196
807.315
813.286
819.107
824.772
830.277
835.615
840.78
845.768
850.572
855.19
859.617
863.852
867.892
871.733
875.374
878.813
882.049
885.084
887.916
890.547
892.978
895.207
897.235
899.063
900.691
902.121
903.352
904.386
905.224
905.866
906.31
906.546
906.593
906.456
906.115
905.578
904.847
903.927
902.819
901.528
900.055
898.406
896.584
894.593
892.439
890.128
887.665
885.056
882.309
879.429
876.425
873.303
870.071
866.735
863.304
859.783
856.183
852.51
848.772
844.976
841.129
837.238
833.311
829.353
825.368
821.36
817.332
813.289
809.235
805.173
801.104
797.03
792.955
788.883
784.819
780.77
776.745
772.755
768.815
764.945
761.17
757.549
754.045
750.272
11463.2
2543.72
880.397
506.528
375.865
316.098
282.345
262.03
248.351
238.192
230.116
223.58
218.548
215.714
215.156
217.763
224.201
233.898
246.53
264.13
287.832
317.107
350.543
386.278
422.222
456.681
488.785
517.841
543.759
567.559
587.015
596.32
598.179
594.788
587.953
579.05
569.638
560.516
551.894
543.686
535.75
527.994
520.539
513.598
507.444
502.246
498.095
495.01
493.102
492.333
492.411
493.504
495.513
498.394
502.093
506.544
511.676
517.417
523.702
530.466
537.653
545.222
553.132
561.309
569.71
578.297
587.027
595.846
604.672
613.579
622.561
631.601
640.68
649.773
658.864
667.958
677.027
686.063
695.053
703.977
712.829
721.603
730.296
738.901
747.411
755.817
764.101
772.262
780.29
788.182
795.935
803.544
811.005
818.313
825.461
832.442
839.251
845.881
852.329
858.59
864.657
870.525
876.186
881.635
886.867
891.878
896.666
901.229
905.563
909.668
913.542
917.183
920.592
923.77
926.718
929.438
931.932
934.199
936.241
938.058
939.653
941.026
942.178
943.112
943.828
944.328
944.604
944.664
944.515
944.147
943.56
942.758
941.742
940.518
939.086
937.452
935.618
933.589
931.368
928.963
926.378
923.62
920.695
917.611
914.374
910.994
907.479
903.836
900.074
896.202
892.227
888.157
884.002
879.769
875.469
871.108
866.697
862.244
857.757
853.24
848.699
844.138
839.56
834.969
830.369
825.764
821.156
816.548
811.945
807.351
802.77
798.208
793.671
789.17
784.715
780.321
776.005
771.816
767.712
763.106
11463.2
2183.58
817.23
493.05
373.169
317.941
289.549
272.904
262.142
254.654
249.321
246.044
244.902
246.105
250.657
258.687
269.801
283.503
300.776
321.542
345.193
370.76
397.159
423.411
448.786
472.439
494.234
514.803
532.953
544.378
548.709
549.224
546.822
541.976
535.947
529.526
523.234
517.212
511.403
505.706
500.077
494.569
489.347
484.624
480.605
477.432
475.194
474.089
473.861
474.624
476.308
478.921
482.421
486.766
491.92
497.867
504.507
511.765
519.577
527.879
536.594
545.614
554.872
564.428
574.263
584.339
594.62
605.077
615.713
626.445
637.231
648.04
658.863
669.637
680.334
690.94
701.431
711.788
722.012
732.119
742.116
752.006
761.79
771.465
781.021
790.445
799.72
808.835
817.781
826.553
835.149
843.566
851.801
859.846
867.695
875.341
882.777
889.997
896.997
903.773
910.317
916.623
922.684
928.494
934.048
939.342
944.375
949.147
953.655
957.899
961.879
965.594
969.045
972.233
975.163
977.84
980.264
982.437
984.36
986.036
987.468
988.656
989.601
990.31
990.78
991.015
991.014
990.778
990.306
989.599
988.657
987.48
986.073
984.438
982.579
980.5
978.204
975.696
972.982
970.067
966.958
963.662
960.186
956.539
952.728
948.764
944.655
940.411
936.041
931.556
926.962
922.271
917.49
912.628
907.697
902.709
897.673
892.599
887.493
882.363
877.213
872.047
866.867
861.679
856.486
851.291
846.099
840.915
835.743
830.587
825.452
820.34
815.257
810.21
805.208
800.262
795.383
790.613
785.923
780.542
11463.2
1879.63
742.183
470.642
370.511
324.497
300.672
287.198
279.081
274.223
271.947
271.51
273.432
278.149
285.682
295.821
308.287
323.054
339.776
357.996
377.317
397.017
416.352
434.777
452.463
469.662
485.297
497.105
503.332
505.965
506.728
505.718
503.149
499.703
495.905
492.024
488.175
484.354
480.526
476.688
472.899
469.284
466.018
463.281
461.234
460.149
459.887
460.602
462.333
465.055
468.684
473.198
478.562
484.727
491.608
499.03
507.106
515.854
525.23
535.178
545.641
556.589
567.988
579.753
591.836
604.195
616.776
629.529
642.433
655.383
668.289
681.081
693.683
706.086
718.27
730.223
741.937
753.418
764.69
775.789
786.743
797.566
808.268
818.855
829.314
839.619
849.745
859.672
869.39
878.895
888.188
897.265
906.122
914.753
923.148
931.299
939.199
946.842
954.224
961.339
968.181
974.744
981.021
987.003
992.687
998.071
1003.15
1007.93
1012.42
1016.6
1020.48
1024.07
1027.36
1030.36
1033.07
1035.5
1037.66
1039.55
1041.16
1042.51
1043.6
1044.42
1044.97
1045.29
1045.34
1045.15
1044.71
1044.02
1043.08
1041.88
1040.44
1038.75
1036.82
1034.64
1032.23
1029.58
1026.7
1023.6
1020.28
1016.74
1013
1009.07
1004.94
1000.63
996.15
991.509
986.716
981.783
976.72
971.538
966.247
960.857
955.376
949.812
944.183
938.501
932.778
927.023
921.242
915.442
909.628
903.803
897.971
892.136
886.299
880.467
874.647
868.844
863.063
857.308
851.581
845.883
840.218
834.591
829.01
823.483
818.019
812.654
807.383
801.265
11463.2
1892.87
744.219
474.393
378.502
335.73
314.517
303.194
297.039
294.181
293.429
294.828
298.784
304.997
313.255
323.276
334.794
347.557
361.254
375.52
389.915
403.994
417.911
431.827
444.613
454.737
461.739
466.42
469.34
470.653
471.03
470.637
469.508
467.993
466.268
464.415
462.47
460.455
458.411
456.421
454.621
453.223
452.461
452.26
452.782
454.166
456.421
459.493
463.219
467.687
473.082
479.43
486.714
494.9
503.953
513.901
524.666
536.205
548.453
561.335
574.783
588.742
603.146
617.903
632.945
648.24
663.697
679.173
694.535
709.704
724.614
739.194
753.381
767.142
780.459
793.329
805.755
817.787
829.499
840.998
852.361
863.6
874.743
885.813
896.782
907.602
918.216
928.59
938.727
948.622
958.273
967.677
976.828
985.716
994.333
1002.67
1010.71
1018.46
1025.91
1033.05
1039.87
1046.38
1052.56
1058.4
1063.91
1069.07
1073.9
1078.38
1082.53
1086.35
1089.84
1093.01
1095.85
1098.37
1100.58
1102.5
1104.12
1105.46
1106.49
1107.26
1107.76
1107.97
1107.9
1107.6
1107.03
1106.19
1105.1
1103.75
1102.14
1100.28
1098.16
1095.79
1093.16
1090.28
1087.16
1083.8
1080.19
1076.36
1072.3
1068.02
1063.53
1058.83
1053.94
1048.86
1043.61
1038.19
1032.62
1026.9
1021.05
1015.09
1009.02
1002.85
996.593
990.255
983.862
977.424
970.954
964.458
957.943
951.416
944.882
938.345
931.808
925.277
918.747
912.233
905.744
899.283
892.855
886.463
880.108
873.789
867.507
861.267
855.076
848.943
842.87
836.885
831.026
824.2
11463.2
1837.87
731.948
477.892
388.162
348.518
329.008
318.661
313.323
311.094
310.723
312.75
317.073
323.158
330.63
339.162
348.54
358.543
368.929
379.438
390.103
401.018
410.914
419.064
425.727
431.203
435.707
439.177
441.86
443.913
445.541
446.843
447.932
448.89
449.657
450.275
450.796
451.279
451.794
452.413
453.182
454.047
455.201
457.015
459.694
463.428
468.402
474.434
481.553
489.761
499.026
509.356
520.737
533.114
546.438
560.688
575.794
591.773
608.478
625.741
643.445
661.484
679.755
698.152
716.561
734.839
752.89
770.648
788.008
804.86
821.091
836.606
851.366
865.379
878.668
891.236
903.065
914.292
925.081
935.731
946.429
957.06
967.695
978.428
989.159
999.786
1010.24
1020.48
1030.47
1040.2
1049.66
1058.86
1067.77
1076.4
1084.74
1092.76
1100.47
1107.84
1114.88
1121.58
1127.95
1133.96
1139.61
1144.89
1149.79
1154.32
1158.48
1162.26
1165.68
1168.74
1171.46
1173.82
1175.83
1177.49
1178.81
1179.85
1180.59
1181.01
1181.12
1180.95
1180.54
1179.83
1178.84
1177.59
1176.07
1174.3
1172.27
1169.99
1167.46
1164.67
1161.63
1158.34
1154.8
1151.01
1146.97
1142.69
1138.17
1133.43
1128.46
1123.27
1117.87
1112.26
1106.46
1100.47
1094.31
1087.99
1081.51
1074.89
1068.15
1061.29
1054.32
1047.27
1040.16
1032.98
1025.77
1018.52
1011.25
1003.96
996.653
989.343
982.034
974.732
967.44
960.165
952.898
945.663
938.468
931.314
924.203
917.141
910.123
903.149
896.217
889.326
882.49
875.717
869.011
862.386
855.934
848.43
11463.7
1820.18
732.426
485.86
398.469
359.982
341.352
331.213
325.733
323.385
322.902
324.588
328.301
333.404
339.479
346.252
353.596
361.398
369.555
377.616
385.382
392.555
399.386
405.9
411.963
417.66
423.033
428.09
432.869
437.365
441.549
445.362
448.658
451.501
454.24
456.971
459.77
462.719
465.911
469.447
473.445
478.09
483.559
489.954
497.457
506.33
516.79
528.408
541.217
555.184
570.274
586.503
603.943
622.389
641.651
661.588
682.05
702.826
723.819
744.951
766.114
787.194
808.089
828.706
848.957
868.757
888.034
906.723
924.748
942.015
958.38
973.694
988.019
1001.48
1014.14
1026.07
1037.3
1047.84
1057.75
1067.18
1076.28
1085.17
1094.19
1103.74
1113.41
1123
1132.43
1141.66
1150.62
1159.29
1167.68
1175.78
1183.61
1191.13
1198.35
1205.25
1211.81
1218.03
1223.9
1229.42
1234.6
1239.41
1243.86
1247.91
1251.57
1254.84
1257.72
1260.22
1262.33
1264.07
1265.48
1266.53
1267.21
1267.51
1267.46
1267.2
1266.62
1265.72
1264.52
1263.06
1261.32
1259.31
1257.04
1254.51
1251.74
1248.72
1245.47
1241.98
1238.25
1234.29
1230.09
1225.65
1220.98
1216.06
1210.92
1205.54
1199.95
1194.13
1188.1
1181.85
1175.41
1168.77
1161.94
1154.93
1147.76
1140.43
1132.96
1125.36
1117.63
1109.81
1101.88
1093.88
1085.82
1077.72
1069.6
1061.44
1053.27
1045.08
1036.89
1028.7
1020.52
1012.36
1004.22
996.111
988.062
980.066
972.123
964.232
956.392
948.604
940.868
933.184
925.551
917.966
910.448
903.006
895.64
888.354
881.292
873.136
11462.8
1800.35
732.799
491.428
405.621
367.715
349.446
339.208
333.622
331.171
330.591
331.97
335.252
339.817
345.42
351.713
358.551
365.738
373.121
380.814
388.625
396.354
403.946
411.47
418.916
426.333
433.749
441.188
448.672
456.135
463.535
470.91
478.38
486.056
493.938
502.1
510.623
519.594
529.113
539.292
550.262
562.167
575.101
589.093
604.192
620.405
637.481
655.682
675.008
695.389
716.763
739.142
762.159
785.633
809.435
833.388
857.305
880.997
904.304
927.098
949.267
970.736
991.456
1011.39
1030.53
1048.85
1066.35
1083.06
1098.96
1114.07
1128.38
1141.92
1154.47
1166.29
1177.5
1188.15
1198.3
1207.8
1216.66
1224.81
1232.28
1239.5
1247.02
1254.72
1262.29
1269.64
1276.73
1283.54
1290.08
1296.34
1302.34
1308.08
1313.57
1318.78
1323.72
1328.36
1332.69
1336.72
1340.43
1343.84
1346.94
1349.7
1352.12
1354.19
1355.89
1357.22
1358.21
1358.84
1359.12
1359.05
1358.74
1358.07
1357.07
1355.74
1354.13
1352.26
1350.12
1347.72
1345.07
1342.17
1339.03
1335.65
1332.04
1328.21
1324.16
1319.9
1315.42
1310.74
1305.85
1300.75
1295.43
1289.9
1284.16
1278.19
1272.02
1265.64
1259.05
1252.26
1245.28
1238.09
1230.72
1223.17
1215.44
1207.55
1199.51
1191.32
1183
1174.55
1166
1157.35
1148.61
1139.79
1130.91
1121.98
1113.01
1104.01
1094.99
1085.96
1076.93
1067.9
1058.89
1049.9
1040.94
1032.02
1023.17
1014.38
1005.65
996.978
988.362
979.803
971.305
962.87
954.504
946.225
938.028
929.92
921.9
913.962
906.294
897.547
11461.8
1786.3
734.393
493.079
409.623
372.718
355.386
345.643
341.017
339.327
339.34
341.793
345.961
351.4
357.784
365.296
373.908
382.754
392.054
402.184
413.169
424.812
436.654
449.008
461.908
475.356
489.329
503.795
518.693
534.025
549.862
566.223
583.141
600.592
618.483
636.803
655.566
674.808
694.6
715.089
736.357
758.372
781.128
804.559
828.597
853.164
878.205
904.23
930.974
958.064
985.259
1012.13
1038.48
1064.21
1089.21
1113.31
1136.3
1158.09
1178.61
1197.81
1215.67
1232.21
1247.47
1261.52
1274.43
1286.27
1297.14
1307.15
1316.4
1324.96
1332.99
1340.76
1348.29
1355.53
1362.4
1368.86
1374.85
1380.19
1385.2
1390.01
1394.78
1399.91
1405.03
1409.53
1413.55
1417.2
1420.59
1423.75
1426.73
1429.52
1432.15
1434.59
1436.85
1438.91
1440.77
1442.42
1443.86
1445.08
1446.07
1446.84
1447.37
1447.64
1447.64
1447.36
1446.75
1445.88
1444.73
1443.31
1441.6
1439.65
1437.44
1434.98
1432.25
1429.28
1426.08
1422.68
1419.07
1415.26
1411.25
1407.04