/*--------------------------------*- C++ -*----------------------------------*\
  =========                 |
  \\      /  F ield         | OpenFOAM: The Open Source CFD Toolbox
   \\    /   O peration     | Website:  https://openfoam.org
    \\  /    A nd           | Version:  13
     \\/     M anipulation  |
\*---------------------------------------------------------------------------*/
FoamFile
{
    format      ascii;
    class       volScalarField;
    location    "500";
    object      p;
}
// * * * * * * * * * * * * * * * * * * * * * * * * * * * * * * * * * * * * * //

dimensions      [0 2 -2 0 0 0 0];

internalField   nonuniform List<scalar> 
12225
(
-4.38368
-5.26758
-5.66104
-5.78951
-5.91652
-6.05969
-6.1866
-6.29114
-6.38226
-6.46911
-6.54979
-6.62235
-6.68435
-6.74344
-6.80627
-6.87897
-6.96877
-7.08515
-4.66143
-5.30191
-5.63432
-5.76206
-5.88732
-6.02449
-6.14805
-6.25663
-6.35204
-6.43854
-6.51931
-6.59368
-6.66026
-6.71986
-6.78429
-6.85837
-6.94146
-7.01587
-4.88003
-5.30187
-5.6194
-5.7734
-5.90091
-6.03388
-6.15562
-6.26177
-6.35441
-6.43893
-6.51871
-6.59238
-6.65951
-6.72143
-6.78553
-6.85485
-6.92615
-6.9854
-5.01749
-5.3192
-5.62373
-5.78895
-5.90811
-6.03027
-6.14658
-6.2498
-6.34118
-6.42527
-6.50457
-6.57826
-6.64593
-6.70895
-6.77202
-6.8371
-6.90116
-6.95416
-5.12754
-5.3616
-5.63576
-5.80006
-5.9145
-6.03025
-6.14341
-6.24539
-6.33622
-6.41958
-6.49766
-6.57027
-6.63733
-6.70017
-6.76171
-6.82291
-6.88137
-6.93051
-5.23043
-5.41862
-5.65005
-5.80724
-5.92212
-6.03414
-6.1436
-6.24287
-6.33139
-6.41245
-6.48824
-6.55907
-6.62508
-6.68723
-6.74708
-6.80495
-6.85899
-6.90491
-5.32666
-5.46967
-5.66704
-5.81805
-5.93208
-6.03959
-6.14422
-6.23997
-6.326
-6.40512
-6.47929
-6.54893
-6.61416
-6.67549
-6.73368
-6.78871
-6.83932
-6.88277
-5.41392
-5.52186
-5.69068
-5.83233
-5.94221
-6.04437
-6.144
-6.23638
-6.32029
-6.39783
-6.47061
-6.53898
-6.60298
-6.66289
-6.71911
-6.77151
-6.81929
-6.86068
-5.49231
-5.57379
-5.71702
-5.84702
-5.95187
-6.04913
-6.14427
-6.23358
-6.31552
-6.39145
-6.4627
-6.52955
-6.59202
-6.65028
-6.70455
-6.75469
-6.80021
-6.83998
-5.56274
-5.62492
-5.74488
-5.86301
-5.96278
-6.05552
-6.14625
-6.23225
-6.31184
-6.38583
-6.45517
-6.52017
-6.58085
-6.63729
-6.68959
-6.73765
-6.7812
-6.81952
-5.62617
-5.67461
-5.77437
-5.88064
-5.97479
-6.06288
-6.14906
-6.23145
-6.30835
-6.38007
-6.4473
-6.5103
-6.56908
-6.62368
-6.67413
-6.72036
-6.76229
-6.79942
-5.67866
-5.71784
-5.80218
-5.89791
-5.98652
-6.07021
-6.15213
-6.23098
-6.30516
-6.3746
-6.43978
-6.50089
-6.55793
-6.61088
-6.65976
-6.70454
-6.74521
-6.78145
-5.72572
-5.75811
-5.82964
-5.91549
-5.99843
-6.07772
-6.15546
-6.23073
-6.30209
-6.3692
-6.43231
-6.49153
-6.54684
-6.59821
-6.64562
-6.68907
-6.72864
-6.76406
-5.77362
-5.80036
-5.86011
-5.93564
-6.012
-6.08626
-6.15934
-6.23059
-6.29871
-6.36314
-6.42388
-6.48098
-6.53436
-6.58398
-6.62982
-6.6719
-6.71031
-6.7449
-5.82055
-5.84258
-5.89207
-5.95752
-6.0267
-6.09545
-6.16361
-6.23054
-6.29509
-6.35654
-6.41468
-6.46945
-6.52074
-6.56849
-6.61268
-6.65333
-6.69057
-6.72431
-5.86376
-5.88197
-5.92306
-5.97943
-6.0414
-6.10451
-6.16772
-6.23028
-6.29112
-6.34943
-6.40484
-6.45717
-6.50629
-6.55211
-6.59464
-6.63388
-6.66998
-6.70289
-5.89926
-5.91457
-5.94934
-5.99835
-6.05395
-6.11187
-6.17055
-6.22906
-6.28637
-6.34164
-6.39439
-6.44436
-6.49138
-6.53538
-6.57634
-6.61428
-6.64932
-6.68149
-5.92102
-5.93447
-5.9653
-6.00952
-6.0607
-6.11481
-6.1701
-6.22552
-6.28007
-6.33289
-6.38346
-6.43148
-6.47677
-6.51925
-6.5589
-6.59577
-6.62994
-6.66149
-5.91934
-5.93235
-5.96236
-6.00556
-6.05567
-6.10868
-6.16286
-6.21718
-6.27061
-6.32235
-6.37185
-6.41886
-6.4632
-6.50483
-6.54374
-6.58
-6.6137
-6.64496
-5.88606
-5.9009
-5.93478
-5.98248
-6.03644
-6.09238
-6.14895
-6.20517
-6.2601
-6.31284
-6.36304
-6.41047
-6.45506
-6.4968
-6.53574
-6.57201
-6.60568
-6.63696
-5.83861
-5.85663
-5.8973
-5.9527
-6.0129
-6.07368
-6.13424
-6.19392
-6.2515
-6.30628
-6.35794
-6.40645
-6.45183
-6.49412
-6.53347
-6.56999
-6.60392
-6.63534
-5.77784
-5.80117
-5.85264
-5.91898
-5.98712
-6.05377
-6.11945
-6.18349
-6.24449
-6.30176
-6.35529
-6.40522
-6.45162
-6.49467
-6.53456
-6.57153
-6.60581
-6.6376
-5.70589
-5.73736
-5.8046
-5.88481
-5.96167
-6.0346
-6.10591
-6.17462
-6.23908
-6.29891
-6.35435
-6.40567
-6.45305
-6.49679
-6.53716
-6.57454
-6.60915
-6.64121
-5.62285
-5.66686
-5.75565
-5.85152
-5.93699
-6.01663
-6.09419
-6.16769
-6.23542
-6.29755
-6.35473
-6.40731
-6.45559
-6.49987
-6.54064
-6.5783
-6.61322
-6.6457
-5.52664
-5.59222
-5.70909
-5.82037
-5.91272
-5.99909
-6.08356
-6.16214
-6.2332
-6.29766
-6.3565
-6.41018
-6.45902
-6.50352
-6.54425
-6.58173
-6.61651
-6.64873
-5.41783
-5.5183
-5.66783
-5.7936
-5.8915
-5.98437
-6.07543
-6.15861
-6.23282
-6.29969
-6.36052
-6.41568
-6.46541
-6.51029
-6.5512
-6.58885
-6.62374
-6.6564
-5.29756
-5.45244
-5.63208
-5.76543
-5.86839
-5.96981
-6.06806
-6.15561
-6.23241
-6.30102
-6.36313
-6.41916
-6.46919
-6.51388
-6.55427
-6.59145
-6.62593
-6.65862
-5.16772
-5.41229
-5.62365
-5.74517
-5.84611
-5.95585
-6.06199
-6.15506
-6.23618
-6.30823
-6.37289
-6.43062
-6.48186
-6.52719
-6.56757
-6.60432
-6.63812
-6.6709
-4.99212
-5.3912
-5.64903
-5.74961
-5.83942
-5.94989
-6.05774
-6.15125
-6.23286
-6.30634
-6.37242
-6.43086
-6.48227
-6.52775
-6.56791
-6.60337
-6.63547
-6.66499
-4.71848
-5.3117
-5.63593
-5.74828
-5.84755
-5.96875
-6.08501
-6.1827
-6.26481
-6.33892
-6.40551
-6.46323
-6.51278
-6.5561
-6.59378
-6.62532
-6.65323
-6.67701
-7.56486
-7.56497
-7.56502
-7.56499
-7.56468
-7.56354
-7.56119
-7.55805
-7.55502
-7.55303
-7.55304
-7.5553
-7.5594
-7.56461
-7.57021
-7.57554
-7.58005
-7.58334
-7.58532
-7.58626
-7.58643
-7.58604
-7.58529
-7.58445
-7.58375
-7.58332
-7.58312
-7.58301
-7.58284
-7.5825
-7.58199
-7.58135
-7.58056
-7.57952
-7.57826
-7.57693
-7.57599
-7.57611
-7.5777
-7.58045
-7.58353
-7.58615
-7.58813
-7.5898
-7.59155
-7.59384
-7.59697
-7.60036
-7.60319
-7.60571
-7.61058
-7.62199
-7.64298
-7.67285
-7.71035
-7.75545
-7.80858
-7.86916
-7.93566
-8.00614
-8.0787
-8.15148
-8.22276
-8.29152
-8.35697
-8.41834
-8.47525
-8.52766
-8.5755
-8.61883
-8.65771
-8.69224
-8.72246
-8.74844
-8.77019
-8.78772
-8.801
-8.81001
-8.81467
-8.81495
-8.81073
-8.80197
-8.78854
-8.77036
-8.74732
-8.71929
-8.68618
-8.6479
-8.60437
-8.55551
-8.50121
-8.44137
-8.37589
-8.30469
-8.22769
-8.14485
-8.05618
-7.96172
-7.86151
-7.75542
-7.64305
-7.52431
-7.3994
-7.26843
-7.1315
-6.98868
-6.84007
-6.68575
-6.52585
-6.36044
-6.18968
-6.01364
-5.83249
-5.64631
-5.45528
-5.25948
-5.0591
-4.85426
-4.64511
-4.43177
-4.21437
-3.99306
-3.76804
-3.53948
-3.3076
-3.07255
-2.83455
-2.59374
-2.35038
-2.10464
-1.85679
-1.60704
-1.35569
-1.10299
-0.849261
-0.594755
-0.339735
-0.0843017
0.171316
0.426814
0.681915
0.93633
1.18979
1.44203
1.69283
1.94196
2.18922
2.43444
2.67745
2.91812
3.15631
3.39194
3.62491
3.85517
4.08265
4.30735
4.52922
4.74831
4.96461
5.1782
5.38913
5.59748
5.80331
6.00673
6.20778
6.40656
6.60311
6.79748
6.9897
7.17979
7.36777
7.55363
7.73731
7.91879
8.09798
8.27477
8.44915
8.62105
8.79315
8.95546
-7.56599
-7.56616
-7.56648
-7.56682
-7.56679
-7.56601
-7.56422
-7.56189
-7.56019
-7.56002
-7.56171
-7.56514
-7.56986
-7.57525
-7.58071
-7.58576
-7.59001
-7.59328
-7.59536
-7.59609
-7.59551
-7.59389
-7.59164
-7.58919
-7.58693
-7.58514
-7.5839
-7.58307
-7.58242
-7.58181
-7.58122
-7.58067
-7.58009
-7.57939
-7.57851
-7.57767
-7.5775
-7.57863
-7.58116
-7.58441
-7.58729
-7.58895
-7.58954
-7.58949
-7.58864
-7.58753
-7.5881
-7.59271
-7.59942
-7.60535
-7.61303
-7.62532
-7.64299
-7.66811
-7.70373
-7.7512
-7.8091
-7.87486
-7.94581
-8.01957
-8.09389
-8.16692
-8.23769
-8.30518
-8.36828
-8.42694
-8.48128
-8.53126
-8.57696
-8.61846
-8.65582
-8.68912
-8.71838
-8.74361
-8.76483
-8.78199
-8.79506
-8.80397
-8.80865
-8.80904
-8.80503
-8.79654
-8.78346
-8.7657
-8.74314
-8.71566
-8.68315
-8.64552
-8.60269
-8.55457
-8.50107
-8.44207
-8.37749
-8.30721
-8.23117
-8.14928
-8.06146
-7.96763
-7.86767
-7.76152
-7.64937
-7.53132
-7.40726
-7.27719
-7.14116
-6.99926
-6.85156
-6.69815
-6.53913
-6.37462
-6.20472
-6.02956
-5.84926
-5.66395
-5.47375
-5.27879
-5.07923
-4.87521
-4.66686
-4.45431
-4.23768
-4.01713
-3.79285
-3.56503
-3.33385
-3.09948
-2.8621
-2.62191
-2.37909
-2.13387
-1.88647
-1.63711
-1.38606
-1.13356
-0.879849
-0.625168
-0.369815
-0.114177
0.141481
0.396988
0.652089
0.906543
1.16008
1.41245
1.6634
1.91273
2.16022
2.4057
2.649
2.88997
3.12849
3.36446
3.59778
3.82839
4.05624
4.2813
4.50354
4.72298
4.93964
5.15356
5.3648
5.57344
5.77955
5.98321
6.1845
6.3835
6.58025
6.7748
6.9672
7.15747
7.34563
7.53166
7.71555
7.89728
8.07686
8.25417
8.42933
8.60184
8.77651
8.93811
-7.56723
-7.56723
-7.56727
-7.56734
-7.56739
-7.56739
-7.56754
-7.56836
-7.5703
-7.57353
-7.57786
-7.58296
-7.58844
-7.59389
-7.59894
-7.60329
-7.60674
-7.60918
-7.61052
-7.61071
-7.60976
-7.60776
-7.60488
-7.60131
-7.59729
-7.59307
-7.58893
-7.58512
-7.58184
-7.57919
-7.57716
-7.57558
-7.57419
-7.57291
-7.57207
-7.57225
-7.57408
-7.57775
-7.58239
-7.58634
-7.58796
-7.58688
-7.58471
-7.58346
-7.58355
-7.58406
-7.58615
-7.59276
-7.60397
-7.61926
-7.63965
-7.66566
-7.69746
-7.73552
-7.78041
-7.83199
-7.88921
-7.95059
-8.01448
-8.07942
-8.14419
-8.20774
-8.26941
-8.32865
-8.38489
-8.43787
-8.48746
-8.53355
-8.57611
-8.61509
-8.65046
-8.68219
-8.71024
-8.73457
-8.75512
-8.77182
-8.7846
-8.79337
-8.79804
-8.79851
-8.7947
-8.78649
-8.77377
-8.75645
-8.73439
-8.70748
-8.67561
-8.63867
-8.59657
-8.54923
-8.49653
-8.43838
-8.37467
-8.3053
-8.23021
-8.14929
-8.06249
-7.96971
-7.87086
-7.76588
-7.65488
-7.53791
-7.41495
-7.286
-7.15109
-7.01031
-6.86372
-6.71143
-6.55351
-6.3901
-6.22128
-6.0472
-5.86797
-5.68373
-5.49459
-5.30071
-5.1022
-4.89923
-4.69192
-4.48039
-4.26477
-4.04523
-3.82194
-3.59509
-3.36484
-3.13138
-2.89488
-2.65552
-2.4135
-2.16904
-1.92235
-1.67367
-1.42323
-1.1713
-0.918102
-0.663916
-0.409034
-0.153798
0.101557
0.356833
0.611777
0.866127
1.11961
1.37198
1.62298
1.87239
2.12002
2.36566
2.60916
2.85035
3.08911
3.32533
3.55892
3.78981
4.01795
4.24329
4.46582
4.68553
4.90245
5.11661
5.32806
5.53689
5.74315
5.94693
6.14831
6.34735
6.54411
6.73866
6.93102
7.12121
7.30928
7.49522
7.679
7.86062
8.04009
8.21734
8.39277
8.56523
8.74228
8.89935
-7.56833
-7.56808
-7.56774
-7.56773
-7.56874
-7.57121
-7.57503
-7.57987
-7.58537
-7.59123
-7.59717
-7.60296
-7.6084
-7.61329
-7.61747
-7.62081
-7.6232
-7.62458
-7.62491
-7.62418
-7.62238
-7.61957
-7.61585
-7.61128
-7.60596
-7.60001
-7.5936
-7.58697
-7.58044
-7.57436
-7.569
-7.56454
-7.56117
-7.55922
-7.55934
-7.56209
-7.56706
-7.57271
-7.57721
-7.57962
-7.57996
-7.57917
-7.57903
-7.58058
-7.58432
-7.591
-7.60154
-7.6169
-7.63746
-7.6631
-7.69349
-7.72816
-7.76688
-7.80938
-7.85549
-7.90496
-7.9574
-8.01221
-8.06861
-8.12577
-8.18291
-8.23932
-8.29442
-8.34772
-8.39884
-8.44748
-8.49343
-8.53653
-8.57661
-8.61359
-8.64737
-8.67785
-8.70495
-8.72857
-8.74861
-8.76499
-8.77759
-8.78631
-8.79104
-8.79168
-8.78811
-8.78023
-8.76791
-8.75105
-8.72953
-8.70321
-8.67199
-8.63575
-8.5944
-8.54783
-8.49595
-8.43864
-8.37579
-8.30731
-8.2331
-8.15309
-8.0672
-7.97536
-7.87748
-7.77355
-7.66359
-7.54762
-7.42565
-7.2977
-7.1638
-7.02402
-6.87843
-6.72712
-6.5702
-6.40776
-6.23993
-6.06682
-5.88857
-5.7053
-5.51714
-5.32422
-5.12669
-4.92469
-4.71833
-4.50776
-4.29309
-4.07449
-3.85214
-3.62621
-3.39686
-3.16427
-2.9286
-2.69005
-2.4488
-2.20507
-1.95908
-1.71104
-1.46121
-1.20981
-0.957114
-0.70338
-0.448906
-0.194002
0.0610991
0.316182
0.570994
0.82526
1.07871
1.33108
1.58214
1.83166
2.07942
2.32523
2.56893
2.81034
3.04935
3.28582
3.51968
3.75084
3.97925
4.20486
4.42765
4.64761
4.86477
5.07915
5.2908
5.49979
5.70618
5.91006
6.1115
6.31057
6.50732
6.70182
6.8941
7.08418
7.27209
7.45786
7.64147
7.82293
8.00224
8.17935
8.35475
8.52665
8.7041
8.85469
-7.57047
-7.56994
-7.56956
-7.57078
-7.57464
-7.58062
-7.58765
-7.59503
-7.60227
-7.6091
-7.61538
-7.62103
-7.62599
-7.6302
-7.63359
-7.63606
-7.63756
-7.63804
-7.63746
-7.63582
-7.63311
-7.62936
-7.62462
-7.61893
-7.61238
-7.60501
-7.59689
-7.58821
-7.5792
-7.5703
-7.56203
-7.55508
-7.55025
-7.54853
-7.55035
-7.55464
-7.55959
-7.56417
-7.56783
-7.57052
-7.57282
-7.57578
-7.58057
-7.5881
-7.59947
-7.61539
-7.63575
-7.65997
-7.68775
-7.71889
-7.753
-7.78991
-7.82952
-7.87174
-7.91644
-7.9634
-8.01229
-8.06269
-8.11407
-8.1659
-8.21766
-8.26885
-8.31903
-8.36783
-8.41491
-8.46001
-8.50289
-8.54337
-8.58127
-8.61644
-8.64875
-8.67805
-8.70422
-8.72714
-8.74666
-8.76268
-8.77505
-8.78367
-8.7884
-8.78912
-8.78572
-8.77807
-8.76606
-8.74957
-8.72848
-8.70265
-8.67197
-8.63632
-8.59559
-8.54968
-8.49848
-8.44189
-8.37976
-8.31203
-8.23858
-8.15934
-8.07421
-7.98315
-7.88608
-7.78298
-7.67383
-7.55864
-7.43744
-7.31024
-7.1771
-7.03807
-6.89323
-6.74266
-6.58648
-6.42477
-6.25769
-6.08531
-5.9078
-5.72527
-5.53787
-5.3457
-5.14894
-4.94769
-4.7421
-4.53227
-4.31837
-4.10053
-3.87895
-3.65376
-3.42514
-3.19325
-2.95826
-2.72035
-2.47972
-2.23657
-1.99113
-1.7436
-1.49424
-1.24327
-0.990949
-0.737551
-0.483371
-0.22868
0.0262662
0.281239
0.535973
0.790197
1.04364
1.29604
1.54716
1.79677
2.04464
2.2906
2.53445
2.77605
3.01524
3.25191
3.48595
3.71731
3.94591
4.1717
4.39466
4.6148
4.83209
5.0466
5.25836
5.46744
5.6739
5.87782
6.07927
6.27833
6.47504
6.66947
6.86166
7.05165
7.23944
7.42507
7.60853
7.78982
7.96895
8.1458
8.3209
8.49185
8.66866
8.81231
-7.5745
-7.57363
-7.57404
-7.57811
-7.58518
-7.59338
-7.60174
-7.60975
-7.61717
-7.62389
-7.62992
-7.63523
-7.63977
-7.64348
-7.64628
-7.64813
-7.64897
-7.64876
-7.64749
-7.64514
-7.64172
-7.63724
-7.63174
-7.62522
-7.61767
-7.60916
-7.59983
-7.58983
-7.57943
-7.56914
-7.55973
-7.55218
-7.54766
-7.54654
-7.54789
-7.55032
-7.55325
-7.55683
-7.5613
-7.56684
-7.5735
-7.58207
-7.59375
-7.60926
-7.62867
-7.65159
-7.67767
-7.70656
-7.73792
-7.77161
-7.8074
-7.84519
-7.88488
-7.92637
-7.96954
-8.01421
-8.06012
-8.10697
-8.15442
-8.20212
-8.2497
-8.29682
-8.34316
-8.38839
-8.43225
-8.47449
-8.51487
-8.55319
-8.58926
-8.6229
-8.65395
-8.68223
-8.70759
-8.72988
-8.74894
-8.76461
-8.77677
-8.78526
-8.78996
-8.79072
-8.78744
-8.77997
-8.7682
-8.752
-8.73125
-8.70582
-8.67558
-8.6404
-8.60019
-8.55481
-8.50418
-8.44816
-8.38663
-8.31949
-8.24664
-8.16798
-8.08345
-7.99297
-7.89648
-7.79394
-7.68534
-7.57069
-7.45
-7.32331
-7.19065
-7.05211
-6.90774
-6.75764
-6.60192
-6.44069
-6.27407
-6.10218
-5.92516
-5.74313
-5.55623
-5.3646
-5.16837
-4.96766
-4.76261
-4.55334
-4.34001
-4.12275
-3.90174
-3.67711
-3.44904
-3.21767
-2.98319
-2.74576
-2.50559
-2.26287
-2.01782
-1.77066
-1.52162
-1.27094
-1.01887
-0.765696
-0.511696
-0.257131
-0.00226031
0.252668
0.507381
0.761606
1.01507
1.26752
1.5187
1.76839
2.01636
2.26243
2.50639
2.7481
2.98741
3.22419
3.45835
3.68981
3.91849
4.14436
4.36738
4.58755
4.80487
5.01939
5.23113
5.44019
5.6466
5.85046
6.05182
6.25078
6.44737
6.64167
6.83371
7.02352
7.21114
7.39658
7.57984
7.7609
7.93977
8.11624
8.29084
8.46067
8.63673
8.77363
-7.57966
-7.57916
-7.58153
-7.58831
-7.59686
-7.60543
-7.61361
-7.62126
-7.62832
-7.63476
-7.64053
-7.64556
-7.64979
-7.65314
-7.65555
-7.65697
-7.65735
-7.65668
-7.65494
-7.65212
-7.64823
-7.6433
-7.63726
-7.63008
-7.6218
-7.61259
-7.60266
-7.59224
-7.58166
-7.57156
-7.56288
-7.5566
-7.55282
-7.55072
-7.54978
-7.55021
-7.55247
-7.55687
-7.56329
-7.57199
-7.58363
-7.59854
-7.61669
-7.63791
-7.66208
-7.68885
-7.71792
-7.74912
-7.78225
-7.81718
-7.85372
-7.89175
-7.93114
-7.97179
-8.01358
-8.05637
-8.09998
-8.1442
-8.18879
-8.23351
-8.27808
-8.32226
-8.36578
-8.40839
-8.44985
-8.48992
-8.52839
-8.56505
-8.5997
-8.63215
-8.6622
-8.68968
-8.7144
-8.73617
-8.75485
-8.77024
-8.78221
-8.79059
-8.79524
-8.79603
-8.79282
-8.78548
-8.77389
-8.75792
-8.73745
-8.71233
-8.68243
-8.64765
-8.60783
-8.5629
-8.51271
-8.45713
-8.39606
-8.32936
-8.25695
-8.17872
-8.09461
-8.00451
-7.9084
-7.80621
-7.69793
-7.58357
-7.46315
-7.33671
-7.20428
-7.06597
-6.92181
-6.77193
-6.61642
-6.45541
-6.28901
-6.11737
-5.9406
-5.75886
-5.57225
-5.38095
-5.18504
-4.98469
-4.77999
-4.57112
-4.35817
-4.14134
-3.92073
-3.69652
-3.46883
-3.23786
-3.00373
-2.76666
-2.5268
-2.28439
-2.0396
-1.79269
-1.54385
-1.29335
-1.04143
-0.788377
-0.534458
-0.27994
-0.0250772
0.229861
0.484605
0.738868
0.992387
1.24489
1.49615
1.7459
1.99396
2.24009
2.48413
2.7259
2.96526
3.20208
3.43628
3.66774
3.89642
4.12225
4.34521
4.5653
4.78254
4.99694
5.20855
5.41745
5.62371
5.82738
6.02857
6.22733
6.42371
6.61778
6.80959
6.99917
7.18655
7.37174
7.55475
7.73554
7.91408
8.0901
8.26411
8.43281
8.60822
8.73885
-7.58392
-7.58456
-7.5894
-7.59737
-7.60572
-7.61371
-7.62134
-7.62858
-7.63535
-7.64157
-7.64715
-7.65199
-7.65602
-7.65915
-7.66133
-7.66251
-7.66265
-7.66173
-7.65973
-7.65666
-7.65254
-7.64731
-7.64088
-7.63334
-7.62492
-7.61576
-7.60603
-7.59604
-7.58636
-7.57781
-7.57094
-7.56551
-7.56085
-7.55706
-7.55509
-7.55538
-7.55808
-7.56386
-7.57312
-7.58576
-7.60162
-7.62048
-7.64217
-7.66645
-7.69307
-7.72183
-7.75251
-7.78494
-7.81895
-7.8544
-7.89115
-7.92907
-7.96806
-8.008
-8.04877
-8.09026
-8.13231
-8.17476
-8.21744
-8.26016
-8.30271
-8.34488
-8.38647
-8.42726
-8.46703
-8.50559
-8.54271
-8.57819
-8.61183
-8.64343
-8.67277
-8.69967
-8.72391
-8.74532
-8.76371
-8.77889
-8.79071
-8.79899
-8.8036
-8.80439
-8.80123
-8.79398
-8.78252
-8.76672
-8.74645
-8.72157
-8.69195
-8.65745
-8.61797
-8.57335
-8.5235
-8.46827
-8.40752
-8.34115
-8.26904
-8.19109
-8.10722
-8.01735
-7.92142
-7.81937
-7.7112
-7.59692
-7.47655
-7.35013
-7.21773
-7.07939
-6.93523
-6.78533
-6.62981
-6.4688
-6.30242
-6.13081
-5.9541
-5.77244
-5.58596
-5.39479
-5.19906
-4.99889
-4.79441
-4.58577
-4.3731
-4.15653
-3.93622
-3.71229
-3.48488
-3.25417
-3.0203
-2.78346
-2.54383
-2.3016
-2.057
-1.81022
-1.56151
-1.31111
-1.05926
-0.806247
-0.552339
-0.297802
-0.0428968
0.212097
0.466905
0.721239
0.974832
1.22741
1.47874
1.72857
1.97669
2.22288
2.46696
2.70875
2.94812
3.18493
3.4191
3.65051
3.87911
4.10482
4.32764
4.54756
4.7646
4.97879
5.19018
5.39883
5.60483
5.80825
6.00917
6.20764
6.40373
6.59751
6.78901
6.9783
7.16539
7.3503
7.53302
7.71349
7.89166
8.06719
8.24058
8.40817
8.58305
8.708
-7.5855
-7.58766
-7.59413
-7.60197
-7.60965
-7.61712
-7.62439
-7.63138
-7.63799
-7.6441
-7.6496
-7.65439
-7.65837
-7.66145
-7.66359
-7.66472
-7.66482
-7.66387
-7.66185
-7.65876
-7.65458
-7.64924
-7.64275
-7.63535
-7.62726
-7.6186
-7.60974
-7.6011
-7.59313
-7.58607
-7.57975
-7.57396
-7.56876
-7.56481
-7.56309
-7.56424
-7.56865
-7.57666
-7.58821
-7.60304
-7.62097
-7.64173
-7.66508
-7.69079
-7.71861
-7.74836
-7.77983
-7.81287
-7.84731
-7.88301
-7.91984
-7.95768
-7.99641
-8.03592
-8.07608
-8.11678
-8.1579
-8.1993
-8.24082
-8.28232
-8.32362
-8.36456
-8.40494
-8.44459
-8.48332
-8.52092
-8.55719
-8.59194
-8.62496
-8.65602
-8.68492
-8.71145
-8.7354
-8.75657
-8.77477
-8.7898
-8.80149
-8.80969
-8.81424
-8.81502
-8.81187
-8.80467
-8.79329
-8.7776
-8.75747
-8.73276
-8.70334
-8.66908
-8.62982
-8.58547
-8.53587
-8.48089
-8.42037
-8.35421
-8.28227
-8.20447
-8.1207
-8.03089
-7.93496
-7.83288
-7.72464
-7.61024
-7.48974
-7.36314
-7.23055
-7.092
-6.94763
-6.79751
-6.6418
-6.48059
-6.31406
-6.14231
-5.96551
-5.78378
-5.59727
-5.40609
-5.21039
-5.01028
-4.80591
-4.59739
-4.38489
-4.1685
-3.94837
-3.72463
-3.49742
-3.26688
-3.03319
-2.79649
-2.557
-2.31489
-2.07039
-1.8237
-1.57505
-1.32468
-1.07285
-0.819817
-0.565869
-0.311266
-0.0562882
0.198791
0.453678
0.708098
0.961768
1.21443
1.46582
1.71571
1.96387
2.21009
2.45417
2.69595
2.93528
3.17204
3.40611
3.63742
3.86586
4.09139
4.31398
4.53366
4.75041
4.96431
5.17538
5.38371
5.58937
5.79247
5.99305
6.19119
6.38693
6.58036
6.77153
6.96048
7.14726
7.33186
7.51427
7.69441
7.87219
8.04721
8.22
8.38654
8.56098
8.68093
-7.58293
-7.58642
-7.59325
-7.60059
-7.6079
-7.61515
-7.62229
-7.62923
-7.63586
-7.64203
-7.64764
-7.65256
-7.65669
-7.65994
-7.66225
-7.66355
-7.66381
-7.66299
-7.66109
-7.65809
-7.65398
-7.64876
-7.64256
-7.63563
-7.62821
-7.62057
-7.61301
-7.60565
-7.59853
-7.59178
-7.58545
-7.57974
-7.57509
-7.57221
-7.57181
-7.57437
-7.58017
-7.58941
-7.60204
-7.61788
-7.63672
-7.65832
-7.68241
-7.70876
-7.73715
-7.76739
-7.79929
-7.83268
-7.86742
-7.90335
-7.94034
-7.97825
-8.01696
-8.05634
-8.09629
-8.13669
-8.17741
-8.21833
-8.25931
-8.30023
-8.34093
-8.38125
-8.42104
-8.46012
-8.49832
-8.53545
-8.57132
-8.60572
-8.63843
-8.66923
-8.6979
-8.72423
-8.74801
-8.76902
-8.78708
-8.80199
-8.81357
-8.82169
-8.82619
-8.82693
-8.82378
-8.81661
-8.80528
-8.78966
-8.76963
-8.74504
-8.71576
-8.68165
-8.64259
-8.59841
-8.54901
-8.49419
-8.43382
-8.36775
-8.29588
-8.21809
-8.1343
-8.0444
-7.94833
-7.84607
-7.73759
-7.62293
-7.50211
-7.37518
-7.24222
-7.10331
-6.95856
-6.80808
-6.65201
-6.49047
-6.32363
-6.15161
-5.97458
-5.79267
-5.60601
-5.41472
-5.21895
-5.01881
-4.81446
-4.606
-4.39358
-4.1773
-3.95729
-3.73366
-3.50658
-3.27616
-3.04257
-2.80598
-2.56657
-2.32454
-2.0801
-1.83344
-1.58482
-1.33445
-1.08259
-0.829508
-0.575487
-0.3208
-0.0657311
0.189438
0.444414
0.698917
0.952664
1.2054
1.45685
1.70678
1.95496
2.20117
2.44523
2.68697
2.92622
3.16288
3.39683
3.62798
3.8562
4.08147
4.30377
4.52311
4.73952
4.95305
5.16374
5.37168
5.57694
5.77966
5.97987
6.17761
6.37296
6.566
6.75679
6.94538
7.13181
7.31608
7.49817
7.67796
7.85534
8.02984
8.20202
8.36757
8.54162
8.65728
-7.57438
-7.5786
-7.58527
-7.59251
-7.59992
-7.60732
-7.61462
-7.62175
-7.62859
-7.63503
-7.64093
-7.64616
-7.6506
-7.65415
-7.65674
-7.6583
-7.6588
-7.65822
-7.65654
-7.65378
-7.64997
-7.64521
-7.63966
-7.63354
-7.62701
-7.62019
-7.61322
-7.60625
-7.59936
-7.59273
-7.58668
-7.58162
-7.57796
-7.57621
-7.57693
-7.58053
-7.58728
-7.59731
-7.61059
-7.62699
-7.6463
-7.66829
-7.69273
-7.71941
-7.74813
-7.77869
-7.81092
-7.84466
-7.87974
-7.916
-7.9533
-7.9915
-8.03046
-8.07006
-8.11018
-8.15069
-8.19147
-8.2324
-8.27335
-8.3142
-8.35482
-8.39504
-8.43471
-8.47367
-8.51175
-8.54876
-8.58452
-8.61882
-8.65146
-8.6822
-8.71081
-8.73708
-8.76078
-8.78171
-8.79967
-8.81447
-8.82596
-8.83399
-8.83841
-8.8391
-8.83592
-8.82874
-8.81742
-8.80184
-8.78186
-8.75734
-8.72815
-8.69416
-8.65521
-8.61118
-8.56189
-8.50717
-8.44686
-8.3808
-8.3089
-8.23103
-8.1471
-8.05701
-7.96069
-7.85811
-7.74927
-7.63421
-7.51294
-7.38556
-7.25211
-7.11272
-6.96746
-6.8165
-6.65995
-6.49799
-6.33073
-6.15837
-5.98102
-5.79885
-5.61196
-5.42051
-5.22459
-5.02439
-4.82
-4.61157
-4.39918
-4.18297
-3.96303
-3.73951
-3.5125
-3.28217
-3.04865
-2.81214
-2.57279
-2.33082
-2.08641
-1.83978
-1.59116
-1.34078
-1.08888
-0.835735
-0.581633
-0.326863
-0.0717023
0.183549
0.438608
0.693181
0.946999
1.19978
1.45128
1.70122
1.9494
2.19558
2.43958
2.68121
2.92034
3.15684
3.39062
3.62154
3.84949
4.07442
4.29636
4.51531
4.73131
4.9444
5.15465
5.36214
5.56698
5.76927
5.96908
6.16639
6.36132
6.55395
6.74434
6.93256
7.11864
7.30258
7.48435
7.6638
7.84078
8.0148
8.18639
8.35104
8.52471
8.63678
-7.55835
-7.5627
-7.56949
-7.57737
-7.58542
-7.59327
-7.60092
-7.60837
-7.61558
-7.62243
-7.62878
-7.63445
-7.63929
-7.64322
-7.64619
-7.64812
-7.64899
-7.6488
-7.64754
-7.64525
-7.642
-7.63786
-7.63297
-7.62744
-7.62141
-7.61498
-7.60828
-7.60145
-7.59472
-7.5884
-7.58282
-7.57834
-7.57539
-7.57449
-7.57607
-7.58049
-7.58798
-7.59862
-7.61239
-7.62917
-7.64878
-7.67102
-7.69571
-7.72265
-7.75165
-7.78256
-7.81519
-7.84936
-7.88492
-7.92168
-7.9595
-7.99823
-8.03774
-8.07789
-8.11854
-8.15954
-8.20076
-8.24208
-8.28338
-8.32453
-8.36539
-8.40583
-8.4457
-8.48485
-8.5231
-8.56027
-8.59618
-8.63061
-8.66336
-8.69418
-8.72285
-8.74912
-8.77279
-8.79365
-8.81149
-8.82614
-8.83745
-8.84531
-8.84959
-8.85017
-8.84691
-8.8397
-8.82837
-8.81279
-8.79282
-8.76832
-8.73917
-8.70524
-8.66638
-8.62243
-8.57323
-8.51857
-8.45825
-8.39216
-8.32016
-8.24216
-8.15802
-8.06766
-7.97102
-7.86805
-7.75877
-7.64322
-7.52144
-7.39351
-7.25951
-7.11954
-6.97373
-6.82221
-6.66514
-6.50268
-6.33498
-6.16222
-5.98453
-5.80205
-5.61491
-5.42325
-5.2272
-5.02691
-4.82248
-4.61405
-4.4017
-4.18555
-3.96569
-3.74225
-3.51533
-3.28509
-3.05166
-2.81523
-2.57595
-2.33403
-2.08967
-1.84307
-1.59445
-1.34405
-1.09211
-0.838913
-0.584747
-0.329905
-0.0746741
0.180646
0.435768
0.690397
0.944257
1.19707
1.44857
1.6985
1.94663
2.19274
2.43663
2.67813
2.91709
3.15339
3.38698
3.61767
3.84529
4.06983
4.29134
4.50985
4.72538
4.93799
5.14776
5.35476
5.55912
5.76099
5.96037
6.15722
6.35169
6.54388
6.73386
6.9217
7.10742
7.29103
7.47249
7.65161
7.8282
8.00172
8.17277
8.33658
8.50985
8.61904
-7.53439
-7.53859
-7.54617
-7.55532
-7.56431
-7.57273
-7.58079
-7.58869
-7.59646
-7.60398
-7.61099
-7.61726
-7.62264
-7.62707
-7.63053
-7.63296
-7.63435
-7.63469
-7.634
-7.63228
-7.62959
-7.62601
-7.62161
-7.61649
-7.61075
-7.6045
-7.59792
-7.59124
-7.58471
-7.57863
-7.57335
-7.5693
-7.56695
-7.56672
-7.569
-7.57409
-7.58216
-7.59327
-7.6074
-7.62444
-7.64427
-7.66671
-7.69163
-7.71885
-7.74821
-7.77955
-7.8127
-7.84748
-7.88372
-7.92121
-7.9598
-7.99931
-8.03961
-8.08054
-8.12194
-8.16366
-8.20558
-8.24756
-8.28947
-8.33117
-8.37254
-8.41344
-8.45375
-8.49331
-8.53194
-8.56948
-8.60571
-8.64044
-8.67339
-8.70432
-8.73296
-8.75912
-8.7826
-8.80324
-8.8208
-8.83509
-8.84604
-8.85362
-8.85771
-8.85816
-8.85485
-8.84763
-8.83633
-8.82079
-8.80085
-8.77638
-8.74722
-8.71328
-8.67443
-8.63055
-8.58142
-8.52679
-8.46644
-8.40029
-8.32818
-8.25003
-8.16569
-8.07505
-7.97806
-7.87467
-7.76493
-7.64885
-7.52655
-7.39805
-7.26349
-7.12294
-6.97656
-6.82446
-6.66687
-6.5039
-6.33577
-6.1626
-5.98458
-5.80179
-5.61441
-5.42255
-5.22638
-5.02601
-4.82158
-4.61316
-4.40089
-4.18483
-3.9651
-3.74176
-3.51498
-3.28486
-3.05157
-2.81525
-2.57609
-2.33427
-2.09
-1.84347
-1.5949
-1.3445
-1.09255
-0.839338
-0.585164
-0.330305
-0.0750638
0.18027
0.435393
0.690021
0.94386
1.19664
1.44808
1.69794
1.94597
2.19194
2.43566
2.67695
2.91566
3.15172
3.38514
3.61565
3.84292
4.06703
4.28808
4.5061
4.72113
4.93324
5.14249
5.34899
5.55286
5.75434
5.95332
6.14971
6.34371
6.53545
6.72502
6.91248
7.09787
7.28116
7.46234
7.64116
7.81737
7.99043
8.16097
8.32401
8.49686
8.60383
-7.50341
-7.50782
-7.51677
-7.52755
-7.53755
-7.54655
-7.55528
-7.56393
-7.57242
-7.58072
-7.58867
-7.59584
-7.60188
-7.60681
-7.61078
-7.61379
-7.61579
-7.61674
-7.61664
-7.6155
-7.61333
-7.61019
-7.60613
-7.60124
-7.59563
-7.58948
-7.58297
-7.57633
-7.56985
-7.5639
-7.55887
-7.5552
-7.55331
-7.5536
-7.55639
-7.56193
-7.57036
-7.58174
-7.59605
-7.61325
-7.63324
-7.6559
-7.68108
-7.70865
-7.73845
-7.77031
-7.80409
-7.83959
-7.87661
-7.91498
-7.9545
-7.99499
-8.03626
-8.07815
-8.12049
-8.16312
-8.2059
-8.2487
-8.29138
-8.3338
-8.37583
-8.41734
-8.45817
-8.49819
-8.53723
-8.5751
-8.61158
-8.64645
-8.67942
-8.71021
-8.73855
-8.76428
-8.78732
-8.80752
-8.82458
-8.83821
-8.8485
-8.85564
-8.85955
-8.86002
-8.85683
-8.84982
-8.83874
-8.82339
-8.80363
-8.77927
-8.75014
-8.71619
-8.67734
-8.63348
-8.58437
-8.5297
-8.4693
-8.40305
-8.33084
-8.25254
-8.168
-8.07709
-7.97971
-7.87587
-7.76561
-7.64901
-7.52613
-7.39707
-7.26191
-7.12076
-6.97375
-6.82107
-6.66289
-6.49942
-6.33082
-6.15725
-5.97887
-5.79578
-5.60815
-5.41611
-5.21983
-5.01942
-4.815
-4.60666
-4.3945
-4.17858
-3.959
-3.73585
-3.50925
-3.27932
-3.04622
-2.81009
-2.57113
-2.32951
-2.08543
-1.83909
-1.59068
-1.34042
-1.08859
-0.835511
-0.581465
-0.326736
-0.0716269
0.183567
0.438544
0.693013
0.946681
1.19927
1.4505
1.70012
1.94787
2.19354
2.43692
2.67783
2.91611
3.15172
3.3848
3.61502
3.84188
4.0655
4.28604
4.50353
4.71803
4.92961
5.13833
5.34431
5.5477
5.74888
5.94756
6.1435
6.33703
6.52834
6.71752
6.90463
7.08969
7.2727
7.45367
7.63223
7.80808
7.9807
8.15075
8.3131
8.48546
8.59087
-7.468
-7.47324
-7.48405
-7.49683
-7.50798
-7.5174
-7.52645
-7.53586
-7.54547
-7.55489
-7.56386
-7.57201
-7.57885
-7.58429
-7.58871
-7.59226
-7.59485
-7.59639
-7.59686
-7.59621
-7.59446
-7.59162
-7.58778
-7.58302
-7.57746
-7.57127
-7.56468
-7.55796
-7.55147
-7.54558
-7.54071
-7.53726
-7.53563
-7.53616
-7.53915
-7.54481
-7.55328
-7.56463
-7.57891
-7.59607
-7.61608
-7.63884
-7.66424
-7.69215
-7.72242
-7.7549
-7.78939
-7.8257
-7.86364
-7.903
-7.94358
-7.98515
-8.02751
-8.07049
-8.11388
-8.15752
-8.20123
-8.24487
-8.28827
-8.3313
-8.37382
-8.4157
-8.45681
-8.49701
-8.53614
-8.57402
-8.61041
-8.64509
-8.67773
-8.70799
-8.73548
-8.76022
-8.78245
-8.80206
-8.81849
-8.83111
-8.84021
-8.84657
-8.85025
-8.85089
-8.84813
-8.84164
-8.8311
-8.81622
-8.79687
-8.77305
-8.74471
-8.71158
-8.67347
-8.6301
-8.58123
-8.52663
-8.46623
-8.39993
-8.32761
-8.24912
-8.16431
-8.07304
-7.9752
-7.87083
-7.75996
-7.64273
-7.51916
-7.38941
-7.25351
-7.11163
-6.96387
-6.81047
-6.65159
-6.48749
-6.31831
-6.14423
-5.96538
-5.78192
-5.59397
-5.40172
-5.20528
-5.00481
-4.80038
-4.5921
-4.38003
-4.16427
-3.94487
-3.72194
-3.49556
-3.26588
-3.03302
-2.79716
-2.55844
-2.31708
-2.07326
-1.82717
-1.57899
-1.32896
-1.07737
-0.824531
-0.570714
-0.316221
-0.0613459
0.1936
0.448326
0.702525
0.955911
1.20819
1.45909
1.70834
1.9557
2.20092
2.4438
2.68414
2.92177
3.15654
3.3884
3.6173
3.84323
4.06613
4.28599
4.50281
4.71664
4.92753
5.13558
5.34088
5.54363
5.74435
5.94269
6.13815
6.33122
6.52213
6.71095
6.89775
7.08254
7.26534
7.44619
7.62462
7.80017
7.9724
8.14201
8.30372
8.47555
8.58003
-7.43047
-7.43682
-7.44996
-7.4647
-7.47626
-7.486
-7.496
-7.50651
-7.51711
-7.5275
-7.53744
-7.54654
-7.55417
-7.56026
-7.56529
-7.5695
-7.57274
-7.57492
-7.57595
-7.5758
-7.57445
-7.5719
-7.56822
-7.5635
-7.55788
-7.55155
-7.54478
-7.53787
-7.53117
-7.52508
-7.52
-7.51632
-7.51442
-7.51463
-7.51722
-7.52243
-7.53041
-7.54129
-7.5551
-7.57189
-7.59163
-7.61429
-7.63978
-7.668
-7.69879
-7.73198
-7.76735
-7.80467
-7.8437
-7.88421
-7.92596
-7.96872
-8.01223
-8.05628
-8.10065
-8.14514
-8.18958
-8.23377
-8.27757
-8.32084
-8.36345
-8.40529
-8.44625
-8.4862
-8.52499
-8.56248
-8.59846
-8.63268
-8.66477
-8.69412
-8.71998
-8.74255
-8.76301
-8.78184
-8.79843
-8.81199
-8.82212
-8.82894
-8.83273
-8.83345
-8.83084
-8.82454
-8.81422
-8.79951
-8.7804
-8.75703
-8.72936
-8.69707
-8.65965
-8.6168
-8.56823
-8.51385
-8.45359
-8.38739
-8.31507
-8.23649
-8.1515
-8.05996
-7.9618
-7.85702
-7.74572
-7.62796
-7.50385
-7.37348
-7.23697
-7.09443
-6.94604
-6.79201
-6.63257
-6.46791
-6.29823
-6.1237
-5.94447
-5.76068
-5.5725