/*--------------------------------*- C++ -*----------------------------------*\
  =========                 |
  \\      /  F ield         | OpenFOAM: The Open Source CFD Toolbox
   \\    /   O peration     | Website:  https://openfoam.org
    \\  /    A nd           | Version:  13
     \\/     M anipulation  |
\*---------------------------------------------------------------------------*/
FoamFile
{
    format      ascii;
    class       surfaceScalarField;
    location    "500";
    object      phi;
}
// * * * * * * * * * * * * * * * * * * * * * * * * * * * * * * * * * * * * * //

dimensions      [0 3 -1 0 0 0 0];

internalField   nonuniform List<scalar> 
24170
(
3.06431e-06
1.24104e-07
2.91844e-06
1.45928e-07
2.79052e-06
1.27933e-07
2.67658e-06
1.13934e-07
2.57572e-06
1.00875e-07
2.48653e-06
8.91862e-08
2.40767e-06
7.88806e-08
2.34181e-06
6.58879e-08
2.28841e-06
5.34091e-08
2.24443e-06
4.39845e-08
2.20647e-06
3.79698e-08
2.17344e-06
3.30208e-08
2.14587e-06
2.75714e-08
2.12176e-06
2.4101e-08
2.10004e-06
2.17111e-08
2.08143e-06
1.8595e-08
2.0687e-06
1.27248e-08
6.9671e-09
2.06173e-06
3.46926e-06
7.21064e-08
3.50547e-06
1.09825e-07
3.52144e-06
1.12038e-07
3.52336e-06
1.12034e-07
3.51285e-06
1.11415e-07
3.49185e-06
1.10193e-07
3.46454e-06
1.06215e-07
3.43286e-06
9.75905e-08
3.40066e-06
8.56182e-08
3.3704e-06
7.42613e-08
3.34128e-06
6.7103e-08
3.31344e-06
6.08561e-08
3.28676e-06
5.42562e-08
3.26079e-06
5.00653e-08
3.23555e-06
4.69332e-08
3.21196e-06
4.21758e-08
3.18929e-06
3.53916e-08
3.00251e-08
3.16622e-06
3.68075e-06
5.38805e-08
3.69904e-06
9.15461e-08
3.71323e-06
9.78487e-08
3.72542e-06
9.98422e-08
3.7359e-06
1.0093e-07
3.74548e-06
1.00591e-07
3.75387e-06
9.78295e-08
3.75982e-06
9.16527e-08
3.76282e-06
8.26115e-08
3.76322e-06
7.38525e-08
3.76244e-06
6.78907e-08
3.76057e-06
6.27245e-08
3.75727e-06
5.75547e-08
3.75357e-06
5.3755e-08
3.74979e-06
5.07102e-08
3.74565e-06
4.63132e-08
3.74055e-06
4.05003e-08
3.47267e-08
3.73585e-06
3.93571e-06
4.35706e-08
3.94827e-06
7.90453e-08
3.9574e-06
8.87643e-08
3.96514e-06
9.21325e-08
3.97214e-06
9.39451e-08
3.97902e-06
9.37128e-08
3.98591e-06
9.09397e-08
3.99222e-06
8.53487e-08
3.99724e-06
7.75931e-08
4.00113e-06
6.99621e-08
4.00487e-06
6.41573e-08
4.00854e-06
5.9065e-08
4.01188e-06
5.42197e-08
4.01528e-06
5.03504e-08
4.01895e-06
4.70379e-08
4.0224e-06
4.28691e-08
4.0251e-06
3.77948e-08
3.26796e-08
4.02715e-06
4.21498e-06
3.57181e-08
4.22523e-06
6.879e-08
4.23317e-06
8.0816e-08
4.23988e-06
8.54173e-08
4.24596e-06
8.78553e-08
4.25179e-06
8.78718e-08
4.25746e-06
8.52636e-08
4.26265e-06
8.01603e-08
4.26679e-06
7.34469e-08
4.2699e-06
6.68394e-08
4.27272e-06
6.13396e-08
4.27543e-06
5.63569e-08
4.27794e-06
5.17095e-08
4.28054e-06
4.77473e-08
4.28343e-06
4.41431e-08
4.28626e-06
4.00473e-08
4.28865e-06
3.54009e-08
3.07299e-08
4.29061e-06
4.51561e-06
2.92017e-08
4.52435e-06
6.00678e-08
4.53187e-06
7.33224e-08
4.53844e-06
7.88674e-08
4.54452e-06
8.17824e-08
4.55028e-06
8.21128e-08
4.55571e-06
7.98404e-08
4.56056e-06
7.5307e-08
4.56455e-06
6.94569e-08
4.56776e-06
6.36278e-08
4.57063e-06
5.84756e-08
4.57328e-06
5.37176e-08
4.57573e-06
4.92613e-08
4.57819e-06
4.5283e-08
4.58078e-06
4.15549e-08
4.58327e-06
3.75647e-08
4.5854e-06
3.32722e-08
2.89769e-08
4.58715e-06
4.83804e-06
2.38864e-08
4.84579e-06
5.23025e-08
4.85301e-06
6.6084e-08
4.85958e-06
7.22863e-08
4.86581e-06
7.55431e-08
4.87173e-06
7.61842e-08
4.87724e-06
7.43317e-08
4.88209e-06
7.04535e-08
4.88614e-06
6.54015e-08
4.88956e-06
6.02086e-08
4.89263e-06
5.5399e-08
4.89545e-06
5.08981e-08
4.89806e-06
4.66509e-08
4.90061e-06
4.27286e-08
4.90318e-06
3.89912e-08
4.9056e-06
3.51397e-08
4.90773e-06
3.11503e-08
2.72031e-08
4.9095e-06
5.18385e-06
1.96159e-08
5.19082e-06
4.53353e-08
5.19774e-06
5.91663e-08
5.20427e-06
6.57682e-08
5.2106e-06
6.92158e-08
5.21667e-06
7.01175e-08
5.22233e-06
6.86743e-08
5.22736e-06
6.54191e-08
5.23165e-06
6.1114e-08
5.23533e-06
5.65314e-08
5.23863e-06
5.20991e-08
5.24166e-06
4.78708e-08
5.24446e-06
4.38516e-08
5.24713e-06
4.00599e-08
5.24972e-06
3.64023e-08
5.25214e-06
3.27201e-08
5.2543e-06
2.9003e-08
2.53792e-08
5.25612e-06
5.55475e-06
1.61967e-08
5.56101e-06
3.90653e-08
5.56761e-06
5.25472e-08
5.57404e-06
5.93256e-08
5.5804e-06
6.28517e-08
5.58657e-06
6.39418e-08
5.59235e-06
6.2887e-08
5.59757e-06
6.01992e-08
5.60214e-06
5.65425e-08
5.60614e-06
5.25288e-08
5.60973e-06
4.85103e-08
5.613e-06
4.45918e-08
5.61603e-06
4.08222e-08
5.61888e-06
3.72143e-08
5.62157e-06
3.37126e-08
5.62405e-06
3.02399e-08
5.62627e-06
2.67873e-08
2.34691e-08
5.62818e-06
5.95253e-06
1.3443e-08
5.95811e-06
3.34736e-08
5.96439e-06
4.62684e-08
5.9707e-06
5.30192e-08
5.97702e-06
5.65349e-08
5.98322e-06
5.77409e-08
5.98911e-06
5.69994e-08
5.99451e-06
5.48011e-08
5.99935e-06
5.17116e-08
6.00366e-06
4.82204e-08
6.00755e-06
4.4621e-08
6.0111e-06
4.10426e-08
6.01437e-06
3.75506e-08
6.01742e-06
3.41706e-08
6.02025e-06
3.08785e-08
6.02285e-06
2.76437e-08
6.02517e-06
2.44696e-08
2.14457e-08
6.02719e-06
6.37906e-06
1.1192e-08
6.38403e-06
2.84875e-08
6.38998e-06
4.03022e-08
6.39615e-06
4.6844e-08
6.4024e-06
5.02809e-08
6.40858e-06
5.15532e-08
6.41452e-06
5.10612e-08
6.42006e-06
4.92647e-08
6.42512e-06
4.66538e-08
6.42971e-06
4.36267e-08
6.4339e-06
4.04345e-08
6.43774e-06
3.72052e-08
6.44127e-06
3.40185e-08
6.44453e-06
3.09034e-08
6.44755e-06
2.78631e-08
6.4503e-06
2.48954e-08
6.45276e-06
2.20078e-08
1.92806e-08
6.45493e-06
5.74245e-06
9.56935e-09
5.74624e-06
2.46843e-08
5.75104e-06
3.54959e-08
5.75614e-06
4.1738e-08
5.76135e-06
4.50745e-08
5.76653e-06
4.63763e-08
5.77154e-06
4.60535e-08
5.77627e-06
4.45373e-08
5.78066e-06
4.22632e-08
5.78471e-06
3.95784e-08
5.78844e-06
3.67016e-08
5.79188e-06
3.3763e-08
5.79506e-06
3.08374e-08
5.79799e-06
2.79671e-08
5.80069e-06
2.51618e-08
5.80315e-06
2.24343e-08
5.80536e-06
1.97965e-08
1.73177e-08
5.80732e-06
6.99975e-06
7.97582e-09
7.00367e-06
2.07477e-08
7.00885e-06
3.03085e-08
7.01452e-06
3.60626e-08
7.0204e-06
3.91949e-08
7.0263e-06
4.04775e-08
7.03205e-06
4.03055e-08
7.03753e-06
3.90626e-08
7.04266e-06
3.7125e-08
7.04745e-06
3.47901e-08
7.0519e-06
3.22538e-08
7.05602e-06
2.96368e-08
7.05984e-06
2.70163e-08
7.06337e-06
2.44327e-08
7.06662e-06
2.191e-08
7.06959e-06
1.94675e-08
7.07227e-06
1.71156e-08
1.49227e-08
7.07467e-06
8.53242e-06
6.40171e-09
8.53642e-06
1.67404e-08
8.54192e-06
2.479e-08
8.54814e-06
2.98377e-08
8.55469e-06
3.26376e-08
8.56134e-06
3.38278e-08
8.56788e-06
3.37685e-08
8.57416e-06
3.27831e-08
8.5801e-06
3.11788e-08
8.58569e-06
2.92048e-08
8.59091e-06
2.70315e-08
8.59577e-06
2.477e-08
8.60029e-06
2.24904e-08
8.60449e-06
2.02389e-08
8.60835e-06
1.80427e-08
8.6119e-06
1.59242e-08
8.61511e-06
1.38972e-08
1.20187e-08
8.61802e-06
1.04008e-05
4.83912e-09
1.04048e-05
1.26838e-08
1.04106e-05
1.89853e-08
1.04174e-05
2.30868e-08
1.04246e-05
2.54034e-08
1.0432e-05
2.64053e-08
1.04394e-05
2.63978e-08
1.04465e-05
2.56361e-08
1.04533e-05
2.43555e-08
1.04598e-05
2.27527e-08
1.04658e-05
2.09673e-08
1.04715e-05
1.90947e-08
1.04768e-05
1.71994e-08
1.04817e-05
1.53239e-08
1.04863e-05
1.34986e-08
1.04904e-05
1.17452e-08
1.04943e-05
1.00775e-08
8.54515e-09
1.04977e-05
1.26784e-05
3.26993e-09
1.26825e-05
8.55384e-09
1.26886e-05
1.2897e-08
1.26958e-05
1.58116e-08
1.27037e-05
1.74713e-08
1.2712e-05
1.81711e-08
1.27202e-05
1.81346e-08
1.27283e-05
1.75452e-08
1.27361e-05
1.6566e-08
1.27435e-05
1.5336e-08
1.27505e-05
1.39605e-08
1.27571e-05
1.25133e-08
1.27633e-05
1.10459e-08
1.2769e-05
9.59569e-09
1.27743e-05
8.18868e-09
1.27792e-05
6.8456e-09
1.27837e-05
5.5757e-09
4.42266e-09
1.27878e-05
1.54548e-05
1.6645e-09
1.54591e-05
4.23729e-09
1.54655e-05
6.43578e-09
1.54734e-05
7.928e-09
1.54821e-05
8.74459e-09
1.54913e-05
9.0152e-09
1.55006e-05
8.86006e-09
1.55097e-05
8.38357e-09
1.55186e-05
7.67568e-09
1.55271e-05
6.81691e-09
1.55352e-05
5.87008e-09
1.55429e-05
4.88223e-09
1.555e-05
3.88745e-09
1.55567e-05
2.91179e-09
1.55629e-05
1.97407e-09
1.55687e-05
1.08858e-09
1.5574e-05
2.62463e-10
-4.72582e-10
1.55789e-05
1.88394e-05
-5.63914e-11
1.88441e-05
-5.064e-10
1.88512e-05
-7.02354e-10
1.886e-05
-8.7245e-10
1.88699e-05
-1.08304e-09
1.88802e-05
-1.36165e-09
1.88908e-05
-1.71178e-09
1.89013e-05
-2.11827e-09
1.89116e-05
-2.56879e-09
1.89214e-05
-3.04573e-09
1.89308e-05
-3.53456e-09
1.89397e-05
-4.02041e-09
1.89481e-05
-4.4916e-09
1.8956e-05
-4.9375e-09
1.89633e-05
-5.35018e-09
1.89701e-05
-5.72287e-09
1.89764e-05
-6.05278e-09
-6.32075e-09
1.89823e-05
2.29654e-05
-2.09293e-09
2.29711e-05
-6.25804e-09
2.29797e-05
-9.27618e-09
2.29902e-05
-1.13903e-08
2.30019e-05
-1.27835e-08
2.30142e-05
-1.36862e-08
2.30268e-05
-1.42477e-08
2.30392e-05
-1.45623e-08
2.30514e-05
-1.47047e-08
2.30631e-05
-1.4734e-08
2.30742e-05
-1.4689e-08
2.30848e-05
-1.45941e-08
2.30948e-05
-1.4462e-08
2.31041e-05
-1.4301e-08
2.31129e-05
-1.41135e-08
2.31211e-05
-1.39028e-08
2.31287e-05
-1.36682e-08
-1.34069e-08
2.31358e-05
1.68124e-05
-3.81649e-09
1.68173e-05
-1.10825e-08
1.68243e-05
-1.62851e-08
1.68326e-05
-1.97603e-08
1.68418e-05
-2.19025e-08
1.68512e-05
-2.3148e-08
1.68607e-05
-2.37586e-08
1.68701e-05
-2.39097e-08
1.68791e-05
-2.37469e-08
1.68878e-05
-2.33892e-08
1.6896e-05
-2.29133e-08
1.69038e-05
-2.23687e-08
1.69111e-05
-2.17846e-08
1.6918e-05
-2.11767e-08
1.69244e-05
-2.05569e-08
1.69305e-05
-1.99263e-08
1.69361e-05
-1.92907e-08
-1.865e-08
1.69413e-05
1.46364e-05
-5.64164e-09
1.46415e-05
-1.61924e-08
1.46487e-05
-2.34592e-08
1.46569e-05
-2.80102e-08
1.46657e-05
-3.06577e-08
1.46746e-05
-3.20619e-08
1.46835e-05
-3.25867e-08
1.4692e-05
-3.24631e-08
1.47002e-05
-3.1924e-08
1.4708e-05
-3.1145e-08
1.47153e-05
-3.02326e-08
1.47222e-05
-2.92555e-08
1.47286e-05
-2.82515e-08
1.47347e-05
-2.72452e-08
1.47404e-05
-2.6242e-08
1.47457e-05
-2.52502e-08
1.47507e-05
-2.42618e-08
-2.32965e-08
1.47553e-05
1.27422e-05
-7.69958e-09
1.27479e-05
-2.18765e-08
1.27555e-05
-3.10578e-08
1.27638e-05
-3.63183e-08
1.27724e-05
-3.92177e-08
1.27809e-05
-4.06119e-08
1.27892e-05
-4.09014e-08
1.27972e-05
-4.03827e-08
1.28046e-05
-3.93895e-08
1.28116e-05
-3.814e-08
1.28182e-05
-3.67766e-08
1.28243e-05
-3.53715e-08
1.283e-05
-3.39751e-08
1.28354e-05
-3.26031e-08
1.28404e-05
-3.12639e-08
1.28451e-05
-2.99559e-08
1.28495e-05
-2.86651e-08
-2.74241e-08
1.28537e-05
1.10933e-05
-1.0108e-08
1.10999e-05
-2.84175e-08
1.11081e-05
-3.92313e-08
1.11165e-05
-4.47031e-08
1.11248e-05
-4.7593e-08
1.1133e-05
-4.88071e-08
1.11408e-05
-4.8715e-08
1.11482e-05
-4.77029e-08
1.1155e-05
-4.61828e-08
1.11613e-05
-4.44279e-08
1.11671e-05
-4.25877e-08
1.11725e-05
-4.07585e-08
1.11775e-05
-3.89833e-08
1.11822e-05
-3.72816e-08
1.11866e-05
-3.56492e-08
1.11907e-05
-3.40762e-08
1.11946e-05
-3.25374e-08
-3.10753e-08
1.11982e-05
9.65815e-06
-1.30389e-08
9.66587e-06
-3.61408e-08
9.67445e-06
-4.78012e-08
9.68277e-06
-5.30273e-08
9.69084e-06
-5.56592e-08
9.6986e-06
-5.65651e-08
9.70583e-06
-5.59442e-08
9.71249e-06
-5.43692e-08
9.71863e-06
-5.2319e-08
9.72422e-06
-5.00161e-08
9.72933e-06
-4.77008e-08
9.73404e-06
-4.54552e-08
9.73839e-06
-4.33358e-08
9.74245e-06
-4.13427e-08
9.74628e-06
-3.9467e-08
9.7499e-06
-3.76909e-08
9.75333e-06
-3.59709e-08
-3.4372e-08
9.75663e-06
8.40907e-06
-1.67538e-08
8.4181e-06
-4.51756e-08
8.4267e-06
-5.6406e-08
8.43467e-06
-6.10025e-08
8.44236e-06
-6.33449e-08
8.44963e-06
-6.38428e-08
8.45628e-06
-6.25968e-08
8.46231e-06
-6.04011e-08
8.46777e-06
-5.77828e-08
8.47271e-06
-5.49568e-08
8.47717e-06
-5.21666e-08
8.48128e-06
-4.95686e-08
8.4851e-06
-4.71621e-08
8.48869e-06
-4.49325e-08
8.4921e-06
-4.28667e-08
8.49534e-06
-4.094e-08
8.49846e-06
-3.90824e-08
-3.7372e-08
8.50146e-06
7.32284e-06
-2.23098e-08
7.33244e-06
-5.47802e-08
7.34053e-06
-6.44962e-08
7.34801e-06
-6.84948e-08
7.35527e-06
-7.06073e-08
7.36196e-06
-7.05406e-08
7.36793e-06
-6.85747e-08
7.37331e-06
-6.57786e-08
7.37817e-06
-6.26488e-08
7.38265e-06
-5.94442e-08
7.38682e-06
-5.63405e-08
7.39076e-06
-5.35196e-08
7.39453e-06
-5.09333e-08
7.3981e-06
-4.85042e-08
7.4015e-06
-4.62692e-08
7.40475e-06
-4.41889e-08
7.40789e-06
-4.22232e-08
-4.04564e-08
7.41098e-06
6.37879e-06
-3.10338e-08
6.38741e-06
-6.34049e-08
6.39444e-06
-7.15387e-08
6.40143e-06
-7.55148e-08
6.40846e-06
-7.76365e-08
6.41496e-06
-7.70373e-08
6.42099e-06
-7.46138e-08
6.42673e-06
-7.15139e-08
6.43226e-06
-6.81817e-08
6.43772e-06
-6.49182e-08
6.44324e-06
-6.18609e-08
6.44861e-06
-5.88939e-08
6.45365e-06
-5.59832e-08
6.45843e-06
-5.32921e-08
6.46295e-06
-5.07863e-08
6.46717e-06
-4.84131e-08
6.47117e-06
-4.62207e-08
-4.4319e-08
6.47505e-06
5.55781e-06
-4.33791e-08
5.56945e-06
-7.50587e-08
5.58091e-06
-8.30191e-08
5.59445e-06
-8.90797e-08
5.60934e-06
-9.2519e-08
5.62403e-06
-9.17327e-08
5.63835e-06
-8.89332e-08
5.65183e-06
-8.49961e-08
5.66375e-06
-8.00982e-08
5.67373e-06
-7.49018e-08
5.68176e-06
-6.98962e-08
5.68802e-06
-6.51581e-08
5.69281e-06
-6.0776e-08
5.69637e-06
-5.68544e-08
5.69896e-06
-5.33851e-08
5.70084e-06
-5.02913e-08
5.7023e-06
-4.76704e-08
-4.58993e-08
5.70388e-06
4.89245e-06
-1.08226e-07
4.94457e-06
-1.27186e-07
4.98814e-06
-1.26614e-07
5.02083e-06
-1.21794e-07
5.04206e-06
-1.13744e-07
5.053e-06
-1.02674e-07
5.05355e-06
-8.94794e-08
5.04498e-06
-7.64252e-08
5.03035e-06
-6.54716e-08
5.01175e-06
-5.63115e-08
4.99001e-06
-4.81595e-08
4.96646e-06
-4.1608e-08
4.94235e-06
-3.66768e-08
4.91828e-06
-3.27819e-08
4.89473e-06
-2.98423e-08
4.87225e-06
-2.78087e-08
4.85079e-06
-2.62046e-08
-2.5533e-08
4.83043e-06
4.09445e-06
3.96726e-06
3.84065e-06
3.71885e-06
3.60511e-06
3.50243e-06
3.41295e-06
3.33653e-06
3.27106e-06
3.21474e-06
3.16658e-06
3.12498e-06
3.0883e-06
3.05552e-06
3.02567e-06
2.99787e-06
2.97166e-06
2.94613e-06
-7.78762e-09
7.78772e-09
-2.12671e-08
1.34814e-08
-3.60657e-08
1.47999e-08
-4.89405e-08
1.28802e-08
-5.50947e-08
6.15581e-09
-4.86854e-08
-6.39983e-09
-2.7413e-08
-2.1273e-08
6.73321e-09
-3.41346e-08
4.99034e-08
-4.31733e-08
9.75432e-08
-4.76301e-08
1.45216e-07
-4.76779e-08
1.89848e-07
-4.46235e-08
2.29366e-07
-3.95238e-08
2.62532e-07
-3.31585e-08
2.88593e-07
-2.60672e-08
3.07162e-07
-1.85626e-08
3.17947e-07
-1.07913e-08
3.20686e-07
-2.73526e-09
3.15155e-07
5.52488e-09
3.01495e-07
1.36634e-08
2.8022e-07
2.12708e-08
2.52236e-07
2.7988e-08
2.18804e-07
3.343e-08
1.81635e-07
3.71777e-08
1.4283e-07
3.88053e-08
1.04844e-07
3.80001e-08
7.01603e-08
3.46843e-08
4.09679e-08
2.92075e-08
1.8558e-08
2.24104e-08
3.15354e-09
1.54158e-08
-5.95827e-09
9.10689e-09
-9.47361e-09
3.51848e-09
-7.46595e-09
-2.01812e-09
9.01163e-10
-8.3707e-09
1.7019e-08
-1.61331e-08
4.18376e-08
-2.48229e-08
7.35624e-08
-3.1737e-08
1.07055e-07
-3.34932e-08
1.36514e-07
-2.94675e-08
1.57718e-07
-2.11989e-08
1.68887e-07
-1.11761e-08
1.71595e-07
-2.70154e-09
1.69039e-07
2.54938e-09
1.64391e-07
4.65523e-09
1.60504e-07
3.87486e-09
1.57529e-07
2.98706e-09
1.47897e-07
9.60484e-09
1.23079e-07
2.48225e-08
7.51307e-08
4.79019e-08
8.16372e-10
7.42848e-08
-9.51242e-08
9.58899e-08
-2.07741e-07
1.12584e-07
-3.33917e-07
1.26145e-07
-4.70433e-07
1.36487e-07
-6.13297e-07
1.4284e-07
-7.57412e-07
1.44085e-07
-8.98775e-07
1.4134e-07
-1.03572e-06
1.36916e-07
-1.16679e-06
1.31044e-07
-1.29025e-06
1.23425e-07
-1.4047e-06
1.14437e-07
-1.51033e-06
1.05602e-07
-1.6074e-06
9.70655e-08
-1.69647e-06
8.90491e-08
-1.7786e-06
8.21213e-08
-1.85428e-06
7.56691e-08
-1.92421e-06
6.99329e-08
-1.98911e-06
6.4888e-08
-2.04956e-06
6.04602e-08
-2.10613e-06
5.6565e-08
-2.15925e-06
5.31281e-08
-2.20933e-06
5.00759e-08
-2.25665e-06
4.73393e-08
-2.30152e-06
4.48619e-08
-2.3441e-06
4.25948e-08
-2.3846e-06
4.04958e-08
-2.42313e-06
3.85339e-08
-2.45981e-06
3.66801e-08
-2.49472e-06
3.49149e-08
-2.52793e-06
3.32171e-08
-2.55949e-06
3.15746e-08
-2.58946e-06
2.99736e-08
-2.61785e-06
2.84071e-08
-2.6447e-06
2.68637e-08
-2.67003e-06
2.534e-08
-2.69384e-06
2.38261e-08
-2.71614e-06
2.23201e-08
-2.73693e-06
2.0812e-08
-2.7562e-06
1.92983e-08
-2.77395e-06
1.77744e-08
-2.79016e-06
1.6233e-08
-2.80481e-06
1.46677e-08
-2.81787e-06
1.30714e-08
-2.82931e-06
1.14401e-08
-2.83907e-06
9.76552e-09
-2.84712e-06
8.03876e-09
-2.85338e-06
6.24894e-09
-2.85778e-06
4.38559e-09
-2.86025e-06
2.45676e-09
-2.86082e-06
5.41911e-10
-2.85968e-06
-1.16121e-09
-2.85705e-06
-2.64994e-09
-2.853e-06
-4.06487e-09
-2.84756e-06
-5.44859e-09
-2.84073e-06
-6.82024e-09
-2.83252e-06
-8.18517e-09
-2.82294e-06
-9.54462e-09
-2.812e-06
-1.08977e-08
-2.79971e-06
-1.22454e-08
-2.78608e-06
-1.35835e-08
-2.77111e-06
-1.49151e-08
-2.75482e-06
-1.62336e-08
-2.73723e-06
-1.75443e-08
-2.71834e-06
-1.8839e-08
-2.69818e-06
-2.01248e-08
-2.67675e-06
-2.13924e-08
-2.65407e-06
-2.26507e-08
-2.63016e-06
-2.38913e-08
-2.60502e-06
-2.51216e-08
-2.57867e-06
-2.63309e-08
-2.55112e-06
-2.7523e-08
-2.52238e-06
-2.86898e-08
-2.49249e-06
-2.98427e-08
-2.46145e-06
-3.09743e-08
-2.4293e-06
-3.20979e-08
-2.39605e-06
-3.31984e-08
-2.36174e-06
-3.42867e-08
-2.32637e-06
-3.53451e-08
-2.28998e-06
-3.63851e-08
-2.25257e-06
-3.73952e-08
-2.21421e-06
-3.83795e-08
-2.17488e-06
-3.93298e-08
-2.13467e-06
-4.0244e-08
-2.0936e-06
-4.10977e-08
-2.05175e-06
-4.19014e-08
-2.00919e-06
-4.26172e-08
-1.96597e-06
-4.33206e-08
-1.92198e-06
-4.41062e-08
-1.87724e-06
-4.48963e-08
-1.83184e-06
-4.55669e-08
-1.78585e-06
-4.61774e-08
-1.73931e-06
-4.67234e-08
-1.69228e-06
-4.72048e-08
-1.64483e-06
-4.76295e-08
-1.597e-06
-4.7996e-08
-1.54884e-06
-4.83124e-08
-1.50042e-06
-4.85747e-08
-1.45177e-06
-4.87906e-08
-1.40293e-06
-4.89562e-08
-1.35397e-06
-4.90802e-08
-1.30491e-06
-4.91587e-08
-1.2558e-06
-4.92e-08
-1.20667e-06
-4.91992e-08
-1.15756e-06
-4.9163e-08
-1.10851e-06
-4.90869e-08
-1.05955e-06
-4.8981e-08
-1.0107e-06
-4.88454e-08
-9.61998e-07
-4.86932e-08
-9.13441e-07
-4.85274e-08
-8.65029e-07
-4.83622e-08
-8.16764e-07
-4.82031e-08
-7.68617e-07
-4.80626e-08
-7.20576e-07
-4.79449e-08
-6.72598e-07
-4.78583e-08
-6.24667e-07
-4.78041e-08
-5.76732e-07
-4.77828e-08
-5.28783e-07
-4.77952e-08
-4.8076e-07
-4.78434e-08
-4.32655e-07
-4.79286e-08
-3.84406e-07
-4.80503e-08
-3.36009e-07
-4.82082e-08
-2.87418e-07
-4.83793e-08
-2.38676e-07
-4.85439e-08
-1.89786e-07
-4.86732e-08
-1.40926e-07
-4.86582e-08
-9.24595e-08
-4.82518e-08
-4.48962e-08
-4.73713e-08
7.22055e-11
-4.47748e-08
4.24975e-08
-4.2268e-08
-2.07323e-08
6.33452e-08
-3.52411e-09
1.13134e-08
-9.77378e-09
1.97357e-08
-1.30425e-08
1.80719e-08
-6.70728e-09
6.5543e-09
1.43962e-08
-1.4945e-08
4.99562e-08
-4.19518e-08
9.59e-08
-6.72166e-08
1.46901e-07
-8.51296e-08
1.97817e-07
-9.40908e-08
2.45282e-07
-9.50908e-08
2.87722e-07
-9.01185e-08
3.2438e-07
-8.12778e-08
3.55079e-07
-7.0225e-08
3.79993e-07
-5.80689e-08
3.99414e-07
-4.54902e-08
4.13724e-07
-3.28696e-08
4.23319e-07
-2.03894e-08
4.28737e-07
-8.15128e-09
4.30384e-07
3.87512e-09
4.28258e-07
1.57905e-08
4.2195e-07
2.75761e-08
4.10903e-07
3.9037e-08
3.94551e-07
4.97807e-08
3.72514e-07
5.92182e-08
3.44729e-07
6.65905e-08
3.11673e-07
7.10608e-08
2.74481e-07
7.18766e-08
2.3507e-07
6.86247e-08
1.96085e-07
6.13951e-08
1.60731e-07
5.07746e-08
1.32281e-07
3.75522e-08
1.13441e-07
2.23585e-08
1.05906e-07
5.5051e-09
1.09814e-07
-1.22837e-08
1.24157e-07
-3.0489e-08
1.45454e-07
-4.61233e-08
1.67322e-07
-5.36147e-08
1.83754e-07
-4.99244e-08
1.91514e-07
-3.72329e-08
1.89965e-07
-1.9647e-08
1.79598e-07
-8.151e-10
1.62569e-07
1.43323e-08
1.38916e-07
2.61893e-08
1.0129e-07
4.22872e-08
4.00709e-08
6.50742e-08
-5.21344e-08
9.51894e-08
-1.73601e-07
1.31055e-07
-3.15306e-07
1.66519e-07
-4.66931e-07
1.99512e-07
-6.21609e-07
2.2895e-07
-7.77554e-07
2.51821e-07
-9.32359e-07
2.67376e-07
-1.08245e-06
2.76222e-07
-1.22454e-06
2.78568e-07
-1.35615e-06
2.74435e-07
-1.47637e-06
2.64292e-07
-1.58482e-06
2.49768e-07
-1.68105e-06
2.33129e-07
-1.76575e-06
2.15736e-07
-1.84056e-06
1.98212e-07
-1.90731e-06
1.81168e-07
-1.96715e-06
1.65435e-07
-2.02135e-06
1.51255e-07
-2.07097e-06
1.38648e-07
-2.11655e-06
1.277e-07
-2.15899e-06
1.181e-07
-2.19878e-06
1.09725e-07
-2.23631e-06
1.02416e-07
-2.27186e-06
9.60065e-08
-2.30564e-06
9.0344e-08
-2.3378e-06
8.52957e-08
-2.36847e-06
8.07492e-08
-2.39774e-06
7.6608e-08
-2.42566e-06
7.27921e-08
-2.4523e-06
6.92367e-08
-2.47769e-06
6.58879e-08
-2.50186e-06
6.27041e-08
-2.52482e-06
5.96497e-08
-2.5466e-06
5.66978e-08
-2.5672e-06
5.38244e-08
-2.58663e-06
5.10126e-08
-2.6049e-06
4.82462e-08
-2.62199e-06
4.5514e-08
-2.63793e-06
4.28046e-08
-2.65269e-06
4.01109e-08
-2.66627e-06
3.74232e-08
-2.67867e-06
3.47363e-08
-2.68989e-06
3.20405e-08
-2.6999e-06
2.93334e-08
-2.70872e-06
2.66078e-08
-2.71633e-06
2.38603e-08
-2.72274e-06
2.10847e-08
-2.72794e-06
1.82792e-08
-2.73195e-06
1.54442e-08
-2.73477e-06
1.25828e-08
-2.73643e-06
9.69891e-09
-2.737e-06
6.80256e-09
-2.73654e-06
3.91161e-09
-2.73516e-06
1.06011e-09
-2.73292e-06
-1.72099e-09
-2.72963e-06
-4.46194e-09
-2.72509e-06
-7.20506e-09
-2.71923e-06
-9.93759e-09
-2.71202e-06
-1.26568e-08
-2.70346e-06
-1.53641e-08
-2.69357e-06
-1.80617e-08
-2.68234e-06
-2.07479e-08
-2.66978e-06
-2.34222e-08
-2.65591e-06
-2.60815e-08
-2.64073e-06
-2.8724e-08
-2.62426e-06
-3.13471e-08
-2.60651e-06
-3.39486e-08
-2.58749e-06
-3.65274e-08
-2.56721e-06
-3.90807e-08
-2.5457e-06
-4.16084e-08
-2.52296e-06
-4.41079e-08
-2.499e-06
-4.65807e-08
-2.47386e-06
-4.90259e-08
-2.44752e-06
-5.14431e-08
-2.42002e-06
-5.38255e-08
-2.39135e-06
-5.61712e-08
-2.36152e-06
-5.84766e-08
-2.33057e-06
-6.07475e-08
-2.29852e-06
-6.29849e-08
-2.26538e-06
-6.5193e-08
-2.23119e-06
-6.73648e-08
-2.19595e-06
-6.94996e-08
-2.15969e-06
-7.15882e-08
-2.12243e-06
-7.36308e-08
-2.08421e-06
-7.56206e-08
-2.04503e-06
-7.75568e-08
-2.00494e-06
-7.943e-08
-1.96396e-06
-8.12352e-08
-1.92212e-06
-8.29583e-08
-1.87945e-06
-8.46051e-08
-1.83594e-06
-8.61761e-08
-1.79162e-06
-8.76995e-08
-1.74661e-06
-8.91986e-08
-1.70098e-06
-9.06261e-08
-1.65474e-06
-9.19288e-08
-1.60793e-06
-9.31149e-08
-1.56059e-06
-9.41823e-08
-1.51278e-06
-9.51283e-08
-1.46456e-06
-9.59625e-08
-1.41598e-06
-9.66847e-08
-1.36709e-06
-9.73045e-08
-1.31794e-06
-9.78201e-08
-1.26858e-06
-9.82404e-08
-1.21905e-06
-9.85655e-08
-1.1694e-06
-9.88044e-08
-1.11967e-06
-9.896e-08
-1.06988e-06
-9.90392e-08
-1.02008e-06
-9.90449e-08
-9.70294e-07
-9.89789e-08
-9.20557e-07
-9.88458e-08
-8.70895e-07
-9.86508e-08
-8.21331e-07
-9.8409e-08
-7.71877e-07
-9.81304e-08
-7.22544e-07
-9.78369e-08
-6.73326e-07
-9.75402e-08
-6.24215e-07
-9.72668e-08
-5.75188e-07
-9.70257e-08
-5.26222e-07
-9.6841e-08
-4.77276e-07
-9.67148e-08
-4.28323e-07
-9.66642e-08
-3.79317e-07
-9.66776e-08
-3.30229e-07
-9.67691e-08
-2.81011e-07
-9.69307e-08
-2.31634e-07
-9.71759e-08
-1.82045e-07
-9.74937e-08
-1.32221e-07
-9.78925e-08
-8.21213e-08
-9.83249e-08
-3.17762e-08
-9.87428e-08
1.87317e-08
-9.90243e-08
6.92554e-08
-9.90359e-08
1.19666e-07
-9.85118e-08
1.69527e-07
-9.70956e-08
2.18598e-07
-9.37117e-08
2.63647e-07
-8.72026e-08
-6.48349e-08
3.07844e-07
2.90823e-10
1.10251e-08
3.51914e-09
1.65142e-08
1.69668e-08
4.62763e-09
4.84582e-08
-2.49322e-08
9.7208e-08
-6.36941e-08
1.54346e-07
-9.90864e-08
2.10194e-07
-1.23065e-07
2.59016e-07
-1.33948e-07
2.98878e-07
-1.33953e-07
3.30253e-07
-1.26462e-07
3.54592e-07
-1.14458e-07
3.73388e-07
-1.00071e-07
3.87804e-07
-8.46421e-08
3.98673e-07
-6.89354e-08
4.06539e-07
-5.33575e-08
4.11785e-07
-3.81132e-08
4.14688e-07
-2.32942e-08
4.15486e-07
-8.9487e-09
4.14453e-07
4.90617e-09
4.1194e-07
1.83041e-08
4.08218e-07
3.12963e-08
4.03373e-07
4.38826e-08
3.97195e-07
5.59561e-08
3.89173e-07
6.72415e-08
3.78519e-07
7.72422e-08
3.64369e-07
8.52112e-08
3.46056e-07
9.01875e-08
3.23548e-07
9.11332e-08
2.97757e-07
8.71822e-08
2.70678e-07
7.78528e-08
2.4503e-07
6.31945e-08
2.23578e-07
4.38078e-08
2.08263e-07
2.08113e-08
2.00006e-07
-4.03187e-09
1.96333e-07
-2.68254e-08
1.90723e-07
-4.05149e-08
1.7732e-07
-4.02172e-08
1.54728e-07
-2.73328e-08
1.23887e-07
-6.39687e-09
8.47098e-08
1.95323e-08
3.39633e-08
4.99244e-08
-3.49565e-08
8.32503e-08
-1.27699e-07
1.18925e-07
-2.44291e-07
1.58875e-07
-3.80949e-07
2.01728e-07
-5.30216e-07
2.44453e-07
-6.83207e-07
2.8404e-07
-8.34362e-07
3.17669e-07
-9.78516e-07
3.4366e-07
-1.11131e-06
3.61733e-07
-1.231e-06
3.71509e-07
-1.33703e-06
3.734e-07
-1.42912e-06
3.68304e-07
-1.50785e-06
3.57283e-07
-1.57491e-06
3.41491e-07
-1.63289e-06
3.22259e-07
-1.68419e-06
3.01062e-07
-1.73042e-06
2.79337e-07
-1.77279e-06
2.58095e-07
-1.81251e-06
2.37927e-07
-1.85054e-06
2.19185e-07
-1.88729e-06
2.02168e-07
-1.92299e-06
1.86954e-07
-1.95781e-06
1.73455e-07
-1.99168e-06
1.61561e-07
-2.02465e-06
1.51066e-07
-2.05672e-06
1.41791e-07
-2.08787e-06
1.33566e-07
-2.11809e-06
1.26224e-07
-2.14736e-06
1.19614e-07
-2.17567e-06
1.13604e-07
-2.203e-06
1.08086e-07
-2.22935e-06
1.02965e-07
-2.25472e-06
9.81633e-08
-2.2791e-06
9.36156e-08
-2.30248e-06
8.92692e-08
-2.32485e-06
8.50819e-08
-2.34621e-06
8.10185e-08
-2.36656e-06
7.7051e-08
-2.38589e-06
7.3156e-08
-2.40418e-06
6.9315e-08
-2.42144e-06
6.55122e-08
-2.43766e-06
6.1735e-08
-2.45282e-06
5.79723e-08
-2.46692e-06
5.42155e-08
-2.47994e-06
5.04558e-08
-2.49188e-06
4.66867e-08
-2.50273e-06
4.29002e-08
-2.51248e-06
3.9092e-08
-2.52112e-06
3.52579e-08
-2.52865e-06
3.13934e-08
-2.53505e-06
2.74952e-08
-2.54034e-06
2.3562e-08
-2.54449e-06
1.95981e-08
-2.54752e-06
1.56077e-08
-2.54943e-06
1.15994e-08
-2.55022e-06
7.58122e-09
-2.54989e-06
3.56816e-09
-2.54842e-06
-4.29447e-10
-2.54574e-06
-4.41083e-09
-2.54182e-06
-8.40205e-09
-2.53662e-06
-1.24114e-08
-2.53013e-06
-1.64255e-08
-2.52235e-06
-2.0434e-08
-2.51327e-06
-2.44329e-08
-2.5029e-06
-2.84191e-08
-2.49123e-06
-3.23886e-08
-2.47829e-06
-3.63391e-08
-2.46408e-06
-4.02651e-08
-2.44861e-06
-4.4165e-08
-2.43189e-06
-4.80334e-08
-2.41394e-06
-5.187e-08
-2.39477e-06
-5.56701e-08
-2.37439e-06
-5.94342e-08
-2.35282e-06
-6.31582e-08
-2.33006e-06
-6.68434e-08
-2.30614e-06
-7.04876e-08
-2.28107e-06
-7.4093e-08
-2.25485e-06
-7.76549e-08
-2.22749e-06
-8.11697e-08
-2.19901e-06
-8.46319e-08
-2.16942e-06
-8.80418e-08
-2.13873e-06
-9.14004e-08
-2.10697e-06
-9.4713e-08
-2.07416e-06
-9.7977e-08
-2.04032e-06
-1.0119e-07
-2.00545e-06
-1.04344e-07
-1.9696e-06
-1.07435e-07
-1.93277e-06
-1.10454e-07
-1.89499e-06
-1.134e-07
-1.85628e-06
-1.16264e-07
-1.81667e-06
-1.19041e-07
-1.7762e-06
-1.2172e-07
-1.73488e-06
-1.24291e-07
-1.69276e-06
-1.26752e-07
-1.64985e-06
-1.29114e-07
-1.60621e-06
-1.31382e-07
-1.56192e-06
-1.33557e-07
-1.51701e-06
-1.35607e-07
-1.47151e-06
-1.37502e-07
-1.42547e-06
-1.39233e-07
-1.37892e-06
-1.40794e-07
-1.33193e-06
-1.42185e-07
-1.28453e-06
-1.4341e-07
-1.23679e-06
-1.44474e-07
-1.18876e-06
-1.45383e-07
-1.14048e-06
-1.46142e-07
-1.092e-06
-1.46757e-07
-1.04336e-06
-1.47236e-07
-9.94604e-07
-1.47586e-07
-9.45767e-07
-1.47818e-07
-8.96883e-07
-1.4794e-07
-8.4798e-07
-1.47959e-07
-7.99087e-07
-1.47879e-07
-7.50228e-07
-1.47707e-07
-7.01428e-07
-1.4745e-07
-6.52702e-07
-1.47129e-07
-6.04063e-07
-1.46762e-07
-5.55511e-07
-1.46376e-07
-5.07042e-07
-1.45995e-07
-4.58643e-07
-1.45648e-07
-4.10291e-07
-1.45359e-07
-3.61956e-07
-1.45154e-07
-3.13603e-07
-1.45045e-07
-2.65194e-07
-1.45049e-07
-2.16687e-07
-1.4516e-07
-1.68044e-07
-1.45386e-07
-1.19223e-07
-1.45728e-07
-7.01825e-08
-1.46193e-07
-2.08855e-08
-1.46769e-07
2.86891e-08
-1.47447e-07
7.85733e-08
-1.48192e-07
1.28796e-07
-1.48952e-07
1.79366e-07
-1.49583e-07
2.30222e-07
-1.49882e-07
2.81224e-07
-1.49507e-07
3.32087e-07
-1.47953e-07
3.8255e-07
-1.4417e-07
4.317e-07
-1.36352e-07
-1.15775e-07
4.82632e-07
-1.14214e-10
1.11425e-08
1.18903e-08
4.51769e-09
4.93229e-08
-3.28029e-08
1.09037e-07
-8.46425e-08
1.74837e-07
-1.29495e-07
2.32567e-07
-1.56814e-07
2.76126e-07
-1.66623e-07
3.05924e-07
-1.63744e-07
3.25257e-07
-1.53286e-07
3.3769e-07
-1.38893e-07
3.45908e-07
-1.22676e-07
3.51568e-07
-1.05728e-07
3.55527e-07
-8.8601e-08
3.58176e-07
-7.15824e-08
3.59651e-07
-5.48334e-08
3.59997e-07
-3.84576e-08
3.5923e-07
-2.25283e-08
3.57388e-07
-7.10575e-09
3.54532e-07
7.75983e-09
3.50793e-07
2.2044e-08
3.46364e-07
3.57224e-08
3.41481e-07
4.87652e-08
3.36322e-07
6.11125e-08
3.30938e-07
7.26241e-08
3.25136e-07
8.30401e-08
3.18471e-07
9.18734e-08
3.10259e-07
9.83941e-08
2.99768e-07
1.01621e-07
2.86526e-07
1.00417e-07
2.70608e-07
9.37652e-08
2.52777e-07
8.10161e-08
2.34305e-07
6.22731e-08
2.16271e-07
3.88346e-08
1.9721e-07
1.50223e-08
1.70867e-07
-4.9065e-10
1.32404e-07
-2.05445e-09
8.22326e-08
9.94769e-09
2.09426e-08
3.39567e-08
-5.36442e-08
6.8185e-08
-1.44087e-07
1.09974e-07
-2.50802e-07
1.56636e-07
-3.72785e-07
2.05231e-07
-5.07203e-07
2.5334e-07
-6.47791e-07
2.99461e-07
-7.88129e-07
3.42062e-07
-9.22268e-07
3.7859e-07
-1.04495e-06
4.06714e-07
-1.15334e-06
4.26062e-07
-1.24659e-06
4.36898e-07
-1.3246e-06
4.39738e-07
-1.38867e-06
4.35583e-07
-1.44084e-06
4.25562e-07
-1.48344e-06
4.10897e-07
-1.51894e-06
3.9278e-07
-1.54978e-06
3.72318e-07
-1.57807e-06
3.50547e-07
-1.60542e-06
3.28398e-07
-1.63273e-06
3.06643e-07
-1.66048e-06
2.85831e-07
-1.68886e-06
2.66302e-07
-1.71793e-06
2.48242e-07
-1.74753e-06
2.31758e-07
-1.77744e-06
2.16853e-07
-1.80744e-06
2.03448e-07
-1.83731e-06
1.9143e-07
-1.8669e-06
1.80646e-07
-1.89605e-06
1.70945e-07
-1.92467e-06
1.62178e-07
-1.95265e-06
1.54204e-07
-1.97993e-06
1.46892e-07
-2.00645e-06
1.40127e-07
-2.03217e-06
1.33809e-07
-2.05705e-06
1.27854e-07
-2.08107e-06
1.2219e-07
-2.10421e-06
1.16758e-07
-2.12645e-06
1.11508e-07
-2.14776e-06
1.064e-07
-2.16814e-06
1.01401e-07
-2.18757e-06
9.6486e-08
-2.20604e-06
9.16311e-08
-2.22354e-06
8.68189e-08
-2.24006e-06
8.20339e-08
-2.25558e-06
7.72634e-08
-2.2701e-06
7.24966e-08
-2.2836e-06
6.77243e-08
-2.29608e-06
6.29384e-08
-2.30752e-06
5.81314e-08
-2.31791e-06
5.32967e-08
-2.32724e-06
4.84291e-08
-2.3355e-06
4.35246e-08
-2.34268e-06
3.85789e-08
-2.34878e-06
3.3589e-08
-2.35377e-06
2.85542e-08
-2.35766e-06
2.3478e-08
-2.36042e-06
1.83648e-08
-2.36206e-06
1.32213e-08
-2.36254e-06
8.05386e-09
-2.36186e-06
2.87118e-09
-2.35997e-06
-2.3234e-09
-2.35687e-06
-7.53092e-09
-2.35251e-06
-1.27614e-08
-2.34692e-06
-1.80119e-08
-2.34007e-06
-2.32714e-08
-2.33197e-06
-2.85281e-08
-2.32261e-06
-3.37755e-08
-2.31201e-06
-3.90067e-08
-2.30016e-06
-4.4216e-08
-2.28708e-06
-4.9398e-08
-2.27277e-06
-5.45467e-08
-2.25725e-06
-5.96587e-08
-2.24053e-06
-6.47281e-08
-2.22262e-06
-6.97542e-08
-2.20354e-06
-7.47316e-08
-2.18329e-06
-7.96613e-08
-2.16189e-06
-8.45384e-08
-2.13936e-06
-8.93652e-08
-2.1157e-06
-9.41392e-08
-2.09092e-06
-9.88622e-08
-2.06505e-06
-1.03528e-07