/*--------------------------------*- C++ -*----------------------------------*\
  =========                 |
  \\      /  F ield         | OpenFOAM: The Open Source CFD Toolbox
   \\    /   O peration     | Website:  https://openfoam.org
    \\  /    A nd           | Version:  13
     \\/     M anipulation  |
\*---------------------------------------------------------------------------*/
FoamFile
{
    format      ascii;
    class       volVectorField;
    location    "500";
    object      U;
}
// * * * * * * * * * * * * * * * * * * * * * * * * * * * * * * * * * * * * * //

dimensions      [0 1 -1 0 0 0 0];

internalField   nonuniform List<vector> 
12225
(
(9.80163 0.0469658 0)
(9.37198 0.0942363 0)
(8.95377 0.101543 0)
(8.57036 0.0932527 0)
(8.22787 0.0881762 0)
(7.93415 0.0922318 0)
(7.66961 0.0931711 0)
(7.4373 0.0781028 0)
(7.25512 0.0495283 0)
(7.10236 0.0259204 0)
(6.9779 0.0192694 0)
(6.86503 0.0110274 0)
(6.77175 -0.00248848 0)
(6.69043 0.00106936 0)
(6.62006 0.00953882 0)
(6.55538 0.00709842 0)
(6.5023 -0.000458332 0)
(6.47047 0.0104041 0)
(10.061 0.051994 0)
(10.2178 0.0813837 0)
(10.2982 0.0800755 0)
(10.3179 0.0786346 0)
(10.3047 0.0766907 0)
(10.2569 0.0725975 0)
(10.1829 0.0678304 0)
(10.0956 0.0652385 0)
(9.99597 0.0650949 0)
(9.90683 0.0620098 0)
(9.82105 0.0562731 0)
(9.73646 0.0533404 0)
(9.65707 0.0517806 0)
(9.58167 0.0460349 0)
(9.50519 0.0392158 0)
(9.43258 0.0353074 0)
(9.36511 0.0305219 0)
(9.29958 0.0212677 0)
(10.0215 0.0409347 0)
(10.0711 0.0678327 0)
(10.1226 0.0706431 0)
(10.1574 0.0745162 0)
(10.187 0.0788978 0)
(10.2143 0.0821904 0)
(10.2393 0.0838055 0)
(10.2593 0.0813827 0)
(10.2707 0.0758631 0)
(10.2751 0.0715665 0)
(10.2745 0.0699211 0)
(10.2715 0.0674943 0)
(10.2641 0.0640044 0)
(10.2541 0.0627132 0)
(10.2437 0.0628553 0)
(10.2327 0.0604038 0)
(10.2203 0.0545825 0)
(10.2057 0.048386 0)
(10.0093 0.0315675 0)
(10.0396 0.0547675 0)
(10.0717 0.0630865 0)
(10.0932 0.068331 0)
(10.1107 0.0724905 0)
(10.1281 0.075103 0)
(10.1455 0.0756529 0)
(10.1626 0.0734799 0)
(10.1768 0.0688458 0)
(10.1878 0.064069 0)
(10.1976 0.0612233 0)
(10.2073 0.0588443 0)
(10.2162 0.0563306 0)
(10.2246 0.0548068 0)
(10.2335 0.0537047 0)
(10.2428 0.0510926 0)
(10.2505 0.0468108 0)
(10.2573 0.0419669 0)
(10.0046 0.0247983 0)
(10.0289 0.0481744 0)
(10.0536 0.0582392 0)
(10.0713 0.0634752 0)
(10.0856 0.0673668 0)
(10.0994 0.0699097 0)
(10.1131 0.0706366 0)
(10.126 0.0691835 0)
(10.1371 0.0659151 0)
(10.1455 0.0623835 0)
(10.1525 0.0597312 0)
(10.1592 0.057319 0)
(10.1654 0.0549087 0)
(10.1713 0.0530104 0)
(10.1777 0.0512858 0)
(10.1847 0.0485869 0)
(10.1908 0.0447044 0)
(10.1966 0.0403894 0)
(10.0032 0.0200275 0)
(10.0223 0.0421427 0)
(10.0427 0.0529218 0)
(10.0588 0.0586853 0)
(10.0723 0.0629647 0)
(10.0851 0.0656842 0)
(10.0976 0.0664828 0)
(10.109 0.0652594 0)
(10.1187 0.0625623 0)
(10.1266 0.0594992 0)
(10.1333 0.0568591 0)
(10.1395 0.054378 0)
(10.1451 0.0519009 0)
(10.1505 0.0497335 0)
(10.156 0.0476465 0)
(10.1617 0.0448697 0)
(10.1668 0.0412855 0)
(10.1715 0.0373348 0)
(10.0024 0.016521 0)
(10.0171 0.0367218 0)
(10.0345 0.0476194 0)
(10.0495 0.0538904 0)
(10.0624 0.0584943 0)
(10.0748 0.061326 0)
(10.0866 0.0621916 0)
(10.0974 0.06122 0)
(10.1065 0.0590052 0)
(10.1141 0.0564329 0)
(10.1208 0.0540247 0)
(10.1269 0.0516834 0)
(10.1325 0.0493687 0)
(10.1378 0.0472125 0)
(10.1431 0.0449983 0)
(10.1483 0.0422913 0)
(10.153 0.0390358 0)
(10.1573 0.0354815 0)
(10.0018 0.0136166 0)
(10.0132 0.0318067 0)
(10.0281 0.042696 0)
(10.0418 0.0492011 0)
(10.0541 0.0538114 0)
(10.0659 0.0566614 0)
(10.0772 0.057687 0)
(10.0876 0.0570987 0)
(10.0965 0.0553713 0)
(10.1041 0.0531968 0)
(10.1108 0.0510133 0)
(10.117 0.0488287 0)
(10.1226 0.0466197 0)
(10.1278 0.044413 0)
(10.1329 0.042104 0)
(10.1378 0.03945 0)
(10.1422 0.036411 0)
(10.1462 0.0331517 0)
(10.0013 0.0112344 0)
(10.0101 0.0275087 0)
(10.0228 0.038066 0)
(10.0354 0.0445119 0)
(10.0468 0.0489952 0)
(10.058 0.0518364 0)
(10.0688 0.0530114 0)
(10.0787 0.0527373 0)
(10.0875 0.0514682 0)
(10.0952 0.049713 0)
(10.102 0.0477838 0)
(10.1082 0.0457536 0)
(10.1138 0.0436535 0)
(10.1191 0.0414987 0)
(10.1241 0.0392089 0)
(10.1288 0.0366628 0)
(10.133 0.0338296 0)
(10.1369 0.030858 0)
(10.001 0.00931582 0)
(10.0078 0.0236483 0)
(10.0186 0.0336558 0)
(10.03 0.0399374 0)
(10.0406 0.0442563 0)
(10.051 0.0470291 0)
(10.0612 0.0483086 0)
(10.0708 0.0483032 0)
(10.0794 0.0473847 0)
(10.087 0.0459491 0)
(10.0939 0.0442515 0)
(10.1001 0.0423876 0)
(10.1058 0.0404082 0)
(10.1112 0.0383303 0)
(10.1161 0.0361143 0)
(10.1207 0.0336976 0)
(10.1248 0.0310764 0)
(10.1286 0.0283676 0)
(10.0007 0.0077594 0)
(10.0061 0.0202154 0)
(10.0153 0.0294872 0)
(10.0255 0.0355063 0)
(10.0353 0.0396114 0)
(10.045 0.0422547 0)
(10.0545 0.0435476 0)
(10.0635 0.0437087 0)
(10.0719 0.043051 0)
(10.0794 0.0418802 0)
(10.0863 0.0404017 0)
(10.0926 0.0387165 0)
(10.0983 0.0368838 0)
(10.1037 0.0349268 0)
(10.1086 0.032832 0)
(10.1131 0.0305802 0)
(10.1172 0.0281746 0)
(10.1209 0.0257168 0)
(10.0006 0.00654118 0)
(10.005 0.017426 0)
(10.0129 0.025884 0)
(10.0221 0.0315342 0)
(10.0312 0.0353692 0)
(10.0402 0.0378422 0)
(10.0491 0.0390999 0)
(10.0576 0.0393533 0)
(10.0656 0.0388741 0)
(10.0729 0.0379078 0)
(10.0797 0.0366194 0)
(10.086 0.0351041 0)
(10.0917 0.0334235 0)
(10.097 0.0316053 0)
(10.102 0.0296524 0)
(10.1065 0.0275693 0)
(10.1105 0.0253655 0)
(10.1142 0.0231343 0)
(10.0005 0.00550966 0)
(10.0041 0.0148123 0)
(10.0109 0.0224011 0)
(10.0191 0.0276513 0)
(10.0276 0.0312401 0)
(10.036 0.033565 0)
(10.0443 0.0347808 0)
(10.0524 0.035083 0)
(10.06 0.0347084 0)
(10.0671 0.0338695 0)
(10.0736 0.0327126 0)
(10.0798 0.0313314 0)
(10.0855 0.0297836 0)
(10.0907 0.0281012 0)
(10.0956 0.026297 0)
(10.1 0.0243866 0)
(10.104 0.022382 0)
(10.1077 0.0203703 0)
(10.0004 0.00451789 0)
(10.0034 0.0122015 0)
(10.0091 0.0187174 0)
(10.0164 0.0233809 0)
(10.024 0.0265948 0)
(10.0318 0.0286843 0)
(10.0395 0.0298033 0)
(10.0471 0.0301204 0)
(10.0543 0.0298316 0)
(10.061 0.0291131 0)
(10.0674 0.0280923 0)
(10.0733 0.0268537 0)
(10.0788 0.0254517 0)
(10.0839 0.0239225 0)
(10.0886 0.0222875 0)
(10.093 0.020569 0)
(10.0969 0.0187803 0)
(10.1006 0.0170026 0)
(10.0003 0.00353936 0)
(10.0028 0.00956393 0)
(10.0076 0.0148321 0)
(10.0139 0.0187267 0)
(10.0208 0.0214381 0)
(10.0279 0.0232037 0)
(10.035 0.0241623 0)
(10.042 0.0244511 0)
(10.0488 0.0242191 0)
(10.0552 0.0236056 0)
(10.0612 0.0227147 0)
(10.0668 0.0216204 0)
(10.0721 0.0203754 0)
(10.077 0.0190147 0)
(10.0816 0.0175663 0)
(10.0858 0.0160522 0)
(10.0896 0.0144919 0)
(10.0932 0.012954 0)
(10.0003 0.00255878 0)
(10.0023 0.00688721 0)
(10.0064 0.0107623 0)
(10.0118 0.0137094 0)
(10.018 0.0157788 0)
(10.0244 0.0171167 0)
(10.031 0.0178313 0)
(10.0374 0.0180247 0)
(10.0437 0.0178027 0)
(10.0497 0.0172651 0)
(10.0554 0.0164929 0)
(10.0608 0.0155455 0)
(10.0658 0.0144672 0)
(10.0705 0.0132918 0)
(10.0749 0.0120464 0)
(10.0789 0.0107546 0)
(10.0826 0.00943175 0)
(10.086 0.0081419 0)
(10.0002 0.0015601 0)
(10.002 0.00412853 0)
(10.0055 0.00648601 0)
(10.0102 0.00831174 0)
(10.0157 0.00958812 0)
(10.0216 0.01038 0)
(10.0276 0.0107525 0)
(10.0336 0.0107701 0)
(10.0394 0.0104966 0)
(10.0451 0.00999581 0)
(10.0505 0.00932057 0)
(10.0556 0.00851387 0)
(10.0604 0.00760817 0)
(10.0649 0.00663195 0)
(10.069 0.00560648 0)
(10.0729 0.00455282 0)
(10.0765 0.00348253 0)
(10.0798 0.00244759 0)
(10.0002 0.00050813 0)
(10.0018 0.00118162 0)
(10.0049 0.00188136 0)
(10.0092 0.00241298 0)
(10.0143 0.00273436 0)
(10.0197 0.00284806 0)
(10.0253 0.00276882 0)
(10.031 0.00252064 0)
(10.0365 0.00212711 0)
(10.0418 0.00161494 0)
(10.047 0.00100864 0)
(10.0518 0.00032979 0)
(10.0564 -0.000402698 0)
(10.0607 -0.00117254 0)
(10.0648 -0.00196494 0)
(10.0685 -0.00276697 0)
(10.072 -0.00356968 0)
(10.0753 -0.00433745 0)
(10.0002 -0.000682359 0)
(10.0018 -0.00220023 0)
(10.0048 -0.00336841 0)
(10.0091 -0.00431609 0)
(10.0141 -0.00509691 0)
(10.0194 -0.00577594 0)
(10.0248 -0.0063945 0)
(10.0303 -0.00697489 0)
(10.0357 -0.00753706 0)
(10.0409 -0.00809265 0)
(10.0459 -0.0086501 0)
(10.0506 -0.0092105 0)
(10.0551 -0.00977335 0)
(10.0593 -0.010335 0)
(10.0632 -0.0108907 0)
(10.0669 -0.0114358 0)
(10.0704 -0.0119653 0)
(10.0736 -0.0124619 0)
(10.0002 -0.00187416 0)
(10.002 -0.00561886 0)
(10.0055 -0.00860392 0)
(10.0103 -0.0109426 0)
(10.0156 -0.0127306 0)
(10.0212 -0.0141169 0)
(10.0269 -0.0152005 0)
(10.0325 -0.0160519 0)
(10.038 -0.0167339 0)
(10.0433 -0.017301 0)
(10.0483 -0.0177904 0)
(10.0531 -0.0182281 0)
(10.0576 -0.0186279 0)
(10.0618 -0.0189981 0)
(10.0658 -0.0193425 0)
(10.0695 -0.0196609 0)
(10.0729 -0.0199539 0)
(10.0762 -0.0202164 0)
(10.0003 -0.00299914 0)
(10.0025 -0.00884799 0)
(10.0067 -0.0134095 0)
(10.0122 -0.0168388 0)
(10.0181 -0.0193629 0)
(10.0242 -0.0212352 0)
(10.0303 -0.0226106 0)
(10.0363 -0.0235957 0)
(10.042 -0.0242967 0)
(10.0475 -0.0248102 0)
(10.0527 -0.0251985 0)
(10.0575 -0.0255052 0)
(10.0621 -0.0257545 0)
(10.0664 -0.0259631 0)
(10.0704 -0.026137 0)
(10.0742 -0.0262788 0)
(10.0777 -0.0263858 0)
(10.0809 -0.0264653 0)
(10.0004 -0.00422683 0)
(10.0032 -0.0123516 0)
(10.0085 -0.0184342 0)
(10.015 -0.0227554 0)
(10.0219 -0.0258205 0)
(10.0286 -0.0280249 0)
(10.0352 -0.0295575 0)
(10.0417 -0.0305602 0)
(10.0477 -0.0311951 0)
(10.0534 -0.0315904 0)
(10.0587 -0.0318386 0)
(10.0637 -0.0319937 0)
(10.0684 -0.0320932 0)
(10.0727 -0.0321542 0)
(10.0768 -0.0321818 0)
(10.0806 -0.0321793 0)
(10.0842 -0.0321312 0)
(10.0875 -0.0320652 0)
(10.0005 -0.00568192 0)
(10.0042 -0.0163954 0)
(10.0111 -0.0238531 0)
(10.019 -0.0287686 0)
(10.0268 -0.0321894 0)
(10.0343 -0.0345636 0)
(10.0415 -0.0361102 0)
(10.0483 -0.0369903 0)
(10.0547 -0.0374586 0)
(10.0606 -0.0376674 0)
(10.0661 -0.0377252 0)
(10.0711 -0.0377051 0)
(10.0758 -0.0376457 0)
(10.0802 -0.0375646 0)
(10.0843 -0.037465 0)
(10.0881 -0.0373401 0)
(10.0917 -0.0371687 0)
(10.0951 -0.0369909 0)
(10.0009 -0.00745411 0)
(10.0057 -0.0209667 0)
(10.0147 -0.0294322 0)
(10.0242 -0.0345673 0)
(10.0328 -0.0381397 0)
(10.0409 -0.0405642 0)
(10.0487 -0.0419923 0)
(10.0559 -0.0426823 0)
(10.0626 -0.0429151 0)
(10.0686 -0.0429104 0)
(10.0742 -0.042769 0)
(10.0793 -0.0425711 0)
(10.0839 -0.0423647 0)
(10.0883 -0.0421706 0)
(10.0924 -0.0419885 0)
(10.0962 -0.0418084 0)
(10.0999 -0.0415933 0)
(10.1033 -0.0414052 0)
(10.0015 -0.00947897 0)
(10.0079 -0.026314 0)
(10.0195 -0.0353403 0)
(10.0304 -0.0403109 0)
(10.0397 -0.0436993 0)
(10.0484 -0.046034 0)
(10.0566 -0.0472679 0)
(10.0642 -0.0477691 0)
(10.0711 -0.047813 0)
(10.0773 -0.0475079 0)
(10.0829 -0.0471343 0)
(10.0879 -0.0467434 0)
(10.0926 -0.0464086 0)
(10.0971 -0.0461003 0)
(10.1012 -0.0458234 0)
(10.1052 -0.0455684 0)
(10.1089 -0.0452823 0)
(10.1125 -0.0450645 0)
(10.002 -0.01226 0)
(10.012 -0.0320394 0)
(10.0256 -0.041589 0)
(10.0375 -0.0471475 0)
(10.0473 -0.0506982 0)
(10.0565 -0.0526884 0)
(10.0651 -0.0533136 0)
(10.073 -0.0531995 0)
(10.08 -0.0527972 0)
(10.0863 -0.0522059 0)
(10.0922 -0.0515955 0)
(10.0977 -0.0510761 0)
(10.103 -0.0506171 0)
(10.108 -0.0502817 0)
(10.1128 -0.0500221 0)
(10.1173 -0.0498131 0)
(10.1217 -0.0495958 0)
(10.1258 -0.0494705 0)
(10.002 -0.0163664 0)
(10.0191 -0.0361959 0)
(10.0329 -0.044311 0)
(10.0444 -0.0500758 0)
(10.0551 -0.0546938 0)
(10.0652 -0.0571866 0)
(10.0751 -0.0579379 0)
(10.0845 -0.057792 0)
(10.0932 -0.0570471 0)
(10.1018 -0.0561177 0)
(10.1104 -0.0551558 0)
(10.1192 -0.054401 0)
(10.1273 -0.0537365 0)
(10.135 -0.0530984 0)
(10.1424 -0.0526217 0)
(10.1492 -0.0522478 0)
(10.1557 -0.0519704 0)
(10.1615 -0.0519007 0)
(10.0029 -0.027736 0)
(10.0295 -0.0446363 0)
(10.0546 -0.0485691 0)
(10.076 -0.0522939 0)
(10.1014 -0.0565402 0)
(10.1278 -0.0594248 0)
(10.1544 -0.0609347 0)
(10.18 -0.0617358 0)
(10.2031 -0.0621562 0)
(10.223 -0.0622217 0)
(10.2393 -0.0620167 0)
(10.252 -0.0616031 0)
(10.2619 -0.0611506 0)
(10.2694 -0.060731 0)
(10.2748 -0.0603592 0)
(10.2787 -0.060121 0)
(10.2817 -0.0599772 0)
(10.2838 -0.0602668 0)
(10.0573 -0.0377705 0)
(10.1866 -0.0696585 0)
(10.2951 -0.0767469 0)
(10.3743 -0.0798778 0)
(10.4265 -0.081592 0)
(10.4601 -0.0809556 0)
(10.4727 -0.0787862 0)
(10.4634 -0.0757703 0)
(10.4376 -0.0723077 0)
(10.4029 -0.0688521 0)
(10.3608 -0.0656576 0)
(10.313 -0.0627189 0)
(10.2632 -0.0600847 0)
(10.2132 -0.0579032 0)
(10.1635 -0.0561166 0)
(10.1156 -0.0545643 0)
(10.0704 -0.0534904 0)
(10.0267 -0.0535805 0)
(9.86185 -0.038276 0)
(9.59104 -0.0731642 0)
(9.2968 -0.0870636 0)
(8.99514 -0.0906994 0)
(8.71012 -0.0885532 0)
(8.45019 -0.0823564 0)
(8.22112 -0.0736453 0)
(8.0244 -0.0640723 0)
(7.85727 -0.0552511 0)
(7.71229 -0.0474609 0)
(7.58854 -0.0401603 0)
(7.48295 -0.0339613 0)
(7.3905 -0.0290598 0)
(7.30803 -0.0250665 0)
(7.23425 -0.0219988 0)
(7.16619 -0.0198627 0)
(7.10162 -0.0181473 0)
(7.04179 -0.0172754 0)
(-0.00257098 0.0071548 -1.02631e-18)
(-0.012265 0.0120101 1.13875e-18)
(-0.0254836 0.0132191 0)
(-0.0395036 0.0115526 0)
(-0.0499136 0.00628173 0)
(-0.0496343 -0.00265584 -7.99887e-19)
(-0.0349769 -0.0149348 0)
(-0.00901646 -0.0280625 0)
(0.0253291 -0.0382566 0)
(0.0651739 -0.0435217 0)
(0.107582 -0.0443604 4.3186e-19)
(0.149202 -0.0418722 0)
(0.187304 -0.0370875 0)
(0.220189 -0.0308021 0)
(0.246963 -0.0236029 0)
(0.267179 -0.0158534 2.41888e-19)
(0.280519 -0.00776873 0)
(0.287123 0.000684355 0)
(0.286119 0.00943636 0)
(0.277487 0.0180521 0)
(0.261805 0.0258256 0)
(0.239707 0.0319995 0)
(0.212036 0.0358803 0)
(0.18007 0.0368928 3.28335e-19)
(0.145504 0.0346322 -3.81464e-19)
(0.11044 0.0290679 4.58504e-19)
(0.0772086 0.020754 5.70713e-19)
(0.0481028 0.0110784 0)
(0.0248674 0.0022374 0)
(0.00816989 -0.00369003 -1.27495e-18)
(-0.00253642 -0.00649134 -1.4681e-18)
(-0.00843166 -0.0078935 0)
(-0.00926932 -0.00935666 0)
(-0.00410813 -0.0119783 -1.48483e-18)
(0.00719433 -0.0162731 0)
(0.0259279 -0.0218722 0)
(0.0517405 -0.0273236 6.95052e-19)
(0.0813642 -0.029766 0)
(0.110392 -0.0280766 4.54553e-19)
(0.134077 -0.022549 8.15144e-19)
(0.149349 -0.0149752 0)
(0.155891 -0.00777538 0)
(0.155554 -0.00278489 0)
(0.151624 -0.000779257 0)
(0.147382 -0.00278464 0)
(0.144609 -0.00964571 8.11439e-19)
(0.139918 -0.01986 8.20796e-19)
(0.126406 -0.0259873 8.50694e-19)
(0.0971932 -0.0178453 0)
(0.0485518 0.00274616 -1.14534e-18)
(-0.0380941 0.0201062 0)
(-0.138269 0.0401855 4.93784e-19)
(-0.247174 0.0649571 3.32798e-19)
(-0.366441 0.0891839 0)
(-0.493583 0.107007 0)
(-0.625564 0.113558 0)
(-0.758026 0.112581 1.61391e-19)
(-0.886153 0.111058 0)
(-1.00943 0.108441 0)
(-1.12661 0.102432 0)
(-1.23673 0.0932265 0)
(-1.33834 0.0846978 0)
(-1.432 0.0766124 0)
(-1.51826 0.0692027 0)
(-1.59771 0.0636949 0)
(-1.67123 0.0582499 -9.48228e-20)
(-1.73925 0.0534262 0)
(-1.80243 0.0492394 0)
(-1.86138 0.0455882 8.75854e-20)
(-1.91662 0.0423927 8.56951e-20)
(-1.96858 0.0395885 0)
(-2.01766 0.0371232 -8.24155e-20)
(-2.06416 0.0349249 8.09701e-20)
(-2.10836 0.0329568 0)
(-2.15044 0.0311692 -7.83645e-20)
(-2.1906 0.0295324 0)
(-2.22896 0.0280162 0)
(-2.26563 0.0265993 7.49749e-20)
(-2.3007 0.0252626 0)
(-2.33423 0.0239903 -7.29589e-20)
(-2.36628 0.0227712 0)
(-2.39689 0.0215944 7.10809e-20)
(-2.42609 0.0204522 7.01834e-20)
(-2.45391 0.0193358 6.93058e-20)
(-2.48037 0.0182409 1.36897e-19)
(-2.50547 0.0171593 -1.35209e-19)
(-2.52921 0.0160881 0)
(-2.55159 0.0150182 0)
(-2.57262 0.0139483 0)
(-2.59227 0.0128716 -1.28669e-19)
(-2.61056 0.0117805 -1.27061e-19)
(-2.62744 0.0106685 1.25456e-19)
(-2.64289 0.00952675 0)
(-2.65688 0.00835069 -1.22248e-19)
(-2.66936 0.00713556 -1.2064e-19)
(-2.68028 0.00588192 -1.19027e-19)
(-2.68959 0.00459802 0)
(-2.69724 0.00330843 0)
(-2.70314 0.00206347 0)
(-2.70724 0.000943669 -1.12503e-19)
(-2.70948 1.96055e-05 0)
(-2.71039 -0.000776987 0)
(-2.70993 -0.00153231 1.07215e-19)
(-2.70816 -0.0022615 0)
(-2.70509 -0.0029739 0)
(-2.70072 -0.0036736 1.01476e-19)
(-2.69505 -0.0043602 0)
(-2.68809 -0.00503466 0)
(-2.67984 -0.00569626 -9.52099e-20)
(-2.6703 -0.00634451 -9.29984e-20)
(-2.65949 -0.00698013 0)
(-2.64741 -0.00760162 8.83864e-20)
(-2.63406 -0.00821129 0)
(-2.61946 -0.00880694 -8.35224e-20)
(-2.60361 -0.00939213 0)
(-2.58653 -0.00996401 -7.84058e-20)
(-2.56822 -0.0105271 -7.5752e-20)
(-2.54869 -0.0110786 0)
(-2.52796 -0.0116228 0)
(-2.50602 -0.0121559 0)
(-2.48288 -0.0126808 0)
(-2.45855 -0.0131957 0)
(-2.43305 -0.0137059 0)
(-2.40639 -0.01421 0)
(-2.3786 -0.0147131 -5.21117e-20)
(-2.34969 -0.0152093 4.88249e-20)
(-2.31967 -0.0157016 0)
(-2.28856 -0.0161809 0)
(-2.25637 -0.0166483 0)
(-2.22313 -0.0171041 0)
(-2.18886 -0.017531 6.20871e-20)
(-2.15358 -0.017938 0)
(-2.11731 -0.0182898 -4.64323e-20)
(-2.08012 -0.0185534 3.82601e-20)
(-2.04203 -0.01869 0)
(-2.00315 -0.01862 0)
(-1.96351 -0.0185239 0)
(-1.92307 -0.018739 -3.03961e-21)
(-1.88176 -0.0191444 6.45569e-21)
(-1.83968 -0.0194557 0)
(-1.79688 -0.0197443 2.63778e-20)
(-1.7534 -0.0200009 3.68294e-20)
(-1.7093 -0.0202277 -4.76266e-20)
(-1.66463 -0.0204267 0)
(-1.61946 -0.0205975 0)
(-1.57382 -0.0207422 -8.22242e-20)
(-1.52776 -0.0208593 0)
(-1.48134 -0.0209511 0)
(-1.43459 -0.0210162 0)
(-1.38756 -0.0210572 0)
(-1.34028 -0.021073 1.48124e-19)
(-1.2928 -0.0210662 1.62693e-19)
(-1.24515 -0.0210358 0)
(-1.19737 -0.0209843 1.934e-19)
(-1.14949 -0.0209118 0)
(-1.10155 -0.020823 0)
(-1.05358 -0.0207202 2.4383e-19)
(-1.00559 -0.0206095 0)
(-0.957599 -0.0204944 2.80808e-19)
(-0.909615 -0.0203818 0)
(-0.861633 -0.0202759 0)
(-0.813635 -0.0201834 3.42392e-19)
(-0.7656 -0.0201086 0)
(-0.717494 -0.0200563 3.88456e-19)
(-0.669285 -0.0200296 0)
(-0.620936 -0.0200312 0)
(-0.572413 -0.0200647 0)
(-0.523675 -0.0201342 -4.97015e-19)
(-0.474687 -0.0202428 0)
(-0.425405 -0.0203939 5.62491e-19)
(-0.375789 -0.0205901 0)
(-0.325808 -0.0208232 0)
(-0.275455 -0.0210858 0)
(-0.224735 -0.0213758 0)
(-0.173731 -0.0216792 0)
(-0.122692 -0.0218778 0)
(-0.0720817 -0.0218355 0)
(-0.0240506 -0.0211212 -1.93877e-18)
(0.0294067 -0.0192101 0)
(0.0433179 -0.00882826 0)
(-0.000301005 0.019568 3.12313e-18)
(-0.00588607 0.0345427 -3.57377e-18)
(-0.0124943 0.035864 0)
(-0.0134816 0.027059 2.51214e-18)
(-0.000889 0.00643788 0)
(0.0271579 -0.0287273 7.83976e-19)
(0.0648905 -0.0689144 -9.8351e-19)
(0.108502 -0.102558 -6.99331e-19)
(0.154027 -0.123862 0)
(0.198005 -0.132114 -4.54001e-19)
(0.238177 -0.129669 -1.98163e-19)
(0.273527 -0.119762 0)
(0.303674 -0.105247 0)
(0.328606 -0.088203 0)
(0.348514 -0.0700098 0)
(0.36369 -0.0514814 -1.52562e-19)
(0.374514 -0.0330168 0)
(0.381176 -0.0147981 3.09571e-19)
(0.384555 0.0031991 0)
(0.384702 0.0208849 0)
(0.381306 0.0379354 -3.2043e-19)
(0.373898 0.0539036 0)
(0.361943 0.0680985 3.40617e-19)
(0.344961 0.0796143 -1.78014e-19)
(0.322701 0.0873917 1.88915e-19)
(0.295303 0.0903963 -2.03976e-19)
(0.263502 0.0878613 -2.24962e-19)
(0.228724 0.0797075 0)
(0.193045 0.0667194 0)
(0.159082 0.050468 3.49115e-19)
(0.129725 0.0325878 -4.17972e-19)
(0.107979 0.0141292 0)
(0.0958214 -0.00480274 0)
(0.0946488 -0.0236733 5.47036e-19)
(0.10387 -0.0424876 0)
(0.121288 -0.0604181 0)
(0.141907 -0.0727061 -3.25631e-19)
(0.159764 -0.0735823 0)
(0.170811 -0.0627311 2.5494e-19)
(0.173679 -0.044532 -5.01525e-19)
(0.168454 -0.0244789 0)
(0.156473 -0.00900706 0)
(0.138615 0.000126793 -1.23547e-18)
(0.11273 0.00562922 -1.36691e-18)
(0.0714897 0.0127873 -1.60213e-18)
(0.00515079 0.0304915 8.15489e-19)
(-0.0973291 0.0667051 -5.61324e-19)
(-0.221775 0.110486 -1.08051e-18)
(-0.354646 0.154777 5.07111e-19)
(-0.493316 0.19509 1.92538e-19)
(-0.636884 0.22721 0)
(-0.779512 0.250696 -1.29877e-19)
(-0.919274 0.265651 1.13385e-19)
(-1.0535 0.272525 0)
(-1.17955 0.271781 0)
(-1.29608 0.264338 0)
(-1.40153 0.251826 -8.03616e-20)
(-1.49565 0.2363 0)
(-1.57897 0.219287 1.47091e-19)
(-1.6528 0.20166 0)
(-1.71845 0.18428 1.37877e-19)
(-1.77715 0.167934 0)
(-1.83056 0.152943 -1.31076e-19)
(-1.87919 0.139404 0)
(-1.92409 0.127458 1.25466e-19)
(-1.96581 0.116929 -6.16198e-20)
(-2.00496 0.107732 0)
(-2.04197 0.0997123 -1.18868e-19)
(-2.0771 0.0927048 -5.84859e-20)
(-2.11059 0.086553 -5.76168e-20)
(-2.14259 0.0811156 0)
(-2.17322 0.076267 -5.59384e-20)
(-2.20258 0.0719027 -5.52478e-20)
(-2.23074 0.0679319 0)
(-2.25774 0.0642842 5.38164e-20)
(-2.28363 0.060898 -1.06165e-19)
(-2.30843 0.0577283 0)
(-2.33215 0.0547347 -5.18219e-20)
(-2.35483 0.0518884 0)
(-2.37646 0.0491621 1.51589e-19)
(-2.39705 0.0465378 0)
(-2.41659 0.0439977 -1.47947e-19)
(-2.43511 0.0415304 -4.8754e-20)
(-2.45258 0.0391229 4.80669e-20)
(-2.46902 0.0367684 9.49703e-20)
(-2.4844 0.0344561 -9.38134e-20)
(-2.49872 0.0321815 0)
(-2.51197 0.0299343 0)
(-2.52414 0.0277125 0)
(-2.53523 0.0255103 2.67823e-19)
(-2.54523 0.0233231 8.81304e-20)
(-2.55414 0.0211445 -8.69425e-20)
(-2.56195 0.0189698 0)
(-2.56866 0.0167968 -8.45124e-20)
(-2.57427 0.014621 8.33221e-20)
(-2.57881 0.0124378 8.20922e-20)
(-2.58231 0.0102432 0)
(-2.58482 0.0080408 0)
(-2.58643 0.00585547 0)
(-2.58722 0.00374574 7.70103e-20)
(-2.58728 0.00177969 0)
(-2.58616 -6.97404e-05 -1.48634e-19)
(-2.58382 -0.00185761 -2.18627e-19)
(-2.58023 -0.00360202 1.42907e-19)
(-2.57537 -0.00531184 0)
(-2.56924 -0.00699154 6.85668e-20)
(-2.56184 -0.00864052 0)
(-2.55318 -0.0102595 1.30608e-19)
(-2.54326 -0.0118468 -6.38201e-20)
(-2.53209 -0.0134014 -6.21617e-20)
(-2.51967 -0.0149227 0)
(-2.50601 -0.0164088 -1.75493e-19)
(-2.49112 -0.0178604 1.13557e-19)
(-2.475 -0.019275 5.47724e-20)
(-2.45768 -0.0206546 0)
(-2.43915 -0.0219963 5.10292e-20)
(-2.41943 -0.0233038 1.47761e-19)
(-2.39852 -0.024575 0)
(-2.37644 -0.0258122 9.08134e-20)
(-2.35319 -0.0270098 8.68015e-20)
(-2.32877 -0.0281682 8.27278e-20)
(-2.30319 -0.0292847 0)
(-2.27646 -0.0303657 0)
(-2.24861 -0.0314109 0)
(-2.21965 -0.0324264 -3.31834e-20)
(-2.1896 -0.0334061 -3.04166e-20)
(-2.15846 -0.0343534 0)
(-2.12627 -0.035261 -5.24186e-20)
(-2.09302 -0.0361337 -4.78111e-20)
(-2.05875 -0.0369658 0)
(-2.02347 -0.0377641 -3.76869e-20)
(-1.9872 -0.0385198 -6.70134e-20)
(-1.94997 -0.0392389 2.7863e-20)
(-1.91181 -0.0399187 2.42615e-20)
(-1.87273 -0.0405773 0)
(-1.83273 -0.0412218 0)
(-1.79183 -0.0418462 0)
(-1.75009 -0.04241 1.71307e-21)
(-1.70762 -0.0428923 2.21782e-21)
(-1.66443 -0.0432999 1.71787e-20)
(-1.62055 -0.0436429 -1.50822e-20)
(-1.57602 -0.0439219 1.9202e-20)
(-1.53087 -0.0441367 2.67367e-20)
(-1.48518 -0.0442947 0)
(-1.43898 -0.0443963 0)
(-1.39234 -0.0444486 -4.31561e-20)
(-1.34528 -0.0444508 0)
(-1.29786 -0.0444091 0)
(-1.25013 -0.0443234 1.25878e-19)
(-1.20212 -0.0441998 0)
(-1.15387 -0.0440392 7.50628e-20)
(-1.10542 -0.0438465 -8.34335e-20)
(-1.05679 -0.0436223 0)
(-1.00803 -0.043369 9.51075e-20)
(-0.959158 -0.0430882 0)
(-0.910203 -0.0427843 0)
(-0.861189 -0.0424631 -1.17422e-19)
(-0.812132 -0.042131 2.47106e-19)
(-0.763044 -0.041797 -1.31415e-19)
(-0.713923 -0.0414678 0)
(-0.664761 -0.0411542 0)
(-0.61554 -0.0408612 1.51194e-19)
(-0.566232 -0.0405982 0)
(-0.516804 -0.0403668 1.65763e-19)
(-0.467215 -0.0401732 0)
(-0.417425 -0.0400129 0)
(-0.367393 -0.0398912 0)
(-0.317075 -0.0398055 1.97276e-19)
(-0.266427 -0.0397608 0)
(-0.215402 -0.0397528 -2.12847e-19)
(-0.163955 -0.0397872 0)
(-0.112047 -0.0398482 0)
(-0.0596554 -0.0399159 4.73073e-19)
(-0.00681525 -0.0399327 -4.88512e-19)
(0.0463073 -0.0398032 0)
(0.0995706 -0.0394101 0)
(0.152989 -0.0386415 0)
(0.204717 -0.0370761 1.49654e-18)
(0.260209 -0.0339829 0)
(0.294794 -0.0236258 -1.02705e-18)
(0.000316045 0.0224763 3.22441e-22)
(0.000510658 0.03917 4.97156e-18)
(0.00564752 0.0326003 0)
(0.0242057 0.00152657 -3.49936e-18)
(0.0617731 -0.0551842 0)
(0.11154 -0.119455 0)
(0.163468 -0.171775 -3.52591e-22)
(0.210603 -0.202926 3.99425e-19)
(0.250003 -0.213047 3.42392e-19)
(0.281445 -0.206888 3.05383e-19)
(0.305993 -0.190057 0)
(0.325038 -0.167241 0)
(0.339781 -0.141681 -2.53552e-19)
(0.35109 -0.115334 -4.92569e-19)
(0.359537 -0.0892729 4.84693e-19)
(0.365513 -0.0640213 0)
(0.369294 -0.0397859 4.85736e-19)
(0.371075 -0.0166458 -2.46393e-19)
(0.371083 0.00541916 0)
(0.369645 0.0265434 5.03758e-19)
(0.36702 0.0468722 2.55603e-19)
(0.363387 0.0663856 -5.25971e-19)
(0.358733 0.0847966 -2.72425e-19)
(0.352724 0.101488 0)
(0.344752 0.115488 5.98816e-19)
(0.334011 0.125525 6.32628e-19)
(0.319725 0.130204 0)
(0.301464 0.128321 7.25075e-19)
(0.279566 0.119236 0)
(0.255322 0.103106 8.77281e-19)
(0.230989 0.0808708 4.9367e-19)
(0.209305 0.0538636 0)
(0.192894 0.0235454 0)
(0.182687 -0.00892207 0)
(0.178523 -0.0420015 0)
(0.175978 -0.0688346 0)
(0.167629 -0.0785424 0)
(0.150844 -0.0686114 7.97656e-19)
(0.126579 -0.0455573 -1.17434e-18)
(0.0952781 -0.0159567 0)
(0.0567238 0.016493 0)
(0.00660317 0.0468768 0)
(-0.0671711 0.0771236 5.91753e-22)
(-0.164034 0.11859 6.74457e-19)
(-0.279988 0.169594 9.99546e-19)
(-0.410942 0.224388 -7.71243e-19)
(-0.550381 0.279146 -3.09293e-19)
(-0.690662 0.328708 2.56355e-19)
(-0.826057 0.369335 5.80409e-22)
(-0.953131 0.400418 1.9401e-19)
(-1.06887 0.420474 0)
(-1.17238 0.429408 1.58902e-19)
(-1.26323 0.428185 1.13581e-21)
(-1.34156 0.418144 0)
(-1.40849 0.400792 0)
(-1.46604 0.377887 -1.23847e-19)
(-1.51649 0.351512 0)
(-1.5617 0.323915 0)
(-1.60295 0.296643 1.11127e-19)
(-1.64143 0.270598 2.13773e-19)
(-1.67802 0.246315 -1.03235e-19)
(-1.71335 0.224336 0)
(-1.74775 0.20483 9.82348e-20)
(-1.78135 0.187682 0)
(-1.81417 0.172754 9.43992e-20)
(-1.84621 0.15972 9.21652e-20)
(-1.87748 0.148329 -1.80978e-19)
(-1.90798 0.138345 -8.88512e-20)
(-1.93768 0.129544 0)
(-1.96658 0.121718 1.71544e-19)
(-1.99464 0.114696 0)
(-2.02186 0.108332 2.49124e-19)
(-2.04824 0.102507 1.63474e-19)
(-2.07376 0.0971192 1.60997e-19)
(-2.09842 0.0920902 -1.58606e-19)
(-2.1222 0.0873539 2.34514e-19)
(-2.14512 0.0828591 0)
(-2.16714 0.0785632 0)
(-2.18828 0.0744332 -1.49702e-19)
(-2.20852 0.0704412 -2.21487e-19)
(-2.22785 0.0665662 0)
(-2.24626 0.0627895 7.18368e-20)
(-2.26376 0.0590972 0)
(-2.28031 0.0554765 -2.09388e-19)
(-2.29593 0.0519184 -1.38165e-22)
(-2.31059 0.0484127 1.29278e-22)
(-2.32428 0.0449526 1.33726e-19)
(-2.33699 0.0415293 0)
(-2.34871 0.0381387 -1.29893e-19)
(-2.35944 0.0347761 -8.23605e-23)
(-2.36916 0.0314376 0)
(-2.37787 0.0281193 0)
(-2.38556 0.0248209 0)
(-2.39221 0.021546 1.2032e-19)
(-2.39784 0.0182999 0)
(-2.40243 0.015091 0)
(-2.40599 0.0119292 0)
(-2.40853 0.00882795 0)
(-2.41002 0.00579762 0)
(-2.41042 0.00283527 1.08373e-19)
(-2.40969 -9.07773e-05 0)
(-2.40776 -0.00299089 1.03944e-19)
(-2.40464 -0.00584728 1.0172e-19)
(-2.4003 -0.00865488 -9.9456e-20)
(-2.39473 -0.0114132 0)
(-2.38794 -0.0141219 -9.48057e-20)
(-2.37992 -0.0167797 0)
(-2.37068 -0.0193857 -8.99831e-20)
(-2.36022 -0.0219375 8.7507e-20)
(-2.34854 -0.024434 2.55462e-19)
(-2.33567 -0.0268731 0)
(-2.3216 -0.0292544 2.40035e-19)
(-2.30634 -0.0315766 7.77605e-20)
(-2.2899 -0.0338397 0)
(-2.27229 -0.036043 1.4423e-19)
(-2.25352 -0.038187 1.38767e-19)
(-2.23359 -0.0402725 -1.99538e-19)
(-2.21252 -0.0423013 0)
(-2.19032 -0.044272 -6.06634e-20)
(-2.16698 -0.0461822 -5.7806e-20)
(-2.1425 -0.0480298 -1.65493e-19)
(-2.11691 -0.0498149 0)
(-2.0902 -0.0515413 0)
(-2.06239 -0.0532125 0)
(-2.0335 -0.0548298 -4.39358e-20)
(-2.00355 -0.0563915 0)
(-1.97254 -0.057895 0)
(-1.94049 -0.059337 3.40004e-20)
(-1.90742 -0.0607157 3.09025e-20)
(-1.87333 -0.0620293 0)
(-1.83826 -0.0632761 0)
(-1.80222 -0.0644521 4.28437e-20)
(-1.76524 -0.0655537 0)
(-1.72733 -0.0665738 -2.98735e-20)
(-1.68853 -0.0675151 -2.43293e-20)
(-1.64885 -0.0683861 0)
(-1.60834 -0.0691971 0)
(-1.56704 -0.0699523 4.21646e-21)
(-1.52502 -0.070628 -1.13017e-21)
(-1.4823 -0.0712035 -1.14759e-21)
(-1.43892 -0.0716793 0)
(-1.39491 -0.0720542 -4.80089e-20)
(-1.35031 -0.0723294 0)
(-1.30517 -0.0725107 0)
(-1.25954 -0.072602 0)
(-1.21348 -0.0726097 5.3069e-20)
(-1.16702 -0.0725366 0)
(-1.12021 -0.072389 -1.3259e-19)
(-1.0731 -0.0721705 -7.47723e-20)
(-1.02571 -0.0718879 0)
(-0.978096 -0.0715462 -8.93156e-20)
(-0.930279 -0.0711512 0)
(-0.882291 -0.070707 0)
(-0.834157 -0.0702163 -3.30959e-19)
(-0.785903 -0.0696831 2.34343e-19)
(-0.737551 -0.0691128 0)
(-0.689119 -0.0685157 2.63175e-19)
(-0.640621 -0.0679011 -1.39874e-19)
(-0.592061 -0.0672825 0)
(-0.543435 -0.0666706 0)
(-0.494731 -0.0660808 0)
(-0.445929 -0.065522 -5.01907e-19)
(-0.397 -0.065007 0)
(-0.347906 -0.0645398 -1.81785e-19)
(-0.298605 -0.0641279 0)
(-0.249053 -0.0637663 0)
(-0.199207 -0.0634597 0)
(-0.14902 -0.0632061 0)
(-0.0984454 -0.0630105 0)
(-0.0474335 -0.0628663 0)
(0.00405007 -0.0627679 -4.54023e-19)
(0.056025 -0.0626904 0)
(0.108544 -0.0626114 -2.3444e-19)
(0.16164 -0.0624682 7.08759e-19)
(0.2153 -0.0621756 0)
(0.269388 -0.0615883 0)
(0.32392 -0.0604946 -4.86069e-19)
(0.377455 -0.0584007 -4.93187e-19)
(0.434276 -0.054562 4.98706e-19)
(0.478841 -0.0441845 5.11689e-19)
(-0.000997513 0.0226266 -6.26015e-18)
(0.00167964 0.0273004 -7.83669e-18)
(0.0217048 -0.0110748 -3.49181e-18)
(0.0671094 -0.0901193 -9.38638e-19)
(0.126316 -0.176316 0)
(0.183506 -0.241072 8.5631e-19)
(0.229101 -0.274354 -3.46408e-19)
(0.261277 -0.279937 0)
(0.282412 -0.266707 -2.67138e-19)
(0.295968 -0.242938 0)
(0.304838 -0.214247 4.64352e-19)
(0.310908 -0.183834 0)
(0.315219 -0.15333 2.14289e-19)
(0.31827 -0.123499 4.20413e-19)
(0.320252 -0.0946772 -4.17136e-19)
(0.321221 -0.0670148 0)
(0.321191 -0.0405739 -4.23653e-19)
(0.320177 -0.015389 0)
(0.318219 0.00853404 0)
(0.315411 0.0312313 -4.42322e-19)
(0.311873 0.0527423 0)
(0.307811 0.0730866 -6.31417e-22)
(0.303441 0.0921985 0)
(0.298889 0.109827 0)
(0.294117 0.125458 4.91231e-22)
(0.288844 0.138221 -5.58484e-19)
(0.282543 0.146866 -5.97974e-19)
(0.274493 0.149861 -6.42382e-19)
(0.264062 0.145692 0)
(0.250978 0.133173 -1.51839e-18)
(0.235703 0.111882 0)
(0.219248 0.0824878 -9.4569e-19)
(0.203044 0.0467195 0)
(0.187543 0.00747734 0)
(0.168092 -0.027072 1.04239e-18)
(0.138464 -0.0428619 0)
(0.0979218 -0.0354109 -8.11042e-19)
(0.0481085 -0.00974896 -6.34627e-22)
(-0.0114884 0.0281554 1.54062e-18)
(-0.0852468 0.075154 -1.29819e-18)
(-0.174279 0.130461 0)
(-0.278362 0.190893 0)
(-0.396316 0.252698 -3.4732e-19)
(-0.522629 0.315068 0)
(-0.651628 0.376266 -2.4225e-19)
(-0.777797 0.431327 2.09229e-19)
(-0.895856 0.475721 1.84661e-19)
(-1.00165 0.50842 0)
(-1.09405 0.529151 -1.50345e-19)
(-1.17248 0.538348 -1.3823e-19)
(-1.23736 0.536908 2.58583e-19)
(-1.29055 0.526206 -1.20154e-19)
(-1.33394 0.508012 -1.13255e-19)
(-1.36981 0.484115 0)