/*--------------------------------*- C++ -*----------------------------------*\
  =========                 |
  \\      /  F ield         | OpenFOAM: The Open Source CFD Toolbox
   \\    /   O peration     | Website:  https://openfoam.org
    \\  /    A nd           | Version:  13
     \\/     M anipulation  |
\*---------------------------------------------------------------------------*/
FoamFile
{
    format      ascii;
    class       volScalarField;
    location    "1.8";
    object      epsilon;
}
// * * * * * * * * * * * * * * * * * * * * * * * * * * * * * * * * * * * * * //

dimensions      [0 2 -3 0 0 0 0];

internalField   nonuniform List<scalar> 
6400
(
1.05119e-05
5.19157e-05
0.00011139
0.000175182
0.000238033
0.000299864
0.00036116
0.000422235
0.00048323
0.000543937
0.000604053
0.000663446
0.000722321
0.000781317
0.000841526
0.000904486
0.000972134
0.00104676
0.00113097
0.00122761
0.00133968
0.00147017
0.00162194
0.00179756
0.001999
0.00222751
0.00248348
0.0027665
0.00307559
0.00340946
0.0037669
0.00414701
0.00454936
0.004974
0.00542134
0.00589188
0.00638587
0.00690345
0.00744459
0.00800893
0.00859496
0.00920011
0.00982015
0.0104488
0.0110771
0.0116935
0.0122851
0.0128443
0.0133814
0.0139751
0.0145337
0.0150099
0.0153705
0.0156241
0.0157417
0.0157331
0.0154997
0.0150683
0.0144262
0.0135767
0.0125331
0.011322
0.00998421
0.00857333
0.00715235
0.00578357
0.0045279
0.00343515
0.00253318
0.0018324
0.00131815
0.000942272
0.000675044
0.000487229
0.000353496
0.000254006
0.000174777
0.000107455
5.02279e-05
1.03287e-05
5.22847e-05
4.41167e-05
6.49703e-05
9.35047e-05
0.00012417
0.000155964
0.000188479
0.000221537
0.000255079
0.000289045
0.000323414
0.00035828
0.000393917
0.000430824
0.000469777
0.000511837
0.000558402
0.000611248
0.000672552
0.000744918
0.000831389
0.000935409
0.00106063
0.00121081
0.00138953
0.0015999
0.00184421
0.00212361
0.00243794
0.00278562
0.00316365
0.00356779
0.00399265
0.00443199
0.00487901
0.00532693
0.00576995
0.00619885
0.00660727
0.00699064
0.00734571
0.0076705
0.00796408
0.0082263
0.00845743
0.00865816
0.00883096
0.00898333
0.0091179
0.00924301
0.00934723
0.00940124
0.00941894
0.0093865
0.0092917
0.00911544
0.00884828
0.00848939
0.00803585
0.00749026
0.0068606
0.00616126
0.0054131
0.00464234
0.00387838
0.00315131
0.00248877
0.00191182
0.00143246
0.00105428
0.000770302
0.000560402
0.000407871
0.000298044
0.000218063
0.000157683
0.000109729
7.09324e-05
4.44097e-05
5.15927e-05
0.000117666
7.06751e-05
7.6687e-05
9.64314e-05
0.000122017
0.000150745
0.000181539
0.000213756
0.000247011
0.000281127
0.000316144
0.000352334
0.000390226
0.00043062
0.000474521
0.000523398
0.000579177
0.000644185
0.000721171
0.000813314
0.000924266
0.00105794
0.00121775
0.00140678
0.00162732
0.00188038
0.00216531
0.0024796
0.00281892
0.00317737
0.00354801
0.0039235
0.00429682
0.00466179
0.00501345
0.00534801
0.00565718
0.00594513
0.00621621
0.00647194
0.00671511
0.00694845
0.00717464
0.00739602
0.00761446
0.00783144
0.00804842
0.00826692
0.00848467
0.00869264
0.00888296
0.00904546
0.00917415
0.0092412
0.00926093
0.00921439
0.00908075
0.00884776
0.00850979
0.00806423
0.00751328
0.00686618
0.00613988
0.00535836
0.0045518
0.0037544
0.00300044
0.00232053
0.0017377
0.00126415
0.000899723
0.000632993
0.000446022
0.000317543
0.000228846
0.000165434
0.000117788
8.25342e-05
6.76926e-05
0.000116599
0.000201987
0.000109602
0.000104479
0.000120867
0.000145744
0.000175345
0.000207947
0.000242514
0.000278421
0.000315404
0.000353566
0.000393376
0.000435673
0.000481689
0.000533129
0.000592041
0.000660903
0.000742649
0.000840587
0.000958235
0.001099
0.00126598
0.00146193
0.00168834
0.0019452
0.00223063
0.00254084
0.00287026
0.00321205
0.00355877
0.00390329
0.00423956
0.00456325
0.00487204
0.00516572
0.00544621
0.00571648
0.00597736
0.00623169
0.00648334
0.00673618
0.00699382
0.00725942
0.00753554
0.00782385
0.00812485
0.00843725
0.00875659
0.00907771
0.00939487
0.00970013
0.00998413
0.0102359
0.0104419
0.0105758
0.010629
0.010614
0.0104796
0.0102186
0.00982622
0.00929761
0.00863599
0.00785587
0.00697842
0.00603602
0.0050679
0.00411775
0.00322901
0.00243957
0.00177637
0.00125121
0.000859236
0.000582853
0.000396974
0.000274993
0.000194492
0.000139989
0.000104874
9.912e-05
0.000190228
0.000303711
0.000155784
0.000139517
0.000153822
0.000179435
0.000210942
0.000246097
0.000283624
0.000322778
0.000363304
0.000405441
0.000449932
0.000498009
0.000551396
0.00061231
0.000683427
0.000767823
0.000868893
0.000990183
0.00113512
0.00130666
0.00150695
0.00173701
0.0019963
0.00228244
0.00259125
0.00291693
0.00325265
0.00359129
0.0039263
0.00425247
0.00456649
0.00486706
0.0051547
0.00543124
0.00569895
0.00596432
0.00623214
0.00650551
0.00678802
0.00708228
0.00739014
0.00771267
0.00805025
0.00840246
0.00876828
0.00914648
0.00953674
0.00993348
0.0103312
0.010723
0.0111004
0.0114527
0.011767
0.0120282
0.0122078
0.0122845
0.0122782
0.0121204
0.0118169
0.0113555
0.0107228
0.00993241
0.00899296
0.00793632
0.00680087
0.0056383
0.0045051
0.00345747
0.00254322
0.00179395
0.00121954
0.00080796
0.000530754
0.000352487
0.000240404
0.000170423
0.000130576
0.000131316
0.000262407
0.00042429
0.00020832
0.000179405
0.000191464
0.00021777
0.000251069
0.000288602
0.000328929
0.000371294
0.000415536
0.000462111
0.000512098
0.000567181
0.000629625
0.000702227
0.000788232
0.000891192
0.00101476
0.00116238
0.00133698
0.00154054
0.00177377
0.00203584
0.00232421
0.00263466
0.00296151
0.00329821
0.00363802
0.00397485
0.00430392
0.00462225
0.00492885
0.00522449
0.0055113
0.00579235
0.00607119
0.00635193
0.00663776
0.00693112
0.00723425
0.00754862
0.00787513
0.00821426
0.00856648
0.00893164
0.00930891
0.00969679
0.0100929
0.0104965
0.0109056
0.0113175
0.0117279
0.0121307
0.0125175
0.0128773
0.0131961
0.0134594
0.0136276
0.0136886
0.0135843
0.013289
0.0127821
0.0120873
0.0111838
0.0101023
0.00886451
0.00752809
0.00615829
0.00482968
0.00361641
0.00257939
0.00175476
0.00114728
0.000732321
0.000466827
0.000304694
0.000208972
0.000158886
0.000162576
0.000328409
0.000561628
0.000266118
0.000223071
0.000232344
0.000259039
0.000293855
0.000333507
0.00037646
0.000422026
0.000470234
0.000521834
0.000578311
0.000641853
0.000715295
0.000802008
0.00090573
0.00103031
0.00117937
0.00135593
0.00156196
0.0017981
0.00206342
0.00235527
0.00266947
0.00300048
0.003342
0.00368751
0.00403106
0.00436788
0.0046948
0.00501042
0.00531494
0.00560977
0.00589711
0.00617949
0.00645943
0.00673918
0.00702046
0.00730459
0.00759319
0.00788738
0.0081875
0.00849381
0.0088091
0.00913444
0.00947052
0.0098175
0.0101743
0.0105463
0.0109335
0.0113352
0.0117493
0.0121723
0.012598
0.0130182
0.0134218
0.0137948
0.0141205
0.0143919
0.0145748
0.0146367
0.0144999
0.0140641
0.0133375
0.0123789
0.0111585
0.00974519
0.00819934
0.0066068
0.0050699
0.00368771
0.00253687
0.00165563
0.00103724
0.000637915
0.000397203
0.000260004
0.000191285
0.000193327
0.000388196
0.000713659
0.000328477
0.000269812
0.000275635
0.000302349
0.000338407
0.00037998
0.000425482
0.000474376
0.000526954
0.000584342
0.00064849
0.000722132
0.000808676
0.000912022
0.00103627
0.00118535
0.00136252
0.00156998
0.00180844
0.00207696
0.00237287
0.00269194
0.00302867
0.00337679
0.00372978
0.00408157
0.00442702
0.00476237
0.00508536
0.00539512
0.00569186
0.00597643
0.00624999
0.00651372
0.00676866
0.00701583
0.00725586
0.00748768
0.0077156
0.00794243
0.00817156
0.00840703
0.00864314
0.00888199
0.00912724
0.00938392
0.00965945
0.00995725
0.010281
0.0106341
0.011019
0.0114371
0.011888
0.012369
0.0128738
0.0133904
0.0139005
0.0143776
0.0147821
0.0151109
0.0153135
0.0153865
0.0151653
0.0145385
0.013504
0.0121776
0.0105872
0.00880916
0.00696955
0.00520949
0.00365957
0.00241243
0.00150176
0.000899284
0.000535106
0.00033135
0.000231115
0.000225024
0.000444795
0.000878076
0.000394738
0.000318986
0.00032071
0.000347089
0.000384173
0.000427574
0.000475689
0.000528191
0.000585713
0.000649816
0.000722969
0.000808474
0.000910294
0.00103277
0.00118018
0.00135624
0.00156354
0.0018031
0.0020741
0.00237386
0.00269806
0.00304107
0.00339643
0.00375738
0.0041174
0.00447076
0.0048128
0.00514013
0.00545054
0.00574273
0.00601602
0.00627003
0.00650448
0.00671929
0.00691346
0.00709061
0.00725664
0.00741946
0.00756977
0.00770683
0.00783202
0.00794361
0.0080522
0.0081682
0.00829741
0.00844656
0.00862111
0.00882436
0.00906288
0.0093425
0.00966914
0.010048
0.0104834
0.010978
0.0115315
0.012141
0.0127976
0.0134856
0.0141793
0.0148374
0.0154021
0.0158286
0.0160523
0.0161006
0.0156237
0.0146093
0.013189
0.0113852
0.00933778
0.00722119
0.00522587
0.00351983
0.00220713
0.00130382
0.000746978
0.00043626
0.000283996
0.000260199
0.000503302
0.00105231
0.000464286
0.000369822
0.00036706
0.000392773
0.000430748
0.000475997
0.000526928
0.000583469
0.000646653
0.00071853
0.000802124
0.000901307
0.00102054
0.00116447
0.00133735
0.00154236
0.00178107
0.002053
0.00235559
0.00268441
0.00303357
0.00339619
0.00376503
0.00413292
0.00449326
0.0048403
0.00516936
0.00547673
0.00575955
0.00601554
0.00624285
0.00643997
0.00660506
0.00674311
0.00686709
0.00697406
0.0070532
0.00709865
0.00711574
0.0071194
0.00711703
0.00711527
0.00712253
0.00714247
0.00717948
0.00723971
0.00732916
0.00745027
0.00760984
0.00781306
0.00806674
0.00837814
0.00875501
0.00920554
0.00973711
0.0103562
0.0110655
0.0118614
0.0127321
0.0136553
0.0145915
0.0154729
0.0162036
0.0166927
0.0169099
0.0166892
0.0157538
0.0141701
0.0121095
0.00974793
0.00732334
0.00509153
0.00325964
0.00192942
0.00107855
0.000596824
0.000359153
0.000303147
0.000570835
0.00123348
0.00053638
0.000421751
0.000414177
0.000438968
0.000477788
0.000525018
0.00057909
0.000640227
0.000709903
0.000790698
0.000886209
0.00100086
0.00113951
0.00130696
0.00150712
0.00174236
0.00201285
0.00231639
0.00264853
0.00300306
0.00337259
0.00374915
0.00412469
0.00449156
0.0048428
0.00517231
0.00547488
0.00574607
0.00598219
0.00618
0.00633682
0.00645592
0.00655624
0.00661487
0.00663355
0.00662027
0.0065638
0.00648441
0.00639995
0.0063125
0.00622935
0.00615787
0.00610328
0.00607446
0.00606461
0.00607653
0.0061256
0.00620396
0.00631809
0.00646999
0.00666436
0.00690669
0.00720419
0.00756616
0.00800514
0.00853509
0.00917126
0.00992802
0.0108156
0.0118335
0.0129634
0.0141741
0.0153941
0.0165049
0.0173077
0.0176928
0.017733
0.0168572
0.0150864
0.0127154
0.00998445
0.00722789
0.00478101
0.00288072
0.00159882
0.000848907
0.000472031
0.00036052
0.000656925
0.00141876
0.000610247
0.000474329
0.000461575
0.00048528
0.000524986
0.000574425
0.000632061
0.000698441
0.000775509
0.000866399
0.000975279
0.00110706
0.00126692
0.00145953
0.00168822
0.00195415
0.00225584
0.0025891
0.00294755
0.00332321
0.00370722
0.00409052
0.00446422
0.00482002
0.00515037
0.00544853
0.00570865
0.00592572
0.00609579
0.00621571
0.00630334
0.00634183
0.00634353
0.0062798
0.00617114
0.00604633
0.00590098
0.00574899
0.00560381
0.00547093
0.00535637
0.00526538
0.0052003
0.00516656
0.00515466
0.00516382
0.00521081
0.0052832
0.00538553
0.0055178
0.00568231
0.00588188
0.00612102
0.00640609
0.00674595
0.00715283
0.007644
0.00824234
0.0089764
0.00987676
0.0109646
0.0122441
0.0136837
0.015221
0.0167062
0.0179123
0.0185423
0.018745
0.0179079
0.0158993
0.0131342
0.00997533
0.00688498
0.00428192
0.00240317
0.00124768
0.000647981
0.000442905
0.000775066
0.00160552
0.000685194
0.00052709
0.000508829
0.000531353
0.000572057
0.000624002
0.000685693
0.000758014
0.000843396
0.000945535
0.00106914
0.00121955
0.00140204
0.00162096
0.00187871
0.00217493
0.00250618
0.0028662
0.00324656
0.00363753
0.00402885
0.00441029
0.0047721
0.00510519
0.00540136
0.00565338
0.00585502
0.00600091
0.00609427
0.00613788
0.00613926
0.00606259
0.00593535
0.00577411
0.0055858
0.00539102
0.00519771
0.00501707
0.00485894
0.00472721
0.00462461
0.00455193
0.00451418
0.00450084
0.00450399
0.00454097
0.00460261
0.00468698
0.00479502
0.00492652
0.0050825
0.0052644
0.00547455
0.00571631
0.00599443
0.00631612
0.00669199
0.00713788
0.00767676
0.00834445
0.00919168
0.0102724
0.0116221
0.0132462
0.0150734
0.0169523
0.0185825
0.0194596
0.019775
0.0188955
0.0165344
0.0132718
0.00963838
0.00625708
0.00360938
0.00187084
0.00092725
0.000566912
0.000943486
0.00179135
0.000760585
0.000579606
0.000555562
0.00057686
0.000618723
0.000673519
0.000739787
0.000818756
0.00091335
0.00102781
0.00116734
0.00133758
0.00154373
0.00178951
0.00207608
0.00240126
0.00275946
0.00314219
0.00353901
0.00393843
0.0043288
0.00469877
0.0050377
0.00533584
0.00558461
0.0057765
0.00590605
0.00597224
0.00599118
0.00593739
0.00581267
0.00563899
0.00542867
0.00520016
0.00496739
0.00474698
0.00454862
0.00437962
0.00424448
0.00414337
0.00407632
0.0040444
0.00403459
0.00404369
0.00408118
0.00414047
0.00421967
0.00431792
0.00443542
0.00457231
0.00472936
0.00490758
0.00510837
0.00533355
0.00558554
0.00586782
0.00618559
0.00654692
0.00696458
0.00745595
0.00805162
0.00880963
0.0098261
0.0111914
0.0129343
0.01503
0.0172941
0.0193618
0.0204586
0.0208297
0.019754
0.0168877
0.0130073
0.008897
0.00534384
0.0028198
0.00136586
0.000757219
0.00118661
0.00197414
0.000835852
0.000631494
0.000601438
0.000621505
0.000664712
0.000722717
0.000794084
0.000880379
0.000985009
0.00111273
0.00126916
0.00146008
0.00169042
0.00196298
0.00227734
0.00262927
0.00301087
0.00341137
0.00381831
0.00421855
0.00459908
0.00494755
0.00525268
0.00550462
0.00569549
0.00581176
0.00585941
0.00585681
0.00576377
0.00560523
0.0053937
0.00514796
0.00488631
0.0046283
0.00438901
0.00418034
0.00400829
0.00387475
0.00377896
0.00372051
0.00369436
0.00368787
0.00370156
0.00373906
0.00379557
0.00386909
0.00395902
0.00406538
0.00418873
0.0043299
0.00448998
0.0046702
0.0048718
0.00509601
0.00534403
0.00561714
0.00591712
0.00624702
0.00661245
0.00702366
0.00749624
0.00805172
0.00873832
0.00965219
0.0109773
0.0128125
0.0151437
0.0177965
0.0202836
0.0215301
0.0218909
0.0203866
0.0167952
0.0122126
0.00771679
0.00420964
0.00203493
0.00105
0.00153379
0.00215207
0.000910492
0.000682423
0.000646163
0.000665011
0.000709752
0.000771311
0.000848263
0.000942494
0.00105787
0.00119959
0.00137361
0.00158569
0.00184021
0.00213878
0.00247915
0.00285482
0.00325549
0.00366812
0.00407831
0.00447135
0.00483311
0.00515058
0.00541239
0.00560901
0.00572018
0.00576166
0.00573951
0.00562634
0.00544202
0.00520362
0.0049297
0.00464296
0.00436415
0.00411078
0.00389417
0.00371991
0.00358835
0.00349652
0.00344309
0.00341978
0.00341427
0.00342718
0.00346082
0.00351055
0.00357466
0.00365275
0.00374509
0.00385252
0.00397625
0.00411777
0.00427877
0.00446097
0.00466601
0.00489528
0.00514974
0.00542988
0.00573568
0.00606694
0.00642413
0.00680991
0.00723195
0.00770512
0.00824365
0.0088939
0.00975674
0.011002
0.0129027
0.0154776
0.0185645
0.0213972
0.0226938
0.0229125
0.0205972
0.0160761
0.0107881
0.00615442
0.00301686
0.00149128
0.00201385
0.00232339
0.000984052
0.000732119
0.000689479
0.000707119
0.000753565
0.000818986
0.000901944
0.00100462
0.00113128
0.00128753
0.0014795
0.00171276
0.0019909
0.00231408
0.00267799
0.00307375
0.00348859
0.00390731
0.00431368
0.00469167
0.00502638
0.00530462
0.00551503
0.00563267
0.00567427
0.00564474
0.00552309
0.00532452
0.00506663
0.00477166
0.00446383
0.00416683
0.00389954
0.00367418
0.0034956
0.00336297
0.0032717
0.00321825
0.00319423
0.00318743
0.0031945
0.00322048
0.00325996
0.00331139
0.0033745
0.00344976
0.00353819
0.00364121
0.00376058
0.0038983
0.00405658
0.00423774
0.00444408
0.00467769
0.00494024
0.00523263
0.00555463
0.00590483
0.00628076
0.00667978
0.00710091
0.00754832
0.00803715
0.00857551
0.00921347
0.0100501
0.0112767
0.0132314
0.0160736
0.0196287
0.0227248
0.0239744
0.0237425
0.0201585
0.0145177
0.00874469
0.00440341
0.00213249
0.00264545
0.00248657
0.00105617
0.000780342
0.000731154
0.000747585
0.00079587
0.000865399
0.00095469
0.00106618
0.00120449
0.00137552
0.00158546
0.00183947
0.00214014
0.00248594
0.00287037
0.00328206
0.00370588
0.00412455
0.00452026
0.00487604
0.00517672
0.00540932
0.00554558
0.00559449
0.00557083
0.00545106
0.00524826
0.0049798
0.00466936
0.00434367
0.00402881
0.00374602
0.00350878
0.00332217
0.00318451
0.00308979
0.00303122
0.00300313
0.00299308
0.00299252
0.00300753
0.00303503
0.0030722
0.00311903
0.00317601
0.00324422
0.00332509
0.00342039
0.00353218
0.00366281
0.00381485
0.00399113
0.0041946
0.00442821
0.00469468
0.00499616
0.00533371
0.0057067
0.00611223
0.00654518
0.00699909
0.00746847
0.00795328
0.00846769
0.00901932
0.00965822
0.0104974
0.0117555
0.013833
0.0170125
0.0210605
0.024184
0.0252498
0.0239023
0.0187019
0.0120154
0.0062825
0.00302352
0.00342552
0.00264046
0.00112652
0.000826884
0.000770988
0.000786179
0.000836384
0.000910187
0.00100602
0.00112654
0.00127664
0.00146243
0.00168998
0.00196389
0.00228551
0.00265147
0.00305297
0.00347619
0.00390373
0.00431646
0.00469528
0.00502276
0.00528444
0.00545273
0.00551712
0.00551037
0.00540427
0.00520782
0.00493774
0.00461816
0.00427763
0.00394484
0.00364393
0.00339065
0.00319126
0.00304397
0.00294197
0.0028759
0.00283906
0.00282243
0.00281717
0.00281899
0.00283372
0.00285678
0.00288764
0.00292694
0.00297564
0.00303509
0.00310692
0.00319301
0.00329552
0.00341693
0.00356004
0.00372801
0.00392431
0.0041527
0.00441699
0.00472079
0.00506693
0.00545685
0.00588963
0.00636089
0.00686221
0.00738226
0.00790963
0.00843942
0.00897905
0.00954988
0.0102022
0.0110726
0.0124157
0.014745
0.0183905
0.0229813
0.0256927
0.0262851
0.0229156
0.0159102
0.00871559
0.00419953
0.00432359
0.00278415
0.00119484
0.000871577
0.000808804
0.000822687
0.000874827
0.000952973
0.00105544
0.00118502
0.00134684
0.00154705
0.00179151
0.00208404
0.00242463
0.00280792
0.00322281
0.00365313
0.00407937
0.00448077
0.00483721
0.00513095
0.00534237
0.00543824
0.0054536
0.0053738
0.0051953
0.00493376
0.00461264
0.00426145
0.00391135
0.00358984
0.00331608
0.0030987
0.00293681
0.00282337
0.00274803
0.00270058
0.0026738
0.00266092
0.00265625
0.00265624
0.00266598
0.00268231
0.00270555
0.00273665
0.00277679
0.00282739
0.00289008
0.0029667
0.00305939
0.00317058
0.00330312
0.00346035
0.00364607
0.00386462
0.00412075
0.00441943
0.00476542
0.00516257
0.00561284
0.00611494
0.00666269
0.00724358
0.00783942
0.00843057
0.00900577
0.00955477
0.0101419
0.0108396
0.0117671
0.013277
0.0160482
0.0203693
0.0251783
0.027227
0.0265369
0.020228
0.0117509
0.00566838
0.0053068
0.00291691
0.00126092
0.000914285
0.000844451
0.000856914
0.000910927
0.000993381
0.00110242
0.00124093
0.00141414
0.00162817
0.0018885
0.00219804
0.00255528
0.00295286
0.00337741
0.00381054
0.00423093
0.00461654
0.0049466
0.00520251
0.0053472
0.0053936
0.00534896
0.00520053
0.00495912
0.00464608
0.00429061
0.00392564
0.00358225
0.00328394
0.00304319
0.00286134
0.00273189
0.00264399
0.00258607
0.0025488
0.00252556
0.00251118
0.00250371
0.0025011
0.00250377
0.00251296
0.00252876
0.00255219
0.00258446
0.00262692
0.0026811
0.00274872
0.00283178
0.00293262
0.003054
0.00319923
0.00337227
0.00357775
0.00382107
0.00410825
0.00444572
0.00483974
0.00529548
0.00581557
0.00639821
0.00703473
0.00770724
0.00838841
0.0090466
0.00967892
0.0102338
0.0108138
0.011563
0.012591
0.0143943
0.0178204
0.0230374
0.0273858
0.0285579
0.0245825
0.0154139
0.00743994
0.00632279
0.00303815
0.00132458
0.000954902
0.000877808
0.000888686
0.000944432
0.00103105
0.00114646
0.00129356
0.00147762
0.00170461
0.00197948
0.00230413
0.00267549
0.00308422
0.00351478
0.00394678
0.00435731
0.0047235
0.00502497
0.00523259
0.00531831
0.00531685
0.00521116
0.00500277
0.00470967
0.00435917
0.00398473
0.00362048
0.00329489
0.00302568
0.00281817
0.00266764
0.00256345
0.00249292
0.00244507
0.00241211
0.00238869
0.00237145
0.00235902
0.00235183
0.00234932
0.00235145
0.00236056
0.00237727
0.00240267
0.00243796
0.00248454
0.00254397
0.00261808
0.00270902
0.00281942
0.00295244
0.00311197
0.00330274
0.00353042
0.0038017
0.0041242
0.00450617
0.00495575
0.00547966
0.00608124
0.00675766
0.0074966
0.00827306
0.00904941
0.0097857
0.0104426
0.010998
0.0115591
0.012374
0.013591
0.0159373
0.0202993
0.0263787
0.0293257
0.0284139
0.0196702
0.00958235
0.00739302
0.00314744
0.00138568
0.000993356
0.000908778
0.000917853
0.000975109
0.00106563
0.00118706
0.00134226
0.00153641
0.00177524
0.00206308
0.00240076
0.0027836
0.00320038
0.00363357
0.004061
0.00445841
0.00480201
0.00507027
0.00522034
0.00526232
0.00521244
0.00505108
0.00479186
0.00445874
0.00408394
0.00370341
0.00335034
0.00304875
0.0028098
0.00263238
0.00250723
0.00242117
0.00236149
0.00231873
0.00228659
0.00226107
0.00224012
0.00222314
0.00221031
0.00220292
0.00220044
0.00220335
0.00221426
0.00223376
0.00226284
0.00230275
0.00235489
0.0024209
0.00250276
0.00260287
0.00272421
0.00287046
0.00304621
0.00325714
0.00351022
0.00381376
0.00417736
0.00461152
0.00512665
0.00573127
0.00642909
0.00721505
0.00807055
0.00895876
0.00982562
0.0106436
0.0112998
0.0118328
0.0123721
0.0132938
0.0148682
0.0181634
0.0239003
0.0294416
0.0308473
0.0243408
0.0122247
0.00863112
0.00324447
0.0014441
0.0010296
0.00093729
0.000944297
0.00100276
0.00109682
0.00122379
0.00138641
0.00158971
0.00183908
0.00213815
0.00248662
0.00287829
0.00330017
0.00373293
0.0041529
0.00453478
0.00485458
0.00508366
0.00518432
0.00518909
0.00508821
0.0048781
0.00457757
0.00421555
0.0038278
0.00345099
0.0031156
0.0028402
0.0026296
0.00247757
0.00237167
0.00229783
0.00224443
0.00220363
0.00217044
0.00214206
0.00211731
0.00209607
0.00207879
0.00206619
0.00206
0.00205858
0.00206419
0.00207857
0.00210226
0.00213633
0.00218204
0.00224086
0.00231459
0.0024054
0.00251602
0.00264986
0.00281125
0.00300567
0.00324
0.00352279
0.0038644
0.00427693
0.00477368
0.00536776
0.00606955
0.00688253
0.0077977
0.00878692
0.00979756
0.0107563
0.0115984
0.012233
0.0127136
0.0132603
0.0143982
0.0166205
0.0213401
0.0284938
0.0319416
0.0290327
0.0155257
0.0101807
0.00332909
0.00149976
0.00106361
0.000963301
0.00096793
0.00102723
0.00112436
0.00125627
0.0014255
0.00163685
0.00189529
0.00220372
0.0025607
0.00295863
0.00338288
0.00381261
0.00422288
0.00458773
0.00488311
0.00506779
0.00512805
0.00509748
0.00495125
0.0047002
0.00436768
0.00398667
0.00359503
0.00322862
0.00291406
0.00266427
0.00247851
0.00234677
0.00225479
0.00218881
0.00213869
0.00209803
0.00206297
0.0020316
0.00200334
0.00197837
0.00195725
0.00194067
0.00193026
0.00192615
0.00192714
0.00193695
0.00195589
0.00198482
0.00202486
0.00207735
0.00214391
0.00222649
0.00232757
0.00245025
0.00259852
0.0027775
0.00299379
0.00325578
0.00357406
0.0039616
0.00443367
0.005007
0.00569778
0.00651792
0.00746892
0.00853391
0.00966824
0.0107941
0.0118428
0.0126492
0.0132028
0.013606
0.014286
0.0158603
0.0194263
0.0262594
0.032257
0.0329206
0.0195981
0.0120226
0.00340124
0.00155259
0.00109542
0.000986782
0.000988704
0.0010484
0.00114805
0.00128419
0.00145909
0.00167727
0.00194321
0.00225905
0.00262231
0.00302404
0.00344825
0.00387277
0.00427163
0.00461789
0.00488552
0.00503013
0.00506091
0.00499269
0.00480801
0.00452394
0.00416803
0.0037763
0.00338745
0.00303536
0.00274228
0.0025158
0.00235078
0.00223462
0.00215236
0.00209121
0.00204254
0.00200107
0.0019639
0.00192975
0.00189842
0.00187029
0.00184597
0.00182622
0.00181184
0.00180461
0.00180276
0.00180822
0.00182288
0.00184724
0.00188227
0.00192919
0.00198947
0.00206488
0.00215764
0.00227054
0.0024072
0.0025723
0.00277199
0.00301428
0.00330958
0.0036711
0.0041152
0.00466116
0.00532989
0.00614097
0.00710689
0.00822435
0.00946301
0.0107538
0.0119877
0.0130349
0.0137523
0.0141422
0.0145208
0.0155646
0.0180078
0.0237779
0.0320547
0.0351777
0.024549
0.0139737
0.00346101
0.00160255
0.00112509
0.00100768
0.00100663
0.00106622
0.00116775
0.00130732
0.00148686
0.00171055
0.00198235
0.00230366
0.002671
0.00307429
0.00349632
0.00391387
0.00430011
0.00462798
0.00486998
0.00497586
0.00498336
0.00488047
0.00466404
0.00435444
0.00398265
0.0035867
0.00320509
0.00286904
0.00259638
0.00239009
0.00224176
0.0021372
0.00206156
0.00200327
0.00195496
0.00191231
0.00187308
0.00183648
0.00180254
0.0017717
0.00174463
0.00172201
0.00170456
0.00169391
0.00168987
0.00169153
0.00170226
0.00172248
0.00175304
0.00179506
0.00184987
0.00191908
0.00200467
0.00210916
0.00223578
0.00238874
0.00257368
0.00279806
0.0030718
0.00340789
0.00382308
0.0043381
0.0049773
0.00576653
0.00672833
0.00787326
0.00918696
0.0106139
0.0120425
0.0133587
0.0143141
0.0148018
0.0150497
0.0155455
0.0173133
0.0217958
0.0305683
0.036232
0.0299756
0.0160739
0.0035086
0.00164958
0.00115266
0.00102609
0.00102174
0.00108066
0.0011834
0.00132552
0.0015086
0.00173643
0.00201242
0.00233728
0.00270663
0.0031094
0.0035274
0.0039365
0.00430921
0.00462132
0.004834
0.0049122
0.00489772
0.00476552
0.0045238
0.00419546
0.00381402
0.00341864
0.00304688
0.00272695
0.00247263
0.00228318
0.00214789
0.00205175
0.00198053
0.00192384
0.00187532
0.00183139
0.00179032
0.00175162
0.00171545
0.00168231
0.00165284
0.00162774
0.00160769
0.00159371
0.00158716
0.00158608
0.0015931
0.00160955
0.00163609
0.00167375
0.00172378
0.00178763
0.00186712
0.00196447
0.00208255
0.00222515
0.00239731
0.00260587
0.00286008
0.00317241
0.00355938
0.00404238
0.00464792
0.00540665
0.00634981
0.00750153
0.00886582
0.0104089
0.0120395
0.0135991
0.0148501
0.0155071
0.0157695
0.0159976
0.0170501
0.0203638
0.0285011
0.0365895
0.0351364
0.0181599
0.0035443
0.00169363
0.00117818
0.00104214
0.00103408
0.00109176
0.00119497
0.00133873
0.00152421
0.00175476
0.00203329
0.00235979
0.00272913
0.00312938
0.00354141
0.00394079
0.00430291
0.00459998
0.00478334
0.0048429
0.00480676
0.00465153
0.00439065
0.00404953
0.00366344
0.00327193
0.00291113
0.00260631
0.00236775
0.00219188
0.00206648
0.00197635
0.00190802
0.00185214
0.00180315
0.001758
0.00171535
0.00167487
0.00163681
0.00160169
0.00157013
0.0015428
0.00152038
0.00150359
0.00149411
0.00149101
0.00149462
0.0015076
0.0015305
0.00156427
0.00161008
0.00166931
0.0017436
0.00183494
0.00194589
0.00207977
0.00224109
0.00243601
0.00267302
0.00296381
0.00332435
0.00377593
0.00434619
0.00506907
0.0059827
0.00712308
0.00851147
0.0101345
0.0119198
0.013718
0.0153146
0.0162523
0.0165706
0.0166366
0.0170385
0.0194139
0.026214
0.0366457
0.0392082
0.0200014
0.00356852
0.00173466
0.00120173
0.00105597
0.00104375
0.00109959
0.00120249
0.00134691
0.00153359
0.00176542
0.00204475
0.00237088
0.00273789
0.00313357
0.0035395
0.00393259
0.00428339
0.00456158
0.00472344
0.00476869
0.00471398
0.00454138
0.00426701
0.00391819
0.0035313
0.00314572
0.00279594
0.00250454
0.002279
0.00211371
0.0019956
0.00190963
0.00184314
0.00178759
0.00173803
0.00169182
0.00164783
0.00160588
0.00156623
0.00152941
0.00149602
0.0014667
0.00144212
0.00142294
0.00141056
0.00140554
0.00140621
0.00141601
0.00143557
0.00146584
0.00150792
0.00156312
0.00163297
0.00171929
0.00182432
0.00195101
0.00210331
0.0022867
0.00250887
0.00278065
0.00311711
0.00353902
0.00407426
0.00475879
0.00563591
0.00675189
0.00814473
0.00982387
0.0117409
0.0137574
0.0156742
0.0169909
0.0174753
0.0175194
0.0175593
0.0190051
0.0243226
0.0358633
0.0417429
0.0213899
0.00358178
0.00177267
0.00122341
0.00106771
0.00105085
0.00110418
0.00120588
0.00134982
0.00153634
0.00176783
0.00204615
0.00237036
0.00273502
0.00312726
0.00352764
0.00391082
0.00424784
0.00451145
0.00465669
0.00469106
0.0046219
0.00443721
0.00415445
0.00380219
0.00341739
0.00303887
0.00269943
0.00241941
0.00220417
0.00204679
0.00193383
0.00185062
0.00178521
0.00172972
0.0016796
0.00163249
0.00158743
0.00154427
0.0015033
0.00146504
0.00143007
0.00139902
0.00137256
0.00135136
0.00133625
0.0013289
0.00132752
0.00133433
0.00135084
0.00137791
0.00141664
0.00146831
0.00153436
0.00161646
0.00171664
0.00183746
0.00198238
0.00215623
0.00236587
0.00262117
0.0029362
0.00333085
0.00383259
0.00447826
0.00531475
0.00639652
0.00777664
0.00948749
0.0115098
0.013734
0.0159325
0.0176766
0.018415
0.0184784
0.018257
0.0189081
0.0231765
0.0341541
0.0428922
0.0221209
0.00358329
0.00180746
0.0012433
0.00107748
0.0010555
0.00110562
0.00120545
0.00134847
0.0015342
0.00176469
0.00204149
0.0023633
0.00272372
0.00310976
0.00350153
0.00387411
0.00420025
0.00445157
0.00458485
0.00461147
0.00453235
0.00434046
0.00405385
0.00370166
0.00332115
0.00295012
0.00261991
0.00234907
0.00214156
0.00198974
0.00188014
0.00179858
0.00173371
0.00167809
0.00162747
0.00157966
0.00153376
0.00148965
0.00144763
0.00140819
0.0013719
0.00133937
0.00131125
0.00128822
0.00127096
0.00126116
0.00125807
0.0012622
0.00127593
0.00130009
0.0013358
0.00138433
0.00144708
0.00152564
0.00162184
0.00173796
0.00187696
0.00204306
0.00224231
0.00248361
0.00277993
0.00315003
0.00362055
0.00422836
0.00502248
0.00606356
0.00741758
0.00913832
0.0112348
0.0136261
0.0161014
0.0182823
0.0193954
0.0195841
0.0191681
0.0191822
0.022234
0.032602
0.0432379
0.0224413
0.00357649
0.0018391
0.0012615
0.00108554
0.00105809
0.00110478
0.00120262
0.00134378
0.00152761
0.00175573
0.00202929
0.0023465
0.00270054
0.00307887
0.00346219
0.00382572
0.00414217
0.00438367
0.0045093
0.00453117
0.00444655
0.00425197
0.00396554
0.00361633
0.00324176
0.00287831
0.00255592
0.00229207
0.00208991
0.00194157
0.00183381
0.00175298
0.00168821
0.00163235
0.00158131
0.00153296
0.00148645
0.00144165
0.00139884
0.00135848
0.00132114
0.0012874
0.00125791
0.00123331
0.00121429
0.00120223
0.00119755
0.00119937
0.00121058
0.0012321
0.00126505
0.00131075
0.00137061
0.00144618
0.00153915
0.00165153
0.00178589
0.00194584
0.00213666
0.00236627
0.00264651
0.0029949
0.00343691
0.0040088
0.00476054
0.00575718
0.00707539
0.00878895
0.0109367
0.0134711
0.0162017
0.0187695
0.0203573
0.0207718
0.0202086
0.0198272
0.0217747
0.0309503
0.043082
0.0225458
0.00356047
0.00186774
0.00127828
0.00109207
0.00105873
0.00110183
0.00119637
0.0013345
0.00151522
0.00173966
0.00200859
0.00232001
0.00266719
0.00303751
0.00341215
0.00376696
0.00407504
0.00430913
0.00443102
0.00445109
0.00436523
0.00417212
0.00388936
0.00354574
0.00317831
0.0028223
0.00250629
0.00224734
0.00204834
0.0019016
0.00179434
0.00171343
0.00164836
0.00159216
0.00154076
0.00149204
0.00144514
0.0013999
0.00135656
0.00131556
0.00127744
0.00124278
0.00121221
0.00118637
0.00116591
0.00115189
0.00114565
0.00114558
0.00115456
0.00117367
0.00120412
0.00124726
0.00130457
0.00137758
0.00146792
0.00157739
0.00170821