/*--------------------------------*- C++ -*----------------------------------*\
  =========                 |
  \\      /  F ield         | OpenFOAM: The Open Source CFD Toolbox
   \\    /   O peration     | Website:  https://openfoam.org
    \\  /    A nd           | Version:  13
     \\/     M anipulation  |
\*---------------------------------------------------------------------------*/
FoamFile
{
    format      ascii;
    class       volScalarField;
    location    "1.8";
    object      nut;
}
// * * * * * * * * * * * * * * * * * * * * * * * * * * * * * * * * * * * * * //

dimensions      [0 2 -1 0 0 0 0];

internalField   nonuniform List<scalar> 
6400
(
3.60754e-10
1.78183e-09
3.82377e-09
6.01459e-09
8.17367e-09
1.02979e-08
1.24046e-08
1.4504e-08
1.66008e-08
1.86878e-08
2.07546e-08
2.27968e-08
2.48219e-08
2.68524e-08
2.89266e-08
3.10983e-08
3.34348e-08
3.6016e-08
3.89323e-08
4.22825e-08
4.61703e-08
5.06986e-08
5.59659e-08
6.20592e-08
6.90454e-08
7.69648e-08
8.58282e-08
9.56194e-08
1.06302e-07
1.17832e-07
1.30167e-07
1.43277e-07
1.57148e-07
1.71783e-07
1.87199e-07
2.03413e-07
2.20434e-07
2.38267e-07
2.56914e-07
2.76361e-07
2.96557e-07
3.17413e-07
3.38785e-07
3.60456e-07
3.82119e-07
4.03375e-07
4.2379e-07
4.43097e-07
4.61656e-07
4.82174e-07
5.01508e-07
5.18003e-07
5.30507e-07
5.39358e-07
5.43478e-07
5.43336e-07
5.35408e-07
5.20655e-07
4.98621e-07
4.69416e-07
4.33491e-07
3.91756e-07
3.45606e-07
2.96888e-07
2.47773e-07
2.00417e-07
1.56932e-07
1.19055e-07
8.77657e-08
6.34414e-08
4.55899e-08
3.25438e-08
2.32757e-08
1.67713e-08
1.21497e-08
8.72045e-09
5.99619e-09
3.68528e-09
1.72242e-09
3.54192e-10
1.79447e-09
1.5041e-07
4.92209e-07
8.41516e-07
1.15647e-06
1.43366e-06
1.6864e-06
1.92465e-06
2.15126e-06
2.36595e-06
2.56767e-06
2.75635e-06
2.93338e-06
3.10187e-06
3.26616e-06
3.4316e-06
3.60375e-06
3.7879e-06
3.98874e-06
4.20988e-06
4.45325e-06
4.71873e-06
5.00512e-06
5.3096e-06
5.62798e-06
5.95547e-06
6.28749e-06
6.62059e-06
6.95317e-06
7.28575e-06
7.62102e-06
7.96345e-06
8.31871e-06
8.69297e-06
9.09222e-06
9.52133e-06
9.98275e-06
1.04837e-05
1.10277e-05
1.16167e-05
1.22511e-05
1.29296e-05
1.3649e-05
1.44039e-05
1.51856e-05
1.5981e-05
1.67694e-05
1.75202e-05
1.81948e-05
1.87501e-05
1.92432e-05
1.97075e-05
2.00417e-05
2.0271e-05
2.04964e-05
2.05947e-05
2.05455e-05
2.0343e-05
1.99714e-05
1.94187e-05
1.86761e-05
1.77398e-05
1.66127e-05
1.53097e-05
1.38547e-05
1.22837e-05
1.06453e-05
8.99696e-06
7.40116e-06
5.89599e-06
4.51641e-06
3.37616e-06
2.49597e-06
1.84153e-06
1.35979e-06
9.9312e-07
6.90762e-07
4.10989e-07
1.39011e-07
1.76945e-09
4.03917e-09
4.948e-07
2.08779e-06
3.85399e-06
5.31202e-06
6.4863e-06
7.46464e-06
8.30758e-06
9.04531e-06
9.69126e-06
1.0253e-05
1.07388e-05
1.11604e-05
1.15333e-05
1.18787e-05
1.22152e-05
1.25592e-05
1.29257e-05
1.33264e-05
1.37677e-05
1.42491e-05
1.47644e-05
1.53101e-05
1.58771e-05
1.64547e-05
1.70326e-05
1.76028e-05
1.81614e-05
1.8709e-05
1.92511e-05
1.97969e-05
2.03587e-05
2.09499e-05
2.15842e-05
2.22745e-05
2.30329e-05
2.38943e-05
2.48368e-05
2.58438e-05
2.69136e-05
2.80374e-05
2.92047e-05
3.04026e-05
3.16159e-05
3.28272e-05
3.40166e-05
3.51616e-05
3.62371e-05
3.72222e-05
3.81281e-05
3.89553e-05
3.96884e-05
4.02931e-05
4.07586e-05
4.09789e-05
4.11728e-05
4.10793e-05
4.07434e-05
4.01425e-05
3.92586e-05
3.80821e-05
3.66077e-05
3.48252e-05
3.27505e-05
3.04005e-05
2.78132e-05
2.5041e-05
2.21513e-05
1.92277e-05
1.63594e-05
1.36388e-05
1.1164e-05
8.99782e-06
7.17236e-06
5.65556e-06
4.35491e-06
3.13186e-06
1.81748e-06
4.84694e-07
4.00049e-09
6.93555e-09
9.26501e-07
4.10067e-06
7.64704e-06
1.04951e-05
1.26764e-05
1.43913e-05
1.57843e-05
1.69377e-05
1.78956e-05
1.86858e-05
1.93318e-05
1.98589e-05
2.02952e-05
2.06686e-05
2.10113e-05
2.13542e-05
2.17221e-05
2.21332e-05
2.25994e-05
2.31275e-05
2.3717e-05
2.43543e-05
2.50265e-05
2.57209e-05
2.64266e-05
2.71363e-05
2.78478e-05
2.85644e-05
2.9294e-05
3.00478e-05
3.08383e-05
3.16772e-05
3.25732e-05
3.35303e-05
3.45443e-05
3.5608e-05
3.6731e-05
3.79076e-05
3.91229e-05
4.03588e-05
4.15958e-05
4.28139e-05
4.39936e-05
4.51177e-05
4.61725e-05
4.71508e-05
4.80566e-05
4.8883e-05
4.96232e-05
5.02683e-05
5.07964e-05
5.11867e-05
5.14207e-05
5.14204e-05
5.13602e-05
5.10542e-05
5.05122e-05
4.9718e-05
4.86316e-05
4.72495e-05
4.55949e-05
4.36192e-05
4.13529e-05
3.87902e-05
3.59674e-05
3.29249e-05
2.97207e-05
2.64345e-05
2.31634e-05
2.00149e-05
1.71015e-05
1.44951e-05
1.21962e-05
1.01368e-05
8.17191e-06
6.06468e-06
3.50648e-06
8.63496e-07
6.52837e-09
1.04314e-08
1.43039e-06
6.2063e-06
1.13806e-05
1.54336e-05
1.84693e-05
2.07917e-05
2.26194e-05
2.40827e-05
2.5256e-05
2.61865e-05
2.69116e-05
2.74685e-05
2.78973e-05
2.82404e-05
2.85417e-05
2.88431e-05
2.918e-05
2.95789e-05
3.00557e-05
3.06161e-05
3.12558e-05
3.19615e-05
3.2717e-05
3.35064e-05
3.43169e-05
3.51402e-05
3.59735e-05
3.68191e-05
3.76833e-05
3.85738e-05
3.94984e-05
4.04624e-05
4.14683e-05
4.25158e-05
4.36045e-05
4.47011e-05
4.57879e-05
4.68578e-05
4.78963e-05
4.88935e-05
4.98418e-05
5.07361e-05
5.15737e-05
5.23538e-05
5.30761e-05
5.37387e-05
5.4337e-05
5.48558e-05
5.52828e-05
5.56087e-05
5.58315e-05
5.59514e-05
5.59614e-05
5.58194e-05
5.55118e-05
5.52518e-05
5.46345e-05
5.386e-05
5.27927e-05
5.13901e-05
4.98222e-05
4.79113e-05
4.57433e-05
4.32556e-05
4.0497e-05
3.74794e-05
3.42434e-05
3.0862e-05
2.74333e-05
2.40764e-05
2.09193e-05
1.80667e-05
1.55516e-05
1.32885e-05
1.10455e-05
8.42956e-06
4.95427e-06
1.2115e-06
9.00652e-09
1.45767e-08
1.98118e-06
8.33228e-06
1.49681e-05
2.00694e-05
2.38383e-05
2.66718e-05
2.88526e-05
3.05528e-05
3.18746e-05
3.28831e-05
3.36294e-05
3.41624e-05
3.45347e-05
3.48029e-05
3.50253e-05
3.52569e-05
3.55439e-05
3.5919e-05
3.6399e-05
3.69861e-05
3.76699e-05
3.8432e-05
3.9251e-05
4.01068e-05
4.09837e-05
4.18709e-05
4.27634e-05
4.36605e-05
4.45638e-05
4.54755e-05
4.63962e-05
4.73241e-05
4.82538e-05
4.91771e-05
5.00826e-05
5.09541e-05
5.17828e-05
5.25634e-05
5.3289e-05
5.39578e-05
5.45689e-05
5.51217e-05
5.56148e-05
5.60508e-05
5.64287e-05
5.67451e-05
5.69932e-05
5.7174e-05
5.72871e-05
5.7334e-05
5.7315e-05
5.72168e-05
5.70309e-05
5.67584e-05
5.6404e-05
5.58343e-05
5.52817e-05
5.45942e-05
5.38606e-05
5.2911e-05
5.16451e-05
4.99482e-05
4.80649e-05
4.58127e-05
4.33039e-05
4.04783e-05
3.73567e-05
3.40043e-05
3.05125e-05
2.7003e-05
2.36229e-05
2.05185e-05
1.77797e-05
1.53569e-05
1.2979e-05
1.01069e-05
6.05175e-06
1.50623e-06
1.12722e-08
1.93004e-08
2.57003e-06
1.04438e-05
1.84076e-05
2.44409e-05
2.88519e-05
3.21215e-05
3.45893e-05
3.64653e-05
3.78771e-05
3.89076e-05
3.96217e-05
4.00817e-05
4.03549e-05
4.05143e-05
4.06343e-05
4.07839e-05
4.10176e-05
4.13703e-05
4.1855e-05
4.24661e-05
4.31842e-05
4.39831e-05
4.48353e-05
4.57164e-05
4.66073e-05
4.74949e-05
4.83711e-05
4.92314e-05
5.00733e-05
5.08941e-05
5.16899e-05
5.24549e-05
5.31818e-05
5.38625e-05
5.44891e-05
5.50549e-05
5.55588e-05
5.59999e-05
5.63729e-05
5.66842e-05
5.69406e-05
5.71444e-05
5.72859e-05
5.73814e-05
5.74323e-05
5.74409e-05
5.74066e-05
5.73395e-05
5.72419e-05
5.71127e-05
5.69511e-05
5.67576e-05
5.65266e-05
5.62457e-05
5.59022e-05
5.54743e-05
5.48759e-05
5.40963e-05
5.32689e-05
5.23792e-05
5.14473e-05
5.0491e-05
4.9134e-05
4.72069e-05
4.51139e-05
4.26131e-05
3.97251e-05
3.65145e-05
3.30541e-05
2.94533e-05
2.58645e-05
2.24669e-05
1.94158e-05
1.6743e-05
1.42149e-05
1.1213e-05
6.84833e-06
1.75041e-06
1.33245e-08
2.45312e-08
3.18241e-06
1.25086e-05
2.16928e-05
2.85733e-05
3.3559e-05
3.72065e-05
3.99069e-05
4.19055e-05
4.33544e-05
4.4355e-05
4.49881e-05
4.53322e-05
4.54724e-05
4.55006e-05
4.55084e-05
4.55763e-05
4.5763e-05
4.60999e-05
4.65911e-05
4.72196e-05
4.79554e-05
4.87638e-05
4.96118e-05
5.04711e-05
5.132e-05
5.21434e-05
5.29308e-05
5.36753e-05
5.43718e-05
5.50154e-05
5.5601e-05
5.61231e-05
5.65766e-05
5.69573e-05
5.72624e-05
5.74884e-05
5.7647e-05
5.77538e-05
5.77679e-05
5.77183e-05
5.76089e-05
5.74493e-05
5.73032e-05
5.71131e-05
5.68841e-05
5.66241e-05
5.63484e-05
5.60641e-05
5.5772e-05
5.5475e-05
5.51747e-05
5.48722e-05
5.45668e-05
5.42566e-05
5.39388e-05
5.36068e-05
5.32499e-05
5.28657e-05
5.2319e-05
5.15218e-05
5.06962e-05
4.96135e-05
4.87213e-05
4.76675e-05
4.61673e-05
4.40955e-05
4.15487e-05
3.86082e-05
3.5304e-05
3.17159e-05
2.7984e-05
2.43002e-05
2.08724e-05
1.78304e-05
1.50488e-05
1.19307e-05
7.43062e-06
1.96227e-06
1.52681e-08
3.01896e-08
3.80336e-06
1.45e-05
2.48122e-05
3.24754e-05
3.79846e-05
4.19636e-05
4.48509e-05
4.69253e-05
4.83638e-05
4.92882e-05
4.97981e-05
4.99923e-05
4.9977e-05
4.98647e-05
4.97623e-05
4.9758e-05
4.99088e-05
5.02366e-05
5.07326e-05
5.13666e-05
5.20979e-05
5.28844e-05
5.36883e-05
5.44788e-05
5.5233e-05
5.59344e-05
5.65719e-05
5.71377e-05
5.76264e-05
5.80335e-05
5.83559e-05
5.85905e-05
5.8737e-05
5.87978e-05
5.87855e-05
5.86434e-05
5.84084e-05
5.81077e-05
5.78568e-05
5.75458e-05
5.7196e-05
5.68237e-05
5.63871e-05
5.59439e-05
5.55012e-05
5.50512e-05
5.46122e-05
5.41872e-05
5.37681e-05
5.33593e-05
5.29624e-05
5.25797e-05
5.22135e-05
5.18645e-05
5.15327e-05
5.12178e-05
5.09154e-05
5.06172e-05
5.03074e-05
4.99815e-05
4.94831e-05
4.86963e-05
4.79603e-05
4.68861e-05
4.61486e-05
4.49209e-05
4.28027e-05
4.02782e-05
3.72845e-05
3.38547e-05
3.01019e-05
2.62092e-05
2.24101e-05
1.89193e-05
1.57555e-05
1.24488e-05
7.89012e-06
2.16624e-06
1.72796e-08
3.61872e-08
4.41966e-06
1.64043e-05
2.77519e-05
3.61477e-05
4.21394e-05
4.64117e-05
4.94467e-05
5.15562e-05
5.2943e-05
5.3752e-05
5.41058e-05
5.41271e-05
5.39463e-05
5.36956e-05
5.34943e-05
5.34322e-05
5.35584e-05
5.38809e-05
5.43755e-05
5.49986e-05
5.56999e-05
5.64314e-05
5.71524e-05
5.7831e-05
5.84441e-05
5.89755e-05
5.94145e-05
5.97544e-05
5.99916e-05
6.01245e-05
6.01546e-05
6.0079e-05
5.99076e-05
5.9613e-05
5.92043e-05
5.87474e-05
5.82419e-05
5.78443e-05
5.73293e-05
5.67506e-05
5.61689e-05
5.56027e-05
5.50528e-05
5.45251e-05
5.40634e-05
5.35642e-05
5.30627e-05
5.26136e-05
5.21627e-05
5.17133e-05
5.12615e-05
5.08098e-05
5.03615e-05
4.99214e-05
4.9497e-05
4.90985e-05
4.87337e-05
4.84039e-05
4.81023e-05
4.784e-05
4.75967e-05
4.73458e-05
4.68352e-05
4.60876e-05
4.52364e-05
4.44627e-05
4.33722e-05
4.14161e-05
3.89004e-05
3.57999e-05
3.21909e-05
2.82297e-05
2.41456e-05
2.02037e-05
1.65603e-05
1.29454e-05
8.31729e-06
2.38722e-06
1.96053e-08
4.24244e-08
5.02095e-06
1.82053e-05
3.05047e-05
3.95888e-05
4.60281e-05
5.05608e-05
5.37098e-05
5.58193e-05
5.712e-05
5.7783e-05
5.79582e-05
5.77956e-05
5.74504e-05
5.70728e-05
5.67892e-05
5.66847e-05
5.67951e-05
5.71117e-05
5.7594e-05
5.81864e-05
5.88307e-05
5.94749e-05
6.00771e-05
6.06058e-05
6.10388e-05
6.13615e-05
6.15651e-05
6.16454e-05
6.1602e-05
6.14345e-05
6.11722e-05
6.07342e-05
6.00949e-05
5.96252e-05
5.9132e-05
5.83929e-05
5.76743e-05
5.7019e-05
5.63301e-05
5.56819e-05
5.50843e-05
5.45399e-05
5.405e-05
5.35642e-05
5.31967e-05
5.2898e-05
5.24511e-05
5.20929e-05
5.17149e-05
5.13093e-05
5.08596e-05
5.03692e-05
4.98371e-05
4.92665e-05
4.86704e-05
4.807e-05
4.74939e-05
4.6966e-05
4.6461e-05
4.60377e-05
4.57047e-05
4.54395e-05
4.52129e-05
4.50011e-05
4.43574e-05
4.375e-05
4.28116e-05
4.18974e-05
4.00152e-05
3.74129e-05
3.41304e-05
3.02838e-05
2.60695e-05
2.17627e-05
1.76164e-05
1.35766e-05
8.79653e-06
2.65237e-06
2.25754e-08
4.88042e-08
5.59952e-06
1.98884e-05
3.30677e-05
4.27978e-05
4.96529e-05
5.44167e-05
5.76507e-05
5.97313e-05
6.0919e-05
6.14151e-05
6.13999e-05
6.10531e-05
6.05541e-05
6.00669e-05
5.97191e-05
5.95856e-05
5.96849e-05
5.99901e-05
6.04457e-05
6.09854e-05
6.15455e-05
6.20722e-05
6.25237e-05
6.28701e-05
6.30916e-05
6.31763e-05
6.31195e-05
6.29219e-05
6.25818e-05
6.20085e-05
6.13129e-05
6.08071e-05
6.00278e-05
5.9273e-05
5.85084e-05
5.75918e-05
5.68054e-05
5.61086e-05
5.54716e-05
5.49282e-05
5.44827e-05
5.41232e-05
5.3839e-05
5.35863e-05
5.34502e-05
5.3307e-05
5.30578e-05
5.28677e-05
5.2619e-05
5.23307e-05
5.19913e-05
5.15758e-05
5.10694e-05
5.04625e-05
4.97478e-05
4.89228e-05
4.79983e-05
4.70169e-05
4.60994e-05
4.52706e-05
4.46055e-05
4.41005e-05
4.36974e-05
4.34814e-05
4.33508e-05
4.28064e-05
4.21914e-05
4.12914e-05
4.04527e-05
3.85413e-05
3.57529e-05
3.22204e-05
2.80748e-05
2.3564e-05
1.8985e-05
1.44599e-05
9.40522e-06
2.99102e-06
2.66568e-08
5.52356e-08
6.14944e-06
2.14464e-05
3.54392e-05
4.57747e-05
5.30155e-05
5.79845e-05
6.12789e-05
6.33076e-05
6.43637e-05
6.46812e-05
6.44741e-05
6.3952e-05
6.3316e-05
6.27391e-05
6.23442e-05
6.21911e-05
6.22793e-05
6.25635e-05
6.29749e-05
6.34392e-05
6.38892e-05
6.42708e-05
6.4544e-05
6.46823e-05
6.46691e-05
6.44937e-05
6.41721e-05
6.35369e-05
6.28055e-05
6.2166e-05
6.13049e-05
6.05034e-05
5.95364e-05
5.85403e-05
5.76613e-05
5.68046e-05
5.61009e-05
5.55474e-05
5.51227e-05
5.48355e-05
5.46724e-05
5.46018e-05
5.46054e-05
5.46308e-05
5.47188e-05
5.47569e-05
5.4754e-05
5.47338e-05
5.46444e-05
5.44859e-05
5.42429e-05
5.3904e-05
5.34553e-05
5.28894e-05
5.2197e-05
5.13691e-05
5.03992e-05
4.92846e-05
4.80307e-05
4.66328e-05
4.51528e-05
4.38321e-05
4.2906e-05
4.22845e-05
4.18626e-05
4.1698e-05
4.12078e-05
4.06112e-05
3.97937e-05
3.89243e-05
3.68864e-05
3.38542e-05
2.99942e-05
2.54846e-05
2.06271e-05
1.56504e-05
1.01949e-05
3.42955e-06
3.2479e-08
6.16356e-08
6.66654e-06
2.28762e-05
3.76191e-05
4.85205e-05
5.61188e-05
6.12697e-05
6.46041e-05
6.65645e-05
6.74779e-05
6.76143e-05
6.72223e-05
6.65405e-05
6.57879e-05
6.5141e-05
6.47128e-05
6.45451e-05
6.46174e-05
6.48677e-05
6.52161e-05
6.55824e-05
6.58982e-05
6.61107e-05
6.61837e-05
6.60962e-05
6.58418e-05
6.52971e-05
6.44711e-05
6.3741e-05
6.28974e-05
6.20025e-05
6.09489e-05
5.98344e-05
5.87874e-05
5.78055e-05
5.69877e-05
5.63154e-05
5.58469e-05
5.55767e-05
5.5474e-05
5.55083e-05
5.57367e-05
5.59384e-05
5.61137e-05
5.6474e-05
5.67147e-05
5.69246e-05
5.7073e-05
5.71536e-05
5.71397e-05
5.70274e-05
5.68095e-05
5.64866e-05
5.60453e-05
5.54824e-05
5.47933e-05
5.39695e-05
5.3005e-05
5.18937e-05
5.06286e-05
4.92137e-05
4.76537e-05
4.59242e-05
4.40147e-05
4.2173e-05
4.10873e-05
4.04243e-05
4.01213e-05
3.96113e-05
3.90576e-05
3.82847e-05
3.73277e-05
3.50007e-05
3.16388e-05
2.73457e-05
2.24155e-05
1.7103e-05
1.12109e-05
3.99059e-06
4.08856e-08
6.79315e-08
7.14804e-06
2.41768e-05
3.9609e-05
5.10376e-05
5.89666e-05
6.42789e-05
6.76375e-05
6.95189e-05
7.02864e-05
7.02469e-05
6.96836e-05
6.88619e-05
6.8014e-05
6.73147e-05
6.6863e-05
6.6681e-05
6.6729e-05
6.69304e-05
6.71962e-05
6.74433e-05
6.76034e-05
6.76271e-05
6.74818e-05
6.71466e-05
6.6404e-05
6.55424e-05
6.4745e-05
6.37573e-05
6.27072e-05
6.14745e-05
6.02817e-05
5.91309e-05
5.81243e-05
5.7289e-05
5.66864e-05
5.63146e-05
5.61823e-05
5.62623e-05
5.65778e-05
5.6996e-05
5.7321e-05
5.77913e-05
5.83244e-05
5.87844e-05
5.91734e-05
5.94903e-05
5.97156e-05
5.9837e-05
5.98425e-05
5.97284e-05
5.94897e-05
5.91194e-05
5.86157e-05
5.79795e-05
5.72161e-05
5.63227e-05
5.53005e-05
5.41544e-05
5.28966e-05
5.1518e-05
5.00187e-05
4.83532e-05
4.65208e-05
4.44951e-05
4.21577e-05
4.0132e-05
3.91271e-05
3.86118e-05
3.80337e-05
3.75554e-05
3.66901e-05
3.5517e-05
3.28336e-05
2.89546e-05
2.41728e-05
1.87025e-05
1.24527e-05
4.67394e-06
5.28842e-08
7.40604e-08
7.5922e-06
2.53491e-05
4.14117e-05
5.33299e-05
6.15642e-05
6.70201e-05
7.03915e-05
7.21893e-05
7.28139e-05
7.261e-05
7.1894e-05
7.09543e-05
7.00313e-05
6.92937e-05
6.8824e-05
6.86241e-05
6.86366e-05
6.87727e-05
6.89372e-05
6.90454e-05
6.90306e-05
6.88444e-05
6.84515e-05
6.75918e-05
6.67065e-05
6.58011e-05
6.47463e-05
6.35182e-05
6.21735e-05
6.08466e-05
5.96222e-05
5.85534e-05
5.77179e-05
5.71482e-05
5.68698e-05
5.6867e-05
5.71072e-05
5.76885e-05
5.82736e-05
5.87375e-05
5.94502e-05
6.0195e-05
6.0857e-05
6.14433e-05
6.19427e-05
6.23386e-05
6.26177e-05
6.27695e-05
6.27876e-05
6.26693e-05
6.24135e-05
6.20219e-05
6.15164e-05
6.0894e-05
6.01352e-05
5.92117e-05
5.81227e-05
5.68492e-05
5.54233e-05
5.38246e-05
5.21083e-05
5.0332e-05
4.85909e-05
4.67911e-05
4.46101e-05
4.21641e-05
3.94656e-05
3.78766e-05
3.70753e-05
3.64079e-05
3.59952e-05
3.48979e-05
3.34417e-05
3.01455e-05
2.5719e-05
2.02931e-05
1.38506e-05
5.45708e-06
6.9459e-08
7.99618e-08
7.99802e-06
2.63951e-05
4.3031e-05
5.54021e-05
6.39183e-05
6.95029e-05
7.28796e-05
7.45944e-05
7.5085e-05
7.4733e-05
7.38855e-05
7.28496e-05
7.18696e-05
7.11041e-05
7.06178e-05
7.03932e-05
7.03573e-05
7.04118e-05
7.04573e-05
7.04092e-05
7.02015e-05
6.97816e-05
6.88658e-05
6.79284e-05
6.6965e-05
6.58406e-05
6.44645e-05
6.30091e-05
6.15714e-05
6.0241e-05
5.91044e-05
5.82311e-05
5.76745e-05
5.74483e-05
5.75402e-05
5.79731e-05
5.8732e-05
5.94666e-05
6.01296e-05
6.10048e-05
6.19907e-05
6.28635e-05
6.36619e-05
6.43678e-05
6.49648e-05
6.54374e-05
6.5774e-05
6.59662e-05
6.60087e-05
6.58991e-05
6.56369e-05
6.52238e-05
6.46622e-05
6.39619e-05
6.31436e-05
6.22481e-05
6.12338e-05
6.00502e-05
5.86159e-05
5.69334e-05
5.506e-05
5.29635e-05
5.06937e-05
4.85078e-05
4.65593e-05
4.44664e-05
4.18376e-05
3.88619e-05
3.66411e-05
3.55737e-05
3.46923e-05
3.4212e-05
3.28892e-05
3.08156e-05
2.69092e-05
2.17241e-05
1.52656e-05
6.29174e-06
9.12381e-08
8.55828e-08
8.36511e-06
2.73176e-05
4.44714e-05
5.72599e-05
6.60363e-05
7.17377e-05
7.51165e-05
7.67534e-05
7.71232e-05
7.66426e-05
7.5686e-05
7.45748e-05
7.35526e-05
7.27658e-05
7.22609e-05
7.20027e-05
7.19051e-05
7.18623e-05
7.17734e-05
7.15555e-05
7.11404e-05
7.02219e-05
6.91908e-05
6.82255e-05
6.70416e-05
6.55661e-05
6.40046e-05
6.24496e-05
6.10045e-05
5.97682e-05
5.8826e-05
5.82375e-05
5.80249e-05
5.81722e-05
5.87373e-05
5.96517e-05
6.05705e-05
6.1401e-05
6.24163e-05
6.36162e-05
6.47343e-05
6.57521e-05
6.66839e-05
6.75051e-05
6.81991e-05
6.87516e-05
6.91515e-05
6.93904e-05
6.94629e-05
6.93663e-05
6.91005e-05
6.86683e-05
6.80749e-05
6.73276e-05
6.64332e-05
6.53939e-05
6.42491e-05
6.30533e-05
6.17598e-05
6.0261e-05
5.84126e-05
5.62876e-05
5.38697e-05
5.11557e-05
4.85095e-05
4.61218e-05
4.39108e-05
4.11834e-05
3.79318e-05
3.52786e-05
3.40576e-05
3.29532e-05
3.22366e-05
3.07728e-05
2.76476e-05
2.28589e-05
1.65394e-05
7.09675e-06
1.18095e-07
9.08837e-08
8.69357e-06
2.81199e-05
4.57378e-05
5.89099e-05
6.79269e-05
7.37359e-05
7.71172e-05
7.86852e-05
7.89508e-05
7.8363e-05
7.73194e-05
7.61514e-05
7.50988e-05
7.4294e-05
7.37661e-05
7.34643e-05
7.32917e-05
7.31373e-05
7.29012e-05
7.25082e-05
7.16803e-05
7.05021e-05
6.95934e-05
6.83649e-05
6.68278e-05
6.51679e-05
6.34961e-05
6.19219e-05
6.05577e-05
5.95055e-05
5.88381e-05
5.85876e-05
5.87416e-05
5.93662e-05
6.04047e-05
6.15057e-05
6.25189e-05
6.3683e-05
6.49895e-05
6.63892e-05
6.76439e-05
6.8809e-05
6.98706e-05
7.08058e-05
7.15981e-05
7.22333e-05
7.26999e-05
7.29889e-05
7.30938e-05
7.30109e-05
7.27397e-05
7.22827e-05
7.16462e-05
7.08394e-05
6.98739e-05
6.87622e-05
6.75161e-05
6.61371e-05
6.46738e-05
6.32204e-05
6.16211e-05
5.96799e-05
5.73441e-05
5.45363e-05
5.1535e-05
4.8528e-05
4.56153e-05
4.30703e-05
4.02041e-05
3.65858e-05
3.3703e-05
3.22558e-05
3.12712e-05
3.00556e-05
2.79311e-05
2.35917e-05
1.7547e-05
7.77532e-06
1.48979e-07
9.58331e-08
8.9838e-06
2.88057e-05
4.68355e-05
6.03589e-05
6.95991e-05
7.55096e-05
7.88968e-05
8.04081e-05
8.05881e-05
7.9915e-05
7.88055e-05
7.75969e-05
7.65224e-05
7.57004e-05
7.51436e-05
7.47881e-05
7.45282e-05
7.42486e-05
7.38463e-05
7.32077e-05
7.19772e-05
7.09893e-05
6.98045e-05
6.82458e-05
6.6503e-05
6.47209e-05
6.30095e-05
6.14928e-05
6.02893e-05
5.94918e-05
5.91478e-05
5.92522e-05
5.98418e-05
6.09665e-05
6.22351e-05
6.3408e-05
6.47492e-05
6.61928e-05
6.77056e-05
6.92654e-05
7.06726e-05
7.19793e-05
7.31669e-05
7.42138e-05
7.51039e-05
7.58227e-05
7.63582e-05
7.67005e-05
7.68418e-05
7.6777e-05
7.65041e-05
7.60245e-05
7.53436e-05
7.44711e-05
7.34211e-05
7.22111e-05
7.08604e-05
6.93871e-05
6.78048e-05
6.61104e-05
6.4412e-05
6.26874e-05
6.0657e-05
5.80192e-05
5.49346e-05
5.18574e-05
4.84405e-05
4.50351e-05
4.1989e-05
3.88242e-05
3.47919e-05
3.18549e-05
3.01222e-05
2.93684e-05
2.74765e-05
2.38962e-05
1.81912e-05
8.26457e-06
1.82738e-07
1.00405e-07
9.23647e-06
2.93786e-05
4.77702e-05
6.16143e-05
7.10625e-05
7.7071e-05
8.04702e-05
8.19393e-05
8.20537e-05
8.1317e-05
8.0161e-05
7.89252e-05
7.78349e-05
7.69944e-05
7.64022e-05
7.59834e-05
7.56268e-05
7.5216e-05
7.46493e-05
7.35553e-05
7.23825e-05
7.12725e-05
6.97869e-05
6.80032e-05
6.61295e-05
6.42839e-05
6.25984e-05
6.1208e-05
6.02276e-05
5.97302e-05
5.97339e-05
6.02079e-05
6.13281e-05
6.27237e-05
6.40588e-05
6.55159e-05
6.71365e-05
6.8834e-05
7.0524e-05
7.21839e-05
7.37603e-05
7.52026e-05
7.65099e-05
7.76635e-05
7.86477e-05
7.94485e-05
8.00537e-05
8.04528e-05
8.06372e-05
8.06001e-05
8.03373e-05
7.98476e-05
7.91341e-05
7.82044e-05
7.70721e-05
7.57563e-05
7.4281e-05
7.26727e-05
7.09562e-05
6.91491e-05
6.72549e-05
6.53248e-05
6.345e-05
6.12473e-05
5.83012e-05
5.49498e-05
5.17439e-05
4.79588e-05
4.41617e-05
4.05822e-05
3.70361e-05
3.26538e-05
2.99036e-05
2.78848e-05
2.68292e-05
2.39238e-05
1.84991e-05
8.59017e-06
2.17605e-07
1.04581e-07
9.4524e-06
2.98428e-05
4.85477e-05
6.26838e-05
7.23271e-05
7.84322e-05
8.18521e-05
8.32948e-05
8.3364e-05
8.25846e-05
8.13993e-05
8.01475e-05
7.90453e-05
7.81839e-05
7.75496e-05
7.70588e-05
7.6596e-05
7.6045e-05
7.5198e-05
7.38221e-05
7.27694e-05
7.14308e-05
6.96473e-05
6.77179e-05
6.57563e-05
6.39009e-05
6.22999e-05
6.10907e-05
6.03737e-05
6.01931e-05
6.05338e-05
6.15181e-05
6.2967e-05
6.44831e-05
6.60098e-05
6.77499e-05
6.96045e-05
7.14967e-05
7.33659e-05
7.51433e-05
7.68244e-05
7.84088e-05
7.98285e-05
8.10796e-05
8.21501e-05
8.30278e-05
8.37012e-05
8.41601e-05
8.43953e-05
8.43987e-05
8.41635e-05
8.36853e-05
8.29629e-05
8.19997e-05
8.08055e-05
7.93972e-05
7.78001e-05
7.60458e-05
7.417e-05
7.22065e-05
7.01794e-05
6.80935e-05
6.59638e-05
6.3925e-05
6.14057e-05
5.80921e-05
5.47045e-05
5.12392e-05
4.70357e-05
4.2789e-05
3.88284e-05
3.46338e-05
3.01919e-05
2.73903e-05
2.62215e-05
2.36788e-05
1.85697e-05
8.84004e-06
2.54366e-07
1.08344e-07
9.63259e-06
3.02024e-05
4.9174e-05
6.35752e-05
7.34027e-05
7.96054e-05
8.30562e-05
8.44894e-05
8.45335e-05
8.37309e-05
8.25318e-05
8.1273e-05
8.01613e-05
7.92762e-05
7.85941e-05
7.80257e-05
7.74539e-05
7.67638e-05
7.55448e-05
7.42695e-05
7.31432e-05
7.14141e-05
6.94695e-05
6.74267e-05
6.54192e-05
6.36027e-05
6.21347e-05
6.11463e-05
6.07158e-05
6.08548e-05
6.15752e-05
6.29859e-05
6.46505e-05
6.62574e-05
6.80558e-05
7.00319e-05
7.20841e-05
7.41425e-05
7.61528e-05
7.80739e-05
7.98505e-05
8.15076e-05
8.30432e-05
8.43811e-05
8.5526e-05
8.64713e-05
8.72078e-05
8.77267e-05
8.8019e-05
8.80759e-05
8.78885e-05
8.74484e-05
8.67493e-05
8.57882e-05
8.45682e-05
8.31003e-05
8.1406e-05
7.95175e-05
7.74765e-05
7.53297e-05
7.3121e-05
7.08809e-05
6.86155e-05
6.6335e-05
6.41386e-05
6.12175e-05
5.74915e-05
5.41377e-05
5.02642e-05
4.55442e-05
4.09608e-05
3.65633e-05
3.16483e-05
2.75324e-05
2.47763e-05
2.31508e-05
1.8544e-05
9.16868e-06
2.96965e-07
1.11685e-07
9.77814e-06
3.04618e-05
4.96552e-05
6.42965e-05
7.42992e-05
8.06024e-05
8.40955e-05
8.55366e-05
8.55751e-05
8.47673e-05
8.35679e-05
8.23094e-05
8.11896e-05
8.02781e-05
7.95431e-05
7.88899e-05
7.81959e-05
7.73139e-05
7.5837e-05
7.46829e-05
7.32711e-05
7.13554e-05
6.9279e-05
6.71575e-05
6.51436e-05
6.34068e-05
6.21063e-05
6.13593e-05
6.12171e-05
6.16637e-05
6.28312e-05
6.45086e-05
6.62887e-05
6.80859e-05
7.01257e-05
7.23002e-05
7.45195e-05
7.67194e-05
7.8851e-05
8.08776e-05
8.27699e-05
8.44699e-05
8.60645e-05
8.74858e-05
8.86903e-05
8.96897e-05
9.048e-05
9.1055e-05
9.14074e-05
9.15285e-05
9.14078e-05
9.10337e-05
9.03939e-05
8.9478e-05
8.82798e-05
8.6801e-05
8.50542e-05
8.30666e-05
8.088e-05
7.85489e-05
7.61329e-05
7.36861e-05
7.1242e-05
6.88002e-05
6.63979e-05
6.39449e-05
6.05175e-05
5.67483e-05
5.31287e-05
4.87608e-05
4.33921e-05
3.84761e-05
3.37351e-05
2.83285e-05
2.44019e-05
2.26973e-05
1.8594e-05
9.67455e-06
3.50297e-07
1.14597e-07
9.89026e-06
3.06255e-05
4.99981e-05
6.48555e-05
7.50262e-05
8.14342e-05
8.49822e-05
8.64485e-05
8.65e-05
8.57035e-05
8.45155e-05
8.32634e-05
8.21368e-05
8.11967e-05
8.04063e-05
7.96704e-05
7.88744e-05
7.76852e-05
7.61877e-05
7.51071e-05
7.33218e-05
7.12767e-05
6.90995e-05
6.69323e-05
6.49459e-05
6.33195e-05
6.22086e-05
6.17122e-05
6.18571e-05
6.26138e-05
6.41493e-05
6.60175e-05
6.78971e-05
6.99212e-05
7.2162e-05
7.45026e-05
7.68612e-05
7.91782e-05
8.14085e-05
8.35183e-05
8.54838e-05
8.72493e-05
8.88314e-05
9.03162e-05
9.15647e-05
9.26016e-05
9.34321e-05
9.40549e-05
9.44656e-05
9.46571e-05
9.46186e-05
9.43357e-05
9.37909e-05
9.29656e-05
9.18431e-05
9.04123e-05
8.86734e-05
8.66421e-05
8.43539e-05
8.18642e-05
7.92442e-05
7.65693e-05
7.39035e-05
7.12787e-05
6.86776e-05
6.6217e-05
6.32992e-05
5.93279e-05
5.56964e-05
5.16295e-05
4.65546e-05
4.05959e-05
3.53041e-05
2.98105e-05
2.48058e-05
2.18987e-05
1.868e-05
1.02207e-05
4.1359e-07
1.17079e-07
9.97019e-06
3.06979e-05
5.02099e-05
6.526e-05
7.55931e-05
8.21117e-05
8.57277e-05
8.72361e-05
8.73182e-05
8.65479e-05
8.53816e-05
8.41414e-05
8.3009e-05
8.20393e-05
8.11917e-05
8.03696e-05
7.94573e-05
7.80263e-05
7.66317e-05
7.53257e-05
7.33634e-05
7.12035e-05
6.89516e-05
6.67667e-05
6.48341e-05
6.3338e-05
6.24246e-05
6.21697e-05
6.25691e-05
6.36813e-05
6.54619e-05
6.74803e-05
6.94743e-05
7.17094e-05
7.41162e-05
7.65932e-05
7.9064e-05
8.1472e-05
8.37743e-05
8.59384e-05
8.79401e-05
8.97605e-05
9.13389e-05
9.27993e-05
9.40837e-05
9.51397e-05
9.59933e-05
9.66509e-05
9.71131e-05
9.73758e-05
9.74293e-05
9.7258e-05
9.68399e-05
9.61488e-05
9.51564e-05
9.38376e-05
9.2176e-05
9.01712e-05
8.78451e-05
8.52463e-05
8.24494e-05
7.95464e-05
7.66304e-05
7.37724e-05
7.09963e-05
6.82576e-05
6.56428e-05
6.20714e-05
5.80267e-05
5.4219e-05
4.95767e-05
4.34295e-05
3.72387e-05
3.17026e-05
2.56056e-05
2.09312e-05
1.85689e-05
1.05872e-05
4.80608e-07
1.19134e-07
1.00193e-05
3.06826e-05
5.0301e-05
6.55164e-05
7.60087e-05
8.26449e-05
8.63422e-05
8.79093e-05
8.80383e-05
8.73079e-05
8.61727e-05
8.49492e-05
8.38128e-05
8.28137e-05
8.19089e-05
8.09997e-05
7.99522e-05
7.83065e-05
7.71031e-05
7.54824e-05
7.34072e-05
7.11541e-05
6.88504e-05
6.667e-05
6.48089e-05
6.34522e-05
6.27335e-05
6.27071e-05
6.33505e-05
6.47701e-05
6.67306e-05
6.88505e-05
7.10036e-05
7.34062e-05
7.59473e-05
7.8532e-05
8.1088e-05
8.35605e-05
8.59083e-05
8.81008e-05
9.01165e-05
9.19427e-05
9.35236e-05
9.49094e-05
9.61992e-05
9.72544e-05
9.81116e-05
9.87874e-05
9.92893e-05
9.96182e-05
9.97673e-05
9.97212e-05
9.94552e-05
9.89363e-05
9.81252e-05
9.69816e-05
9.54705e-05
9.35709e-05
9.12851e-05
8.86466e-05
8.57244e-05
8.26189e-05
7.94474e-05
7.63192e-05
7.33057e-05
7.04146e-05
6.76511e-05
6.45921e-05
6.03171e-05
5.64603e-05
5.22683e-05
4.65323e-05
3.93923e-05
3.31987e-05
2.69674e-05
2.12593e-05
1.83691e-05
1.10242e-05
5.52733e-07
1.20768e-07
1.00394e-05
3.05851e-05
5.02756e-05
6.56322e-05
7.62818e-05
8.30432e-05
8.68354e-05
8.84771e-05
8.86686e-05
8.79906e-05
8.68953e-05
8.56936e-05
8.45562e-05
8.3531e-05
8.25767e-05
8.16033e-05
8.03698e-05
7.8694e-05
7.74863e-05
7.56305e-05
7.34677e-05
7.11428e-05
6.88065e-05
6.66463e-05
6.48661e-05
6.36482e-05
6.31133e-05
6.32969e-05
6.41631e-05
6.58212e-05
6.79197e-05
7.01338e-05
7.24404e-05
7.49752e-05
7.76205e-05
8.02855e-05
8.28999e-05
8.54106e-05
8.77776e-05
8.99716e-05
9.19729e-05
9.37701e-05
9.53417e-05
9.66524e-05
9.78772e-05
9.89159e-05
9.97561e-05
0.000100431
0.000100957
0.000101341
0.000101583
0.000101669
0.000101572
0.000101256
0.000100671
9.97605e-05
9.84711e-05
9.67578e-05
9.45981e-05
9.20033e-05
8.90271e-05
8.57684e-05
8.23604e-05
7.89466e-05
7.56443e-05
7.25039e-05
6.94773e-05
6.656e-05
6.26606e-05
5.84075e-05
5.4667e-05
4.93407e-05
4.20828e-05
3.48623e-05
2.84583e-05
2.17964e-05
1.80563e-05
1.15182e-05
6.2427e-07
1.21993e-07
1.0032e-05
3.04111e-05
5.01369e-05
6.56159e-05
7.64205e-05
8.33155e-05
8.72165e-05
8.89486e-05
8.92171e-05
8.86039e-05
8.75579e-05
8.63857e-05
8.52552e-05
8.42167e-05
8.32232e-05
8.21271e-05
8.06888e-05
7.91051e-05
7.7801e-05
7.58014e-05
7.35594e-05
7.11803e-05
6.88263e-05
6.66959e-05
6.49979e-05
6.39105e-05
6.35411e-05
6.39096e-05
6.49668e-05
6.68002e-05
6.90087e-05
7.13142e-05
7.37508e-05
7.63863e-05
7.91077e-05
8.18265e-05
8.44739e-05
8.69977e-05
8.93595e-05
9.15308e-05
9.34938e-05
9.52392e-05
9.6766e-05
9.80161e-05
9.91158e-05
0.000100116
0.000100917
0.00010157
0.000102101
0.000102527
0.000102853
0.000103069
0.000103152
0.00010306
0.000102735
0.000102108
0.000101105
9.96566e-05
9.77108e-05
9.52502e-05
9.23052e-05
8.89621e-05
8.53604e-05
8.16725e-05
7.80657e-05
7.46542e-05
7.14574e-05
6.84498e-05
6.49636e-05
6.03266e-05
5.66565e-05
5.19623e-05
4.50222e-05
3.68335e-05
2.98551e-05
2.27703e-05
1.73879e-05
1.20518e-05
6.87346e-07
1.22822e-07
9.99897e-06
3.01658e-05
4.98896e-05
6.54721e-05
7.64299e-05
8.3469e-05
8.74952e-05
8.93354e-05
8.96969e-05
8.91631e-05
8.81824e-05
8.70587e-05
8.59445e-05
8.48642e-05
8.37494e-05
8.25644e-05
8.11065e-05
7.95282e-05
7.8088e-05
7.5999e-05
7.36932e-05
7.12745e-05
6.89134e-05
6.68165e-05
6.51952e-05
6.42229e-05
6.39949e-05
6.45149e-05
6.57326e-05
6.76856e-05
6.99807e-05
7.23714e-05
7.49085e-05
7.76161e-05
8.03875e-05
8.31358e-05
8.57919e-05
8.83045e-05
9.06403e-05
9.2768e-05
9.46722e-05
9.63473e-05
9.78003e-05
9.89852e-05
9.99394e-05
0.000100864
0.000101605
0.000102215
0.000102732
0.000103181
0.000103577
0.000103917
0.00010418
0.000104324
0.000104285
0.000103982
0.000103321
0.000102207
0.000100558
9.83242e-05
9.55027e-05
9.21574e-05
8.84218e-05
8.44861e-05
8.05606e-05
7.68203e-05
7.33474e-05
7.01001e-05
6.69057e-05
6.24221e-05
5.83083e-05
5.41821e-05
4.76175e-05
3.90627e-05
3.13203e-05
2.40762e-05
1.73495e-05
1.25642e-05
7.34788e-07
1.23273e-07
9.94176e-06
2.98526e-05
4.95321e-05
6.51938e-05
7.63058e-05
8.35095e-05
8.76906e-05
8.96663e-05
9.0143e-05
8.97038e-05
8.87818e-05
8.76506e-05
8.64829e-05
8.53341e-05
8.41991e-05
8.30656e-05
8.14917e-05
7.99491e-05
7.83787e-05
7.6231e-05
7.38772e-05
7.14312e-05
6.90694e-05
6.70044e-05
6.54488e-05
6.45708e-05
6.44557e-05
6.5095e-05
6.64312e-05
6.84617e-05
7.08212e-05
7.3286e-05
7.58941e-05
7.8648e-05
8.14468e-05
8.42062e-05
8.68438e-05
8.93154e-05
9.16141e-05
9.36817e-05
9.55085e-05
9.70885e-05
9.84584e-05
9.95674e-05
0.0001004
0.000101181
0.000101848
0.000102395
0.000102877
0.000103331
0.000103781
0.000104232
0.000104669
0.000105052
0.000105313
0.000105362
0.000105086
0.000104367
0.000103091
0.000101171
9.8567e-05
9.53102e-05
9.1516e-05
8.73805e-05
8.31495e-05