/*--------------------------------*- C++ -*----------------------------------*\
  =========                 |
  \\      /  F ield         | OpenFOAM: The Open Source CFD Toolbox
   \\    /   O peration     | Website:  https://openfoam.org
    \\  /    A nd           | Version:  13
     \\/     M anipulation  |
\*---------------------------------------------------------------------------*/
FoamFile
{
    format      ascii;
    class       volScalarField;
    location    "1.8";
    object      p;
}
// * * * * * * * * * * * * * * * * * * * * * * * * * * * * * * * * * * * * * //

dimensions      [0 2 -2 0 0 0 0];

internalField   nonuniform List<scalar> 
6400
(
1.1318e-08
-1.05256e-06
-9.17963e-06
-2.3739e-05
-4.3112e-05
-6.59188e-05
-9.12645e-05
-0.000118803
-0.000148573
-0.000180742
-0.000215581
-0.000253367
-0.000294408
-0.00033902
-0.000387512
-0.00044016
-0.000497187
-0.000558747
-0.000624908
-0.000695652
-0.000770885
-0.000850421
-0.000933983
-0.00102123
-0.00111177
-0.00120513
-0.00130073
-0.00139791
-0.00149581
-0.00159336
-0.0016892
-0.00178162
-0.00186852
-0.0019474
-0.00201535
-0.00206912
-0.00210523
-0.00211997
-0.00210961
-0.00207046
-0.00199899
-0.00189189
-0.0017461
-0.0015589
-0.0013283
-0.00105398
-0.000737424
-0.00037765
2.83006e-05
0.000472156
0.000944241
0.00143946
0.00194752
0.00245782
0.00295675
0.00342962
0.0038622
0.00424137
0.00455561
0.00479612
0.00495784
0.00504012
0.00504702
0.00498723
0.00487222
0.00471859
0.00454236
0.00435899
0.0041816
0.00401884
0.00387808
0.00376281
0.00367148
0.00360233
0.00355268
0.00351932
0.00349928
0.00349001
0.00348887
0.00349291
7.8679e-07
-4.26347e-07
-8.02815e-06
-2.15079e-05
-3.93168e-05
-6.04283e-05
-8.42317e-05
-0.000110404
-0.000138962
-0.00017011
-0.000204066
-0.000241107
-0.000281531
-0.000325598
-0.000373553
-0.000425609
-0.000481927
-0.000542591
-0.000607606
-0.00067689
-0.000750266
-0.000827486
-0.00090825
-0.000992219
-0.00107902
-0.00116823
-0.0012594
-0.00135198
-0.00144529
-0.0015385
-0.00163051
-0.0017199
-0.00180488
-0.00188321
-0.00195221
-0.00200881
-0.00204967
-0.00207119
-0.00206946
-0.0020406
-0.00198086
-0.00188671
-0.00175491
-0.00158269
-0.00136808
-0.00111036
-0.000809265
-0.000463566
-7.54513e-05
0.000348146
0.00080283
0.00128103
0.00177293
0.00226744
0.00275246
0.00321469
0.00364032
0.00401669
0.00433263
0.00457946
0.00475198
0.00484901
0.0048738
0.00483397
0.00474075
0.00460853
0.0044514
0.00428645
0.00412525
0.0039779
0.00385075
0.00374537
0.00366231
0.00359968
0.00355446
0.00352364
0.00350461
0.00349527
0.00349378
0.00349778
8.66157e-06
6.40593e-06
-1.62646e-06
-1.45885e-05
-3.09029e-05
-4.99207e-05
-7.14293e-05
-9.54868e-05
-0.000122176
-0.000151643
-0.000184105
-0.000219808
-0.000259006
-0.000301929
-0.000348773
-0.000399684
-0.000454741
-0.000513943
-0.000577207
-0.000644365
-0.000715182
-0.000789391
-0.000866705
-0.000946831
-0.00102949
-0.00111444
-0.00120142
-0.00129017
-0.00138033
-0.0014714
-0.00156263
-0.00165291
-0.00174074
-0.00182409
-0.00190046
-0.00196686
-0.00201981
-0.00205553
-0.00207004
-0.00205931
-0.00201932
-0.00194622
-0.00183645
-0.00168688
-0.00149514
-0.00125994
-0.000981095
-0.000658865
-0.000293089
0.000109649
0.00054401
0.00100339
0.00147856
0.00195877
0.00243308
0.00288917
0.00331361
0.00369382
0.00401902
0.00428036
0.00447223
0.00459267
0.00464374
0.00463183
0.00456687
0.00446183
0.0043307
0.00418782
0.00404606
0.00391497
0.00380144
0.00370862
0.00363528
0.00358015
0.00354065
0.00351394
0.00349753
0.00348989
0.00348965
0.00349454
2.37563e-05
1.9651e-05
1.00205e-05
-3.30697e-06
-1.87744e-05
-3.59295e-05
-5.50403e-05
-7.65439e-05
-0.000100779
-0.000127981
-0.000158373
-0.000192181
-0.000229621
-0.000270884
-0.00031612
-0.000365421
-0.000418807
-0.000476224
-0.000537543
-0.000602572
-0.000671085
-0.000742865
-0.000817716
-0.000895493
-0.000976125
-0.00105961
-0.00114602
-0.00123539
-0.00132771
-0.0014228
-0.00152016
-0.00161888
-0.00171752
-0.00181409
-0.00190599
-0.00199009
-0.00206258
-0.00211925
-0.00215578
-0.00216778
-0.00215085
-0.00210078
-0.00201371
-0.00188624
-0.0017157
-0.00150048
-0.00124004
-0.000934383
-0.000585199
-0.000196732
0.000226028
0.000676508
0.00114602
0.00162427
0.00210009
0.00256177
0.00299618
0.0033905
0.00373372
0.00401631
0.0042319
0.00437742
0.00445389
0.00446655
0.00442431
0.00433942
0.0042255
0.00409683
0.00396659
0.00384529
0.00374023
0.00365513
0.00359027
0.00354322
0.00351002
0.00348804
0.00347541
0.003471
0.00347329
0.00347964
4.53316e-05
3.86007e-05
2.62954e-05
1.11104e-05
-4.72167e-06
-2.09191e-05
-3.83453e-05
-5.78398e-05
-7.99594e-05
-0.000105064
-0.000133427
-0.000165281
-0.000200836
-0.000240269
-0.000283723
-0.000331293
-0.000383015
-0.000438861
-0.000498753
-0.000562579
-0.000630219
-0.00070158
-0.000776636
-0.000855456
-0.000938215
-0.00102518
-0.00111669
-0.00121303
-0.0013144
-0.00142075
-0.00153163
-0.00164609
-0.00176257
-0.00187883
-0.001992
-0.00209859
-0.00219453
-0.0022753
-0.00233618
-0.00237234
-0.00237902
-0.00235173
-0.00228633
-0.00217923
-0.00202759
-0.0018296
-0.00158449
-0.00129167
-0.000953486
-0.000573225
-0.000155537
0.000293179
0.000764698
0.00124913
0.00173507
0.00221083
0.00266395
0.00308135
0.00345092
0.00376234
0.00400777
0.00418325
0.00428882
0.00432792
0.00430855
0.00424218
0.00414196
0.00402255
0.00389817
0.00378066
0.00367822
0.00359592
0.00353451
0.00349159
0.00346349
0.00344641
0.0034382
0.00343787
0.00344319
0.00345081
7.19457e-05
6.20348e-05
4.60052e-05
2.73721e-05
9.75472e-06
-6.70826e-06
-2.34852e-05
-4.18088e-05
-6.2457e-05
-8.59275e-05
-0.000112573
-0.000142674
-0.000176468
-0.00021417
-0.000255969
-0.000302027
-0.00035247
-0.00040738
-0.00046681
-0.000530797
-0.000599403
-0.000672737
-0.000751
-0.000834505
-0.000923683
-0.00101904
-0.00112111
-0.00123033
-0.00134696
-0.0014709
-0.00160159
-0.00173785
-0.00187783
-0.00201898
-0.00215802
-0.00229103
-0.00241357
-0.00252091
-0.00260808
-0.00266998
-0.00270158
-0.00269816
-0.00265541
-0.00256957
-0.00243765
-0.00225744
-0.00202771
-0.00174857
-0.0014214
-0.0010491
-0.000636065
-0.000188303
0.000286517
0.000779084
0.00127848
0.00177274
0.00224954
0.00269581
0.00309903
0.003448
0.0037334
0.00394933
0.00409351
0.00416817
0.00418024
0.00413965
0.00405873
0.00395221
0.00383528
0.00372107
0.00361953
0.00353694
0.0034754
0.00343351
0.00340762
0.00339362
0.00338887
0.003392
0.00339975
0.00340818
0.000101529
8.84661e-05
6.74405e-05
4.39845e-05
2.33657e-05
5.54961e-06
-1.15424e-05
-2.95223e-05
-4.93884e-05
-7.17846e-05
-9.71635e-05
-0.000125879
-0.000158243
-0.000194554
-0.000235109
-0.000280203
-0.000330119
-0.000385117
-0.000445439
-0.000511332
-0.000583079
-0.000661039
-0.000745672
-0.000837548
-0.00093733
-0.00104572
-0.00116335
-0.00129072
-0.00142801
-0.00157495
-0.00173074
-0.00189387
-0.00206214
-0.00223261
-0.00240166
-0.00256502
-0.00271788
-0.00285526
-0.002972
-0.00306285
-0.00312255
-0.00314617
-0.00312918
-0.00306774
-0.00295874
-0.0027996
-0.00258858
-0.00232643
-0.00201355
-0.00165241
-0.00124695
-0.000802624
-0.000326381
0.000173341
0.000686669
0.00120224
0.00170711
0.002188
0.00263198
0.00302707
0.00336316
0.00363232
0.00382997
0.00395539
0.0040122
0.00400957
0.0039589
0.00387413
0.00377112
0.0036641
0.00356478
0.00348135
0.00341786
0.00337435
0.00334792
0.00333457
0.00333129
0.00333598
0.00334491
0.00335371
0.000131783
0.00011526
8.85385e-05
5.91875e-05
3.45924e-05
1.45261e-05
-3.71293e-06
-2.21055e-05
-4.18645e-05
-6.37835e-05
-8.84299e-05
-0.00011626
-0.000147695
-0.000183169
-0.000223145
-0.000268111
-0.000318561
-0.000374982
-0.000437852
-0.000507662
-0.000584956
-0.000670364
-0.000764615
-0.000868527
-0.000982964
-0.00110876
-0.00124659
-0.0013969
-0.00155971
-0.00173452
-0.0019202
-0.00211492
-0.00231606
-0.00252033
-0.00272381
-0.00292193
-0.00310957
-0.00328141
-0.0034321
-0.0035562
-0.00364838
-0.00370349
-0.00371691
-0.00368449
-0.0036029
-0.00346951
-0.00328243
-0.00304148
-0.00274736
-0.00240199
-0.00200861
-0.00157204
-0.00109827
-0.000594339
-6.84787e-05
0.000468099
0.00100218
0.00152153
0.00201347
0.00246503
0.00286343
0.00319875
0.00346462
0.00365758
0.00377809
0.0038313
0.00382638
0.00377664
0.00369797
0.00360559
0.00351281
0.00343024
0.00336442
0.00331754
0.00328818
0.00327288
0.00326857
0.00327259
0.00328135
0.0032897
0.000160426
0.000140181
0.000107074
7.10323e-05
4.17171e-05
1.86744e-05
-1.41381e-06
-2.08865e-05
-4.11672e-05
-6.32037e-05
-8.76935e-05
-0.000115222
-0.000146362
-0.000181728
-0.000221999
-0.000267904
-0.00032019
-0.000379604
-0.000446887
-0.000522807
-0.000608189
-0.000703944
-0.000811069
-0.00093061
-0.0010636
-0.00121094
-0.00137332
-0.00155106
-0.00174397
-0.0019513
-0.00217157
-0.00240261
-0.00264146
-0.00288437
-0.0031273
-0.00336517
-0.00359237
-0.00380353
-0.00399325
-0.00415573
-0.00428519
-0.00437646
-0.00442485
-0.00442599
-0.00437637
-0.00427338
-0.00411484
-0.00390023
-0.00363057
-0.00330724
-0.00293255
-0.00251019
-0.00204459
-0.00154062
-0.00100443
-0.000449577
0.000111417
0.000669061
0.00121268
0.00172825
0.00219989
0.00261656
0.0029672
0.00324529
0.00344872
0.00357932
0.00364174
0.00364504
0.00360526
0.00353864
0.00346001
0.00338248
0.00331573
0.00326488
0.00323068
0.00321099
0.00320304
0.00320431
0.0032112
0.00321813
0.000184306
0.000160584
0.000120714
7.75053e-05
4.29497e-05
1.63644e-05
-6.14678e-06
-2.72693e-05
-4.86366e-05
-7.13581e-05
-9.62798e-05
-0.000124147
-0.00015572
-0.00019184
-0.000233442
-0.000281529
-0.000337127
-0.000401265
-0.00047497
-0.000559299
-0.000655374
-0.000764394
-0.000887613
-0.00102629
-0.00118158
-0.00135447
-0.00154557
-0.00175507
-0.00198258
-0.00222707
-0.00248672
-0.00275906
-0.0030408
-0.00332746
-0.0036147
-0.00389737
-0.00416927
-0.00442483
-0.0046583
-0.00486333
-0.00503404
-0.00516543
-0.00525254
-0.00529068
-0.00527638
-0.00520741
-0.00508198
-0.0048995
-0.00466054
-0.00436535
-0.00401531
-0.00361292
-0.00316108
-0.00266342
-0.00212803
-0.0015649
-0.000980654
-0.000383904
0.000214694
0.000796429
0.00134625
0.00185399
0.00230479
0.00268865
0.00299612
0.00322553
0.00337813
0.00345836
0.00347759
0.00345249
0.00339958
0.00333449
0.00327045
0.00321642
0.00317636
0.00315022
0.00313624
0.00313257
0.00313572
0.00314052
0.000201259
0.000174079
0.00012728
7.66814e-05
3.65531e-05
6.00229e-06
-1.93885e-05
-4.26374e-05
-6.55899e-05
-8.9529e-05
-0.000115471
-0.000144353
-0.000177161
-0.000214997
-0.000259083
-0.000310717
-0.000371221
-0.000441916
-0.000524129
-0.000619221
-0.000728619
-0.000853808
-0.000996296
-0.00115754
-0.00133881
-0.00154112
-0.00176502
-0.00201058
-0.00227719
-0.0025636
-0.00286768
-0.00318623
-0.00351556
-0.0038511
-0.00418779
-0.00451984
-0.00484064
-0.00514432
-0.00542452
-0.00567461
-0.00588892
-0.00606235
-0.00618949
-0.00626472
-0.00628554
-0.00625085
-0.00615977
-0.00601103
-0.0058032
-0.00553667
-0.00521287
-0.00483331
-0.00440065
-0.00392011
-0.0033981
-0.00283531
-0.0022368
-0.00161228
-0.000975162
-0.000336302
0.000293439
0.000895304
0.00145388
0.00195638
0.00238779
0.00273966
0.00300677
0.00318927
0.00329326
0.00333148
0.00332087
0.00327973
0.00322507
0.0031706
0.00312472
0.00309069
0.00306854
0.00305777
0.00305542
0.0030574
0.000208999
0.000178462
0.000124781
6.67883e-05
2.09161e-05
-1.38961e-05
-4.25204e-05
-6.82909e-05
-9.32693e-05
-0.000118927
-0.000146476
-0.000177076
-0.000211973
-0.00025256
-0.000300363
-0.000356986
-0.000424056
-0.000503196
-0.00059604
-0.000704264
-0.000829605
-0.000973837
-0.00113872
-0.00132588
-0.00153673
-0.00177226
-0.002033
-0.00231893
-0.0026293
-0.00296225
-0.00331518
-0.00368472
-0.00406639
-0.00445523
-0.00484518
-0.00522961
-0.00560177
-0.00595518
-0.00628285
-0.00657788
-0.00683446
-0.00704687
-0.00720887
-0.00731733
-0.00737113
-0.00736862
-0.00730832
-0.00718876
-0.00700845
-0.0067678
-0.0064684
-0.00611212
-0.00570213
-0.00524304
-0.00473853
-0.00418664
-0.00359012
-0.0029577
-0.00229841
-0.0016207
-0.000933815
-0.000252584
0.000412578
0.00103457
0.00159964
0.00209222
0.00249868
0.00281011
0.00302666
0.00315514
0.00320927
0.00320843
0.00317369
0.00312413
0.00307392
0.00303127
0.00299928
0.00297948
0.00297002
0.00296827
0.000205521
0.0001718
0.000111469
4.62591e-05
-5.39302e-06
-4.46534e-05
-7.67783e-05
-0.000105399
-0.000132798
-0.000160653
-0.000190396
-0.000223441
-0.000261321
-0.000305739
-0.000358537
-0.000421632
-0.000496955
-0.000586439
-0.000692036
-0.000815744
-0.000959613
-0.00112571
-0.00131604
-0.00153241
-0.00177631
-0.0020488
-0.00235053
-0.00268111
-0.00303926
-0.00342299
-0.00382912
-0.0042537
-0.0046912
-0.00513583
-0.00558108
-0.00601927
-0.00644286
-0.0068446
-0.00721699
-0.00755298
-0.00784623
-0.00809056
-0.00828299
-0.00842365
-0.00850916
-0.00853495
-0.00849932
-0.00840256
-0.00824586
-0.00803013
-0.00775602
-0.00742478
-0.00703827
-0.00659837
-0.00610612
-0.00556503
-0.00497907
-0.00435304
-0.00369216
-0.002999
-0.00227538
-0.00153348
-0.000792406
-6.63042e-05
0.000629667
0.00126759
0.00182844
0.00229287
0.00265012
0.00289857
0.00304539
0.00310709
0.00310766
0.00307189
0.00302095
0.00296998
0.00292707
0.00289603
0.00287762
0.00287133
0.000189136
0.000152469
8.58719e-05
1.37676e-05
-4.35885e-05
-8.73936e-05
-0.000123216
-0.000154965
-0.000185147
-0.000215663
-0.000248192
-0.000284427
-0.000326209
-0.000375563
-0.000434653
-0.000505705
-0.000590962
-0.00069267
-0.000813107
-0.000954599
-0.00111952
-0.00131021
-0.00152893
-0.00177766
-0.00205805
-0.00237135
-0.00271774
-0.00309661
-0.00350643
-0.00394462
-0.00440711
-0.00488909
-0.00538446
-0.00588599
-0.00638616
-0.00687641
-0.0073483
-0.00779391
-0.00820552
-0.00857616
-0.00890007
-0.0091731
-0.00939272
-0.00955546
-0.00965892
-0.00970234
-0.00968559
-0.00960884
-0.00947296
-0.00927907
-0.00902815
-0.00872138
-0.00836002
-0.00794509
-0.0074773
-0.00695832
-0.00638993
-0.00577393
-0.00511204
-0.00440656
-0.00366681
-0.00289787
-0.00210481
-0.0012959
-0.00049828
0.000271143
0.000984759
0.00161418
0.00213542
0.00253358
0.00280487
0.00295786
0.00301492
0.00300654
0.0029616
0.00290398
0.00284917
0.00280462
0.00277628
0.00276417
0.000158481
0.000119184
4.68186e-05
-3.17481e-05
-9.4644e-05
-0.000143018
-0.000182682
-0.000217799
-0.000251106
-0.000284742
-0.000320655
-0.000360838
-0.000407453
-0.000462853
-0.00052952
-0.000609993
-0.000706824
-0.000822581
-0.000959873
-0.00112136
-0.00130974
-0.00152764
-0.00177754
-0.00206168
-0.00238191
-0.00273918
-0.00313348
-0.00356387
-0.00402825
-0.00452323
-0.00504411
-0.00558467
-0.0061377
-0.00669462
-0.00724657
-0.0077842
-0.00829837
-0.00878076
-0.00922378
-0.00962101
-0.00996744
-0.0102596
-0.0104951
-0.0106716
-0.010788
-0.0108443
-0.0108411
-0.010779
-0.0106592
-0.0104829
-0.0102513
-0.0099656
-0.00962698
-0.00923621
-0.00879386
-0.00830058
-0.00775678
-0.00716254
-0.00651765
-0.00582249
-0.00507963
-0.00429205
-0.00346645
-0.00261225
-0.00173946
-0.000865735
-2.08283e-05
0.000766685
0.00146168
0.00203282
0.00245994
0.00273784
0.00288024
0.00291823
0.0028902
0.00282974
0.00276241
0.00270318
0.00266386
0.00264336
0.000112524
7.10122e-05
-6.55005e-06
-9.10732e-05
-0.00015928
-0.000212193
-0.0002558
-0.0002945
-0.000331263
-0.000368479
-0.000408381
-0.000453275
-0.000505651
-0.000568188
-0.000643683
-0.000734985
-0.00084496
-0.000976501
-0.00113256
-0.00131613
-0.00153022
-0.00177772
-0.00206139
-0.00238379
-0.00274667
-0.00315056
-0.00359526
-0.0040794
-0.00460028
-0.00515344
-0.00573292
-0.00633106
-0.0069391
-0.00754722
-0.00814529
-0.00872324
-0.00927157
-0.00978203
-0.0102476
-0.0106626
-0.011023
-0.0113261
-0.0115702
-0.0117543
-0.0118782
-0.0119424
-0.0119479
-0.0118958
-0.0117876
-0.0116248
-0.0114086
-0.0111406
-0.0108217
-0.0104528
-0.0100342
-0.00956609
-0.00904812
-0.00847946
-0.00785895
-0.00718549
-0.00645839
-0.00567755
-0.00484497
-0.00396501
-0.00304515
-0.0021017
-0.00115411
-0.000232917
0.000624889
0.00137693
0.00198383
0.00242017
0.00268265
0.00279434
0.00279901
0.00274299
0.0026639
0.00258871
0.00253568
0.00250408
5.06784e-05
7.26197e-06
-7.48179e-05
-0.000164732
-0.000237965
-0.000295343
-0.000342965
-0.000385447
-0.00042599
-0.000467247
-0.000511744
-0.000562106
-0.000621151
-0.000691876
-0.00077739
-0.000880848
-0.00100543
-0.00115436
-0.00133094
-0.00153849
-0.00178031
-0.00205954
-0.00237935
-0.00274246
-0.00314993
-0.00360233
-0.00409924
-0.00463865
-0.00521667
-0.00582761
-0.00646388
-0.00711635
-0.00777461
-0.0084276
-0.00906426
-0.00967407
-0.0102477
-0.0107774
-0.011257
-0.011682
-0.0120494
-0.0123571
-0.0126045
-0.0127914
-0.0129183
-0.0129862
-0.0129964
-0.0129506
-0.0128503
-0.0126973
-0.0124931
-0.0122392
-0.0119368
-0.0115867
-0.0111893
-0.0107446
-0.0102518
-0.00970964
-0.00911617
-0.00846911
-0.00776608
-0.00700495
-0.00618447
-0.0053049
-0.00436926
-0.00338617
-0.00237077
-0.00134864
-0.000355455
0.000563796
0.00135709
0.00197676
0.00239498
0.00261573
0.00267728
0.00263797
0.00255044
0.00245734
0.00238592
0.00234131
-2.73403e-05
-7.24412e-05
-0.000158317
-0.000252996
-0.000330919
-0.000392649
-0.000444336
-0.000490786
-0.000535431
-0.000581187
-0.000630879
-0.000687447
-0.000754028
-0.000833932
-0.000930568
-0.0010474
-0.00118792
-0.00135568
-0.00155432
-0.0017875
-0.00205876
-0.00237157
-0.0027296
-0.00313475
-0.00358817
-0.00409051
-0.00464064
-0.00523542
-0.00586969
-0.00653617
-0.00722564
-0.00792729
-0.00862925
-0.00931945
-0.00998627
-0.0106193
-0.0112098
-0.0117509
-0.0122376
-0.0126664
-0.0130352
-0.013343
-0.0135897
-0.013776
-0.0139027
-0.0139714
-0.0139835
-0.013941
-0.0138457
-0.0136995
-0.013504
-0.013261
-0.0129718
-0.0126373
-0.012258
-0.0118338
-0.0113641
-0.0108472
-0.010281
-0.00966246
-0.00898803
-0.00825395
-0.0074567
-0.00659365
-0.00566413
-0.0046709
-0.00362249
-0.00253688
-0.00144403
-0.000387315
0.000578193
0.00138884
0.00198998
0.00235755
0.00250964
0.00250563
0.00241751
0.00230473
0.00220929
0.00215089
-0.000121627
-0.000168105
-0.000257064
-0.000355858
-0.000438105
-0.000504049
-0.000559832
-0.000610428
-0.000659491
-0.000710197
-0.000765664
-0.00082914
-0.000904067
-0.000994053
-0.0011028
-0.00123408
-0.00139169
-0.00157951
-0.00180151
-0.00206163
-0.00236365
-0.00271169
-0.00310889
-0.00355687
-0.00405735
-0.00461017
-0.00521321
-0.00586207
-0.00655011
-0.0072684
-0.00800594
-0.00875031
-0.00948848
-0.0102077
-0.0108965
-0.0115448
-0.012145
-0.0126912
-0.0131796
-0.0136077
-0.0139743
-0.0142792
-0.0145228
-0.0147063
-0.0148309
-0.0148983
-0.0149104
-0.0148692
-0.0147766
-0.0146346
-0.0144452
-0.0142102
-0.0139309
-0.0136086
-0.013244
-0.0128371
-0.0123873
-0.0118933
-0.0113526
-0.0107621
-0.0101177
-0.00941448
-0.0086474
-0.00781157
-0.00690322
-0.00592078
-0.00486713
-0.00375257
-0.0025985
-0.00144155
-0.000334771
0.000654201
0.00145012
0.00199496
0.00227476
0.00233521
0.0022589
0.00212654
0.00200114
0.00192897
-0.000231963
-0.00027947
-0.000370803
-0.000473053
-0.000559237
-0.000629239
-0.000689138
-0.000744049
-0.000797834
-0.000853923
-0.000915713
-0.000986743
-0.00107074
-0.00117161
-0.00129333
-0.00143995
-0.0016156
-0.00182448
-0.0020708
-0.00235874
-0.00269265
-0.00307682
-0.00351339
-0.00400491
-0.0045526
-0.00515525
-0.0058096
-0.00650998
-0.0072481
-0.0080132
-0.00879259
-0.00957253
-0.0103392
-0.0110798
-0.0117831
-0.0124402
-0.0130444
-0.0135912
-0.0140776
-0.0145021
-0.0148643
-0.0151646
-0.0154039
-0.0155834
-0.0157048
-0.0157699
-0.0157807
-0.0157393
-0.0156477
-0.0155081
-0.0153224
-0.0150926
-0.0148205
-0.0145072
-0.0141539
-0.0137608
-0.0133275
-0.012853
-0.0123351
-0.0117706
-0.0111552
-0.0104836
-0.00974987
-0.00894736
-0.00807011
-0.00711331
-0.0060748
-0.00495852
-0.00377774
-0.00255944
-0.00134932
-0.00021253
0.000767796
0.00150746
0.00195076
0.00210921
0.00206607
0.00191864
0.00175883
0.00167304
-0.000357845
-0.000406021
-0.00049903
-0.000604075
-0.000693798
-0.000767687
-0.00083171
-0.000891089
-0.000949882
-0.00101176
-0.00108037
-0.00115953
-0.00125323
-0.00136564
-0.00150102
-0.00166369
-0.0018581
-0.00208873
-0.00236003
-0.00267639
-0.00304297
-0.00346308
-0.00393917
-0.00447417
-0.00506807
-0.00571874
-0.00642185
-0.00717016
-0.00795362
-0.0087597
-0.00957427
-0.0103826
-0.0111706
-0.0119257
-0.0126375
-0.0132984
-0.0139027
-0.0144469
-0.0149292
-0.0153487
-0.0157055
-0.0160006
-0.016235
-0.0164102
-0.016528
-0.0165904
-0.0165992
-0.0165566
-0.0164648
-0.0163259
-0.016142
-0.0159153
-0.0156476
-0.0153405
-0.0149952
-0.0146124
-0.0141921
-0.0137336
-0.013235
-0.0126934
-0.0121048
-0.0114637
-0.0107637
-0.00999721
-0.00915657
-0.0082347
-0.00722589
-0.00612822
-0.00494799
-0.00370303
-0.00242843
-0.00118256
-4.62433e-05
0.000882147
0.00151256
0.00180838
0.00182668
0.00167419
0.00148291
0.00138178
-0.00049852
-0.00054701
-0.000641011
-0.000748195
-0.00084105
-0.000918644
-0.000986781
-0.00105076
-0.00111482
-0.00118284
-0.00125871
-0.00134648
-0.0014504
-0.00157488
-0.00172441
-0.00190363
-0.00211724
-0.00236999
-0.00266649
-0.00301172
-0.00341072
-0.00386618
-0.00438162
-0.0049589
-0.00559711
-0.00629331
-0.00704176
-0.00783359
-0.008657
-0.00949789
-0.010341
-0.011171
-0.011974
-0.0127381
-0.013454
-0.014115
-0.0147169
-0.0152569
-0.0157341
-0.0161481
-0.0164995
-0.0167894
-0.0170191
-0.0171902
-0.0173046
-0.017364
-0.0173705
-0.0173261
-0.0172332
-0.0170938
-0.0169102
-0.0166846
-0.0164191
-0.0161156
-0.0157754
-0.0153998
-0.014989
-0.0145428
-0.0140599
-0.0135377
-0.0129727
-0.0123596
-0.0116919
-0.0109617
-0.0101601
-0.00927838
-0.00830849
-0.00724406
-0.00608476
-0.00484074
-0.00353646
-0.00221975
-0.000967321
0.000125861
0.000949805
0.00141404
0.00152254
0.00138548
0.0011744
0.00105307
-0.000653018
-0.000701472
-0.000795804
-0.000904483
-0.00100006
-0.00108116
-0.00115338
-0.00122208
-0.00129162
-0.00136608
-0.00144956
-0.00154633
-0.00166084
-0.00179772
-0.00196173
-0.00215774
-0.0023907
-0.00266559
-0.00298717
-0.00336112
-0.00379168
-0.00428188
-0.00483549
-0.00545306
-0.00613309
-0.00687156
-0.00766126
-0.00849167
-0.00934936
-0.0102189
-0.0110844
-0.0119304
-0.0127432
-0.0135121
-0.0142288
-0.0148879
-0.015486
-0.0160212
-0.0164931
-0.0169019
-0.0172483
-0.0175337
-0.0177593
-0.0179269
-0.0180381
-0.0180947
-0.0180988
-0.0180524
-0.0179577
-0.0178169
-0.0176323
-0.0174063
-0.0171411
-0.0168388
-0.0165013
-0.0161299
-0.0157255
-0.0152882
-0.0148174
-0.014311
-0.013766
-0.0131776
-0.0125396
-0.0118442
-0.0110819
-0.0102426
-0.00931659
-0.00829501
-0.00717165
-0.00594942
-0.00464402
-0.00329113
-0.00196069
-0.000739364
0.00025769
0.000905631
0.00114145
0.00104609
0.000829521
0.000682249
-0.000820173
-0.000868253
-0.000962282
-0.00107183
-0.0011697
-0.0012541
-0.00133036
-0.00140384
-0.00147903
-0.00156017
-0.00165152
-0.00175754
-0.00188287
-0.00203234
-0.00221092
-0.00242371
-0.0026759
-0.00297257
-0.00331893
-0.00372078
-0.00418163
-0.00470559
-0.00529539
-0.00595065
-0.00666937
-0.00744629
-0.00827269
-0.00913648
-0.0100229
-0.0109155
-0.0117979
-0.0126549
-0.0134738
-0.0142445
-0.0149601
-0.0156161
-0.01621
-0.0167405
-0.0172077
-0.0176119
-0.0179543
-0.018236
-0.0184584
-0.0186231
-0.0187317
-0.018786
-0.0187878
-0.0187391
-0.0186422
-0.0184993
-0.0183127
-0.018085
-0.0178185
-0.0175155
-0.0171784
-0.0168087
-0.0164079
-0.0159765
-0.0155144
-0.0150203
-0.0144917
-0.0139245
-0.013313
-0.0126496
-0.0119251
-0.0111286
-0.0102487
-0.00927511
-0.0081981
-0.00701336
-0.00572871
-0.00436858
-0.00299468
-0.0016862
-0.000548017
0.000279908
0.00067028
0.000645032
0.000440471
0.000260772
-0.000998652
-0.00104603
-0.00113915
-0.00124895
-0.0013487
-0.00143617
-0.00151639
-0.00159468
-0.00167563
-0.00176359
-0.00186297
-0.00197836
-0.00211459
-0.00227663
-0.00246966
-0.00269898
-0.00296998
-0.00328779
-0.00365819
-0.00408654
-0.00457643
-0.0051323
-0.00575557
-0.00644563
-0.00719948
-0.00801064
-0.00886898
-0.00976102
-0.0106708
-0.0115814
-0.0124762
-0.0133406
-0.0141627
-0.0149334
-0.0156468
-0.0162994
-0.0168893
-0.0174159
-0.0178792
-0.01828
-0.0186194
-0.0188985
-0.0191186
-0.0192813
-0.0193879
-0.0194402
-0.0194399
-0.019389
-0.0192896
-0.019144
-0.0189547
-0.0187241
-0.018455
-0.0181498
-0.0178111
-0.0174411
-0.0170414
-0.0166132
-0.0161569
-0.0156718
-0.0151562
-0.0146066
-0.014018
-0.0133835
-0.0126941
-0.011939
-0.0111058
-0.0101824
-0.00915779
-0.00802254
-0.00677644
-0.00543257
-0.00403754
-0.00268241
-0.00144115
-0.000458587
9.75492e-05
0.000176729
1.21025e-06
-0.000222222
-0.00118698
-0.00123336
-0.001325
-0.00143447
-0.00153566
-0.00162594
-0.00171
-0.00179309
-0.00187983
-0.00197467
-0.00208211
-0.00220688
-0.00235391
-0.00252833
-0.00273546
-0.0029808
-0.00326986
-0.00360793
-0.00400118
-0.00445429
-0.00497156
-0.00555689
-0.00621072
-0.0069322
-0.00771729
-0.0085583
-0.00944384
-0.0103593
-0.0112877
-0.0122119
-0.0131156
-0.0139846
-0.0148079
-0.0155775
-0.0162886
-0.0169381
-0.0175248
-0.0180483
-0.0185089
-0.0189074
-0.0192449
-0.0195225
-0.0197414
-0.0199028
-0.0200082
-0.020059
-0.0200569
-0.0200038
-0.0199018
-0.0197532
-0.0195604
-0.0193262
-0.0190533
-0.0187446
-0.0184029
-0.0180306
-0.0176299
-0.0172026
-0.0167495
-0.0162706
-0.0157648
-0.0152295
-0.0146604
-0.0140513
-0.0133939
-0.0126776
-0.0118899
-0.0110172
-0.0100474
-0.00896841
-0.00777314
-0.00646699
-0.00507415
-0.00370075
-0.00240009
-0.00129991
-0.000583398
-0.000371306
-0.000501535
-0.000777422
-0.00138358
-0.00142866
-0.00151829
-0.00162685
-0.00172906
-0.00182188
-0.00190963
-0.00199743
-0.00208992
-0.0021916
-0.00230704
-0.00244103
-0.00259861
-0.00278502
-0.00300572
-0.00326632
-0.00357242
-0.0039296
-0.00434405
-0.00482015
-0.00536263
-0.00597442
-0.00665568
-0.00740492
-0.00821716
-0.00908362
-0.0099918
-0.0109261
-0.0118691
-0.0128034
-0.013713
-0.0145847
-0.0154082
-0.0161765
-0.0168853
-0.0175325
-0.0181168
-0.0186383
-0.0190975
-0.019495
-0.0198318
-0.020109
-0.0203275
-0.0204886
-0.0205934
-0.0206432
-0.0206397
-0.0205846
-0.0204799
-0.0203279
-0.0201312
-0.0198927
-0.0196152
-0.0193018
-0.0189557
-0.0185797
-0.0181764
-0.017748
-0.0172959
-0.0168207
-0.016322
-0.0157979
-0.0152451
-0.014658
-0.0140291
-0.0133485
-0.0126041
-0.0117815
-0.0108669
-0.00984765
-0.00871192
-0.00745749
-0.00609535
-0.00471077
-0.00339505
-0.00221753
-0.0013665
-0.00101715
-0.00108702
-0.00141047
-0.00158676
-0.00163029
-0.00171739
-0.00182453
-0.00192732
-0.00202236
-0.0021136
-0.00220598
-0.0023041
-0.00241247
-0.00253571
-0.00267866
-0.00284638
-0.0030442
-0.00327768
-0.00355253
-0.0038745
-0.00424946
-0.00468313
-0.00518015
-0.0057452
-0.00638033
-0.00708561
-0.00785881
-0.00869405
-0.00958164
-0.0105082
-0.0114573
-0.0124112
-0.0133528
-0.0142664
-0.0151396
-0.0159627
-0.0167297
-0.017437
-0.0180825
-0.0186657
-0.0191864
-0.0196453
-0.0200429
-0.0203802
-0.020658
-0.0208772
-0.0210387
-0.0211436
-0.021193
-0.0211883
-0.0211313
-0.021024
-0.0208685
-0.0206676
-0.0204241
-0.0201413
-0.0198225
-0.0194709
-0.01909
-0.0186826
-0.0182515
-0.0177985
-0.017325
-0.016831
-0.0163155
-0.0157759
-0.0152076
-0.0146039
-0.0139557
-0.0132513
-0.0124767
-0.0116169
-0.0106583
-0.00958753
-0.00839662
-0.00708838
-0.00569857
-0.00439319
-0.00318232
-0.00223261
-0.00175763
-0.00175923
-0.00211808
-0.00179482
-0.00183655
-0.00192066
-0.00202585
-0.00212879
-0.00222574
-0.00232022
-0.00241697
-0.00252051
-0.00263533
-0.00276605
-0.0029175
-0.00309477
-0.00330325
-0.0035486
-0.00383667
-0.00417324
-0.0045641
-0.0050148
-0.00553046
-0.00611514
-0.00677037
-0.00749611
-0.00828936
-0.0091435
-0.0100481
-0.010989
-0.0119494
-0.0129114
-0.0138579
-0.0147741
-0.0156479
-0.0164707
-0.0172368
-0.0179432
-0.0185882
-0.0191712
-0.0196923
-0.020152
-0.020551
-0.0208898
-0.0211691
-0.0213898
-0.0215525
-0.0216581
-0.0217076
-0.0217022
-0.0216436
-0.0215336
-0.0213746
-0.0211692
-0.0209205
-0.0206318
-0.0203067
-0.0199489
-0.019562
-0.0191494
-0.0187142
-0.018259
-0.0177854
-0.0172942
-0.016785
-0.016256
-0.0157035
-0.0151218
-0.0145025
-0.0138349
-0.0131054
-0.0122985
-0.0113996
-0.0103957
-0.0092745
-0.00803136
-0.00666828
-0.00537163
-0.00416807
-0.0031578
-0.0025736
-0.0025068
-0.00288949
-0.002006
-0.0020457
-0.0021264
-0.00222917
-0.00233183
-0.00243033
-0.00252774
-0.00262855
-0.0027372
-0.00285811
-0.00299586
-0.00315525
-0.0033414
-0.00355978
-0.00381608
-0.00411619
-0.00446564
-0.00487023
-0.00533574
-0.00586739
-0.00646862
-0.00714068
-0.00788326
-0.00869266
-0.00956166
-0.0104793
-0.011431
-0.0123996
-0.0133672
-0.014317
-0.0152347
-0.0161089
-0.0169314
-0.0176972
-0.0184036
-0.019049
-0.0196329
-0.0201555
-0.0206171
-0.0210183
-0.0213595
-0.0216413
-0.0218642
-0.0220288
-0.0221357
-0.0221857
-0.02218
-0.02212
-0.0220076
-0.021845
-0.021635
-0.0213808
-0.0210858
-0.0207539
-0.0203892
-0.0199956
-0.0195769
-0.0191367
-0.0186779
-0.0182028
-0.0177128
-0.0172081
-0.0166875
-0.0161483
-0.0155856
-0.0149921
-0.0143579
-0.0136701
-0.0129134
-0.0120721
-0.0111333
-0.0100818
-0.0089088
-0.00761569
-0.00631578
-0.00513935
-0.00410706
-0.00343721
-0.0033103
-0.00369261
-0.00221855
-0.00225599
-0.00233296
-0.00243288
-0.00253482
-0.00263444
-0.00273441
-0.00283893
-0.00295233
-0.00307892
-0.00322321
-0.00338999
-0.00358436
-0.00381175
-0.00407778
-0.00438817
-0.00474846
-0.00516478
-0.00564284
-0.00618765
-0.00680226
-0.0074878
-0.00824364
-0.00906537
-0.00994525
-0.0108722
-0.0118315
-0.0128056
-0.0137768
-0.0147286
-0.0156471
-0.0165215
-0.0173441
-0.0181103
-0.0188174
-0.0194641
-0.02005
-0.020575
-0.0210394
-0.0214437
-0.0217882
-0.0220731
-0.0222989
-0.0224659
-0.0225746
-0.0226256
-0.02262
-0.0225588
-0.0224442
-0.0222781
-0.0220635
-0.0218036
-0.0215021
-0.0211631
-0.020791
-0.02039
-0.0199646
-0.0195186
-0.0190554
-0.0185778
-0.0180877
-0.0175858
-0.0170719
-0.0165437
-0.0159973
-0.0154265
-0.0148223
-0.0141727
-0.0134631
-0.0126773
-0.0118013
-0.0108197
-0.0097206
-0.00850451
-0.00721456
-0.00607663
-0.00504827
-0.00431747
-0.00413553
-0.00446803
-0.00243074
-0.00246569
-0.00253869
-0.00263532
-0.00273606
-0.00283641
-0.00293857
-0.00304647
-0.00316422
-0.00329605
-0.00344635
-0.00361984
-0.0038215
-0.0040566
-0.00433074
-0.00464964
-0.00501909
-0.00544511
-0.00593322
-0.00648828
-0.00711307
-0.0078087
-0.00857447
-0.0094048
-0.0102915
-0.0112243
-0.0121882
-0.0131655
-0.0141386
-0.0150913
-0.0160101
-0.0168847
-0.0177078
-0.018475
-0.0191837
-0.0198325
-0.0204211