/*--------------------------------*- C++ -*----------------------------------*\
  =========                 |
  \\      /  F ield         | OpenFOAM: The Open Source CFD Toolbox
   \\    /   O peration     | Website:  https://openfoam.org
    \\  /    A nd           | Version:  13
     \\/     M anipulation  |
\*---------------------------------------------------------------------------*/
FoamFile
{
    format      ascii;
    class       surfaceScalarField;
    location    "1.8";
    object      phi;
}
// * * * * * * * * * * * * * * * * * * * * * * * * * * * * * * * * * * * * * //

dimensions      [0 3 -1 0 0 0 0];

internalField   nonuniform List<scalar> 
12640
(
2.7546e-09
-2.75482e-09
7.13985e-09
-4.38526e-09
1.09583e-08
-3.81843e-09
1.32046e-08
-2.24633e-09
1.37434e-08
-5.38875e-10
1.28591e-08
8.84346e-10
1.09466e-08
1.91245e-09
8.35784e-09
2.58878e-09
5.34777e-09
3.01006e-09
2.09434e-09
3.25342e-09
-1.28693e-09
3.38127e-09
-4.72591e-09
3.43898e-09
-8.19e-09
3.46409e-09
-1.16697e-08
3.47966e-09
-1.51793e-08
3.50958e-09
-1.8761e-08
3.58171e-09
-2.24874e-08
3.72643e-09
-2.6462e-08
3.97462e-09
-3.08172e-08
4.35517e-09
-3.57083e-08
4.89109e-09
-4.13076e-08
5.59928e-09
-4.77983e-08
6.49077e-09
-5.53683e-08
7.57e-09
-6.42043e-08
8.83596e-09
-7.44881e-08
1.02838e-08
-8.63945e-08
1.19064e-08
-1.00091e-07
1.36962e-08
-1.15737e-07
1.56463e-08
-1.33487e-07
1.77506e-08
-1.5349e-07
2.00027e-08
-1.75883e-07
2.23924e-08
-2.00783e-07
2.49001e-08
-2.28273e-07
2.74903e-08
-2.58378e-07
3.01047e-08
-2.91036e-07
3.26581e-08
-3.26076e-07
3.50406e-08
-3.63205e-07
3.71291e-08
-4.01979e-07
3.87733e-08
-4.41794e-07
3.98153e-08
-4.81909e-07
4.01152e-08
-5.21464e-07
3.95547e-08
-5.59513e-07
3.80489e-08
-5.95067e-07
3.55542e-08
-6.27136e-07
3.20691e-08
-6.54758e-07
2.76216e-08
-6.76998e-07
2.22407e-08
-6.92964e-07
1.59657e-08
-7.02143e-07
9.17866e-09
-7.04539e-07
2.39678e-09
-6.99004e-07
-5.53581e-09
-6.85541e-07
-1.34626e-08
-6.64022e-07
-2.15187e-08
-6.34588e-07
-2.9434e-08
-5.9752e-07
-3.70679e-08
-5.53274e-07
-4.42467e-08
-5.02494e-07
-5.07797e-08
-4.46093e-07
-5.64007e-08
-3.85195e-07
-6.0898e-08
-3.21185e-07
-6.40106e-08
-2.55672e-07
-6.55128e-08
-1.90471e-07
-6.52014e-08
-1.27538e-07
-6.29323e-08
-6.8889e-08
-5.86492e-08
-1.64448e-08
-5.24442e-08
2.82027e-08
-4.46475e-08
6.36793e-08
-3.54766e-08
8.91011e-08
-2.54218e-08
1.04487e-07
-1.53864e-08
1.10582e-07
-6.09486e-09
1.08806e-07
1.77619e-09
1.00939e-07
7.86743e-09
8.90422e-08
1.18965e-08
7.49988e-08
1.40434e-08
6.01541e-08
1.48446e-08
4.54982e-08
1.4656e-08
3.16965e-08
1.38017e-08
1.93669e-08
1.23296e-08
9.31349e-09
1.00534e-08
2.53314e-09
6.78035e-09
2.53314e-09
4.50146e-09
-7.25629e-09
1.08117e-08
-1.06955e-08
1.49898e-08
-7.99655e-09
1.55855e-08
-2.84206e-09
1.26159e-08
2.4307e-09
6.7132e-09
6.78705e-09
-1.39393e-09
1.00196e-08
-1.10888e-08
1.22836e-08
-2.18848e-08
1.38061e-08
-3.34211e-08
1.47898e-08
-4.54511e-08
1.54112e-08
-5.78102e-08
1.57981e-08
-7.03965e-08
1.60504e-08
-8.31789e-08
1.6262e-08
-9.61954e-08
1.65261e-08
-1.09554e-07
1.69404e-08
-1.23434e-07
1.76063e-08
-1.38081e-07
1.86214e-08
-1.53798e-07
2.00719e-08
-1.70932e-07
2.20253e-08
-1.89858e-07
2.45254e-08
-2.10956e-07
2.75889e-08
-2.34591e-07
3.12055e-08
-2.61097e-07
3.53415e-08
-2.90758e-07
3.99447e-08
-3.238e-07
4.49481e-08
-3.60377e-07
5.02738e-08
-4.00565e-07
5.58345e-08
-4.44348e-07
6.15331e-08
-4.91606e-07
6.72604e-08
-5.42104e-07
7.28903e-08
-5.95479e-07
7.82757e-08
-6.51234e-07
8.32454e-08
-7.08735e-07
8.76051e-08
-7.6722e-07
9.11432e-08
-8.25818e-07
9.36391e-08
-8.83575e-07
9.48854e-08
-9.3949e-07
9.46883e-08
-9.9256e-07
9.2886e-08
-1.04182e-06
8.93744e-08
-1.08636e-06
8.40974e-08
-1.12536e-06
7.7048e-08
-1.15808e-06
6.82713e-08
-1.18387e-06
5.78565e-08
-1.20217e-06
4.59227e-08
-1.21255e-06
3.2619e-08
-1.21473e-06
1.81469e-08
-1.20815e-06
2.6044e-09
-1.1925e-06
-1.32591e-08
-1.16801e-06
-3.00249e-08
-1.13441e-06
-4.70572e-08
-1.09189e-06
-6.40378e-08
-1.04058e-06
-8.07465e-08
-9.80793e-07
-9.68566e-08
-9.13054e-07
-1.11985e-07
-8.38089e-07
-1.25745e-07
-7.56834e-07
-1.37656e-07
-6.70426e-07
-1.47306e-07
-5.80207e-07
-1.54229e-07
-4.87734e-07
-1.57986e-07
-3.94752e-07
-1.58183e-07
-3.03172e-07
-1.54512e-07
-2.15033e-07
-1.46789e-07
-1.32418e-07
-1.35058e-07
-5.74895e-08
-1.19576e-07
7.87998e-09
-1.00846e-07
6.22375e-08
-7.97793e-08
1.04172e-07
-5.73213e-08
1.33053e-07
-3.49757e-08
1.49102e-07
-1.42721e-08
1.53392e-07
3.57739e-09
1.4749e-07
1.77985e-08
1.33694e-07
2.78393e-08
1.14247e-07
3.42913e-08
9.15047e-08
3.73983e-08
6.74185e-08
3.78879e-08
4.38992e-08
3.58489e-08
2.30763e-08
3.08763e-08
7.37298e-09
2.24837e-08
9.90612e-09
4.14811e-09
-1.14044e-08
8.38137e-09
-1.49287e-08
8.64101e-09
-8.2562e-09
4.30081e-09
1.49813e-09
-4.00874e-09
1.07402e-08
-1.5489e-08
1.82673e-08
-2.93724e-08
2.3903e-08
-4.49988e-08
2.791e-08
-6.18523e-08
3.06596e-08
-7.95712e-08
3.25086e-08
-9.79001e-08
3.37401e-08
-1.16677e-07
3.45754e-08
-1.35829e-07
3.52016e-08
-1.55361e-07
3.57943e-08
-1.75364e-07
3.65297e-08
-1.96014e-07
3.75903e-08
-2.17568e-07
3.91602e-08
-2.40357e-07
4.14105e-08
-2.64769e-07
4.44837e-08
-2.91224e-07
4.84797e-08
-3.20146e-07
5.34478e-08
-3.5194e-07
5.93827e-08
-3.86958e-07
6.62238e-08
-4.25482e-07
7.38653e-08
-4.67703e-07
8.21654e-08
-5.13708e-07
9.09534e-08
-5.63469e-07
1.00035e-07
-6.16831e-07
1.09196e-07
-6.73502e-07
1.18204e-07
-7.33051e-07
1.2681e-07
-7.94909e-07
1.34748e-07
-8.58378e-07
1.41744e-07
-9.22649e-07
1.47517e-07
-9.86834e-07
1.5179e-07
-1.04999e-06
1.54303e-07
-1.11118e-06
1.54823e-07
-1.16946e-06
1.53167e-07
-1.22398e-06
1.49213e-07
-1.27397e-06
1.42877e-07
-1.31873e-06
1.34127e-07
-1.35762e-06
1.2299e-07
-1.39011e-06
1.09543e-07
-1.41575e-06
9.3903e-08
-1.43411e-06
7.62247e-08
-1.44488e-06
5.66879e-08
-1.44776e-06
3.54988e-08
-1.4425e-06
1.28896e-08
-1.429e-06
-1.08957e-08
-1.40673e-06
-3.55305e-08
-1.37585e-06
-6.09077e-08
-1.33631e-06
-8.65945e-08
-1.28813e-06
-1.12215e-07
-1.23148e-06
-1.37403e-07
-1.16664e-06
-1.6169e-07
-1.09405e-06
-1.84575e-07
-1.01432e-06
-2.0548e-07
-9.28181e-07
-2.23793e-07
-8.36608e-07
-2.38879e-07
-7.40753e-07
-2.50085e-07
-6.41984e-07
-2.56755e-07
-5.4187e-07
-2.58298e-07
-4.42136e-07
-2.54246e-07
-3.44669e-07
-2.44255e-07
-2.51426e-07
-2.28301e-07
-1.64426e-07
-2.06576e-07
-8.5576e-08
-1.79696e-07
-1.67248e-08
-1.48631e-07
4.07103e-08
-1.14756e-07
8.5553e-08
-7.98183e-08
1.17161e-07
-4.58797e-08
1.35627e-07
-1.48893e-08
1.41882e-07
1.15441e-08
1.3744e-07
3.22808e-08
1.24608e-07
4.71231e-08
1.05364e-07
5.66429e-08
8.18872e-08
6.13644e-08
5.64591e-08
6.1277e-08
3.1629e-08
5.57064e-08
1.0846e-08
4.32667e-08
2.07521e-08
2.49516e-09
-1.38996e-08
2.59036e-09
-1.50239e-08
-2.47491e-09
-3.19094e-09
-1.20791e-08
1.11023e-08
-2.52292e-08
2.38903e-08
-4.11109e-08
3.4149e-08
-5.9109e-08
4.1901e-08
-7.87306e-08
4.75316e-08
-9.95853e-08
5.15142e-08
-1.21372e-07
5.4295e-08
-1.43879e-07
5.62478e-08
-1.66987e-07
5.76836e-08
-1.90663e-07
5.88775e-08
-2.14963e-07
6.00935e-08
-2.40032e-07
6.15985e-08
-2.66105e-07
6.36638e-08
-2.93498e-07
6.65531e-08
-3.22589e-07
7.05018e-08
-3.53797e-07
7.56914e-08
-3.87546e-07
8.22291e-08
-4.24236e-07
9.01372e-08
-4.64205e-07
9.93522e-08
-5.07714e-07
1.09732e-07
-5.54917e-07
1.21069e-07
-6.05854e-07
1.33103e-07
-6.60436e-07
1.45534e-07
-7.18436e-07
1.58035e-07
-7.79493e-07
1.70253e-07
-8.43109e-07
1.8182e-07
-9.08662e-07
1.92363e-07
-9.75423e-07
2.01509e-07
-1.04258e-06
2.08902e-07
-1.10928e-06
2.14214e-07
-1.17464e-06
2.17154e-07
-1.23782e-06
2.17484e-07
-1.29802e-06
2.15022e-07
-1.3545e-06
2.0965e-07
-1.40661e-06
2.01317e-07
-1.45376e-06
1.90026e-07
-1.49545e-06
1.75818e-07
-1.53124e-06
1.58782e-07
-1.56074e-06
1.39047e-07
-1.58361e-06
1.16772e-07
-1.59953e-06
9.21419e-08
-1.6082e-06
6.53616e-08
-1.60937e-06
3.66591e-08
-1.60279e-06
6.31181e-09
-1.5882e-06
-2.5483e-08
-1.56536e-06
-5.83705e-08
-1.53419e-06
-9.20742e-08
-1.49461e-06
-1.26177e-07
-1.44657e-06
-1.60255e-07
-1.39014e-06
-1.93835e-07
-1.32548e-06
-2.26344e-07
-1.2529e-06
-2.57159e-07
-1.17284e-06
-2.85539e-07
-1.08589e-06
-3.10742e-07
-9.92819e-07
-3.31953e-07
-8.94595e-07
-3.48309e-07
-7.92412e-07
-3.58937e-07
-6.87704e-07
-3.63006e-07
-5.82109e-07
-3.59841e-07
-4.77436e-07
-3.48928e-07
-3.75632e-07
-3.30106e-07
-2.78756e-07
-3.03452e-07
-1.88827e-07
-2.69626e-07
-1.07832e-07
-2.29625e-07
-3.75916e-08
-1.84997e-07
2.04305e-08
-1.3784e-07
6.51874e-08
-9.06366e-08
9.62613e-08
-4.59632e-08
1.14087e-07
-6.28108e-09
1.19694e-07
2.66734e-08
1.14872e-07
5.19452e-08
1.01819e-07
6.96955e-08
8.28168e-08
8.03668e-08
5.98898e-08
8.42039e-08
3.52378e-08
8.03584e-08
1.26114e-08
6.58931e-08
3.33636e-08
1.33297e-10
-1.40329e-08
-4.6574e-09
-1.02332e-08
-1.49889e-08
7.14053e-09
-2.93041e-08
2.54175e-08
-4.64859e-08
4.10722e-08
-6.58986e-08
5.35616e-08
-8.71148e-08
6.31173e-08
-1.09799e-07
7.02154e-08
-1.33673e-07
7.5389e-08
-1.58521e-07
7.91429e-08
-1.84195e-07
8.19214e-08
-2.10627e-07
8.41159e-08
-2.37838e-07
8.60883e-08
-2.65938e-07
8.81933e-08
-2.95129e-07
9.07895e-08
-3.25698e-07
9.42329e-08
-3.58002e-07
9.88568e-08
-3.9244e-07
1.0494e-07
-4.29426e-07
1.12677e-07
-4.69343e-07
1.22147e-07
-5.12519e-07
1.33313e-07
-5.59188e-07
1.46021e-07
-6.09479e-07
1.60023e-07
-6.63398e-07
1.74988e-07
-7.20825e-07
1.90529e-07
-7.81506e-07
2.06216e-07
-8.45061e-07
2.21591e-07
-9.10991e-07
2.36182e-07
-9.78688e-07
2.49518e-07
-1.04746e-06
2.61137e-07
-1.11656e-06
2.70612e-07
-1.18522e-06
2.77556e-07
-1.25265e-06
2.81644e-07
-1.31811e-06
2.82616e-07
-1.38091e-06
2.8028e-07
-1.44041e-06
2.7452e-07
-1.49604e-06
2.65283e-07
-1.5473e-06
2.52578e-07
-1.59374e-06
2.36464e-07
-1.63495e-06
2.17034e-07
-1.67058e-06
1.9441e-07
-1.70028e-06
1.68747e-07
-1.72373e-06
1.40224e-07
-1.74063e-06
1.0904e-07
-1.75068e-06
7.54089e-08
-1.75358e-06
3.95625e-08
-1.74911e-06
1.84401e-09
-1.73692e-06
-3.76797e-08
-1.7168e-06
-7.84887e-08
-1.68856e-06
-1.20308e-07
-1.65203e-06
-1.62713e-07
-1.60705e-06
-2.05233e-07
-1.55356e-06
-2.47323e-07
-1.49156e-06
-2.88341e-07
-1.42117e-06
-3.27553e-07
-1.34264e-06
-3.64067e-07
-1.25643e-06
-3.96949e-07
-1.16313e-06
-4.2526e-07
-1.06352e-06
-4.47921e-07
-9.58611e-07
-4.63842e-07
-8.49672e-07
-4.71945e-07
-7.38238e-07
-4.71275e-07
-6.26058e-07
-4.61108e-07
-5.1515e-07
-4.41013e-07
-4.07671e-07
-4.10931e-07
-3.0582e-07
-3.71476e-07
-2.11876e-07
-3.2357e-07
-1.28002e-07
-2.68871e-07
-5.60973e-08
-2.09745e-07
2.33461e-09
-1.49069e-07
4.64124e-08
-9.0041e-08
7.59637e-08
-3.58323e-08
9.18248e-08
1.08122e-08
9.56063e-08
4.81637e-08
8.95863e-08
7.57154e-08
7.60755e-08
9.38777e-08
5.71534e-08
1.03126e-07
3.48383e-08
1.02674e-07
1.28086e-08
8.79227e-08
4.61722e-08
-2.52206e-09
-1.15108e-08
-1.22453e-08
-5.10019e-10
-2.73539e-08
2.22492e-08
-4.57495e-08
4.38131e-08
-6.63985e-08
6.17212e-08
-8.88354e-08
7.59984e-08
-1.12786e-07
8.70675e-08
-1.38039e-07
9.54691e-08
-1.64421e-07
1.0177e-07
-1.91794e-07
1.06516e-07
-2.2008e-07
1.10208e-07
-2.49274e-07
1.1331e-07
-2.79454e-07
1.16268e-07
-3.10788e-07
1.19527e-07
-3.4353e-07
1.23532e-07
-3.78011e-07
1.28714e-07
-4.14613e-07
1.35458e-07
-4.53733e-07
1.44061e-07
-4.95749e-07
1.54693e-07
-5.40981e-07
1.67379e-07
-5.89657e-07
1.81988e-07
-6.41894e-07
1.98258e-07
-6.97687e-07
2.15816e-07
-7.56905e-07
2.34207e-07
-8.19296e-07
2.5292e-07
-8.8449e-07
2.71409e-07
-9.52012e-07
2.89113e-07
-1.0213e-06
3.0547e-07
-1.09172e-06
3.19939e-07
-1.1626e-06
3.32018e-07
-1.23325e-06
3.4126e-07
-1.30298e-06
3.47289e-07
-1.37114e-06
3.49805e-07
-1.43712e-06
3.48592e-07
-1.50035e-06
3.43512e-07
-1.56033e-06
3.34498e-07
-1.61659e-06
3.21543e-07
-1.66871e-06
3.04699e-07
-1.71631e-06
2.84063e-07
-1.75903e-06
2.5975e-07
-1.79652e-06
2.31898e-07
-1.82845e-06
2.00676e-07
-1.85449e-06
1.66273e-07
-1.87435e-06
1.28897e-07
-1.88771e-06
8.87704e-08
-1.89428e-06
4.61284e-08
-1.89374e-06
1.30524e-09
-1.88581e-06
-4.56068e-08
-1.87021e-06
-9.40949e-08
-1.84665e-06
-1.43864e-07
-1.81488e-06
-1.94485e-07
-1.77465e-06
-2.45464e-07
-1.72576e-06
-2.96218e-07
-1.66804e-06
-3.46056e-07
-1.60143e-06
-3.94165e-07
-1.52592e-06
-4.39572e-07
-1.44168e-06
-4.81189e-07
-1.34911e-06
-5.1783e-07
-1.24883e-06
-5.48207e-07
-1.14174e-06
-5.70926e-07
-1.02898e-06
-5.8471e-07
-9.11907e-07
-5.88346e-07
-7.92196e-07
-5.80819e-07
-6.71853e-07
-5.61357e-07
-5.53111e-07
-5.29672e-07
-4.38429e-07
-4.86158e-07
-3.30395e-07
-4.31604e-07
-2.31564e-07
-3.67703e-07
-1.44286e-07
-2.97023e-07
-7.05826e-08
-2.22772e-07
-1.19528e-08
-1.48671e-07
3.08986e-08
-7.86838e-08
5.82585e-08
-1.65477e-08
7.15266e-08
3.48956e-08
7.29916e-08
7.42504e-08
6.52831e-08
1.01586e-07
5.08293e-08
1.1758e-07
3.18372e-08
1.21666e-07
1.18962e-08
1.07864e-07
5.80684e-08
-5.30607e-09
-6.20473e-09
-1.94989e-08
1.36828e-08
-3.88348e-08
4.15851e-08
-6.07798e-08
6.57581e-08
-8.44672e-08
8.54085e-08
-1.09572e-07
1.01103e-07
-1.35933e-07
1.13429e-07
-1.63441e-07
1.22976e-07
-1.92004e-07
1.30334e-07
-2.21566e-07
1.36077e-07
-2.52114e-07
1.40757e-07
-2.8371e-07
1.44905e-07
-3.16491e-07
1.49049e-07
-3.50683e-07
1.53719e-07
-3.86588e-07
1.59437e-07
-4.24567e-07
1.66694e-07
-4.6501e-07
1.75902e-07
-5.08295e-07
1.87345e-07
-5.54745e-07
2.01143e-07
-6.04597e-07
2.17231e-07
-6.57976e-07
2.35367e-07
-7.14886e-07
2.55168e-07
-7.75206e-07
2.76136e-07
-8.387e-07
2.97701e-07
-9.05023e-07
3.19243e-07
-9.7374e-07
3.40126e-07
-1.04434e-06
3.59709e-07
-1.11624e-06
3.77376e-07
-1.18886e-06
3.92551e-07
-1.26156e-06
4.04718e-07
-1.33374e-06
4.1344e-07
-1.40481e-06
4.18362e-07
-1.47422e-06
4.1922e-07
-1.54146e-06
4.15834e-07
-1.60606e-06
4.08109e-07
-1.66758e-06
3.96011e-07
-1.72558e-06
3.79552e-07
-1.7797e-06
3.58812e-07
-1.82955e-06
3.33916e-07
-1.8748e-06
3.04998e-07
-1.9151e-06
2.722e-07
-1.95013e-06
2.35703e-07
-1.97956e-06
1.9571e-07
-2.0031e-06
1.52437e-07
-2.02045e-06
1.06116e-07
-2.03131e-06
5.6993e-08
-2.03534e-06
5.32957e-09
-2.0323e-06
-4.86401e-08
-2.02185e-06
-1.04547e-07
-2.00367e-06
-1.62048e-07
-1.97743e-06
-2.20721e-07
-1.94283e-06
-2.80063e-07
-1.89957e-06
-3.39482e-07
-1.84735e-06
-3.98276e-07
-1.78592e-06
-4.5559e-07
-1.71509e-06
-5.104e-07
-1.63476e-06
-5.61524e-07
-1.54493e-06
-6.07658e-07
-1.44583e-06
-6.47305e-07
-1.33803e-06
-6.78732e-07
-1.22243e-06
-7.00304e-07
-1.10042e-06
-7.10354e-07
-9.73748e-07
-7.07496e-07
-8.44322e-07
-6.90783e-07
-7.14389e-07
-6.59606e-07
-5.86588e-07
-6.1396e-07
-4.6378e-07
-5.54412e-07
-3.48922e-07
-4.8256e-07
-2.44875e-07
-4.01071e-07
-1.5425e-07
-3.13397e-07
-7.9194e-08
-2.23726e-07
-2.11163e-08
-1.36761e-07
1.96021e-08
-5.72661e-08
4.38623e-08
1.06354e-08
5.3827e-08
6.42858e-08
5.24528e-08
1.0296e-07
4.27613e-08
1.27271e-07
2.75536e-08
1.36873e-07
1.04578e-08
1.24959e-07
6.85262e-08
-7.94714e-09
1.74241e-09
-2.62212e-08
3.19569e-08
-4.91604e-08
6.45242e-08
-7.41816e-08
9.07794e-08
-1.00542e-07
1.11769e-07
-1.28019e-07
1.2858e-07
-1.56535e-07
1.41945e-07
-1.86056e-07
1.52497e-07
-2.16565e-07
1.60844e-07
-2.48075e-07
1.67586e-07
-2.80641e-07
1.73323e-07
-3.14387e-07
1.78651e-07
-3.49513e-07
1.84174e-07
-3.86293e-07
1.90499e-07
-4.25072e-07
1.98215e-07
-4.66229e-07
2.07851e-07
-5.10146e-07
2.19819e-07
-5.57164e-07
2.34363e-07
-6.07541e-07
2.51521e-07
-6.61429e-07
2.71118e-07
-7.18855e-07
2.92794e-07
-7.79726e-07
3.16039e-07
-8.43834e-07
3.40245e-07
-9.10871e-07
3.64737e-07
-9.8044e-07
3.88813e-07
-1.05208e-06
4.11764e-07
-1.12527e-06
4.32903e-07
-1.19948e-06
4.51581e-07
-1.27413e-06
4.67208e-07
-1.34869e-06
4.79276e-07
-1.42261e-06
4.87361e-07
-1.49539e-06
4.91135e-07
-1.56652e-06
4.90358e-07
-1.63556e-06
4.84873e-07
-1.70207e-06
4.74615e-07
-1.76562e-06
4.59565e-07
-1.82581e-06
4.39739e-07
-1.88224e-06
4.15241e-07
-1.93455e-06
3.86228e-07
-1.9824e-06
3.52844e-07
-2.02544e-06
3.15238e-07
-2.06335e-06
2.73617e-07
-2.09584e-06
2.28202e-07
-2.12263e-06
1.79229e-07
-2.14348e-06
1.2696e-07
-2.15814e-06
7.16548e-08
-2.16634e-06
1.35339e-08
-2.16784e-06
-4.71418e-08
-2.16233e-06
-1.10059e-07
-2.14948e-06
-1.74894e-07
-2.12896e-06
-2.41246e-07
-2.1004e-06
-3.08624e-07
-2.06344e-06
-3.76444e-07
-2.01769e-06
-4.44027e-07
-1.96273e-06
-5.10545e-07
-1.89816e-06
-5.74967e-07
-1.82369e-06
-6.35993e-07
-1.73905e-06
-6.92298e-07
-1.64408e-06
-7.42282e-07
-1.53875e-06
-7.84055e-07
-1.42349e-06
-8.15571e-07
-1.2991e-06
-8.34737e-07
-1.16711e-06
-8.39495e-07
-1.02968e-06
-8.28212e-07
-8.89368e-07
-7.99914e-07
-7.48968e-07
-7.5436e-07
-6.11425e-07
-6.91954e-07
-4.80022e-07
-6.13964e-07
-3.58214e-07
-5.22878e-07
-2.49276e-07
-4.22335e-07
-1.56076e-07
-3.16927e-07
-8.07975e-08
-2.1204e-07
-2.46255e-08
-1.13438e-07
1.26087e-08
-2.65988e-08
3.26499e-08
4.42445e-08
3.86055e-08
9.70048e-08
3.41633e-08
1.31713e-07
2.29197e-08
1.48117e-07
8.90292e-09
1.38976e-07
7.74291e-08
-1.03817e-08
1.21241e-08
-3.21996e-08
5.37749e-08
-5.82291e-08
9.05537e-08
-8.59151e-08
1.18465e-07
-1.14625e-07
1.40479e-07
-1.44209e-07
1.58164e-07
-1.74653e-07
1.7239e-07
-2.05984e-07
1.83827e-07
-2.38246e-07
1.93106e-07
-2.71516e-07
2.00856e-07
-3.05914e-07
2.07721e-07
-3.41622e-07
2.1436e-07
-3.78896e-07
2.21448e-07
-4.18057e-07
2.2966e-07
-4.59476e-07
2.39634e-07
-5.03541e-07
2.51915e-07
-5.50613e-07
2.66891e-07
-6.00984e-07
2.84734e-07
-6.54844e-07
3.05381e-07
-7.12263e-07
3.28537e-07
-7.73187e-07
3.53717e-07
-8.37446e-07
3.80299e-07
-9.04774e-07
4.07572e-07
-9.74818e-07
4.3478e-07
-1.04716e-06
4.61156e-07
-1.12134e-06
4.85942e-07
-1.19685e-06
5.08419e-07
-1.2732e-06
5.27925e-07
-1.34986e-06
5.43867e-07
-1.42633e-06
5.55745e-07
-1.50211e-06
5.63148e-07
-1.57674e-06
5.65765e-07
-1.64975e-06
5.63366e-07
-1.72067e-06
5.5579e-07
-1.78906e-06
5.43006e-07
-1.8545e-06
5.25004e-07
-1.91654e-06
5.01785e-07
-1.97479e-06
4.73489e-07
-2.02885e-06
4.4029e-07
-2.07835e-06
4.02345e-07
-2.12298e-06
3.5986e-07
-2.16245e-06
3.13088e-07
-2.19654e-06
2.62291e-07
-2.22505e-06
2.07739e-07
-2.24782e-06
1.49735e-07
-2.26476e-06
8.85929e-08
-2.27575e-06
2.45234e-08
-2.28065e-06
-4.22373e-08
-2.27927e-06
-1.11447e-07
-2.27129e-06
-1.82869e-07
-2.25637e-06
-2.56164e-07
-2.23409e-06
-3.30905e-07
-2.204e-06
-4.06541e-07
-2.1656e-06
-4.82423e-07
-2.11847e-06
-5.57675e-07
-2.06214e-06
-6.31299e-07
-1.99586e-06
-7.02268e-07
-1.91906e-06
-7.69098e-07
-1.8312e-06
-8.30149e-07
-1.73186e-06
-8.83395e-07
-1.62106e-06
-9.26367e-07
-1.4988e-06
-9.56995e-07
-1.36588e-06
-9.7242e-07
-1.2238e-06
-9.70286e-07
-1.07513e-06
-9.4859e-07
-9.23306e-07
-9.0618e-07
-7.71798e-07
-8.43463e-07
-6.24119e-07
-7.61642e-07
-4.84171e-07
-6.62827e-07
-3.55988e-07
-5.50517e-07
-2.43246e-07
-4.29669e-07
-1.48985e-07
-3.063e-07
-7.5287e-08
-1.87136e-07
-2.28828e-08
-7.90031e-08
9.25502e-09
1.21067e-08
2.40259e-08
8.22339e-08
2.56441e-08
1.30095e-07
1.8554e-08
1.55207e-07
7.48797e-09
1.50042e-07
8.49171e-08
-1.26056e-08
2.47297e-08
-3.74076e-08
7.85769e-08
-6.605e-08
1.19196e-07
-9.60292e-08
1.48445e-07
-1.2679e-07
1.7124e-07
-1.58236e-07
1.89609e-07
-1.90397e-07
2.04551e-07
-2.23351e-07
2.16781e-07
-2.57198e-07
2.26953e-07
-2.92069e-07
2.35728e-07
-3.28144e-07
2.43796e-07
-3.6566e-07
2.51876e-07
-4.0492e-07
2.60708e-07
-4.46282e-07
2.71022e-07
-4.90136e-07
2.83488e-07
-5.36863e-07
2.98642e-07
-5.86794e-07
3.16821e-07
-6.40167e-07
3.38108e-07
-6.97106e-07
3.6232e-07
-7.57608e-07
3.89039e-07
-8.21555e-07
4.17664e-07
-8.88723e-07
4.47467e-07
-9.58807e-07
4.77656e-07
-1.03143e-06
5.07408e-07
-1.10618e-06
5.35905e-07
-1.1826e-06
5.62359e-07
-1.26021e-06
5.86029e-07
-1.33853e-06
6.06242e-07
-1.41707e-06
6.22405e-07
-1.49534e-06
6.3402e-07
-1.57286e-06
6.40671e-07
-1.64915e-06
6.4205e-07
-1.72373e-06
6.37942e-07
-1.79609e-06
6.28149e-07
-1.86574e-06
6.12662e-07
-1.93222e-06
5.91483e-07
-1.99502e-06
5.64588e-07
-2.05368e-06
5.3215e-07
-2.1078e-06
4.94403e-07
-2.15703e-06
4.51577e-07
-2.20112e-06
4.0395e-07
-2.23987e-06
3.51835e-07
-2.27314e-06
2.95567e-07
-2.30085e-06
2.35448e-07
-2.32295e-06
1.71838e-07
-2.33953e-06
1.05166e-07
-2.35066e-06
3.56603e-08
-2.35638e-06
-3.65196e-08
-2.35675e-06
-1.11079e-07
-2.35178e-06
-1.87836e-07
-2.34143e-06
-2.66519e-07
-2.32544e-06
-3.46895e-07
-2.30337e-06
-4.28608e-07
-2.27456e-06
-5.11233e-07
-2.23783e-06
-5.9441e-07
-2.19227e-06
-6.76859e-07
-2.13698e-06
-7.5755e-07
-2.07108e-06
-8.34997e-07
-1.99391e-06
-9.07325e-07
-1.90476e-06
-9.72539e-07
-1.80294e-06
-1.0282e-06
-1.68779e-06
-1.07214e-06
-1.55951e-06
-1.1007e-06
-1.41852e-06
-1.11127e-06
-1.26652e-06
-1.10059e-06
-1.10649e-06
-1.06621e-06
-9.42736e-07
-1.00722e-06
-7.79802e-07
-9.24575e-07
-6.22154e-07
-8.20475e-07
-4.74392e-07
-6.9828e-07
-3.41133e-07
-5.62928e-07
-2.26408e-07
-4.21025e-07
-1.33298e-07
-2.80247e-07
-6.35443e-08
-1.48757e-07
-1.70788e-08
-3.43589e-08
8.40008e-09
5.67551e-08
1.72464e-08
1.21249e-07
1.47665e-08
1.57687e-07
6.44028e-09
1.58368e-07
9.13574e-08
-1.45505e-08
3.92802e-08
-4.18436e-08
1.0587e-07
-7.26754e-08
1.50028e-07
-1.0461e-07
1.8038e-07
-1.37145e-07
2.03775e-07
-1.70218e-07
2.22682e-07
-2.03897e-07
2.3823e-07
-2.38299e-07
2.51184e-07
-2.73574e-07
2.62227e-07
-3.09903e-07
2.72057e-07
-3.47516e-07
2.81409e-07
-3.86699e-07
2.91059e-07
-4.27796e-07
3.01805e-07
-4.71191e-07
3.14417e-07
-5.1728e-07
3.29577e-07
-5.66429e-07
3.47791e-07
-6.18929e-07
3.69322e-07
-6.74966e-07
3.94144e-07
-7.34599e-07
4.21954e-07
-7.9777e-07
4.52209e-07
-8.64307e-07
4.84201e-07
-9.33954e-07
5.17114e-07
-1.00638e-06
5.50084e-07
-1.08121e-06
5.82236e-07
-1.15802e-06
6.12715e-07
-1.23636e-06
6.40704e-07
-1.31578e-06
6.65444e-07
-1.39579e-06
6.86249e-07
-1.47589e-06
7.02513e-07
-1.55561e-06
7.13733e-07
-1.63442e-06
7.1948e-07
-1.71178e-06
7.1941e-07
-1.78716e-06
7.13328e-07
-1.86e-06
7.00992e-07
-1.92965e-06
6.8231e-07
-1.99555e-06
6.57378e-07
-2.05721e-06
6.26251e-07
-2.11416e-06
5.89095e-07
-2.16598e-06
5.46222e-07
-2.21239e-06
4.9799e-07
-2.25321e-06
4.44773e-07
-2.28838e-06
3.87008e-07
-2.31798e-06
3.25159e-07
-2.34205e-06
2.59522e-07
-2.36071e-06
1.90492e-07
-2.37416e-06
1.18624e-07
-2.38268e-06
4.41732e-08
-2.38655e-06
-3.26477e-08
-2.38607e-06
-1.11555e-07
-2.3815e-06
-1.92409e-07
-2.37296e-06
-2.75061e-07
-2.36052e-06
-3.59333e-07
-2.34405e-06
-4.4508e-07
-2.32319e-06
-5.3209e-07
-2.29751e-06
-6.20092e-07
-2.26575e-06
-7.08621e-07
-2.22642e-06
-7.96873e-07
-2.17768e-06
-8.83743e-07
-2.11724e-06
-9.67763e-07
-2.0434e-06
-1.04638e-06
-1.95553e-06
-1.11606e-06
-1.85324e-06
-1.17443e-06
-1.73565e-06
-1.2183e-06
-1.60232e-06
-1.2446e-06
-1.45396e-06
-1.24894e-06
-1.2923e-06
-1.22787e-06
-1.12095e-06
-1.17857e-06
-9.45201e-07
-1.10033e-06
-7.71042e-07
-9.94634e-07
-6.04143e-07
-8.65178e-07
-4.49931e-07
-7.1714e-07
-3.13616e-07
-5.5734e-07
-1.99466e-07
-3.94397e-07
-1.10353e-07
-2.3787e-07
-4.73167e-08
-9.73949e-08
-8.98806e-09
1.84264e-08
8.64201e-09
1.03619e-07
1.14765e-08
1.54853e-07
5.79006e-09
1.64055e-07
9.71474e-08
-1.62028e-08
5.5483e-08
-4.5537e-08
1.35204e-07
-7.81801e-08
1.82671e-07
-1.11761e-07
2.1396e-07
-1.45809e-07
2.37823e-07
-1.80286e-07
2.57159e-07
-2.15289e-07
2.73233e-07
-2.50972e-07
2.86867e-07
-2.87523e-07
2.98778e-07
-3.2517e-07
3.09703e-07
-3.64186e-07
3.20425e-07
-4.04899e-07
3.31772e-07
-4.47683e-07
3.44588e-07
-4.92937e-07
3.59672e-07
-5.41055e-07
3.77695e-07
-5.92376e-07
3.99113e-07
-6.4715e-07
4.24096e-07
-7.05509e-07
4.52503e-07
-7.6746e-07
4.83904e-07
-8.32894e-07
5.17644e-07
-9.01606e-07
5.52914e-07
-9.73315e-07
5.88823e-07
-1.04768e-06
6.24448e-07
-1.12431e-06
6.58869e-07
-1.20279e-06
6.91196e-07
-1.28267e-06
7.20583e-07
-1.36348e-06
7.46249e-07
-1.44471e-06
7.67482e-07
-1.52586e-06
7.83665e-07
-1.60639e-06
7.94259e-07
-1.68572e-06
7.98818e-07
-1.76321e-06
7.96898e-07
-1.83812e-06
7.88235e-07
-1.90982e-06
7.72687e-07
-1.97763e-06
7.50121e-07
-2.04092e-06
7.20672e-07
-2.09918e-06
6.84511e-07
-2.15194e-06
6.41852e-07
-2.19886e-06
5.93147e-07
-2.23978e-06
5.38913e-07
-2.27468e-06
4.79669e-07
-2.30365e-06
4.15976e-07
-2.32696e-06
3.48467e-07
-2.34527e-06
2.77833e-07
-2.35916e-06
2.04382e-07
-2.36882e-06
1.28288e-07
-2.37448e-06
4.98313e-08
-2.37651e-06
-3.0616e-08
-2.37533e-06
-1.12732e-07
-2.37125e-06
-1.96495e-07
-2.36441e-06
-2.81898e-07
-2.35482e-06
-3.68919e-07
-2.34234e-06
-4.57561e-07
-2.32668e-06
-5.47751e-07
-2.30761e-06
-6.39162e-07
-2.28451e-06
-7.31727e-07
-2.25653e-06
-8.24845e-07
-2.22257e-06
-9.17709e-07
-2.18116e-06
-1.00917e-06
-2.12963e-06
-1.09791e-06
-2.06376e-06
-1.18193e-06
-1.98111e-06
-1.25708e-06
-1.88061e-06
-1.3188e-06
-1.76236e-06
-1.36285e-06
-1.62534e-06
-1.38597e-06
-1.47021e-06
-1.383e-06
-1.29906e-06
-1.34971e-06
-1.11643e-06
-1.28296e-06
-9.28941e-07
-1.18212e-06
-7.44274e-07
-1.04985e-06
-5.69481e-07
-8.91933e-07
-4.10951e-07
-7.1587e-07
-2.74436e-07
-5.30912e-07
-1.64171e-07
-3.48135e-07
-8.24643e-08
-1.79101e-07
-2.9071e-08
-3.49669e-08
-7.54862e-10
7.53025e-08
8.47064e-09
1.45627e-07
5.55402e-09
1.66972e-07
1.02701e-07
-1.75665e-08
7.30495e-08
-4.85327e-08
1.6617e-07
-8.26449e-08
2.16783e-07
-1.17583e-07
2.48899e-07
-1.52898e-07
2.73138e-07
-1.88566e-07
2.92827e-07
-2.24708e-07
3.09375e-07
-2.61506e-07
3.23665e-07
-2.99184e-07
3.36456e-07
-3.38007e-07
3.48527e-07
-3.78288e-07
3.60706e-07
-4.20385e-07
3.7387e-07
-4.64694e-07
3.88897e-07
-5.1162e-07
4.06598e-07
-5.61542e-07
4.27617e-07
-6.14769e-07
4.52339e-07
-6.71505e-07
4.80832e-07
-7.31833e-07
5.12831e-07
-7.95714e-07
5.47785e-07
-8.63002e-07
5.84932e-07
-9.33465e-07
6.23377e-07
-1.0068e-06
6.62161e-07
-1.08266e-06
7.00309e-07
-1.16065e-06
7.36857e-07
-1.24033e-06
7.70877e-07
-1.32124e-06
8.01486e-07
-1.40286e-06
8.27876e-07
-1.48471e-06
8.49327e-07
-1.56621e-06
8.65169e-07
-1.6467e-06
8.74742e-07
-1.72537e-06
8.77494e-07
-1.80151e-06
8.73031e-07
-1.8743e-06
8.61034e-07
-1.94302e-06
8.41406e-07
-2.00696e-06
8.14057e-07
-2.06544e-06
7.79149e-07
-2.11794e-06
7.3702e-07
-2.16417e-06
6.88073e-07
-2.20397e-06
6.32955e-07
-2.23745e-06
5.72385e-07
-2.26487e-06
5.07092e-07
-2.28675e-06
4.37857e-07
-2.30356e-06
3.65277e-07
-2.31561e-06
2.89884e-07
-2.32338e-06
2.12148e-07
-2.3275e-06
1.32415e-07
-2.32875e-06
5.10749e-08
-2.32767e-06
-3.16931e-08
-2.32461e-06
-1.15788e-07
-2.31985e-06
-2.01262e-07
-2.3136e-06
-2.88143e-07
-2.30601e-06
-3.76507e-07
-2.29712e-06
-4.66457e-07
-2.28681e-06
-5.58057e-07
-2.27468e-06
-6.51296e-07
-2.26022e-06
-7.46183e-07
-2.24258e-06
-8.42484e-07
-2.22058e-06
-9.39716e-07
-2.19275e-06
-1.037e-06
-2.15764e-06
-1.13302e-06
-2.11315e-06
-1.22642e-06
-2.05598e-06
-1.31426e-06
-1.98103e-06
-1.39375e-06
-1.8852e-06
-1.45868e-06
-1.76749e-06
-1.50368e-06
-1.62762e-06
-1.52287e-06
-1.46598e-06
-1.51135e-06
-1.28544e-06
-1.4635e-06
-1.09162e-06
-1.37594e-06
-8.92921e-07
-1.24855e-06
-6.98966e-07
-1.08589e-06
-5.18431e-07
-8.96404e-07
-3.58677e-07
-6.90667e-07
-2.25705e-07
-4.81107e-07
-1.23406e-07
-2.814e-07
-5.28548e-08
-1.05518e-07
-1.19085e-08
3.43561e-08
5.10764e-09
1.28611e-07
5.48689e-09
1.66592e-07
1.08188e-07
-1.86543e-08
9.17037e-08
-5.0881e-08
1.98397e-07
-8.61494e-08
2.52052e-07
-1.22178e-07
2.84927e-07
-1.58525e-07
3.09485e-07
-1.9518e-07
3.29481e-07
-2.32277e-07
3.46473e-07
-2.70025e-07
3.61413e-07
-3.08677e-07
3.75108e-07
-3.48531e-07
3.8838e-07
-3.89928e-07
4.02103e-07
-4.3325e-07
4.17192e-07
-4.78905e-07
4.34551e-07
-5.27292e-07
4.54986e-07
-5.7877e-07
4.79095e-07
-6.33611e-07
5.07181e-07
-6.91976e-07
5.39196e-07
-7.539e-07
5.74756e-07
-8.19307e-07
6.13192e-07
-8.8802e-07
6.53645e-07
-9.59786e-07
6.95143e-07
-1.03429e-06
7.36663e-07
-1.11116e-06
7.77178e-07
-1.18998e-06
8.15678e-07
-1.27029e-06
8.51185e-07
-1.3516e-06
8.82802e-07
-1.43343e-06
9.09706e-07
-1.51516e-06
9.31057e-07
-1.59601e-06
9.46018e-07
-1.67515e-06
9.53886e-07
-1.75175e-06
9.5409e-07
-1.82496e-06
9.46236e-07
-1.89391e-06
9.29991e-07
-1.95775e-06
9.05244e-07
-2.01575e-06
8.72054e-07
-2.06733e-06
8.30728e-07
-2.11214e-06
7.8183e-07
-2.15011e-06
7.26043e-07
-2.1814e-06
6.64246e-07
-2.20638e-06
5.97364e-07
-2.22556e-06
5.26276e-07
-2.23947e-06
4.51769e-07
-2.24874e-06
3.74543e-07
-2.25404e-06
2.95185e-07
-2.25611e-06
2.14214e-07
-2.25562e-06
1.31932e-07
-2.25312e-06
4.85714e-08
-2.24906e-06
-3.57518e-08
-2.24384e-06
-1.21012e-07
-2.23782e-06
-2.07281e-07
-2.2313e-06
-2.94659e-07
-2.22451e-06
-3.83303e-07
-2.21757e-06
-4.73398e-07
-2.21049e-06
-5.65133e-07
-2.2031e-06
-6.58686e-07
-2.19508e-06
-7.54204e-07
-2.18585e-06
-8.51707e-07
-2.17455e-06
-9.51021e-07
-2.15985e-06
-1.05169e-06
-2.13993e-06
-1.15294e-06
-2.11279e-06
-1.25356e-06
-2.07574e-06
-1.35131e-06
-2.02584e-06
-1.44365e-06
-1.95806e-06
-1.52646e-06
-1.86775e-06
-1.59398e-06
-1.75171e-06
-1.63892e-06
-1.60923e-06
-1.65383e-06
-1.44106e-06
-1.63167e-06
-1.25086e-06
-1.56614e-06
-1.04587e-06
-1.45353e-06
-8.36792e-07
-1.29497e-06
-6.35521e-07
-1.09768e-06
-4.52397e-07
-8.7379e-07
-2.95513e-07
-6.37992e-07
-1.7083e-07
-4.06082e-07
-8.11156e-08
-1.95233e-07
-2.54103e-08
-2.13491e-08
9.3516e-10
1.02266e-07
5.5002e-09
1.62027e-07
1.13689e-07
-1.94877e-08
1.11191e-07
-5.26314e-08
2.31541e-07
-8.87674e-08
2.88188e-07
-1.25635e-07
3.21795e-07
-1.62794e-07
3.46643e-07
-2.00235e-07
3.66922e-07
-2.38108e-07
3.84347e-07
-2.7664e-07
3.99945e-07
-3.16109e-07
4.14577e-07
-3.56837e-07
4.29108e-07
-3.99188e-07
4.44454e-07
-4.43558e-07
4.61562e-07
-4.90356e-07
4.81349e-07
-5.3997e-07
5.046e-07
-5.92729e-07
5.31854e-07
-6.48867e-07
5.63318e-07
-7.085e-07
5.98829e-07
-7.71625e-07
6.3788e-07
-8.3813e-07
6.79697e-07
-9.07813e-07
7.23328e-07
-9.80399e-07
7.67729e-07
-1.05555e-06
8.11817e-07
-1.13288e-06
8.54506e-07
-1.21193e-06
8.9473e-07
-1.29226e-06
9.31513e-07
-1.37339e-06
9.63928e-07
-1.45464e-06
9.90958e-07
-1.53518e-06
1.0116e-06
-1.61413e-06
1.02498e-06
-1.69062e-06
1.03037e-06
-1.76372e-06
1.02719e-06
-1.83242e-06
1.01494e-06
-1.89579e-06
9.93359e-07
-1.95297e-06
9.62423e-07
-2.00334e-06
9.2242e-07
-2.04653e-06
8.73924e-07
-2.08249e-06
8.17784e-07
-2.11143e-06
7.54988e-07
-2.13382e-06
6.86634e-07
-2.15026e-06
6.13801e-07
-2.16145e-06
5.37464e-07
-2.16812e-06
4.58446e-07
-2.17102e-06
3.77444e-07
-2.17087e-06
2.95027e-07
-2.16828e-06
2.11627e-07
-2.16384e-06
1.27496e-07
-2.15806e-06
4.27846e-08
-2.15136e-06
-4.24465e-08
-2.14415e-06
-1.28222e-07
-2.1368e-06
-2.14639e-07
-2.12961e-06
-3.01849e-07
-2.12285e-06
-3.90059e-07
-2.11673e-06
-4.79518e-07
-2.11136e-06
-5.70502e-07
-2.10674e-06
-6.63303e-07
-2.10275e-06
-7.58199e-07
-2.09905e-06
-8.55402e-07
-2.09507e-06
-9.55007e-07
-2.08984e-06
-1.05692e-06