/*--------------------------------*- C++ -*----------------------------------*\
  =========                 |
  \\      /  F ield         | OpenFOAM: The Open Source CFD Toolbox
   \\    /   O peration     | Website:  https://openfoam.org
    \\  /    A nd           | Version:  13
     \\/     M anipulation  |
\*---------------------------------------------------------------------------*/
FoamFile
{
    format      ascii;
    class       volScalarField;
    location    "9.5";
    object      epsilon;
}
// * * * * * * * * * * * * * * * * * * * * * * * * * * * * * * * * * * * * * //

dimensions      [0 2 -3 0 0 0 0];

internalField   nonuniform List<scalar> 
400
(
2.4824e-05
8.58865e-05
0.000331945
0.000654938
0.00086585
0.00102859
0.00116112
0.00128809
0.00139983
0.00151422
0.00162159
0.00173495
0.00184922
0.00192185
0.0019544
0.00195543
0.00180319
0.00141743
0.000875621
0.000631794
0.00010975
0.000309806
0.000786579
0.00105291
0.00111196
0.00113236
0.00113835
0.00117899
0.00122814
0.0013174
0.00142896
0.00157478
0.00174743
0.00195137
0.00217494
0.00239079
0.00249003
0.00249322
0.00195237
0.00127734
0.00035072
0.000899115
0.00110901
0.00113121
0.00109765
0.00107769
0.00106694
0.0010986
0.00115907
0.00123534
0.00132491
0.00142569
0.00154679
0.00169663
0.0018823
0.00210715
0.00230086
0.00237713
0.00218213
0.00163711
0.000773178
0.0011818
0.00118693
0.00109371
0.00101853
0.00097464
0.000963847
0.000975583
0.00100083
0.00102717
0.00106635
0.00112838
0.0012268
0.00137204
0.00158522
0.00187307
0.00219091
0.00233711
0.00228816
0.00187175
0.00108744
0.00133255
0.00115717
0.00099938
0.000893367
0.000839414
0.000804758
0.000777593
0.000754568
0.000744203
0.000743632
0.000783165
0.00086755
0.00101815
0.00126433
0.00163356
0.00212103
0.00241564
0.00245605
0.00204732
0.00124899
0.00132392
0.00107955
0.000883165
0.000774763
0.000703843
0.000639718
0.000577205
0.000520477
0.000485423
0.000472101
0.000483683
0.000555017
0.000694989
0.00094834
0.00136974
0.0020013
0.0025562
0.00269981
0.00219023
0.00127402
0.00127354
0.000974703
0.000782187
0.000671485
0.000584695
0.00049924
0.000417068
0.000347267
0.000303208
0.000284645
0.000283067
0.00033341
0.000448147
0.00067667
0.00110454
0.00183273
0.00268736
0.00297986
0.00230137
0.00125492
0.00117008
0.000879908
0.000699612
0.000588914
0.000492488
0.000396629
0.000308948
0.000239705
0.000197478
0.000179129
0.000176014
0.000207485
0.000288982
0.000474427
0.000867502
0.00162395
0.00275464
0.00332539
0.00239348
0.00120716
0.00105593
0.000798644
0.000635815
0.000528027
0.000428296
0.000330571
0.000245172
0.000181518
0.000144738
0.000129371
0.000127245
0.00014857
0.000205464
0.000344792
0.000689756
0.00146245
0.00277224
0.00366649
0.00245843
0.00111492
0.000958927
0.000733335
0.000588141
0.000485724
0.000388284
0.000293344
0.000212803
0.000155605
0.000123008
0.000109543
0.000109041
0.00012482
0.000167247
0.000273127
0.000558016
0.00129903
0.00276761
0.00403117
0.00251022
0.00101881
0.000876385
0.000682376
0.000554436
0.000459287
0.000366242
0.000278226
0.000205895
0.000153915
0.000122156
0.000106662
0.00010596
0.0001184
0.000153765
0.000241028
0.00048434
0.00117114
0.0027372
0.00435626
0.00253618
0.00093433
0.000823746
0.000647091
0.000531837
0.000442996
0.000360141
0.000280229
0.00021141
0.000161358
0.000130252
0.000114801
0.000114452
0.000123478
0.000152419
0.000231302
0.00045106
0.00108577
0.00272306
0.00464204
0.00254883
0.000843735
0.00078214
0.00062893
0.00052274
0.000442519
0.000364033
0.000289406
0.000226391
0.00017978
0.000149707
0.000133334
0.000133231
0.000141496
0.000168196
0.000238447
0.000441846
0.00104804
0.00271901
0.00479208
0.00255251
0.000758578
0.000762261
0.000637389
0.000529335
0.000450026
0.000376258
0.000309311
0.000252749
0.000209345
0.000180296
0.000162369
0.000162117
0.000170244
0.000197187
0.000267705
0.000463775
0.00103985
0.00274008
0.00485111
0.00255268
0.000663187
0.000736874
0.000655249
0.000550574
0.000471789
0.000401584
0.00033906
0.000286924
0.00024652
0.000219466
0.000201095
0.000201359
0.000210348
0.000239921
0.000316075
0.000522487
0.00109175
0.00280944
0.00483928
0.00250081
0.000563002
0.000728043
0.000694355
0.000606799
0.000523911
0.00045341
0.000390926
0.000338984
0.000298059
0.000270877
0.000251821
0.000252935
0.000264634
0.000301424
0.000393166
0.000632794
0.00122676
0.00294688
0.00458042
0.00241783
0.00045419
0.000682323
0.000711274
0.000680043
0.000614697
0.000545344
0.000479535
0.000422881
0.000378217
0.000347276
0.000330266
0.000334539
0.000355011
0.000412725
0.000546587
0.00087705
0.00155022
0.00322242
0.00414815
0.00227242
0.000304648
0.000604915
0.000790803
0.000843916
0.000823293
0.000764547
0.000689767
0.000621947
0.000571548
0.000535653
0.000536631
0.000557626
0.000614574
0.000747755
0.00102032
0.00164926
0.00246239
0.00374661
0.00385932
0.00208443
0.000316416
0.00060834
0.00102532
0.00121465
0.00127548
0.00126851
0.00124134
0.00122166
0.00123426
0.00128057
0.00138163
0.00158086
0.0018624
0.00231497
0.00290681
0.00380375
0.00449904
0.00436451
0.00381774
0.00181502
0.000228586
0.000353782
0.000643357
0.000929793
0.00114023
0.00127421
0.00134729
0.00139175
0.00141286
0.0014257
0.00143051
0.00143989
0.00144968
0.00147138
0.00148918
0.00153872
0.00160421
0.00167748
0.00165951
0.00148174
)
;

boundaryField
{
    movingWall
    {
        type            epsilonWallFunction;
        value           nonuniform List<scalar> 
20
(
0.000228586
0.000353782
0.000643357
0.000929793
0.00114023
0.00127421
0.00134729
0.00139175
0.00141286
0.0014257
0.00143051
0.00143989
0.00144968
0.00147138
0.00148918
0.00153872
0.00160421
0.00167748
0.00165951
0.00148174
)
;
    }
    fixedWalls
    {
        type            epsilonWallFunction;
        value           nonuniform List<scalar> 
60
(
2.4824e-05
0.00010975
0.00035072
0.000773178
0.00108744
0.00124899
0.00127402
0.00125492
0.00120716
0.00111492
0.00101881
0.00093433
0.000843735
0.000758578
0.000663187
0.000563002
0.00045419
0.000304648
0.000316416
0.000228586
0.000631794
0.00127734
0.00163711
0.00187175
0.00204732
0.00219023
0.00230137
0.00239348
0.00245843
0.00251022
0.00253618
0.00254883
0.00255251
0.00255268
0.00250081
0.00241783
0.00227242
0.00208443
0.00181502
0.00148174
2.4824e-05
8.58865e-05
0.000331945
0.000654938
0.00086585
0.00102859
0.00116112
0.00128809
0.00139983
0.00151422
0.00162159
0.00173495
0.00184922
0.00192185
0.0019544
0.00195543
0.00180319
0.00141743
0.000875621
0.000631794
)
;
    }
    frontAndBack
    {
        type            empty;
    }
}


// ************************************************************************* //
