/*--------------------------------*- C++ -*----------------------------------*\
  =========                 |
  \\      /  F ield         | OpenFOAM: The Open Source CFD Toolbox
   \\    /   O peration     | Website:  https://openfoam.org
    \\  /    A nd           | Version:  13
     \\/     M anipulation  |
\*---------------------------------------------------------------------------*/
FoamFile
{
    format      ascii;
    class       volScalarField;
    location    "9.5";
    object      nut;
}
// * * * * * * * * * * * * * * * * * * * * * * * * * * * * * * * * * * * * * //

dimensions      [0 2 -1 0 0 0 0];

internalField   nonuniform List<scalar> 
400
(
2.18458e-07
7.55779e-07
2.91967e-06
5.75896e-06
7.61293e-06
9.04371e-06
1.02089e-05
1.13253e-05
1.23079e-05
1.33137e-05
1.42577e-05
1.52545e-05
1.62591e-05
1.68977e-05
1.71838e-05
1.71928e-05
1.58541e-05
1.24622e-05
7.69852e-06
5.55461e-06
9.6558e-07
4.1106e-06
7.30086e-06
1.44758e-05
1.86663e-05
2.44975e-05
2.85067e-05
3.38166e-05
3.78785e-05
4.18037e-05
4.47061e-05
4.68704e-05
4.76226e-05
4.82857e-05
4.8003e-05
4.58883e-05
4.45223e-05
3.56571e-05
1.99285e-05
1.12305e-05
3.08473e-06
1.36154e-05
2.28465e-05
2.96872e-05
3.62818e-05
4.22887e-05
4.74764e-05
5.23553e-05
5.53229e-05
5.80658e-05
5.97351e-05
6.08243e-05
6.10507e-05
6.09757e-05
5.98204e-05
5.66804e-05
5.30486e-05
4.71972e-05
2.69054e-05
1.43938e-05
6.79984e-06
2.57773e-05
3.34032e-05
4.01176e-05
4.62624e-05
5.12822e-05
5.57138e-05
5.9706e-05
6.27052e-05
6.53086e-05
6.64512e-05
6.71121e-05
6.75142e-05
6.75353e-05
6.68648e-05
6.39904e-05
5.7635e-05
5.40961e-05
3.55066e-05
1.64567e-05
9.56187e-06
3.26895e-05
4.0017e-05
4.60453e-05
5.25444e-05
5.82202e-05
6.31014e-05
6.63623e-05
6.76047e-05
6.73368e-05
6.72587e-05
6.75416e-05
6.82448e-05
6.90618e-05
7.00088e-05
7.01534e-05
6.35268e-05
5.7997e-05
4.21657e-05
1.80004e-05
1.09814e-05
3.58667e-05
4.33961e-05
5.14236e-05
5.83402e-05
6.37253e-05
6.63472e-05
6.62025e-05
6.56415e-05
6.53734e-05
6.53548e-05
6.56277e-05
6.61689e-05
6.73567e-05
6.93955e-05
7.17858e-05
6.9354e-05
6.14385e-05
4.86593e-05
1.92569e-05
1.12012e-05
3.64791e-05
4.70966e-05
5.55184e-05
6.13556e-05
6.45576e-05
6.53424e-05
6.44433e-05
6.39845e-05
6.42143e-05
6.47e-05
6.50749e-05
6.52901e-05
6.57668e-05
6.77668e-05
7.15916e-05
7.53161e-05
6.50524e-05
5.37914e-05
2.02339e-05
1.10333e-05
3.74927e-05
4.9524e-05
5.721e-05
6.22329e-05
6.43126e-05
6.42068e-05
6.33734e-05
6.36207e-05
6.46291e-05
6.56868e-05
6.6213e-05
6.61279e-05
6.61316e-05
6.65567e-05
7.00824e-05
7.64265e-05
6.9354e-05
5.86278e-05
2.10436e-05
1.06134e-05
3.70217e-05
4.98939e-05
5.76631e-05
6.22557e-05
6.38295e-05
6.34791e-05
6.31044e-05
6.42602e-05
6.59788e-05
6.73721e-05
6.78667e-05
6.73162e-05
6.66726e-05
6.68303e-05
6.845e-05
7.41374e-05
7.34734e-05
6.21541e-05
2.16144e-05
9.80256e-06
3.67938e-05
4.97509e-05
5.75986e-05
6.20707e-05
6.33942e-05
6.3193e-05
6.3308e-05
6.49433e-05
6.69341e-05
6.82911e-05
6.85795e-05
6.81883e-05
6.77543e-05
6.76387e-05
6.90328e-05
7.32679e-05
7.59107e-05
6.5553e-05
2.20697e-05
8.95769e-06
3.49009e-05
4.83006e-05
5.65867e-05
6.11421e-05
6.297e-05
6.28691e-05
6.29904e-05
6.41992e-05
6.60137e-05
6.76419e-05
6.81488e-05
6.81014e-05
6.79237e-05
6.83305e-05
6.94703e-05
7.31885e-05
7.78738e-05
6.80371e-05
2.22977e-05
8.21502e-06
3.26956e-05
4.70039e-05
5.57203e-05
6.07984e-05
6.21485e-05
6.2605e-05
6.27108e-05
6.35742e-05
6.49262e-05
6.61221e-05
6.64153e-05
6.67599e-05
6.76137e-05
6.84939e-05
6.99266e-05
7.31e-05
7.89653e-05
6.98309e-05
2.24087e-05
7.41862e-06
2.88066e-05
4.38646e-05
5.29228e-05
5.89112e-05
6.16906e-05
6.21846e-05
6.22484e-05
6.262e-05
6.33148e-05
6.42809e-05
6.4625e-05
6.53172e-05
6.67239e-05
6.87244e-05
7.03437e-05
7.29706e-05
7.98919e-05
7.04943e-05
2.24409e-05
6.66997e-06
2.61319e-05
4.10121e-05
5.0257e-05
5.69334e-05
6.0841e-05
6.15866e-05
6.17141e-05
6.18261e-05
6.205e-05
6.29549e-05
6.34654e-05
6.44721e-05
6.63477e-05
6.89428e-05
7.14981e-05
7.28982e-05
7.96857e-05
7.04758e-05
2.24423e-05
5.83146e-06
2.18306e-05
3.6347e-05
4.71466e-05
5.44276e-05
5.96621e-05
6.09958e-05
6.13518e-05
6.15202e-05
6.15367e-05
6.24696e-05
6.29813e-05
6.41118e-05
6.60694e-05
6.87047e-05
7.20185e-05
7.20005e-05
7.79638e-05
6.81792e-05
2.19857e-05
4.9507e-06
1.91771e-05
3.27231e-05
4.33818e-05
5.07077e-05
5.67258e-05
6.01524e-05
6.11034e-05
6.15412e-05
6.14952e-05
6.21727e-05
6.25646e-05
6.34464e-05
6.49636e-05
6.69916e-05
7.10691e-05
6.97565e-05
7.48063e-05
6.53215e-05
2.12561e-05
3.99432e-06
1.45622e-05
2.79997e-05
3.97305e-05
4.73503e-05
5.28564e-05
5.73154e-05
5.88445e-05
5.94252e-05
5.94586e-05
5.97787e-05
6.00455e-05
6.06249e-05
6.15334e-05
6.26574e-05
6.75174e-05
6.60793e-05
6.97365e-05
5.99211e-05
1.99773e-05
2.67946e-06
1.20254e-05
2.63084e-05
3.68371e-05
4.60935e-05
5.00957e-05
5.41367e-05
5.60217e-05
5.59791e-05
5.55122e-05
5.52215e-05
5.51067e-05
5.52516e-05
5.63312e-05
5.7023e-05
6.20272e-05
6.53631e-05
6.2877e-05
5.13315e-05
1.83246e-05
2.78244e-06
1.34536e-05
2.46098e-05
3.23768e-05
3.81821e-05
4.16692e-05
4.41582e-05
4.65502e-05
4.81123e-05
4.97041e-05
5.15422e-05
5.33661e-05
5.59073e-05
5.95065e-05
6.34458e-05
6.96102e-05
6.64001e-05
6.03148e-05
4.42206e-05
1.59561e-05
2.01017e-06
3.11085e-06
5.65682e-06
8.17507e-06
1.00251e-05
1.1203e-05
1.18454e-05
1.22362e-05
1.24217e-05
1.25344e-05
1.25767e-05
1.26588e-05
1.27447e-05
1.2935e-05
1.30913e-05
1.35265e-05
1.41021e-05
1.47462e-05
1.45884e-05
1.30259e-05
)
;

boundaryField
{
    movingWall
    {
        type            nutkWallFunction;
        Cmu             0.09;
        kappa           0.41;
        E               9.8;
        value           uniform 0;
    }
    fixedWalls
    {
        type            nutkWallFunction;
        Cmu             0.09;
        kappa           0.41;
        E               9.8;
        value           uniform 0;
    }
    frontAndBack
    {
        type            empty;
    }
}


// ************************************************************************* //
