/*--------------------------------*- C++ -*----------------------------------*\
  =========                 |
  \\      /  F ield         | OpenFOAM: The Open Source CFD Toolbox
   \\    /   O peration     | Website:  https://openfoam.org
    \\  /    A nd           | Version:  13
     \\/     M anipulation  |
\*---------------------------------------------------------------------------*/
FoamFile
{
    format      ascii;
    class       volScalarField;
    location    "9.5";
    object      p;
}
// * * * * * * * * * * * * * * * * * * * * * * * * * * * * * * * * * * * * * //

dimensions      [0 2 -2 0 0 0 0];

internalField   nonuniform List<scalar> 
400
(
3.10413e-08
-9.10089e-05
-0.000160035
-0.000423748
-0.00133037
-0.00284691
-0.00460685
-0.00628149
-0.00762753
-0.00851696
-0.00883892
-0.00850371
-0.00750266
-0.00581872
-0.00345614
-0.000555871
0.0025711
0.00532429
0.00702779
0.00738146
9.02448e-05
-1.87587e-05
-0.000256777
-0.000912006
-0.00209201
-0.00369609
-0.00542943
-0.00703675
-0.00834076
-0.00921594
-0.00956373
-0.00933712
-0.00848539
-0.00696406
-0.00479702
-0.00206558
0.000976774
0.00384495
0.00588014
0.00668239
0.000263408
-9.5598e-05
-0.000762527
-0.00187361
-0.00339531
-0.00512468
-0.00684439
-0.00839083
-0.00964054
-0.0104586
-0.0107817
-0.0105792
-0.00983079
-0.00852418
-0.00665859
-0.00427999
-0.00153631
0.00126605
0.0036053
0.00477306
-8.10719e-06
-0.000611272
-0.00172052
-0.0032669
-0.00505897
-0.00688394
-0.00857584
-0.0100168
-0.0111113
-0.0118091
-0.012083
-0.0119123
-0.0112772
-0.0101728
-0.00860208
-0.00659545
-0.00423501
-0.00169675
0.000644926
0.00188664
-0.000890886
-0.00169942
-0.00311291
-0.00489817
-0.00679635
-0.00860874
-0.010205
-0.0115072
-0.0124685
-0.0130701
-0.0133006
-0.0131513
-0.0126161
-0.0116959
-0.0103964
-0.00874004
-0.00677515
-0.00459784
-0.00246489
-0.00128869
-0.00233915
-0.00323051
-0.00473997
-0.00656066
-0.00842496
-0.010144
-0.0116128
-0.0127816
-0.0136308
-0.0141537
-0.0143486
-0.0142167
-0.0137621
-0.0129925
-0.0119194
-0.0105617
-0.00895356
-0.00715464
-0.00541293
-0.00429908
-0.004005
-0.0048958
-0.00634887
-0.00808544
-0.00983767
-0.0114265
-0.0127633
-0.013814
-0.0145703
-0.0150324
-0.0152038
-0.01509
-0.0146997
-0.0140463
-0.0131474
-0.0120239
-0.0107081
-0.00924581
-0.00788113
-0.00688691
-0.00554899
-0.00639015
-0.0077284
-0.00934268
-0.0109616
-0.01242
-0.0136405
-0.0145957
-0.0152819
-0.0157019
-0.0158605
-0.0157643
-0.0154233
-0.0148542
-0.0140808
-0.0131298
-0.0120377
-0.0108446
-0.00979273
-0.00890915
-0.00674479
-0.00753173
-0.00874811
-0.0102483
-0.0117497
-0.0131031
-0.0142371
-0.0151258
-0.0157659
-0.01616
-0.0163129
-0.0162304
-0.0159226
-0.0154078
-0.0147153
-0.0138796
-0.0129507
-0.0119447
-0.0111168
-0.0103342
-0.00750823
-0.00820994
-0.00933565
-0.0107578
-0.0121762
-0.0134639
-0.0145486
-0.0154024
-0.0160196
-0.0164018
-0.016553
-0.0164779
-0.0161867
-0.0156982
-0.0150464
-0.0142713
-0.0134551
-0.0125426
-0.0119007
-0.0111419
-0.00779585
-0.00841436
-0.00948493
-0.0108565
-0.0122338
-0.0134978
-0.0145716
-0.0154216
-0.0160383
-0.0164213
-0.0165734
-0.0164989
-0.0162074
-0.0157185
-0.0150703
-0.0143015
-0.0135603
-0.0126299
-0.0121813
-0.0113292
-0.00759855
-0.00817051
-0.00920445
-0.0105529
-0.0119282
-0.0132053
-0.0143027
-0.0151787
-0.015817
-0.016214
-0.0163704
-0.0162895
-0.0159814
-0.0154665
-0.0147869
-0.0139999
-0.0132295
-0.0122536
-0.0120016
-0.0108829
-0.00699465
-0.00754736
-0.00855556
-0.00987874
-0.0112762
-0.0125942
-0.0137444
-0.0146735
-0.0153554
-0.0157804
-0.015946
-0.0158537
-0.0155143
-0.0149497
-0.0142087
-0.0133546
-0.0125023
-0.0114878
-0.0113128
-0.00983582
-0.00611712
-0.00663641
-0.00760228
-0.00888305
-0.0102978
-0.0116732
-0.0129011
-0.0139097
-0.0146584
-0.0151277
-0.0153106
-0.0152056
-0.0148237
-0.0141889
-0.0133575
-0.0123932
-0.0114273
-0.0103405
-0.0101122
-0.00827219
-0.0051412
-0.0055828
-0.00644122
-0.0076373
-0.00904246
-0.0104777
-0.0118008
-0.0129117
-0.0137495
-0.0142813
-0.0144935
-0.0143802
-0.0139507
-0.0132308
-0.0122849
-0.0111732
-0.0100531
-0.00881587
-0.0084364
-0.00622261
-0.00426621
-0.0045208
-0.00515265
-0.00619434
-0.0075594
-0.00905113
-0.0104828
-0.0117169
-0.0126672
-0.0132832
-0.013543
-0.0134368
-0.0129704
-0.0121639
-0.0110878
-0.00979119
-0.00845098
-0.00694369
-0.00627019
-0.00347646
-0.00367686
-0.0035881
-0.00386247
-0.00467817
-0.00597269
-0.0075106
-0.00905499
-0.010426
-0.0115087
-0.0122313
-0.0125614
-0.0124819
-0.0120062
-0.0111265
-0.00991245
-0.00838391
-0.00671005
-0.00473261
-0.00338956
0.000795689
-0.00338993
-0.00278197
-0.00262284
-0.0031901
-0.00440193
-0.00597109
-0.00761903
-0.00913364
-0.0103673
-0.0112216
-0.0116493
-0.0116234
-0.0111583
-0.0102426
-0.00890464
-0.00709811
-0.00493504
-0.00211041
0.000791201
0.00837352
-0.00333474
-0.0021264
-0.00165309
-0.00203042
-0.0031644
-0.00475408
-0.0064915
-0.00813515
-0.00950824
-0.0104973
-0.0110398
-0.0111053
-0.010677
-0.00973139
-0.00825536
-0.00614153
-0.00330727
0.0011212
0.00738088
0.0204276
-0.00382803
-0.000725413
-0.000135015
-0.000687457
-0.00186794
-0.0035137
-0.00536734
-0.00714751
-0.00865468
-0.00976021
-0.0103958
-0.0105218
-0.0101141
-0.00914594
-0.00757306
-0.00523103
-0.00125322
0.00576352
0.0177477
0.0355816
)
;

boundaryField
{
    movingWall
    {
        type            zeroGradient;
    }
    fixedWalls
    {
        type            zeroGradient;
    }
    frontAndBack
    {
        type            empty;
    }
}


// ************************************************************************* //
