/*--------------------------------*- C++ -*----------------------------------*\
  =========                 |
  \\      /  F ield         | OpenFOAM: The Open Source CFD Toolbox
   \\    /   O peration     | Website:  https://openfoam.org
    \\  /    A nd           | Version:  13
     \\/     M anipulation  |
\*---------------------------------------------------------------------------*/
FoamFile
{
    format      ascii;
    class       surfaceScalarField;
    location    "9.5";
    object      phi;
}
// * * * * * * * * * * * * * * * * * * * * * * * * * * * * * * * * * * * * * //

dimensions      [0 3 -1 0 0 0 0];

internalField   nonuniform List<scalar> 
760
(
1.23755e-07
-1.23758e-07
-1.58914e-07
2.82669e-07
-1.01035e-06
8.51434e-07
-2.33723e-06
1.32688e-06
-3.74582e-06
1.4086e-06
-5.00167e-06
1.25585e-06
-6.06255e-06
1.06088e-06
-6.90323e-06
8.40679e-07
-7.51736e-06
6.14137e-07
-7.92403e-06
4.06662e-07
-8.13531e-06
2.11279e-07
-8.13906e-06
3.75387e-09
-7.9346e-06
-2.04465e-07
-7.51989e-06
-4.14709e-07
-6.82769e-06
-6.92201e-07
-5.83554e-06
-9.92149e-07
-4.48793e-06
-1.3476e-06
-2.83039e-06
-1.65754e-06
-1.08769e-06
-1.74271e-06
-1.08769e-06
-4.14284e-07
2.90526e-07
-1.42811e-06
1.29649e-06
-2.8014e-06
2.22473e-06
-4.06353e-06
2.58901e-06
-5.14563e-06
2.49069e-06
-6.0952e-06
2.20543e-06
-6.87029e-06
1.83597e-06
-7.47661e-06
1.447e-06
-7.92976e-06
1.06729e-06
-8.22211e-06
6.99015e-07
-8.33864e-06
3.27801e-07
-8.28253e-06
-5.23554e-08
-8.06603e-06
-4.20961e-07
-7.65135e-06
-8.29394e-07
-7.03603e-06
-1.30752e-06
-6.17244e-06
-1.85573e-06
-5.02494e-06
-2.49511e-06
-3.53167e-06
-3.15081e-06
-1.73139e-06
-3.54299e-06
-2.81908e-06
-1.01994e-06
1.31047e-06
-2.35347e-06
2.63002e-06
-3.53393e-06
3.40518e-06
-4.51457e-06
3.56965e-06
-5.34299e-06
3.31912e-06
-6.02627e-06
2.8887e-06
-6.56199e-06
2.37169e-06
-6.94063e-06
1.82564e-06
-7.18374e-06
1.3104e-06
-7.29294e-06
8.08209e-07
-7.29185e-06
3.26714e-07
-7.18987e-06
-1.54332e-07
-6.96982e-06
-6.41013e-07
-6.61619e-06
-1.18302e-06
-6.11717e-06
-1.80654e-06
-5.43774e-06
-2.53516e-06
-4.54899e-06
-3.38386e-06
-3.3847e-06
-4.3151e-06
-1.86331e-06
-5.06437e-06
-4.68239e-06
-1.24646e-06
2.55693e-06
-2.47049e-06
3.85405e-06
-3.46053e-06
4.39522e-06
-4.23131e-06
4.34043e-06
-4.83806e-06
3.92587e-06
-5.29744e-06
3.34807e-06
-5.6256e-06
2.69985e-06
-5.84992e-06
2.04995e-06
-5.97833e-06
1.43882e-06
-6.02578e-06
8.5566e-07
-5.99334e-06
2.94273e-07
-5.88263e-06
-2.65047e-07
-5.68108e-06
-8.42565e-07
-5.38748e-06
-1.47662e-06
-4.9922e-06
-2.20182e-06
-4.47137e-06
-3.05599e-06
-3.79151e-06
-4.06372e-06
-2.89605e-06
-5.21057e-06
-1.65497e-06
-6.30544e-06
-6.33737e-06
-1.17393e-06
3.73085e-06
-2.21153e-06
4.89166e-06
-3.01509e-06
5.19879e-06
-3.61951e-06
4.94485e-06
-4.06524e-06
4.3716e-06
-4.38007e-06
3.66291e-06
-4.59409e-06
2.91387e-06
-4.73314e-06
2.189e-06
-4.80341e-06
1.50909e-06
-4.81215e-06
8.64403e-07
-4.7598e-06
2.41924e-07
-4.64632e-06
-3.78533e-07
-4.46778e-06
-1.02111e-06
-4.22559e-06
-1.71881e-06
-3.91683e-06
-2.51058e-06
-3.52825e-06
-3.44456e-06
-3.02586e-06
-4.56612e-06
-2.34498e-06
-5.89144e-06
-1.38543e-06
-7.26499e-06
-7.7228e-06
-9.66226e-07
4.69708e-06
-1.79655e-06
5.72198e-06
-2.43217e-06
5.8344e-06
-2.89732e-06
5.41001e-06
-3.22712e-06
4.70139e-06
-3.45222e-06
3.88801e-06
-3.60218e-06
3.06384e-06
-3.695e-06
2.28182e-06
-3.73675e-06
1.55084e-06
-3.7311e-06
8.58753e-07
-3.67804e-06
1.88864e-07
-3.5762e-06
-4.80378e-07
-3.42431e-06
-1.17299e-06
-3.22477e-06
-1.91835e-06
-2.98095e-06
-2.7544e-06
-2.69168e-06
-3.73383e-06
-2.34114e-06
-4.91666e-06
-1.86566e-06
-6.36691e-06
-1.11978e-06
-8.01088e-06
-8.84258e-06
-7.33085e-07
5.43016e-06
-1.34881e-06
6.33771e-06
-1.82361e-06
6.3092e-06
-2.16785e-06
5.75425e-06
-2.41061e-06
4.94415e-06
-2.57683e-06
4.05423e-06
-2.68865e-06
3.17565e-06
-2.75815e-06
2.35132e-06
-2.79051e-06
1.5832e-06
-2.78766e-06
8.55904e-07
-2.74794e-06
1.49138e-07
-2.6687e-06
-5.59616e-07
-2.54833e-06
-1.29336e-06
-2.38952e-06
-2.07715e-06
-2.19988e-06
-2.94405e-06
-1.98606e-06
-3.94765e-06
-1.74205e-06
-5.16068e-06
-1.41638e-06
-6.69258e-06
-9.16976e-07
-8.51029e-06
-9.75955e-06
-4.78565e-07
5.90873e-06
-9.07264e-07
6.76641e-06
-1.23403e-06
6.63596e-06
-1.47366e-06
5.99388e-06
-1.64611e-06
5.11659e-06
-1.76846e-06
4.17658e-06
-1.8546e-06
3.26179e-06
-1.91165e-06
2.40838e-06
-1.94299e-06
1.61453e-06
-1.94909e-06
8.62013e-07
-1.92754e-06
1.2758e-07
-1.87536e-06
-6.11795e-07
-1.79075e-06
-1.37796e-06
-1.67614e-06
-2.19177e-06
-1.54073e-06
-3.07945e-06
-1.39688e-06
-4.0915e-06
-1.24452e-06
-5.31304e-06
-1.04301e-06
-6.89409e-06
-7.08128e-07
-8.84517e-06
-1.04677e-05
-2.56678e-07
6.16541e-06
-4.94686e-07
7.00441e-06
-6.79201e-07
6.82048e-06
-8.24185e-07
6.13886e-06
-9.33953e-07
5.22636e-06
-1.01793e-06
4.26056e-06
-1.08211e-06
3.32597e-06
-1.12904e-06
2.4553e-06
-1.15999e-06
1.64548e-06
-1.17467e-06
8.76695e-07
-1.17119e-06
1.24099e-07
-1.1472e-06
-6.35787e-07
-1.10138e-06
-1.42378e-06
-1.03582e-06
-2.25733e-06
-9.59618e-07
-3.15565e-06
-8.86956e-07
-4.16416e-06
-8.21819e-07
-5.37818e-06
-7.32117e-07
-6.98379e-06
-5.60319e-07
-9.01696e-06
-1.1028e-05
-2.82011e-08
6.19361e-06
-1.04828e-07
7.08104e-06
-1.65581e-07
6.88123e-06
-2.16153e-07
6.18943e-06
-2.62502e-07
5.27271e-06
-3.06384e-07
4.30444e-06
-3.46762e-07
3.36635e-06
-3.81624e-07
2.49016e-06
-4.09935e-07
1.67379e-06
-4.31144e-07
8.97903e-07
-4.44548e-07
1.37503e-07
-4.49066e-07
-6.3127e-07
-4.44501e-07
-1.42835e-06
-4.32661e-07
-2.26917e-06
-4.21758e-07
-3.16655e-06
-4.21176e-07
-4.16475e-06
-4.54392e-07
-5.34496e-06
-4.69046e-07
-6.96913e-06
-4.17279e-07
-9.06873e-06
-1.14453e-05
1.8536e-07
6.00825e-06
2.81306e-07
6.98509e-06
3.51156e-07
6.81138e-06
3.80327e-07
6.16026e-06
3.92401e-07
5.26064e-06
3.88918e-07
4.30793e-06
3.7511e-07
3.38016e-06
3.5555e-07
2.50972e-06
3.32577e-07
1.69676e-06
3.06655e-07
9.23826e-07
2.77232e-07
1.66926e-07
2.43814e-07
-5.97852e-07
2.05299e-07
-1.38983e-06
1.59695e-07
-2.22357e-06
1.00772e-07
-3.10763e-06
2.36798e-09
-4.06634e-06
-1.0415e-07
-5.23844e-06
-2.41849e-07
-6.83143e-06
-3.17302e-07
-8.99328e-06
-1.17626e-05
3.87064e-07
5.62118e-06
6.45848e-07
6.72631e-06
8.38551e-07
6.61868e-06
9.60345e-07
6.03847e-06
1.0392e-06
5.18178e-06
1.08381e-06
4.26332e-06
1.10301e-06
3.36096e-06
1.10367e-06
2.50906e-06
1.08931e-06
1.71113e-06
1.0604e-06
9.52735e-07
1.01511e-06
2.1222e-07
9.51395e-07
-5.34139e-07
8.66272e-07
-1.30471e-06
7.57131e-07
-2.11442e-06
6.17716e-07
-2.96821e-06
4.46015e-07
-3.89464e-06
2.17611e-07
-5.01004e-06
-5.18839e-08
-6.56194e-06
-2.03702e-07
-8.84146e-06
-1.19663e-05
5.84346e-07
5.03684e-06
1.00033e-06
6.31033e-06
1.3136e-06
6.30541e-06
1.53355e-06
5.81852e-06
1.68683e-06
5.0285e-06
1.78919e-06
4.16096e-06
1.85051e-06
3.29965e-06
1.87864e-06
2.48093e-06
1.8779e-06
1.71187e-06
1.84892e-06
9.81714e-07
1.78872e-06
2.7242e-07
1.69417e-06
-4.39585e-07
1.56053e-06
-1.17107e-06
1.38383e-06
-1.93772e-06
1.16037e-06
-2.74475e-06
8.86952e-07
-3.62122e-06
5.4112e-07
-4.66421e-06
1.76599e-07
-6.19742e-06
-6.45633e-08
-8.6003e-06
-1.20308e-05
7.53995e-07
4.28284e-06
1.31747e-06
5.74686e-06
1.74835e-06
5.87452e-06
2.08413e-06
5.48274e-06
2.3303e-06
4.78233e-06
2.50629e-06
3.98496e-06
2.62345e-06
3.18249e-06
2.69006e-06
2.41431e-06
2.7109e-06
1.69102e-06
2.6868e-06
1.00581e-06
2.61408e-06
3.4514e-07
2.48801e-06
-3.13513e-07
2.30357e-06
-9.86626e-07
2.05504e-06
-1.6892e-06
1.73856e-06
-2.42827e-06
1.35524e-06
-3.23791e-06
8.93984e-07
-4.20295e-06
4.28585e-07
-5.73202e-06
8.37959e-08
-8.25551e-06
-1.1947e-05
8.97589e-07
3.38525e-06
1.58786e-06
5.05658e-06
2.14246e-06
5.31992e-06
2.60418e-06
5.02102e-06
2.96176e-06
4.42476e-06
3.22872e-06
3.718e-06
3.41733e-06
2.99388e-06
3.5359e-06
2.29575e-06
3.58883e-06
1.6381e-06
3.57727e-06
1.01737e-06
3.49674e-06
4.25665e-07
3.34003e-06
-1.56795e-07
3.10415e-06
-7.50754e-07
2.78121e-06
-1.36625e-06
2.36581e-06
-2.01287e-06
1.86805e-06
-2.74015e-06
1.2817e-06
-3.61659e-06
6.97355e-07
-5.14768e-06
2.28032e-07
-7.78619e-06
-1.1719e-05
9.15476e-07
2.46978e-06
1.72003e-06
4.25203e-06
2.42338e-06
4.61657e-06
3.03427e-06
4.41013e-06
3.53348e-06
3.92555e-06
3.92007e-06
3.33141e-06
4.20326e-06
2.71068e-06
4.39251e-06
2.10651e-06
4.49199e-06
1.53862e-06
4.50375e-06
1.00561e-06
4.4248e-06
5.04616e-07
4.24496e-06
2.30472e-08
3.96168e-06
-4.67479e-07
3.56853e-06
-9.731e-07
3.05687e-06
-1.50121e-06
2.44691e-06
-2.13019e-06
1.73122e-06
-2.9009e-06
1.02225e-06
-4.43871e-06
4.26196e-07
-7.19013e-06
-1.12928e-05
8.28213e-07
1.64156e-06
1.7092e-06
3.37104e-06
2.57774e-06
3.74803e-06
3.35612e-06
3.63175e-06
4.01435e-06
3.26733e-06
4.54413e-06
2.80163e-06
4.94357e-06
2.31124e-06
5.22089e-06
1.82919e-06
5.38085e-06
1.37865e-06
5.42717e-06
9.59292e-07
5.35896e-06
5.72823e-07
5.17803e-06
2.03979e-07
4.86351e-06
-1.52962e-07
4.42658e-06
-5.36166e-07
3.84692e-06
-9.21548e-07
3.15006e-06
-1.43334e-06
2.32853e-06
-2.07937e-06
1.49323e-06
-3.60341e-06
7.02146e-07
-6.39904e-06
-1.05907e-05
3.4271e-07
1.29885e-06
1.35405e-06
2.3597e-06
2.41292e-06
2.68916e-06
3.4002e-06
2.64447e-06
4.25204e-06
2.41549e-06
4.95289e-06
2.10077e-06
5.49967e-06
1.76446e-06
5.89503e-06
1.43383e-06
6.14725e-06
1.12643e-06
6.26358e-06
8.42958e-07
6.2476e-06
5.88803e-07
6.10973e-06
3.41851e-07
5.84427e-06
1.12503e-07
5.44358e-06
-1.35485e-07
4.88302e-06
-3.60979e-07
4.18971e-06
-7.40029e-07
3.33563e-06
-1.22529e-06
2.40919e-06
-2.67697e-06
1.23618e-06
-5.22603e-06
-9.3545e-06
-5.16421e-07
1.81527e-06
5.99942e-07
1.24333e-06
1.97641e-06
1.31269e-06
3.24299e-06
1.37789e-06
4.34018e-06
1.3183e-06
5.26247e-06
1.17849e-06
6.01304e-06
1.01389e-06
6.588e-06
8.58863e-07
7.00423e-06
7.10213e-07
7.26984e-06
5.7734e-07
7.40518e-06
4.53466e-07
7.40683e-06
3.40196e-07
7.28581e-06
2.33523e-07
7.03113e-06
1.19198e-07
6.65877e-06
1.13822e-08
6.16225e-06
-2.43507e-07
5.48024e-06
-5.43284e-07
4.53354e-06
-1.73027e-06
2.66241e-06
-3.3549e-06
-6.69209e-06
1.81527e-06
3.05861e-06
4.3713e-06
5.74919e-06
7.06749e-06
8.24598e-06
9.25987e-06
1.01187e-05
1.08289e-05
1.14063e-05
1.18598e-05
1.21999e-05
1.24335e-05
1.25527e-05
1.25641e-05
1.23205e-05
1.17773e-05
1.0047e-05
6.69209e-06
)
;

boundaryField
{
    movingWall
    {
        type            calculated;
        value           uniform 0;
    }
    fixedWalls
    {
        type            calculated;
        value           uniform 0;
    }
    frontAndBack
    {
        type            empty;
    }
}


// ************************************************************************* //
