# vtk DataFile Version 2.0
tracks
ASCII
DATASET POLYDATA
POINTS 12025 float
-0.0206 0.000999968 1e-05 -0.02058 0.00099997 1e-05 -0.02056 0.000999975 1e-05 -0.02054 0.000999981
1e-05 -0.02052 0.000999989 1e-05 -0.0205 0.001 1e-05 -0.0202034 0.00100016 1e-05
-0.0199069 0.0010006 1e-05 -0.0196103 0.00100131 1e-05 -0.0193137 0.0010023 1e-05 -0.0190172
0.00100356 1e-05 -0.0187132 0.00100509 1e-05 -0.0184093 0.00100672 1e-05 -0.0181054 0.00100846
1e-05 -0.0178015 0.0010103 1e-05 -0.0174976 0.00101223 1e-05 -0.0172058 0.00101417 1e-05
-0.016914 0.00101615 1e-05 -0.0166222 0.00101817 1e-05 -0.0163305 0.00102024 1e-05 -0.0160387
0.00102234 1e-05 -0.0159167 0.00102323 1e-05 -0.0157948 0.00102414 1e-05 -0.0156728 0.00102504
1e-05 -0.0155508 0.00102595 1e-05 -0.0154345 0.00102682 1e-05 -0.0152752 0.00102801 1e-05
-0.015116 0.00102922 1e-05 -0.0149567 0.00103043 1e-05 -0.0147974 0.00103164 1e-05 -0.0146381
0.00103287 1e-05 -0.0143692 0.00103495 1e-05 -0.0141002 0.00103703 1e-05 -0.0138313 0.00103911
1e-05 -0.0135624 0.00104119 1e-05 -0.0132934 0.00104328 1e-05 -0.0130353 0.00104529 1e-05
-0.0127771 0.00104728 1e-05 -0.0125189 0.00104927 1e-05 -0.0122607 0.00105124 1e-05 -0.0120025
0.00105321 1e-05 -0.0117547 0.00105509 1e-05 -0.0115068 0.00105695 1e-05 -0.0112589 0.00105881
1e-05 -0.0110111 0.00106065 1e-05 -0.0107632 0.00106249 1e-05 -0.0105252 0.00106424 1e-05
-0.0102873 0.00106599 1e-05 -0.0100493 0.00106772 1e-05 -0.00981133 0.00106945 1e-05 -0.00957337
0.00107117 1e-05 -0.00934491 0.00107282 1e-05 -0.00911645 0.00107446 1e-05 -0.00888799 0.00107608
1e-05 -0.00865954 0.00107769 1e-05 -0.00843108 0.0010793 1e-05 -0.00821175 0.00108083 1e-05
-0.00799242 0.00108234 1e-05 -0.00777309 0.00108384 1e-05 -0.00755376 0.00108532 1e-05 -0.00733443
0.00108678 1e-05 -0.00712387 0.00108819 1e-05 -0.0069133 0.00108957 1e-05 -0.00670273 0.00109093
1e-05 -0.00649216 0.00109228 1e-05 -0.0062816 0.00109362 1e-05 -0.00607944 0.0010949 1e-05
-0.00587729 0.00109616 1e-05 -0.00567514 0.0010974 1e-05 -0.00547298 0.00109864 1e-05 -0.00527083
0.00109986 1e-05 -0.00507675 0.00110105 1e-05 -0.00488267 0.0011022 1e-05 -0.0046886 0.00110334
1e-05 -0.00449452 0.00110447 1e-05 -0.00430044 0.0011056 1e-05 -0.00411412 0.00110668 1e-05
-0.0039278 0.00110773 1e-05 -0.00374147 0.00110877 1e-05 -0.00355515 0.0011098 1e-05 -0.00336883
0.00111081 1e-05 -0.00318995 0.0011118 1e-05 -0.00301107 0.00111275 1e-05 -0.00283219 0.00111369
1e-05 -0.00265331 0.00111461 1e-05 -0.00247443 0.00111552 1e-05 -0.0023027 0.00111641 1e-05
-0.00213097 0.00111726 1e-05 -0.00195924 0.0011181 1e-05 -0.0017875 0.00111892 1e-05 -0.00161577
0.00111973 1e-05 -0.0014509 0.00112051 1e-05 -0.00128603 0.00112126 1e-05 -0.00112116 0.001122
1e-05 -0.000956289 0.00112273 1e-05 -0.000791418 0.00112344 1e-05 -0.000633135 0.00112414 1e-05
-0.000474851 0.00112481 1e-05 -0.000316567 0.00112546 1e-05 -0.000158283 0.0011261 1e-05 0
0.00112673 1e-05 0.000105677 0.00112715 1e-05 0.000211355 0.00112755 1e-05 0.000317033 0.00112794
1e-05 0.00042271 0.00112833 1e-05 0.000528387 0.0011287 1e-05 0.000634886 0.00112907 1e-05
0.000741385 0.00112943 1e-05 0.000847885 0.00112977 1e-05 0.000954384 0.0011301 1e-05 0.00106088
0.00113042 1e-05 0.00116821 0.00113074 1e-05 0.00127554 0.00113105 1e-05 0.00138286 0.00113134
1e-05 0.00149019 0.00113161 1e-05 0.00159752 0.00113188 1e-05 0.00170568 0.00113214 1e-05
0.00181384 0.00113239 1e-05 0.001922 0.00113264 1e-05 0.00203016 0.00113287 1e-05 0.00213833
0.00113309 1e-05 0.00224733 0.00113332 1e-05 0.00235633 0.00113353 1e-05 0.00246533 0.00113374
1e-05 0.00257434 0.00113395 1e-05 0.00268334 0.00113415 1e-05 0.00279319 0.00113435 1e-05
0.00290304 0.00113455 1e-05 0.00301289 0.00113475 1e-05 0.00312274 0.00113495 1e-05 0.00323259
0.00113514 1e-05 0.00334329 0.00113533 1e-05 0.003454 0.00113553 1e-05 0.0035647 0.00113572
1e-05 0.0036754 0.00113592 1e-05 0.00378611 0.00113611 1e-05 0.00389767 0.0011363 1e-05
0.00400924 0.00113649 1e-05 0.0041208 0.00113669 1e-05 0.00423237 0.00113688 1e-05 0.00434393
0.00113706 1e-05 0.00445636 0.00113725 1e-05 0.00456879 0.00113743 1e-05 0.00468123 0.00113761
1e-05 0.00479366 0.00113778 1e-05 0.00490609 0.00113795 1e-05 0.0050194 0.00113812 1e-05
0.0051327 0.00113828 1e-05 0.00524601 0.00113843 1e-05 0.00535931 0.00113858 1e-05 0.00547262
0.00113872 1e-05 0.00558681 0.00113885 1e-05 0.005701 0.00113898 1e-05 0.00581518 0.00113909
1e-05 0.00592937 0.0011392 1e-05 0.00604356 0.0011393 1e-05 0.00615863 0.00113939 1e-05
0.00627371 0.00113947 1e-05 0.00638878 0.00113955 1e-05 0.00650386 0.00113961 1e-05 0.00661893
0.00113966 1e-05 0.0067349 0.0011397 1e-05 0.00685087 0.00113974 1e-05 0.00696684 0.00113976
1e-05 0.00708281 0.00113977 1e-05 0.00719878 0.00113977 1e-05 0.00731565 0.00113976 1e-05
0.00743252 0.00113974 1e-05 0.00754939 0.00113971 1e-05 0.00766626 0.00113968 1e-05 0.00778313
0.00113963 1e-05 0.00790091 0.00113957 1e-05 0.00801869 0.0011395 1e-05 0.00813647 0.00113943
1e-05 0.00825425 0.00113935 1e-05 0.00837203 0.00113926 1e-05 0.00849073 0.00113916 1e-05
0.00860942 0.00113905 1e-05 0.00872812 0.00113894 1e-05 0.00884682 0.00113882 1e-05 0.00896551
0.0011387 1e-05 0.00908513 0.00113857 1e-05 0.00920475 0.00113843 1e-05 0.00932437 0.00113829
1e-05 0.00944398 0.00113815 1e-05 0.0095636 0.001138 1e-05 0.00958909 0.00113797 1e-05
0.00961458 0.00113793 1e-05 0.00964007 0.0011379 1e-05 0.00966556 0.00113787 1e-05 0.00969094
0.00113783 1e-05 0.00978602 0.00113771 1e-05 0.0098811 0.00113758 1e-05 0.00997618 0.00113745
1e-05 0.0100713 0.00113731 1e-05 0.0101663 0.00113718 1e-05 0.0102878 0.00113699 1e-05
0.0104093 0.00113681 1e-05 0.0105308 0.00113663 1e-05 0.0106523 0.00113643 1e-05 0.0107738
0.00113624 1e-05 0.0108962 0.00113603 1e-05 0.0110186 0.00113582 1e-05 0.0111411 0.0011356
1e-05 0.0112635 0.00113538 1e-05 0.0113859 0.00113516 1e-05 0.0115093 0.00113491 1e-05
0.0116327 0.00113467 1e-05 0.0117561 0.00113442 1e-05 0.0118795 0.00113417 1e-05 0.0120028
0.00113391 1e-05 0.0121272 0.00113362 1e-05 0.0122515 0.00113333 1e-05 0.0123759 0.00113304
1e-05 0.0125002 0.00113274 1e-05 0.0126245 0.00113243 1e-05 0.0127498 0.00113209 1e-05
0.0128752 0.00113175 1e-05 0.0130005 0.00113141 1e-05 0.0131258 0.00113105 1e-05 0.0132511
0.00113068 1e-05 0.0133774 0.00113028 1e-05 0.0135036 0.00112988 1e-05 0.0136299 0.00112946
1e-05 0.0137562 0.00112904 1e-05 0.0138825 0.0011286 1e-05 0.0140098 0.00112813 1e-05
0.014137 0.00112765 1e-05 0.0142643 0.00112716 1e-05 0.0143915 0.00112665 1e-05 0.0145188
0.00112614 1e-05 0.0146471 0.00112558 1e-05 0.0147753 0.00112502 1e-05 0.0149036 0.00112445
1e-05 0.0150318 0.00112386 1e-05 0.0151601 0.00112325 1e-05 0.0152893 0.00112261 1e-05
0.0154186 0.00112197 1e-05 0.0155478 0.0011213 1e-05 0.0156771 0.00112062 1e-05 0.0158063
0.00111992 1e-05 0.0159366 0.00111919 1e-05 0.0160668 0.00111845 1e-05 0.0161971 0.00111768
1e-05 0.0163273 0.00111691 1e-05 0.0164576 0.00111611 1e-05 0.0165889 0.00111529 1e-05
0.0167201 0.00111446 1e-05 0.0168514 0.0011136 1e-05 0.0169827 0.00111273 1e-05 0.0171139
0.00111184 1e-05 0.0172462 0.00111093 1e-05 0.0173785 0.00111 1e-05 0.0175108 0.00110905
1e-05 0.0176431 0.00110808 1e-05 0.0177754 0.0011071 1e-05 0.0179087 0.00110611 1e-05
0.018042 0.00110509 1e-05 0.0181753 0.00110404 1e-05 0.0183087 0.00110299 1e-05 0.018442
0.00110192 1e-05 0.0185763 0.00110085 1e-05 0.0187107 0.00109974 1e-05 0.018845 0.00109862
1e-05 0.0189794 0.00109748 1e-05 0.0191137 0.00109633 1e-05 0.0192491 0.00109518 1e-05
0.0193845 0.001094 1e-05 0.0195199 0.0010928 1e-05 0.0196553 0.00109158 1e-05 0.0197907
0.00109037 1e-05 0.0199272 0.00108915 1e-05 0.0200636 0.0010879 1e-05 0.0202001 0.00108663
1e-05 0.0203365 0.00108534 1e-05 0.020473 0.00108406 1e-05 0.0206105 0.00108279 1e-05
0.020748 0.00108148 1e-05 0.0208855 0.00108015 1e-05 0.021023 0.0010788 1e-05 0.0211606
0.00107747 1e-05 0.0212991 0.00107615 1e-05 0.0214377 0.00107479 1e-05 0.0215763 0.00107341
1e-05 0.0217149 0.00107201 1e-05 0.0218535 0.00107064 1e-05 0.0219931 0.00106928 1e-05
0.0221328 0.00106788 1e-05 0.0222724 0.00106645 1e-05 0.0224121 0.00106502 1e-05 0.0225517
0.00106361 1e-05 0.0226925 0.00106222 1e-05 0.0228332 0.00106079 1e-05 0.022974 0.00105933
1e-05 0.0231147 0.00105787 1e-05 0.0232555 0.00105643 1e-05 0.0233973 0.00105502 1e-05
0.0235391 0.00105357 1e-05 0.023681 0.00105209 1e-05 0.0238228 0.0010506 1e-05 0.0239647
0.00104915 1e-05 0.0241076 0.00104773 1e-05 0.0242505 0.00104626 1e-05 0.0243935 0.00104476
1e-05 0.0245364 0.00104326 1e-05 0.0246794 0.0010418 1e-05 0.0248234 0.00104037 1e-05
0.0249675 0.0010389 1e-05 0.0251115 0.00103739 1e-05 0.0252556 0.00103589 1e-05 0.0253996
0.00103442 1e-05 0.0255448 0.00103299 1e-05 0.02569 0.00103151 1e-05 0.0258351 0.00103001
1e-05 0.0259803 0.00102851 1e-05 0.0261255 0.00102705 1e-05 0.0262718 0.00102562 1e-05
0.0264181 0.00102415 1e-05 0.0265644 0.00102266 1e-05 0.0267107 0.00102118 1e-05 0.026857
0.00101972 1e-05 0.0270044 0.0010183 1e-05 0.0271519 0.00101684 1e-05 0.0272993 0.00101537
1e-05 0.0274468 0.0010139 1e-05 0.0275942 0.00101246 1e-05 0.0277428 0.00101105 1e-05
0.0278914 0.00100961 1e-05 0.0280399 0.00100815 1e-05 0.0281885 0.00100671 1e-05 0.0283371
0.00100528 1e-05 0.0284869 0.00100389 1e-05 0.0286366 0.00100246 1e-05 0.0287863 0.00100103
1e-05 0.0289361 0.000999611 1e-05 0.0290858 0.000998205 1e-05 0.0292367 0.000996833 1e-05
0.0293876 0.000995426 1e-05 0.0295385 0.000994021 1e-05 0.0296894 0.000992625 1e-05 0.0298403
0.000991241 1e-05 0.0299924 0.00098989 1e-05 0.0301445 0.000988505 1e-05 0.0302966 0.000987128
1e-05 0.0304486 0.00098576 1e-05 0.0306007 0.000984401 1e-05 0.030754 0.000983072 1e-05
0.0309072 0.000981714 1e-05 0.0310605 0.000980365 1e-05 0.0312138 0.000979025 1e-05 0.031367
0.000977692 1e-05 0.0315215 0.000976385 1e-05 0.0316759 0.000975054 1e-05 0.0318304 0.000973731
1e-05 0.0319848 0.000972416 1e-05 0.0321393 0.000971109 1e-05 0.0322949 0.00096982 1e-05
0.0324506 0.000968513 1e-05 0.0326062 0.000967213 1e-05 0.0327619 0.000965919 1e-05 0.0329175
[...]
POINT_DATA 12025
FIELD attributes 4
age 1 12025 float
-9.99841e-06 -7.99852e-06 -5.99873e-06 -3.99905e-06 -1.99947e-06 0 2.96489e-05 5.92772e-05 8.88852e-05 0.000118473 0.000148041
0.000178311 0.000208562 0.000238788 0.000268989 0.000299168 0.000328109 0.000357035 0.000385941 0.000414827 0.000443692
0.000455748 0.000467802 0.000479853 0.000491901 0.000503386 0.000519114 0.000534836 0.000550554 0.000566266 0.000581973
0.000608482 0.000634978 0.000661462 0.000687933 0.00071439 0.000739776 0.000765156 0.000790524 0.000815882 0.00084123
0.000865551 0.000889869 0.00091418 0.000938483 0.000962778 0.000986089 0.0010094 0.00103271 0.00105601 0.0010793
0.00110165 0.001124 0.00114635 0.0011687 0.00119104 0.00121247 0.00123391 0.00125534 0.00127677 0.0012982
0.00131876 0.00133932 0.00135988 0.00138044 0.001401 0.00142072 0.00144045 0.00146018 0.0014799 0.00149962
0.00151855 0.00153748 0.00155641 0.00157533 0.00159426 0.00161242 0.00163058 0.00164874 0.0016669 0.00168506
0.00170249 0.00171992 0.00173735 0.00175478 0.0017722 0.00178893 0.00180566 0.00182238 0.00183911 0.00185584
0.0018719 0.00188795 0.001904 0.00192006 0.00193611 0.00195153 0.00196694 0.00198235 0.00199776 0.00201317
0.00202347 0.00203376 0.00204405 0.00205434 0.00206463 0.002075 0.00208537 0.00209574 0.00210611 0.00211649
0.00212695 0.0021374 0.00214785 0.00215831 0.00216877 0.00217931 0.00218985 0.0022004 0.00221094 0.00222148
0.00223212 0.00224275 0.00225338 0.00226401 0.00227464 0.00228537 0.00229609 0.00230681 0.00231753 0.00232826
0.00233908 0.00234989 0.0023607 0.00237152 0.00238233 0.00239325 0.00240415 0.00241505 0.00242596 0.00243687
0.00244788 0.00245887 0.00246987 0.00248088 0.00249188 0.00250298 0.00251408 0.00252517 0.00253627 0.00254737
0.00255858 0.00256977 0.00258097 0.00259217 0.00260337 0.00261468 0.00262598 0.00263728 0.00264859 0.0026599
0.00267132 0.00268273 0.00269414 0.00270556 0.00271698 0.00272851 0.00274004 0.00275157 0.0027631 0.00277465
0.00278629 0.00279794 0.00280959 0.00282125 0.00283291 0.00284468 0.00285645 0.00286823 0.00288001 0.00289181
0.0029037 0.0029156 0.00292751 0.00293943 0.00295135 0.0029539 0.00295644 0.00295899 0.00296153 0.00296406
0.00297356 0.00298306 0.00299256 0.00300207 0.00301159 0.00302377 0.00303595 0.00304813 0.00306033 0.00307254
0.00308488 0.00309721 0.00310955 0.0031219 0.00313426 0.00314677 0.00315925 0.00317174 0.00318425 0.00319677
0.00320946 0.0032221 0.00323477 0.00324744 0.00326013 0.00327299 0.00328581 0.00329865 0.0033115 0.00332436
0.00333741 0.00335042 0.00336343 0.00337646 0.00338951 0.00340276 0.00341595 0.00342916 0.00344239 0.00345563
0.00346908 0.00348247 0.00349588 0.0035093 0.00352275 0.00353641 0.00355 0.00356362 0.00357726 0.00359091
0.00360479 0.00361861 0.00363244 0.00364629 0.00366018 0.00367428 0.00368833 0.00370238 0.00371647 0.00373059
0.00374491 0.0037592 0.00377349 0.00378781 0.00380217 0.00381673 0.00383127 0.0038458 0.00386036 0.00387497
0.00388977 0.00390455 0.00391933 0.00393414 0.003949 0.00396405 0.00397909 0.00399412 0.00400919 0.0040243
0.00403961 0.0040549 0.0040702 0.00408553 0.00410091 0.00411647 0.00413203 0.0041476 0.00416319 0.00417884
0.00419466 0.00421049 0.00422633 0.0042422 0.00425812 0.00427421 0.00429031 0.00430643 0.00432258 0.00433877
0.00435512 0.0043715 0.0043879 0.00440433 0.0044208 0.00443743 0.00445408 0.00447077 0.00448747 0.00450422
0.00452113 0.00453806 0.00455503 0.00457202 0.00458905 0.00460623 0.00462345 0.0046407 0.00465798 0.00467528
0.00469275 0.00471025 0.00472779 0.00474535 0.00476294 0.00478068 0.00479847 0.00481629 0.00483414 0.004852
0.00487003 0.0048881 0.00490621 0.00492433 0.00494249 0.0049608 0.00497915 0.00499754 0.00501595 0.00503438
0.00505297 0.00507161 0.00509027 0.00510896 0.00512768 0.00514655 0.00516547 0.00518441 0.00520338 0.00522237
0.00524152 0.00526072 0.00527994 0.00529918 0.00531845 0.00533788 0.00535735 0.00537684 0.00539636 0.00541589
0.0054356 0.00545534 0.0054751 0.00549489 0.00551469 0.00553466 0.00555467 0.0055747 0.00559475 0.00561482
0.00563506 0.00565533 0.00567563 0.00569594 0.00571627 0.00573677 0.0057573 0.00577785 0.00579842 0.00581901
0.00583977 0.00586056 0.00588136 0.00590219 0.00592303 0.00594201 0.005961 0.00598001 0.00599904 0.00601786
0.00601995 0.00602204 0.00602413 0.00602622 0.0060283 0.00604957 0.00607086 0.00609216 0.00611348 0.00613482
0.00615633 0.00617786 0.00619941 0.00622097 0.00624255 0.00626431 0.00628609 0.00630788 0.00632968 0.0063515
0.0063735 0.00639551 0.00641754 0.00643959 0.00646165 0.00648388 0.00650613 0.0065284 0.00655068 0.00657298
0.00659545 0.00661794 0.00664045 0.00666297 0.00668551 0.00670821 0.00673094 0.00675369 0.00677644 0.00679922
0.00682216 0.00684513 0.00686811 0.00689111 0.00691412 0.0069373 0.00696051 0.00698373 0.00700697 0.00703022
0.00705364 0.00707709 0.00710056 0.00712404 0.00714753 0.00717119 0.00719489 0.0072186 0.00724233 0.00726607
0.00728998 0.00731392 0.00733789 0.00736187 0.00738585 0.00741002 0.00743421 0.00745844 0.00748268 0.00750691
0.00753134 0.00755579 0.00758027 0.00760477 0.00762927 0.00765395 0.00767867 0.00770342 0.00772818 0.00775294
0.00777789 0.00780288 0.00782789 0.00785292 0.00787795 0.00790318 0.00792844 0.00795372 0.00797903 0.00800433
0.00802984 0.00805537 0.00808094 0.00810652 0.00813211 0.00815789 0.00818371 0.00820956 0.00823543 0.0082613
0.00828737 0.00831348 0.00833962 0.00836577 0.00839193 0.0084183 0.0084447 0.00847112 0.00849757 0.00852402
0.00855069 0.00857739 0.00860411 0.00863085 0.0086576 0.00868457 0.00871157 0.0087386 0.00876564 0.00879269
0.00881997 0.00884728 0.00887461 0.00890195 0.00892932 0.00895691 0.00898453 0.00901217 0.00903983 0.00906751
0.00909542 0.00912336 0.00915131 0.00917929 0.00920729 0.00922 0.00923272 0.00924545 0.00925818 0.00927053
0.00928616 0.00930179 0.00931742 0.00933307 0.00934872 0.00937728 0.00940587 0.00943448 0.00946312 0.00949178
0.00952068 0.00954961 0.00957856 0.00960754 0.00963655 0.00966579 0.00969506 0.00972437 0.00975369 0.00978305
0.00981264 0.00984227 0.00987193 0.00990162 0.00993133 0.00996128 0.00999127 0.0100213 0.0100513 0.0100814
0.0101117 0.0101421 0.0101725 0.0102029 0.0102334 0.0102641 0.0102948 0.0103256 0.0103564 0.0103873
0.0104183 0.0104495 0.0104806 0.0105119 0.0105431 0.0105746 0.0106061 0.0106377 0.0106693 0.0107009
0.0107328 0.0107647 0.0107967 0.0108287 0.0108608 0.0108931 0.0109255 0.0109579 0.0109903 0.0110228
0.0110555 0.0110883 0.0111211 0.011154 0.0111869 0.0112201 0.0112533 0.0112866 0.0113199 0.0113532
0.0113868 0.0114205 0.0114542 0.011488 0.0115218 0.0115381 0.0115544 0.0115707 0.011587 0.011603
0.0116209 0.0116388 0.0116567 0.0116747 0.0116926 0.0117272 0.0117618 0.0117964 0.0118311 0.0118658
0.0119009 0.0119359 0.0119711 0.0120062 0.0120414 0.012077 0.0121125 0.0121482 0.0121838 0.0122195
0.0122555 0.0122916 0.0123277 0.0123639 0.0124001 0.0124366 0.0124732 0.0125098 0.0125465 0.0125832
0.0126202 0.0126573 0.0126945 0.0127317 0.0127689 0.0128065 0.0128441 0.0128817 0.0129195 0.0129572
0.0129953 0.0130335 0.0130717 0.0131099 0.0131482 0.0131868 0.0132255 0.0132643 0.0133031 0.0133419
0.0133811 0.0134203 0.0134596 0.013499 0.0135384 0.0135412 0.0135441 0.0135469 0.0135497 0.0135526
0.0135895 0.0136265 0.0136635 0.0137006 0.0137377 0.013778 0.0138184 0.0138588 0.0138993 0.0139398
0.0139807 0.0140216 0.0140626 0.0141037 0.0141448 0.0141863 0.0142278 0.0142694 0.0143111 0.0143528
0.0143949 0.014437 0.0144792 0.0145215 0.0145638 0.0146066 0.0146493 0.0146922 0.0147351 0.014778
0.0148214 0.0148648 0.0149083 0.0149518 0.0149954 0.0150394 0.0150835 0.0151276 0.0151718 0.0152161
0.0152581 0.0153001 0.0153422 0.0153844 0.0154244 0.0154275 0.0154307 0.0154339 0.015437 0.0154402
0.0154856 0.015531 0.0155765 0.0156221 0.0156678 0.0157138 0.01576 0.0158062 0.0158525 0.0158988
0.0159456 0.0159925 0.0160394 0.0160865 0.0161336 0.0161811 0.0162287 0.0162764 0.0163242 0.016372
0.0164204 0.0164687 0.0165172 0.0165658 0.0166144 0.0166635 0.0167127 0.016762 0.0168113 0.0168608
0.0169107 0.0169607 0.0170108 0.017061 0.0171113 0.0171333 0.0171553 0.0171774 0.0171994 0.017221
0.01725 0.0172791 0.0173081 0.0173372 0.0173663 0.017418 0.0174698 0.0175216 0.0175736 0.0176257
0.0176783 0.017731 0.0177837 0.0178366 0.0178897 0.0179432 0.0179969 0.0180506 0.0181045 0.0181585
0.018213 0.0182677 0.0183225 0.0183773 0.0184324 0.018488 0.0185437 0.0185995 0.0186555 0.0187116
0.0187683 0.0188251 0.0188821 0.0189392 0.0189965 0.0189989 0.0190013 0.0190037 0.0190061 0.0190085
0.0190639 0.0191195 0.0191753 0.0192311 0.0192871 0.0193462 0.0194053 0.0194647 0.0195241 0.0195838
0.0196441 0.0197046 0.0197652 0.0198259 0.0198869 0.0199485 0.0200103 0.0200722 0.0201343 0.0201966
0.0202596 0.0203228 0.0203862 0.0204497 0.0205135 0.0205756 0.0206379 0.0207004 0.020763 0.0208231
0.020826 0.020829 0.0208319 0.0208348 0.0208378 0.0209038 0.02097 0.0210364 0.021103 0.0211698
0.0212374 0.0213052 0.0213732 0.0214415 0.02151 0.0215793 0.0216488 0.0217185 0.0217885 0.0218587
0.0219298 0.0220011 0.0220726 0.0221444 0.0222166 0.0222895 0.0223627 0.0224361 0.0225099 0.0225839
0.0226041 0.0226243 0.0226446 0.0226648 0.0226849 0.0227399 0.0227951 0.0228505 0.022906 0.0229617
0.0230386 0.0231159 0.0231935 0.0232714 0.0233496 0.0234287 0.0235082 0.023588 0.0236681 0.0237486
0.02383 0.0239118 0.023994 0.0240764 0.0241593 0.0242432 0.0243274 0.024412 0.024497 0.0245824
0.0245895 0.0245966 0.0246037 0.0246108 0.0246178 0.0246973 0.0247771 0.0248573 0.0249377 0.0250186
0.0251077 0.0251972 0.0252871 0.0253774 0.0254682 0.0255601 0.0256524 0.0257452 0.0258384 0.0259321
0.026027 0.0261223 0.0262181 0.0263143 0.0264111 0.0264592 0.0265073 0.0265556 0.0266039 0.0266515
0.0267023 0.0267532 0.0268042 0.0268554 0.0269067 0.027008 0.0271097 0.027212 0.0273148 0.0274182
0.0275229 0.0276281 0.0277339 0.0278402 0.0279471 0.0280553 0.0281642 0.0282736 0.0283836 0.0284943
0.0285584 0.0286227 0.0286872 0.0287519 0.0288155 0.0288644 0.0289135 0.0289627 0.029012 0.0290614
0.0291774 0.029294 0.0294113 0.0295292 0.0296477 0.0297677 0.0298885 0.0300099 0.0301319 0.0302547
0.0303789 0.0305039 0.0306296 0.030756 0.0308831 0.0309339 0.0309847 0.0310357 0.0310868 0.0311374
0.0312164 0.0312956 0.031375 0.0314547 0.0315347 0.0316679 0.0318019 0.0319366 0.032072 0.0322082
0.032346 0.0324845 0.0326239 0.032764 0.0329049 0.0330474 0.0331907 0.0333348 0.0334796 0.0336252
0.0336287 0.0336321 0.0336355 0.033639 0.0336424 0.0337865 0.0339312 0.0340767 0.0342229 0.0343698
0.0345219 0.0346748 0.0348286 0.0349831 0.0351382 0.0352951 0.0354529 0.0356115 0.0357708 0.0359309
0.036014 0.0360974 0.0361811 0.0362649 0.0363485 0.0364282 0.0365081 0.0365882 0.0366685 0.036749
0.0369158 0.0370835 0.037252 0.0374212 0.0375911 0.0377629 0.0379355 0.0381091 0.0382833 0.0384582
0.0386034 0.0387492 0.0388955 0.0390423 0.0391895 0.0392217 0.039254 0.0392862 0.0393185 0.0393508
0.0395328 0.0397155 0.0398989 0.0400831 0.0402679 0.0404547 0.0406423 0.0408308 0.0410199 0.0412096
0.0414013 0.0415939 0.0417871 0.041981 0.0421755 0.0421838 0.0421921 0.0422004 0.0422087 0.042217
0.0424055 0.0425946 0.0427842 0.0429745 0.0431653 0.0433665 0.0435684 0.043771 0.0439742 0.0441777
0.0443834 0.0445897 0.0447966 0.0450041 0.0452119 0.0452607 0.0453096 0.0453585 0.0454074 0.0454567
0.0456182 0.04578 0.0459421 0.0461045 0.0462671 0.0464809 0.0466952 0.04691 0.0471253 0.0473406
0.047558 0.0477758 0.0479941 0.0482126 0.0484311 0.0485402 0.0486493 0.0487585 0.0488679 0.0489809
0.0490919 0.0492029 0.049314 0.0494251 0.0495362 0.0497595 0.0499831 0.0502069 0.0504308 0.050654
0.05087 0.0510863 0.051303 0.0515196 0.0517358 0.0518023 0.0518687 0.0519352 0.0520017 0.0520695
0.0522269 0.0523842 0.0525414 0.0526985 0.0528552 0.0530869 0.0533184 0.0535498 0.0537808 0.0540109
0.0541384 0.0542659 0.0543932 0.0545204 0.0546545 0.0547635 0.0548724 0.0549812 0.0550899 0.0551983
0.0554432 0.0556873 0.0559308 0.0561735 0.0564147 0.0566049 0.0567946 0.0569837 0.0571721 0.0573816
0.0574357 0.0574899 0.0575439 0.057598 0.0576519 0.0579054 0.0581577 0.0584087 0.0586583 0.0589059
0.0591617 0.059416 0.0596688 0.0599198 0.0601686 0.0602007 0.0602328 0.0602649 0.060297 0.0603298
0.0605533 0.0607754 0.0609959 0.061215 0.0614323 0.0616888 0.0619432 0.0621955 0.0624456 0.0626932
0.0628743 0.0630542 0.0632329 0.0634104 0.0636197 0.0636845 0.0637491 0.0638136 0.0638779 0.0639421
0.0641945 0.0644445 0.0646919 0.0649368 0.065179 0.0654281 0.0656746 0.0659184 0.0661596 0.0663981
0.0666026 0.0668051 0.0670056 0.0672043 0.0674533 0.0674817 0.06751 0.0675384 0.0675667 0.0675949
0.0678355 0.0680733 0.0683083 0.0685405 0.0687702 0.069006 0.069239 0.0694691 0.0696965 0.0699214
0.0701522 0.0703801 0.0706053 0.0708277 0.0710476 0.0712732 0.0714961 0.0717162 0.0719335 0.0721484
0.0721708 0.0721933 0.0722156 0.072238 0.0722611 0.0724577 0.0726521 0.0728443 0.0730344 0.0732225
0.073438 0.0736507 0.0738607 0.0740681 0.0742731 0.0744833 0.0746908 0.0748955 0.0750977 0.0752978
0.0755034 0.0757064 0.075907 0.076105 0.0763002 0.0765001 0.076697 0.0768913 0.0770834 0.0772737
0.0774699 0.0776642 0.0778552 0.078043 0.0782277 0.078346 0.0784628 0.078579 0.0786946 0.078765
0.0788414 0.0789174 0.0789929 0.079068 0.0791427 -9.9999e-06 -7.9999e-06 -5.99992e-06 -3.99994e-06 -1.99997e-06
0 2.96562e-05 5.93109e-05 8.8963e-05 0.000118612 0.000148257 0.000178632 0.000209001 0.000239364 0.000269721
0.000300072 0.000329202 0.000358325 0.00038744 0.000416549 0.000445651 0.000473582 0.000501507 0.000529425 0.000557337
0.000585242 0.000612026 0.000638804 0.000665577 0.000692344 0.000719105 0.000744791 0.000770471 0.000796147 0.000821818
0.000847484 0.000872119 0.000896749 0.000921375 0.000945997 0.000970614 0.000994243 0.00101787 0.00104149 0.00106511
0.00108872 0.00111138 0.00113405 0.00115671 0.00117936 0.00120201 0.00122376 0.0012455 0.00126724 0.00128897
0.0013107 0.00133156 0.00135242 0.00137328 0.00139413 0.00141498 0.00143499 0.00145501 0.00147501 0.00149502
0.00151503 0.00153423 0.00155343 0.00157263 0.00159183 0.00161102 0.00162945 0.00164787 0.00166629 0.00168471
0.00170313 0.00172081 0.00173849 0.00175617 0.00177385 0.00179152 0.00180849 0.00182545 0.00184242 0.00185938
0.00187634 0.00189262 0.0019089 0.00192518 0.00194146 0.00195773 0.00197336 0.00198898 0.00200461 0.00202023
0.00203585 0.00204628 0.00205671 0.00206714 0.00207756 0.00208799 0.0020985 0.00210901 0.00211951 0.00213002
0.00214053 0.00215111 0.0021617 0.00217229 0.00218287 0.00219346 0.00220413 0.0022148 0.00222546 0.00223613
0.0022468 0.00225755 0.0022683 0.00227905 0.0022898 0.00230054 0.00231138 0.00232221 0.00233304 0.00234387
0.0023547 0.00236561 0.00237653 0.00238744 0.00239836 0.00240927 0.00242027 0.00243127 0.00244226 0.00245326
0.00246426 0.00247534 0.00248642 0.0024975 0.00250859 0.00251967 0.00253083 0.002542 0.00255317 0.00256433
0.0025755 0.00258675 0.00259801 0.00260926 0.00262051 0.00263176 0.0026431 0.00265444 0.00266578 0.00267712
0.00268846 0.00269988 0.00271131 0.00272273 0.00273416 0.00274559 0.0027571 0.00276862 0.00278013 0.00279164
0.00280316 0.00281476 0.00282636 0.00283797 0.00284957 0.00286117 0.00287287 0.00288456 0.00289625 0.00290795
0.00291964 0.00293142 0.00294321 0.00295499 0.00296677 0.00297856 0.00299043 0.00300231 0.00301418 0.00302606
0.00303793 0.0030499 0.00306186 0.00307383 0.0030858 0.00309777 0.00310982 0.00312188 0.00313394 0.003146
0.00315806 0.00317021 0.00318237 0.00319452 0.00320667 0.00321882 0.00323107 0.00324332 0.00325556 0.00326781
0.00328005 0.00329239 0.00330474 0.00331708 0.00332942 0.00334176 0.00335419 0.00336663 0.00337906 0.0033915
0.00340394 0.00341647 0.003429 0.00344153 0.00345406 0.00346659 0.00347922 0.00349185 0.00350448 0.00351711
0.00352974 0.00354247 0.00355519 0.00356792 0.00358065 0.00359337 0.0036062 0.00361902 0.00363185 0.00364467
0.0036575 0.00366595 0.00367441 0.00368286 0.00369132 0.00369975 0.00370422 0.0037087 0.00371318 0.00371765
0.00372213 0.00373515 0.00374818 0.00376121 0.00377423 0.00378726 0.00380039 0.00381352 0.00382664 0.00383977
0.0038529 0.00386613 0.00387936 0.00389259 0.00390583 0.00391906 0.00393239 0.00394573 0.00395906 0.0039724
0.00398573 0.00399917 0.00401261 0.00402605 0.00403949 0.00405293 0.00406648 0.00408002 0.00409357 0.00410711
0.00412066 0.00413431 0.00414796 0.00416161 0.00417526 0.00418891 0.00420267 0.00421643 0.00423018 0.00424394
0.0042577 0.00427157 0.00428543 0.0042993 0.00431316 0.00432703 0.004341 0.00435497 0.00436894 0.00438292
0.00439689 0.00441097 0.00442505 0.00443913 0.00445321 0.00446729 0.00448148 0.00449567 0.00450986 0.00452405
0.00453824 0.00455254 0.00456684 0.00458114 0.00459543 0.00460973 0.00462414 0.00463855 0.00465295 0.00466736
0.00468177 0.00469629 0.0047108 0.00472532 0.00473984 0.00475435 0.00476898 0.00478361 0.00479824 0.00481286
0.00482749 0.00484223 0.00485697 0.0048717 0.00488644 0.00490117 0.00491602 0.00493087 0.00494572 0.00496057
0.00497541 0.00499038 0.00500534 0.00502029 0.00503525 0.00505021 0.00506528 0.00508035 0.00509542 0.00511049
0.00512556 0.00514074 0.00515593 0.00517111 0.00518629 0.00520147 0.00521677 0.00523206 0.00524736 0.00526265
0.00527794 0.00529335 0.00530876 0.00532417 0.00533958 0.00535498 0.00537051 0.00538603 0.00540155 0.00541707
0.00543259 0.00544823 0.00546386 0.0054795 0.00549513 0.00551077 0.00552652 0.00554227 0.00555802 0.00557377
0.00558952 0.00560539 0.00562126 0.00563713 0.005653 0.00566886 0.00568485 0.00570084 0.00571682 0.00573281
0.00574879 0.0057649 0.005781 0.00579711 0.00581321 0.00582932 0.00584554 0.00586177 0.005878 0.00589422
0.00591045 0.00592472 0.00593898 0.00595325 0.00596752 0.00598141 0.00598356 0.00598572 0.00598788 0.00599003
0.00599219 0.00600866 0.00602514 0.00604161 0.00605808 0.00607455 0.00609115 0.00610775 0.00612435 0.00614095
0.00615755 0.00617429 0.00619101 0.00620774 0.00622447 0.0062412 0.00625806 0.00627492 0.00629178 0.00630864
0.0063255 0.0063425 0.0063595 0.00637649 0.00639348 0.00641047 0.00642762 0.00644474 0.00646187 0.006479
0.00649613 0.00651342 0.00653069 0.00654795 0.00656522 0.00658249 0.00659993 0.00661734 0.00663475 0.00665215
0.00666957 0.00668716 0.00670472 0.00672227 0.00673982 0.00675739 0.00677513 0.00679284 0.00681054 0.00682824
0.00684596 0.00686385 0.00688172 0.00689957 0.00691741 0.00693529 0.00695335 0.00697138 0.00698938 0.00700738
0.00702542 0.00704364 0.00706183 0.00707999 0.00709815 0.00711636 0.00713474 0.0071531 0.00717142 0.00718975
0.00720813 0.00722668 0.0072452 0.0072637 0.0072822 0.00730074 0.00731947 0.00733817 0.00735683 0.0073755
0.00739422 0.00741313 0.007432 0.00745085 0.00746971 0.0074886 0.00750769 0.00752674 0.00754578 0.00756483
0.00758391 0.00760318 0.00762242 0.00764165 0.00766089 0.00768015 0.00769961 0.00771904 0.00773847 0.00775791
0.00777736 0.00779701 0.00781664 0.00783627 0.00785591 0.00787557 0.00789542 0.00791525 0.00793509 0.00795495
0.00797481 0.00799487 0.00801491 0.00803496 0.00805503 0.00807511 0.00808802 0.00810093 0.00811385 0.00812677
0.00813935 0.00814678 0.00815421 0.00816164 0.00816907 0.0081765 0.00819698 0.00821746 0.00823796 0.00825847
0.008279 0.00829972 0.00832043 0.00834116 0.00836191 0.00838267 0.00840363 0.00842458 0.00844555 0.00846653
0.00848752 0.00850874 0.00852993 0.00855114 0.00857236 0.00859361 0.00861509 0.00863654 0.00865799 0.00867946
0.00870097 0.00872271 0.00874443 0.00876613 0.00878786 0.00880963 0.00883164 0.00885363 0.0088756 0.00889758
0.00891963 0.00894191 0.00896418 0.00898642 0.00900868 0.00903101 0.00905357 0.00907612 0.00909864 0.00912119
0.0091438 0.00916665 0.00918948 0.00921229 0.00923513 0.00925803 0.00928117 0.0093043 0.00932742 0.00935056
0.00937375 0.00939719 0.00942062 0.00944405 0.00946751 0.009491 0.00951474 0.00953847 0.00956222 0.009586
0.0096098 0.00963385 0.0096579 0.00968197 0.00970608 0.00973021 0.00975457 0.00977895 0.00980335 0.00982778
0.00985224 0.00985955 0.00986685 0.00987416 0.00988147 0.0098887 0.00990613 0.00992357 0.00994102 0.00995849
0.00997598 0.010001 0.0100261 0.0100511 0.0100762 0.0101014 0.0101268 0.0101522 0.0101776 0.0102031