/*--------------------------------*- C++ -*----------------------------------*\
  =========                 |
  \\      /  F ield         | OpenFOAM: The Open Source CFD Toolbox
   \\    /   O peration     | Website:  https://openfoam.org
    \\  /    A nd           | Version:  13
     \\/     M anipulation  |
\*---------------------------------------------------------------------------*/
FoamFile
{
    format      ascii;
    class       volScalarField;
    location    "3.3";
    object      k;
}
// * * * * * * * * * * * * * * * * * * * * * * * * * * * * * * * * * * * * * //

dimensions      [0 2 -2 0 0 0 0];

internalField   nonuniform List<scalar> 
6400
(
4.16753e-07
2.11249e-06
4.94663e-06
7.91455e-06
1.03237e-05
1.19604e-05
1.29574e-05
1.36175e-05
1.427e-05
1.52171e-05
1.66986e-05
1.88803e-05
2.1896e-05
2.58037e-05
3.05142e-05
3.58706e-05
4.17784e-05
4.80697e-05
5.4542e-05
6.10537e-05
6.76448e-05
7.46904e-05
8.27936e-05
9.24675e-05
0.000103796
0.000116171
0.000128604
0.000141158
0.000153988
0.000167378
0.00018144
0.00019592
0.000210116
0.000224087
0.000237737
0.000251418
0.00026522
0.00027942
0.00029415
0.000309612
0.000325906
0.000343155
0.000361513
0.000381089
0.000401866
0.000423883
0.000447411
0.000473358
0.000503497
0.000541974
0.000578463
0.000616288
0.000652917
0.000688168
0.000720595
0.000749003
0.000771934
0.000785824
0.000792098
0.000793304
0.000780525
0.000754771
0.000716146
0.000665613
0.000604528
0.000535163
0.00046083
0.000385595
0.000312798
0.000244424
0.000183942
0.000135766
9.62467e-05
6.52357e-05
4.23557e-05
2.63492e-05
1.56586e-05
8.69893e-06
3.94904e-06
8.30049e-07
2.02412e-06
1.70043e-05
4.00557e-05
6.26523e-05
8.05889e-05
9.30741e-05
0.000101323
0.000107312
0.000113152
0.000120761
0.000131928
0.000148156
0.000170209
0.000198016
0.000230948
0.000268098
0.000308438
0.000350926
0.000394568
0.000438685
0.000483626
0.000531398
0.000585309
0.000647925
0.000719142
0.000795224
0.00087096
0.000945824
0.00101946
0.0010924
0.00116436
0.00123416
0.00129868
0.00135853
0.0014133
0.0014649
0.00151385
0.00156157
0.00160881
0.0016566
0.00170555
0.00175629
0.0018095
0.00186552
0.00192423
0.00198534
0.00204858
0.00211386
0.0021792
0.00224279
0.00231236
0.00238226
0.00245329
0.00252218
0.00258718
0.00264501
0.0026926
0.00272046
0.00273059
0.0027266
0.00269411
0.00262942
0.00253108
0.00239951
0.0022363
0.00204443
0.00183303
0.00161097
0.00138442
0.00116131
0.000947794
0.000746572
0.000566622
0.0004133
0.000289122
0.000192717
0.000121432
7.07572e-05
3.2852e-05
4.32348e-06
4.42343e-06
3.71587e-05
8.43482e-05
0.000125565
0.000156053
0.000177186
0.00019235
0.000205286
0.000219624
0.000238714
0.00026553
0.000302263
0.000349947
0.00040834
0.000476281
0.0005523
0.000634944
0.000722713
0.000814005
0.000907276
0.00100118
0.00109451
0.00118647
0.00127493
0.00135623
0.00142718
0.00148666
0.00153419
0.00157236
0.00160487
0.00163492
0.00166483
0.00169522
0.0017271
0.00175902
0.00179318
0.00182947
0.00186891
0.00191169
0.00195846
0.00200945
0.00206458
0.00212425
0.00218817
0.00225654
0.00232937
0.0024067
0.00248804
0.00257312
0.00266217
0.00275501
0.00284974
0.00294537
0.00303966
0.00313032
0.00321413
0.00328744
0.00334589
0.00338003
0.00339159
0.00338025
0.00333138
0.00324237
0.00311181
0.00293938
0.00272532
0.00248058
0.00221559
0.00193757
0.0016578
0.00138648
0.0011318
0.00090027
0.000696654
0.000523273
0.000379939
0.000264091
0.00016921
8.34845e-05
1.10947e-05
7.56221e-06
6.19574e-05
0.00013285
0.000188987
0.000229216
0.000258187
0.000281345
0.000303954
0.000330939
0.00036678
0.000415175
0.00047843
0.00055699
0.000649477
0.000753344
0.000865638
0.000983102
0.00110216
0.00121893
0.00132938
0.00142996
0.00151752
0.00159005
0.00164653
0.00168584
0.0017094
0.00172148
0.00172843
0.00173645
0.00174647
0.00175881
0.00177399
0.00179133
0.00181261
0.00183767
0.00186686
0.00190009
0.00193776
0.00197978
0.00202608
0.00207696
0.00213229
0.0021923
0.0022569
0.0023262
0.00240001
0.002478
0.00256086
0.0026485
0.00274064
0.00283672
0.00293569
0.00303648
0.00313734
0.0032361
0.00332984
0.00341497
0.00348736
0.0035411
0.00356695
0.00357211
0.0035444
0.00348191
0.00337955
0.00323174
0.00303548
0.00279458
0.00252183
0.00222794
0.00192558
0.00162749
0.00134492
0.00108654
0.000857843
0.000661305
0.000496658
0.000360316
0.000243824
0.000128406
1.77045e-05
1.17971e-05
9.37512e-05
0.000188998
0.000259493
0.000309571
0.000347318
0.000380301
0.000415416
0.000458918
0.000516177
0.000590975
0.000684695
0.000795946
0.000921012
0.00105486
0.0011919
0.00132624
0.00145181
0.00156287
0.00165415
0.00172394
0.00176863
0.00178871
0.00179394
0.00178678
0.00177487
0.00176478
0.001758
0.00175523
0.00175491
0.00176076
0.00177114
0.00178515
0.00180331
0.00182525
0.00185097
0.00188035
0.00191328
0.0019495
0.00198905
0.00203195
0.00207817
0.00212785
0.00218113
0.00223828
0.0022997
0.002366
0.00243689
0.00251262
0.00259317
0.00267849
0.00276825
0.00286192
0.00295868
0.00305727
0.00315591
0.00325179
0.00334152
0.00342094
0.00348469
0.00351993
0.0035304
0.00350322
0.00343467
0.00332038
0.00316991
0.00296117
0.00270514
0.0024146
0.00210363
0.00178803
0.00148328
0.00120218
0.000953115
0.000739749
0.000561668
0.000414444
0.000287541
0.000157268
2.19495e-05
1.75827e-05
0.000134817
0.000256055
0.000341658
0.000402675
0.000450713
0.000495604
0.000545976
0.000609239
0.00069098
0.000793948
0.000917259
0.00105648
0.00120462
0.0013535
0.00149474
0.00162038
0.00172316
0.00179955
0.00184031
0.00185418
0.00185012
0.00182657
0.00180328
0.00178185
0.00176273
0.00174693
0.00173558
0.00172932
0.00172695
0.00172803
0.00173339
0.0017418
0.00175341
0.00176792
0.00178511
0.0018047
0.00182638
0.00185016
0.00187608
0.00190422
0.00193473
0.00196779
0.00200366
0.00204263
0.00208503
0.00213115
0.00218128
0.00223597
0.0022957
0.002361
0.00243234
0.00250999
0.00259402
0.00268417
0.00277981
0.00287987
0.00298205
0.0030838
0.00318044
0.00326626
0.00333177
0.00336202
0.00336586
0.0033174
0.00321692
0.00306916
0.00285156
0.00258113
0.00227149
0.00194146
0.00161189
0.00130209
0.00102627
0.000791555
0.000598215
0.000440825
0.000306861
0.00017015
2.34872e-05
2.53621e-05
0.000186648
0.000335919
0.000437784
0.000510992
0.000570805
0.000629407
0.000697013
0.000781594
0.000887873
0.00101624
0.00116237
0.00131811
0.00147304
0.00161634
0.00173815
0.00183136
0.00188417
0.00190277
0.00189789
0.00186933
0.00183965
0.00180526
0.00177322
0.00174269
0.00171507
0.00169368
0.0016777
0.00166646
0.00165897
0.00165528
0.00165415
0.00165542
0.00165996
0.00166609
0.00167405
0.00168351
0.00169435
0.00170657
0.0017202
0.00173518
0.00175167
0.00176984
0.00178986
0.00181199
0.00183651
0.00186377
0.00189425
0.00192857
0.00196739
0.00201147
0.00206172
0.0021193
0.00218529
0.00226069
0.00234633
0.00244282
0.00254944
0.00266425
0.0027851
0.00290838
0.0030274
0.00313295
0.00320589
0.00323487
0.0032207
0.00314325
0.00299724
0.0027685
0.00247508
0.00213666
0.00177932
0.00143089
0.00111506
0.000846397
0.00062842
0.000455174
0.000312069
0.000171323
2.31032e-05
3.55353e-05
0.000250043
0.000429278
0.000548548
0.000635025
0.000707643
0.000780875
0.000866077
0.000970858
0.00109786
0.00124405
0.00140115
0.00155747
0.00170011
0.00181736
0.00189768
0.00193352
0.00193953
0.00191496
0.00188184
0.00183793
0.00179082
0.00174253
0.00170126
0.0016655
0.00163758
0.00161483
0.00159678
0.00158253
0.00157151
0.00156335
0.00155749
0.00155411
0.00155264
0.00155225
0.00155334
0.00155578
0.00155934
0.00156394
0.00156963
0.00157642
0.00158439
0.00159363
0.0016043
0.00161659
0.00163074
0.00164704
0.00166583
0.00168761
0.0017129
0.00174232
0.00177662
0.00181673
0.00186374
0.00191918
0.0019849
0.00206311
0.00215667
0.00226644
0.0023901
0.00252883
0.00267797
0.00283023
0.00297647
0.00309829
0.0031582
0.00316964
0.00311555
0.00297082
0.00272025
0.00239186
0.00201373
0.00162175
0.00125198
0.000931735
0.000673239
0.000472896
0.000314733
0.000169126
2.21464e-05
4.83894e-05
0.000324937
0.000535843
0.000673445
0.000773763
0.000859355
0.0009467
0.00104762
0.00116837
0.00130857
0.00146128
0.00161466
0.0017546
0.00186777
0.00193689
0.00196228
0.00195842
0.00192739
0.00188184
0.00182365
0.00176055
0.00170358
0.00165514
0.00161427
0.0015799
0.00155183
0.00152823
0.00150872
0.00149255
0.0014794
0.00146889
0.00146073
0.00145472
0.00145046
0.00144801
0.001447
0.00144687
0.00144835
0.00145092
0.00145458
0.00145933
0.00146519
0.00147223
0.00148055
0.00149032
0.00150174
0.00151508
0.0015306
0.00154856
0.0015693
0.00159312
0.00162039
0.00165141
0.00168666
0.00172676
0.00177265
0.00182579
0.00188873
0.00196575
0.00206476
0.00218723
0.00233548
0.00250146
0.00268406
0.00286791
0.00303555
0.00313201
0.00316066
0.00312564
0.00297437
0.00269022
0.00231544
0.00188949
0.00146039
0.00107226
0.000753161
0.000508561
0.00032362
0.000167446
2.16917e-05
6.40909e-05
0.000410304
0.000654362
0.000810864
0.000924874
0.00102244
0.00112162
0.00123401
0.0013637
0.00150687
0.00165302
0.00178782
0.0018966
0.00195866
0.00197861
0.00196652
0.00193339
0.00187485
0.00180137
0.00172934
0.00166547
0.00161057
0.00156433
0.00152531
0.00149243
0.00146486
0.00144155
0.00142217
0.00140622
0.00139345
0.00138354
0.00137622
0.00137117
0.00136859
0.00136761
0.00136757
0.00136946
0.00137256
0.00137673
0.00138193
0.00138811
0.00139529
0.00140352
0.00141288
0.00142352
0.0014356
0.0014493
0.00146484
0.00148241
0.00150221
0.00152446
0.00154934
0.00157701
0.00160755
0.0016411
0.00167795
0.00171845
0.00176362
0.00181552
0.00187744
0.00195408
0.00205496
0.00219642
0.0023748
0.00257755
0.00279851
0.00300842
0.00313968
0.00318273
0.00315626
0.00298571
0.00265529
0.0022241
0.00174702
0.00128511
0.00088737
0.000577467
0.000348182
0.000171309
2.21089e-05
8.32485e-05
0.000503774
0.000782815
0.00095824
0.00108491
0.00119214
0.00129916
0.00141675
0.0015465
0.00168136
0.00180827
0.00191213
0.00197027
0.00198759
0.00197293
0.00193349
0.0018639
0.00178043
0.00170163
0.00163067
0.00157006
0.00151878
0.0014756
0.00143913
0.00140845
0.00138283
0.00136167
0.00134465
0.00133139
0.00132158
0.00131482
0.00131128
0.0013099
0.0013098
0.0013119
0.00131521
0.0013199
0.00132549
0.00133195
0.0013392
0.00134722
0.00135606
0.00136578
0.00137651
0.00138836
0.00140153
0.00141617
0.00143247
0.00145062
0.00147079
0.00149314
0.00151781
0.00154492
0.0015746
0.00160674
0.00164104
0.00167722
0.00171527
0.00175568
0.0017998
0.00185017
0.00191207
0.0019941
0.00211032
0.00228557
0.00250703
0.00275863
0.00300858
0.00316934
0.00322151
0.00318988
0.00298218
0.00259103
0.0020964
0.00157192
0.00108827
0.000694266
0.000401308
0.000186527
2.4006e-05
0.00010603
0.000603426
0.000918652
0.00111225
0.00124962
0.00136304
0.00147253
0.00158781
0.00170811
0.00182397
0.00192128
0.00197692
0.00199325
0.00197798
0.00193378
0.00185584
0.0017657
0.0016788
0.00160163
0.00153509
0.00147913
0.00143209
0.00139264
0.00135971
0.00133256
0.00131064
0.00129349
0.0012807
0.00127181
0.00126685
0.00126477
0.0012644
0.00126626
0.00126966
0.00127447
0.00128012
0.00128659
0.00129362
0.0013012
0.00130933
0.00131805
0.00132747
0.00133773
0.00134898
0.00136142
0.00137526
0.00139071
0.00140799
0.00142731
0.00144884
0.00147272
0.00149903
0.00152776
0.00155879
0.00159193
0.00162693
0.00166361
0.00170127
0.00173908
0.00177677
0.00181553
0.00185797
0.00190875
0.00197656
0.00207685
0.00223343
0.00246644
0.00274348
0.0030318
0.00321063
0.0032632
0.00320955
0.00293956
0.00247336
0.00191543
0.00135402
0.000866934
0.000493072
0.000221812
2.87321e-05
0.000131457
0.000708455
0.00105888
0.00126907
0.00141437
0.00152965
0.00163549
0.00174062
0.00184254
0.00193065
0.00198331
0.00199911
0.00198313
0.00193611
0.00185283
0.00175787
0.00166372
0.00157931
0.00150703
0.00144613
0.00139538
0.00135315
0.00131833
0.00129008
0.00126777
0.00125084
0.00123875
0.00123116
0.00122757
0.00122646
0.00122714
0.00122999
0.0012342
0.00123935
0.00124517
0.00125139
0.00125795
0.0012648
0.00127199
0.00127961
0.0012878
0.00129671
0.00130657
0.00131758
0.00133
0.00134405
0.00136001
0.00137813
0.00139866
0.00142181
0.00144775
0.00147659
0.00150831
0.00154277
0.00157961
0.0016183
0.00165811
0.00169822
0.00173795
0.00177521
0.00181083
0.00184632
0.00188459
0.0019273
0.00198513
0.0020728
0.00221449
0.00245068
0.00275371
0.0030741
0.00325366
0.00329487
0.00319827
0.00283213
0.00228485
0.00166823
0.00109099
0.000624876
0.00028046
3.73895e-05
0.000158837
0.000816456
0.00120006
0.00142463
0.00157458
0.00168695
0.0017829
0.00187059
0.00194678
0.00199446
0.00200919
0.00199159
0.00194373
0.00185798
0.00175814
0.00165751
0.0015655
0.00148654
0.00142044
0.0013656
0.00132051
0.00128375
0.00125439
0.00123166
0.00121486
0.00120327
0.00119667
0.00119379
0.00119309
0.00119433
0.00119728
0.00120136
0.00120604
0.00121103
0.00121616
0.00122135
0.00122665
0.00123211
0.00123789
0.00124415
0.00125109
0.00125894
0.00126793
0.00127831
0.00129034
0.00130429
0.00132044
0.00133907
0.00136047
0.00138492
0.00141267
0.00144389
0.0014787
0.00151704
0.00155866
0.00160301
0.00164923
0.00169609
0.0017421
0.00178717
0.00182709
0.00185872
0.00188724
0.00191865
0.00195865
0.00200945
0.00208961
0.00222498
0.0024618
0.00278994
0.00312821
0.00329048
0.0033082
0.00312798
0.00264488
0.00200752
0.00135335
0.000791199
0.000358974
4.94119e-05
0.000187373
0.000924704
0.00133853
0.00157493
0.00172601
0.00183071
0.00191102
0.00197509
0.00201473
0.00202658
0.0020066
0.00195931
0.00187275
0.0017686
0.00166125
0.00156142
0.00147477
0.00140247
0.00134299
0.00129448
0.00125543
0.00122464
0.00120115
0.0011841
0.00117259
0.00116626
0.00116355
0.00116288
0.00116385
0.00116633
0.00116954
0.00117308
0.00117663
0.00118008
0.0011834
0.00118667
0.00119002
0.00119362
0.00119766
0.00120236
0.00120796
0.00121468
0.00122276
0.00123244
0.00124398
0.00125764
0.00127369
0.00129244
0.0013142
0.00133929
0.00136804
0.00140077
0.00143773
0.00147905
0.0015247
0.00157436
0.00162734
0.00168246
0.00173799
0.00179165
0.00184274
0.00188896
0.00192021
0.00194072
0.0019613
0.00199507
0.00204435
0.00211944
0.00225279
0.00249871
0.00285224
0.00318216
0.00331742
0.00327763
0.00295929
0.00234837
0.00163966
0.000983438
0.000452732
6.4129e-05
0.000215994
0.00103037
0.00147094
0.00171637
0.00186512
0.00195772
0.00201761
0.00204873
0.00205609
0.00203345
0.00198418
0.00189829
0.00179078
0.00167665
0.00156823
0.00147289
0.00139303
0.00132778
0.00127505
0.001233
0.00120018
0.0011754
0.00115757
0.00114561
0.00113884
0.00113581
0.00113487
0.00113499
0.00113647
0.00113844
0.00114044
0.00114226
0.00114378
0.00114505
0.00114619
0.00114736
0.00114874
0.00115058
0.0011531
0.00115651
0.00116103
0.00116688
0.00117426
0.00118339
0.00119448
0.00120778
0.00122354
0.00124205
0.00126364
0.00128866
0.00131752
0.00135062
0.00138838
0.00143114
0.00147914
0.00153241
0.0015906
0.00165292
0.00171788
0.00178323
0.00184585
0.00190351
0.0019554
0.00198695
0.00200169
0.00201393
0.00203766
0.00208558
0.00215753
0.00229627
0.0025604
0.00293947
0.00322915
0.00331604
0.00317787
0.00266815
0.00193842
0.0011948
0.000556836
8.06254e-05
0.000243924
0.00113103
0.00159447
0.00184623
0.00198985
0.00206555
0.00209717
0.0021014
0.00207588
0.00202096
0.00193651
0.00182597
0.00170534
0.00158761
0.00148221
0.0013932
0.00132059
0.0012624
0.00121639
0.00118073
0.00115397
0.00113476
0.00112182
0.00111394
0.00111004
0.00110837
0.00110785
0.00110782
0.00110837
0.00110864
0.00110868
0.0011083
0.00110757
0.00110667
0.00110578
0.00110525
0.00110509
0.00110558
0.00110704
0.00110963
0.00111349
0.00111883
0.0011258
0.00113458
0.00114535
0.0011583
0.00117367
0.00119171
0.00121275
0.00123716
0.00126535
0.00129783
0.00133512
0.00137775
0.00142624
0.00148093
0.00154196
0.00160902
0.00168118
0.00175668
0.00183269
0.00190521
0.00197011
0.00202708
0.00205477
0.0020656
0.00207027
0.00208417
0.00212871
0.00220361
0.00235412
0.00265073
0.0030497
0.00325341
0.0032673
0.00294543
0.0022384
0.00142082
0.000667517
9.80152e-05
0.000270415
0.00122466
0.00170691
0.00196282
0.00209555
0.00214965
0.00215895
0.00213259
0.00207306
0.00198904
0.00187578
0.00174885
0.0016214
0.00150451
0.00140444
0.00132252
0.00125716
0.00120585
0.00116632
0.00113671
0.0011154
0.00110089
0.00109167
0.00108633
0.00108352
0.00108192
0.00108079
0.0010797
0.00107847
0.00107674
0.00107459
0.00107206
0.00106935
0.00106668
0.0010643
0.00106244
0.00106148
0.00106121
0.00106204
0.00106425
0.00106786
0.00107301
0.00107984
0.00108846
0.00109901
0.00111167
0.00112662
0.0011441
0.00116439
0.00118785
0.00121492
0.0012461
0.00128201
0.0013233
0.00137069
0.00142484
0.00148628
0.00155527
0.00163152
0.00171401
0.00180062
0.00188791
0.00197091
0.00204371
0.00210202
0.00212507
0.00213072
0.00212979
0.00213201
0.00217537
0.00225662
0.0024303
0.00277415
0.00313823
0.0032733
0.0031296
0.00252351
0.00165672
0.000780904
0.000115938
0.000295095
0.00130905
0.00180647
0.00206174
0.00218073
0.00221614
0.00220228
0.00214496
0.00205754
0.00194177
0.00180886
0.0016715
0.00154195
0.00142871
0.00133512
0.00126042
0.00120206
0.0011573
0.00112378
0.00109953
0.00108276
0.00107174
0.00106485
0.00106063
0.00105781
0.00105545
0.00105304
0.00105028
0.00104707
0.00104334
0.00103926
0.001035
0.00103082
0.00102696
0.00102364
0.00102109
0.00101969
0.00101921
0.0010198
0.00102196
0.00102557
0.00103074
0.00103757
0.00104614
0.00105657
0.00106898
0.00108353
0.00110043
0.00111992
0.00114235
0.0011681
0.0011977
0.00123175
0.00127099
0.00131625
0.00136841
0.00142834
0.00149679
0.00157412
0.00166008
0.00175346
0.0018517
0.00195053
0.00204382
0.00212379
0.00217988
0.00219641
0.00219741
0.00218491
0.00217997
0.00222472
0.00231851
0.00253735
0.00292721
0.0031767
0.00320197
0.00278017
0.00189951
0.000895342
0.000134417
0.000317249
0.0013829
0.00189092
0.00214181
0.00224674
0.0022669
0.00222737
0.0021409
0.00202539
0.00188696
0.00173986
0.00159686
0.00146851
0.00136056
0.00127385
0.00120617
0.00115441
0.00111567
0.00108747
0.00106769
0.00105435
0.00104562
0.00103986
0.00103572
0.00103216
0.00102853
0.00102451
0.00101998
0.00101495
0.00100956
0.00100402
0.000998574
0.000993471
0.000988943
0.00098519
0.000982385
0.000980914
0.000980421
0.000981058
0.00098331
0.00098704
0.000992294
0.00099916
0.00100771
0.00101802
0.0010302
0.00104439
0.00106074
0.0010795
0.00110093
0.00112542
0.00115342
0.00118554
0.00122249
0.00126516
0.00131454
0.00137174
0.00143786
0.00151385
0.00160023
0.00169673
0.00180185
0.00191236
0.00202283
0.00212545
0.0022113
0.00225888
0.00226951
0.00225986
0.00223373
0.00222409
0.00227463
0.00239559
0.00268926
0.00306515
0.00320598
0.00298516
0.00214552
0.00101519
0.000153746
0.00033631
0.00144578
0.00195901
0.00220395
0.00229526
0.00230126
0.00223673
0.0021264
0.00198435
0.00182827
0.00167164
0.00152665
0.00140166
0.00129981
0.00121995
0.00115891
0.00111321
0.00107981
0.00105611
0.00103981
0.00102883
0.00102134
0.0010158
0.00101106
0.00100636
0.00100127
0.000995667
0.000989567
0.000983111
0.000976513
0.000970023
0.000963884
0.00095832
0.000953525
0.000949662
0.00094687
0.000945477
0.000945049
0.000945822
0.000948177
0.000951988
0.000957282
0.000964132
0.000972597
0.000982752
0.000994687
0.00100851
0.00102438
0.00104248
0.00106306
0.00108644
0.00111304
0.00114339
0.00117818
0.00121825
0.00126464
0.00131856
0.00138134
0.00145435
0.00153878
0.00163528
0.00174351
0.00186151
0.00198513
0.00210745
0.00221866
0.00230359
0.00233814
0.00234224
0.00231418
0.00227704
0.00226784
0.00233036
0.00250395
0.00287512
0.0031098
0.00308569
0.00238986
0.00115414
0.000176525
0.000351819
0.00149692
0.00201095
0.00224882
0.00232876
0.00232011
0.00223304
0.00209911
0.00193768
0.00176841
0.00160606
0.00146172
0.00134138
0.0012459
0.00117263
0.00111772
0.00107745
0.00104863
0.00102853
0.00101476
0.00100522
0.000998163
0.00099225
0.000986571
0.000980602
0.000974135
0.000967178
0.000959867
0.000952415
0.000945063
0.000938051
0.000931595
0.000925876
0.000921045
0.000917221
0.000914527
0.00091321
0.000912833
0.00091367
0.000916025
0.000919798
0.000925006
0.00093172
0.000939999
0.000949913
0.000961547
0.000975004
0.000990416
0.00100795
0.00102781
0.00105029
0.00107574
0.00110464
0.00113759
0.00117537
0.00121897
0.0012696
0.0013287
0.0013979
0.00147885
0.00157299
0.00168105
0.00180247
0.00193457
0.00207176
0.00220488
0.00232103
0.00239806
0.00241845
0.00240784
0.00235292
0.00231225
0.00231191
0.0024083
0.00267873
0.00302436
0.00311554
0.00262983
0.00132758
0.000206247
0.000363528
0.00153635
0.00204747
0.00227754
0.00234838
0.00232398
0.00222041
0.0020652
0.00188802
0.00170933
0.00154424
0.00140234
0.00128735
0.00119818
0.00113107
0.00108171
0.00104617
0.00102114
0.00100382
0.000991753
0.00098293
0.000975768
0.00096916
0.000962434
0.000955283
0.000947659
0.000939679
0.000931543
0.000923486
0.000915738
0.000908507
0.000901963
0.000896242
0.000891454
0.000887684
0.000885009
0.000883676
0.000883277
0.000884011
0.000886204
0.000889771
0.000894734
0.000901162
0.000909124
0.000918692
0.000929952
0.000943004
0.000957971
0.000975
0.000994281
0.00101605
0.00104062
0.0010684
0.0010999
0.00113583
0.00117707
0.00122478
0.00128037
0.00134557
0.00142232
0.00151263
0.00161815
0.00173965
0.00187612
0.00202377
0.00217509
0.00231816
0.00243333
0.00248774
0.00249641
0.00245907
0.00237404
0.00233405
0.00236675
0.00252208
0.00289336
0.00308115
0.00283727
0.00153738
0.000244082
0.000371525
0.00156475
0.00206989
0.00229188
0.00235455
0.00231826
0.00219709
0.00202643
0.00183727
0.00165235
0.00148676
0.00134846
0.00123908
0.00115595
0.0010945
0.00105006
0.00101855
0.000996584
0.000981285
0.000970272
0.00096166
0.000954083
0.000946668
0.000938961
0.000930828
0.000922336
0.000913664
0.000905035
0.00089667
0.000888766
0.000881483
0.000874945
0.000869249
0.000864467
0.000860661
0.000857881
0.000856363
0.000855835
0.00085627
0.000858117
0.000861301
0.000865851
0.000871843
0.000879353
0.000888464
0.000899268
0.000911867
0.000926379
0.000942944
0.00096173
0.000982947
0.00100686
0.00103382
0.00106426
0.0010988
0.0011382
0.0011835
0.00123605
0.00129753
0.00137
0.00145579
0.00155726
0.00167629
0.00181344
0.00196683
0.00213087
0.00229519
0.00244418
0.00254548
0.00257514
0.00256176
0.00248278
0.00238602
0.00235953
0.00244394
0.00272867
0.00299098
0.00295636
0.00176931
0.000287152
0.000375973
0.00158252
0.0020787
0.00229255
0.00235033
0.00230306
0.00216766
0.00198477
0.0017869
0.00159832
0.00143385
0.00129981
0.00119603
0.00111857
0.00106222
0.00102208
0.00099394
0.000974359
0.000960483
0.000950037
0.000941321
0.000933194
0.000925001
0.000916474
0.0009076
0.00089852
0.000889436
0.000880559
0.000872077
0.000864139
0.00085686
0.000850323
0.00084459
0.000839713
0.000835737
0.000832709
0.000830803
0.00083001
0.000829989
0.000831309
0.000833945
0.000837931
0.000843348
0.000850286
0.000858839
0.000869105
0.000881195
0.000895227
0.000911337
0.000929683
0.000950453
0.00097388
0.00100026
0.00102997
0.00106352
0.00110157
0.00114505
0.00119514
0.00125344
0.00132196
0.00140319
0.0014999
0.00161484
0.00174999
0.00190539
0.00207765
0.00225837
0.00243294
0.00257742
0.00264639
0.00265648
0.00260094
0.00247074
0.00239418
0.00240858
0.00259506
0.00292739
0.00300006
0.00202391
0.000335668
0.000376412
0.00159118
0.00207729
0.00228592
0.00233751
0.00227879
0.00213351
0.00194166
0.00173792
0.00154774
0.00138551
0.00125606
0.00115767
0.00108542
0.00103363
0.000997177
0.000971809
0.000954053
0.000941132
0.000930926
0.00092194
0.000913249
0.000904391
0.000895235
0.000885853
0.000876418
0.000867125
0.000858153
0.000849645
0.000841706
0.000834409
0.000827803
0.000821931
0.000816832
0.000812549
0.000809139
0.000806668
0.000805315
0.00080488
0.000805494
0.00080744
0.000810738
0.00081547
0.000821736
0.000829642
0.000839299
0.000850822
0.000864338
0.000879982
0.000897909
0.000918292
0.000941341
0.000967312
0.000996531
0.00102942
0.00106657
0.00110873
0.00115697
0.00121271
0.00127786
0.00135486
0.00144671
0.00155672
0.00168799
0.00184234
0.00201873
0.00221126
0.00240744
0.00258699
0.00270634
0.00274016
0.00271433
0.00259376
0.00244466
0.00240116
0.002498
0.0028315
0.00300218
0.00228366
0.000386929
0.000374732
0.0015921
0.00206932
0.00226935
0.00231454
0.0022484
0.00209608
0.00189823
0.00169106
0.00150086
0.0013416
0.00121681
0.00112351
0.00105599
0.0010082
0.000974899
0.000951771
0.000935385
0.00092308
0.000912911
0.000903595
0.0008944
0.000885018
0.000875419
0.000865722
0.000856099
0.000846723
0.000837729
0.000829215
0.000821245
0.00081386
0.000807088
0.000800959
0.000795508
0.000790783
0.000786843
0.000783756
0.000781647
0.000780666
0.000780546
0.000781689
0.000784206
0.00078817
0.00079369
0.000800883
0.000809869
0.000820774
0.000833732
0.000848885
0.000866384
0.000886401
0.00090913
0.0009348
0.000963694
0.000996178
0.00103273
0.00107402
0.00112093
0.00117474
0.00123717
0.00131053
0.00139782
0.00150267
0.00162896
0.00178001
0.00195697
0.00215672
0.00236945
0.00257713
0.00274373
0.00281552
0.00281959
0.00272499
0.00253626
0.00243191
0.00245589
0.00270249
0.00293111
0.00251294
0.000433877
0.000370756
0.00158877
0.0020519
0.00224373
0.00228464
0.00221331
0.00205658
0.00185534
0.00164677
0.00145778
0.00130193
0.0011817
0.00109311
0.00102982
0.00098553
0.000954876
0.000933545
0.000918176
0.000906249
0.00089601
0.000886368
0.00087676
0.000866996
0.000857109
0.000847236
0.000837532
0.000828131
0.000819128
0.000810579
0.000802516
0.000794956
0.000787916
0.00078142
0.000775509
0.000770236
0.00076567
0.000761894
0.000758999
0.000757177
0.000756455
0.000756728
0.000758399
0.000761542
0.000766269
0.000772703
0.000780974
0.000791218
0.000803577
0.000818201
0.000835247
0.000854886
0.000877307
0.000902723
0.00093139
0.000963621
0.000999828
0.00104057
0.0010866
0.00113903
0.00119936
0.00126973
0.00135301
0.0014529
0.00157378
0.00172009
0.00189494
0.00209791
0.00232205
0.00255111
0.00275774
0.00288294
0.00291201
0.00284998
0.00266278
0.00247716
0.0024423
0.00261863
0.00286743
0.00268895
0.000470388
0.00036461
0.00158007
0.00202743
0.0022119
0.00224925
0.00217472
0.00201597
0.00181361
0.00160535
0.00141847
0.00126625
0.00115036
0.00106605
0.00100653
0.000965262
0.000936824
0.000916926
0.000902306
0.000890604
0.000880247
0.00087032
0.000860395
0.000850369
0.000840309
0.000830348
0.000820614
0.000811201
0.000802164
0.000793527
0.000785297
0.000777477
0.000770079
0.000763132
0.000756681
0.000750789
0.000745538
0.000741022
0.000737349
0.000734631
0.00073313
0.000732692
0.000733471
0.00073577
0.000739683
0.000745335
0.000752863
0.000762413
0.000774135
0.000788188
0.00080474
0.000823967
0.000846058
0.000871222
0.000899695
0.00093176
0.000967772
0.0010082
0.0010537
0.00110518
0.00116399
0.00123201
0.00131192
0.00140733
0.00152282
0.00166361
0.00183447
0.00203762
0.00226955
0.00251773
0.00275832
0.00293523
0.00299612
0.00297096
0.00280339
0.00254994
0.00244252
0.00253333
0.00280695
0.00277635
0.00048763
0.000356502
0.00156585
0.00199778
0.00217519
0.00220969
0.00213371
0.00197501
0.00177348
0.00156692
0.00138283
0.00123431
0.00112247
0.00104202
0.000985793
0.000947118
0.00092052
0.000901761
0.000887694
0.000876119
0.000865635
0.000855476
0.000845321
0.000835122
0.000824964
0.000814961
0.00080521
0.000795766
0.000786652
0.000777866
0.000769399
0.000761249
0.000753429
0.000745973
0.000738934
0.00073239
0.000726431
0.000721164
0.000716704
0.000713174
0.000710768
0.000709682
0.000709626
0.000711084
0.000714186
0.000719054
0.00072583
0.000734665
0.00074572
0.000759164
0.000775173
0.000793936
0.000815649
0.000840524
0.000868792
0.000900715
0.000936608
0.000976877
0.00102207
0.00107297
0.00113072
0.00119698
0.00127417
0.00136569
0.00147612
0.00161112
0.00177667
0.00197721
0.0022124
0.00247281
0.00273641
0.00296369
0.00307123
0.00307928
0.00294238
0.00266545
0.00248035
0.00248467
0.00275341
0.00281206
0.000493314
0.000346833
0.00154833
0.00196415
0.00213477
0.00216708
0.00209116
0.00193429
0.00173525
0.00153154
0.00135072
0.00120585
0.00109773
0.00102069
0.000967337
0.000930864
0.000905787
0.000887932
0.000874274
0.000862767
0.000852166
0.000841826
0.000831508
0.000821199
0.000810983
0.000800952
0.000791171
0.000781662
0.000772423
0.000763433
0.000754675
0.000746147
0.000737866
0.000729873
0.000722235
0.000715038
0.000708384
0.00070239
0.000697182
0.000692892
0.000689661
0.000687754
0.000687096
0.00068773
0.000690045
0.000694147
0.000700179
0.000708294
0.000718661
0.000731458
0.000746876
0.000765116
0.000786387
0.000810911
0.000838923
0.000870679
0.000906471
0.000946656
0.000991703
0.00104227
0.00109933
0.00116432
0.00123938
0.00132766
0.00143356
0.0015629
0.00172252
0.00191879
0.00215458
0.00242446
0.00270949
0.00297337
0.00313894
0.00317764
0.00307839
0.00280203
0.00252242
0.00246448
0.0026794
0.00281982
0.000493618
0.000335998
0.00152848
0.00192767
0.00209171
0.0021224
0.00204782
0.00189429
0.00169912
0.00149918
0.00132198
0.00118063
0.00107587
0.00100182
0.000950926
0.000916306
0.000892477
0.000875337
0.000861983
0.000850512
0.00083981
0.000829332
0.000818896
0.000808512
0.000798254
0.000788189
0.000778352
0.000768742
0.000759334
0.000750099
0.000741016
0.000732085
0.000723331
0.000714806
0.000706584
0.000698764
0.000691456
0.000684787
0.000678888
0.000673897
0.00066995
0.000667244
0.000666008
0.000665933
0.000667507
0.00067088
0.00067619
0.000683594
0.000693264
0.000705389
0.000720171
0.000737827
0.000758583
0.000782678
0.000810359
0.000841889
0.000877549
0.000917665
0.000962648
0.00101306
0.0010697
0.00113382
0.00120729
0.00129293
0.0013949
0.00151893
0.00167234
0.00186297
0.0020965
0.0023717
0.00267444
0.00297308
0.003192
0.0032661
0.00320888
0.00295019
0.00259862
0.00246153
0.00260491
0.00280453
0.000488793
0.000324364
0.00150705
0.00188925
0.00204694
0.0020765
0.0020043
0.00185533
0.00166517
0.00146976
0.00129641
0.00115843
0.00105665
0.000985173
0.000936356
0.000903277
0.000880464
0.000863887
0.00085076
0.000839304
0.000828516
0.000817931
0.000807408
0.000796964
0.000786661
0.000776545
0.000766625
0.000756879
0.000747271
0.000737766
0.000728344
0.00071901
0.000709797
0.000700767
0.000692004
0.000683614
0.000675717
0.000668445
0.000661935
0.000656326
0.000651759
0.000648377
0.000646472
0.000645893
0.000646779
0.000649475
0.000654101
0.000660815
0.000669793
0.000681229
0.00069534
0.000712356
0.000732525
0.000756106
0.000783367
0.000814586
0.000850049
0.000890069
0.000935013