/*--------------------------------*- C++ -*----------------------------------*\
  =========                 |
  \\      /  F ield         | OpenFOAM: The Open Source CFD Toolbox
   \\    /   O peration     | Website:  https://openfoam.org
    \\  /    A nd           | Version:  13
     \\/     M anipulation  |
\*---------------------------------------------------------------------------*/
FoamFile
{
    format      ascii;
    class       surfaceScalarField;
    location    "3.3";
    object      phi;
}
// * * * * * * * * * * * * * * * * * * * * * * * * * * * * * * * * * * * * * //

dimensions      [0 3 -1 0 0 0 0];

internalField   nonuniform List<scalar> 
12640
(
2.16734e-09
-2.16748e-09
1.33486e-08
-1.11813e-08
3.16196e-08
-1.8271e-08
5.22813e-08
-2.06618e-08
7.1041e-08
-1.87597e-08
8.54947e-08
-1.44537e-08
9.47444e-08
-9.2497e-09
9.93438e-08
-4.59939e-09
1.00668e-07
-1.32454e-09
1.00206e-07
4.62656e-10
9.91973e-08
1.00839e-09
9.84514e-08
7.45916e-10
9.8291e-08
1.60364e-10
9.86961e-08
-4.05056e-10
9.92824e-08
-5.86326e-10
9.94809e-08
-1.98491e-10
9.88443e-08
6.36583e-10
9.6828e-08
2.01634e-09
9.27779e-08
4.05009e-09
8.60282e-08
6.74964e-09
7.60768e-08
9.95139e-09
6.24815e-08
1.35953e-08
4.49533e-08
1.75282e-08
2.33779e-08
2.15754e-08
-2.21372e-09
2.55916e-08
-3.20256e-08
2.98119e-08
-6.67852e-08
3.47596e-08
-1.07661e-07
4.0876e-08
-1.56343e-07
4.86818e-08
-2.14565e-07
5.82222e-08
-2.82688e-07
6.81226e-08
-3.59461e-07
7.67736e-08
-4.42968e-07
8.35063e-08
-5.31269e-07
8.83012e-08
-6.22338e-07
9.10689e-08
-7.1424e-07
9.19023e-08
-8.05181e-07
9.09409e-08
-8.93563e-07
8.83821e-08
-9.77998e-07
8.44354e-08
-1.0573e-06
7.93059e-08
-1.1305e-06
7.31925e-08
-1.19672e-06
6.62204e-08
-1.25522e-06
5.85069e-08
-1.30534e-06
5.01191e-08
-1.34643e-06
4.10835e-08
-1.37781e-06
3.13819e-08
-1.39876e-06
2.09489e-08
-1.40943e-06
1.06772e-08
-1.40933e-06
-1.04513e-10
-1.39697e-06
-1.23586e-08
-1.37282e-06
-2.41482e-08
-1.3357e-06
-3.71241e-08
-1.28572e-06
-4.9976e-08
-1.22268e-06
-6.30432e-08
-1.14686e-06
-7.58217e-08
-1.05876e-06
-8.8096e-08
-9.59296e-07
-9.94668e-08
-8.49458e-07
-1.09837e-07
-7.30543e-07
-1.18916e-07
-6.04411e-07
-1.26131e-07
-4.73507e-07
-1.30905e-07
-3.40848e-07
-1.32659e-07
-2.09853e-07
-1.30995e-07
-8.42528e-08
-1.256e-07
3.20572e-08
-1.1631e-07
1.35434e-07
-1.03376e-07
2.21593e-07
-8.61599e-08
2.87411e-07
-6.58172e-08
3.30367e-07
-4.2956e-08
3.49134e-07
-1.8767e-08
3.43446e-07
5.68819e-09
3.16205e-07
2.72405e-08
2.70471e-07
4.57343e-08
2.12552e-07
5.79188e-08
1.52209e-07
6.03434e-08
9.69088e-08
5.52997e-08
5.19814e-08
4.49274e-08
2.01979e-08
3.17835e-08
3.24615e-09
1.69518e-08
3.24615e-09
9.39918e-09
-1.15667e-08
3.539e-08
-3.71721e-08
7.01726e-08
-5.30535e-08
1.0545e-07
-5.59397e-08
1.35817e-07
-4.91265e-08
1.58588e-07
-3.72242e-08
1.73302e-07
-2.39637e-08
1.80642e-07
-1.19399e-08
1.81849e-07
-2.5318e-09
1.78381e-07
3.93149e-09
1.71652e-07
7.73654e-09
1.6262e-07
9.77816e-09
1.51679e-07
1.11015e-08
1.3857e-07
1.27038e-08
1.22666e-07
1.53182e-08
1.03272e-07
1.91949e-08
7.95841e-08
2.43248e-08
5.07253e-08
3.08752e-08
1.57244e-08
3.9051e-08
-2.65568e-08
4.90308e-08
-7.75653e-08
6.09599e-08
-1.38526e-07
7.45563e-08
-2.10264e-07
8.92661e-08
-2.93459e-07
1.0477e-07
-3.88594e-07
1.20727e-07
-4.95621e-07
1.36839e-07
-6.13386e-07
1.52525e-07
-7.39545e-07
1.67035e-07
-8.70911e-07
1.80047e-07
-1.00366e-06
1.90976e-07
-1.13468e-06
1.99141e-07
-1.26234e-06
2.04428e-07
-1.38525e-06
2.06419e-07
-1.50205e-06
2.05103e-07
-1.61157e-06
2.00592e-07
-1.71291e-06
1.93234e-07
-1.8054e-06
1.83435e-07
-1.88857e-06
1.71552e-07
-1.96208e-06
1.57941e-07
-2.02565e-06
1.42876e-07
-2.07907e-06
1.2662e-07
-2.12217e-06
1.09318e-07
-2.15477e-06
9.1104e-08
-2.17671e-06
7.20591e-08
-2.18784e-06
5.22157e-08
-2.18805e-06
3.15884e-08
-2.17712e-06
1.00259e-08
-2.15457e-06
-1.18811e-08
-2.12021e-06
-3.44608e-08
-2.07417e-06
-5.8395e-08
-2.0157e-06
-8.26196e-08
-1.94525e-06
-1.07578e-07
-1.86238e-06
-1.32843e-07
-1.76719e-06
-1.5824e-07
-1.65966e-06
-1.83347e-07
-1.54007e-06
-2.07686e-07
-1.40888e-06
-2.30658e-07
-1.26715e-06
-2.51566e-07
-1.11644e-06
-2.69622e-07
-9.5876e-07
-2.83815e-07
-7.96358e-07
-2.93307e-07
-6.31904e-07
-2.97113e-07
-4.68458e-07
-2.9444e-07
-3.09364e-07
-2.84695e-07
-1.58177e-07
-2.67497e-07
-1.87396e-08
-2.42814e-07
1.06012e-07
-2.10911e-07
2.12433e-07
-1.72239e-07
2.97722e-07
-1.28245e-07
3.5947e-07
-8.05155e-08
3.96605e-07
-3.14462e-08
4.0784e-07
1.60052e-08
3.93702e-07
5.98723e-08
3.56408e-07
9.52131e-08
2.97533e-07
1.19218e-07
2.23868e-07
1.28965e-07
1.45762e-07
1.23033e-07
7.4967e-08
1.02579e-07
2.30777e-08
6.8841e-08
2.63239e-08
1.61974e-08
-2.77641e-08
5.16768e-08
-7.26515e-08
9.11796e-08
-9.25564e-08
1.26075e-07
-9.08354e-08
1.53114e-07
-7.61656e-08
1.7155e-07
-5.56601e-08
1.81801e-07
-3.42142e-08
1.84496e-07
-1.46345e-08
1.80452e-07
1.51138e-09
1.70498e-07
1.38855e-08
1.55516e-07
2.27186e-08
1.35892e-07
2.9402e-08
1.11488e-07
3.55064e-08
8.17049e-08
4.24864e-08
4.57026e-08
5.13204e-08
2.41268e-09
6.24848e-08
-4.94862e-08
7.62237e-08
-1.11239e-07
9.26279e-08
-1.83942e-07
1.11754e-07
-2.68438e-07
1.33528e-07
-3.65117e-07
1.57638e-07
-4.73872e-07
1.83311e-07
-5.94164e-07
2.09559e-07
-7.24738e-07
2.35344e-07
-8.63421e-07
2.5941e-07
-1.00737e-06
2.80785e-07
-1.15342e-06
2.98581e-07
-1.29861e-06
3.12227e-07
-1.44015e-06
3.21584e-07
-1.57565e-06
3.26472e-07
-1.70338e-06
3.26875e-07
-1.82199e-06
3.23036e-07
-1.93074e-06
3.15171e-07
-2.02944e-06
3.038e-07
-2.11818e-06
2.89336e-07
-2.19708e-06
2.72127e-07
-2.2663e-06
2.52654e-07
-2.32602e-06
2.31277e-07
-2.37641e-06
2.08331e-07
-2.41758e-06
1.84047e-07
-2.44963e-06
1.58668e-07
-2.47261e-06
1.32302e-07
-2.48652e-06
1.05014e-07
-2.4913e-06
7.68345e-08
-2.48681e-06
4.7724e-08
-2.47285e-06
1.76304e-08
-2.44941e-06
-1.34102e-08
-2.41592e-06
-4.53744e-08
-2.37195e-06
-7.84359e-08
-2.31763e-06
-1.12706e-07
-2.25239e-06
-1.47863e-07
-2.17606e-06
-1.83905e-07
-2.0884e-06
-2.20504e-07
-1.98927e-06
-2.57373e-07
-1.87863e-06
-2.93987e-07
-1.75666e-06
-3.29655e-07
-1.62382e-06
-3.63495e-07
-1.48085e-06
-3.94536e-07
-1.3289e-06
-4.21573e-07
-1.16953e-06
-4.43191e-07
-1.00481e-06
-4.58024e-07
-8.37189e-07
-4.64733e-07
-6.696e-07
-4.6203e-07
-5.05266e-07
-4.49029e-07
-3.47538e-07
-4.25225e-07
-1.99566e-07
-3.90785e-07
-6.46628e-08
-3.45815e-07
5.43655e-08
-2.91267e-07
1.55095e-07
-2.28975e-07
2.35516e-07
-1.60936e-07
2.94523e-07
-9.04535e-08
3.30982e-07
-2.04541e-08
3.44508e-07
4.63467e-08
3.34415e-07
1.05306e-07
3.01752e-07
1.51882e-07
2.49265e-07
1.81452e-07
1.81481e-07
1.90817e-07
1.0705e-07
1.7701e-07
3.87606e-08
1.3713e-07
6.50845e-08
2.11958e-08
-4.89599e-08
6.04789e-08
-1.11935e-07
9.76817e-08
-1.29759e-07
1.26321e-07
-1.19474e-07
1.45419e-07
-9.52635e-08
1.55748e-07
-6.59897e-08
1.58065e-07
-3.65312e-08
1.5303e-07
-9.59942e-09
1.41036e-07
1.35049e-08
1.22384e-07
3.2538e-08
9.68288e-08
4.82738e-08
6.40051e-08
6.22258e-08
2.33167e-08
7.61947e-08
-2.59767e-08
9.17799e-08
-8.47652e-08
1.10109e-07
-1.54123e-07
1.31842e-07
-2.35093e-07
1.57195e-07
-3.28516e-07
1.8605e-07
-4.34831e-07
2.18069e-07
-5.5378e-07
2.52476e-07
-6.84303e-07
2.88162e-07
-8.24555e-07
3.23563e-07
-9.71852e-07
3.56855e-07
-1.12318e-06
3.86676e-07
-1.27539e-06
4.11614e-07
-1.42548e-06
4.30876e-07
-1.57073e-06
4.43833e-07
-1.70873e-06
4.50223e-07
-1.83758e-06
4.50439e-07
-1.95632e-06
4.45212e-07
-2.06464e-06
4.35196e-07
-2.16256e-06
4.20955e-07
-2.25043e-06
4.03042e-07
-2.32862e-06
3.81989e-07
-2.3976e-06
3.5831e-07
-2.45784e-06
3.32376e-07
-2.50977e-06
3.04583e-07
-2.55371e-06
2.75209e-07
-2.58989e-06
2.44515e-07
-2.61851e-06
2.12664e-07
-2.63964e-06
1.79804e-07
-2.65334e-06
1.45995e-07
-2.65954e-06
1.1122e-07
-2.65814e-06
7.54361e-08
-2.64896e-06
3.85385e-08
-2.63174e-06
4.14021e-10
-2.60625e-06
-3.88983e-08
-2.57208e-06
-7.95507e-08
-2.52886e-06
-1.21652e-07
-2.47633e-06
-1.65235e-07
-2.414e-06
-2.1019e-07
-2.34154e-06
-2.56373e-07
-2.25859e-06
-3.0345e-07
-2.16486e-06
-3.511e-07
-2.0601e-06
-3.98748e-07
-1.9442e-06
-4.45555e-07
-1.81734e-06
-4.90355e-07
-1.67994e-06
-5.3194e-07
-1.5327e-06
-5.68814e-07
-1.37682e-06
-5.99072e-07
-1.21396e-06
-6.20877e-07
-1.04629e-06
-6.32402e-07
-8.76502e-07
-6.31821e-07
-7.07868e-07
-6.17663e-07
-5.44058e-07
-5.89035e-07
-3.88598e-07
-5.46245e-07
-2.44573e-07
-4.8984e-07
-1.15023e-07
-4.20817e-07
-2.59923e-09
-3.41398e-07
9.11621e-08
-2.54697e-07
1.64569e-07
-1.63861e-07
2.16969e-07
-7.2854e-08
2.48723e-07
1.45926e-08
2.59554e-07
9.44745e-08
2.49422e-07
1.62014e-07
2.18702e-07
2.12172e-07
1.70138e-07
2.3938e-07
1.08217e-07
2.38931e-07
4.23372e-08
2.0301e-07
1.07422e-07
2.44178e-08
-7.33776e-08
6.23027e-08
-1.49819e-07
9.25325e-08
-1.59989e-07
1.12151e-07
-1.39092e-07
1.21609e-07
-1.04722e-07
1.22364e-07
-6.67444e-08
1.15251e-07
-2.9418e-08
1.00639e-07
5.01187e-09
7.84664e-08
3.56779e-08
4.83661e-08
6.26382e-08
9.60176e-09
8.70381e-08
-3.86924e-08
1.1052e-07
-9.74009e-08
1.34903e-07
-1.67388e-07
1.61767e-07
-2.49458e-07
1.92179e-07
-3.44262e-07
2.26646e-07
-4.52157e-07
2.6509e-07
-5.72923e-07
3.06817e-07
-7.0561e-07
3.50756e-07
-8.48359e-07
3.95225e-07
-9.9839e-07
4.38193e-07
-1.15263e-06
4.77806e-07
-1.30776e-06
5.11987e-07
-1.46063e-06
5.39537e-07
-1.60816e-06
5.59144e-07
-1.74751e-06
5.70228e-07
-1.877e-06
5.73328e-07
-1.99606e-06
5.6928e-07
-2.10464e-06
5.59023e-07
-2.20301e-06
5.43581e-07
-2.2916e-06
5.23785e-07
-2.37103e-06
5.00384e-07
-2.44191e-06
4.73919e-07
-2.50477e-06
4.4485e-07
-2.5601e-06
4.13641e-07
-2.60835e-06
3.80625e-07
-2.64986e-06
3.46097e-07
-2.68494e-06
3.10287e-07
-2.71379e-06
2.73361e-07
-2.73649e-06
2.35369e-07
-2.75309e-06
1.96397e-07
-2.76358e-06
1.56488e-07
-2.7679e-06
1.15544e-07
-2.76593e-06
7.34599e-08
-2.75746e-06
3.0068e-08
-2.74225e-06
-1.47954e-08
-2.71991e-06
-6.1236e-08
-2.69007e-06
-1.09389e-07
-2.6524e-06
-1.59323e-07
-2.60652e-06
-2.11118e-07
-2.55186e-06
-2.64843e-07
-2.48789e-06
-3.20348e-07
-2.41419e-06
-3.77153e-07
-2.33031e-06
-4.34978e-07
-2.23577e-06
-4.93289e-07
-2.13009e-06
-5.51233e-07
-2.01313e-06
-6.07313e-07
-1.88498e-06
-6.6009e-07
-1.74582e-06
-7.07971e-07
-1.59643e-06
-7.48462e-07
-1.43798e-06
-7.79332e-07
-1.27224e-06
-7.98136e-07
-1.10149e-06
-8.02574e-07
-9.28645e-07
-7.90509e-07
-7.5737e-07
-7.6031e-07
-5.92125e-07
-7.1149e-07
-4.36702e-07
-6.45264e-07
-2.94291e-07
-5.63227e-07
-1.67872e-07
-4.67818e-07
-5.99953e-08
-3.62574e-07
2.78808e-08
-2.51737e-07
9.49985e-08
-1.39972e-07
1.41477e-07
-3.18857e-08
1.67971e-07
6.79805e-08
1.75047e-07
1.54938e-07
1.63327e-07
2.23892e-07
1.33761e-07
2.68947e-07
8.88814e-08
2.83811e-07
3.56933e-08
2.56198e-07
1.43115e-07
2.57177e-08
-9.90953e-08
5.77275e-08
-1.81829e-07
7.80439e-08
-1.80305e-07
8.67213e-08
-1.4777e-07
8.56014e-08
-1.03602e-07
7.59814e-08
-5.71244e-08
5.84185e-08
-1.18551e-08
3.28522e-08
3.05782e-08
-1.17658e-09
6.97066e-08
-4.45864e-08
1.06048e-07
-9.83594e-08
1.40811e-07
-1.63538e-07
1.75699e-07
-2.41031e-07
2.12396e-07
-3.31501e-07
2.52237e-07
-4.35288e-07
2.95966e-07
-5.52271e-07
3.43629e-07
-6.81718e-07
3.94536e-07
-8.22065e-07
4.47164e-07
-9.70818e-07
4.99509e-07
-1.12506e-06
5.49463e-07
-1.28127e-06
5.94404e-07
-1.43597e-06
6.32505e-07
-1.58559e-06
6.61609e-07
-1.72677e-06
6.80718e-07
-1.85768e-06
6.9005e-07
-1.97783e-06
6.90381e-07
-2.08741e-06
6.82912e-07
-2.18694e-06
6.68812e-07
-2.27711e-06
6.4919e-07
-2.35855e-06
6.25019e-07
-2.43187e-06
5.97107e-07
-2.49767e-06
5.66179e-07
-2.55647e-06
5.32726e-07
-2.6088e-06
4.97178e-07
-2.65506e-06
4.59899e-07
-2.69559e-06
4.21151e-07
-2.73064e-06
3.81149e-07
-2.76044e-06
3.40094e-07
-2.78519e-06
2.98106e-07
-2.80488e-06
2.55057e-07
-2.81949e-06
2.11012e-07
-2.8291e-06
1.66093e-07
-2.83363e-06
1.20072e-07
-2.83299e-06
7.28229e-08
-2.82706e-06
2.4144e-08
-2.81571e-06
-2.61472e-08
-2.79865e-06
-7.82947e-08
-2.77547e-06
-1.32572e-07
-2.74567e-06
-1.89124e-07
-2.70877e-06
-2.48015e-07
-2.66428e-06
-3.09338e-07
-2.61141e-06
-3.73219e-07
-2.54954e-06
-4.39016e-07
-2.47811e-06
-5.06413e-07
-2.39663e-06
-5.7477e-07
-2.30441e-06
-6.43446e-07
-2.20058e-06
-7.11143e-07
-2.08498e-06
-7.75695e-07
-1.95717e-06
-8.35777e-07
-1.81742e-06
-8.88217e-07
-1.66634e-06
-9.30408e-07
-1.50505e-06
-9.59431e-07
-1.33556e-06
-9.7206e-07
-1.1605e-06
-9.65573e-07
-9.83046e-07
-9.3776e-07
-8.07482e-07
-8.87053e-07
-6.38913e-07
-8.13833e-07
-4.81536e-07
-7.20604e-07
-3.38914e-07
-6.1044e-07
-2.14225e-07
-4.87263e-07
-1.09743e-07
-3.56219e-07
-2.66676e-08
-2.23047e-07
3.49592e-08
-9.35126e-08
7.60095e-08
2.69302e-08
9.78095e-08
1.33138e-07
1.0158e-07
2.20121e-07
8.83884e-08
2.82139e-07
6.06168e-08
3.11582e-07
2.41293e-08
2.92685e-07
1.67244e-07
2.46861e-08
-1.23781e-07
4.71047e-08
-2.04248e-07
5.57811e-08
-1.88982e-07
5.26642e-08
-1.44653e-07
4.0313e-08
-9.12511e-08
1.96527e-08
-3.64641e-08
-9.22997e-09
1.70275e-08
-4.68014e-08
6.81497e-08
-9.39226e-08
1.16828e-07
-1.51654e-07
1.6378e-07
-2.21117e-07
2.10274e-07
-3.03244e-07
2.57826e-07
-3.98654e-07
3.07806e-07
-5.07512e-07
3.61094e-07
-6.29382e-07
4.17836e-07
-7.63165e-07
4.77413e-07
-9.06954e-07
5.38324e-07
-1.05801e-06
5.98221e-07
-1.21294e-06
6.54434e-07
-1.3681e-06
7.04631e-07
-1.51951e-06
7.45811e-07
-1.66313e-06
7.76126e-07
-1.79665e-06
7.95128e-07
-1.91922e-06
8.03291e-07
-2.03102e-06
8.01844e-07
-2.13268e-06
7.92042e-07
-2.22492e-06
7.75155e-07
-2.3085e-06
7.52388e-07
-2.38416e-06
7.24851e-07
-2.45255e-06
6.93415e-07
-2.51427e-06
6.5882e-07
-2.56977e-06
6.21679e-07
-2.61948e-06
5.82438e-07
-2.66379e-06
5.41486e-07
-2.70302e-06
4.99137e-07
-2.73747e-06
4.55601e-07
-2.76727e-06
4.10943e-07
-2.79254e-06
3.65368e-07
-2.81346e-06
3.19019e-07
-2.83033e-06
2.71929e-07
-2.84326e-06
2.23948e-07
-2.85207e-06
1.74897e-07
-2.85666e-06
1.24669e-07
-2.85692e-06
7.30817e-08
-2.85269e-06
1.99072e-08
-2.84393e-06
-3.48989e-08
-2.8306e-06
-9.16286e-08
-2.8126e-06
-1.50574e-07
-2.78974e-06
-2.1198e-07
-2.7617e-06
-2.76062e-07
-2.72808e-06
-3.42951e-07
-2.68844e-06
-4.12865e-07
-2.6416e-06
-4.85857e-07
-2.5864e-06
-5.6161e-07
-2.52158e-06
-6.39587e-07
-2.4462e-06
-7.18834e-07
-2.35905e-06
-7.98292e-07
-2.25967e-06
-8.75071e-07
-2.14772e-06
-9.47731e-07
-2.02216e-06
-1.01377e-06
-1.88307e-06
-1.0695e-06
-1.73077e-06
-1.11173e-06
-1.56663e-06
-1.1362e-06
-1.39261e-06
-1.13959e-06
-1.2118e-06
-1.11857e-06
-1.02805e-06
-1.0708e-06
-8.46605e-07
-9.95277e-07
-6.73242e-07
-8.93966e-07
-5.12758e-07
-7.70924e-07
-3.69096e-07
-6.30925e-07
-2.45561e-07
-4.79754e-07
-1.44265e-07
-3.24343e-07
-6.58881e-08
-1.7189e-07
-9.70034e-09
-2.92575e-08
2.59886e-08
9.7449e-08
4.33259e-08
2.02784e-07
4.4387e-08
2.81078e-07
3.18301e-08
3.24139e-07
1.15031e-08
3.13012e-07
1.78747e-07
2.07572e-08
-1.44539e-07
3.15063e-08
-2.14997e-07
2.7429e-08
-1.84905e-07
1.21288e-08
-1.29353e-07
-1.17989e-08
-6.73234e-08
-4.39829e-08
-4.28013e-09
-8.47803e-08
5.78249e-08
-1.34994e-07
1.18363e-07
-1.9567e-07
1.77504e-07
-2.67896e-07
2.36006e-07
-3.52613e-07
2.9499e-07
-4.50426e-07
3.55639e-07
-5.61436e-07
4.18817e-07
-6.8508e-07
4.84738e-07
-8.20107e-07
5.52863e-07
-9.6442e-07
6.21727e-07
-1.11503e-06
6.88935e-07
-1.26835e-06
7.51537e-07
-1.4204e-06
8.06488e-07
-1.56656e-06
8.50787e-07
-1.70358e-06
8.82833e-07
-1.82992e-06
9.02464e-07
-1.94532e-06
9.10535e-07
-2.05022e-06
9.08191e-07
-2.14534e-06
8.96962e-07
-2.23149e-06
8.78192e-07
-2.30952e-06
8.5318e-07
-2.38018e-06
8.23052e-07
-2.44412e-06
7.88792e-07
-2.50188e-06
7.51172e-07
-2.55391e-06
7.10849e-07
-2.60058e-06
6.68346e-07
-2.6422e-06
6.24067e-07
-2.67907e-06
5.78354e-07
-2.71142e-06
5.31481e-07
-2.73954e-06
4.83727e-07
-2.76388e-06
4.3528e-07
-2.78465e-06
3.8614e-07
-2.80183e-06
3.36198e-07
-2.81542e-06
2.85516e-07
-2.82551e-06
2.34037e-07
-2.83212e-06
1.81513e-07
-2.83534e-06
1.27887e-07
-2.83522e-06
7.29557e-08
-2.83174e-06
1.64316e-08
-2.82498e-06
-4.16601e-08
-2.81483e-06
-1.01773e-07
-2.80117e-06
-1.64242e-07
-2.78378e-06
-2.29369e-07
-2.76239e-06
-2.97452e-07
-2.73662e-06
-3.68718e-07
-2.70626e-06
-4.43222e-07
-2.67078e-06
-5.21344e-07
-2.62961e-06
-6.02778e-07
-2.58201e-06
-6.87185e-07
-2.52692e-06
-7.73926e-07
-2.46276e-06
-8.62453e-07
-2.38626e-06
-9.51566e-07
-2.29584e-06
-1.03815e-06
-2.19027e-06
-1.11934e-06
-2.06931e-06
-1.19047e-06
-1.9326e-06
-1.24843e-06
-1.78027e-06
-1.28853e-06
-1.61351e-06
-1.30636e-06
-1.43453e-06
-1.29755e-06
-1.24684e-06
-1.25849e-06
-1.05537e-06
-1.18675e-06
-8.66673e-07
-1.08266e-06
-6.87581e-07
-9.50016e-07
-5.23503e-07
-7.95003e-07
-3.78755e-07
-6.24502e-07
-2.56743e-07
-4.46354e-07
-1.59283e-07
-2.6935e-07
-8.63693e-08
-1.02171e-07
-3.62754e-08
4.73552e-08
-6.06125e-09
1.72569e-07
7.38755e-09
2.67629e-07
8.17489e-09
3.23352e-07
1.77743e-09
3.1941e-07
1.80525e-07
1.41238e-08
-1.58662e-07
1.17944e-08
-2.12668e-07
-5.53116e-09
-1.67579e-07
-3.28182e-08
-1.02066e-07
-6.846e-08
-3.16816e-08
-1.12413e-07
3.96729e-08
-1.65363e-07
1.10775e-07
-2.28308e-07
1.81308e-07
-3.02301e-07
2.51497e-07
-3.88255e-07
3.2196e-07
-4.86764e-07
3.93499e-07
-5.97922e-07
4.66798e-07
-7.21158e-07
5.42053e-07
-8.55225e-07
6.18805e-07
-9.97996e-07
6.95634e-07
-1.14637e-06
7.70099e-07
-1.29651e-06
8.39073e-07
-1.444e-06
8.99033e-07
-1.5846e-06
9.47086e-07
-1.71553e-06
9.81712e-07
-1.83574e-06
1.00304e-06
-1.94512e-06
1.01184e-06
-2.04415e-06
1.00956e-06
-2.13365e-06
9.97695e-07
-2.2145e-06
9.77816e-07
-2.28754e-06
9.51231e-07
-2.35352e-06
9.19162e-07
-2.41308e-06
8.82608e-07
-2.46672e-06
8.42433e-07
-2.51488e-06
7.99331e-07
-2.55793e-06
7.539e-07
-2.5962e-06
7.06617e-07
-2.63001e-06
6.57872e-07
-2.65965e-06
6.07995e-07
-2.6854e-06
5.57236e-07
-2.70739e-06
5.05717e-07
-2.72574e-06
4.53626e-07
-2.74057e-06
4.00975e-07
-2.75212e-06
3.47742e-07
-2.76057e-06
2.93965e-07
-2.7661e-06
2.39568e-07
-2.76896e-06
1.84373e-07
-2.76931e-06
1.28239e-07
-2.76731e-06
7.095e-08
-2.76308e-06
1.2202e-08
-2.75665e-06
-4.80889e-08
-2.74798e-06
-1.10437e-07
-2.73706e-06
-1.7516e-07
-2.72384e-06
-2.42597e-07
-2.70819e-06
-3.13094e-07
-2.68996e-06
-3.86955e-07
-2.66874e-06
-4.6444e-07
-2.64422e-06
-5.45862e-07
-2.61575e-06
-6.31245e-07
-2.58247e-06
-7.2047e-07
-2.54329e-06
-8.13104e-07
-2.49749e-06
-9.0825e-07
-2.44374e-06
-1.00533e-06
-2.37989e-06
-1.102e-06
-2.30273e-06
-1.1965e-06
-2.2082e-06
-1.285e-06
-2.09454e-06
-1.36209e-06
-1.96185e-06
-1.42123e-06
-1.8104e-06
-1.4578e-06
-1.6411e-06
-1.46685e-06
-1.45655e-06
-1.44304e-06
-1.26089e-06
-1.38241e-06
-1.0604e-06
-1.28315e-06
-8.63378e-07
-1.14704e-06
-6.78046e-07
-9.80335e-07
-5.10517e-07
-7.92031e-07
-3.65427e-07
-5.91444e-07
-2.46155e-07
-3.88623e-07
-1.53946e-07
-1.9438e-07
-8.77716e-08
-1.88189e-08
-4.45334e-08
1.29331e-07
-1.98755e-08
2.42971e-07
-7.80178e-09
3.11278e-07
-3.55155e-09
3.15159e-07
1.76973e-07
5.39986e-09
-1.64062e-07
-1.06966e-08
-1.96571e-07
-4.08768e-08
-1.37399e-07
-8.02137e-08
-6.27287e-08
-1.27525e-07
1.56302e-08
-1.83171e-07
9.5318e-08
-2.48068e-07
1.75673e-07
-3.23252e-07
2.56492e-07
-4.09626e-07
3.37871e-07
-5.07781e-07
4.20114e-07
-6.17835e-07
5.03554e-07
-7.39276e-07
5.88239e-07
-8.70935e-07
6.73712e-07
-1.01075e-06
7.58622e-07
-1.15566e-06
8.40545e-07
-1.30171e-06
9.16143e-07
-1.44429e-06
9.81659e-07
-1.57962e-06
1.03435e-06
-1.70527e-06
1.07274e-06
-1.82025e-06
1.09669e-06
-1.92445e-06
1.10725e-06
-2.01842e-06
1.10581e-06
-2.10299e-06
1.09413e-06
-2.17906e-06
1.07377e-06
-2.24745e-06
1.04621e-06
-2.30888e-06
1.01266e-06
-2.36395e-06
9.74232e-07
-2.41316e-06
9.31814e-07
-2.45692e-06
8.86191e-07
-2.49559e-06
8.3801e-07
-2.52952e-06
7.87829e-07
-2.55901e-06
7.36107e-07
-2.58436e-06
6.8322e-07
-2.60584e-06
6.29475e-07
-2.6237e-06
5.75094e-07
-2.6382e-06
5.20218e-07
-2.64957e-06
4.64995e-07
-2.65806e-06
4.09463e-07
-2.66394e-06
3.5363e-07
-2.66745e-06
2.97473e-07
-2.66878e-06
2.40892e-07
-2.66813e-06
1.8373e-07
-2.6657e-06
1.25806e-07
-2.66164e-06
6.6886e-08
-2.65607e-06
6.63857e-09
-2.64912e-06
-5.50448e-08
-2.64087e-06
-1.18688e-07
-2.63142e-06
-1.84609e-07
-2.62083e-06
-2.53182e-07
-2.60913e-06
-3.24794e-07
-2.59627e-06
-3.99823e-07
-2.58206e-06
-4.78642e-07
-2.56633e-06
-5.61598e-07
-2.54866e-06
-6.48911e-07
-2.52847e-06
-7.40662e-07
-2.50488e-06
-8.36691e-07
-2.47656e-06
-9.36574e-07
-2.44223e-06
-1.03965e-06
-2.3999e-06
-1.14432e-06
-2.34797e-06
-1.24843e-06
-2.28337e-06
-1.3496e-06
-2.20178e-06
-1.44368e-06
-2.09792e-06
-1.52509e-06
-1.9703e-06
-1.58542e-06
-1.82e-06
-1.61715e-06
-1.64764e-06
-1.6154e-06
-1.45633e-06
-1.57373e-06
-1.25144e-06
-1.48803e-06
-1.04083e-06
-1.35765e-06
-8.34879e-07
-1.18629e-06
-6.43497e-07
-9.83413e-07
-4.73503e-07
-7.61438e-07
-3.29749e-07
-5.32377e-07
-2.15309e-07
-3.0882e-07
-1.30309e-07
-1.03819e-07
-7.23041e-08
7.13266e-08
-3.63894e-08
2.07056e-07
-1.56074e-08
2.90496e-07
-4.86335e-09
3.04415e-07
1.7211e-07
-4.93581e-09
-1.59126e-07
-3.45702e-08
-1.66937e-07
-7.73154e-08
-9.46537e-08
-1.28328e-07
-1.17162e-08
-1.86946e-07
7.42485e-08
-2.53848e-07
1.62219e-07
-3.30029e-07
2.51854e-07
-4.16427e-07
3.4289e-07
-5.13672e-07
4.35116e-07
-6.21936e-07
5.28378e-07
-7.40797e-07
6.22414e-07
-8.69211e-07
7.16653e-07
-1.00526e-06
8.09761e-07
-1.146e-06
8.99358e-07
-1.28751e-06
9.82055e-07
-1.42536e-06
1.054e-06
-1.55599e-06
1.11229e-06
-1.67714e-06
1.1555e-06
-1.78765e-06
1.18325e-06
-1.88745e-06
1.19648e-06
-1.97703e-06
1.19684e-06
-2.05726e-06
1.18604e-06
-2.129e-06
1.16587e-06
-2.19305e-06
1.13782e-06
-2.25009e-06
1.10325e-06
-2.30071e-06
1.06327e-06
-2.34537e-06
1.0189e-06
-2.38452e-06
9.70963e-07
-2.41854e-06
9.20205e-07
-2.44778e-06
8.67252e-07
-2.47259e-06
8.12645e-07
-2.49333e-06
7.56837e-07
-2.5103e-06
7.00198e-07
-2.52384e-06
6.43016e-07
-2.53425e-06
5.85499e-07
-2.54184e-06
5.27805e-07
-2.54689e-06
4.70045e-07
-2.54967e-06
4.1225e-07
-2.55046e-06
3.54414e-07
-2.54946e-06
2.96475e-07
-2.54688e-06
2.38315e-07
-2.54292e-06
1.79771e-07
-2.53776e-06
1.20646e-07
-2.53158e-06
6.07066e-08
-2.52452e-06
-4.28866e-10
-2.51677e-06
-6.27893e-08
-2.50847e-06
-1.26995e-07
-2.49976e-06
-1.93315e-07
-2.49079e-06
-2.6215e-07
-2.48167e-06
-3.33916e-07
-2.47245e-06
-4.09038e-07
-2.46315e-06
-4.87946e-07
-2.4537e-06
-5.7105e-07
-2.44392e-06
-6.58692e-07
-2.43346e-06
-7.51116e-07
-2.42174e-06
-8.48418e-07
-2.40781e-06
-9.50496e-07
-2.39054e-06
-1.05693e-06
-2.36814e-06
-1.16672e-06
-2.3382e-06
-1.27837e-06
-2.29819e-06
-1.38961e-06
-2.24542e-06
-1.49645e-06
-2.17516e-06
-1.59536e-06
-2.08111e-06
-1.67946e-06
-1.9589e-06
-1.73935e-06
-1.80904e-06
-1.76526e-06
-1.63226e-06
-1.75052e-06
-1.43267e-06
-1.68762e-06
-1.21718e-06
-1.57313e-06
-9.95702e-07
-1.40777e-06
-7.81071e-07
-1.19804e-06
-5.84907e-07
-9.57602e-07
-4.14606e-07
-7.02677e-07
-2.75056e-07
-4.4837e-07
-1.6832e-07
-2.10556e-07
-9.30829e-08
-3.91011e-09
-4.47937e-08
1.58767e-07
-1.68332e-08
2.62536e-07
-2.99787e-09
2.9058e-07
1.69112e-07
-1.59436e-08
-1.43183e-07
-5.88925e-08
-1.23988e-07
-1.13489e-07
-4.00573e-08
-1.75524e-07
5.03191e-08
-2.44813e-07
1.43537e-07
-3.22165e-07
2.39571e-07
-4.08553e-07
3.38243e-07
-5.04708e-07
4.39045e-07
-6.10906e-07
5.41314e-07
-7.26849e-07
6.44321e-07
-8.51647e-07
7.47212e-07
-9.83556e-07
8.48562e-07
-1.11984e-06
9.46041e-07
-1.25679e-06
1.03631e-06
-1.39026e-06
1.11552e-06
-1.51681e-06
1.18054e-06
-1.63415e-06
1.22964e-06
-1.74099e-06
1.26234e-06
-1.8371e-06
1.27935e-06
-1.92299e-06
1.28238e-06
-1.99946e-06
1.2733e-06
-2.06736e-06
1.25394e-06
-2.12746e-06
1.22596e-06
-2.18041e-06
1.19078e-06
-2.2268e-06
1.14963e-06
-2.2671e-06
1.10358e-06
-2.30178e-06
1.05358e-06
-2.33125e-06
1.00044e-06
-2.35593e-06
9.4488e-07
-2.37621e-06
8.87534e-07
-2.3925e-06
8.28934e-07
-2.40518e-06
7.6952e-07
-2.41463e-06
7.09643e-07
-2.42118e-06
6.49571e-07
-2.42519e-06
5.89502e-07
-2.42695e-06
5.29574e-07
-2.42677e-06
4.69858e-07
-2.42488e-06
4.10365e-07
-2.42153e-06
3.51058e-07
-2.4169e-06
2.91851e-07
-2.4112e-06
2.3261e-07
-2.40459e-06
1.73164e-07
-2.39725e-06
1.13307e-07
-2.38934e-06
5.27928e-08
-2.38111e-06
-8.66265e-09
-2.37259e-06
-7.13076e-08
-2.36405e-06
-1.35534e-07
-2.35566e-06
-2.01702e-07
-2.3476e-06
-2.70205e-07
-2.34005e-06
-3.41467e-07
-2.33316e-06
-4.15935e-07
-2.32703e-06
-4.94071e-07
-2.32175e-06
-5.76337e-07
-2.31728e-06
-6.63161e-07
-2.31347e-06
-7.54919e-07
-2.31e-06
-8.51887e-07
-2.30631e-06
-9.54191e-07
-2.30154e-06
-1.0617e-06
-2.29435e-06
-1.17391e-06
-2.28286e-06
-1.28986e-06
-2.26467e-06
-1.4078e-06
-2.23612e-06
-1.525e-06
-2.19379e-06
-1.63768e-06
-2.13311e-06
-1.74015e-06
-2.04664e-06
-1.82582e-06
-1.92867e-06
-1.88323e-06
-1.77762e-06
-1.90157e-06
-1.59452e-06
-1.87072e-06
-1.38487e-06
-1.78279e-06
-1.15757e-06
-1.63507e-06
-9.25236e-07
-1.43037e-06
-7.03433e-07
-1.17941e-06
-5.05257e-07
-9.00853e-07
-3.38432e-07
-6.15195e-07
-2.07264e-07
-3.41724e-07
-1.12171e-07
-9.90029e-08
-4.98658e-08
9.6462e-08
-1.4648e-08
2.27318e-07
4.9982e-10
2.75432e-07
1.69612e-07
-2.71174e-08
-1.16065e-07
-8.2456e-08
-6.86493e-08
-1.48061e-07
2.55476e-08
-2.2033e-07
1.22588e-07
-2.99372e-07
2.22579e-07
-3.86065e-07
3.26264e-07
-4.81263e-07
4.33441e-07
-5.85418e-07
5.432e-07
-6.9841e-07
6.54307e-07
-8.19539e-07
7.65449e-07
-9.47259e-07
8.74932e-07
-1.0791e-06
9.80407e-07
-1.21172e-06
1.07866e-06
-1.34125e-06
1.16584e-06
-1.46433e-06
1.2386e-06
-1.57855e-06
1.29476e-06
-1.68246e-06
1.33356e-06
-1.77566e-06
1.35554e-06
-1.85856e-06
1.36225e-06
-1.93191e-06
1.35573e-06
-1.99654e-06
1.33793e-06
-2.05319e-06
1.3106e-06
-2.10253e-06
1.2753e-06
-2.14512e-06
1.23337e-06
-2.18148e-06
1.18599e-06
-2.21211e-06
1.1342e-06
-2.23745e-06
1.07893e-06
-2.258e-06
1.02098e-06
-2.27421e-06
9.61088e-07
-2.28654e-06
8.99866e-07
-2.29543e-06
8.37827e-07
-2.3013e-06
7.75387e-07
-2.30453e-06
7.1287e-07
-2.30547e-06
6.50515e-07
-2.30446e-06
5.88488e-07
-2.30177e-06
5.26888e-07
-2.29766e-06
4.65748e-07
-2.29235e-06
4.05049e-07
-2.28601e-06
3.44725e-07
-2.27883e-06
2.84667e-07
-2.27095e-06
2.24731e-07
-2.26252e-06
1.64738e-07
-2.2537e-06
1.04481e-07
-2.24462e-06
4.3719e-08
-2.23548e-06
-1.78069e-08
-2.2264e-06
-8.03848e-08
-2.21759e-06
-1.44347e-07
-2.20924e-06
-2.10046e-07
-2.20158e-06
-2.77869e-07
-2.19481e-06
-3.48234e-07
-2.18916e-06
-4.21588e-07
-2.18482e-06
-4.98408e-07
-2.18198e-06
-5.79185e-07
-2.18073e-06
-6.6441e-07
-2.18109e-06
-7.54553e-07
-2.18295e-06
-8.50028e-07
-2.186e-06
-9.51148e-07
-2.18965e-06
-1.05804e-06
-2.193e-06
-1.17057e-06
-2.19465e-06
-1.2882e-06
-2.19263e-06
-1.40982e-06
-2.1841e-06
-1.53353e-06
-2.16547e-06
-1.65631e-06
-2.13195e-06
-1.77367e-06
-2.07855e-06
-1.87922e-06
-1.99701e-06
-1.96477e-06
-1.88072e-06
-2.01786e-06
-1.72598e-06
-2.02546e-06
-1.5342e-06
-1.97457e-06
-1.31262e-06
-1.85665e-06
-1.07284e-06
-1.67016e-06
-8.30927e-07
-1.42132e-06
-6.05243e-07
-1.12654e-06
-4.09793e-07
-8.10645e-07
-2.52043e-07
-4.99474e-07
-1.34893e-07
-2.16153e-07
-5.66337e-08
1.8203e-08
-1.28949e-08
1.83579e-07
3.97477e-09
2.58563e-07
1.73587e-07
-3.78338e-08
-7.82317e-08
-1.04469e-07
-2.01377e-09
-1.79995e-07
1.01074e-07
-2.61474e-07
2.04067e-07
-3.49127e-07
3.10232e-07
-4.43814e-07
4.20951e-07
-5.46207e-07
5.35834e-07
-6.56436e-07
6.53428e-07
-7.74046e-07
7.71917e-07
-8.97733e-07
8.89136e-07
-1.02534e-06
1.00254e-06
-1.15395e-06
1.10902e-06
-1.27998e-06
1.20469e-06
-1.40017e-06
1.28603e-06
-1.51196e-06
1.35039e-06
-1.6137e-06
1.3965e-06
-1.70478e-06
1.42464e-06
-1.78544e-06
1.4362e-06
-1.85639e-06
1.4332e-06
-1.9184e-06
1.41775e-06
-1.97224e-06
1.39176e-06
-2.01856e-06
1.35692e-06
-2.05795e-06
1.3147e-06
-2.09097e-06
1.26639e-06
-2.11813e-06
1.21316e-06
-2.13998e-06
1.15604e-06
-2.15702e-06
1.09597e-06
-2.16979e-06
1.03375e-06
-2.17881e-06
9.70111e-07
-2.18457e-06
9.05625e-07
-2.18752e-06
8.40776e-07
-2.18808e-06
7.75943e-07
-2.18662e-06
7.11408e-07
-2.18346e-06
6.47362e-07
-2.1789e-06
5.83926e-07
-2.17317e-06
5.21157e-07
-2.16647e-06
4.59045e-07
-2.15896e-06
3.97543e-07
-2.15079e-06
3.36556e-07
-2.14208e-06
2.75957e-07
-2.13294e-06
2.15593e-07
-2.12349e-06
1.55281e-07
-2.11383e-06
9.48186e-08
-2.10408e-06
3.3977e-08
-2.0944e-06
-2.74911e-08
-2.08492e-06
-8.98594e-08
-2.07584e-06
-1.53431e-07
-2.06735e-06
-2.18535e-07
-2.05969e-06
-2.85535e-07
-2.05309e-06
-3.54826e-07
-2.04784e-06
-4.26844e-07
-2.04419e-06
-5.0206e-07
-2.0424e-06
-5.80975e-07
-2.04269e-06
-6.64117e-07
-2.04522e-06
-7.52021e-07
-2.05004e-06
-8.45204e-07
-2.05706e-06
-9.44131e-07
-2.06595e-06
-1.04915e-06
-2.07611e-06
-1.16041e-06
-2.08653e-06
-1.27778e-06
-2.09571e-06
-1.40065e-06
-2.10145e-06
-1.52778e-06
-2.10073e-06
-1.65703e-06
-2.08944e-06
-1.78496e-06
-2.06231e-06
-1.90635e-06
-2.01323e-06
-2.01385e-06
-1.93376e-06
-2.09733e-06
-1.81576e-06
-2.14345e-06
-1.65425e-06
-2.13609e-06
-1.45117e-06
-2.05973e-06
-1.2161e-06
-1.90522e-06
-9.64315e-07
-1.6731e-06
-7.15906e-07
-1.37495e-06
-4.91845e-07
-1.03471e-06
-3.06041e-07
-6.85279e-07
-1.64708e-07
-3.57487e-07
-6.85551e-08
-7.79494e-08
-1.43011e-08
1.29325e-07
6.06997e-09
2.38192e-07
1.79657e-07
-4.78409e-08
-3.03908e-08
-1.2407e-07
7.42156e-08
-2.08457e-07
1.8546e-07
-2.97936e-07
2.93545e-07
-3.92872e-07
4.05168e-07
-4.94035e-07
5.22114e-07
-6.01877e-07
6.43677e-07
-7.16281e-07
7.67833e-07
-8.36259e-07
8.91895e-07
-9.5993e-07
1.01281e-06
-1.08485e-06
1.12745e-06
-1.20777e-06
1.23194e-06
-1.32557e-06
1.32249e-06
-1.43557e-06
1.39603e-06
-1.53588e-06
1.4507e-06
-1.62564e-06
1.48626e-06
-1.70489e-06
1.50389e-06
-1.7742e-06
1.50551e-06
-1.83435e-06
1.49335e-06
-1.88609e-06
1.46949e-06
-1.9301e-06
1.43577e-06
-1.967e-06
1.39381e-06
-1.99736e-06
1.34506e-06
-2.02178e-06
1.2908e-06
-2.04082e-06
1.2322e-06
-2.05507e-06
1.1703e-06
-2.06512e-06
1.10602e-06
-2.07154e-06
1.04018e-06
-2.07487e-06
9.73439e-07
-2.0756e-06
9.0635e-07
-2.07416e-06
8.39344e-07
-2.07096e-06
7.72743e-07
-2.06633e-06
7.06771e-07
-2.06053e-06
6.41567e-07
-2.05381e-06
5.772e-07
-2.04633e-06
5.13677e-07
-2.03823e-06
4.50954e-07
-2.02964e-06
3.88951e-07
-2.02064e-06
3.27552e-07
-2.01129e-06
2.66612e-07
-2.00167e-06
2.05973e-07
-1.99185e-06
1.45457e-07
-1.9819e-06
8.48653e-08
-1.97191e-06
2.39874e-08
-1.96199e-06
-3.7408e-08
-1.95228e-06
-9.95671e-08
-1.94295e-06
-1.62762e-07
-1.9342e-06
-2.2729e-07
-1.92625e-06
-2.93479e-07
-1.91938e-06
-3.61695e-07
-1.91389e-06
-4.32341e-07
-1.91008e-06
-5.05869e-07
-1.90828e-06
-5.82774e-07
-1.9088e-06
-6.63594e-07
-1.91192e-06
-7.48904e-07
-1.91783e-06
-8.39295e-07
-1.92661e-06
-9.35349e-07
-1.93817e-06
-1.03759e-06
-1.95216e-06
-1.14642e-06