/*--------------------------------*- C++ -*----------------------------------*\
  =========                 |
  \\      /  F ield         | OpenFOAM: The Open Source CFD Toolbox
   \\    /   O peration     | Website:  https://openfoam.org
    \\  /    A nd           | Version:  13
     \\/     M anipulation  |
\*---------------------------------------------------------------------------*/
FoamFile
{
    format      ascii;
    class       volVectorField;
    location    "3.3";
    object      U;
}
// * * * * * * * * * * * * * * * * * * * * * * * * * * * * * * * * * * * * * //

dimensions      [0 1 -1 0 0 0 0];

internalField   nonuniform List<vector> 
6400
(
(-5.98597e-05 3.54768e-05 0)
(0.000457609 -0.00015174 0)
(0.00173399 -0.000325073 0)
(0.00335803 -0.000396937 0)
(0.00497243 -0.000357205 0)
(0.00633228 -0.000256358 0)
(0.00728389 -0.000136328 0)
(0.00782626 -4.31245e-05 0)
(0.0080474 -3.65643e-08 0)
(0.00805832 -6.72627e-06 0)
(0.00799451 -4.07658e-05 0)
(0.00791198 -0.000100329 0)
(0.00787454 -0.000165784 0)
(0.00788899 -0.000227852 0)
(0.0079356 -0.000281997 0)
(0.00797478 -0.000325469 0)
(0.00796123 -0.000351508 0)
(0.00786803 -0.000358973 0)
(0.00763577 -0.000351799 0)
(0.00721185 -0.000329505 0)
(0.00656027 -0.000300065 0)
(0.00562982 -0.000268279 0)
(0.00439423 -0.000236871 0)
(0.00283681 -0.000219442 0)
(0.000930627 -0.000239212 0)
(-0.00129729 -0.000302334 0)
(-0.00386677 -0.000353052 0)
(-0.00690296 -0.000304075 0)
(-0.0104868 -7.72174e-05 0)
(-0.0146435 0.000370506 0)
(-0.0197106 0.000986745 0)
(-0.0255622 0.00161444 0)
(-0.0320059 0.00218015 0)
(-0.0389225 0.00267668 0)
(-0.0461387 0.00308477 0)
(-0.053502 0.00339493 0)
(-0.0608534 0.0036056 0)
(-0.0680598 0.0037225 0)
(-0.0749983 0.00375464 0)
(-0.0815697 0.00371243 0)
(-0.087686 0.00360624 0)
(-0.0932734 0.00344313 0)
(-0.0982669 0.00322826 0)
(-0.10261 0.0029625 0)
(-0.106255 0.00264501 0)
(-0.109171 0.00227914 0)
(-0.111342 0.00188041 0)
(-0.112491 0.00153046 0)
(-0.112902 0.00120597 0)
(-0.112512 0.000542415 0)
(-0.110947 8.41446e-05 0)
(-0.108534 -0.000520732 0)
(-0.105 -0.00107799 0)
(-0.100482 -0.00166708 0)
(-0.0948928 -0.00222885 0)
(-0.0883103 -0.00276838 0)
(-0.0807664 -0.00327022 0)
(-0.0723979 -0.00374931 0)
(-0.0632149 -0.00417213 0)
(-0.0534088 -0.00452009 0)
(-0.0431165 -0.00474717 0)
(-0.0325671 -0.00482655 0)
(-0.0220113 -0.00473825 0)
(-0.0117192 -0.00447123 0)
(-0.00196954 -0.0040246 0)
(0.0068629 -0.00342695 0)
(0.0144573 -0.00262106 0)
(0.020587 -0.0016987 0)
(0.0249882 -0.000691364 0)
(0.0276147 0.000324675 0)
(0.0279914 0.00134238 0)
(0.0268664 0.00184356 0)
(0.023911 0.00224649 0)
(0.019531 0.00229847 0)
(0.0146535 0.00196492 0)
(0.00988218 0.00137588 0)
(0.00577586 0.000780362 0)
(0.0026438 0.000333714 0)
(0.000678139 2.09388e-05 0)
(-0.000102979 -0.000192252 0)
(6.09614e-05 -0.000418451 0)
(0.00154845 -0.00171245 0)
(0.0041714 -0.00269577 0)
(0.0070761 -0.00301152 0)
(0.0097529 -0.00273609 0)
(0.0119063 -0.00213105 0)
(0.0134088 -0.00139654 0)
(0.0142804 -0.00072405 0)
(0.0146092 -0.000225047 0)
(0.0144926 7.83501e-05 0)
(0.0140713 0.000210549 0)
(0.0134247 0.000230989 0)
(0.012625 0.000198543 0)
(0.0116725 0.000175453 0)
(0.0105262 0.000204953 0)
(0.00912612 0.000304833 0)
(0.00741259 0.000472209 0)
(0.0053305 0.000708829 0)
(0.002792 0.00102889 0)
(-0.000279908 0.00144 0)
(-0.00396672 0.00194586 0)
(-0.00842683 0.00254626 0)
(-0.0137223 0.00321125 0)
(-0.019905 0.00393015 0)
(-0.0270204 0.00470768 0)
(-0.0351211 0.00558036 0)
(-0.0441726 0.00655614 0)
(-0.0540093 0.00760714 0)
(-0.0644122 0.00872973 0)
(-0.0750801 0.0098628 0)
(-0.0856192 0.0108435 0)
(-0.0959765 0.0116036 0)
(-0.106029 0.0121118 0)
(-0.115651 0.0123623 0)
(-0.124723 0.0123605 0)
(-0.133177 0.0121356 0)
(-0.140941 0.0117141 0)
(-0.147977 0.0111252 0)
(-0.154248 0.0103957 0)
(-0.159735 0.00954973 0)
(-0.164417 0.00860758 0)
(-0.168277 0.0075815 0)
(-0.171305 0.00648304 0)
(-0.173482 0.00532103 0)
(-0.174804 0.00410282 0)
(-0.175261 0.00283174 0)
(-0.174835 0.00151155 0)
(-0.17348 0.00015983 0)
(-0.171219 -0.0012432 0)
(-0.167994 -0.00275908 0)
(-0.163795 -0.00430339 0)
(-0.158648 -0.00589507 0)
(-0.1525 -0.00750758 0)
(-0.145375 -0.00912598 0)
(-0.137251 -0.0107239 0)
(-0.128155 -0.0122662 0)
(-0.118114 -0.013707 0)
(-0.107168 -0.015005 0)
(-0.0954425 -0.0161333 0)
(-0.0830716 -0.0170134 0)
(-0.0702438 -0.0175929 0)
(-0.0571371 -0.0178069 0)
(-0.0439839 -0.0176081 0)
(-0.0310425 -0.016957 0)
(-0.0185869 -0.0158266 0)
(-0.00689396 -0.0142208 0)
(0.00373409 -0.0121337 0)
(0.0130196 -0.00962707 0)
(0.0207392 -0.00678505 0)
(0.0266963 -0.00370948 0)
(0.0306933 -0.000609726 0)
(0.032708 0.00227803 0)
(0.0326167 0.00485758 0)
(0.0305147 0.00687196 0)
(0.0266759 0.0078558 0)
(0.0211967 0.00781083 0)
(0.0148325 0.00679501 0)
(0.00857347 0.00509019 0)
(0.00347005 0.00292455 0)
(0.000346003 0.000812017 0)
(0.000204567 -0.00147671 0)
(0.00253385 -0.00427549 0)
(0.00576747 -0.00582582 0)
(0.00880745 -0.00598016 0)
(0.0113093 -0.00517551 0)
(0.013129 -0.00387976 0)
(0.0142778 -0.00248693 0)
(0.0147927 -0.00121753 0)
(0.0147311 -0.000187123 0)
(0.0141523 0.000557339 0)
(0.0131462 0.00104072 0)
(0.0117584 0.00134939 0)
(0.0100021 0.00159165 0)
(0.00785097 0.00187143 0)
(0.00523464 0.00226527 0)
(0.0020873 0.00280067 0)
(-0.00169226 0.00349141 0)
(-0.00621512 0.00435422 0)
(-0.0115712 0.00540512 0)
(-0.0178446 0.00666121 0)
(-0.0250947 0.00812875 0)
(-0.0333093 0.0097612 0)
(-0.0424878 0.0115034 0)
(-0.0525609 0.0132986 0)
(-0.0633854 0.0150614 0)
(-0.07476 0.0167037 0)
(-0.0864325 0.0181678 0)
(-0.0981457 0.0194087 0)
(-0.109684 0.0203943 0)
(-0.120815 0.0210864 0)
(-0.131365 0.0214631 0)
(-0.141235 0.0215247 0)
(-0.15033 0.0212678 0)
(-0.158623 0.0207382 0)
(-0.16612 0.0199548 0)
(-0.172823 0.0189422 0)
(-0.178743 0.0177416 0)
(-0.183898 0.0163818 0)
(-0.188299 0.0148892 0)
(-0.191957 0.0132839 0)
(-0.194883 0.0115907 0)
(-0.197082 0.00981848 0)
(-0.198556 0.00797632 0)
(-0.199302 0.00606857 0)
(-0.199313 0.00409275 0)
(-0.198579 0.00204865 0)
(-0.197088 -6.27935e-05 0)
(-0.194806 -0.00224374 0)
(-0.19171 -0.00450684 0)
(-0.187783 -0.00684743 0)
(-0.182999 -0.00923583 0)
(-0.177338 -0.0116859 0)
(-0.170775 -0.0141667 0)
(-0.163302 -0.0166592 0)
(-0.154904 -0.0191255 0)
(-0.14559 -0.0215182 0)
(-0.135383 -0.0237788 0)
(-0.124334 -0.025842 0)
(-0.112518 -0.0276223 0)
(-0.100031 -0.029029 0)
(-0.0870346 -0.0299791 0)
(-0.0737063 -0.0303769 0)
(-0.0602527 -0.0301451 0)
(-0.046927 -0.0292232 0)
(-0.0339983 -0.0275806 0)
(-0.0217231 -0.0252126 0)
(-0.0103503 -0.0221317 0)
(-0.000136747 -0.0183941 0)
(0.00870132 -0.0141278 0)
(0.0159928 -0.00947675 0)
(0.021599 -0.0046565 0)
(0.0254621 0.000106484 0)
(0.0275401 0.00456168 0)
(0.0277072 0.00834515 0)
(0.0259167 0.0112603 0)
(0.0225309 0.0128188 0)
(0.017527 0.0128876 0)
(0.0115751 0.0113653 0)
(0.0055902 0.00821102 0)
(0.000779254 0.00353356 0)
(0.000350939 -0.00301306 0)
(0.00321167 -0.00738767 0)
(0.00647647 -0.00901035 0)
(0.00911754 -0.00858384 0)
(0.011023 -0.00704883 0)
(0.0121948 -0.00506323 0)
(0.0126969 -0.00302288 0)
(0.0125854 -0.00115788 0)
(0.0119022 0.000409635 0)
(0.0106823 0.00164067 0)
(0.0089191 0.00259147 0)
(0.00659234 0.00337599 0)
(0.00366354 0.00413168 0)
(7.64516e-05 0.00498491 0)
(-0.00422543 0.00601985 0)
(-0.00932863 0.00728938 0)
(-0.0153202 0.00881688 0)
(-0.0222809 0.010607 0)
(-0.0302655 0.0126553 0)
(-0.0392859 0.0149362 0)
(-0.0492944 0.0173948 0)
(-0.0601714 0.0199355 0)
(-0.0717369 0.0224327 0)
(-0.083753 0.0247742 0)
(-0.0959554 0.0268617 0)
(-0.108113 0.0286238 0)
(-0.119987 0.0299544 0)
(-0.131373 0.0307995 0)
(-0.14208 0.0311882 0)
(-0.151988 0.0311684 0)
(-0.161077 0.0307782 0)
(-0.169316 0.0300482 0)
(-0.176736 0.0290062 0)
(-0.183365 0.0276851 0)
(-0.189242 0.0261329 0)
(-0.194399 0.0243817 0)
(-0.19888 0.0224648 0)
(-0.202709 0.0204074 0)
(-0.205907 0.0182369 0)
(-0.208496 0.0159681 0)
(-0.210483 0.0136146 0)
(-0.211876 0.0111856 0)
(-0.212671 0.00868228 0)
(-0.212865 0.00610441 0)
(-0.212444 0.00344678 0)
(-0.211392 0.00070555 0)
(-0.209689 -0.00212333 0)
(-0.207304 -0.00504124 0)
(-0.204212 -0.00806007 0)
(-0.200388 -0.0111817 0)
(-0.195796 -0.0143909 0)
(-0.190408 -0.0176813 0)
(-0.184193 -0.0210275 0)
(-0.177128 -0.0244037 0)
(-0.169187 -0.0277643 0)
(-0.160356 -0.0310459 0)
(-0.150637 -0.0341691 0)
(-0.140056 -0.0370458 0)
(-0.128656 -0.0395674 0)
(-0.116508 -0.0416042 0)
(-0.103727 -0.0430222 0)
(-0.0904759 -0.0437052 0)
(-0.0769327 -0.0435229 0)
(-0.0633427 -0.0423901 0)
(-0.0499819 -0.0402533 0)
(-0.0371647 -0.0371538 0)
(-0.0251337 -0.0330966 0)
(-0.0141316 -0.0281603 0)
(-0.00438585 -0.0225066 0)
(0.00390733 -0.0163394 0)
(0.0106136 -0.00990756 0)
(0.0156718 -0.00347701 0)
(0.0190577 0.0026918 0)
(0.0207991 0.00825603 0)
(0.0208702 0.0128089 0)
(0.0191846 0.016025 0)
(0.0159332 0.0174855 0)
(0.0113753 0.0168699 0)
(0.00602212 0.0137402 0)
(0.000918763 0.00692672 0)
(0.000513864 -0.00487837 0)
(0.00356259 -0.0105879 0)
(0.00640392 -0.0118028 0)
(0.00835843 -0.0105625 0)
(0.00950713 -0.00822157 0)
(0.00990734 -0.00552618 0)
(0.0096511 -0.00285231 0)
(0.00878649 -0.000401233 0)
(0.00732465 0.00173339 0)
(0.00524829 0.00354906 0)
(0.00250944 0.00512239 0)
(-0.000956749 0.00658197 0)
(-0.00522055 0.00807608 0)
(-0.0103531 0.00973627 0)
(-0.0164197 0.0116563 0)
(-0.0234818 0.0138882 0)
(-0.0315846 0.0164441 0)
(-0.0407394 0.0192987 0)
(-0.0509048 0.0223953 0)
(-0.0619684 0.0256308 0)
(-0.073745 0.0288728 0)
(-0.0859848 0.0319687 0)
(-0.0984244 0.0347778 0)
(-0.110812 0.0371957 0)
(-0.1229 0.0390643 0)
(-0.134431 0.0403217 0)
(-0.145206 0.0409929 0)
(-0.155162 0.0411054 0)
(-0.16426 0.0407009 0)
(-0.172529 0.0398503 0)
(-0.179995 0.0386257 0)
(-0.186696 0.0370887 0)
(-0.192698 0.0352854 0)
(-0.198036 0.0332547 0)
(-0.202751 0.0310341 0)
(-0.206885 0.0286519 0)
(-0.21047 0.0261352 0)
(-0.213528 0.0235051 0)
(-0.216081 0.0207771 0)
(-0.218141 0.0179617 0)
(-0.219711 0.0150691 0)
(-0.220795 0.0121014 0)
(-0.221389 0.00905359 0)
(-0.221484 0.00591935 0)
(-0.221069 0.00268859 0)
(-0.220127 -0.000647798 0)
(-0.218632 -0.00409749 0)
(-0.216549 -0.00766445 0)
(-0.213852 -0.0113589 0)
(-0.210516 -0.0151887 0)
(-0.206502 -0.0191488 0)
(-0.201763 -0.0232239 0)
(-0.196262 -0.0273878 0)
(-0.189963 -0.0316148 0)
(-0.182828 -0.0358555 0)
(-0.174824 -0.0400368 0)
(-0.165916 -0.0440587 0)
(-0.156107 -0.0478148 0)
(-0.145409 -0.0511734 0)
(-0.133853 -0.0539613 0)
(-0.121516 -0.0560199 0)
(-0.10852 -0.0571734 0)
(-0.095025 -0.0572621 0)
(-0.0812413 -0.0561497 0)
(-0.0674047 -0.0537352 0)
(-0.0538626 -0.0500156 0)
(-0.040989 -0.045082 0)
(-0.0290135 -0.0390216 0)
(-0.0181973 -0.0320255 0)
(-0.00877182 -0.0243569 0)
(-0.000901286 -0.0163107 0)
(0.00532301 -0.00822423 0)
(0.00987903 -0.000420881 0)
(0.012809 0.00675556 0)
(0.0141668 0.0129379 0)
(0.0139735 0.0177059 0)
(0.0122795 0.0206 0)
(0.00922792 0.0211691 0)
(0.00511517 0.0185727 0)
(0.000738724 0.0101225 0)
(0.000682339 -0.00692805 0)
(0.00356997 -0.0134676 0)
(0.00567372 -0.0138498 0)
(0.00675195 -0.0117314 0)
(0.0070499 -0.00857233 0)
(0.00661359 -0.00518534 0)
(0.00553018 -0.00188208 0)
(0.00381753 0.0011827 0)
(0.00145039 0.00395445 0)
(-0.00162569 0.00646193 0)
(-0.00549005 0.0088007 0)
(-0.0102297 0.011108 0)
(-0.0159217 0.0135279 0)
(-0.0226298 0.0161813 0)
(-0.0303954 0.0191462 0)
(-0.0392315 0.0224503 0)
(-0.0491096 0.026065 0)
(-0.0599402 0.0299008 0)
(-0.0715617 0.0338398 0)
(-0.0837523 0.0377054 0)
(-0.0962401 0.0413254 0)
(-0.108749 0.044559 0)
(-0.121007 0.0471835 0)
(-0.132703 0.0491041 0)
(-0.143611 0.0502971 0)
(-0.153653 0.050762 0)
(-0.162834 0.0505701 0)
(-0.171189 0.0498168 0)
(-0.178761 0.048594 0)
(-0.185615 0.0469827 0)
(-0.191789 0.0450454 0)
(-0.197338 0.0428441 0)
(-0.202312 0.0404212 0)
(-0.206746 0.0378132 0)
(-0.210681 0.0350514 0)
(-0.214147 0.0321586 0)
(-0.217164 0.0291559 0)
(-0.219754 0.0260591 0)
(-0.221934 0.0228785 0)
(-0.223709 0.0196203 0)
(-0.22508 0.01629 0)
(-0.226049 0.0128829 0)
(-0.226616 0.00938746 0)
(-0.226772 0.00579359 0)
(-0.226511 0.00208609 0)
(-0.225823 -0.00175293 0)
(-0.224691 -0.00573929 0)
(-0.22309 -0.0098809 0)
(-0.220981 -0.0141805 0)
(-0.218316 -0.0186371 0)
(-0.215068 -0.0232595 0)
(-0.211187 -0.0280396 0)
(-0.206607 -0.0329396 0)
(-0.201278 -0.0379351 0)
(-0.19516 -0.0429893 0)
(-0.188236 -0.0480581 0)
(-0.180399 -0.0529978 0)
(-0.171618 -0.0576779 0)
(-0.161891 -0.0619634 0)
(-0.151181 -0.0656387 0)
(-0.139539 -0.0685093 0)
(-0.127024 -0.0703582 0)
(-0.113759 -0.070976 0)
(-0.099937 -0.0701547 0)
(-0.0857977 -0.067753 0)
(-0.0715781 -0.0636882 0)
(-0.0577239 -0.0580454 0)
(-0.0446253 -0.0509963 0)
(-0.0325497 -0.0427484 0)
(-0.0217899 -0.0336061 0)
(-0.0125704 -0.023943 0)
(-0.00503546 -0.0141727 0)
(0.000764016 -0.00470268 0)
(0.0048672 0.00407718 0)
(0.00737321 0.0117852 0)
(0.00838501 0.0180178 0)
(0.00798559 0.0223033 0)
(0.00625405 0.0240678 0)
(0.00357517 0.0222085 0)
(0.000400938 0.0125885 0)
(0.000813688 -0.00898737 0)
(0.00321656 -0.0156867 0)
(0.00433044 -0.0150347 0)
(0.00450514 -0.011958 0)
(0.00387237 -0.00803607 0)
(0.00255304 -0.00397999 0)
(0.000583413 -3.412e-05 0)
(-0.00205488 0.00369481 0)
(-0.00541884 0.00718889 0)
(-0.00958896 0.0105005 0)
(-0.0146559 0.0137326 0)
(-0.0207042 0.0170175 0)
(-0.0277974 0.0204811 0)
(-0.0359688 0.0242161 0)
(-0.0452106 0.0282625 0)
(-0.0554656 0.0325962 0)
(-0.0666135 0.0371356 0)
(-0.0784754 0.0417172 0)
(-0.0907845 0.046146 0)
(-0.103265 0.0502743 0)
(-0.115626 0.0538237 0)
(-0.127503 0.0566313 0)
(-0.138623 0.0585998 0)
(-0.148872 0.0596976 0)
(-0.158234 0.0599924 0)
(-0.16676 0.0595864 0)
(-0.174503 0.0585834 0)
(-0.181519 0.0570793 0)
(-0.187873 0.0551657 0)
(-0.193623 0.052917 0)
(-0.198814 0.0503959 0)
(-0.203492 0.0476539 0)
(-0.207691 0.0447278 0)
(-0.211444 0.0416506 0)
(-0.21478 0.0384483 0)
(-0.217722 0.0351398 0)
(-0.220288 0.0317444 0)
(-0.222488 0.0282804 0)
(-0.224327 0.0247588 0)
(-0.225831 0.0211435 0)
(-0.227032 0.0174281 0)
(-0.227901 0.0136428 0)
(-0.228438 0.00976818 0)
(-0.228634 0.00579408 0)
(-0.228479 0.00170545 0)
(-0.227958 -0.00251462 0)
(-0.227073 -0.00688586 0)
(-0.225821 -0.011431 0)
(-0.224189 -0.0161752 0)
(-0.222159 -0.021139 0)
(-0.219697 -0.0263365 0)
(-0.216782 -0.0317959 0)
(-0.21334 -0.0374308 0)
(-0.209279 -0.0432244 0)
(-0.204504 -0.0491171 0)
(-0.198897 -0.0550204 0)
(-0.192422 -0.0608592 0)
(-0.184939 -0.0664423 0)
(-0.176526 -0.0717334 0)
(-0.167029 -0.0764332 0)
(-0.15644 -0.0802967 0)
(-0.144783 -0.0830735 0)
(-0.132105 -0.0844663 0)
(-0.118543 -0.0842406 0)
(-0.104306 -0.0821812 0)
(-0.0896576 -0.0781338 0)
(-0.0749333 -0.0720764 0)
(-0.0606401 -0.0642213 0)
(-0.0472051 -0.0548518 0)
(-0.0349535 -0.044297 0)
(-0.0241938 -0.0330048 0)
(-0.0151518 -0.0214812 0)
(-0.00794483 -0.0102407 0)
(-0.00257313 0.000233318 0)
(0.00107339 0.00950743 0)
(0.00316435 0.0171757 0)
(0.00386623 0.0227856 0)
(0.00332765 0.0256945 0)
(0.00186823 0.0244806 0)
(4.5659e-05 0.0140131 0)
(0.000861009 -0.010847 0)
(0.00244735 -0.0170337 0)
(0.0025646 -0.0152361 0)
(0.00174315 -0.0112061 0)
(0.000166488 -0.00658041 0)
(-0.0020693 -0.00186652 0)
(-0.00496966 0.00275058 0)
(-0.00858579 0.00720509 0)
(-0.0129964 0.0115044 0)
(-0.0182905 0.0157114 0)
(-0.024552 0.0199251 0)
(-0.0318453 0.024257 0)
(-0.0402012 0.0287996 0)
(-0.0496042 0.0335997 0)
(-0.0599801 0.0386393 0)
(-0.0712069 0.0438432 0)
(-0.0830777 0.0490446 0)
(-0.0953017 0.0540451 0)
(-0.107616 0.058601 0)
(-0.119644 0.0624663 0)
(-0.131023 0.0654532 0)
(-0.141572 0.0674655 0)
(-0.151241 0.0685333 0)
(-0.160042 0.0687421 0)
(-0.168025 0.0682099 0)
(-0.17526 0.0670425 0)
(-0.18181 0.0653437 0)
(-0.187742 0.0632076 0)
(-0.193114 0.0607176 0)
(-0.197971 0.0579392 0)
(-0.202353 0.0549289 0)
(-0.206293 0.0517314 0)
(-0.209817 0.0483808 0)
(-0.212952 0.044907 0)
(-0.215716 0.0413358 0)
(-0.218123 0.0376891 0)
(-0.220214 0.0339542 0)
(-0.222014 0.0301401 0)
(-0.223532 0.0262512 0)
(-0.22477 0.0223185 0)
(-0.225711 0.0183369 0)
(-0.226378 0.0142617 0)
(-0.226769 0.0100917 0)
(-0.226891 0.0058104 0)
(-0.226746 0.00140328 0)
(-0.226337 -0.00314407 0)
(-0.225661 -0.0078494 0)
(-0.22471 -0.0127371 0)
(-0.22347 -0.0178271 0)
(-0.221925 -0.023135 0)
(-0.220049 -0.0286676 0)
(-0.217805 -0.0344201 0)
(-0.215175 -0.0404856 0)
(-0.212119 -0.046825 0)
(-0.208582 -0.0534064 0)
(-0.20449 -0.0601778 0)
(-0.199765 -0.0670706 0)
(-0.19421 -0.0737985 0)
(-0.187525 -0.0801229 0)
(-0.179707 -0.0859137 0)
(-0.170647 -0.0908969 0)
(-0.160367 -0.0948351 0)
(-0.148796 -0.0973233 0)
(-0.136014 -0.0980586 0)
(-0.122149 -0.096728 0)
(-0.107426 -0.0931153 0)
(-0.0921579 -0.0870826 0)
(-0.0768101 -0.0787325 0)
(-0.0619779 -0.0684228 0)
(-0.0481539 -0.0565845 0)
(-0.0357042 -0.0436929 0)
(-0.0249616 -0.0303548 0)
(-0.0161439 -0.0172082 0)
(-0.00932854 -0.00486921 0)
(-0.00444358 0.00611861 0)
(-0.00129413 0.0152889 0)
(0.000379774 0.022194 0)
(0.000869162 0.02617 0)
(0.000479424 0.0255414 0)
(-0.000172682 0.0144894 0)
(0.000804551 -0.0123192 0)
(0.0013854 -0.0173805 0)
(0.000440279 -0.0143609 0)
(-0.00137656 -0.00949511 0)
(-0.00389568 -0.00419159 0)
(-0.00706413 0.00118387 0)
(-0.010917 0.0065066 0)
(-0.0155276 0.011742 0)
(-0.0209828 0.0169094 0)
(-0.0273641 0.0220677 0)
(-0.0347344 0.027297 0)
(-0.0431242 0.0326746 0)
(-0.0525179 0.0382453 0)
(-0.0628379 0.0439969 0)
(-0.0739653 0.0498588 0)
(-0.0856872 0.0556679 0)
(-0.097709 0.0612159 0)
(-0.109713 0.0662131 0)
(-0.12133 0.0704101 0)
(-0.132224 0.0736 0)
(-0.142282 0.075733 0)
(-0.151464 0.0768552 0)
(-0.159786 0.0770677 0)
(-0.167309 0.0764776 0)
(-0.174105 0.0752128 0)
(-0.180244 0.0733794 0)
(-0.18579 0.0710799 0)
(-0.190799 0.0683991 0)
(-0.195317 0.0654101 0)
(-0.19938 0.0621708 0)
(-0.20302 0.0587311 0)
(-0.206266 0.0551302 0)
(-0.209142 0.0513996 0)
(-0.211673 0.0475655 0)
(-0.21388 0.0436468 0)
(-0.21579 0.0396561 0)
(-0.217403 0.0356248 0)
(-0.218724 0.0315501 0)
(-0.219776 0.0274221 0)
(-0.220572 0.0232386 0)
(-0.221124 0.0189902 0)
(-0.221457 0.0146664 0)
(-0.221582 0.0102592 0)
(-0.221512 0.0057522 0)
(-0.221259 0.00112725 0)
(-0.220834 -0.00363718 0)
(-0.22023 -0.0085651 0)
(-0.219447 -0.0136847 0)
(-0.218481 -0.0190239 0)
(-0.217329 -0.0246095 0)
(-0.215977 -0.0304635 0)
(-0.214402 -0.0366001 0)
(-0.212581 -0.0430264 0)
(-0.210473 -0.0497333 0)
(-0.20802 -0.0566981 0)
(-0.205146 -0.0638688 0)
(-0.20175 -0.0711814 0)
(-0.197793 -0.0787159 0)
(-0.193128 -0.08622 0)
(-0.187588 -0.0934367 0)
(-0.180773 -0.0998297 0)
(-0.17244 -0.105088 0)
(-0.162605 -0.108935 0)
(-0.151241 -0.111003 0)
(-0.138392 -0.11087 0)
(-0.124194 -0.108189 0)
(-0.10891 -0.10272 0)
(-0.0929246 -0.0944081 0)
(-0.0768459 -0.0834948 0)
(-0.0614104 -0.0705395 0)
(-0.0471825 -0.056159 0)
(-0.0345745 -0.0409938 0)
(-0.0239339 -0.025819 0)
(-0.0154546 -0.0114101 0)
(-0.00914847 0.00152288 0)
(-0.00484454 0.0123888 0)
(-0.0022181 0.0206816 0)
(-0.00088067 0.0256105 0)
(-0.000377524 0.0255752 0)
(-0.000197939 0.0143702 0)
(0.000667611 -0.0130409 0)
(0.000116157 -0.016625 0)
(-0.00191175 -0.0124381 0)
(-0.00469413 -0.00681864 0)
(-0.00814951 -0.00086356 0)
(-0.0122489 0.00517902 0)
(-0.0170465 0.0112353 0)
(-0.022627 0.0172883 0)
(-0.0290724 0.0233543 0)
(-0.036445 0.0294735 0)
(-0.0447756 0.0356938 0)
(-0.0540519 0.0420463 0)
(-0.064203 0.048518 0)
(-0.0751139 0.0550458 0)
(-0.0865743 0.0614715 0)
(-0.0983081 0.0675676 0)
(-0.109953 0.0730325 0)
(-0.121136 0.0775983 0)
(-0.131616 0.0810753 0)
(-0.141252 0.0834168 0)
(-0.150017 0.0846824 0)
(-0.157928 0.0849592 0)
(-0.16505 0.0843808 0)
(-0.171457 0.0830738 0)
(-0.17722 0.0811606 0)
(-0.182398 0.0787428 0)
(-0.187047 0.0759127 0)
(-0.191208 0.0727457 0)
(-0.194918 0.0693067 0)
(-0.198207 0.065649 0)
(-0.201104 0.0618184 0)
(-0.203634 0.0578522 0)
(-0.205821 0.0537807 0)
(-0.207688 0.049629 0)
(-0.209255 0.0454157 0)
(-0.210545 0.0411531 0)
(-0.211574 0.0368516 0)
(-0.212363 0.0325128 0)
(-0.212933 0.0281383 0)
(-0.213304 0.0237276 0)
(-0.213492 0.0192737 0)
(-0.213515 0.014765 0)
(-0.213389 0.0101885 0)
(-0.213126 0.00552627 0)
(-0.212738 0.000757039 0)
(-0.212235 -0.0041437 0)
(-0.211624 -0.00920336 0)
(-0.210914 -0.0144499 0)
(-0.210112 -0.0199131 0)
(-0.20922 -0.0256233 0)
(-0.208238 -0.0316095 0)
(-0.207157 -0.0378994 0)
(-0.205964 -0.0445182 0)
(-0.204636 -0.0514773 0)
(-0.203134 -0.0587763 0)
(-0.201398 -0.06639 0)
(-0.199342 -0.074259 0)
(-0.196872 -0.082284 0)
(-0.193849 -0.0903227 0)
(-0.190091 -0.098255 0)
(-0.185497 -0.106007 0)
(-0.17978 -0.113092 0)
(-0.172423 -0.118688 0)
(-0.163143 -0.122372 0)
(-0.152052 -0.123889 0)
(-0.139117 -0.122699 0)
(-0.12451 -0.118409 0)
(-0.108558 -0.110807 0)
(-0.0917571 -0.0999344 0)
(-0.0748749 -0.0862196 0)
(-0.0588153 -0.070486 0)
(-0.0442342 -0.0535689 0)
(-0.0315817 -0.0362932 0)
(-0.0212032 -0.0196198 0)
(-0.0132366 -0.00446673 0)
(-0.00758961 0.00838493 0)
(-0.00393355 0.0182758 0)
(-0.00183997 0.0242622 0)
(-0.000701903 0.0249216 0)
(-0.000109094 0.0140013 0)
(0.000412875 -0.0131197 0)
(-0.00130692 -0.0147787 0)
(-0.00436115 -0.00950671 0)
(-0.00807605 -0.00319142 0)
(-0.0124461 0.00338871 0)
(-0.0174479 0.0100984 0)
(-0.0231489 0.0169009 0)
(-0.0296343 0.0237811 0)
(-0.0369708 0.0307377 0)
(-0.0451923 0.0377791 0)
(-0.0542915 0.0449098 0)
(-0.0642074 0.0521064 0)
(-0.074835 0.0593081 0)
(-0.0859743 0.0663602 0)
(-0.0973584 0.0730305 0)
(-0.108631 0.0790093 0)
(-0.119429 0.0840065 0)
(-0.129541 0.0878602 0)
(-0.138826 0.0905093 0)
(-0.14723 0.0919873 0)
(-0.154792 0.0924074 0)
(-0.161565 0.0919008 0)
(-0.167626 0.0906106 0)
(-0.173041 0.0886616 0)
(-0.177872 0.0861659 0)
(-0.182166 0.0832172 0)
(-0.185967 0.0798986 0)
(-0.189311 0.0762786 0)
(-0.192229 0.0724176 0)
(-0.194752 0.0683664 0)
(-0.196906 0.0641685 0)
(-0.198721 0.0598598 0)
(-0.200222 0.0554704 0)
(-0.201435 0.0510244 0)
(-0.202386 0.0465394 0)
(-0.2031 0.042027 0)
(-0.203599 0.0374966 0)
(-0.203907 0.0329521 0)
(-0.204045 0.0283942 0)
(-0.204032 0.0238194 0)
(-0.203884 0.0192191 0)
(-0.203619 0.0145804 0)
(-0.203251 0.00988799 0)
(-0.202793 0.00512311 0)
(-0.20226 0.000263402 0)
(-0.201665 -0.00471747 0)
(-0.201019 -0.00984455 0)
(-0.200335 -0.0151483 0)
(-0.199626 -0.02066 0)
(-0.1989 -0.0264121 0)
(-0.198165 -0.0324376 0)
(-0.197424 -0.0387691 0)
(-0.196675 -0.0454376 0)
(-0.19591 -0.0524667 0)
(-0.195109 -0.0598715 0)
(-0.194233 -0.0676533 0)
(-0.193225 -0.0757952 0)
(-0.192003 -0.084251 0)
(-0.190449 -0.0929134 0)
(-0.188403 -0.101614 0)
(-0.185673 -0.110114 0)
(-0.181998 -0.118112 0)
(-0.177177 -0.125527 0)
(-0.170779 -0.131505 0)
(-0.162102 -0.135002 0)
(-0.151251 -0.13584 0)
(-0.138148 -0.133389 0)
(-0.123006 -0.127216 0)
(-0.106263 -0.117192 0)
(-0.0885574 -0.103478 0)
(-0.0708491 -0.0867576 0)
(-0.0542277 -0.0681821 0)
(-0.0394375 -0.0488237 0)
(-0.0269507 -0.0297333 0)
(-0.0170782 -0.0120861 0)
(-0.009856 0.00309225 0)
(-0.00501788 0.0149283 0)
(-0.0021622 0.0222967 0)
(-0.000593079 0.0238817 0)
(7.61073e-05 0.01363 0)
(6.56757e-05 -0.0122564 0)
(-0.0028119 -0.0118515 0)
(-0.00680865 -0.00559392 0)
(-0.0114078 0.00134899 0)
(-0.0166457 0.00852489 0)
(-0.0224947 0.0158914 0)
(-0.0290262 0.0234318 0)
(-0.0363171 0.0311182 0)
(-0.0444109 0.0389184 0)
(-0.0533085 0.0467985 0)
(-0.0629602 0.0547119 0)
(-0.0732734 0.0625905 0)
(-0.0840651 0.0702796 0)
(-0.0950821 0.0775512 0)
(-0.10599 0.0840956 0)
(-0.116452 0.0896123 0)
(-0.12625 0.0939291 0)
(-0.135238 0.0969724 0)
(-0.143352 0.0987545 0)
(-0.150616 0.0993905 0)
(-0.157094 0.0990258 0)
(-0.16285 0.0978057 0)
(-0.167954 0.0958684 0)
(-0.172463 0.0933306 0)
(-0.176425 0.0902947 0)
(-0.179883 0.0868478 0)
(-0.182872 0.0830667 0)
(-0.185429 0.0790175 0)
(-0.187586 0.0747582 0)
(-0.189375 0.0703383 0)
(-0.190829 0.0658011 0)
(-0.19198 0.0611824 0)
(-0.192857 0.0565118 0)
(-0.193489 0.0518116 0)
(-0.193905 0.0470976 0)
(-0.194129 0.0423823 0)
(-0.194187 0.0376732 0)
(-0.194099 0.0329722 0)
(-0.193885 0.0282775 0)
(-0.193562 0.0235832 0)
(-0.193145 0.0188791 0)
(-0.192648 0.0141519 0)
(-0.192087 0.00938528 0)
(-0.191474 0.00455995 0)
(-0.190824 -0.000346306 0)
(-0.19015 -0.00535901 0)
(-0.189464 -0.0105042 0)
(-0.188783 -0.0158122 0)
(-0.188122 -0.0213153 0)
(-0.187494 -0.0270472 0)
(-0.186913 -0.0330433 0)
(-0.18639 -0.0393398 0)
(-0.185933 -0.0459719 0)
(-0.185544 -0.0529712 0)
(-0.185217 -0.0603633 0)
(-0.184933 -0.0681641 0)
(-0.184659 -0.0763761 0)
(-0.18434 -0.0849801 0)
(-0.183889 -0.0939227 0)
(-0.183182 -0.103108 0)
(-0.182046 -0.11237 0)
(-0.180245 -0.121429 0)
(-0.1775 -0.129897 0)
(-0.17345 -0.137394 0)
(-0.16775 -0.143471 0)
(-0.159616 -0.146741 0)
(-0.14888 -0.146766 0)
(-0.135463 -0.142801 0)
(-0.11963 -0.134443 0)
(-0.10197 -0.121665 0)
(-0.0833001 -0.104817 0)
(-0.0648324 -0.0849329 0)
(-0.0478296 -0.063535 0)
(-0.0330988 -0.0419539 0)
(-0.0211106 -0.0215613 0)
(-0.0120866 -0.0036862 0)
(-0.00587795 0.0105264 0)
(-0.00216823 0.0197738 0)
(-0.000237064 0.0227069 0)
(0.000297348 0.0135276 0)
(-0.000320491 -0.0105197 0)
(-0.00428919 -0.00789633 0)
(-0.00915855 -0.000764271 0)
(-0.0145805 0.00674345 0)
(-0.0206206 0.014481 0)
(-0.0272376 0.0224797 0)
(-0.034501 0.030727 0)
(-0.0424723 0.0391689 0)
(-0.0511677 0.0477314 0)
(-0.060552 0.05633 0)
(-0.0705463 0.0648755 0)
(-0.080987 0.0732061 0)
(-0.0916445 0.081103 0)
(-0.102215 0.0882618 0)
(-0.112383 0.0943765 0)
(-0.121922 0.0992485 0)
(-0.130669 0.102774 0)
(-0.138555 0.104955 0)
(-0.145585 0.105892 0)
(-0.151817 0.105738 0)
(-0.157319 0.10465 0)
(-0.162154 0.102772 0)
(-0.166381 0.100233 0)
(-0.170046 0.0971422 0)
(-0.173193 0.0935948 0)
(-0.175862 0.0896746 0)
(-0.17809 0.0854563 0)
(-0.179916 0.0810047 0)
(-0.181376 0.0763775 0)
(-0.182507 0.0716245 0)
(-0.183347 0.0667884 0)
(-0.183929 0.0619036 0)
(-0.184285 0.0569971 0)
(-0.184444 0.0520893 0)
(-0.184435 0.0471952 0)
(-0.184281 0.0423247 0)
(-0.184004 0.0374818 0)
(-0.183623 0.0326663 0)
(-0.183153 0.027874 0)
(-0.182609 0.0230971 0)
(-0.182004 0.0183243 0)
(-0.181348 0.0135417 0)
(-0.180655 0.00873245 0)
(-0.179936 0.0038773 0)
(-0.179204 -0.00104519 0)
(-0.178471 -0.00605774 0)
(-0.177752 -0.011189 0)
(-0.177061 -0.0164676 0)
(-0.176417 -0.0219251 0)
(-0.175835 -0.0275955 0)
(-0.175334 -0.033515 0)
(-0.174931 -0.0397217 0)
(-0.174641 -0.0462539 0)
(-0.174476 -0.0531494 0)
(-0.174441 -0.0604425 0)
(-0.174534 -0.0681616 0)
(-0.174738 -0.0763249 0)
(-0.17502 -0.0849337 0)
(-0.175321 -0.0939639 0)
(-0.175551 -0.103358 0)
(-0.17558 -0.113008 0)
(-0.175216 -0.122736 0)
(-0.174204 -0.132266 0)
(-0.172217 -0.141153 0)
(-0.168848 -0.148825 0)
(-0.163613 -0.154735 0)
(-0.155802 -0.157617 0)
(-0.144987 -0.156588 0)
(-0.131053 -0.150796 0)
(-0.114359 -0.139879 0)
(-0.0956643 -0.123948 0)
(-0.0760436 -0.103667 0)
(-0.0570218 -0.0805156 0)
(-0.0399585 -0.0564295 0)
(-0.0257143 -0.0330829 0)
(-0.0146991 -0.0121369 0)
(-0.00694228 0.00493019 0)
(-0.00222995 0.0166322 0)
(0.000114757 0.021436 0)
(0.000469098 0.0137124 0)
(-0.00071492 -0.00790719 0)
(-0.00568263 -0.00301196 0)
(-0.0113367 0.00490415 0)
(-0.0175029 0.0129165 0)
(-0.0242605 0.021174 0)
(-0.0315473 0.0297639 0)
(-0.0394251 0.0386648 0)
(-0.0479359 0.0477842 0)
(-0.0570666 0.0569959 0)
(-0.0667544 0.0661754 0)
(-0.0768562 0.0751418 0)
(-0.0871749 0.0836779 0)
(-0.0974398 0.0914907 0)
(-0.107353 0.0982665 0)
(-0.116685 0.103779 0)
(-0.125252 0.107882 0)
(-0.13297 0.110557 0)
(-0.139829 0.111888 0)
(-0.145876 0.112024 0)
(-0.151177 0.111134 0)
(-0.155796 0.109372 0)
(-0.159788 0.106877 0)
(-0.163204 0.10377 0)
(-0.166089 0.100153 0)
(-0.168484 0.0961216 0)
(-0.170433 0.0917571 0)
(-0.171976 0.0871337 0)
(-0.173157 0.0823168 0)
(-0.174018 0.0773642 0)
(-0.174599 0.0723246 0)
(-0.174938 0.0672378 0)
(-0.17507 0.0621358 0)
(-0.175026 0.057043 0)
(-0.174835 0.051977 0)
(-0.174521 0.0469494 0)
(-0.174105 0.0419666 0)
(-0.173603 0.0370294 0)
(-0.173032 0.0321352 0)
(-0.172402 0.0272776 0)
(-0.171725 0.0224471 0)
(-0.171008 0.0176316 0)
(-0.170262 0.0128168 0)
(-0.169495 0.00798601 0)
(-0.168716 0.00312049 0)
(-0.167936 -0.00180022 0)
(-0.167166 -0.0067984 0)
(-0.16642 -0.0119 0)
(-0.165713 -0.0171324 0)
(-0.165062 -0.0225258 0)
(-0.164487 -0.0281131 0)
(-0.164008 -0.0339299 0)
(-0.163646 -0.0400145 0)
(-0.163424 -0.0464071 0)
(-0.163361 -0.0531489 0)
(-0.163472 -0.0602809 0)
(-0.163767 -0.0678411 0)
(-0.164244 -0.0758613 0)
(-0.164889 -0.0843617 0)
(-0.165667 -0.0933442 0)
(-0.166513 -0.102783 0)
(-0.167331 -0.11261 0)
(-0.167976 -0.122705 0)
(-0.168243 -0.132867 0)
(-0.167845 -0.142785 0)
(-0.166413 -0.151984 0)
(-0.163492 -0.159792 0)
(-0.158512 -0.165397 0)
(-0.150749 -0.167616 0)
(-0.139601 -0.165206 0)
(-0.124918 -0.157173 0)
(-0.107179 -0.143206 0)
(-0.0873904 -0.123652 0)
(-0.0669792 -0.0996325 0)
(-0.0477386 -0.0732047 0)
(-0.0311356 -0.0468045 0)
(-0.0179738 -0.022437 0)
(-0.00850074 -0.00201697 0)
(-0.00261307 0.0127533 0)
(0.000284867 0.0199883 0)
(0.000617453 0.0141481 0)
(-0.00111027 -0.00446712 0)
(-0.00694297 0.00273024 0)
(-0.0132773 0.0113261 0)
(-0.020101 0.0197792 0)
(-0.0274764 0.0285042 0)
(-0.03532 0.0376283 0)
(-0.0436822 0.0471082 0)
(-0.0525853 0.0568 0)
(-0.0619922 0.0665416 0)
(-0.0717819 0.0761146 0)
(-0.0817867 0.0852836 0)
(-0.0917726 0.093775 0)
(-0.101466 0.101258 0)
(-0.110634 0.107483 0)
(-0.11908 0.112259 0)
(-0.126692 0.115527 0)
(-0.133445 0.11735 0)
(-0.139372 0.117866 0)
(-0.144533 0.117248 0)
(-0.148993 0.115667 0)
(-0.152808 0.11327 0)
(-0.156031 0.110191 0)
(-0.158709 0.106544 0)
(-0.160887 0.102433 0)
(-0.162613 0.0979507 0)
(-0.163931 0.0931796 0)
(-0.16489 0.0881941 0)
(-0.165537 0.08306 0)
(-0.165916 0.0778329 0)
(-0.166068 0.0725582 0)
(-0.166031 0.0672727 0)
(-0.165838 0.0620047 0)
(-0.165518 0.0567746 0)
(-0.165095 0.0515959 0)
(-0.16459 0.0464761 0)
(-0.164019 0.041418 0)
(-0.163393 0.0364193 0)
(-0.162724 0.0314746 0)
(-0.162018 0.0265758 0)
(-0.161283 0.0217118 0)
(-0.160523 0.0168702 0)
(-0.159744 0.0120364 0)
(-0.158951 0.00719427 0)
(-0.158151 0.00232613 0)
(-0.157352 -0.00258718 0)
(-0.156564 -0.00756649 0)
(-0.155799 -0.012635 0)
(-0.155071 -0.017818 0)
(-0.154399 -0.0231432 0)
(-0.153801 -0.0286413 0)
(-0.1533 -0.0343463 0)
(-0.152922 -0.0402952 0)
(-0.152692 -0.0465284 0)
(-0.152635 -0.0530891 0)
(-0.152777 -0.0600221 0)