/*--------------------------------*- C++ -*----------------------------------*\
  =========                 |
  \\      /  F ield         | OpenFOAM: The Open Source CFD Toolbox
   \\    /   O peration     | Website:  https://openfoam.org
    \\  /    A nd           | Version:  13
     \\/     M anipulation  |
\*---------------------------------------------------------------------------*/
FoamFile
{
    format      ascii;
    class       volScalarField;
    location    "1";
    object      p;
}
// * * * * * * * * * * * * * * * * * * * * * * * * * * * * * * * * * * * * * //

dimensions      [0 2 -2 0 0 0 0];

internalField   nonuniform List<scalar> 
1600
(
-5.61706e-09
-4.69111e-06
-9.97129e-06
-1.23527e-05
-1.02622e-05
-2.80101e-06
1.05245e-05
3.00299e-05
5.59705e-05
8.86031e-05
0.00012822
0.000175172
0.000229877
0.00029284
0.000364651
0.000445993
0.000537633
0.000640412
0.000755216
0.000882933
0.00102441
0.00118034
0.00135106
0.00153612
0.00173482
0.00194716
0.00216991
0.00239776
0.00262638
0.00284895
0.00305778
0.00324493
0.00340287
0.00352553
0.00360973
0.00365616
0.00366965
0.00365922
0.00363751
0.00361996
4.64089e-06
1.476e-08
-3.76632e-06
-4.26374e-06
-2.47611e-07
8.83055e-06
2.34216e-05
4.38897e-05
7.05413e-05
0.000103671
0.000143594
0.00019067
0.000245317
0.000308022
0.00037935
0.000459946
0.000550531
0.000651894
0.000764865
0.000890283
0.00102894
0.00118148
0.00134823
0.00152902
0.00172345
0.00193072
0.00214748
0.00237031
0.0025943
0.00281298
0.00301899
0.0032045
0.00336222
0.00348647
0.00357421
0.0036258
0.00364533
0.00364028
0.00362218
0.0036035
1.01261e-05
3.70363e-06
-3.75794e-07
7.91177e-07
7.33571e-06
1.87875e-05
3.53097e-05
5.7251e-05
8.4956e-05
0.000118759
0.000159006
0.000206066
0.000260354
0.000322339
0.000392552
0.000471596
0.000560141
0.000658921
0.000768716
0.000890324
0.00102452
0.00117196
0.00133309
0.00150798
0.00169637
0.00189722
0.00210827
0.00232606
0.00254606
0.00276225
0.00296752
0.00315418
0.00331502
0.00344422
0.00353837
0.00359724
0.00362361
0.00362229
0.00360326
0.00358058
1.18252e-05
2.93491e-06
-3.75851e-06
-3.16176e-06
4.31801e-06
1.71006e-05
3.48497e-05
5.77366e-05
8.60363e-05
0.000120055
0.000160125
0.000206606
0.000259898
0.000320452
0.000388776
0.000465449
0.00055112
0.000646513
0.000752419
0.000869676
0.000999136
0.0011416
0.00129772
0.00146789
0.00165209
0.00184957
0.0020586
0.00227616
0.002498
0.00271823
0.0029294
0.00312322
0.00329159
0.00342773
0.0035273
0.00358932
0.00361567
0.00361008
0.00358373
0.00355535
6.84902e-06
-4.81423e-06
-1.5451e-05
-1.7346e-05
-1.08176e-05
1.72485e-06
1.94344e-05
4.22228e-05
7.02166e-05
0.000103632
0.000142745
0.000187879
0.000239405
0.000297752
0.000363413
0.000436961
0.000519059
0.000610465
0.000712037
0.000824724
0.000949545
0.00108753
0.00123965
0.00140668
0.00158904
0.00178647
0.00199768
0.00222019
0.00244994
0.00268088
0.00290472
0.00311155
0.0032913
0.00343544
0.00353819
0.00359785
0.0036166
0.00359964
0.00356189
0.0035268
-6.80511e-06
-2.1015e-05
-3.57005e-05
-4.08582e-05
-3.64169e-05
-2.52887e-05
-8.71763e-06
1.29659e-05
3.97269e-05
7.16687e-05
0.000108987
0.00015195
0.000200889
0.000256203
0.000318376
0.000387985
0.000465718
0.000552394
0.000648969
0.000756546
0.00087636
0.00100974
0.00115806
0.00132257
0.00150428
0.0017036
0.0019199
0.00215131
0.00239402
0.00264158
0.00288461
0.00311056
0.00330594
0.00345941
0.00356318
0.00361492
0.00361884
0.00358458
0.00353292
0.00349099
-3.02328e-05
-4.65734e-05
-6.48991e-05
-7.34427e-05
-7.16513e-05
-6.26899e-05
-4.80757e-05
-2.83324e-05
-3.64038e-06
2.5992e-05
6.06763e-05
0.000100616
0.000146094
0.00019748
0.000255236
0.000319943
0.000392319
0.000473244
0.000563783
0.000665205
0.000778992
0.000906825
0.00105054
0.00121201
0.00139302
0.00159489
0.00181804
0.00206148
0.00232185
0.0025923
0.00286212
0.00311515
0.00333245
0.00349799
0.00360107
0.0036384
0.00361821
0.00355863
0.00348963
0.00344107
-6.38608e-05
-8.18773e-05
-0.000103304
-0.000115092
-0.000116207
-0.000109902
-9.78649e-05
-8.07609e-05
-5.88889e-05
-3.23576e-05
-1.13812e-06
3.49049e-05
7.59999e-05
0.000122472
0.000174757
0.000233423
0.0002992
0.000373015
0.000456026
0.000549662
0.000655653
0.00077606
0.000913265
0.00106992
0.00124881
0.00145253
0.00168297
0.00194067
0.0022231
0.00252329
0.00282896
0.00311963
0.00336823
0.00355141
0.0036536
0.00366908
0.00361134
0.00351373
0.00342186
0.0033671
-0.000107624
-0.000126907
-0.000150884
-0.00016567
-0.000169777
-0.000166446
-0.000157459
-0.000143578
-0.000125196
-0.000102509
-7.5567e-05
-4.43078e-05
-8.56808e-06
3.19191e-05
7.75395e-05
0.000128824
0.000186482
0.000251447
0.000324929
0.000408476
0.000504047
0.000614082
0.000741574
0.000890084
0.00106366
0.00126658
0.0015028
0.00177497
0.00208209
0.00241782
0.00276858
0.00310889
0.00340123
0.00361131
0.00371477
0.00370208
0.00359263
0.0034395
0.00331511
0.00325495
-0.00016111
-0.00018134
-0.00020736
-0.000224858
-0.000231947
-0.000231791
-0.000226214
-0.000216044
-0.000201745
-0.000183592
-0.000161715
-0.000136131
-0.000106755
-7.34024e-05
-3.57682e-05
6.59865e-06
5.43356e-05
0.00010832
0.000169741
0.000240192
0.000321789
0.000417314
0.000530368
0.000665486
0.000828139
0.00102457
0.00126135
0.00154348
0.00187241
0.0022439
0.00264431
0.00304351
0.00339307
0.00364167
0.0037515
0.0037096
0.00354061
0.00331936
0.00314477
0.00309116
-0.000223713
-0.000244618
-0.000272245
-0.000292171
-0.000302181
-0.000305325
-0.000303435
-0.000297381
-0.000287688
-0.000274705
-0.000258644
-0.000239611
-0.000217624
-0.000192608
-0.000164381
-0.000132628
-9.68561e-05
-5.63319e-05
-9.9932e-06
4.36779e-05
0.000106827
0.000182449
0.000274626
0.000388735
0.000531525
0.000711113
0.000936571
0.00121462
0.00154936
0.00194221
0.00238084
0.00283135
0.00323732
0.00352976
0.00366217
0.00361594
0.00340402
0.00312513
0.00290335
0.00286648
-0.000294686
-0.000316017
-0.000344883
-0.000366972
-0.00037982
-0.000386338
-0.000388346
-0.000386744
-0.000382113
-0.000374872
-0.000365325
-0.000353684
-0.000340093
-0.000324625
-0.000307272
-0.000287923
-0.000266319
-0.000241985
-0.000214128
-0.000181476
-0.000142066
-9.2956e-05
-2.99307e-05
5.27325e-05
0.000162404
0.000308203
0.000499559
0.000743018
0.00104227
0.00140927
0.00182827
0.00226304
0.00266433
0.00299023
0.00322086
0.00327839
0.00312203
0.00285003
0.00262403
0.00260675
-0.000373162
-0.000394698
-0.000424488
-0.0004485
-0.000464088
-0.000474017
-0.00048008
-0.000483199
-0.00048401
-0.000483009
-0.000480601
-0.000477123
-0.000472873
-0.000468114
-0.00046307
-0.000457909
-0.000452709
-0.000447387
-0.000441592
-0.000434532
-0.000424731
-0.000409743
-0.000385883
-0.000348035
-0.000289562
-0.000203108
-8.39416e-05
7.01357e-05
0.000262072
0.000484532
0.000732599
0.00102017
0.00138131
0.00181063
0.00223398
0.00253207
0.00263551
0.00253757
0.00242449
0.00236748
-0.000458185
-0.000479735
-0.000510176
-0.000535889
-0.000554111
-0.000567453
-0.000577671
-0.000585711
-0.000592262
-0.000597907
-0.000603161
-0.000608508
-0.00061443
-0.000621419
-0.000629988
-0.000640666
-0.000653971
-0.000670358
-0.000690115
-0.000713203
-0.000739045
-0.000766314
-0.000792822
-0.000815484
-0.000830804
-0.000838557
-0.000844902
-0.000862382
-0.00089906
-0.000942908
-0.000943399
-0.000817593
-0.000493017
4.19955e-05
0.000689758
0.00134549
0.00186427
0.0021628
0.00229699
0.00225715
-0.000548738
-0.000570135
-0.000600987
-0.000628195
-0.000648931
-0.00066565
-0.000680065
-0.000693147
-0.000705642
-0.000718224
-0.000731533
-0.000746217
-0.000762965
-0.000782539
-0.000805791
-0.000833678
-0.000867261
-0.000907668
-0.000956026
-0.00101335
-0.00108042
-0.00115775
-0.00124574
-0.00134485
-0.0014584
-0.00159746
-0.00178393
-0.00204348
-0.00237251
-0.00271064
-0.00294068
-0.00294466
-0.00266301
-0.0020842
-0.00127393
-0.0003008
0.000696657
0.00154909
0.00212329
0.00249013
-0.000643764
-0.000664864
-0.000695911
-0.000724415
-0.000747528
-0.000767545
-0.000786136
-0.000804292
-0.000822824
-0.000842501
-0.000864097
-0.000888434
-0.000916432
-0.000949145
-0.000987802
-0.00103384
-0.00108895
-0.00115502
-0.00123422
-0.00132886
-0.00144151
-0.00157518
-0.00173376
-0.00192301
-0.00215568
-0.0024559
-0.00286269
-0.0034024
-0.00404144
-0.00465976
-0.00508867
-0.00520085
-0.00496001
-0.00436749
-0.003437
-0.00221407
-0.000805825
0.000574976
0.00182816
0.00285279
-0.000742187
-0.000762864
-0.000793911
-0.000823515
-0.000848844
-0.000872032
-0.000894701
-0.000917868
-0.000942406
-0.000969182
-0.000999107
-0.00103319
-0.00107257
-0.00111863
-0.00117297
-0.00123756
-0.00131471
-0.00140721
-0.00151829
-0.0016518
-0.00181236
-0.00200592
-0.00224026
-0.00252797
-0.00289104
-0.00336678
-0.00400544
-0.0048217
-0.00573949
-0.00658308
-0.00715656
-0.00734402
-0.00712829
-0.00652075
-0.00553638
-0.00419295
-0.00253326
-0.000760237
0.000959294
0.00233158
-0.000842927
-0.000863074
-0.000893945
-0.000924451
-0.000951804
-0.000977982
-0.00100455
-0.00103256
-0.00106294
-0.00109665
-0.00113474
-0.00117839
-0.00122898
-0.00128818
-0.001358
-0.00144087
-0.00153978
-0.00165835
-0.00180094
-0.00197293
-0.00218106
-0.00243422
-0.00274428
-0.00313024
-0.00362172
-0.00426612
-0.00511629
-0.00616734
-0.00729971
-0.00829746
-0.00895803
-0.00918943
-0.00899147
-0.00839036
-0.00741271
-0.00606224
-0.00434687
-0.00242479
-0.000663858
0.00070442
-0.000944926
-0.000964454
-0.000994988
-0.00102619
-0.00105535
-0.00108427
-0.00111449
-0.00114705
-0.00118296
-0.00122326
-0.00126914
-0.00132192
-0.00138321
-0.00145494
-0.00153947
-0.0016397
-0.00175918
-0.00190232
-0.0020745
-0.00228246
-0.00253485
-0.00284309
-0.00322273
-0.00369753
-0.00430254
-0.00508771
-0.00610407
-0.00732544
-0.00860008
-0.00968937
-0.0103974
-0.0106555
-0.0104788
-0.00990526
-0.00897534
-0.00769724
-0.00605232
-0.00414245
-0.00251303
-0.00137717
-0.00104717
-0.001066
-0.00109605
-0.00112775
-0.00115844
-0.00118981
-0.00122332
-0.00126005
-0.00130103
-0.00134742
-0.00140047
-0.00146169
-0.00153284
-0.00161609
-0.00171407
-0.00183007
-0.00196811
-0.0021332
-0.00233155
-0.00257097
-0.00286148
-0.00321635
-0.00365383
-0.00420059
-0.00489454
-0.00577491
-0.00689866
-0.00821864
-0.00956717
-0.0106979
-0.0114256
-0.0116986
-0.0115455
-0.0110169
-0.0101628
-0.00900616
-0.00752712
-0.00576646
-0.00430167
-0.00339826
-0.00114869
-0.00116679
-0.00119623
-0.00122819
-0.00126013
-0.00129357
-0.00132994
-0.00137031
-0.00141579
-0.00146757
-0.00152701
-0.00159572
-0.00167561
-0.001769
-0.00187875
-0.00200837
-0.00216224
-0.00234576
-0.00256566
-0.0028304
-0.00315079
-0.00354098
-0.00401998
-0.00461461
-0.00536399
-0.00629867
-0.00746176
-0.00880881
-0.0101694
-0.0113007
-0.0120276
-0.0123082
-0.0121815
-0.0117102
-0.0109493
-0.00993244
-0.00865634
-0.00717699
-0.00589957
-0.0051468
-0.00124862
-0.00126595
-0.00129467
-0.00132667
-0.00135951
-0.0013946
-0.0014333
-0.00147671
-0.00152597
-0.00158232
-0.00164718
-0.00172224
-0.0018095
-0.00191137
-0.00203084
-0.00217156
-0.00233805
-0.0025359
-0.00277201
-0.00305501
-0.00339585
-0.00380865
-0.00431166
-0.00492868
-0.00569148
-0.00664197
-0.00778674
-0.00909225
-0.0104108
-0.0115078
-0.012216
-0.0124982
-0.012402
-0.0119965
-0.0113401
-0.0104697
-0.00939772
-0.00818426
-0.00710955
-0.00648779
-0.0013462
-0.00136275
-0.00139066
-0.00142247
-0.00145583
-0.00149206
-0.00153248
-0.00157822
-0.00163042
-0.00169038
-0.00175956
-0.00183967
-0.00193276
-0.00204129
-0.00216824
-0.00231729
-0.00249295
-0.00270075
-0.00294746
-0.00324142
-0.00359304
-0.00401543
-0.00452496
-0.00514175
-0.00589174
-0.00680831
-0.00788658
-0.00909481
-0.0103299
-0.0113614
-0.0120337
-0.0123085
-0.0122458
-0.0119125
-0.0113653
-0.0106423
-0.00976855
-0.00879714
-0.0079107
-0.00739699
-0.00144077
-0.00145657
-0.00148361
-0.00151496
-0.00154843
-0.00158523
-0.00162668
-0.00167393
-0.00172815
-0.00179065
-0.00186293
-0.00194671
-0.00204401
-0.00215727
-0.00228941
-0.002444
-0.00262538
-0.00283882
-0.00309068
-0.00338865
-0.00374209
-0.00416244
-0.00466349
-0.00526144
-0.00597549
-0.00682584
-0.0078088
-0.00889582
-0.00998688
-0.0109111
-0.0115369
-0.0118044
-0.011778
-0.011518
-0.0110751
-0.0104871
-0.00978576
-0.00901668
-0.00831088
-0.00789172
-0.00153185
-0.00154696
-0.00157307
-0.00160371
-0.00163679
-0.00167352
-0.00171522
-0.00176308
-0.0018183
-0.00188223
-0.00195634
-0.00204235
-0.00214222
-0.00225831
-0.00239341
-0.00255088
-0.00273477
-0.00294992
-0.00320209
-0.00349805
-0.00384578
-0.00425468
-0.00473547
-0.00530014
-0.00596108
-0.00672834
-0.00759646
-0.00853555
-0.00946747
-0.0102631
-0.0108057
-0.0110763
-0.0110857
-0.0108928
-0.0105428
-0.0100695
-0.00950888
-0.00889975
-0.00837049
-0.00801402
-0.00161913
-0.00163364
-0.00165878
-0.00168841
-0.00172056
-0.00175649
-0.00179758
-0.00184507
-0.00190023
-0.00196439
-0.00203905
-0.00212587
-0.00222673
-0.00234386
-0.00247986
-0.00263782
-0.0028214
-0.00303495
-0.00328346
-0.00357267
-0.00390897
-0.00429969
-0.00475255
-0.00527531
-0.00587444
-0.00655266
-0.0073013
-0.00809233
-0.00886548
-0.00952927
-0.00999724
-0.0102397
-0.0102693
-0.0101268
-0.00984796
-0.00946447
-0.00900969
-0.00852282
-0.00814809
-0.00782796
-0.00170249
-0.00171653
-0.0017407
-0.00176898
-0.00179955
-0.00183384
-0.00187335
-0.00191941
-0.00197338
-0.0020366
-0.00211053
-0.00219678
-0.00229715
-0.0024137
-0.00254881
-0.00270527
-0.00288621
-0.00309559
-0.0033375
-0.00361659
-0.00393784
-0.00430644
-0.00472743
-0.00520501
-0.00574102
-0.00633314
-0.00697012
-0.00762632
-0.00825533
-0.00879326
-0.00917901
-0.00938522
-0.00941858
-0.00930413
-0.00906851
-0.00874227
-0.00835773
-0.00794704
-0.0077076
-0.0073867
-0.00178212
-0.00179585
-0.00181902
-0.0018455
-0.00187373
-0.0019054
-0.00194223
-0.0019857
-0.00203735
-0.00209842
-0.0021704
-0.00225482
-0.00235338
-0.00246795
-0.0026007
-0.00275416
-0.00293051
-0.003134
-0.00336741
-0.00363444
-0.00393875
-0.00428372
-0.00467212
-0.00510536
-0.00558201
-0.00609647
-0.00663613
-0.00717774
-0.00768498
-0.00811275
-0.00841882
-0.00858166
-0.0086019
-0.00849225
-0.00827196
-0.00797046
-0.00762226
-0.00724221
-0.00708325
-0.00675008
-0.0018585
-0.00187211
-0.00189421
-0.00191831
-0.00194323
-0.00197112
-0.00200402
-0.00204366
-0.00209186
-0.00214959
-0.00221845
-0.00229991
-0.00239552
-0.00250696
-0.00263613
-0.00278516
-0.00295636
-0.00315255
-0.00337639
-0.00363057
-0.00391758
-0.00423932
-0.00459677
-0.00498925
-0.0054132
-0.00586108
-0.00631985
-0.00676868
-0.0071783
-0.00751532
-0.00775008
-0.0078661
-0.00785945
-0.00773475
-0.00750676
-0.00720378
-0.00686008
-0.00645696
-0.00632949
-0.00594684
-0.00193259
-0.00194628
-0.00196714
-0.00198801
-0.00200834
-0.00203109
-0.00205876
-0.00209362
-0.00213683
-0.00218988
-0.00225452
-0.00233202
-0.00242374
-0.00253118
-0.00265596
-0.00279991
-0.00296502
-0.00315347
-0.00336738
-0.00360873
-0.0038791
-0.00417928
-0.00450888
-0.00486576
-0.00524503
-0.00563808
-0.00603196
-0.00640797
-0.00674176
-0.00700691
-0.00718098
-0.0072503
-0.00720752
-0.00705255
-0.00679832
-0.00647315
-0.00610649
-0.0056036
-0.00549221
-0.00496661
-0.00200596
-0.00201989
-0.0020391
-0.00205549
-0.00206952
-0.00208534
-0.00210625
-0.00213434
-0.00217108
-0.0022187
-0.00227827
-0.00235098
-0.00243804
-0.00254076
-0.00266056
-0.00279898
-0.00295767
-0.00313834
-0.0033426
-0.00357184
-0.00382692
-0.00410781
-0.00441322
-0.00474008
-0.00508274
-0.00543211
-0.00577547
-0.00609583
-0.00637205
-0.00658166
-0.00670568
-0.00673119
-0.00664784
-0.00645209
-0.00615601
-0.00578457
-0.0053502
-0.00471561
-0.00457013
-0.00376476
-0.00208122
-0.0020954
-0.00211203
-0.0021219
-0.00212707
-0.00213353
-0.00214538
-0.00216495
-0.0021946
-0.0022357
-0.00228927
-0.00235637
-0.00243806
-0.00253542
-0.00264966
-0.00278209
-0.00293412
-0.00310711
-0.0033023
-0.00352054
-0.00376213
-0.00402647
-0.00431169
-0.00461413
-0.00492777
-0.00524341
-0.00554865
-0.00582764
-0.00606133
-0.00622907
-0.00631265
-0.00629799
-0.0061727
-0.00593082
-0.00558027
-0.00513723
-0.00459128
-0.00375709
-0.00358141
-0.00228669
-0.00216251
-0.00217649
-0.00218861
-0.00218856
-0.00218122
-0.00217537
-0.00217583
-0.00218544
-0.00220638
-0.00223974
-0.00228639
-0.00234712
-0.00242269
-0.00251399
-0.00262198
-0.00274781
-0.00289267
-0.00305775
-0.00324403
-0.00345211
-0.00368195
-0.00393258
-0.00420171
-0.00448535
-0.00477725
-0.00506826
-0.00534629
-0.00559615
-0.00579978
-0.00593714
-0.00598906
-0.0059389
-0.00577164
-0.00547642
-0.00505478
-0.00450971
-0.00379997
-0.00268655
-0.0025033
-0.000473054
-0.00225733
-0.00226945
-0.00227281
-0.00225662
-0.00223137
-0.00220904
-0.00219524
-0.00219285
-0.00220355
-0.00222812
-0.002267
-0.00232059
-0.00238931
-0.00247375
-0.00257467
-0.00269305
-0.00282997
-0.0029865
-0.00316353
-0.0033616
-0.00358059
-0.0038195
-0.00407595
-0.00434584
-0.00462283
-0.0048978
-0.00515869
-0.00539049
-0.00557524
-0.00569265
-0.00572157
-0.00564123
-0.00543146
-0.00507362
-0.00455739
-0.00385818
-0.00291394
-0.00148865
-0.00110859
0.00176853
-0.00237755
-0.00238308
-0.00236842
-0.00232512
-0.00227373
-0.00222927
-0.00219761
-0.00218107
-0.00218037
-0.0021955
-0.00222624
-0.00227238
-0.00233392
-0.0024111
-0.00250448
-0.00261489
-0.00274336
-0.00289096
-0.00305856
-0.00324677
-0.00345563
-0.00368432
-0.00393072
-0.00419095
-0.00445874
-0.00472507
-0.00497762
-0.00520102
-0.00537649
-0.00548217
-0.00549353
-0.00538358
-0.00512371
-0.00468125
-0.00402485
-0.00308933
-0.00180272
6.35319e-05
0.00097262
0.0047931
-0.00255122
-0.00253705
-0.00247865
-0.00238839
-0.00230149
-0.00222955
-0.00217649
-0.00214424
-0.00213209
-0.00213858
-0.0021623
-0.00220223
-0.00225778
-0.00232884
-0.0024157
-0.0025191
-0.00264012
-0.00277991
-0.00293934
-0.00311914
-0.00331955
-0.00354006
-0.00377896
-0.00403279
-0.00429549
-0.00455811
-0.00480771
-0.00502788
-0.00519819
-0.00529363
-0.005284
-0.00513264
-0.00479784
-0.00421839
-0.00333686
-0.00202568
-0.000198091
0.00244371
0.004407
0.00978979
-0.00282447
-0.00274417
-0.00260009
-0.00243985
-0.00230153
-0.0021985
-0.00212743
-0.00208404
-0.00206484
-0.00206666
-0.00208693
-0.00212385
-0.00217632
-0.00224393
-0.00232681
-0.00242566
-0.00254162
-0.00267603
-0.00282984
-0.00300397
-0.00319871
-0.00341358
-0.00364709
-0.00389628
-0.00415497
-0.00441437
-0.00466056
-0.00487546
-0.00503601
-0.00511335
-0.00506964
-0.00485333
-0.0044025
-0.00361062
-0.00237706
-0.000460385
0.00225681
0.00631724
0.0104521
0.0192042
-0.00333463
-0.0030503
-0.00272633
-0.00245067
-0.00227071
-0.00215078
-0.00207104
-0.00202401
-0.00200365
-0.00200527
-0.00202541
-0.00206184
-0.00211326
-0.0021792
-0.00225974
-0.00235556
-0.0024678
-0.00259754
-0.00274593
-0.00291525
-0.00310596
-0.00331704
-0.00354634
-0.0037913
-0.0040449
-0.00429752
-0.00453421
-0.00473769
-0.00488132
-0.00493202
-0.00484232
-0.00454325
-0.00394295
-0.00287189
-0.00116723
0.00162592
0.00571624
0.012233
0.0204747
0.0354546
-0.00424412
-0.003252
-0.00270254
-0.00237641
-0.00218069
-0.00205164
-0.00196906
-0.00192277
-0.00190413
-0.00190688
-0.00192715
-0.00196293
-0.00201323
-0.00207772
-0.00215646
-0.0022501
-0.00235945
-0.00248579
-0.00263048
-0.00279591
-0.00298164
-0.00318854
-0.00341393
-0.00365516
-0.00390322
-0.00414995
-0.00437798
-0.00457099
-0.00469671
-0.0047214
-0.00458703
-0.00422008
-0.00349694
-0.00220657
-2.5578e-05
0.00377162
0.00977243
0.0198669
0.0344522
0.0582037
-0.00554406
-0.00168576
-0.000975718
-0.000984039
-0.000966269
-0.000911949
-0.000881659
-0.000892276
-0.000932377
-0.000988418
-0.00105413
-0.00112888
-0.0012137
-0.00130994
-0.00141824
-0.00153974
-0.00167562
-0.00182792
-0.00199924
-0.00219072
-0.00240145
-0.00263045
-0.00287642
-0.0031355
-0.00340127
-0.00366257
-0.00390509
-0.00410686
-0.00423829
-0.00425365
-0.00409484
-0.00367617
-0.00292965
-0.00159727
0.000794437
0.00536375
0.0136303
0.0276325
0.0492952
0.0781332
)
;

boundaryField
{
    movingWall
    {
        type            zeroGradient;
    }
    fixedWalls
    {
        type            zeroGradient;
    }
    frontAndBack
    {
        type            empty;
    }
}


// ************************************************************************* //
