/*--------------------------------*- C++ -*----------------------------------*\
  =========                 |
  \\      /  F ield         | OpenFOAM: The Open Source CFD Toolbox
   \\    /   O peration     | Website:  https://openfoam.org
    \\  /    A nd           | Version:  13
     \\/     M anipulation  |
\*---------------------------------------------------------------------------*/
FoamFile
{
    format      ascii;
    class       surfaceScalarField;
    location    "1";
    object      phi;
}
// * * * * * * * * * * * * * * * * * * * * * * * * * * * * * * * * * * * * * //

dimensions      [0 3 -1 0 0 0 0];

internalField   nonuniform List<scalar> 
3120
(
1.83057e-09
-1.83003e-09
-3.55621e-09
5.38679e-09
-1.70174e-08
1.34612e-08
-3.62326e-08
1.92152e-08
-5.88862e-08
2.26536e-08
-8.35107e-08
2.46246e-08
-1.09281e-07
2.57701e-08
-1.35747e-07
2.64663e-08
-1.6268e-07
2.69326e-08
-1.89979e-07
2.72988e-08
-2.1762e-07
2.76416e-08
-2.45623e-07
2.80024e-08
-2.74018e-07
2.8396e-08
-3.02832e-07
2.88137e-08
-3.32058e-07
2.92258e-08
-3.61639e-07
2.9581e-08
-3.91445e-07
2.9806e-08
-4.21248e-07
2.98035e-08
-4.50699e-07
2.94511e-08
-4.79301e-07
2.86011e-08
-5.06384e-07
2.70836e-08
-5.31093e-07
2.47093e-08
-5.52351e-07
2.1258e-08
-5.68818e-07
1.64665e-08
-5.79134e-07
1.0316e-08
-5.82493e-07
3.35866e-09
-5.76983e-07
-5.50932e-09
-5.61445e-07
-1.55386e-08
-5.34979e-07
-2.64658e-08
-4.97257e-07
-3.77219e-08
-4.48693e-07
-4.85634e-08
-3.90553e-07
-5.81408e-08
-3.24976e-07
-6.55768e-08
-2.54851e-07
-7.01249e-08
-1.8389e-07
-7.09606e-08
-1.16731e-07
-6.71589e-08
-5.90864e-08
-5.7645e-08
-1.77839e-08
-4.13025e-08
1.0466e-09
-1.88304e-08
1.04661e-09
-5.54839e-09
3.71836e-09
-2.24428e-08
2.22812e-08
-4.81531e-08
3.91714e-08
-7.94833e-08
5.05455e-08
-1.14372e-07
5.75422e-08
-1.51534e-07
6.17863e-08
-1.90179e-07
6.44153e-08
-2.29829e-07
6.6116e-08
-2.70198e-07
6.7302e-08
-3.11121e-07
6.82216e-08
-3.52497e-07
6.90178e-08
-3.94255e-07
6.97603e-08
-4.3632e-07
7.04611e-08
-4.78589e-07
7.10824e-08
-5.20903e-07
7.15398e-08
-5.63024e-07
7.17023e-08
-6.04611e-07
7.13926e-08
-6.45193e-07
7.03864e-08
-6.84156e-07
6.84136e-08
-7.20718e-07
6.51634e-08
-7.53929e-07
6.02941e-08
-7.82668e-07
5.34483e-08
-8.05678e-07
4.42687e-08
-8.21664e-07
3.24526e-08
-8.29293e-07
1.79442e-08
-8.26613e-07
6.79403e-10
-8.12948e-07
-1.91749e-08
-7.87081e-07
-4.14048e-08
-7.48467e-07
-6.50806e-08
-6.97072e-07
-8.91168e-08
-6.33513e-07
-1.12122e-07
-5.59127e-07
-1.32527e-07
-4.76083e-07
-1.4862e-07
-3.87473e-07
-1.58735e-07
-2.97064e-07
-1.6137e-07
-2.0917e-07
-1.55053e-07
-1.28682e-07
-1.38134e-07
-6.13921e-08
-1.08592e-07
-1.52985e-08
-6.4924e-08
-1.42519e-08
-1.41822e-08
1.79006e-08
-3.9929e-08
4.80279e-08
-7.09793e-08
7.02218e-08
-1.05613e-07
8.51792e-08
-1.43022e-07
9.49516e-08
-1.82557e-07
1.01321e-07
-2.237e-07
1.05558e-07
-2.66067e-07
1.08483e-07
-3.09386e-07
1.10621e-07
-3.53463e-07
1.12299e-07
-3.98153e-07
1.13708e-07
-4.43326e-07
1.14933e-07
-4.88841e-07
1.15976e-07
-5.34526e-07
1.16767e-07
-5.8015e-07
1.17164e-07
-6.25405e-07
1.16958e-07
-6.69883e-07
1.15871e-07
-7.13058e-07
1.13561e-07
-7.54263e-07
1.09619e-07
-7.92689e-07
1.03589e-07
-8.27371e-07
9.49764e-08
-8.57201e-07
8.32782e-08
-8.80953e-07
6.80202e-08
-8.97323e-07
4.88226e-08
-9.04874e-07
2.54959e-08
-9.02227e-07
-1.96808e-09
-8.88033e-07
-3.33684e-08
-8.61367e-07
-6.80709e-08
-8.21533e-07
-1.04914e-07
-7.68415e-07
-1.42235e-07
-7.02584e-07
-1.77952e-07
-6.25471e-07
-2.0964e-07
-5.39361e-07
-2.3473e-07
-4.47311e-07
-2.50785e-07
-3.52967e-07
-2.55714e-07
-2.60221e-07
-2.47798e-07
-1.72857e-07
-2.25498e-07
-9.44732e-08
-1.86976e-07
-3.08163e-08
-1.28581e-07
-4.50682e-08
-2.0658e-08
3.85587e-08
-5.19175e-08
7.92874e-08
-8.6162e-08
1.04466e-07
-1.22449e-07
1.21466e-07
-1.60676e-07
1.33179e-07
-2.00669e-07
1.41315e-07
-2.42192e-07
1.47081e-07
-2.85011e-07
1.51303e-07
-3.28925e-07
1.54534e-07
-3.73761e-07
1.57135e-07
-4.19365e-07
1.59312e-07
-4.65589e-07
1.61157e-07
-5.12269e-07
1.62657e-07
-5.59212e-07
1.6371e-07
-6.06173e-07
1.64124e-07
-6.52833e-07
1.63618e-07
-6.98789e-07
1.61827e-07
-7.43526e-07
1.58298e-07
-7.86408e-07
1.52501e-07
-8.2666e-07
1.43841e-07
-8.63359e-07
1.31676e-07
-8.95437e-07
1.15355e-07
-9.21679e-07
9.4263e-08
-9.40745e-07
6.78886e-08
-9.51163e-07
3.59135e-08
-9.51426e-07
-1.7045e-09
-9.40062e-07
-4.47328e-08
-9.15809e-07
-9.23243e-08
-8.77692e-07
-1.43031e-07
-8.25258e-07
-1.94669e-07
-7.58784e-07
-2.44427e-07
-6.79541e-07
-2.88883e-07
-5.89866e-07
-3.24405e-07
-4.93025e-07
-3.47626e-07
-3.9296e-07
-3.55778e-07
-2.93805e-07
-3.46953e-07
-1.99258e-07
-3.20046e-07
-1.12426e-07
-2.73807e-07
-3.88026e-08
-2.02204e-07
-8.38708e-08
-2.46573e-08
6.3216e-08
-5.92555e-08
1.13886e-07
-9.56859e-08
1.40897e-07
-1.33198e-07
1.58978e-07
-1.7196e-07
1.71941e-07
-2.12078e-07
1.81433e-07
-2.53536e-07
1.88539e-07
-2.96251e-07
1.94017e-07
-3.40111e-07
1.98395e-07
-3.84998e-07
2.02021e-07
-4.30787e-07
2.05102e-07
-4.7735e-07
2.07719e-07
-5.24537e-07
2.09844e-07
-5.72171e-07
2.11344e-07
-6.2003e-07
2.11983e-07
-6.6783e-07
2.11419e-07
-7.15211e-07
2.09208e-07
-7.61715e-07
2.04802e-07
-8.0677e-07
1.97555e-07
-8.49666e-07
1.86737e-07
-8.89544e-07
1.71553e-07
-9.25369e-07
1.51181e-07
-9.55926e-07
1.24819e-07
-9.79803e-07
9.1766e-08
-9.95398e-07
5.15085e-08
-1.00096e-06
3.86108e-09
-9.94692e-07
-5.1004e-08
-9.7482e-07
-1.12197e-07
-9.39803e-07
-1.78048e-07
-8.88581e-07
-2.45891e-07
-8.20902e-07
-3.12106e-07
-7.377e-07
-3.72085e-07
-6.41429e-07
-4.20676e-07
-5.35899e-07
-4.53156e-07
-4.25967e-07
-4.6571e-07
-3.16897e-07
-4.56024e-07
-2.13401e-07
-4.23542e-07
-1.19264e-07
-3.67944e-07
-4.06129e-08
-2.80856e-07
-1.24484e-07
-2.686e-08
9.00759e-08
-6.33565e-08
1.50382e-07
-1.01214e-07
1.78754e-07
-1.3963e-07
1.97394e-07
-1.78813e-07
2.11124e-07
-2.18997e-07
2.21616e-07
-2.60306e-07
2.29848e-07
-3.02777e-07
2.36488e-07
-3.4639e-07
2.42008e-07
-3.91097e-07
2.46727e-07
-4.36826e-07
2.50831e-07
-4.83493e-07
2.54386e-07
-5.30994e-07
2.57344e-07
-5.79196e-07
2.59547e-07
-6.27933e-07
2.6072e-07
-6.76987e-07
2.60473e-07
-7.26074e-07
2.58295e-07
-7.74822e-07
2.53551e-07
-8.22754e-07
2.45487e-07
-8.69253e-07
2.33236e-07
-9.13532e-07
2.15833e-07
-9.54602e-07
1.92251e-07
-9.91232e-07
1.6145e-07
-1.02192e-06
1.22452e-07
-1.04486e-06
7.44527e-08
-1.05797e-06
1.69646e-08
-1.05894e-06
-5.00317e-08
-1.0453e-06
-1.2583e-07
-1.01467e-06
-2.08686e-07
-9.65037e-07
-2.95521e-07
-8.9529e-07
-3.81853e-07
-8.05792e-07
-4.61583e-07
-6.9909e-07
-5.27378e-07
-5.79962e-07
-5.72285e-07
-4.55037e-07
-5.90635e-07
-3.31981e-07
-5.79079e-07
-2.17819e-07
-5.37704e-07
-1.17697e-07
-4.68066e-07
-3.79678e-08
-3.60585e-07
-1.62451e-07
-2.78821e-08
1.17958e-07
-6.52991e-08
1.87799e-07
-1.03964e-07
2.17419e-07
-1.42948e-07
2.36378e-07
-1.82404e-07
2.5058e-07
-2.22597e-07
2.61809e-07
-2.63726e-07
2.70977e-07
-3.05914e-07
2.78676e-07
-3.49223e-07
2.85317e-07
-3.93674e-07
2.91179e-07
-4.39263e-07
2.9642e-07
-4.85966e-07
3.0109e-07
-5.33743e-07
3.05121e-07
-5.82532e-07
3.08336e-07
-6.32246e-07
3.10433e-07
-6.82758e-07
3.10985e-07
-7.33889e-07
3.09426e-07
-7.85385e-07
3.05047e-07
-8.36889e-07
2.96991e-07
-8.879e-07
2.84247e-07
-9.37734e-07
2.65666e-07
-9.85461e-07
2.39978e-07
-1.02985e-06
2.05839e-07
-1.0693e-06
1.61905e-07
-1.1018e-06
1.06949e-07
-1.12486e-06
4.00201e-08
-1.13555e-06
-3.93389e-08
-1.13053e-06
-1.30849e-07
-1.10624e-06
-2.32976e-07
-1.05933e-06
-3.42429e-07
-9.8726e-07
-4.53925e-07
-8.89347e-07
-5.59496e-07
-7.67937e-07
-6.48787e-07
-6.29075e-07
-7.11148e-07
-4.82216e-07
-7.37494e-07
-3.39341e-07
-7.21955e-07
-2.1177e-07
-6.65275e-07
-1.07066e-07
-5.72769e-07
-3.08428e-08
-4.36808e-07
-1.93294e-07
-2.81346e-08
1.46093e-07
-6.57812e-08
2.25446e-07
-1.04747e-07
2.56384e-07
-1.43969e-07
2.75601e-07
-1.83509e-07
2.9012e-07
-2.23613e-07
3.01913e-07
-2.64512e-07
3.11876e-07
-3.06383e-07
3.20547e-07
-3.49354e-07
3.28288e-07
-3.93514e-07
3.35338e-07
-4.38926e-07
3.41833e-07
-4.8564e-07
3.47803e-07
-5.3369e-07
3.53172e-07
-5.83103e-07
3.57749e-07
-6.3389e-07
3.61221e-07
-6.86039e-07
3.63134e-07
-7.395e-07
3.62887e-07
-7.94162e-07
3.59708e-07
-8.49816e-07
3.52645e-07
-9.06114e-07
3.40545e-07
-9.62504e-07
3.22057e-07
-1.01816e-06
2.95635e-07
-1.0719e-06
2.59575e-07
-1.12207e-06
2.12077e-07
-1.16648e-06
1.51362e-07
-1.20229e-06
7.58252e-08
-1.22593e-06
-1.56971e-08
-1.23305e-06
-1.23732e-07
-1.21865e-06
-2.47375e-07
-1.17747e-06
-3.83602e-07
-1.10474e-06
-5.26653e-07
-9.97745e-07
-6.66496e-07
-8.57818e-07
-7.88714e-07
-6.91941e-07
-8.77025e-07
-5.13302e-07
-9.16132e-07
-3.40595e-07
-8.94662e-07
-1.93259e-07
-8.1261e-07
-8.43305e-08
-6.81698e-07
-1.75535e-08
-5.03585e-07
-2.10848e-07
-2.78716e-08
1.73964e-07
-6.52435e-08
2.62818e-07
-1.04102e-07
2.95243e-07
-1.43255e-07
3.14755e-07
-1.82669e-07
3.29534e-07
-2.22548e-07
3.41792e-07
-2.63129e-07
3.52457e-07
-3.04622e-07
3.6204e-07
-3.47204e-07
3.70869e-07
-3.91023e-07
3.79157e-07
-4.36211e-07
3.87021e-07
-4.8289e-07
3.94482e-07
-5.31183e-07
4.01464e-07
-5.81212e-07
4.07779e-07
-6.33103e-07
4.13111e-07
-6.86974e-07
4.17005e-07
-7.42924e-07
4.18837e-07
-8.01009e-07
4.17793e-07
-8.61201e-07
4.12837e-07
-9.23339e-07
4.02683e-07
-9.87057e-07
3.85774e-07
-1.0517e-06
3.60276e-07
-1.11621e-06
3.2409e-07
-1.17904e-06
2.74906e-07
-1.23797e-06
2.10288e-07
-1.28995e-06
1.27807e-07
-1.33094e-06
2.52907e-08
-1.35565e-06
-9.90159e-08
-1.35751e-06
-2.45518e-07
-1.32879e-06
-4.12317e-07
-1.26144e-06
-5.94007e-07
-1.14905e-06
-7.78887e-07
-9.90181e-07
-9.47582e-07
-7.90934e-07
-1.07627e-06
-5.67792e-07
-1.13927e-06
-3.48427e-07
-1.11403e-06
-1.66851e-07
-9.94186e-07
-4.90913e-08
-7.99457e-07
1.88256e-09
-5.54559e-07
-2.08965e-07
-2.72348e-08
2.01199e-07
-6.39735e-08
2.99556e-07
-1.02392e-07
3.33662e-07
-1.41196e-07
3.53559e-07
-1.80265e-07
3.68602e-07
-2.19757e-07
3.81285e-07
-2.59898e-07
3.92598e-07
-3.00914e-07
4.03056e-07
-3.43018e-07
4.12973e-07
-3.8641e-07
4.22549e-07
-4.31283e-07
4.31894e-07
-4.77835e-07
4.41034e-07
-5.26275e-07
4.49905e-07
-5.7683e-07
4.58333e-07
-6.29744e-07
4.66026e-07
-6.8528e-07
4.72541e-07
-7.437e-07
4.77257e-07
-8.05245e-07
4.79339e-07
-8.70098e-07
4.7769e-07
-9.38325e-07
4.7091e-07
-1.00981e-06
4.57261e-07
-1.08417e-06
4.34638e-07
-1.16065e-06
4.00571e-07
-1.238e-06
3.52248e-07
-1.31427e-06
2.86557e-07
-1.38661e-06
2.0015e-07
-1.45091e-06
8.95885e-08
-1.50148e-06
-4.84472e-08
-1.53032e-06
-2.1667e-07
-1.52704e-06
-4.15601e-07
-1.47927e-06
-6.41775e-07
-1.37485e-06
-8.83307e-07
-1.20615e-06
-1.11629e-06
-9.74714e-07
-1.30771e-06
-6.97321e-07
-1.41667e-06
-4.09311e-07
-1.40204e-06
-1.63943e-07
-1.23955e-06
-1.51718e-08
-9.48229e-07
2.46879e-08
-5.94418e-07
-1.84277e-07
-2.63194e-08
2.27518e-07
-6.21604e-08
3.35397e-07
-9.9863e-08
3.71364e-07
-1.38065e-07
3.9176e-07
-1.76572e-07
4.07109e-07
-2.15496e-07
4.20209e-07
-2.55043e-07
4.32145e-07
-2.95446e-07
4.43459e-07
-3.36942e-07
4.54469e-07
-3.79772e-07
4.65379e-07
-4.24185e-07
4.76307e-07
-4.70449e-07
4.87298e-07
-5.18857e-07
4.98312e-07
-5.69737e-07
5.09214e-07
-6.23458e-07
5.19747e-07
-6.80425e-07
5.29508e-07
-7.41072e-07
5.37904e-07
-8.05839e-07
5.44106e-07
-8.75139e-07
5.4699e-07
-9.49314e-07
5.45086e-07
-1.02858e-06
5.36524e-07
-1.11295e-06
5.1901e-07
-1.20218e-06
4.89801e-07
-1.29563e-06
4.45702e-07
-1.39212e-06
3.83042e-07
-1.48961e-06
2.97642e-07
-1.58478e-06
1.8476e-07
-1.67255e-06
3.93181e-08
-1.74445e-06
-1.44768e-07
-1.7875e-06
-3.72549e-07
-1.78434e-06
-6.4493e-07
-1.71497e-06
-9.52677e-07
-1.56193e-06
-1.26933e-06
-1.31868e-06
-1.55096e-06
-9.94928e-07
-1.74042e-06
-6.22403e-07
-1.77456e-06
-2.66746e-07
-1.59521e-06
-2.69379e-08
-1.18804e-06
3.62522e-08
-6.57608e-07
-1.48025e-07
-2.52003e-08
2.52719e-07
-5.99272e-08
3.70124e-07
-9.6681e-08
4.08118e-07
-1.34052e-07
4.29131e-07
-1.71786e-07
4.44843e-07
-2.09951e-07
4.58374e-07
-2.48729e-07
4.70923e-07
-2.8835e-07
4.8308e-07
-3.29066e-07
4.95186e-07
-3.7115e-07
5.07463e-07
-4.14897e-07
5.20054e-07
-4.60635e-07
5.33036e-07
-5.08736e-07
5.46413e-07
-5.59621e-07
5.60099e-07
-6.13775e-07
5.739e-07
-6.71741e-07
5.87474e-07
-7.34118e-07
6.00281e-07
-8.01548e-07
6.11535e-07
-8.7469e-07
6.20132e-07
-9.54196e-07
6.24592e-07
-1.04069e-06
6.23017e-07
-1.13474e-06
6.13059e-07
-1.23684e-06
5.91902e-07
-1.34736e-06
5.5622e-07
-1.46641e-06
5.02094e-07
-1.59363e-06
4.24863e-07
-1.72779e-06
3.18916e-07
-1.86511e-06
1.76641e-07
-1.99832e-06
-1.15533e-08
-2.11035e-06
-2.60526e-07
-2.17853e-06
-5.7675e-07
-2.17422e-06
-9.56983e-07
-2.07042e-06
-1.37312e-06
-1.85212e-06
-1.76926e-06
-1.51691e-06
-2.07563e-06
-1.07885e-06
-2.21263e-06
-5.87059e-07
-2.087e-06
-1.6501e-07
-1.61009e-06
1.39641e-08
-8.36582e-07
-1.34061e-07
-2.39275e-08
2.76646e-07
-5.73594e-08
4.03556e-07
-9.29641e-08
4.43723e-07
-1.29298e-07
4.65465e-07
-1.66057e-07
4.81603e-07
-2.03267e-07
4.95583e-07
-2.41082e-07
5.08739e-07
-2.79724e-07
5.21722e-07
-3.19452e-07
5.34913e-07
-3.60558e-07
5.48569e-07
-4.03373e-07
5.62869e-07
-4.48274e-07
5.77937e-07
-4.95696e-07
5.93834e-07
-5.46142e-07
6.10545e-07
-6.00194e-07
6.27952e-07
-6.58517e-07
6.45797e-07
-7.21861e-07
6.63625e-07
-7.91052e-07
6.80727e-07
-8.66995e-07
6.96075e-07
-9.50673e-07
7.0827e-07
-1.04317e-06
7.15517e-07
-1.14573e-06
7.15614e-07
-1.25978e-06
7.05949e-07
-1.387e-06
6.83441e-07
-1.52928e-06
6.44379e-07
-1.68866e-06
5.8424e-07
-1.86646e-06
4.9672e-07
-2.0602e-06
3.70384e-07
-2.25832e-06
1.86564e-07
-2.43698e-06
-8.18711e-08
-2.55967e-06
-4.5406e-07
-2.59863e-06
-9.18019e-07
-2.5463e-06
-1.42545e-06
-2.39332e-06
-1.92224e-06
-2.11245e-06
-2.3565e-06
-1.68319e-06
-2.64188e-06
-1.11829e-06
-2.6519e-06
-4.95341e-07
-2.23304e-06
-7.35764e-08
-1.25835e-06
-2.07637e-07
-2.2536e-08
2.99182e-07
-5.45204e-08
4.3554e-07
-8.88022e-08
4.78005e-07
-1.23914e-07
5.00577e-07
-1.59506e-07
5.17194e-07
-1.95563e-07
5.3164e-07
-2.32212e-07
5.45389e-07
-2.69659e-07
5.59168e-07
-3.08159e-07
5.73413e-07
-3.48015e-07
5.88425e-07
-3.89579e-07
6.04434e-07
-4.33262e-07
6.21621e-07
-4.79545e-07
6.40117e-07
-5.2899e-07
6.59991e-07
-5.82255e-07
6.81217e-07
-6.40096e-07
7.03639e-07
-7.03382e-07
7.26911e-07
-7.73096e-07
7.50441e-07
-8.50358e-07
7.73337e-07
-9.36468e-07
7.9438e-07
-1.03298e-06
8.12026e-07
-1.14181e-06
8.24443e-07
-1.26537e-06
8.29516e-07
-1.4067e-06
8.24764e-07
-1.56944e-06
8.07125e-07
-1.75763e-06
7.7243e-07
-1.97272e-06
7.11808e-07
-2.20756e-06
6.05224e-07
-2.43656e-06
4.15565e-07
-2.61585e-06
9.74156e-08
-2.71486e-06
-3.5505e-07
-2.74053e-06
-8.92352e-07
-2.70947e-06
-1.45651e-06
-2.61661e-06
-2.01511e-06
-2.44037e-06
-2.53274e-06
-2.13353e-06
-2.94872e-06
-1.64395e-06
-3.14148e-06
-9.62944e-07
-2.91405e-06
-2.50504e-07
-1.97079e-06
-4.58142e-07
-2.10533e-08
3.20236e-07
-5.14622e-08
4.65949e-07
-8.42709e-08
5.10813e-07
-1.17993e-07
5.343e-07
-1.52238e-07
5.51439e-07
-1.8695e-07
5.66353e-07
-2.22226e-07
5.80665e-07
-2.58248e-07
5.9519e-07
-2.9526e-07
6.10425e-07
-3.33562e-07
6.26727e-07
-3.73515e-07
6.44386e-07
-4.15544e-07
6.6365e-07
-4.60155e-07
6.84728e-07
-5.07943e-07
7.07779e-07
-5.59607e-07
7.32881e-07
-6.15959e-07
7.59991e-07
-6.7794e-07
7.88891e-07
-7.46638e-07
8.19139e-07
-8.23335e-07
8.50033e-07
-9.09576e-07
8.80621e-07
-1.0073e-06
9.09748e-07
-1.11898e-06
9.36129e-07
-1.24783e-06
9.58361e-07
-1.39784e-06
9.74773e-07
-1.57381e-06
9.83098e-07
-1.77981e-06
9.7843e-07
-2.01374e-06
9.45741e-07
-2.25854e-06
8.50022e-07
-2.47563e-06
6.32653e-07
-2.62672e-06
2.4851e-07
-2.7047e-06
-2.7707e-07
-2.72873e-06
-8.68323e-07
-2.70572e-06
-1.47951e-06
-2.63355e-06
-2.08728e-06
-2.50426e-06
-2.66202e-06
-2.29301e-06
-3.15998e-06
-1.94522e-06
-3.48927e-06
-1.38205e-06
-3.47722e-06
-5.41215e-07
-2.81162e-06
-9.99356e-07
-1.95039e-08
3.39739e-07
-4.82332e-08
4.94679e-07
-7.94412e-08
5.42021e-07
-1.11628e-07
5.66486e-07
-1.44361e-07
5.84172e-07
-1.77546e-07
5.99538e-07
-2.11243e-07
6.14362e-07
-2.45606e-07
6.29553e-07
-2.80859e-07
6.45677e-07
-3.17286e-07
6.63155e-07
-3.5524e-07
6.8234e-07
-3.95142e-07
7.03552e-07
-4.37498e-07
7.27084e-07
-4.82906e-07
7.53187e-07
-5.32069e-07
7.82044e-07
-5.85808e-07
8.13729e-07
-6.45079e-07
8.48162e-07
-7.11007e-07
8.85068e-07
-7.84944e-07
9.23971e-07
-8.68567e-07
9.64244e-07
-9.64017e-07
1.0052e-06
-1.07407e-06
1.04618e-06
-1.20227e-06
1.08656e-06
-1.35296e-06
1.12547e-06
-1.5309e-06
1.16104e-06
-1.73791e-06
1.18544e-06
-1.96632e-06
1.17415e-06
-2.19002e-06
1.07372e-06
-2.36911e-06
8.11738e-07
-2.48054e-06
3.59937e-07
-2.53294e-06
-2.24664e-07
-2.5445e-06
-8.56763e-07
-2.52019e-06
-1.50383e-06
-2.46295e-06
-2.14453e-06
-2.3684e-06
-2.75657e-06
-2.21646e-06
-3.31192e-06
-1.96129e-06
-3.74444e-06
-1.5394e-06
-3.89911e-06
-8.27187e-07
-3.52383e-06
-1.82654e-06
-1.79125e-08
3.57652e-07
-4.48828e-08
5.21649e-07
-7.4387e-08
5.71526e-07
-1.04913e-07
5.97012e-07
-1.3599e-07
6.15248e-07
-1.67479e-07
6.31027e-07
-1.99403e-07
6.46286e-07
-2.31879e-07
6.62029e-07
-2.651e-07
6.78899e-07
-2.99327e-07
6.97381e-07
-3.34885e-07
7.17898e-07
-3.72174e-07
7.40842e-07
-4.11674e-07
7.66584e-07
-4.53953e-07
7.95465e-07
-4.99679e-07
8.27769e-07
-5.49631e-07
8.63681e-07
-6.0472e-07
9.03251e-07
-6.66024e-07
9.46372e-07
-7.34855e-07
9.92801e-07
-8.12854e-07
1.04224e-06
-9.02126e-07
1.09447e-06
-1.00537e-06
1.14943e-06
-1.12592e-06
1.20711e-06
-1.26769e-06
1.26724e-06
-1.43401e-06
1.32735e-06
-1.6233e-06
1.37473e-06
-1.82311e-06
1.37396e-06
-2.00465e-06
1.25526e-06
-2.13617e-06
9.43266e-07
-2.20922e-06
4.32979e-07
-2.23904e-06
-1.94842e-07
-2.23875e-06
-8.57056e-07
-2.21609e-06
-1.52648e-06
-2.17533e-06
-2.18529e-06
-2.10941e-06
-2.82249e-06
-1.99676e-06
-3.42457e-06
-1.79332e-06
-3.94787e-06
-1.4651e-06
-4.22734e-06
-9.30121e-07
-4.0588e-06
-2.75666e-06
-1.63054e-08
3.73957e-07
-4.14647e-08
5.46808e-07
-6.91893e-08
5.9925e-07
-9.79573e-08
6.2578e-07
-1.27255e-07
6.44546e-07
-1.56902e-07
6.60673e-07
-1.86873e-07
6.76257e-07
-2.17248e-07
6.92404e-07
-2.48179e-07
7.09831e-07
-2.79889e-07
7.29092e-07
-3.12667e-07
7.50675e-07
-3.46867e-07
7.75042e-07
-3.82922e-07
8.02638e-07
-4.2134e-07
8.33883e-07
-4.62716e-07
8.69145e-07
-5.0774e-07
9.08705e-07
-5.57214e-07
9.52725e-07
-6.12085e-07
1.00124e-06
-6.73504e-07
1.05422e-06
-7.42904e-07
1.11164e-06
-8.22087e-07
1.17365e-06
-9.13289e-07
1.24063e-06
-1.01913e-06
1.31295e-06
-1.14238e-06
1.39049e-06
-1.28412e-06
1.46909e-06
-1.44003e-06
1.53064e-06
-1.59661e-06
1.53054e-06
-1.72965e-06
1.3883e-06
-1.81914e-06
1.03276e-06
-1.86579e-06
4.79619e-07
-1.88383e-06
-1.76793e-07
-1.8809e-06
-8.59986e-07
-1.86478e-06
-1.54261e-06
-1.83869e-06
-2.21138e-06
-1.7964e-06
-2.86478e-06
-1.71805e-06
-3.50292e-06
-1.56453e-06
-4.10139e-06
-1.27531e-06
-4.51656e-06
-8.05953e-07
-4.52816e-06
-3.56262e-06
-1.47122e-08
3.8867e-07
-3.80401e-08
5.70136e-07
-6.39406e-08
6.25151e-07
-9.08822e-08
6.52722e-07
-1.18309e-07
6.71973e-07
-1.4599e-07
6.88354e-07
-1.73856e-07
7.04123e-07
-2.01937e-07
7.20485e-07
-2.30343e-07
7.38236e-07
-2.59247e-07
7.57995e-07
-2.88885e-07
7.80314e-07
-3.19558e-07
8.05715e-07
-3.51625e-07
8.34706e-07
-3.85513e-07
8.6777e-07
-4.21709e-07
9.05342e-07
-4.60774e-07
9.47771e-07
-5.03348e-07
9.95299e-07
-5.50174e-07
1.04807e-06
-6.02134e-07
1.10618e-06
-6.60296e-07
1.1698e-06
-7.25943e-07
1.2393e-06
-8.00542e-07
1.31523e-06
-8.85621e-07
1.39803e-06
-9.82401e-07
1.48727e-06
-1.09009e-06
1.57678e-06
-1.20304e-06
1.64359e-06
-1.31071e-06
1.63821e-06
-1.39762e-06
1.47521e-06
-1.45484e-06
1.08998e-06
-1.4864e-06
5.11188e-07
-1.50047e-06
-1.62726e-07
-1.50133e-06
-8.59125e-07
-1.49519e-06
-1.54875e-06
-1.48503e-06
-2.22155e-06
-1.46637e-06
-2.88343e-06
-1.42238e-06
-3.54691e-06
-1.31859e-06
-4.20518e-06
-1.07473e-06
-4.76043e-06
-6.71035e-07
-4.93185e-06
-4.23365e-06
-1.31662e-08
4.01836e-07
-3.46788e-08
5.91649e-07
-5.87466e-08
6.49218e-07
-8.38283e-08
6.77804e-07
-1.09323e-07
6.97467e-07
-1.34949e-07
7.13981e-07
-1.60586e-07
7.2976e-07
-1.86215e-07
7.46114e-07
-2.11891e-07
7.63912e-07
-2.37735e-07
7.83839e-07
-2.63923e-07
8.06503e-07
-2.90686e-07
8.32477e-07
-3.18299e-07
8.62319e-07
-3.47085e-07
8.96557e-07
-3.77407e-07
9.35664e-07
-4.09665e-07
9.80029e-07
-4.443e-07
1.02993e-06
-4.81797e-07
1.08557e-06
-5.227e-07
1.14708e-06
-5.67612e-07
1.21472e-06
-6.1716e-07
1.28885e-06
-6.71893e-07
1.36996e-06
-7.32084e-07
1.45822e-06
-7.97354e-07
1.55254e-06
-8.66515e-07
1.64594e-06
-9.32228e-07
1.7093e-06
-9.90716e-07
1.6967e-06
-1.03638e-06
1.52088e-06
-1.06926e-06
1.12285e-06
-1.09299e-06
5.34925e-07
-1.10922e-06
-1.465e-07
-1.1191e-06
-8.49243e-07
-1.12715e-06
-1.5407e-06
-1.13564e-06
-2.21305e-06
-1.14039e-06
-2.87869e-06
-1.12676e-06
-3.56053e-06
-1.06576e-06
-4.26618e-06
-8.88464e-07
-4.93772e-06
-5.6339e-07
-5.25693e-06
-4.79704e-06
-1.17054e-08
4.13541e-07
-3.14614e-08
6.11405e-07
-5.37289e-08
6.71486e-07
-7.69567e-08
7.01031e-07
-1.00496e-07
7.21007e-07
-1.24014e-07
7.37498e-07
-1.47334e-07
7.53081e-07
-1.70386e-07
7.69165e-07
-1.93169e-07
7.86696e-07
-2.15748e-07
8.06418e-07
-2.38233e-07
8.28988e-07
-2.60778e-07
8.55022e-07
-2.83568e-07
8.85109e-07
-3.06814e-07
9.19802e-07
-3.30739e-07
9.5959e-07
-3.55574e-07
1.00486e-06
-3.81544e-07
1.0559e-06
-4.08859e-07
1.11288e-06
-4.37697e-07
1.17592e-06
-4.68165e-07
1.24518e-06
-5.00218e-07
1.3209e-06
-5.33522e-07
1.40327e-06
-5.67285e-07
1.49198e-06
-5.99859e-07
1.58512e-06
-6.28344e-07
1.67442e-06
-6.47471e-07
1.72843e-06
-6.59617e-07
1.70885e-06
-6.68493e-07
1.52975e-06
-6.8121e-07
1.13557e-06
-7.00613e-07
5.54328e-07
-7.23227e-07
-1.23885e-07
-7.46726e-07
-8.25744e-07
-7.73939e-07
-1.51349e-06
-8.06064e-07
-2.18093e-06
-8.38091e-07
-2.84666e-06
-8.56822e-07
-3.5418e-06
-8.35208e-07
-4.2878e-06
-7.14111e-07
-5.05882e-06
-4.42356e-07
-5.52868e-06
-5.2394e-06
-1.03738e-08
4.23915e-07
-2.84801e-08
6.29511e-07
-4.90267e-08
6.92033e-07
-7.04499e-08
7.22455e-07
-9.20523e-08
7.42609e-07
-1.13445e-07
7.58891e-07
-1.34399e-07
7.74035e-07
-1.54788e-07
7.89554e-07
-1.7456e-07
8.06468e-07
-1.93719e-07
8.25577e-07
-2.12311e-07
8.47581e-07
-2.30415e-07
8.73125e-07
-2.48123e-07
9.02817e-07
-2.65534e-07
9.37214e-07
-2.82736e-07
9.76792e-07
-2.99791e-07
1.02192e-06
-3.16714e-07
1.07283e-06
-3.33449e-07
1.12962e-06
-3.49829e-07
1.1923e-06
-3.65507e-07
1.26086e-06
-3.79842e-07
1.33524e-06
-3.91737e-07
1.41516e-06
-3.99437e-07
1.49968e-06
-4.00227e-07
1.58591e-06
-3.90567e-07
1.66476e-06
-3.69904e-07
1.70777e-06
-3.40144e-07
1.67909e-06
-3.14461e-07
1.50407e-06
-3.07343e-07
1.12845e-06
-3.22884e-07
5.6987e-07
-3.53877e-07
-9.28924e-08
-3.94255e-07
-7.85366e-07
-4.4477e-07
-1.46297e-06
-5.04637e-07
-2.12106e-06
-5.67248e-07
-2.78405e-06
-6.19065e-07
-3.48998e-06
-6.35407e-07
-4.27145e-06
-5.7582e-07
-5.11841e-06
-3.68032e-07
-5.73647e-06
-5.60743e-06
-9.22164e-09
4.33137e-07
-2.58414e-08
6.46131e-07
-4.47981e-08
7.10989e-07
-6.4514e-08
7.4217e-07
-8.424e-08
7.62335e-07
-1.03532e-07
7.78183e-07
-1.22107e-07
7.9261e-07
-1.39788e-07
8.07235e-07
-1.56472e-07
8.23151e-07
-1.72108e-07
8.41213e-07
-1.86683e-07
8.62156e-07
-2.00203e-07
8.86645e-07
-2.12678e-07
9.15292e-07
-2.24105e-07
9.48641e-07
-2.34448e-07
9.87136e-07
-2.43619e-07
1.03109e-06
-2.51449e-07
1.08066e-06
-2.57653e-07
1.13582e-06
-2.61779e-07
1.19643e-06
-2.63119e-07
1.2622e-06
-2.60585e-07
1.3327e-06
-2.52561e-07
1.40714e-06
-2.36715e-07
1.48383e-06
-2.09852e-07
1.55904e-06
-1.68313e-07
1.62322e-06
-1.1377e-07
1.65323e-06
-4.98512e-08
1.61517e-06
4.2642e-09
1.44996e-06
3.07929e-08
1.10192e-06
2.41076e-08
5.76555e-07
-1.32895e-08
-5.54953e-08
-7.17811e-08
-7.26874e-07
-1.47918e-07
-1.38684e-06
-2.37447e-07
-2.03153e-06
-3.31624e-07
-2.68987e-06
-4.15617e-07
-3.40599e-06
-4.6694e-07
-4.22013e-06
-4.53545e-07
-5.1318e-06
-2.97532e-07
-5.89248e-06
-5.90496e-06
-8.30778e-09
4.41444e-07
-2.36681e-08
6.61491e-07
-4.12236e-08
7.28545e-07
-5.93793e-08
7.60326e-07
-7.73332e-08
7.80289e-07
-9.45863e-08
7.95436e-07
-1.10806e-07
8.0883e-07
-1.25769e-07
8.22198e-07
-1.39329e-07
8.36711e-07
-1.51388e-07
8.53273e-07
-1.61883e-07
8.7265e-07
-1.70759e-07
8.95521e-07
-1.77956e-07
9.22489e-07
-1.83384e-07
9.54069e-07
-1.86908e-07
9.90659e-07
-1.88317e-07
1.0325e-06
-1.87302e-07
1.07964e-06
-1.83411e-07
1.13193e-06
-1.75988e-07
1.18901e-06
-1.64091e-07
1.2503e-06
-1.46376e-07
1.31499e-06
-1.2097e-07
1.38173e-06
-8.53468e-08
1.44821e-06
-3.62925e-08
1.50999e-06
2.91218e-08
1.55781e-06
1.0964e-07
1.57271e-06
1.99656e-07
1.52515e-06
2.81036e-07
1.36858e-06
3.28655e-07
1.0543e-06
3.28466e-07
5.76744e-07
2.84966e-07
-1.19951e-08
2.09326e-07
-6.51235e-07
1.08423e-07
-1.28593e-06
-1.01308e-08
-1.91298e-06
-1.35056e-07
-2.56495e-06
-2.49965e-07
-3.29108e-06
-3.33259e-07
-4.13684e-06
-3.57811e-07
-5.10725e-06
-2.48424e-07
-6.00187e-06
-6.15339e-06
-7.70107e-09
4.49145e-07
-2.21037e-08
6.75894e-07
-3.85085e-08
7.44949e-07
-5.5303e-08
7.77121e-07
-7.163e-08
7.96616e-07
-8.69387e-08
8.10745e-07
-1.00853e-07
8.22744e-07
-1.13115e-07
8.34459e-07
-1.23543e-07
8.47139e-07
-1.32009e-07
8.61739e-07
-1.38411e-07
8.79052e-07
-1.4265e-07
8.9976e-07
-1.44611e-07
9.2445e-07
-1.44143e-07
9.53601e-07
-1.41035e-07
9.8755e-07
-1.34993e-07
1.02646e-06
-1.25615e-07
1.07026e-06
-1.12348e-07
1.11866e-06
-9.44322e-08
1.17109e-06
-7.08303e-08
1.2267e-06
-4.01248e-08
1.28428e-06
-4.36855e-10
1.34204e-06
5.06234e-08
1.39715e-06
1.15738e-07
1.44488e-06
1.97114e-07
1.47643e-06
2.93737e-07
1.47609e-06
3.99285e-07
1.4196e-06
4.96787e-07
1.27107e-06
5.60157e-07
9.90932e-07
5.70235e-07
5.66666e-07
5.27021e-07
3.1219e-08
4.38116e-07
-5.6233e-07
3.16528e-07
-1.16434e-06
1.73628e-07
-1.77008e-06
2.24206e-08
-2.41374e-06
-1.20166e-07
-3.1485e-06
-2.316e-07
-4.0254e-06
-2.85726e-07
-5.05312e-06
-2.15198e-07
-6.0724e-06
-6.36858e-06
-7.48577e-09
4.56631e-07
-2.1316e-08
6.89724e-07
-3.6889e-08
7.60523e-07
-5.25718e-08
7.92803e-07
-6.74513e-08
8.11496e-07
-8.09314e-08
8.24225e-07
-9.26047e-08
8.34418e-07
-1.02191e-07
8.44045e-07
-1.09495e-07
8.54443e-07
-1.14372e-07
8.66616e-07
-1.167e-07
8.8138e-07
-1.16354e-07
8.99415e-07
-1.13187e-07
9.21283e-07
-1.07007e-07
9.47421e-07
-9.75605e-08
9.78104e-07
-8.45086e-08
1.01341e-06
-6.74042e-08
1.05316e-06
-4.56631e-08
1.09692e-06
-1.85122e-08
1.14394e-06
1.50634e-08
1.19313e-06
5.63732e-08
1.24297e-06
1.07085e-07
1.29133e-06
1.6918e-07
1.33506e-06
2.44762e-07
1.36929e-06
3.35119e-07
1.38608e-06
4.38931e-07
1.37227e-06
5.50052e-07
1.30848e-06
6.53563e-07
1.16756e-06
7.25674e-07
9.18822e-07
7.4473e-07
5.4761e-07
7.03811e-07
7.21379e-08
6.08893e-07
-4.67411e-07
4.74175e-07
-1.02963e-06
3.13839e-07
-1.60974e-06
1.42388e-07
-2.24229e-06
-2.19821e-08
-2.98413e-06
-1.55785e-07
-3.8916e-06
-2.29494e-07
-4.97941e-06
-1.92602e-07
-6.10929e-06
-6.56119e-06
-7.76613e-09
4.64397e-07
-2.15057e-08
7.03464e-07
-3.66406e-08
7.75657e-07
-5.15073e-08
8.0767e-07
-6.51411e-08
8.25129e-07
-7.6913e-08
8.35997e-07
-8.64027e-08
8.43908e-07
-9.33293e-08
8.50972e-07
-9.75098e-08
8.58624e-07
-9.88035e-08
8.6791e-07
-9.70887e-08
8.79665e-07
-9.22361e-08
8.94562e-07
-8.40866e-08
9.13134e-07
-7.24333e-08
9.35768e-07
-5.7007e-08
9.62677e-07
-3.74623e-08
9.93861e-07
-1.33446e-08
1.02904e-06
1.58963e-08
1.06768e-06
5.09681e-08
1.10887e-06
9.27653e-08
1.15133e-06
1.42397e-07
1.19334e-06
2.01181e-07
1.23255e-06
2.70569e-07
1.26567e-06
3.51891e-07
1.28797e-06
4.45615e-07
1.29235e-06
5.4992e-07
1.26797e-06
6.58952e-07
1.19945e-06
7.60058e-07
1.06646e-06
8.32991e-07
8.45889e-07
8.5651e-07
5.24091e-07
8.1949e-07
1.09158e-07
7.24476e-07
-3.72398e-07
5.84574e-07
-8.89724e-07
4.14815e-07
-1.43998e-06
2.30257e-07
-2.05773e-06
4.90494e-08
-2.80292e-06
-1.03785e-07
-3.73877e-06
-1.95049e-07
-4.88815e-06
-1.78706e-07
-6.12563e-06
-6.73989e-06
-8.67522e-09
4.73073e-07
-2.29231e-08
7.17712e-07
-3.80894e-08
7.90824e-07
-5.24723e-08
8.22053e-07
-6.50647e-08
8.37722e-07
-7.52278e-08
8.4616e-07
-8.25576e-08
8.51237e-07
-8.67981e-08
8.55212e-07
-8.78236e-08
8.59649e-07
-8.55158e-08
8.65602e-07
-7.97779e-08
8.73927e-07
-7.04975e-08
8.85282e-07
-5.75252e-08
9.00162e-07
-4.066e-08
9.18902e-07
-1.96383e-08
9.41656e-07
5.87622e-09
9.68347e-07
3.62614e-08
9.98655e-07
7.20369e-08
1.0319e-06
1.13791e-07
1.06711e-06
1.62229e-07
1.10289e-06
2.18177e-07
1.13739e-06
2.82544e-07
1.16818e-06
3.56212e-07
1.192e-06
4.39775e-07
1.20441e-06
5.32936e-07
1.19919e-06
6.33413e-07
1.16749e-06
7.35634e-07
1.09723e-06
8.28904e-07
9.73186e-07
8.966e-07
7.78193e-07
9.19969e-07
5.00721e-07
8.86503e-07
1.42624e-07
7.95429e-07
-2.81323e-07
6.56983e-07
-7.51278e-07
4.84947e-07
-1.26795e-06
2.93744e-07
-1.86653e-06
1.01302e-07
-2.61048e-06
-6.62376e-08
-3.57123e-06
-1.72174e-07
-4.78221e-06
-1.70375e-07
-6.12743e-06
-6.91027e-06
-1.03906e-08
4.83463e-07
-2.58874e-08
7.33208e-07
-4.16319e-08
8.06568e-07
-5.58783e-08
8.36299e-07
-6.76025e-08
8.49446e-07
-7.61995e-08
8.54757e-07
-8.13193e-08
8.56357e-07
-8.27676e-08
8.5666e-07
-8.05447e-08
8.57426e-07
-7.45631e-08
8.59621e-07
-6.47838e-08
8.64148e-07
-5.11324e-08
8.7163e-07
-3.3486e-08
8.82515e-07
-1.16659e-08
8.97082e-07
1.45648e-08
9.15425e-07
4.54955e-08
9.37416e-07
8.14866e-08
9.62664e-07
1.22927e-07
9.90463e-07
1.70271e-07
1.01977e-06
2.24011e-07
1.04915e-06
2.84666e-07
1.07674e-06
3.52726e-07
1.10012e-06
4.28532e-07
1.11619e-06
5.12028e-07
1.12091e-06
6.02283e-07
1.10894e-06
6.9668e-07
1.07309e-06
7.89947e-07
1.00396e-06
8.73022e-07
8.90112e-07
9.32422e-07
7.18793e-07
9.52585e-07
4.80559e-07
9.21597e-07
1.73611e-07
8.36354e-07
-1.9608e-07
7.03652e-07
-6.18576e-07
5.34705e-07
-1.099e-06
3.42153e-07
-1.67398e-06
1.43103e-07
-2.41143e-06
-3.59367e-08
-3.39219e-06
-1.52432e-07
-4.66572e-06
-1.68334e-07
-6.11153e-06
-7.0786e-06
-1.31621e-08
4.96625e-07
-3.08215e-08
7.50868e-07
-4.77616e-08
8.23508e-07
-6.21903e-08
8.50728e-07
-7.31246e-08
8.6038e-07
-8.00635e-08
8.61696e-07
-8.28196e-08
8.59113e-07
-8.13432e-08
8.55184e-07
-7.56089e-08
8.51692e-07
-6.57832e-08
8.49795e-07
-5.18831e-08
8.50248e-07
-3.38765e-08
8.53624e-07
-1.16753e-08
8.60314e-07
1.48709e-08
8.70536e-07
4.5963e-08
8.84333e-07
8.18536e-08
9.01526e-07
1.22828e-07
9.2169e-07
1.69186e-07
9.44104e-07
2.2123e-07
9.67726e-07
2.79236e-07
9.91145e-07
3.43427e-07
1.01255e-06
4.13914e-07
1.02963e-06
4.90563e-07
1.03954e-06
5.72782e-07
1.03869e-06
6.59158e-07
1.02256e-06
7.46869e-07
9.85383e-07
8.31006e-07
9.19826e-07
9.03864e-07
8.17253e-07
9.54542e-07
6.68115e-07
9.70497e-07
4.64604e-07