# vtk DataFile Version 2.0
tracks
ASCII
DATASET POLYDATA
POINTS 12025 float
-0.0206 0.000999966 1e-05 -0.02058 0.000999968 1e-05 -0.02056 0.000999973 1e-05 -0.02054 0.00099998
1e-05 -0.02052 0.000999989 1e-05 -0.0205 0.001 1e-05 -0.0202034 0.00100017 1e-05
-0.0199069 0.00100062 1e-05 -0.0196103 0.00100136 1e-05 -0.0193137 0.00100236 1e-05 -0.0190172
0.00100364 1e-05 -0.0187132 0.00100519 1e-05 -0.0184093 0.00100683 1e-05 -0.0181054 0.00100855
1e-05 -0.0178015 0.00101035 1e-05 -0.0174976 0.00101224 1e-05 -0.0172058 0.00101411 1e-05
-0.016914 0.001016 1e-05 -0.0166222 0.00101791 1e-05 -0.0163305 0.00101986 1e-05 -0.0160387
0.00102183 1e-05 -0.0158935 0.00102283 1e-05 -0.0157484 0.00102383 1e-05 -0.0156032 0.00102485
1e-05 -0.0154581 0.00102587 1e-05 -0.015324 0.00102682 1e-05 -0.0151868 0.0010278 1e-05
-0.0150496 0.00102878 1e-05 -0.0149125 0.00102978 1e-05 -0.0147753 0.00103078 1e-05 -0.0146381
0.00103179 1e-05 -0.0143692 0.00103379 1e-05 -0.0141002 0.0010358 1e-05 -0.0138313 0.00103784
1e-05 -0.0135624 0.00103989 1e-05 -0.0132934 0.00104196 1e-05 -0.0130353 0.00104397 1e-05
-0.0127771 0.00104598 1e-05 -0.0125189 0.00104799 1e-05 -0.0122607 0.00105 1e-05 -0.0120025
0.00105201 1e-05 -0.0117547 0.00105394 1e-05 -0.0115068 0.00105586 1e-05 -0.0112589 0.00105776
1e-05 -0.0110111 0.00105964 1e-05 -0.0107632 0.00106151 1e-05 -0.0105252 0.0010633 1e-05
-0.0102873 0.00106507 1e-05 -0.0100493 0.00106682 1e-05 -0.00981133 0.00106856 1e-05 -0.00957337
0.00107028 1e-05 -0.00934491 0.00107194 1e-05 -0.00911645 0.00107357 1e-05 -0.00888799 0.00107519
1e-05 -0.00865954 0.00107679 1e-05 -0.00843108 0.00107839 1e-05 -0.00821175 0.00107992 1e-05
-0.00799242 0.00108143 1e-05 -0.00777309 0.00108293 1e-05 -0.00755376 0.00108441 1e-05 -0.00733443
0.00108587 1e-05 -0.00712387 0.00108728 1e-05 -0.0069133 0.00108866 1e-05 -0.00670273 0.00109002
1e-05 -0.00649216 0.00109136 1e-05 -0.0062816 0.00109268 1e-05 -0.00607944 0.00109395 1e-05
-0.00587729 0.00109518 1e-05 -0.00567514 0.0010964 1e-05 -0.00547298 0.0010976 1e-05 -0.00527083
0.00109879 1e-05 -0.00507675 0.00109993 1e-05 -0.00488267 0.00110104 1e-05 -0.0046886 0.00110213
1e-05 -0.00449452 0.00110321 1e-05 -0.00430044 0.00110428 1e-05 -0.00411412 0.00110531 1e-05
-0.0039278 0.00110632 1e-05 -0.00374147 0.00110731 1e-05 -0.00355515 0.00110829 1e-05 -0.00336883
0.00110926 1e-05 -0.00318995 0.0011102 1e-05 -0.00301107 0.00111111 1e-05 -0.00283219 0.00111201
1e-05 -0.00265331 0.0011129 1e-05 -0.00247443 0.00111377 1e-05 -0.0023027 0.00111462 1e-05
-0.00213097 0.00111543 1e-05 -0.00195924 0.00111623 1e-05 -0.0017875 0.00111702 1e-05 -0.00161577
0.00111779 1e-05 -0.0014509 0.00111853 1e-05 -0.00128603 0.00111924 1e-05 -0.00112116 0.00111994
1e-05 -0.000956289 0.00112061 1e-05 -0.000791418 0.00112127 1e-05 -0.000633135 0.00112189 1e-05
-0.000474851 0.00112249 1e-05 -0.000316567 0.00112307 1e-05 -0.000158283 0.00112362 1e-05 0
0.00112416 1e-05 0.000105677 0.00112451 1e-05 0.000211355 0.00112484 1e-05 0.000317032 0.00112517
1e-05 0.00042271 0.0011255 1e-05 0.000528387 0.00112581 1e-05 0.000634886 0.00112613 1e-05
0.000741385 0.00112644 1e-05 0.000847885 0.00112674 1e-05 0.000954384 0.00112704 1e-05 0.00106088
0.00112734 1e-05 0.00116821 0.00112764 1e-05 0.00127554 0.00112793 1e-05 0.00138286 0.00112821
1e-05 0.00149019 0.00112849 1e-05 0.00159752 0.00112877 1e-05 0.00170568 0.00112905 1e-05
0.00181384 0.00112932 1e-05 0.001922 0.00112958 1e-05 0.00203016 0.00112984 1e-05 0.00213833
0.00113009 1e-05 0.00224733 0.00113034 1e-05 0.00235633 0.00113058 1e-05 0.00246533 0.00113082
1e-05 0.00257434 0.00113105 1e-05 0.00268334 0.00113127 1e-05 0.00279319 0.00113149 1e-05
0.00290304 0.00113171 1e-05 0.00301289 0.00113192 1e-05 0.00312274 0.00113212 1e-05 0.00323259
0.00113232 1e-05 0.00334329 0.00113251 1e-05 0.003454 0.0011327 1e-05 0.0035647 0.00113288
1e-05 0.0036754 0.00113306 1e-05 0.00378611 0.00113323 1e-05 0.00389767 0.0011334 1e-05
0.00400924 0.00113357 1e-05 0.0041208 0.00113372 1e-05 0.00423237 0.00113388 1e-05 0.00434393
0.00113402 1e-05 0.00445636 0.00113417 1e-05 0.00456879 0.0011343 1e-05 0.00468123 0.00113443
1e-05 0.00479366 0.00113456 1e-05 0.00490609 0.00113468 1e-05 0.0050194 0.00113479 1e-05
0.0051327 0.0011349 1e-05 0.00524601 0.001135 1e-05 0.00535931 0.0011351 1e-05 0.00547262
0.00113519 1e-05 0.00558681 0.00113528 1e-05 0.005701 0.00113537 1e-05 0.00581518 0.00113544
1e-05 0.00592937 0.00113551 1e-05 0.00604356 0.00113558 1e-05 0.00615863 0.00113564 1e-05
0.00627371 0.00113569 1e-05 0.00638878 0.00113574 1e-05 0.00650386 0.00113578 1e-05 0.00661893
0.00113582 1e-05 0.0067349 0.00113585 1e-05 0.00685087 0.00113588 1e-05 0.00696684 0.0011359
1e-05 0.00708281 0.00113591 1e-05 0.00719878 0.00113592 1e-05 0.00731565 0.00113592 1e-05
0.00743252 0.00113591 1e-05 0.00754939 0.0011359 1e-05 0.00766626 0.00113588 1e-05 0.00778313
0.00113585 1e-05 0.00790091 0.00113582 1e-05 0.00801869 0.00113578 1e-05 0.00813647 0.00113573
1e-05 0.00825425 0.00113568 1e-05 0.00837203 0.00113562 1e-05 0.00849073 0.00113555 1e-05
0.00860942 0.00113548 1e-05 0.00872812 0.00113539 1e-05 0.00884682 0.0011353 1e-05 0.00896551
0.00113521 1e-05 0.00905761 0.00113513 1e-05 0.00914971 0.00113504 1e-05 0.00924181 0.00113495
1e-05 0.00933391 0.00113485 1e-05 0.00942261 0.00113476 1e-05 0.00945081 0.00113473 1e-05
0.00947901 0.00113469 1e-05 0.00950721 0.00113466 1e-05 0.0095354 0.00113463 1e-05 0.0095636
0.0011346 1e-05 0.00968415 0.00113445 1e-05 0.0098047 0.00113429 1e-05 0.00992525 0.00113413
1e-05 0.0100458 0.00113396 1e-05 0.0101663 0.00113379 1e-05 0.0102878 0.00113359 1e-05
0.0104093 0.00113339 1e-05 0.0105308 0.00113319 1e-05 0.0106523 0.00113298 1e-05 0.0107738
0.00113275 1e-05 0.0108962 0.00113251 1e-05 0.0110186 0.00113227 1e-05 0.0111411 0.00113202
1e-05 0.0112635 0.00113176 1e-05 0.0113859 0.00113149 1e-05 0.0115093 0.0011312 1e-05
0.0116327 0.00113091 1e-05 0.0117561 0.00113061 1e-05 0.0118795 0.00113031 1e-05 0.0120028
0.00113 1e-05 0.0121272 0.00112965 1e-05 0.0122515 0.00112931 1e-05 0.0123759 0.00112897
1e-05 0.0125002 0.00112861 1e-05 0.0126245 0.00112825 1e-05 0.0127498 0.00112785 1e-05
0.0128752 0.00112747 1e-05 0.0130005 0.00112707 1e-05 0.0131258 0.00112666 1e-05 0.0132511
0.00112625 1e-05 0.0133774 0.0011258 1e-05 0.0135036 0.00112536 1e-05 0.0136299 0.00112491
1e-05 0.0137562 0.00112445 1e-05 0.0138825 0.00112398 1e-05 0.0140098 0.00112348 1e-05
0.014137 0.00112298 1e-05 0.0142643 0.00112247 1e-05 0.0143915 0.00112195 1e-05 0.0145188
0.00112143 1e-05 0.0146471 0.00112087 1e-05 0.0147753 0.00112032 1e-05 0.0149036 0.00111975
1e-05 0.0150318 0.00111918 1e-05 0.0151601 0.00111859 1e-05 0.0152893 0.00111798 1e-05
0.0154186 0.00111737 1e-05 0.0155478 0.00111674 1e-05 0.0156771 0.00111611 1e-05 0.0158063
0.00111546 1e-05 0.0159366 0.00111479 1e-05 0.0160668 0.00111411 1e-05 0.0161971 0.00111343
1e-05 0.0163273 0.00111273 1e-05 0.0164576 0.00111202 1e-05 0.0165889 0.00111129 1e-05
0.0167201 0.00111055 1e-05 0.0168514 0.0011098 1e-05 0.0169827 0.00110903 1e-05 0.0171139
0.00110826 1e-05 0.0172462 0.00110748 1e-05 0.0173785 0.00110667 1e-05 0.0175108 0.00110585
1e-05 0.0176431 0.00110502 1e-05 0.0177754 0.00110419 1e-05 0.0179087 0.00110334 1e-05
0.018042 0.00110248 1e-05 0.0181753 0.00110159 1e-05 0.0183087 0.00110069 1e-05 0.018442
0.00109979 1e-05 0.0185763 0.00109889 1e-05 0.0187107 0.00109796 1e-05 0.018845 0.00109701
1e-05 0.0189794 0.00109604 1e-05 0.0191137 0.00109508 1e-05 0.0192491 0.00109412 1e-05
0.0193845 0.00109313 1e-05 0.0195199 0.00109211 1e-05 0.0196553 0.00109108 1e-05 0.0197907
0.00109005 1e-05 0.0199272 0.00108904 1e-05 0.0200636 0.00108799 1e-05 0.0202001 0.00108691
1e-05 0.0203365 0.00108581 1e-05 0.020473 0.00108473 1e-05 0.0206105 0.00108367 1e-05
0.020748 0.00108256 1e-05 0.0208855 0.00108142 1e-05 0.021023 0.00108027 1e-05 0.0211606
0.00107914 1e-05 0.0212991 0.00107802 1e-05 0.0214377 0.00107687 1e-05 0.0215763 0.00107567
1e-05 0.0217149 0.00107447 1e-05 0.0218535 0.00107329 1e-05 0.0219931 0.00107214 1e-05
0.0221328 0.00107094 1e-05 0.0222724 0.0010697 1e-05 0.0224121 0.00106845 1e-05 0.0225517
0.00106723 1e-05 0.0226925 0.00106604 1e-05 0.0228332 0.0010648 1e-05 0.022974 0.00106352
1e-05 0.0231147 0.00106224 1e-05 0.0232555 0.00106099 1e-05 0.0233973 0.00105976 1e-05
0.0235391 0.00105849 1e-05 0.023681 0.00105718 1e-05 0.0238228 0.00105586 1e-05 0.0239647
0.00105459 1e-05 0.0241076 0.00105334 1e-05 0.0242505 0.00105204 1e-05 0.0243935 0.0010507
1e-05 0.0245364 0.00104937 1e-05 0.0246794 0.00104807 1e-05 0.0248234 0.0010468 1e-05
0.0249675 0.00104549 1e-05 0.0251115 0.00104413 1e-05 0.0252556 0.00104278 1e-05 0.0253996
0.00104147 1e-05 0.0255448 0.00104019 1e-05 0.02569 0.00103887 1e-05 0.0258351 0.0010375
1e-05 0.0259803 0.00103614 1e-05 0.0261255 0.00103482 1e-05 0.0262718 0.00103354 1e-05
0.0264181 0.00103221 1e-05 0.0265644 0.00103084 1e-05 0.0267107 0.00102949 1e-05 0.026857
0.00102817 1e-05 0.0270044 0.00102688 1e-05 0.0271519 0.00102555 1e-05 0.0272993 0.0010242
1e-05 0.0274468 0.00102285 1e-05 0.0275942 0.00102153 1e-05 0.0277428 0.00102025 1e-05
0.0278914 0.00101892 1e-05 0.0280399 0.00101758 1e-05 0.0281885 0.00101624 1e-05 0.0283371
0.00101492 1e-05 0.0284869 0.00101365 1e-05 0.0286366 0.00101233 1e-05 0.0287863 0.00101099
1e-05 0.0289361 0.00100966 1e-05 0.0290858 0.00100835 1e-05 0.0292367 0.00100708 1e-05
0.0293876 0.00100576 1e-05 0.0295385 0.00100444 1e-05 0.0296894 0.00100312 1e-05 0.0298403
0.00100181 1e-05 0.0299924 0.00100054 1e-05 0.0301445 0.000999229 1e-05 0.0302966 0.000997913
1e-05 0.0304486 0.000996602 1e-05 0.0306007 0.000995297 1e-05 0.030754 0.000994024 1e-05
0.0309072 0.00099271 1e-05 0.0310605 0.000991398 1e-05 0.0312138 0.000990089 1e-05 0.031367
0.000988784 1e-05 0.0315215 0.000987505 1e-05 0.0316759 0.000986189 1e-05 0.0318304 0.000984875
1e-05 0.0319848 0.000983562 1e-05 0.0321393 0.00098225 1e-05 0.0322949 0.000980957 1e-05
0.0324506 0.000979632 1e-05 0.0326062 0.000978306 1e-05 0.0327619 0.000976979 1e-05 0.0329175
[...]
POINT_DATA 12025
FIELD attributes 4
age 1 12025 float
-9.99908e-06 -7.99915e-06 -5.99927e-06 -3.99945e-06 -1.99969e-06 0 2.96522e-05 5.92881e-05 8.89076e-05 0.000118511 0.000148098
0.000178383 0.000208656 0.000238904 0.000269128 0.000299328 0.000328283 0.00035723 0.000386156 0.000415062 0.000443947
0.000458304 0.000472658 0.000487008 0.000501353 0.000514602 0.000528152 0.000541698 0.00055524 0.000568778 0.000582312
0.000608834 0.000635343 0.000661837 0.000688315 0.000714778 0.000740165 0.000765546 0.000790913 0.000816267 0.000841608
0.000865915 0.000890223 0.000914521 0.000938808 0.000963084 0.000986369 0.00100966 0.00103294 0.00105622 0.00107949
0.0011018 0.00112413 0.00114645 0.00116876 0.00119107 0.00121246 0.00123387 0.00125527 0.00127666 0.00129806
0.00131857 0.0013391 0.00135962 0.00138014 0.00140066 0.00142033 0.00144003 0.00145971 0.0014794 0.00149909
0.00151796 0.00153686 0.00155575 0.00157464 0.00159353 0.00161165 0.00162978 0.00164791 0.00166604 0.00168416
0.00170155 0.00171895 0.00173635 0.00175375 0.00177115 0.00178784 0.00180454 0.00182124 0.00183794 0.00185464
0.00187066 0.00188669 0.00190272 0.00191874 0.00193477 0.00195016 0.00196555 0.00198093 0.00199632 0.00201171
0.00202199 0.00203226 0.00204253 0.00205281 0.00206309 0.00207345 0.0020838 0.00209416 0.00210452 0.00211488
0.00212533 0.00213577 0.00214621 0.00215665 0.00216709 0.00217763 0.00218815 0.00219868 0.0022092 0.00221973
0.00223035 0.00224096 0.00225157 0.00226218 0.0022728 0.0022835 0.0022942 0.0023049 0.0023156 0.0023263
0.00233709 0.00234788 0.00235867 0.00236946 0.00238025 0.00239113 0.00240201 0.00241289 0.00242377 0.00243465
0.00244563 0.0024566 0.00246757 0.00247855 0.00248953 0.0025006 0.00251167 0.00252274 0.00253381 0.00254489
0.00255606 0.00256723 0.00257839 0.00258957 0.00260075 0.00261202 0.00262329 0.00263456 0.00264584 0.00265712
0.00266851 0.00267988 0.00269126 0.00270265 0.00271404 0.00272553 0.00273702 0.00274851 0.00276001 0.00277152
0.00278313 0.00279473 0.00280635 0.00281796 0.00282959 0.00284132 0.00285305 0.00286478 0.00287653 0.00288828
0.0028974 0.00290653 0.00291566 0.0029248 0.00293361 0.00293641 0.00293921 0.00294201 0.00294482 0.00294762
0.00295961 0.0029716 0.00298361 0.00299562 0.00300765 0.00301979 0.00303193 0.00304408 0.00305624 0.00306841
0.00308073 0.00309302 0.00310532 0.00311764 0.00312997 0.00314245 0.0031549 0.00316737 0.00317985 0.00319234
0.003205 0.00321763 0.00323026 0.00324291 0.00325557 0.00326843 0.00328122 0.00329404 0.00330686 0.00331971
0.00333276 0.00334574 0.00335874 0.00337176 0.00338479 0.00339804 0.00341121 0.00342441 0.00343762 0.00345085
0.00346431 0.00347769 0.00349109 0.00350451 0.00351794 0.00353161 0.0035452 0.00355881 0.00357245 0.0035861
0.00359999 0.00361381 0.00362764 0.00364149 0.00365538 0.00366949 0.00368355 0.00369761 0.00371169 0.00372582
0.00374015 0.00375444 0.00376874 0.00378306 0.00379743 0.003812 0.00382654 0.00384107 0.00385563 0.00387025
0.00388506 0.00389985 0.00391463 0.00392944 0.00394431 0.00395936 0.0039744 0.00398944 0.0040045 0.00401963
0.00403492 0.00405022 0.00406552 0.00408085 0.00409623 0.00411178 0.00412734 0.0041429 0.00415849 0.00417414
0.00418994 0.00420577 0.0042216 0.00423747 0.00425337 0.00426944 0.00428553 0.00430164 0.00431778 0.00433395
0.00435028 0.00436664 0.00438303 0.00439944 0.00441588 0.00443248 0.00444911 0.00446578 0.00448246 0.00449918
0.00451605 0.00453296 0.0045499 0.00456686 0.00458385 0.004601 0.00461818 0.0046354 0.00465264 0.00466991
0.00468732 0.00470478 0.00472228 0.0047398 0.00475734 0.00477504 0.00479277 0.00481055 0.00482834 0.00484616
0.00486413 0.00488214 0.00490019 0.00491826 0.00493635 0.0049546 0.00497288 0.00499121 0.00500955 0.00502792
0.00504643 0.005065 0.00508359 0.00510221 0.00512084 0.00513963 0.00515846 0.00517733 0.00519621 0.00521511
0.00523417 0.00525328 0.00527241 0.00529156 0.00531072 0.00533005 0.00534942 0.00536881 0.00538822 0.00540766
0.00542724 0.00544688 0.00546653 0.0054862 0.00550589 0.00552574 0.00554563 0.00556553 0.00558546 0.0056054
0.00562551 0.00564565 0.00566581 0.00568599 0.00570619 0.00572655 0.00574694 0.00576735 0.00578778 0.00580823
0.00582884 0.00584948 0.00587014 0.00589082 0.00591151 0.00593237 0.00595326 0.00597416 0.00599508 0.00601602
0.00602666 0.0060373 0.00604795 0.0060586 0.00606894 0.0060795 0.00609006 0.00610063 0.0061112 0.00612177
0.00614313 0.00616451 0.0061859 0.00620731 0.00622874 0.00625034 0.00627196 0.0062936 0.00631525 0.00633692
0.00635877 0.00638064 0.00640252 0.00642442 0.00644634 0.00646843 0.00649054 0.00651267 0.00653482 0.00655699
0.00657932 0.00660169 0.00662407 0.00664646 0.00666888 0.00669147 0.00671408 0.00673671 0.00675936 0.00678203
0.00680487 0.00682774 0.00685063 0.00687354 0.00689646 0.00691955 0.00694268 0.00696583 0.00698899 0.00701217
0.00703553 0.00705891 0.00708233 0.00710576 0.0071292 0.00715282 0.00717647 0.00720015 0.00722386 0.00724756
0.00727145 0.00729538 0.00731933 0.00734331 0.00736729 0.00739146 0.00741566 0.00743989 0.00746414 0.0074884
0.00751285 0.00753733 0.00756185 0.00758638 0.00761092 0.00763565 0.00766042 0.00768522 0.00771005 0.00773487
0.0077599 0.00778495 0.00781005 0.00783516 0.00786028 0.0078856 0.00791095 0.00793635 0.00796175 0.00798717
0.00801279 0.00803844 0.00806413 0.00808984 0.00811556 0.00814148 0.00816744 0.00819343 0.00821944 0.00824547
0.0082717 0.00829797 0.00832426 0.00835058 0.00837691 0.00840345 0.00843004 0.00845664 0.00848327 0.00850991
0.00853677 0.00856367 0.00859059 0.00861753 0.00864448 0.00867166 0.00869888 0.00872611 0.00875337 0.00878064
0.00880814 0.00883567 0.00886323 0.0088908 0.00891839 0.00894622 0.00897407 0.00900195 0.00902984 0.00905776
0.00907716 0.00909658 0.009116 0.00913544 0.00915439 0.00916326 0.00917214 0.00918102 0.0091899 0.00919878
0.00922726 0.00925577 0.0092843 0.00931285 0.00934142 0.00937023 0.00939907 0.00942793 0.00945682 0.00948573
0.00951487 0.00954404 0.00957324 0.00960246 0.00963171 0.00966119 0.0096907 0.00972024 0.0097498 0.00977939
0.00980921 0.00983906 0.00986894 0.00989885 0.00992878 0.00995894 0.00998914 0.0100194 0.0100496 0.0100799
0.0101104 0.010141 0.0101715 0.0102021 0.0102328 0.0102636 0.0102945 0.0103255 0.0103564 0.0103874
0.0104186 0.0104499 0.0104812 0.0105125 0.0105439 0.0105755 0.0106071 0.0106388 0.0106705 0.0107022
0.0107341 0.0107661 0.0107982 0.0108303 0.0108624 0.0108947 0.0109271 0.0109595 0.010992 0.0110244
0.0110572 0.01109 0.0111228 0.0111556 0.0111885 0.0112216 0.0112548 0.011288 0.0113213 0.0113546
0.0113881 0.0114217 0.0114554 0.011489 0.0115227 0.0115567 0.0115907 0.0116248 0.0116588 0.011693
0.0117072 0.0117214 0.0117356 0.0117498 0.0117636 0.0117839 0.0118043 0.0118247 0.0118451 0.0118655
0.0119003 0.0119352 0.0119702 0.0120052 0.0120402 0.0120756 0.0121109 0.0121464 0.0121819 0.0122174
0.0122532 0.0122891 0.012325 0.012361 0.012397 0.0124333 0.0124697 0.0125061 0.0125426 0.0125791
0.012616 0.0126529 0.0126898 0.0127268 0.0127639 0.0128012 0.0128387 0.0128762 0.0129137 0.0129513
0.0129892 0.0130272 0.0130653 0.0131034 0.0131415 0.01318 0.0132186 0.0132572 0.0132959 0.0133346
0.0133737 0.0134128 0.013452 0.0134913 0.0135306 0.013545 0.0135594 0.0135738 0.0135882 0.0136024
0.0136278 0.0136532 0.0136786 0.0137041 0.0137296 0.0137699 0.0138102 0.0138506 0.0138911 0.0139316
0.0139725 0.0140135 0.0140545 0.0140956 0.0141367 0.0141782 0.0142198 0.0142615 0.0143032 0.014345
0.0143872 0.0144294 0.0144717 0.0145141 0.0145565 0.0145994 0.0146423 0.0146852 0.0147283 0.0147714
0.0148149 0.0148585 0.0149022 0.0149459 0.0149897 0.0150339 0.0150782 0.0151225 0.015167 0.0152115
0.0152386 0.0152658 0.015293 0.0153202 0.0153469 0.0153648 0.0153828 0.0154008 0.0154189 0.0154369
0.0154825 0.0155282 0.015574 0.0156199 0.0156658 0.0157122 0.0157586 0.0158052 0.0158518 0.0158984
0.0159456 0.0159928 0.01604 0.0160874 0.0161348 0.0161827 0.0162307 0.0162787 0.0163269 0.0163751
0.0164238 0.0164725 0.0165214 0.0165703 0.0166193 0.0166688 0.0167184 0.016768 0.0168178 0.0168676
0.016918 0.0169684 0.0170189 0.0170695 0.0171202 0.0171276 0.017135 0.0171424 0.0171498 0.0171572
0.017201 0.017245 0.017289 0.017333 0.0173772 0.0174293 0.0174814 0.0175337 0.0175861 0.0176386
0.0176916 0.0177447 0.0177979 0.0178512 0.0179046 0.0179586 0.0180126 0.0180668 0.0181211 0.0181755
0.0182305 0.0182855 0.0183407 0.018396 0.0184514 0.0185074 0.0185635 0.0186197 0.0186761 0.0187326
0.0187897 0.0188469 0.0189042 0.0189617 0.0190193 0.0190255 0.0190317 0.019038 0.0190442 0.0190504
0.0191025 0.0191546 0.0192069 0.0192593 0.0193118 0.0193712 0.0194307 0.0194903 0.0195501 0.0196101
0.0196707 0.0197315 0.0197924 0.0198534 0.0199146 0.0199765 0.0200386 0.0201008 0.0201631 0.0202257
0.0202889 0.0203523 0.0204158 0.0204796 0.0205435 0.0206082 0.020673 0.0207379 0.0208031 0.0208685
0.0208955 0.0209226 0.0209497 0.0209768 0.0210034 0.0210428 0.0210823 0.0211219 0.0211616 0.0212013
0.0212689 0.0213367 0.0214048 0.0214731 0.0215416 0.0216108 0.0216803 0.0217499 0.0218198 0.02189
0.0219609 0.0220321 0.0221034 0.0221751 0.022247 0.0223197 0.0223926 0.0224658 0.0225392 0.022613
0.0226875 0.0227623 0.0228374 0.0229128 0.0229884 0.0229927 0.0229969 0.0230011 0.0230053 0.0230095
0.0230819 0.0231545 0.0232274 0.0233005 0.0233739 0.0234525 0.0235313 0.0236104 0.0236898 0.0237696
0.0238503 0.0239313 0.0240126 0.0240942 0.0241762 0.0242591 0.0243424 0.024426 0.0245099 0.0245942
0.0246795 0.0247651 0.0248511 0.0249375 0.0250242 0.0250358 0.0250473 0.0250588 0.0250704 0.0250819
0.0251584 0.0252351 0.0253122 0.0253895 0.0254672 0.0255575 0.0256483 0.0257394 0.025831 0.025923
0.0260161 0.0261096 0.0262035 0.0262979 0.0263927 0.0264887 0.0265851 0.0266819 0.0267792 0.026877
0.0269494 0.027022 0.0270949 0.027168 0.027239 0.0272665 0.0272942 0.0273218 0.0273495 0.0273772
0.0274793 0.027582 0.0276851 0.0277888 0.027893 0.0279984 0.0281044 0.0282109 0.0283179 0.0284255
0.0285344 0.0286439 0.028754 0.0288646 0.0289758 0.0290799 0.0291845 0.0292896 0.0293952 0.029497
0.0295066 0.0295162 0.0295257 0.0295353 0.0295449 0.0296613 0.0297784 0.029896 0.0300142 0.0301332
0.0302535 0.0303746 0.0304962 0.0306186 0.0307416 0.030866 0.0309912 0.0311171 0.0312436 0.0313709
0.0314705 0.0315706 0.031671 0.0317719 0.0318701 0.0319005 0.031931 0.0319615 0.0319921 0.0320227
0.032156 0.03229 0.0324248 0.0325602 0.0326964 0.0328342 0.0329727 0.0331121 0.0332522 0.033393
0.0335354 0.0336787 0.0338228 0.0339675 0.0341131 0.0341648 0.0342165 0.0342684 0.0343203 0.0343717
0.0344684 0.0345654 0.0346627 0.0347603 0.0348582 0.0350104 0.0351633 0.035317 0.0354715 0.0356267
0.0357837 0.0359415 0.0361002 0.0362596 0.0364198 0.0365377 0.0366561 0.0367749 0.0368941 0.0370121
0.0370573 0.0371025 0.0371478 0.0371931 0.0372385 0.0374056 0.0375736 0.0377423 0.0379118 0.038082
0.0382542 0.0384273 0.0386012 0.0387759 0.0389513 0.0391071 0.0392636 0.0394207 0.0395784 0.0397355
0.0397577 0.03978 0.0398023 0.0398246 0.0398469 0.0400296 0.040213 0.0403973 0.0405823 0.040768
0.0409558 0.0411444 0.0413338 0.041524 0.0417148 0.0418906 0.0420671 0.0422442 0.0424219 0.0426011
0.0426183 0.0426355 0.0426527 0.0426699 0.0426871 0.0428851 0.0430838 0.0432832 0.0434833 0.0436839
0.0438867 0.0440901 0.0442944 0.0444992 0.0447045 0.0448917 0.0450796 0.0452679 0.0454567 0.0456507
0.0456701 0.0456895 0.0457089 0.0457283 0.0457477 0.0459595 0.0461719 0.0463847 0.0465981 0.0468118
0.0470274 0.0472437 0.0474605 0.0476777 0.0478949 0.0481072 0.0483199 0.048533 0.0487465 0.0489748
0.0489787 0.0489826 0.0489864 0.0489903 0.0489942 0.0492167 0.0494394 0.0496624 0.0498854 0.0501082
0.0503238 0.0505398 0.0507562 0.0509727 0.0511886 0.0513019 0.0514151 0.0515283 0.0516414 0.051759
0.0518689 0.0519788 0.0520887 0.0521985 0.0523082 0.05254 0.0527718 0.0530035 0.0532349 0.0534653
0.0536229 0.0537804 0.0539377 0.0540947 0.054263 0.0543417 0.0544203 0.0544989 0.0545774 0.0546558
0.0549013 0.0551463 0.0553906 0.0556341 0.0558761 0.0560823 0.0562879 0.0564928 0.0566971 0.0569272
0.0569655 0.0570038 0.057042 0.0570802 0.0571183 0.057373 0.0576263 0.0578784 0.0581291 0.0583777
0.0586347 0.0588902 0.0591441 0.0593963 0.0596463 0.0596835 0.0597207 0.0597578 0.0597949 0.0598332
0.0600526 0.0602706 0.0604872 0.0607024 0.0609158 0.0611736 0.0614292 0.0616827 0.061934 0.0621828
0.0623628 0.0625417 0.0627194 0.0628958 0.0631045 0.0631715 0.0632383 0.0633049 0.0633713 0.0634376
0.0636913 0.0639424 0.064191 0.0644371 0.0646806 0.0649309 0.0651785 0.0654236 0.0656659 0.0659056
0.0661077 0.0663079 0.0665062 0.0667027 0.0669488 0.0669808 0.0670127 0.0670446 0.0670764 0.0671082
0.06735 0.067589 0.0678252 0.0680586 0.0682895 0.0685265 0.0687607 0.0689921 0.0692207 0.0694468
0.0696788 0.0699079 0.0701343 0.0703579 0.070579 0.070806 0.07103 0.0712514 0.07147 0.0716861
0.07171 0.071734 0.0717579 0.0717817 0.0718065 0.0720027 0.0721967 0.0723886 0.0725785 0.0727663
0.072983 0.073197 0.0734083 0.0736169 0.0738231 0.0740346 0.0742434 0.0744493 0.0746528 0.0748541
0.0750609 0.0752652 0.0754671 0.0756663 0.0758627 0.0760638 0.0762619 0.0764573 0.0766507 0.0768421
0.0770395 0.0772351 0.0774273 0.0776163 0.0778022 0.0779284 0.078053 0.0781768 0.0782999 0.0783716
0.0784426 0.0785131 0.0785833 0.0786532 0.0787226 -9.99992e-06 -7.99992e-06 -5.99993e-06 -3.99995e-06 -1.99997e-06
0 2.96563e-05 5.93114e-05 8.8964e-05 0.000118614 0.000148259 0.000178633 0.000209002 0.000239365 0.000269721
0.000300069 0.000329196 0.000358316 0.000387427 0.000416531 0.000445628 0.000473555 0.000501474 0.000529387 0.000557293
0.000585193 0.000611972 0.000638744 0.000665511 0.000692271 0.000719026 0.000744707 0.000770381 0.000796051 0.000821715
0.000847374 0.000872003 0.000896627 0.000921246 0.000945861 0.00097047 0.000994092 0.00101771 0.00104132 0.00106493
0.00108854 0.0011112 0.00113385 0.00115651 0.00117915 0.0012018 0.00122354 0.00124527 0.001267 0.00128873
0.00131045 0.00133131 0.00135216 0.00137301 0.00139385 0.0014147 0.00143471 0.00145471 0.00147471 0.00149472
0.00151471 0.00153391 0.00155311 0.0015723 0.00159149 0.00161068 0.0016291 0.00164752 0.00166594 0.00168435
0.00170277 0.00172045 0.00173812 0.00175579 0.00177347 0.00179114 0.0018081 0.00182506 0.00184202 0.00185898
0.00187594 0.00189222 0.00190849 0.00192477 0.00194104 0.00195732 0.00197294 0.00198856 0.00200418 0.00201981
0.00203542 0.00204585 0.00205628 0.00206671 0.00207713 0.00208756 0.00209807 0.00210857 0.00211908 0.00212958
0.00214009 0.00215068 0.00216126 0.00217185 0.00218243 0.00219302 0.00220369 0.00221435 0.00222502 0.00223569
0.00224635 0.0022571 0.00226785 0.0022786 0.00228935 0.00230009 0.00231092 0.00232175 0.00233258 0.00234341
0.00235424 0.00236516 0.00237607 0.00238698 0.0023979 0.00240881 0.00241981 0.0024308 0.0024418 0.0024528
0.00246379 0.00247487 0.00248596 0.00249704 0.00250812 0.0025192 0.00253037 0.00254153 0.0025527 0.00256386
0.00257503 0.00258628 0.00259753 0.00260879 0.00262004 0.00263129 0.00264263 0.00265397 0.00266531 0.00267665
0.00268799 0.00269941 0.00271084 0.00272227 0.00273369 0.00274512 0.00275663 0.00276815 0.00277966 0.00279118
0.00280269 0.00281429 0.0028259 0.0028375 0.00284911 0.00286071 0.0028724 0.0028841 0.00289579 0.00290748
0.00291918 0.00293096 0.00294274 0.00295453 0.00296631 0.0029781 0.00298997 0.00300185 0.00301372 0.0030256
0.00303747 0.00304944 0.00306141 0.00307337 0.00308534 0.00309731 0.00310937 0.00312143 0.00313349 0.00314555
0.00315761 0.00316976 0.00318192 0.00319407 0.00320623 0.00321838 0.00323063 0.00324288 0.00325512 0.00326737
0.00327962 0.00329196 0.00330431 0.00331665 0.00332899 0.00334134 0.00335378 0.00336621 0.00337865 0.00339109
0.00340353 0.00341607 0.0034286 0.00344114 0.00345368 0.00346621 0.00347884 0.00349148 0.00350411 0.00351674
0.00352938 0.00354211 0.00355484 0.00356757 0.0035803 0.00359303 0.00360586 0.0036187 0.00363153 0.00364436
0.00365719 0.00366424 0.00367129 0.00367835 0.0036854 0.00369246 0.00369833 0.00370421 0.00371009 0.00371596
0.00372184 0.00373487 0.0037479 0.00376093 0.00377396 0.00378699 0.00380012 0.00381325 0.00382638 0.00383951
0.00385265 0.00386588 0.00387911 0.00389235 0.00390558 0.00391881 0.00393215 0.00394549 0.00395882 0.00397216
0.00398549 0.00399893 0.00401237 0.00402581 0.00403925 0.00405269 0.00406624 0.00407978 0.00409332 0.00410687
0.00412041 0.00413406 0.00414771 0.00416136 0.00417501 0.00418865 0.00420241 0.00421616 0.00422991 0.00424367
0.00425742 0.00427128 0.00428514 0.004299 0.00431286 0.00432672 0.00434069 0.00435465 0.00436862 0.00438259
0.00439655 0.00441063 0.0044247 0.00443877 0.00445285 0.00446692 0.0044811 0.00449528 0.00450946 0.00452364
0.00453782 0.00455211 0.0045664 0.00458069 0.00459498 0.00460926 0.00462366 0.00463806 0.00465245 0.00466685
0.00468125 0.00469575 0.00471026 0.00472476 0.00473927 0.00475377 0.00476839 0.004783 0.00479761 0.00481223
0.00482684 0.00484156 0.00485629 0.00487101 0.00488573 0.00490045 0.00491529 0.00493012 0.00494496 0.00495979
0.00497462 0.00498956 0.00500451 0.00501945 0.00503439 0.00504933 0.00506439 0.00507944 0.00509449 0.00510955
0.0051246 0.00513976 0.00515493 0.0051701 0.00518526 0.00520042 0.0052157 0.00523098 0.00524625 0.00526153
0.0052768 0.0052922 0.00530759 0.00532298 0.00533837 0.00535375 0.00536926 0.00538476 0.00540027 0.00541577
0.00543127 0.00544689 0.00546251 0.00547813 0.00549375 0.00550937 0.0055251 0.00554084 0.00555657 0.00557231
0.00558804 0.0056039 0.00561975 0.0056356 0.00565146 0.00566731 0.00568328 0.00569926 0.00571523 0.0057312
0.00574717 0.00576327 0.00577936 0.00579545 0.00581155 0.00582764 0.00584386 0.00586007 0.00587629 0.00589251
0.00590872 0.00591685 0.00592497 0.0059331 0.00594122 0.00594923 0.00595747 0.00596571 0.00597395 0.00598219
0.00599043 0.0060069 0.00602337 0.00603984 0.00605631 0.00607277 0.00608937 0.00610597 0.00612257 0.00613917
0.00615576 0.0061725 0.00618922 0.00620595 0.00622268 0.00623941 0.00625628 0.00627314 0.00629 0.00630686
0.00632373 0.00634074 0.00635773 0.00637473 0.00639173 0.00640873 0.00642588 0.00644301 0.00646015 0.00647728
0.00649442 0.00651172 0.006529 0.00654627 0.00656355 0.00658083 0.00659827 0.0066157 0.00663312 0.00665053
0.00666797 0.00668556 0.00670314 0.0067207 0.00673826 0.00675584 0.0067736 0.00679132 0.00680903 0.00682674
0.00684448 0.00686239 0.00688027 0.00689813 0.00691599 0.00693389 0.00695195 0.00697 0.00698801 0.00700603
0.00702409 0.00704232 0.00706053 0.0070787 0.00709689 0.00711511 0.00713351 0.00715188 0.00717022 0.00718856
0.00720695 0.00722552 0.00724406 0.00726257 0.00728108 0.00729964 0.00731838 0.0073371 0.00735578 0.00737447
0.0073932 0.00741212 0.00743101 0.00744988 0.00746875 0.00748766 0.00750676 0.00752582 0.00754488 0.00756394
0.00758303 0.00760231 0.00762156 0.0076408 0.00766006 0.00767933 0.0076988 0.00771823 0.00773767 0.00775712
0.00777659 0.00779625 0.00781588 0.00783552 0.00785517 0.00787483 0.00789468 0.00791452 0.00793436 0.00795422
0.00797409 0.00799414 0.00801418 0.00803423 0.0080543 0.00807437 0.00808793 0.00810149 0.00811505 0.00812862
0.00814184 0.00814861 0.00815539 0.00816216 0.00816894 0.00817572 0.00819618 0.00821666 0.00823714 0.00825764
0.00827815 0.00829884 0.00831954 0.00834024 0.00836096 0.0083817 0.00840263 0.00842355 0.00844449 0.00846544
0.0084864 0.00850758 0.00852873 0.0085499 0.00857108 0.00859227 0.0086137 0.0086351 0.0086565 0.00867792
0.00869937 0.00872105 0.0087427 0.00876435 0.00878601 0.00880771 0.00882965 0.00885156 0.00887345 0.00889536
0.00891733 0.00893953 0.0089617 0.00898385 0.00900602 0.00902825 0.00905072 0.00907317 0.00909559 0.00911803
0.00914053 0.00916327 0.00918599 0.00920869 0.00923141 0.00925419 0.00927721 0.00930021 0.00932319 0.0093462
0.00936927 0.00939257 0.00941586 0.00943915 0.00946246 0.00948581 0.00950941 0.00953299 0.00955659 0.00958021
0.00960386 0.00962776 0.00965164 0.00967555 0.00969949 0.00972345 0.00974766 0.00977186 0.00979609 0.00982035
0.00984464 0.00986546 0.00988629 0.00990713 0.009928 0.00994792 0.00995183 0.00995574 0.00995966 0.00996357
0.00996749 0.00999233 0.0100172 0.0100421 0.010067 0.010092 0.0101172 0.0101424 0.0101677 0.0101929