/*--------------------------------*- C++ -*----------------------------------*\
  =========                 |
  \\      /  F ield         | OpenFOAM: The Open Source CFD Toolbox
   \\    /   O peration     | Website:  https://openfoam.org
    \\  /    A nd           | Version:  13
     \\/     M anipulation  |
\*---------------------------------------------------------------------------*/
FoamFile
{
    format      ascii;
    class       volScalarField;
    location    "6";
    object      epsilon;
}
// * * * * * * * * * * * * * * * * * * * * * * * * * * * * * * * * * * * * * //

dimensions      [0 2 -3 0 0 0 0];

internalField   nonuniform List<scalar> 
400
(
1.20671e-05
3.0122e-05
0.000152817
0.000437477
0.000683002
0.000855259
0.000990016
0.00111772
0.00122822
0.00133995
0.00144446
0.00155337
0.00166316
0.00174085
0.00177697
0.00178208
0.00166071
0.00131515
0.000805683
0.00058021
5.68186e-05
0.00015548
0.000481177
0.000826462
0.000925902
0.000970932
0.000986915
0.0010342
0.00107874
0.00116059
0.00125978
0.00139026
0.00154512
0.00172937
0.00193498
0.00214588
0.00224871
0.00226225
0.00181608
0.0012266
0.000216383
0.00055113
0.000846168
0.000915516
0.000926827
0.000934284
0.000934589
0.000973238
0.00103399
0.00111255
0.00120059
0.00129965
0.00141357
0.00155575
0.00173113
0.00194513
0.00214092
0.00222419
0.00207357
0.00161019
0.000488396
0.000856614
0.000927305
0.000896247
0.000877849
0.000856613
0.000855461
0.000891524
0.000927241
0.000968315
0.00101294
0.00107451
0.00116731
0.00130185
0.00150129
0.00177591
0.00208
0.00221726
0.00219892
0.00185657
0.000751918
0.000993266
0.000915816
0.000835935
0.000778628
0.000751718
0.000741764
0.000739689
0.000737108
0.000736804
0.000750226
0.000788922
0.000868859
0.00100959
0.00124244
0.00159578
0.00206459
0.0023505
0.00238991
0.00204385
0.00092469
0.00100847
0.000871258
0.000745769
0.000683321
0.000643727
0.000610644
0.000576348
0.000540333
0.000517314
0.000509272
0.000524985
0.000591401
0.000726356
0.000973163
0.00138684
0.00200273
0.00252851
0.00265805
0.00219273
0.000966587
0.000977882
0.000790119
0.000663842
0.000597805
0.000546053
0.000493796
0.000438702
0.000386077
0.000349835
0.000334557
0.000334287
0.000382255
0.000495839
0.000726754
0.00116055
0.00188995
0.00270656
0.00296889
0.00230956
0.000952555
0.000908738
0.000712661
0.000594606
0.000527391
0.000467739
0.000404694
0.000341005
0.000284617
0.000244513
0.00022536
0.000221074
0.000249969
0.000335149
0.000528861
0.000941365
0.00172261
0.00283186
0.00334518
0.00240229
0.000913984
0.000820528
0.000643493
0.00053785
0.000472848
0.000410572
0.000344227
0.000279879
0.000225913
0.000187664
0.00016832
0.000162907
0.000179634
0.000237062
0.000388473
0.000757616
0.00156552
0.00288372
0.00372073
0.00246672
0.000834284
0.000745479
0.000588066
0.000494646
0.000433344
0.000372111
0.000307218
0.000246149
0.000196584
0.000162024
0.000143197
0.000137607
0.000148154
0.000187688
0.000299003
0.000613472
0.00140699
0.00289788
0.00411947
0.00251039
0.000751217
0.000677988
0.000540913
0.000459299
0.000403354
0.000346645
0.000286707
0.000230695
0.000186081
0.000154892
0.000136356
0.000130435
0.000137915
0.000166897
0.000253307
0.00051332
0.00126015
0.0028793
0.00448324
0.0025303
0.000679676
0.000635332
0.000511256
0.000436484
0.000384926
0.00033257
0.000277673
0.000228146
0.000187555
0.00015804
0.000139825
0.000132971
0.00013769
0.000161355
0.000234602
0.000458161
0.00113664
0.00283743
0.0048026
0.0025368
0.000602272
0.000589991
0.00049061
0.000417282
0.000368817
0.000322936
0.000276406
0.000231267
0.000193987
0.000167073
0.000149689
0.00014305
0.000147032
0.000166702
0.000230695
0.000434897
0.00106103
0.00279629
0.00497259
0.00252895
0.000532554
0.000571018
0.000491316
0.000418039
0.000369166
0.00032436
0.000280086
0.000239276
0.000206175
0.000181592
0.000164853
0.000159105
0.000163502
0.000183237
0.000243624
0.000431919
0.00102941
0.00277243
0.00503576
0.00251074
0.000451165
0.000539115
0.000493763
0.000426021
0.000376918
0.000332803
0.000290755
0.000253233
0.00022261
0.00020016
0.000184126
0.000180734
0.000186604
0.000209561
0.000274819
0.000465886
0.0010294
0.00276676
0.00495393
0.00248178
0.000374269
0.000520173
0.000503289
0.000453536
0.000403037
0.00035772
0.000315538
0.000278211
0.000247345
0.000225246
0.000209786
0.000210276
0.000219671
0.000251324
0.000333861
0.000557437
0.00113612
0.00285258
0.00465681
0.00239841
0.000283301
0.000454789
0.000502338
0.000491468
0.00045915
0.000414017
0.000369259
0.000329239
0.000296504
0.000273553
0.000263435
0.000268815
0.000289754
0.000347536
0.000480042
0.00080524
0.00146381
0.00312779
0.0041653
0.00228027
0.000196873
0.000412569
0.000551206
0.000602309
0.000597157
0.000566561
0.000517148
0.000474086
0.000441074
0.000432788
0.000444335
0.000482026
0.000562675
0.000718481
0.0010122
0.00168631
0.00249796
0.00380122
0.00391686
0.00210354
0.000242236
0.000437909
0.000763978
0.000927913
0.00100121
0.00102138
0.00102922
0.0010506
0.00110301
0.00121015
0.00138698
0.00166002
0.00202554
0.0026209
0.0033365
0.00441759
0.00495419
0.00467866
0.00392104
0.00185348
0.000176087
0.000282664
0.000524835
0.000751169
0.00094014
0.0010663
0.00114256
0.00119612
0.00122712
0.00126188
0.00128339
0.0013254
0.00135698
0.00142444
0.00147027
0.0015665
0.00165006
0.00174453
0.00172824
0.00155087
)
;

boundaryField
{
    movingWall
    {
        type            epsilonWallFunction;
        value           nonuniform List<scalar> 
20
(
0.000176087
0.000282664
0.000524835
0.000751169
0.00094014
0.0010663
0.00114256
0.00119612
0.00122712
0.00126188
0.00128339
0.0013254
0.00135698
0.00142444
0.00147027
0.0015665
0.00165006
0.00174453
0.00172824
0.00155087
)
;
    }
    fixedWalls
    {
        type            epsilonWallFunction;
        value           nonuniform List<scalar> 
60
(
1.20671e-05
5.68186e-05
0.000216383
0.000488396
0.000751918
0.00092469
0.000966587
0.000952555
0.000913984
0.000834284
0.000751217
0.000679676
0.000602272
0.000532554
0.000451165
0.000374269
0.000283301
0.000196873
0.000242236
0.000176087
0.00058021
0.0012266
0.00161019
0.00185657
0.00204385
0.00219273
0.00230956
0.00240229
0.00246672
0.00251039
0.0025303
0.0025368
0.00252895
0.00251074
0.00248178
0.00239841
0.00228027
0.00210354
0.00185348
0.00155087
1.20671e-05
3.0122e-05
0.000152817
0.000437477
0.000683002
0.000855259
0.000990016
0.00111772
0.00122822
0.00133995
0.00144446
0.00155337
0.00166316
0.00174085
0.00177697
0.00178208
0.00166071
0.00131515
0.000805683
0.00058021
)
;
    }
    frontAndBack
    {
        type            empty;
    }
}


// ************************************************************************* //
