/*--------------------------------*- C++ -*----------------------------------*\
  =========                 |
  \\      /  F ield         | OpenFOAM: The Open Source CFD Toolbox
   \\    /   O peration     | Website:  https://openfoam.org
    \\  /    A nd           | Version:  13
     \\/     M anipulation  |
\*---------------------------------------------------------------------------*/
FoamFile
{
    format      ascii;
    class       volScalarField;
    location    "6";
    object      nut;
}
// * * * * * * * * * * * * * * * * * * * * * * * * * * * * * * * * * * * * * //

dimensions      [0 2 -1 0 0 0 0];

internalField   nonuniform List<scalar> 
1600
(
1.26108e-08
4.55323e-08
9.08791e-08
9.47319e-08
8.8071e-08
9.04825e-08
1.1483e-07
1.88934e-07
2.77091e-07
3.7663e-07
6.00024e-07
7.81241e-07
8.7131e-07
9.60781e-07
1.10518e-06
1.29757e-06
1.48551e-06
1.6918e-06
1.90114e-06
2.12968e-06
2.37392e-06
2.64436e-06
2.94577e-06
3.29036e-06
3.69826e-06
4.06994e-06
4.44538e-06
4.76805e-06
5.04675e-06
5.19652e-06
5.25563e-06
5.14133e-06
4.70365e-06
3.95402e-06
2.92451e-06
1.68188e-06
7.95851e-07
3.25028e-07
1.01073e-07
2.05824e-08
6.09094e-08
1.14147e-06
3.44102e-06
4.29434e-06
4.24655e-06
4.06668e-06
4.5186e-06
5.98897e-06
6.39365e-06
6.77623e-06
8.56801e-06
9.5912e-06
1.01078e-05
1.08297e-05
1.16514e-05
1.30398e-05
1.42217e-05
1.56977e-05
1.7104e-05
1.84794e-05
1.98193e-05
2.10933e-05
2.23725e-05
2.34016e-05
2.4084e-05
2.48423e-05
2.54346e-05
2.59055e-05
2.60697e-05
2.56903e-05
2.5415e-05
2.4048e-05
2.21036e-05
1.8846e-05
1.5415e-05
9.67083e-06
4.57648e-06
1.79963e-06
6.12203e-07
3.63609e-08
1.83115e-07
3.05726e-06
7.63526e-06
9.36485e-06
1.00059e-05
1.0407e-05
1.26977e-05
1.61854e-05
1.71757e-05
1.74829e-05
1.63649e-05
1.54064e-05
1.50083e-05
1.62145e-05
1.77195e-05
1.93963e-05
2.13251e-05
2.32226e-05
2.50326e-05
2.67818e-05
2.84918e-05
2.97708e-05
3.05888e-05
3.11331e-05
3.15053e-05
3.17104e-05
3.16926e-05
3.14266e-05
3.08354e-05
2.98192e-05
2.78937e-05
2.59695e-05
2.41352e-05
2.01365e-05
1.63466e-05
9.45102e-06
3.93014e-06
1.90819e-06
7.78853e-07
2.99641e-08
4.25127e-07
6.62582e-06
1.31751e-05
1.54679e-05
1.66286e-05
1.84151e-05
2.07364e-05
2.11793e-05
2.08829e-05
1.81852e-05
1.73209e-05
1.8572e-05
2.0232e-05
2.30223e-05
2.49112e-05
2.73816e-05
2.93598e-05
3.11033e-05
3.25538e-05
3.38498e-05
3.4616e-05
3.52856e-05
3.56657e-05
3.58773e-05
3.58722e-05
3.56738e-05
3.5248e-05
3.4585e-05
3.35898e-05
3.21499e-05
3.01716e-05
2.77465e-05
2.48694e-05
2.11796e-05
1.80614e-05
1.34009e-05
4.60895e-06
1.54717e-06
5.40633e-07
2.12928e-08
8.14756e-07
1.19864e-05
1.95193e-05
2.10651e-05
2.19677e-05
2.37696e-05
2.39898e-05
2.34987e-05
2.08568e-05
1.95974e-05
2.15896e-05
2.36399e-05
2.64541e-05
2.92086e-05
3.10775e-05
3.32707e-05
3.49832e-05
3.66094e-05
3.78117e-05
3.87053e-05
3.93321e-05
3.97685e-05
3.99696e-05
4.0009e-05
3.98775e-05
3.95799e-05
3.90724e-05
3.82856e-05
3.71318e-05
3.54069e-05
3.31065e-05
3.05324e-05
2.78341e-05
2.41406e-05
1.97549e-05
1.58976e-05
9.76486e-06
2.60512e-06
5.84536e-07
2.59473e-08
1.38006e-06
1.79485e-05
2.514e-05
2.57658e-05
2.63038e-05
2.61416e-05
2.55959e-05
2.31323e-05
2.13445e-05
2.35334e-05
2.60717e-05
2.8915e-05
3.17919e-05
3.3688e-05
3.58415e-05
3.76835e-05
3.93655e-05
4.05064e-05
4.15491e-05
4.22961e-05
4.28665e-05
4.32004e-05
4.33301e-05
4.32553e-05
4.3064e-05
4.27449e-05
4.23076e-05
4.17248e-05
4.09882e-05
4.01078e-05
3.77288e-05
3.45338e-05
3.136e-05
2.76098e-05
2.2994e-05
1.80416e-05
1.27395e-05
4.18845e-06
9.42147e-07
5.13734e-08
2.11474e-06
2.26215e-05
2.96814e-05
2.92333e-05
2.81618e-05
2.7501e-05
2.51565e-05
2.2808e-05
2.47921e-05
2.76992e-05
3.06084e-05
3.34207e-05
3.53355e-05
3.75738e-05
3.95425e-05
4.12926e-05
4.2705e-05
4.39025e-05
4.48174e-05
4.5406e-05
4.57227e-05
4.58121e-05
4.58035e-05
4.5733e-05
4.55459e-05
4.52786e-05
4.49304e-05
4.44892e-05
4.39065e-05
4.30862e-05
4.22409e-05
4.02824e-05
3.69011e-05
3.33877e-05
2.83011e-05
2.15874e-05
1.51816e-05
7.88335e-06
1.54539e-06
1.18361e-07
2.90494e-06
2.6725e-05
3.26798e-05
3.11192e-05
2.99925e-05
2.7181e-05
2.4471e-05
2.55591e-05
2.85087e-05
3.16466e-05
3.44087e-05
3.64085e-05
3.87555e-05
4.09692e-05
4.28218e-05
4.45672e-05
4.58013e-05
4.66567e-05
4.71514e-05
4.73752e-05
4.76824e-05
4.77988e-05
4.7862e-05
4.77853e-05
4.7609e-05
4.73417e-05
4.70105e-05
4.66282e-05
4.61877e-05
4.5622e-05
4.47691e-05
4.35511e-05
4.10649e-05
3.74791e-05
3.41993e-05
2.80021e-05
1.91615e-05
1.00293e-05
2.08184e-06
2.97376e-07
3.60358e-06
2.94915e-05
3.45371e-05
3.32746e-05
2.98634e-05
2.66313e-05
2.56857e-05
2.86761e-05
3.1965e-05
3.48963e-05
3.71317e-05
3.94196e-05
4.18715e-05
4.39105e-05
4.54725e-05
4.68622e-05
4.75341e-05
4.81973e-05
4.87729e-05
4.92623e-05
4.95275e-05
4.9932e-05
5.00508e-05
5.00164e-05
4.98306e-05
4.94923e-05
4.9048e-05
4.85418e-05
4.80311e-05
4.75393e-05
4.70024e-05
4.61839e-05
4.42678e-05
4.07336e-05
3.71113e-05
3.30618e-05
2.49155e-05
1.43499e-05
4.52217e-06
8.00526e-07
4.11808e-06
3.11148e-05
3.63991e-05
3.38611e-05
2.95089e-05
2.65373e-05
2.83682e-05
3.17217e-05
3.4925e-05
3.75246e-05
3.96723e-05
4.21624e-05
4.40751e-05
4.58814e-05
4.70868e-05
4.81891e-05
4.89756e-05
4.98518e-05
5.06477e-05
5.14802e-05
5.19959e-05
5.2373e-05
5.2844e-05
5.28257e-05
5.26591e-05
5.22139e-05
5.15659e-05
5.07639e-05
4.99119e-05
4.91234e-05
4.84783e-05
4.79341e-05
4.72101e-05
4.43419e-05
3.99885e-05
3.66263e-05
2.95021e-05
1.77974e-05
6.01516e-06
1.42881e-06
4.48301e-06
3.22652e-05
3.78497e-05
3.3971e-05
2.91006e-05
2.80976e-05
3.09859e-05
3.4376e-05
3.73254e-05
3.95749e-05
4.18087e-05
4.38679e-05
4.57499e-05
4.72188e-05
4.83821e-05
4.9537e-05
5.06187e-05
5.17967e-05
5.29232e-05
5.41367e-05
5.49092e-05
5.53808e-05
5.61959e-05
5.62562e-05
5.61354e-05
5.56264e-05
5.47945e-05
5.3676e-05
5.23803e-05
5.10685e-05
4.99198e-05
4.90356e-05
4.82909e-05
4.71637e-05
4.30142e-05
3.97775e-05
3.44635e-05
2.26621e-05
8.61898e-06
2.04509e-06
4.69147e-06
3.26499e-05
3.84825e-05
3.40828e-05
2.92293e-05
3.01252e-05
3.329e-05
3.65235e-05
3.91834e-05
4.12151e-05
4.33263e-05
4.52962e-05
4.69593e-05
4.83438e-05
4.96551e-05
5.10541e-05
5.25053e-05
5.4037e-05
5.55234e-05
5.70986e-05
5.81134e-05
5.87314e-05
5.98174e-05
6.00025e-05
5.99481e-05
5.94431e-05
5.85148e-05
5.71729e-05
5.54984e-05
5.36624e-05
5.19289e-05
5.05813e-05
4.97518e-05
4.91935e-05
4.57796e-05
4.16496e-05
3.76774e-05
2.63052e-05
1.0895e-05
2.54586e-06
4.68776e-06
3.26e-05
3.87446e-05
3.40124e-05
3.00483e-05
3.19546e-05
3.52018e-05
3.82023e-05
4.05003e-05
4.24414e-05
4.45285e-05
4.63607e-05
4.79456e-05
4.9432e-05
5.10055e-05
5.2734e-05
5.45643e-05
5.64445e-05
5.82548e-05
6.01243e-05
6.13585e-05
6.20881e-05
6.33567e-05
6.36674e-05
6.36813e-05
6.32293e-05
6.22997e-05
6.08648e-05
5.89427e-05
5.66465e-05
5.42338e-05
5.20877e-05
5.05504e-05
4.95956e-05
4.79552e-05
4.35884e-05
4.06228e-05
3.031e-05
1.34463e-05
3.01776e-06
4.63016e-06
3.23352e-05
3.90029e-05
3.39026e-05
3.13167e-05
3.35094e-05
3.66871e-05
3.9442e-05
4.14455e-05
4.34233e-05
4.54444e-05
4.72046e-05
4.88407e-05
5.05349e-05
5.24167e-05
5.44871e-05
5.66629e-05
5.88471e-05
6.09191e-05
6.29759e-05
6.43899e-05
6.51955e-05
6.65448e-05
6.69506e-05
6.70156e-05
6.66379e-05
6.57876e-05
6.44078e-05
6.24504e-05
5.99378e-05
5.70607e-05
5.42497e-05
5.20932e-05
5.09842e-05
5.05499e-05
4.58977e-05
4.23903e-05
3.33769e-05
1.57789e-05
3.45524e-06
4.49065e-06
3.17339e-05
3.8785e-05
3.40375e-05
3.2375e-05
3.47322e-05
3.77886e-05
4.03027e-05
4.21923e-05
4.41898e-05
4.61535e-05
4.79186e-05
4.96872e-05
5.16287e-05
5.38137e-05
5.61936e-05
5.86579e-05
6.10849e-05
6.33515e-05
6.54989e-05
6.70377e-05
6.7898e-05
6.92335e-05
6.96864e-05
6.9768e-05
6.94503e-05
6.87093e-05
6.74768e-05
6.56479e-05
6.31318e-05
5.99674e-05
5.64794e-05
5.33353e-05
5.12871e-05
5.05986e-05
4.79558e-05
4.39551e-05
3.63584e-05
1.80627e-05
3.88452e-06
4.24716e-06
3.08571e-05
3.83744e-05
3.42767e-05
3.32036e-05
3.56421e-05
3.85791e-05
4.08901e-05
4.2783e-05
4.47813e-05
4.67164e-05
4.85404e-05
5.04732e-05
5.26544e-05
5.51041e-05
5.77388e-05
6.04278e-05
6.30362e-05
6.54395e-05
6.76056e-05
6.92264e-05
7.01161e-05
7.1367e-05
7.18185e-05
7.18786e-05
7.15867e-05
7.09466e-05
6.99026e-05
6.83245e-05
6.60349e-05
6.29199e-05
5.91368e-05
5.53109e-05
5.23858e-05
5.08808e-05
4.92057e-05
4.49463e-05
3.85931e-05
2.02556e-05
4.30238e-06
3.95959e-06
2.98296e-05
3.77658e-05
3.45004e-05
3.38154e-05
3.62786e-05
3.91175e-05
4.13278e-05
4.32399e-05
4.52318e-05
4.71646e-05
4.90707e-05
5.11614e-05
5.35444e-05
5.62025e-05
5.90283e-05
6.18787e-05
6.46115e-05
6.71023e-05
6.92553e-05
7.09199e-05
7.18213e-05
7.29358e-05
7.33471e-05
7.33561e-05
7.30545e-05
7.24852e-05
7.16233e-05
7.03397e-05
6.8396e-05
6.55243e-05
6.16531e-05
5.72622e-05
5.35079e-05
5.14811e-05
5.06596e-05
4.59959e-05
4.04848e-05
2.23225e-05
4.71872e-06
3.61888e-06
2.87899e-05
3.70405e-05
3.46822e-05
3.4232e-05
3.66654e-05
3.94654e-05
4.16471e-05
4.35822e-05
4.55652e-05
4.75088e-05
4.94925e-05
5.17082e-05
5.42381e-05
5.70399e-05
5.99914e-05
6.29418e-05
6.57438e-05
6.82692e-05
7.04158e-05
7.20875e-05
7.30075e-05
7.39424e-05
7.4289e-05
7.42299e-05
7.38947e-05
7.33651e-05
7.26605e-05
7.16805e-05
7.01652e-05
6.7734e-05
6.40722e-05
5.93681e-05
5.47529e-05
5.18901e-05
5.1212e-05
4.69218e-05
4.19527e-05
2.43496e-05
5.13295e-06
3.28111e-06
2.76416e-05
3.61899e-05
3.47483e-05
3.44848e-05
3.69032e-05
3.96604e-05
4.18534e-05
4.38144e-05
4.57883e-05
4.77415e-05
4.97804e-05
5.2077e-05
5.46917e-05
5.7569e-05
6.0581e-05
6.35732e-05
6.63949e-05
6.8915e-05
7.10312e-05
7.26834e-05
7.36398e-05
7.43964e-05
7.46642e-05
7.45276e-05
7.41523e-05
7.36411e-05
7.30646e-05
7.23695e-05
7.1302e-05
6.94171e-05
6.61889e-05
6.14631e-05
5.61596e-05
5.23029e-05
5.12044e-05
4.81009e-05
4.31571e-05
2.61901e-05
5.54513e-06
2.89339e-06
2.66897e-05
3.53029e-05
3.47588e-05
3.46269e-05
3.6894e-05
3.97177e-05
4.19612e-05
4.39478e-05
4.59084e-05
4.78621e-05
4.99223e-05
5.22361e-05
5.4866e-05
5.7754e-05
6.07676e-05
6.37481e-05
6.6542e-05
6.9018e-05
7.10765e-05
7.26724e-05
7.36485e-05
7.42551e-05
7.44376e-05
7.42705e-05
7.3871e-05
7.33705e-05
7.28995e-05
7.2469e-05
7.18405e-05
7.05554e-05
6.7925e-05
6.34445e-05
5.76699e-05
5.28086e-05
5.09183e-05
4.89462e-05
4.42439e-05
2.79799e-05
5.95804e-06
2.58101e-06
2.53596e-05
3.43379e-05
3.45992e-05
3.46197e-05
3.69244e-05
3.96086e-05
4.19375e-05
4.39601e-05
4.59098e-05
4.78401e-05
4.98797e-05
5.21956e-05
5.48038e-05
5.76381e-05
6.05742e-05
6.34639e-05
6.61628e-05
6.85497e-05
7.05368e-05
7.20524e-05
7.3006e-05
7.34068e-05
7.342e-05
7.31802e-05
7.27967e-05
7.24624e-05
7.22312e-05
7.20557e-05
7.18411e-05
7.1168e-05
6.92334e-05
6.52255e-05
5.92405e-05
5.34929e-05
5.07385e-05
4.95374e-05
4.52244e-05
2.95837e-05
6.36673e-06
2.31644e-06
2.38695e-05
3.29658e-05
3.46894e-05
3.45843e-05
3.65032e-05
3.94559e-05
4.18138e-05
4.38748e-05
4.58038e-05
4.77173e-05
4.97294e-05
5.18529e-05
5.42476e-05
5.68888e-05
5.96644e-05
6.2432e-05
6.50545e-05
6.74107e-05
6.9383e-05
7.08968e-05
7.1897e-05
7.23287e-05
7.23104e-05
7.19693e-05
7.1417e-05
7.09954e-05
7.08309e-05
7.1035e-05
7.13806e-05
7.13069e-05
7.0104e-05
6.67183e-05
6.07377e-05
5.42463e-05
5.06986e-05
4.98136e-05
4.61339e-05
3.11385e-05
6.7751e-06
2.08281e-06
2.22494e-05
3.13783e-05
3.44172e-05
3.45003e-05
3.63152e-05
3.89129e-05
4.15281e-05
4.36233e-05
4.55626e-05
4.73833e-05
4.91764e-05
5.13129e-05
5.36892e-05
5.62618e-05
5.89418e-05
6.16053e-05
6.41151e-05
6.63408e-05
6.81762e-05
6.95378e-05
7.03836e-05
7.0783e-05
7.08359e-05
7.07293e-05
7.03633e-05
6.98631e-05
6.95239e-05
6.96899e-05
7.02804e-05
7.08542e-05
7.05173e-05
6.79031e-05
6.20984e-05
5.50157e-05
5.07934e-05
4.99107e-05
4.6904e-05
3.26091e-05
7.17578e-06
1.87054e-06
2.05558e-05
2.96275e-05
3.42129e-05
3.43774e-05
3.59928e-05
3.85031e-05
4.1054e-05
4.33068e-05
4.51826e-05
4.69315e-05
4.88163e-05
5.08039e-05
5.29858e-05
5.53367e-05
5.77862e-05
6.02212e-05
6.25164e-05
6.45549e-05
6.62485e-05
6.75384e-05
6.8403e-05
6.87941e-05
6.88269e-05
6.87367e-05
6.84789e-05
6.83215e-05
6.84412e-05
6.87308e-05
6.93825e-05
7.03021e-05
7.05785e-05
6.87791e-05
6.32591e-05
5.56664e-05
5.07807e-05
4.99289e-05
4.75801e-05
3.40407e-05
7.57125e-06
1.6724e-06
1.88175e-05
2.78082e-05
3.37506e-05
3.41604e-05
3.54726e-05
3.8034e-05
4.03728e-05
4.26447e-05
4.46299e-05
4.64493e-05
4.81845e-05
4.99337e-05
5.18501e-05
5.39379e-05
5.61323e-05
5.83362e-05
6.04394e-05
6.23361e-05
6.39405e-05
6.51961e-05
6.60871e-05
6.65011e-05
6.65638e-05
6.65445e-05
6.63812e-05
6.62505e-05
6.64089e-05
6.71581e-05
6.84834e-05
6.98893e-05
7.05261e-05
6.9253e-05
6.43795e-05
5.6218e-05
5.06926e-05
4.98147e-05
4.81391e-05
3.54033e-05
7.95395e-06
1.48478e-06
1.70696e-05
2.60633e-05
3.2647e-05
3.41697e-05
3.50504e-05
3.73153e-05
3.98875e-05
4.19599e-05
4.39806e-05
4.57436e-05
4.73612e-05
4.89847e-05
5.06856e-05
5.25092e-05
5.44284e-05
5.63727e-05
5.8251e-05
5.99714e-05
6.14549e-05
6.26486e-05
6.35758e-05
6.39931e-05
6.41438e-05
6.42617e-05
6.42509e-05
6.42703e-05
6.45759e-05
6.53939e-05
6.683e-05
6.86549e-05
7.00312e-05
6.94279e-05
6.50607e-05
5.66246e-05
5.04263e-05
4.94943e-05
4.8669e-05
3.67136e-05
8.32458e-06
1.30297e-06
1.53229e-05
2.43266e-05
3.11056e-05
3.40349e-05
3.47213e-05
3.64974e-05
3.91266e-05
4.13469e-05
4.32119e-05
4.49355e-05
4.64601e-05
4.79342e-05
4.94307e-05
5.1001e-05
5.2646e-05
5.43242e-05
5.59687e-05
5.75044e-05
5.8863e-05
5.99894e-05
6.09852e-05
6.1388e-05
6.16605e-05
6.19706e-05
6.21347e-05
6.23451e-05
6.28372e-05
6.38434e-05
6.55093e-05
6.76374e-05
6.93937e-05
6.93868e-05
6.54032e-05
5.68432e-05
5.00445e-05
4.89984e-05
4.90659e-05
3.79031e-05
8.67587e-06
1.12605e-06
1.36088e-05
2.25132e-05
2.93449e-05
3.38386e-05
3.43722e-05
3.57677e-05
3.80524e-05
4.0503e-05
4.24476e-05
4.40487e-05
4.54762e-05
4.68141e-05
4.81275e-05
4.94697e-05
5.08609e-05
5.22856e-05
5.3702e-05
5.5055e-05
5.62908e-05
5.73436e-05
5.84334e-05
5.88052e-05
5.9218e-05
5.97545e-05
6.00998e-05
6.05222e-05
6.12127e-05
6.23917e-05
6.42127e-05
6.6536e-05
6.85524e-05
6.88932e-05
6.5664e-05
5.66729e-05
4.95114e-05
4.82995e-05
4.93911e-05
3.90359e-05
9.00972e-06
9.50736e-07
1.19531e-05
2.10348e-05
2.70263e-05
3.29661e-05
3.42699e-05
3.52281e-05
3.70104e-05
3.93611e-05
4.1447e-05
4.30749e-05
4.44298e-05
4.56497e-05
4.68063e-05
4.79552e-05
4.91285e-05
5.03305e-05
5.15415e-05
5.27268e-05
5.38465e-05
5.48401e-05
5.59927e-05
5.63698e-05
5.69164e-05
5.76707e-05
5.82036e-05
5.88391e-05
5.9725e-05
6.10591e-05
6.29738e-05
6.53713e-05
6.74672e-05
6.7939e-05
6.51568e-05
5.62909e-05
4.88118e-05
4.72969e-05
4.9605e-05
4.00087e-05
9.31913e-06
7.96057e-07
1.05622e-05
1.97831e-05
2.48742e-05
3.1073e-05
3.40392e-05
3.48504e-05
3.62154e-05
3.81166e-05
4.02405e-05
4.19868e-05
4.33373e-05
4.44823e-05
4.55172e-05
4.65101e-05
4.75048e-05
4.85213e-05
4.95568e-05
5.06007e-05
5.1596e-05
5.26443e-05
5.36287e-05
5.41382e-05
5.48925e-05
5.57431e-05
5.64638e-05
5.72956e-05
5.83518e-05
5.98044e-05
6.17313e-05
6.40631e-05
6.60339e-05
6.64144e-05
6.38278e-05
5.52794e-05
4.75866e-05
4.59884e-05
4.97184e-05
4.08771e-05
9.60954e-06
6.67533e-07
9.40568e-06
1.88419e-05
2.30025e-05
2.88883e-05
3.33391e-05
3.45785e-05
3.57022e-05
3.71806e-05
3.89581e-05
4.07424e-05
4.21643e-05
4.32869e-05
4.42475e-05
4.51313e-05
4.59951e-05
4.68729e-05
4.77709e-05
4.8709e-05
4.95814e-05
5.07336e-05
5.14863e-05
5.21301e-05
5.30787e-05
5.39886e-05
5.4856e-05
5.58404e-05
5.7009e-05
5.85118e-05
6.03335e-05
6.24351e-05
6.40407e-05
6.41232e-05
6.13889e-05
5.34106e-05
4.59111e-05
4.4494e-05
4.96132e-05
4.15328e-05
9.8776e-06
5.52994e-07
8.47652e-06
1.83407e-05
2.16416e-05
2.67632e-05
3.17397e-05
3.40368e-05
3.53568e-05
3.6673e-05
3.80985e-05
3.95749e-05
4.10235e-05
4.2168e-05
4.31009e-05
4.39135e-05
4.46775e-05
4.54406e-05
4.62295e-05
4.70446e-05
4.79184e-05
4.89535e-05
4.95592e-05
5.03977e-05
5.14147e-05
5.23379e-05
5.3284e-05
5.43444e-05
5.552e-05
5.69559e-05
5.84979e-05
6.01773e-05
6.11523e-05
6.07744e-05
5.77681e-05
5.06153e-05
4.41206e-05
4.27013e-05
4.92315e-05
4.18172e-05
1.01354e-05
4.46913e-07
7.81632e-06
1.78218e-05
2.11929e-05
2.51822e-05
3.0005e-05
3.33412e-05
3.49741e-05
3.63052e-05
3.75651e-05
3.88093e-05
3.99878e-05
4.10569e-05
4.19678e-05
4.2744e-05
4.34579e-05
4.41468e-05
4.48721e-05
4.55718e-05
4.64558e-05
4.73327e-05
4.78951e-05
4.87782e-05
4.97422e-05
5.06426e-05
5.1548e-05
5.2552e-05
5.35549e-05
5.47392e-05
5.57549e-05
5.68073e-05
5.6904e-05
5.60048e-05
5.27242e-05
4.67558e-05
4.18307e-05
4.16162e-05
4.86223e-05
4.13929e-05
1.03957e-05
3.87496e-07
7.68887e-06
1.70634e-05
2.12072e-05
2.36698e-05
2.81646e-05
3.23379e-05
3.49075e-05
3.64707e-05
3.77641e-05
3.89038e-05
3.99111e-05
4.07919e-05
4.15501e-05
4.21762e-05
4.27551e-05
4.33083e-05
4.38918e-05
4.44708e-05
4.51362e-05
4.59503e-05
4.6377e-05
4.70574e-05
4.78502e-05
4.85716e-05
4.92317e-05
4.99633e-05
5.05212e-05
5.12043e-05
5.14123e-05
5.16905e-05
5.08065e-05
4.95466e-05
4.62832e-05
4.1777e-05
3.84565e-05
3.9902e-05
4.77898e-05
4.09122e-05
1.06246e-05
3.93085e-07
8.51182e-06
1.64962e-05
2.11924e-05
2.37247e-05
2.69854e-05
3.07676e-05
3.42523e-05
3.66183e-05
3.80344e-05
3.91259e-05
4.00058e-05
4.07111e-05
4.12953e-05
4.18255e-05
4.22865e-05
4.27378e-05
4.31125e-05
4.34871e-05
4.37516e-05
4.42306e-05
4.44664e-05
4.4681e-05
4.50245e-05
4.5347e-05
4.54908e-05
4.56715e-05
4.54971e-05
4.5468e-05
4.47539e-05
4.43515e-05
4.28005e-05
4.16921e-05
3.91173e-05
3.69836e-05
3.59279e-05
3.89345e-05
4.6798e-05
4.00684e-05
1.07066e-05
5.34856e-07
1.05556e-05
1.68743e-05
2.15213e-05
2.44611e-05
2.76171e-05
3.09306e-05
3.42577e-05
3.73233e-05
3.97833e-05
4.11878e-05
4.21435e-05
4.28592e-05
4.32111e-05
4.32701e-05
4.31185e-05
4.28471e-05
4.2498e-05
4.21485e-05
4.17007e-05
4.14079e-05
4.08392e-05
4.06391e-05
4.02985e-05
3.97686e-05
3.92488e-05
3.87345e-05
3.78875e-05
3.72996e-05
3.61687e-05
3.56645e-05
3.44173e-05
3.42225e-05
3.32154e-05
3.38078e-05
3.48724e-05
3.92834e-05
4.54382e-05
3.79856e-05
1.07136e-05
8.26211e-07
1.36389e-05
1.90049e-05
2.28718e-05
2.60518e-05
2.94022e-05
3.28354e-05
3.55473e-05
3.79653e-05
4.03124e-05
4.21303e-05
4.29057e-05
4.3091e-05
4.28206e-05
4.22332e-05
4.12689e-05
4.03188e-05
3.93448e-05
3.82658e-05
3.73708e-05
3.61367e-05
3.51551e-05
3.43895e-05
3.32891e-05
3.23003e-05
3.14534e-05
3.07688e-05
3.01821e-05
2.98496e-05
2.94713e-05
2.97325e-05
2.98237e-05
3.09522e-05
3.18519e-05
3.42921e-05
3.69397e-05
4.18132e-05
4.3425e-05
3.6231e-05
1.04127e-05
1.36107e-06
1.76047e-05
2.08886e-05
2.49012e-05
2.83984e-05
3.16182e-05
3.45488e-05
3.67963e-05
3.79164e-05
3.89652e-05
3.97867e-05
3.98492e-05
3.95273e-05
3.88517e-05
3.79811e-05
3.69833e-05
3.58876e-05
3.45783e-05
3.33436e-05
3.2533e-05
3.15508e-05
3.05797e-05
2.98986e-05
2.94422e-05
2.90868e-05
2.90243e-05
2.90854e-05
2.94757e-05
3.0051e-05
3.09444e-05
3.21976e-05
3.34724e-05
3.55599e-05
3.73621e-05
4.04927e-05
4.28143e-05
4.52597e-05
4.20889e-05
3.29438e-05
9.84285e-06
2.38168e-06
2.1009e-05
2.35251e-05
2.78353e-05
3.08884e-05
3.32109e-05
3.49384e-05
3.63378e-05
3.6578e-05
3.69185e-05
3.71598e-05
3.71309e-05
3.7069e-05
3.66984e-05
3.64369e-05
3.62063e-05
3.58679e-05
3.55579e-05
3.52917e-05
3.51927e-05
3.51899e-05
3.53489e-05
3.55577e-05
3.59898e-05
3.64459e-05
3.71495e-05
3.78631e-05
3.88181e-05
3.98272e-05
4.09943e-05
4.23611e-05
4.35777e-05
4.55278e-05
4.62197e-05
4.87011e-05
4.74868e-05
4.57826e-05
4.00574e-05
2.49976e-05
8.60293e-06
1.6123e-06
2.52041e-06
3.31119e-06
4.14513e-06
4.89113e-06
5.5695e-06
6.11953e-06
6.5975e-06
6.92409e-06
7.14881e-06
7.28089e-06
7.35189e-06
7.34844e-06
7.32458e-06
7.27218e-06
7.20191e-06
7.12281e-06
7.04411e-06
6.96682e-06
6.90064e-06
6.84124e-06
6.80315e-06
6.77071e-06
6.77066e-06
6.78138e-06
6.80998e-06
6.87388e-06
6.93515e-06
7.06625e-06
7.15905e-06
7.35928e-06
7.48203e-06
7.7619e-06
7.96823e-06
8.42886e-06
8.70496e-06
9.17601e-06
9.19737e-06
8.88146e-06
7.41817e-06
)
;

boundaryField
{
    movingWall
    {
        type            nutkWallFunction;
        Cmu             0.09;
        kappa           0.41;
        E               9.8;
        value           uniform 0;
    }
    fixedWalls
    {
        type            nutkWallFunction;
        Cmu             0.09;
        kappa           0.41;
        E               9.8;
        value           uniform 0;
    }
    frontAndBack
    {
        type            empty;
    }
}


// ************************************************************************* //
