/*--------------------------------*- C++ -*----------------------------------*\
  =========                 |
  \\      /  F ield         | OpenFOAM: The Open Source CFD Toolbox
   \\    /   O peration     | Website:  https://openfoam.org
    \\  /    A nd           | Version:  13
     \\/     M anipulation  |
\*---------------------------------------------------------------------------*/
FoamFile
{
    format      ascii;
    class       volScalarField;
    location    "6";
    object      nut;
}
// * * * * * * * * * * * * * * * * * * * * * * * * * * * * * * * * * * * * * //

dimensions      [0 2 -1 0 0 0 0];

internalField   nonuniform List<scalar> 
400
(
1.06301e-07
2.66146e-07
1.35278e-06
3.86087e-06
6.01629e-06
7.52787e-06
8.71102e-06
9.83267e-06
1.08028e-05
1.17844e-05
1.2702e-05
1.36588e-05
1.4623e-05
1.53049e-05
1.5622e-05
1.56666e-05
1.45986e-05
1.1561e-05
7.08356e-06
5.10185e-06
5.00789e-07
2.45542e-06
4.85774e-06
1.12854e-05
1.53965e-05
2.17949e-05
2.59148e-05
3.14407e-05
3.59035e-05
4.00865e-05
4.33219e-05
4.57395e-05
4.68826e-05
4.74856e-05
4.72309e-05
4.48159e-05
4.33017e-05
3.50291e-05
1.92707e-05
1.07798e-05
1.90592e-06
8.69986e-06
1.77071e-05
2.56848e-05
3.22597e-05
3.96002e-05
4.52302e-05
5.09388e-05
5.43785e-05
5.73755e-05
5.90733e-05
6.01584e-05
6.03215e-05
6.02286e-05
5.92541e-05
5.62518e-05
5.2187e-05
4.59545e-05
2.62622e-05
1.4147e-05
4.30351e-06
2.00107e-05
2.91408e-05
3.63661e-05
4.30761e-05
4.99552e-05
5.5096e-05
5.90849e-05
6.22408e-05
6.50867e-05
6.69751e-05
6.77215e-05
6.77855e-05
6.74682e-05
6.63978e-05
6.36104e-05
5.74765e-05
5.40544e-05
3.47309e-05
1.63098e-05
6.62731e-06
2.80587e-05
3.66803e-05
4.25356e-05
4.98653e-05
5.63056e-05
6.16372e-05
6.64148e-05
6.90141e-05
7.01683e-05
7.01002e-05
7.0254e-05
7.04913e-05
7.0684e-05
7.09336e-05
7.05282e-05
6.37273e-05
5.80009e-05
4.16471e-05
1.79535e-05
8.14654e-06
3.26819e-05
3.99032e-05
4.73486e-05
5.55384e-05
6.2017e-05
6.64395e-05
6.9257e-05
6.97038e-05
7.01849e-05
7.04078e-05
7.07448e-05
7.05834e-05
7.07162e-05
7.15243e-05
7.28027e-05
6.98106e-05
6.20684e-05
4.81391e-05
1.92602e-05
8.51414e-06
3.33197e-05
4.31372e-05
5.1566e-05
5.89789e-05
6.41857e-05
6.71957e-05
6.90169e-05
6.982e-05
7.09344e-05
7.16258e-05
7.25199e-05
7.18959e-05
7.11032e-05
7.1357e-05
7.3328e-05
7.51139e-05
6.56659e-05
5.34531e-05
2.02852e-05
8.39034e-06
3.41906e-05
4.53556e-05
5.36539e-05
6.02182e-05
6.46949e-05
6.71675e-05
6.88889e-05
7.0563e-05
7.3131e-05
7.52294e-05
7.63953e-05
7.59555e-05
7.34797e-05
7.18533e-05
7.33243e-05
7.76713e-05
6.95446e-05
5.83151e-05
2.10988e-05
8.05042e-06
3.40113e-05
4.57574e-05
5.41905e-05
6.05039e-05
6.46187e-05
6.69737e-05
6.901e-05
7.16424e-05
7.53225e-05
7.83854e-05
7.99733e-05
7.98833e-05
7.73227e-05
7.31718e-05
7.21083e-05
7.59519e-05
7.34954e-05
6.18231e-05
2.16639e-05
7.34843e-06
3.36786e-05
4.55091e-05
5.3969e-05
6.01457e-05
6.41059e-05
6.6587e-05
6.8906e-05
7.19865e-05
7.58514e-05
7.91703e-05
8.08286e-05
8.08877e-05
7.90101e-05
7.57009e-05
7.25352e-05
7.45197e-05
7.56131e-05
6.51067e-05
2.20468e-05
6.61702e-06
3.17865e-05
4.42701e-05
5.29208e-05
5.92255e-05
6.33819e-05
6.58768e-05
6.82355e-05
7.10063e-05
7.42802e-05
7.74504e-05
7.94276e-05
7.96958e-05
7.91457e-05
7.6414e-05
7.33788e-05
7.40973e-05
7.69214e-05
6.75714e-05
2.22213e-05
5.98697e-06
2.93916e-05
4.28069e-05
5.14591e-05
5.76286e-05
6.22211e-05
6.46927e-05
6.65486e-05
6.88683e-05
7.17495e-05
7.44202e-05
7.68348e-05
7.79365e-05
7.84366e-05
7.64525e-05
7.32964e-05
7.38455e-05
7.81128e-05
6.94737e-05
2.22782e-05
5.30533e-06
2.58605e-05
3.9688e-05
4.9209e-05
5.55496e-05
6.05729e-05
6.30952e-05
6.49451e-05
6.70073e-05
6.89485e-05
7.09563e-05
7.33018e-05
7.43884e-05
7.59107e-05
7.60649e-05
7.32938e-05
7.22399e-05
7.82111e-05
7.02186e-05
2.22092e-05
4.69123e-06
2.30987e-05
3.68683e-05
4.6644e-05
5.25688e-05
5.76208e-05
6.08755e-05
6.30108e-05
6.43758e-05
6.58021e-05
6.74522e-05
6.98289e-05
7.10391e-05
7.30845e-05
7.44712e-05
7.31958e-05
7.1191e-05
7.72719e-05
7.03355e-05
2.20497e-05
3.97434e-06
1.88426e-05
3.21925e-05
4.27755e-05
4.94143e-05
5.47393e-05
5.88337e-05
6.06774e-05
6.19558e-05
6.29793e-05
6.46956e-05
6.64127e-05
6.79174e-05
7.01804e-05
7.19976e-05
7.19824e-05
7.04107e-05
7.55078e-05
6.78163e-05
2.1794e-05
3.29654e-06
1.63876e-05
2.94161e-05
3.96353e-05
4.70798e-05
5.22005e-05
5.62236e-05
5.81597e-05
5.95914e-05
6.03281e-05
6.21922e-05
6.30265e-05
6.44852e-05
6.6363e-05
6.77508e-05
6.93992e-05
6.68269e-05
7.23906e-05
6.48377e-05
2.10618e-05
2.49464e-06
1.1836e-05
2.42542e-05
3.6486e-05
4.41685e-05
4.8877e-05
5.30541e-05
5.51975e-05
5.64855e-05
5.69619e-05
5.81185e-05
5.85567e-05
5.93323e-05
6.05209e-05
6.09251e-05
6.47856e-05
6.2792e-05
6.7139e-05
5.94295e-05
2.00225e-05
1.73228e-06
1.11598e-05
2.36436e-05
3.40226e-05
4.2278e-05
4.56152e-05
4.91296e-05
5.11324e-05
5.19688e-05
5.18931e-05
5.18759e-05
5.18247e-05
5.20257e-05
5.42563e-05
5.50868e-05
6.02818e-05
6.35066e-05
6.22259e-05
5.06534e-05
1.84691e-05
2.13093e-06
1.32648e-05
2.36874e-05
3.08092e-05
3.74471e-05
4.08324e-05
4.35534e-05
4.54185e-05
4.76796e-05
4.91129e-05
5.13514e-05
5.33017e-05
5.68631e-05
6.06793e-05
6.52467e-05
7.10694e-05
6.74622e-05
6.10251e-05
4.46447e-05
1.62709e-05
1.5486e-06
2.48593e-06
4.61602e-06
6.60613e-06
8.2682e-06
9.37597e-06
1.00455e-05
1.05139e-05
1.07845e-05
1.10873e-05
1.12746e-05
1.16407e-05
1.19165e-05
1.2506e-05
1.29069e-05
1.37494e-05
1.44824e-05
1.53117e-05
1.51687e-05
1.36117e-05
)
;

boundaryField
{
    movingWall
    {
        type            nutkWallFunction;
        Cmu             0.09;
        kappa           0.41;
        E               9.8;
        value           uniform 0;
    }
    fixedWalls
    {
        type            nutkWallFunction;
        Cmu             0.09;
        kappa           0.41;
        E               9.8;
        value           uniform 0;
    }
    frontAndBack
    {
        type            empty;
    }
}


// ************************************************************************* //
