/*--------------------------------*- C++ -*----------------------------------*\
  =========                 |
  \\      /  F ield         | OpenFOAM: The Open Source CFD Toolbox
   \\    /   O peration     | Website:  https://openfoam.org
    \\  /    A nd           | Version:  13
     \\/     M anipulation  |
\*---------------------------------------------------------------------------*/
FoamFile
{
    format      ascii;
    class       volScalarField;
    location    "6";
    object      p;
}
// * * * * * * * * * * * * * * * * * * * * * * * * * * * * * * * * * * * * * //

dimensions      [0 2 -2 0 0 0 0];

internalField   nonuniform List<scalar> 
400
(
3.78275e-08
-6.36175e-05
-0.00014465
-0.000184974
-0.000692002
-0.00177945
-0.0031701
-0.00455105
-0.00569188
-0.00646288
-0.00677285
-0.00653766
-0.00573388
-0.00434342
-0.0023616
0.000102132
0.00278035
0.00514457
0.00659939
0.00688868
3.05592e-05
-2.79288e-05
-0.000144287
-0.000530178
-0.00132386
-0.00252567
-0.00389615
-0.00521389
-0.00630707
-0.00706225
-0.0073856
-0.00722806
-0.00656372
-0.00532832
-0.00352526
-0.00121173
0.00139677
0.0038689
0.00561995
0.00630474
0.00021831
-2.71049e-05
-0.000467734
-0.00123894
-0.00237243
-0.00372121
-0.00509918
-0.00636463
-0.00741028
-0.00811722
-0.00842012
-0.00829208
-0.00770752
-0.00665662
-0.00512216
-0.0031268
-0.000784288
0.00163724
0.00366989
0.0046816
0.000137302
-0.000303203
-0.00112119
-0.00229392
-0.00370546
-0.00517229
-0.00655564
-0.00774872
-0.00866378
-0.00925643
-0.00950755
-0.00940192
-0.00891866
-0.00804836
-0.00677994
-0.00511995
-0.00312074
-0.000928796
0.00111741
0.00219694
-0.000424841
-0.00103226
-0.00212929
-0.00355806
-0.00510239
-0.00659029
-0.00791116
-0.00899119
-0.00978929
-0.0102928
-0.0104988
-0.0104049
-0.0100062
-0.00929904
-0.00827512
-0.00693314
-0.00529356
-0.00342561
-0.00155391
-0.000537305
-0.00146025
-0.00215688
-0.00337285
-0.00486618
-0.00641096
-0.00783931
-0.00905988
-0.0100261
-0.010724
-0.0111539
-0.011322
-0.0112357
-0.0109023
-0.010326
-0.00950427
-0.0084332
-0.00711838
-0.00559553
-0.00407251
-0.0031117
-0.00272977
-0.00344442
-0.00464094
-0.0060776
-0.00754286
-0.00886907
-0.00997907
-0.0108415
-0.0114542
-0.0118248
-0.0119647
-0.0118864
-0.0116027
-0.0111243
-0.0104565
-0.00959745
-0.00854965
-0.00733375
-0.00615686
-0.00530356
-0.0039548
-0.00463082
-0.00574287
-0.0070836
-0.00844052
-0.00965645
-0.0106645
-0.0114405
-0.0119866
-0.0123137
-0.0124353
-0.012365
-0.0121175
-0.0117081
-0.0111494
-0.0104453
-0.00960119
-0.00863304
-0.00774751
-0.00699427
-0.00493003
-0.00555963
-0.00656854
-0.00781264
-0.00906721
-0.0101891
-0.0111179
-0.0118314
-0.0123321
-0.0126312
-0.0127419
-0.0126776
-0.0124528
-0.0120857
-0.0115956
-0.0109952
-0.0102996
-0.00950603
-0.00883161
-0.00817124
-0.00557615
-0.00613221
-0.00705655
-0.0082291
-0.00940455
-0.0104623
-0.0113421
-0.0120202
-0.0124969
-0.0127819
-0.0128873
-0.0128254
-0.0126106
-0.0122623
-0.0118054
-0.0112609
-0.0106709
-0.00997091
-0.00946597
-0.00883473
-0.00585461
-0.00633984
-0.00720271
-0.0083218
-0.00944856
-0.0104756
-0.0113384
-0.0120083
-0.0124817
-0.0127655
-0.0128703
-0.0128076
-0.0125912
-0.0122418
-0.011788
-0.0112545
-0.0107374
-0.0100352
-0.00969737
-0.00899901
-0.00575838
-0.00620055
-0.00701765
-0.00809801
-0.00920733
-0.0102329
-0.0111071
-0.0117943
-0.0122843
-0.0125801
-0.0126899
-0.0126238
-0.0123959
-0.0120272
-0.011551
-0.0110066
-0.0104838
-0.00973644
-0.00958506
-0.00865957
-0.00535887
-0.00577756
-0.00655587
-0.00758802
-0.00869674
-0.0097423
-0.0106513
-0.0113787
-0.0119049
-0.0122263
-0.0123478
-0.0122776
-0.01203
-0.0116273
-0.0111074
-0.0105154
-0.00993731
-0.00913819
-0.00912285
-0.00783406
-0.004767
-0.00514671
-0.00586682
-0.00683566
-0.00793456
-0.00901184
-0.00997577
-0.0107656
-0.011348
-0.0117104
-0.0118528
-0.011781
-0.0115086
-0.0110597
-0.0104772
-0.00980558
-0.00914182
-0.00828248
-0.00828061
-0.00657331
-0.00412809
-0.00442583
-0.00502694
-0.00589741
-0.00696201
-0.0080713
-0.00910394
-0.00997476
-0.0106326
-0.0110526
-0.0112284
-0.0111622
-0.0108647
-0.0103615
-0.0097005
-0.00892224
-0.00814005
-0.0071615
-0.0070489
-0.00492039
-0.00358008
-0.00369866
-0.00408991
-0.00481103
-0.00582025
-0.0069594
-0.0080711
-0.00903962
-0.00979211
-0.0102883
-0.0105132
-0.0104644
-0.0101561
-0.00959975
-0.00884917
-0.00793227
-0.0069739
-0.00577563
-0.00540248
-0.00266923
-0.00323084
-0.00305854
-0.00314252
-0.00366773
-0.00460389
-0.00576775
-0.00696272
-0.00804028
-0.00890324
-0.00949388
-0.00978844
-0.00977911
-0.00947906
-0.00887393
-0.008023
-0.00691961
-0.00567408
-0.00407574
-0.00307704
0.00102452
-0.00305691
-0.00246674
-0.00220919
-0.00253584
-0.0034005
-0.00458677
-0.00586404
-0.00705661
-0.00804359
-0.00874653
-0.00912765
-0.00916538
-0.00886892
-0.00824232
-0.00730041
-0.00595944
-0.00428753
-0.00191659
0.00056765
0.00800905
-0.00302284
-0.00194546
-0.00145449
-0.00163913
-0.00244664
-0.00365439
-0.00500804
-0.00630722
-0.00740721
-0.00822116
-0.00869861
-0.00882226
-0.00857712
-0.00794066
-0.00685278
-0.00523616
-0.00297476
0.000919648
0.00668805
0.0195551
-0.00366076
-0.000710444
-0.000109635
-0.000476739
-0.00134795
-0.00260754
-0.00405669
-0.0054675
-0.00667586
-0.00757825
-0.00812233
-0.00827404
-0.00801552
-0.00731952
-0.00614622
-0.00430967
-0.00100566
0.00537672
0.0167876
0.0343831
)
;

boundaryField
{
    movingWall
    {
        type            zeroGradient;
    }
    fixedWalls
    {
        type            zeroGradient;
    }
    frontAndBack
    {
        type            empty;
    }
}


// ************************************************************************* //
