/*--------------------------------*- C++ -*----------------------------------*\
  =========                 |
  \\      /  F ield         | OpenFOAM: The Open Source CFD Toolbox
   \\    /   O peration     | Website:  https://openfoam.org
    \\  /    A nd           | Version:  13
     \\/     M anipulation  |
\*---------------------------------------------------------------------------*/
FoamFile
{
    format      ascii;
    class       surfaceScalarField;
    location    "6";
    object      phi;
}
// * * * * * * * * * * * * * * * * * * * * * * * * * * * * * * * * * * * * * //

dimensions      [0 3 -1 0 0 0 0];

internalField   nonuniform List<scalar> 
760
(
1.73605e-07
-1.73609e-07
2.29366e-08
1.50668e-07
-5.78755e-07
6.01692e-07
-1.7005e-06
1.12174e-06
-3.04531e-06
1.34481e-06
-4.25801e-06
1.21271e-06
-5.29362e-06
1.03561e-06
-6.11796e-06
8.24337e-07
-6.73074e-06
6.12774e-07
-7.14438e-06
4.13644e-07
-7.37325e-06
2.28872e-07
-7.41538e-06
4.21268e-08
-7.25664e-06
-1.58742e-07
-6.89924e-06
-3.57398e-07
-6.28254e-06
-6.16703e-07
-5.37759e-06
-9.0495e-07
-4.13579e-06
-1.24179e-06
-2.59853e-06
-1.53727e-06
-9.86427e-07
-1.6121e-06
-9.86427e-07
-2.32259e-07
5.86506e-08
-1.01951e-06
9.3792e-07
-2.26522e-06
1.8474e-06
-3.52684e-06
2.38336e-06
-4.52592e-06
2.34388e-06
-5.42188e-06
2.10867e-06
-6.15686e-06
1.77059e-06
-6.73822e-06
1.4057e-06
-7.17653e-06
1.05108e-06
-7.47181e-06
7.08928e-07
-7.61056e-06
3.6762e-07
-7.5757e-06
7.26613e-09
-7.40534e-06
-3.291e-07
-7.05241e-06
-7.10335e-07
-6.50861e-06
-1.1605e-06
-5.72856e-06
-1.685e-06
-4.67384e-06
-2.29651e-06
-3.28732e-06
-2.92379e-06
-1.60825e-06
-3.29117e-06
-2.59468e-06
-8.17997e-07
8.76648e-07
-1.9956e-06
2.11553e-06
-3.12787e-06
2.97966e-06
-4.03479e-06
3.29029e-06
-4.79594e-06
3.10503e-06
-5.42714e-06
2.73987e-06
-5.92658e-06
2.27003e-06
-6.28969e-06
1.76881e-06
-6.52596e-06
1.28735e-06
-6.63932e-06
8.22285e-07
-6.64942e-06
3.77726e-07
-6.57455e-06
-6.7608e-08
-6.39182e-06
-5.1183e-07
-6.09132e-06
-1.01084e-06
-5.65743e-06
-1.59438e-06
-5.0549e-06
-2.28753e-06
-4.24743e-06
-3.10399e-06
-3.17001e-06
-4.00121e-06
-1.74716e-06
-4.71401e-06
-4.34184e-06
-1.08008e-06
1.95672e-06
-2.21333e-06
3.24878e-06
-3.14465e-06
3.91099e-06
-3.84217e-06
3.98781e-06
-4.39242e-06
3.65529e-06
-4.80797e-06
3.15541e-06
-5.10288e-06
2.56494e-06
-5.30034e-06
1.96627e-06
-5.41115e-06
1.39816e-06
-5.45008e-06
8.61213e-07
-5.42125e-06
3.48898e-07
-5.33038e-06
-1.58474e-07
-5.16283e-06
-6.79382e-07
-4.91759e-06
-1.25608e-06
-4.58415e-06
-1.92782e-06
-4.13595e-06
-2.73573e-06
-3.53419e-06
-3.70575e-06
-2.71583e-06
-4.81957e-06
-1.55786e-06
-5.87198e-06
-5.8997e-06
-1.06032e-06
3.01704e-06
-2.02813e-06
4.21659e-06
-2.76893e-06
4.65178e-06
-3.30875e-06
4.52764e-06
-3.70366e-06
4.05019e-06
-3.97527e-06
3.42703e-06
-4.15308e-06
2.74275e-06
-4.26035e-06
2.07353e-06
-4.30641e-06
1.44423e-06
-4.30018e-06
8.54977e-07
-4.24498e-06
2.93703e-07
-4.14416e-06
-2.59292e-07
-3.99433e-06
-8.29213e-07
-3.79747e-06
-1.45294e-06
-3.54872e-06
-2.17656e-06
-3.23013e-06
-3.05432e-06
-2.8015e-06
-4.13439e-06
-2.19472e-06
-5.42635e-06
-1.30426e-06
-6.76244e-06
-7.20396e-06
-8.90792e-07
3.90783e-06
-1.66418e-06
4.98998e-06
-2.2392e-06
5.22679e-06
-2.6506e-06
4.93904e-06
-2.93518e-06
4.33477e-06
-3.11894e-06
3.61079e-06
-3.23125e-06
2.85505e-06
-3.28972e-06
2.132e-06
-3.30361e-06
1.45812e-06
-3.27853e-06
8.29897e-07
-3.21734e-06
2.32517e-07
-3.12184e-06
-3.54799e-07
-2.99319e-06
-9.57856e-07
-2.83508e-06
-1.61106e-06
-2.6491e-06
-2.36254e-06
-2.42834e-06
-3.27508e-06
-2.1484e-06
-4.41433e-06
-1.73921e-06
-5.83554e-06
-1.05279e-06
-7.44886e-06
-8.25675e-06
-6.82491e-07
4.59033e-06
-1.24941e-06
5.55691e-06
-1.67537e-06
5.65275e-06
-1.97586e-06
5.23953e-06
-2.17947e-06
4.53838e-06
-2.30784e-06
3.73917e-06
-2.38372e-06
2.93093e-06
-2.41992e-06
2.16821e-06
-2.42414e-06
1.46233e-06
-2.40025e-06
8.06011e-07
-2.34946e-06
1.81721e-07
-2.27176e-06
-4.32496e-07
-2.1684e-06
-1.06121e-06
-2.04451e-06
-1.73495e-06
-1.90745e-06
-2.49959e-06
-1.75819e-06
-3.42434e-06
-1.58059e-06
-4.59194e-06
-1.31539e-06
-6.10074e-06
-8.64779e-07
-7.89947e-06
-9.12152e-06
-4.43507e-07
5.03383e-06
-8.35583e-07
5.94898e-06
-1.12737e-06
5.94454e-06
-1.33178e-06
5.44394e-06
-1.4718e-06
4.67839e-06
-1.56194e-06
3.82931e-06
-1.61727e-06
2.98627e-06
-1.64592e-06
2.19685e-06
-1.65293e-06
1.46934e-06
-1.6403e-06
7.93384e-07
-1.60761e-06
1.49022e-07
-1.55388e-06
-4.86227e-07
-1.47974e-06
-1.13535e-06
-1.39042e-06
-1.82427e-06
-1.29735e-06
-2.59266e-06
-1.20993e-06
-3.51176e-06
-1.11805e-06
-4.68381e-06
-9.68403e-07
-6.25039e-06
-6.72169e-07
-8.19571e-06
-9.79369e-06
-2.35103e-07
5.26893e-06
-4.49412e-07
6.16329e-06
-6.10887e-07
6.10601e-06
-7.30609e-07
5.56366e-06
-8.16134e-07
4.76392e-06
-8.75649e-07
3.88882e-06
-9.16827e-07
3.02745e-06
-9.43086e-07
2.22311e-06
-9.56516e-07
1.48277e-06
-9.57385e-07
7.94254e-07
-9.4468e-07
1.36317e-07
-9.17302e-07
-5.13605e-07
-8.75926e-07
-1.17673e-06
-8.25515e-07
-1.87468e-06
-7.78239e-07
-2.63994e-06
-7.48652e-07
-3.54135e-06
-7.33503e-07
-4.69896e-06
-6.84589e-07
-6.2993e-06
-5.39288e-07
-8.34101e-06
-1.0333e-05
-1.96613e-08
5.2886e-06
-8.91571e-08
6.23279e-06
-1.35816e-07
6.15267e-06
-1.72966e-07
5.60081e-06
-2.03805e-07
4.79476e-06
-2.32211e-07
3.91723e-06
-2.58661e-07
3.0539e-06
-2.81697e-07
2.24615e-06
-3.00342e-07
1.50142e-06
-3.13674e-07
8.07587e-07
-3.2085e-07
1.43493e-07
-3.21382e-07
-5.13073e-07
-3.1623e-07
-1.18188e-06
-3.10179e-07
-1.88073e-06
-3.15035e-07
-2.63508e-06
-3.44191e-07
-3.5122e-06
-4.10049e-07
-4.6331e-06
-4.52762e-07
-6.25659e-06
-4.13859e-07
-8.37991e-06
-1.07468e-05
1.75101e-07
5.11349e-06
2.63943e-07
6.14395e-06
3.3748e-07
6.07913e-06
3.69707e-07
5.56859e-06
3.87202e-07
4.77726e-06
3.89788e-07
3.91464e-06
3.80845e-07
3.06284e-06
3.64547e-07
2.26245e-06
3.43742e-07
1.52222e-06
3.19835e-07
8.31494e-07
2.93044e-07
1.70284e-07
2.62902e-07
-4.82931e-07
2.2804e-07
-1.14702e-06
1.8457e-07
-1.83726e-06
1.21867e-07
-2.57238e-06
1.59869e-08
-3.40632e-06
-1.1308e-07
-4.50404e-06
-2.5698e-07
-6.11269e-06
-3.28953e-07
-8.30794e-06
-1.10758e-05
3.56033e-07
4.75746e-06
5.89033e-07
5.91095e-06
7.70993e-07
5.89717e-06
8.87108e-07
5.45247e-06
9.62091e-07
4.70228e-06
1.00402e-06
3.87271e-06
1.02008e-06
3.04679e-06
1.01666e-06
2.26587e-06
9.98011e-07
1.54087e-06
9.65986e-07
8.63519e-07
9.20046e-07
2.16225e-07
8.58821e-07
-4.21706e-07
7.80023e-07
-1.06822e-06
6.80243e-07
-1.73748e-06
5.5127e-07
-2.4434e-06
3.82612e-07
-3.23766e-06
1.60514e-07
-4.28194e-06
-9.03133e-08
-5.86186e-06
-2.39739e-07
-8.15851e-06
-1.13155e-05
5.29651e-07
4.22781e-06
9.01838e-07
5.53876e-06
1.18472e-06
5.61429e-06
1.38854e-06
5.24865e-06
1.52917e-06
4.56165e-06
1.62029e-06
3.78159e-06
1.67102e-06
2.99606e-06
1.68873e-06
2.24816e-06
1.67846e-06
1.55114e-06
1.64225e-06
8.99723e-07
1.57876e-06
2.79718e-07
1.48585e-06
-3.28801e-07
1.36015e-06
-9.42513e-07
1.19851e-06
-1.57584e-06
9.96781e-07
-2.24168e-06
7.45629e-07
-2.98651e-06
4.24819e-07
-3.96113e-06
7.61798e-08
-5.51322e-06
-1.4105e-07
-7.94128e-06
-1.14566e-05
6.68265e-07
3.55955e-06
1.16311e-06
5.04391e-06
1.54671e-06
5.2307e-06
1.85461e-06
4.94074e-06
2.07938e-06
4.33688e-06
2.23666e-06
3.6243e-06
2.33658e-06
2.89614e-06
2.38717e-06
2.19757e-06
2.39405e-06
1.54426e-06
2.35949e-06
9.3428e-07
2.28161e-06
3.57599e-07
2.15717e-06
-2.04358e-07
1.98297e-06
-7.68319e-07
1.75532e-06
-1.34819e-06
1.47268e-06
-1.95904e-06
1.13112e-06
-2.64495e-06
7.15857e-07
-3.54586e-06
2.95963e-07
-5.09333e-06
1.92434e-08
-7.66456e-06
-1.14373e-05
7.71185e-07
2.78836e-06
1.37424e-06
4.44086e-06
1.86438e-06
4.74056e-06
2.28185e-06
4.52327e-06
2.60707e-06
4.01166e-06
2.84742e-06
3.38395e-06
3.01182e-06
2.73174e-06
3.1085e-06
2.1009e-06
3.14307e-06
1.50969e-06
3.11819e-06
9.59156e-07
3.03227e-06
4.43524e-07
2.87806e-06
-5.01485e-08
2.65653e-06
-5.46796e-07
2.36209e-06
-1.05374e-06
1.99433e-06
-1.59127e-06
1.55815e-06
-2.20877e-06
1.04441e-06
-3.03212e-06
5.35087e-07
-4.58401e-06
1.49986e-07
-7.27946e-06
-1.12874e-05
7.53963e-07
2.0344e-06
1.43735e-06
3.75747e-06
2.05501e-06
4.12289e-06
2.60469e-06
3.97359e-06
3.05806e-06
3.5583e-06
3.40916e-06
3.03286e-06
3.66286e-06
2.47803e-06
3.82632e-06
1.93743e-06
3.90486e-06
1.43116e-06
3.90152e-06
9.62494e-07
3.81557e-06
5.29474e-07
3.64622e-06
1.19199e-07
3.3819e-06
-2.82474e-07
3.02824e-06
-7.00078e-07
2.5806e-06
-1.14363e-06
2.05302e-06
-1.68119e-06
1.44095e-06
-2.42005e-06
8.3271e-07
-3.97577e-06
3.34647e-07
-6.7814e-06
-1.09527e-05
6.34232e-07
1.40017e-06
1.38755e-06
3.00415e-06
2.14557e-06
3.36488e-06
2.83829e-06
3.28087e-06
3.42996e-06
2.96663e-06
3.90708e-06
2.55574e-06
4.26595e-06
2.11917e-06
4.51006e-06
1.69331e-06
4.64538e-06
1.29584e-06
4.6765e-06
9.31367e-07
4.60733e-06
5.98649e-07
4.43991e-06
2.86617e-07
4.15386e-06
3.57098e-09
3.77486e-06
-3.21071e-07
3.27826e-06
-6.47034e-07
2.68423e-06
-1.08715e-06
1.99988e-06
-1.73571e-06
1.28713e-06
-3.26302e-06
6.07671e-07
-6.10194e-06
-1.0345e-05
1.34288e-07
1.26588e-06
9.77347e-07
2.16109e-06
1.90932e-06
2.43291e-06
2.7923e-06
2.39788e-06
3.56134e-06
2.19758e-06
4.19584e-06
1.92124e-06
4.69107e-06
1.62395e-06
5.04837e-06
1.33601e-06
5.27671e-06
1.06751e-06
5.38365e-06
8.24422e-07
5.37535e-06
6.06955e-07
5.25724e-06
4.04723e-07
5.04198e-06
2.18828e-07
4.73071e-06
-9.80031e-09
4.27436e-06
-1.90685e-07
3.70738e-06
-5.20166e-07
3.00197e-06
-1.0303e-06
2.20065e-06
-2.4617e-06
1.14289e-06
-5.04418e-06
-9.20214e-06
-5.92261e-07
1.85814e-06
3.59878e-07
1.20895e-06
1.57516e-06
1.21762e-06
2.71678e-06
1.25626e-06
3.70898e-06
1.20539e-06
4.54433e-06
1.08589e-06
5.22672e-06
9.41552e-07
5.75468e-06
8.08051e-07
6.14503e-06
6.77159e-07
6.40298e-06
5.66468e-07
6.55432e-06
4.55618e-07
6.59533e-06
3.63711e-07
6.54865e-06
2.65507e-07
6.36662e-06
1.72232e-07
6.11078e-06
6.51594e-08
5.74084e-06
-1.50227e-07
5.18331e-06
-4.72775e-07
4.34028e-06
-1.61867e-06
2.57268e-06
-3.27658e-06
-6.62946e-06
1.85814e-06
3.06709e-06
4.28472e-06
5.54098e-06
6.74637e-06
7.83226e-06
8.77381e-06
9.58186e-06
1.0259e-05
1.08255e-05
1.12811e-05
1.16448e-05
1.19103e-05
1.20826e-05
1.21477e-05
1.19975e-05
1.15247e-05
9.90604e-06
6.62946e-06
)
;

boundaryField
{
    movingWall
    {
        type            calculated;
        value           uniform 0;
    }
    fixedWalls
    {
        type            calculated;
        value           uniform 0;
    }
    frontAndBack
    {
        type            empty;
    }
}


// ************************************************************************* //
